FOO
138240
    1MOL0     O    1   2.249   4.613   4.636 -0.1203 -0.1438  0.5477
    1MOL0     C    2   2.227   4.726   4.677 -0.4644 -0.5062 -0.1421
    1MOL0     O    3   2.327   4.811   4.735  0.2620  0.6224  0.0476
    1MOL0     C    4   2.455   4.763   4.725 -0.2404  0.0096 -0.1703
    1MOL0     C    5   2.509   4.668   4.817  0.4728 -1.2498 -0.6021
    1MOL0     C    6   2.645   4.643   4.832  0.2014  0.1600 -0.9092
    1MOL0     C    7   2.727   4.709   4.749 -0.1014  0.2725 -0.3173
    1MOL0     O    8   2.860   4.702   4.767  0.3887  0.3857  0.1927
    1MOL0     C    9   2.923   4.587   4.695 -0.4587  0.4037  0.4937
    1MOL0     C   10   3.075   4.591   4.704 -0.1401 -0.6223 -0.4569
    1MOL0     C   11   3.133   4.448   4.682 -0.5159  0.4795  0.9288
    1MOL0     C   12   3.282   4.455   4.735 -0.1540  0.4893 -0.0284
    1MOL0     C   13   3.352   4.312   4.727  0.5732 -0.7136 -0.7537
    1MOL0     C   14   3.501   4.326   4.696 -0.0472  0.7629 -1.0581
    1MOL0     C   15   3.575   4.400   4.807 -0.5212  0.7163 -0.8399
    1MOL0     C   16   3.739   4.372   4.790  0.0708  1.4067  0.1346
    1MOL0     N   17   3.821   4.431   4.901  0.0661  0.1172  0.2711
    1MOL0     C   18   3.959   4.456   4.890 -1.4486 -0.0930  0.0553
    1MOL0     C   19   4.005   4.470   5.020 -0.5982 -0.0547  0.2149
    1MOL0     C   20   4.138   4.508   5.076 -0.2435  0.0870  0.0853
    1MOL0     C   21   4.125   4.649   5.132  0.3108 -0.1704  0.6786
    1MOL0     C   22   4.150   4.751   5.016 -0.1143  0.1327 -0.4107
    1MOL0     C   23   4.082   4.879   5.055  0.1167  0.2545  0.4320
    1MOL0     O   24   4.094   4.985   4.957 -0.4856  0.6379  0.5165
    1MOL0     C   25   4.213   5.046   4.959 -0.5219  0.0020  0.1835
    1MOL0     C   26   4.312   5.009   4.870 -0.0983  0.6704  0.3287
    1MOL0     C   27   4.434   5.064   4.865  0.1103  0.6937 -0.4933
    1MOL0     C   28   4.458   5.186   4.935 -1.1752  0.5492 -0.3941
    1MOL0     C   29   4.583   5.259   4.923 -0.1378 -1.2304  0.1950
    1MOL0     O   30   4.627   5.324   5.036  0.1117 -0.3617  0.7306
    1MOL0     C   31   4.731   5.409   5.019 -0.5535  0.2755 -0.1458
    1MOL0     C   32   4.735   5.522   4.927 -0.5905  0.2286 -0.0223
    1MOL0     C   33   4.853   5.591   4.907 -0.2625 -0.3372 -1.1573
    1MOL0     C   34   4.972   5.552   4.967  0.0454  0.8745 -0.5345
    1MOL0     O   35   5.087   5.617   4.922 -0.2741 -0.0155 -0.0442
    1MOL0     C   36   5.210   5.583   4.988  0.4678  0.4728  0.6149
    1MOL0     C   37   5.335   5.650   4.939  0.1175  0.1588 -0.2040
    1MOL0     C   38   5.463   5.592   5.011 -0.1169 -0.2724  0.0095
    1MOL0     C   39   5.589   5.660   4.936 -0.8072 -0.3118 -0.2916
    1MOL0     C   40   5.688   5.565   4.892 -0.1016 -1.2252  0.2541
    1MOL0     C   41   5.803   5.617   4.795 -0.4428  0.0839 -0.5390
    1MOL0     C   42   5.919   5.512   4.792 -0.5197 -0.4111  0.3254
    1MOL0     C   43   6.027   5.541   4.687  0.4663  0.5919  0.0355
    1MOL0    Cl   44   6.125   5.682   4.737 -0.0336 -0.1393  0.2228
    1MOL0     C   45   4.971   5.442   5.063 -0.5055 -0.6102 -0.0031
    1MOL0     C   46   4.849   5.380   5.094  0.0555  0.1847  0.6334
    1MOL0     O   47   4.632   5.270   4.807  0.1418  0.5125  0.3650
    1MOL0     C   48   4.359   5.221   5.025 -0.4504  0.0610 -0.4313
    1MOL0     C   49   4.241   5.151   5.046 -0.5094  0.5601  0.1111
    1MOL0     N   50   3.894   4.445   5.106 -0.0165 -0.4793  0.4489
    1MOL0     N   51   3.789   4.419   5.034 -0.1292 -0.6624  0.8982
    1MOL0     C   52   2.680   4.797   4.651  0.3587  1.0980 -0.0803
    1MOL0     C   53   2.546   4.821   4.632 -0.3454 -0.2384 -0.3488
    1MOL0     C   54   2.095   4.785   4.680  0.0529  0.4077  0.5715
    1MOL0     C   55   2.073   4.887   4.771 -0.3008  0.1529  0.0421
    1MOL0     C   56   1.952   4.952   4.779 -0.2011 -0.2678  0.1729
    1MOL0     C   57   1.840   4.923   4.689  0.2707 -1.0949  0.1238
    1MOL0     O   58   1.725   4.997   4.694 -0.8085  0.0276  0.2348
    1MOL0     C   59   1.694   5.090   4.796 -0.0416 -1.0261 -0.6046
    1MOL0     C   60   1.539   5.120   4.786 -0.1677  0.2739  0.4191
    1MOL0     C   61   1.489   5.150   4.929  1.3379  0.1216  0.6596
    1MOL0     C   62   1.334   5.147   4.929 -0.7142 -0.0217  0.4866
    1MOL0     C   63   1.276   5.251   4.841  0.0374 -0.6179 -0.5987
    1MOL0     C   64   1.248   5.342   4.772 -0.6206 -0.4723 -0.5670
    1MOL0     C   65   1.854   4.815   4.606  0.2667  0.6655  0.2078
    1MOL0     C   66   1.989   4.749   4.599 -0.4673 -0.0592  0.2851
    1MOL0     C   67   2.001   4.638   4.493  0.1191 -0.1364 -0.4349
    1MOL0     H   68   2.439   4.618   4.883 -0.3454 -1.3359 -1.5109
    1MOL0     H   69   2.687   4.578   4.907 -1.3013  0.6066  0.3653
    1MOL0     H   70   2.886   4.496   4.744  1.8786 -0.7008  0.3198
    1MOL0     H   71   2.881   4.583   4.594  1.2952 -1.6004 -0.2214
    1MOL0     H   72   3.103   4.625   4.804  2.5520  1.2452 -1.7349
    1MOL0     H   73   3.110   4.661   4.628 -1.6824  1.6334  0.8229
    1MOL0     H   74   3.127   4.424   4.575 -0.2962  1.6331  0.6414
    1MOL0     H   75   3.084   4.373   4.744 -0.4620 -0.6090 -0.3072
    1MOL0     H   76   3.334   4.535   4.682  1.3228 -0.6468 -0.3510
    1MOL0     H   77   3.293   4.496   4.836  2.5834 -0.8806  0.3262
    1MOL0     H   78   3.336   4.251   4.816  0.1671 -1.5619 -1.3919
    1MOL0     H   79   3.302   4.252   4.651 -1.6924 -0.7127  0.6182
    1MOL0     H   80   3.543   4.231   4.662  1.6070  1.5730 -1.4094
    1MOL0     H   81   3.506   4.386   4.604  2.4891  0.1630 -1.4107
    1MOL0     H   82   3.541   4.380   4.909  1.5646  0.0856 -0.2029
    1MOL0     H   83   3.562   4.509   4.805  0.3258  0.9484  1.9765
    1MOL0     H   84   3.755   4.264   4.795 -1.2122  1.2358  0.8776
    1MOL0     H   85   3.769   4.404   4.690 -1.7286  0.3009 -0.8228
    1MOL0     H   86   4.033   4.487   4.818  2.2510 -0.8730  3.1951
    1MOL0     H   87   4.156   4.434   5.155  0.7740 -0.8646 -1.0120
    1MOL0     H   88   4.220   4.498   5.005 -3.3751  1.1403 -4.0889
    1MOL0     H   89   4.030   4.668   5.181  0.9808  1.5834  1.3742
    1MOL0     H   90   4.202   4.671   5.206  1.0423  0.1175 -0.1369
    1MOL0     H   91   4.101   4.721   4.923 -0.1420  2.9232 -1.3933
    1MOL0     H   92   4.256   4.761   4.993 -0.1800 -0.4460 -1.0059
    1MOL0     H   93   4.119   4.915   5.151 -2.0205  0.1250  1.3726
    1MOL0     H   94   3.977   4.849   5.066  0.5525 -0.9262  1.5626
    1MOL0     H   95   4.276   4.944   4.791  2.3479  0.4469 -0.6830
    1MOL0     H   96   4.518   5.023   4.811  2.1065  2.4466  1.1294
    1MOL0     H   97   4.648   5.574   4.888  0.9646  3.3751  0.3895
    1MOL0     H   98   4.845   5.674   4.837 -1.2408  0.0786 -0.5745
    1MOL0     H   99   5.188   5.595   5.095 -0.4462  0.7068  0.4083
    1MOL0     H  100   5.223   5.477   4.963 -1.7600  0.7141 -2.0108
    1MOL0     H  101   5.338   5.631   4.832 -0.1411 -4.2111  0.3824
    1MOL0     H  102   5.348   5.758   4.950  2.5701 -0.0638 -0.3324
    1MOL0     H  103   5.455   5.612   5.118 -0.8852 -1.2276  0.1385
    1MOL0     H  104   5.461   5.484   4.998 -0.7835 -0.5492  2.1228
    1MOL0     H  105   5.644   5.738   4.991  2.5470 -2.1841 -0.7175
    1MOL0     H  106   5.546   5.711   4.849 -0.9899  1.2313  0.6549
    1MOL0     H  107   5.629   5.497   4.830 -1.1212 -0.1864  0.0550
    1MOL0     H  108   5.729   5.498   4.968  1.2176  0.3121  0.9520
    1MOL0     H  109   5.773   5.627   4.691  1.6186  0.6356 -1.1084
    1MOL0     H  110   5.839   5.717   4.819 -3.9165  1.1634  0.8927
    1MOL0     H  111   5.872   5.428   4.741 -0.8939  0.3210 -0.5564
    1MOL0     H  112   5.951   5.490   4.895 -1.3437  1.8300  1.1325
    1MOL0     H  113   6.092   5.453   4.683  0.6709  0.7637 -0.5081
    1MOL0     H  114   5.987   5.565   4.588  1.2215  0.2386 -0.3681
    1MOL0     H  115   5.066   5.409   5.104  0.9735  2.8214 -0.3430
    1MOL0     H  116   4.858   5.294   5.160  2.4813 -3.2008 -3.5784
    1MOL0     H  117   4.370   5.300   5.098  2.8104 -2.7645  2.5236
    1MOL0     H  118   4.167   5.186   5.117  1.0679 -1.8096  3.1571
    1MOL0     H  119   2.752   4.849   4.588  1.5024  1.4189  1.4458
    1MOL0     H  120   2.505   4.882   4.552 -0.9402 -0.3787 -0.1570
    1MOL0     H  121   2.141   4.912   4.852  2.5345 -2.1331 -1.4237
    1MOL0     H  122   1.959   5.020   4.863 -0.1118 -0.8516  0.6372
    1MOL0     H  123   1.749   5.182   4.776  0.7689 -0.8305  2.1070
    1MOL0     H  124   1.724   5.055   4.895 -0.9514 -0.4850 -0.1238
    1MOL0     H  125   1.485   5.031   4.752  0.7541  0.0254 -0.4171
    1MOL0     H  126   1.523   5.207   4.721  0.9006  1.6878  1.9729
    1MOL0     H  127   1.539   5.237   4.973  1.7792 -0.0236  0.4573
    1MOL0     H  128   1.523   5.065   4.989  0.4483 -1.7895 -1.3707
    1MOL0     H  129   1.308   5.046   4.896 -1.7348  0.5061 -0.3640
    1MOL0     H  130   1.300   5.171   5.030  1.8287  0.9576  1.1993
    1MOL0     H  131   1.215   5.422   4.709 -5.4364 -0.6911  1.2949
    1MOL0     H  132   1.766   4.779   4.555  0.3368  1.9450 -0.8852
    1MOL0     H  133   2.052   4.546   4.524  3.0948  1.4566 -0.2833
    1MOL0     H  134   1.905   4.621   4.443  0.1855  0.8222 -0.9077
    1MOL0     H  135   2.056   4.685   4.412 -0.3083  0.9559 -0.1114
    2MOL0     O  136   0.505   7.715   9.344 -0.2398 -0.1346  0.0964
    2MOL0     C  137   0.452   7.622   9.294 -0.4677  0.7491 -0.3601
    2MOL0     O  138   0.499   7.558   9.187  0.4145 -0.1646  0.2278
    2MOL0     C  139   0.589   7.614   9.106 -0.2828 -0.5019  0.8831
    2MOL0     C  140   0.726   7.576   9.095  0.0095  0.1898 -0.4280
    2MOL0     C  141   0.813   7.638   9.015  0.3582  0.1277  0.5503
    2MOL0     C  142   0.771   7.749   8.938  0.1225  0.1566  0.1159
    2MOL0     O  143   0.850   7.838   8.863  0.2109  0.2106 -0.1448
    2MOL0     C  144   0.991   7.864   8.890 -0.6194  0.4026 -0.3554
    2MOL0     C  145   1.059   7.963   8.790  0.1487 -0.3860  0.0171
    2MOL0     C  146   1.032   7.934   8.639 -0.6319 -0.1347  0.0110
    2MOL0     C  147   1.136   8.007   8.545  0.2599  0.3047 -0.0337
    2MOL0     C  148   1.125   7.964   8.404 -0.6099 -0.8523  1.0444
    2MOL0     C  149   1.153   7.814   8.374  0.0082 -0.2445  0.1575
    2MOL0     C  150   1.297   7.777   8.406  0.1631  0.6441 -0.5250
    2MOL0     C  151   1.396   7.862   8.326 -0.1160  0.4603  0.7252
    2MOL0     N  152   1.516   7.779   8.319  0.5466 -0.1014  0.0850
    2MOL0     C  153   1.589   7.720   8.418  0.2168  0.0892  0.3475
    2MOL0     C  154   1.697   7.664   8.355 -0.4696  0.6079 -0.2807
    2MOL0     C  155   1.808   7.581   8.418  0.8349 -0.5738  0.9520
    2MOL0     C  156   1.935   7.648   8.469 -0.5983 -0.2197  0.7691
    2MOL0     C  157   2.055   7.559   8.465  0.5308 -0.1507  0.4415
    2MOL0     C  158   2.175   7.627   8.536 -0.3557  0.2701 -0.2428
    2MOL0     O  159   2.269   7.526   8.582 -0.1103  0.5880  0.0204
    2MOL0     C  160   2.371   7.570   8.663  0.2629  0.4856 -0.7617
    2MOL0     C  161   2.460   7.470   8.697 -0.0760 -0.5693 -0.3125
    2MOL0     C  162   2.574   7.486   8.782 -0.2020  0.7787 -0.0371
    2MOL0     C  163   2.587   7.611   8.838  0.6281  0.3891 -0.2017
    2MOL0     C  164   2.718   7.643   8.905  0.0920  0.2696 -1.1266
    2MOL0     O  165   2.814   7.548   8.902  0.0958  0.2618 -0.6403
    2MOL0     C  166   2.950   7.565   8.931  0.8092 -0.5208  0.0563
    2MOL0     C  167   3.009   7.694   8.923  0.1184  0.0142  0.3011
    2MOL0     C  168   3.147   7.722   8.927 -0.2686  0.1540 -0.0118
    2MOL0     C  169   3.230   7.613   8.952 -0.4856  0.7476 -0.5466
    2MOL0     O  170   3.369   7.619   8.946  0.2176  0.1836 -0.5785
    2MOL0     C  171   3.414   7.700   8.842 -0.0882 -0.3437  0.6924
    2MOL0     C  172   3.549   7.669   8.824 -0.9892 -0.1542 -0.6887
    2MOL0     C  173   3.625   7.755   8.725  0.6786 -0.4988  0.6500
    2MOL0     C  174   3.779   7.733   8.729 -0.8575 -0.5685 -0.0202
    2MOL0     C  175   3.843   7.812   8.614 -0.5987  0.0265  0.2412
    2MOL0     C  176   3.987   7.833   8.651 -0.4576  0.4844 -0.3888
    2MOL0     C  177   4.067   7.920   8.554  0.2077 -0.4862  0.8046
    2MOL0     C  178   4.186   7.981   8.618 -0.3470 -0.9902  0.1127
    2MOL0    Cl  179   4.137   8.093   8.744  0.4367  0.3213  0.0248
    2MOL0     C  180   3.177   7.490   8.970 -0.7531 -0.2575 -1.2589
    2MOL0     C  181   3.035   7.467   8.959 -0.6823  0.1964 -0.0431
    2MOL0     O  182   2.728   7.756   8.957  1.1819  0.1409  0.2900
    2MOL0     C  183   2.492   7.702   8.819  0.2085 -0.0234 -0.0983
    2MOL0     C  184   2.386   7.687   8.726  0.5913  0.1496 -1.2959
    2MOL0     N  185   1.698   7.700   8.225 -0.1943 -0.1926 -0.3021
    2MOL0     N  186   1.581   7.758   8.199 -0.1239 -0.5992 -0.4080
    2MOL0     C  187   0.636   7.766   8.926 -0.3224  0.0502 -0.5116
    2MOL0     C  188   0.544   7.719   9.025  0.2668  0.1032  0.1311
    2MOL0     C  189   0.349   7.569   9.389 -0.2042  0.0057  0.0545
    2MOL0     C  190   0.323   7.629   9.513  0.3511  0.4252 -0.4084
    2MOL0     C  191   0.252   7.554   9.606 -0.2543  0.1856  0.0044
    2MOL0     C  192   0.182   7.442   9.576  0.8335  1.1020  0.7274
    2MOL0     O  193   0.112   7.386   9.675  0.2014 -0.0940 -0.6890
    2MOL0     C  194   0.009   7.296   9.633  0.5838  0.9216 -0.6147
    2MOL0     C  195  -0.065   7.242   9.756  0.6461 -0.0763 -0.1067
    2MOL0     C  196   0.035   7.151   9.833  0.2831  1.2056 -1.1759
    2MOL0     C  197   0.090   7.211   9.965 -0.4015 -0.9462 -0.1699
    2MOL0     C  198  -0.009   7.218  10.069  0.5662 -0.2165 -0.0216
    2MOL0     C  199  -0.099   7.222  10.146  0.5162 -0.6855 -0.9872
    2MOL0     C  200   0.181   7.401   9.442  0.3490  0.2764 -0.0568
    2MOL0     C  201   0.266   7.463   9.351  0.3235  1.0014 -0.6877
    2MOL0     C  202   0.263   7.401   9.215 -1.7584  0.1522  0.8306
    2MOL0     H  203   0.759   7.491   9.154 -1.7840 -0.6390 -0.5520
    2MOL0     H  204   0.918   7.622   9.037  0.6935 -1.5117 -1.8114
    2MOL0     H  205   1.009   7.890   8.995  2.0253 -4.2381  0.6417
    2MOL0     H  206   1.042   7.767   8.885  1.3027  1.3860 -0.5517
    2MOL0     H  207   1.168   7.968   8.800  0.3553  4.5256 -2.0875
    2MOL0     H  208   1.017   8.061   8.814  1.6165 -0.1168  1.6538
    2MOL0     H  209   0.928   7.966   8.625 -0.7521 -0.0308  1.0784
    2MOL0     H  210   1.030   7.825   8.628 -0.9985 -0.2911  1.4285
    2MOL0     H  211   1.131   8.116   8.546  3.7875  0.5897 -0.8478
    2MOL0     H  212   1.239   7.990   8.577  0.8478  1.5044 -1.2250
    2MOL0     H  213   1.027   7.992   8.366 -0.1724  0.8520  1.0789
    2MOL0     H  214   1.183   8.027   8.336  1.1852 -2.2191  1.2319
    2MOL0     H  215   1.091   7.750   8.437 -1.3452  0.0097 -0.8424
    2MOL0     H  216   1.138   7.779   8.271  1.0506 -0.4632  0.0671
    2MOL0     H  217   1.306   7.671   8.380  0.7897  0.8397 -1.1381
    2MOL0     H  218   1.319   7.771   8.513  1.9188 -1.0741 -0.9227
    2MOL0     H  219   1.351   7.889   8.230 -0.6518  0.3704  0.9473
    2MOL0     H  220   1.417   7.955   8.379 -3.1704  1.1636  0.8736
    2MOL0     H  221   1.567   7.708   8.523  0.2670  1.9686  0.6176
    2MOL0     H  222   1.773   7.528   8.507 -0.7723 -0.3156  0.4980
    2MOL0     H  223   1.828   7.500   8.348 -2.4226 -0.5950 -0.1172
    2MOL0     H  224   1.956   7.744   8.421  1.1381 -0.7458  0.4316
    2MOL0     H  225   1.919   7.674   8.574 -0.2004  1.7758  0.3766
    2MOL0     H  226   2.089   7.539   8.363  2.0080  0.6736  0.7377
    2MOL0     H  227   2.030   7.462   8.509 -2.0453  0.0117 -0.4993
    2MOL0     H  228   2.141   7.683   8.624 -1.8485 -0.8868 -0.0299
    2MOL0     H  229   2.225   7.693   8.466 -2.9885  2.0352 -0.6209
    2MOL0     H  230   2.450   7.381   8.637  0.2263  0.4874 -1.9982
    2MOL0     H  231   2.637   7.398   8.791 -1.7469 -0.3759  0.1557
    2MOL0     H  232   2.943   7.776   8.898  1.3615  0.6950 -0.9603
    2MOL0     H  233   3.186   7.820   8.903  1.0519 -0.5525 -0.8354
    2MOL0     H  234   3.361   7.672   8.750 -0.6347  0.7478  0.6605
    2MOL0     H  235   3.408   7.807   8.862  0.8574  0.2908 -2.0286
    2MOL0     H  236   3.599   7.682   8.921 -2.5838 -0.7026  0.2319
    2MOL0     H  237   3.558   7.566   8.791  2.2031  0.0982 -0.9183
    2MOL0     H  238   3.591   7.730   8.624  0.9158  3.0331 -0.4327
    2MOL0     H  239   3.602   7.860   8.739 -1.2745 -0.4246 -2.2503
    2MOL0     H  240   3.791   7.625   8.721  1.0584 -0.3453 -0.5405
    2MOL0     H  241   3.806   7.772   8.828  0.7951  0.3695 -0.8081
    2MOL0     H  242   3.811   7.917   8.612  0.6105  0.6404  4.1213
    2MOL0     H  243   3.832   7.752   8.523  1.9275 -0.5145  0.2234
    2MOL0     H  244   3.980   7.883   8.748 -2.4108  0.8790 -0.6817
    2MOL0     H  245   4.048   7.742   8.652  1.3442  1.6445 -0.1253
    2MOL0     H  246   4.006   8.004   8.518  0.3302 -1.3248 -1.4591
    2MOL0     H  247   4.104   7.847   8.482  0.2035 -1.8613  2.1496
    2MOL0     H  248   4.248   7.901   8.659  0.8461 -1.2108 -1.9352
    2MOL0     H  249   4.248   8.029   8.540  1.9279 -1.3188  1.6199
    2MOL0     H  250   3.251   7.411   8.980 -0.8654 -0.5334 -2.4437
    2MOL0     H  251   3.002   7.364   8.957  0.5042 -0.2174  0.4397
    2MOL0     H  252   2.507   7.795   8.873 -0.5590  0.5085 -0.7741
    2MOL0     H  253   2.305   7.759   8.717  0.1745  0.3324  2.4098
    2MOL0     H  254   0.608   7.833   8.845 -0.5938 -3.2025 -3.3792
    2MOL0     H  255   0.441   7.753   9.014  0.1704 -0.3747 -0.4902
    2MOL0     H  256   0.366   7.727   9.530  1.7402 -0.2056 -0.2082
    2MOL0     H  257   0.243   7.598   9.705  0.4892  2.5945 -0.9307
    2MOL0     H  258   0.051   7.209   9.582  0.8979  0.1973  0.8033
    2MOL0     H  259  -0.069   7.334   9.567 -0.9426 -0.7291  0.1704
    2MOL0     H  260  -0.152   7.182   9.730  0.4906  0.4866 -0.9338
    2MOL0     H  261  -0.104   7.319   9.822 -0.5262  1.6828 -2.6803
    2MOL0     H  262   0.118   7.117   9.770 -1.2088 -0.6213 -2.2745
    2MOL0     H  263  -0.021   7.059   9.851  0.3773  1.0619 -1.5954
    2MOL0     H  264   0.175   7.154  10.004  0.1845  1.2015  1.9745
    2MOL0     H  265   0.129   7.311   9.944 -1.4501 -0.6008 -0.5260
    2MOL0     H  266  -0.177   7.198  10.216  1.0035  1.5708  0.4046
    2MOL0     H  267   0.127   7.317   9.400  0.8555  0.7926 -1.7904
    2MOL0     H  268   0.263   7.482   9.141 -1.9421 -0.0149  0.6465
    2MOL0     H  269   0.357   7.346   9.207 -0.5704  2.0443  0.9524
    2MOL0     H  270   0.182   7.331   9.193  0.3342 -2.0667 -0.3032
    3MOL0     O  271   1.632   4.265   2.554 -0.1737 -0.3278 -0.1666
    3MOL0     C  272   1.569   4.292   2.655  0.4530  0.4838  1.3785
    3MOL0     O  273   1.614   4.372   2.761 -0.3042 -0.2903  0.4319
    3MOL0     C  274   1.749   4.411   2.769  0.1712  0.2982  0.4412
    3MOL0     C  275   1.787   4.517   2.849  0.0253 -0.6817 -0.3903
    3MOL0     C  276   1.922   4.553   2.868  0.2186 -1.0094  0.4218
    3MOL0     C  277   2.021   4.482   2.813 -0.4081 -0.0744  0.7444
    3MOL0     O  278   2.156   4.499   2.818 -0.0953  0.4807  0.0914
    3MOL0     C  279   2.200   4.572   2.934  1.4362 -0.1563  0.5611
    3MOL0     C  280   2.343   4.536   2.959  0.7208  0.6733 -0.5724
    3MOL0     C  281   2.407   4.618   3.070 -0.6552  0.0246 -0.5115
    3MOL0     C  282   2.558   4.570   3.064 -0.4297 -0.1876 -0.2244
    3MOL0     C  283   2.648   4.640   3.169 -0.1778 -0.3193  0.2566
    3MOL0     C  284   2.796   4.599   3.167  0.1870 -0.1100  0.3646
    3MOL0     C  285   2.882   4.715   3.203 -0.4124  0.0346 -0.3124
    3MOL0     C  286   3.026   4.672   3.208  0.2324 -0.4817 -0.3767
    3MOL0     N  287   3.114   4.790   3.243  0.7954  0.2061  0.8244
    3MOL0     C  288   3.169   4.877   3.143  0.0702 -0.3088 -0.5850
    3MOL0     C  289   3.241   4.969   3.211  0.1073  0.1691 -0.7001
    3MOL0     C  290   3.335   5.074   3.156 -0.3019  1.0073  0.9970
    3MOL0     C  291   3.445   5.099   3.269 -0.1228 -0.1878  0.4015
    3MOL0     C  292   3.532   5.212   3.237  0.6196 -0.1602 -0.6513
    3MOL0     C  293   3.621   5.250   3.356  0.5201 -0.0009  0.5543
    3MOL0     O  294   3.705   5.356   3.306  0.6452  0.2054 -0.4365
    3MOL0     C  295   3.798   5.414   3.391  0.7253 -0.0556  0.2574
    3MOL0     C  296   3.861   5.534   3.347  0.4447  0.8409 -1.0104
    3MOL0     C  297   3.966   5.596   3.426 -0.7064  0.0128 -0.5203
    3MOL0     C  298   3.999   5.538   3.553  0.7123 -0.3214 -0.1529
    3MOL0     C  299   4.108   5.593   3.634  0.3297 -0.1802 -0.4463
    3MOL0     O  300   4.107   5.578   3.771  0.6924 -0.4228  0.3713
    3MOL0     C  301   4.207   5.637   3.844  0.5477  0.0015 -0.1188
    3MOL0     C  302   4.335   5.593   3.834 -0.6183  0.6522 -0.4371
    3MOL0     C  303   4.442   5.654   3.909 -0.6333 -0.0252 -0.6780
    3MOL0     C  304   4.422   5.766   3.985 -0.2652 -0.1837  0.9463
    3MOL0     O  305   4.520   5.851   4.039  0.5485  0.2714 -0.4027
    3MOL0     C  306   4.659   5.799   4.051 -0.5104  0.2683  1.2857
    3MOL0     C  307   4.734   5.794   3.912  0.8920 -0.5642 -0.0006
    3MOL0     C  308   4.874   5.854   3.923 -0.6123 -0.7189 -0.8583
    3MOL0     C  309   4.934   5.875   3.793  0.1598  0.1137  0.5211
    3MOL0     C  310   5.070   5.953   3.810 -0.2344  0.1219  0.1918
    3MOL0     C  311   5.131   5.975   3.670  0.6770 -0.2641  0.1177
    3MOL0     C  312   5.267   6.031   3.693 -1.0414 -0.1697 -0.4214
    3MOL0     C  313   5.268   6.183   3.736  0.6752 -0.8133  0.4370
    3MOL0    Cl  314   5.446   6.232   3.738  0.1263 -0.2598 -0.4905
    3MOL0     C  315   4.289   5.815   3.991  0.2547  0.5188  1.1004
    3MOL0     C  316   4.185   5.748   3.924 -0.7414 -0.5464 -0.3549
    3MOL0     O  317   4.183   5.667   3.575 -0.5499 -0.3868  0.7495
    3MOL0     C  318   3.924   5.426   3.594 -0.7070  0.0225  0.6057
    3MOL0     C  319   3.832   5.365   3.513  0.8764  0.6611  0.5122
    3MOL0     N  320   3.229   4.935   3.348  0.7469 -0.2152  0.1413
    3MOL0     N  321   3.157   4.839   3.368  0.4462  0.0485  0.6617
    3MOL0     C  322   1.995   4.368   2.735  0.4500  1.0116 -0.1353
    3MOL0     C  323   1.853   4.336   2.712 -1.4012 -0.4679 -0.2768
    3MOL0     C  324   1.420   4.281   2.646  1.4771  0.3230  0.0816
    3MOL0     C  325   1.347   4.401   2.635  0.5108 -0.9604  0.3262
    3MOL0     C  326   1.211   4.391   2.599  0.3205 -0.4520  0.1914
    3MOL0     C  327   1.136   4.269   2.595 -0.8142  0.7085  0.4426
    3MOL0     O  328   1.003   4.277   2.568  0.1392  0.5122  0.3515
    3MOL0     C  329   0.921   4.169   2.601 -0.2078 -0.2293  0.1748
    3MOL0     C  330   0.784   4.220   2.622 -0.2122  0.0562 -0.0088
    3MOL0     C  331   0.752   4.269   2.762 -0.3015 -0.4901  0.2552
    3MOL0     C  332   0.810   4.407   2.795  0.5393  0.4211  0.0650
    3MOL0     C  333   0.740   4.510   2.718 -0.0746 -0.0562 -0.4607
    3MOL0     C  334   0.687   4.609   2.667  1.3251  0.9855 -0.3846
    3MOL0     C  335   1.215   4.147   2.608 -0.2695  0.8666  0.3821
    3MOL0     C  336   1.352   4.154   2.623 -0.3640  0.0676 -0.6006
    3MOL0     C  337   1.420   4.009   2.628 -0.5029 -0.0602 -0.0902
    3MOL0     H  338   1.704   4.572   2.893 -0.0669 -1.1215 -0.0029
    3MOL0     H  339   1.941   4.650   2.914 -1.9048  0.2601 -1.1694
    3MOL0     H  340   2.184   4.678   2.913 -2.4762 -0.8974 -1.1400
    3MOL0     H  341   2.146   4.556   3.027 -1.5150 -2.3006 -1.3231
    3MOL0     H  342   2.399   4.547   2.865  2.8812 -0.3133  0.5383
    3MOL0     H  343   2.335   4.428   2.975 -4.1176  0.5814 -1.7589
    3MOL0     H  344   2.366   4.584   3.165  2.1607 -2.4911 -0.0484
    3MOL0     H  345   2.405   4.726   3.055 -0.5982  0.5082  2.3586
    3MOL0     H  346   2.555   4.462   3.081 -0.4751 -0.1302  0.1349
    3MOL0     H  347   2.599   4.596   2.966 -3.2373  0.2384 -1.3686
    3MOL0     H  348   2.651   4.748   3.152  2.0126 -0.2707  0.6508
    3MOL0     H  349   2.596   4.617   3.262 -1.1729  1.4990  0.1808
    3MOL0     H  350   2.807   4.513   3.232  0.9953  0.5373  1.1163
    3MOL0     H  351   2.825   4.560   3.069  0.6899  1.7264 -0.2731
    3MOL0     H  352   2.848   4.758   3.298 -0.4160  1.8037 -1.0750
    3MOL0     H  353   2.866   4.792   3.127 -0.6676  0.2507 -0.0404
    3MOL0     H  354   3.034   4.591   3.282  2.4979  2.2292  2.6519
    3MOL0     H  355   3.061   4.638   3.110 -0.5773  2.9556 -2.0042
    3MOL0     H  356   3.169   4.860   3.036  4.4225 -1.1699 -0.6298
    3MOL0     H  357   3.386   5.039   3.066 -2.9362 -0.7387  0.0440
    3MOL0     H  358   3.285   5.166   3.123  0.6569  0.5174 -2.1072
    3MOL0     H  359   3.396   5.132   3.361 -2.2050 -3.2778  0.5363
    3MOL0     H  360   3.495   5.006   3.296  1.7896  0.9154  0.8988
    3MOL0     H  361   3.463   5.296   3.225  0.1037 -0.4096  0.4399
    3MOL0     H  362   3.589   5.196   3.145  3.7342  1.0487  0.9186
    3MOL0     H  363   3.673   5.160   3.391 -2.3564 -2.0289  0.0122
    3MOL0     H  364   3.569   5.294   3.441 -0.4337  0.3210 -0.1746
    3MOL0     H  365   3.838   5.573   3.248 -0.7541 -0.8116 -1.4260
    3MOL0     H  366   4.024   5.669   3.372  0.1567 -1.5711 -1.8277
    3MOL0     H  367   4.360   5.520   3.757 -0.0347 -0.0650  0.4061
    3MOL0     H  368   4.537   5.618   3.873 -0.0646  0.8296 -0.0761
    3MOL0     H  369   4.714   5.867   4.117 -0.8469 -0.8862  2.8113
    3MOL0     H  370   4.674   5.705   4.105  4.9079  0.3369  0.4852
    3MOL0     H  371   4.719   5.697   3.864 -1.1515  0.5120 -1.6997
    3MOL0     H  372   4.676   5.860   3.847 -0.4026 -0.1357  1.5217
    3MOL0     H  373   4.871   5.952   3.972  0.1269 -0.8768 -0.4888
    3MOL0     H  374   4.935   5.791   3.987  3.0548 -0.0714 -3.4189
    3MOL0     H  375   4.855   5.929   3.738 -1.9365 -1.7775  1.5106
    3MOL0     H  376   4.949   5.782   3.738 -1.7285  0.0492  0.0466
    3MOL0     H  377   5.136   5.904   3.882 -0.3087 -1.0357 -0.5121
    3MOL0     H  378   5.047   6.053   3.848 -0.9334 -0.3569  1.0700
    3MOL0     H  379   5.143   5.873   3.632 -1.6365  0.3085 -2.4864
    3MOL0     H  380   5.077   6.035   3.596  1.9942 -1.4108 -1.8699
    3MOL0     H  381   5.316   6.028   3.596 -3.2801 -3.0851 -1.6274
    3MOL0     H  382   5.326   5.982   3.771  1.3240  4.1262  0.7928
    3MOL0     H  383   5.221   6.240   3.655  1.0164 -3.1565 -1.5226
    3MOL0     H  384   5.229   6.216   3.833  0.7820  2.2235 -0.4574
    3MOL0     H  385   4.261   5.911   4.033 -3.0938 -0.1083  0.5204
    3MOL0     H  386   4.087   5.789   3.949  1.6663  4.8751  1.9591
    3MOL0     H  387   3.952   5.392   3.693  2.4551  0.4955 -0.0246
    3MOL0     H  388   3.768   5.288   3.556 -0.1578  0.5445 -1.1235
    3MOL0     H  389   2.073   4.304   2.696 -0.9015 -2.2187  2.0977
    3MOL0     H  390   1.835   4.252   2.645 -4.0263 -0.9594  0.9056
    3MOL0     H  391   1.406   4.492   2.646  1.4301 -1.5125  0.1031
    3MOL0     H  392   1.152   4.480   2.579 -2.1271 -1.5118  2.0916
    3MOL0     H  393   0.961   4.127   2.694  0.0710 -0.7828 -0.1843
    3MOL0     H  394   0.928   4.086   2.530 -2.1104 -3.9725  3.9223
    3MOL0     H  395   0.729   4.126   2.613 -0.4081 -0.6393  5.0722
    3MOL0     H  396   0.752   4.292   2.546  1.0600  1.3523  0.6247
    3MOL0     H  397   0.793   4.194   2.831 -0.6881 -2.1348 -1.2362
    3MOL0     H  398   0.644   4.266   2.773 -0.6168 -0.5876 -2.2761
    3MOL0     H  399   0.778   4.424   2.899 -0.7743  3.5779 -0.7155
    3MOL0     H  400   0.919   4.405   2.786  0.4251 -1.6182 -1.7782
    3MOL0     H  401   0.628   4.685   2.621 -0.9172  0.1324  0.9561
    3MOL0     H  402   1.173   4.047   2.607  1.2937  0.0111  4.3642
    3MOL0     H  403   1.399   3.963   2.725 -2.5817  3.6268  1.3971
    3MOL0     H  404   1.374   3.961   2.541  0.1634  1.2870 -1.2398
    3MOL0     H  405   1.527   4.020   2.609 -0.2496 -0.2683  1.1152
    4MOL0     O  406   5.161   9.525  11.054  0.8368 -0.0510 -0.8214
    4MOL0     C  407   5.056   9.586  11.075  0.6624 -0.9114  0.3821
    4MOL0     O  408   5.053   9.725  11.083 -0.0424 -0.2571 -0.1738
    4MOL0     C  409   5.167   9.802  11.090  0.0501 -0.8984  0.3904
    4MOL0     C  410   5.168   9.925  11.023 -0.3851  0.4814  0.5193
    4MOL0     C  411   5.265  10.021  11.038 -0.1665 -0.1314 -0.6143
    4MOL0     C  412   5.375   9.991  11.121  0.3285 -0.0729  0.4863
    4MOL0     O  413   5.485  10.070  11.147  0.3308 -0.3677 -0.2643
    4MOL0     C  414   5.475  10.211  11.108 -0.3623 -0.8725  0.4563
    4MOL0     C  415   5.384  10.283  11.213  0.8938  0.6417  0.4661
    4MOL0     C  416   5.306  10.400  11.163  0.2397 -0.1264  0.1716
    4MOL0     C  417   5.237  10.468  11.289 -1.0511  0.2852  0.1986
    4MOL0     C  418   5.153  10.585  11.233 -0.6930 -0.5096  0.4378
    4MOL0     C  419   5.109  10.686  11.346 -0.5366 -0.6776  0.2262
    4MOL0     C  420   5.005  10.634  11.445 -0.3930  0.4174 -0.6543
    4MOL0     C  421   4.865  10.635  11.390 -1.6479  0.3058  0.3524
    4MOL0     N  422   4.765  10.584  11.483 -0.7376  0.1391 -1.5949
    4MOL0     C  423   4.727  10.640  11.607 -0.4989  0.5920  0.4451
    4MOL0     C  424   4.617  10.566  11.653  0.4014  0.0415  0.9887
    4MOL0     C  425   4.520  10.566  11.769  0.1271  0.3146  0.9171
    4MOL0     C  426   4.456  10.708  11.777  0.2926  0.0560 -0.1222
    4MOL0     C  427   4.325  10.697  11.860  0.9017 -0.1281  0.0650
    4MOL0     C  428   4.276  10.819  11.945  0.0110 -0.4573 -0.5493
    4MOL0     O  429   4.258  10.921  11.852 -0.6232 -0.7463  0.0876
    4MOL0     C  430   4.353  11.026  11.872  0.5068  0.8987 -0.8248
    4MOL0     C  431   4.390  11.079  11.998  0.4628 -0.7852  0.1671
    4MOL0     C  432   4.503  11.162  12.011  0.4809  0.0588  0.6217
    4MOL0     C  433   4.583  11.191  11.902  0.4321 -0.0543  0.0360
    4MOL0     C  434   4.709  11.278  11.920  0.9792 -0.2652  0.1246
    4MOL0     O  435   4.792  11.272  11.813  0.5789  0.4809 -0.5470
    4MOL0     C  436   4.907  11.343  11.796 -0.1544  0.2745  0.7616
    4MOL0     C  437   4.991  11.381  11.904 -0.1610  0.1130 -0.1231
    4MOL0     C  438   5.118  11.451  11.881 -0.2647 -0.0459  0.0699
    4MOL0     C  439   5.166  11.479  11.755 -0.0361  0.1936  0.4108
    4MOL0     O  440   5.284  11.542  11.738 -0.2433  0.5773  0.1596
    4MOL0     C  441   5.313  11.597  11.612  0.5939  0.3363 -0.4972
    4MOL0     C  442   5.447  11.668  11.623  0.2020 -0.4593 -0.2859
    4MOL0     C  443   5.466  11.776  11.721  0.1577 -0.5671 -0.5417
    4MOL0     C  444   5.609  11.817  11.760 -0.8475  0.9007 -0.9431
    4MOL0     C  445   5.638  11.955  11.695 -0.4701 -0.4011 -0.5681
    4MOL0     C  446   5.791  11.979  11.684 -0.2892  0.3012 -0.1669
    4MOL0     C  447   5.817  12.130  11.659 -0.0197 -0.0513  0.5444
    4MOL0     C  448   5.961  12.159  11.622 -0.5496  0.7716 -1.4630
    4MOL0    Cl  449   5.996  12.086  11.466  0.4346 -0.4716  0.1357
    4MOL0     C  450   5.085  11.433  11.641 -0.0248  0.9929 -0.4209
    4MOL0     C  451   4.957  11.377  11.667 -0.7444 -0.0471 -0.0222
    4MOL0     O  452   4.716  11.355  12.020 -0.3951  0.5470 -0.2234
    4MOL0     C  453   4.550  11.132  11.771 -0.0171  0.7024 -0.7852
    4MOL0     C  454   4.436  11.052  11.765 -0.0159  0.3958 -0.6649
    4MOL0     N  455   4.600  10.470  11.558 -0.9803 -0.4889  0.6505
    4MOL0     N  456   4.674  10.490  11.449 -0.0722  0.7142 -0.3348
    4MOL0     C  457   5.381   9.871  11.182 -0.8771  0.4255 -0.7562
    4MOL0     C  458   5.274   9.781  11.180  0.0347  0.2143  0.8783
    4MOL0     C  459   4.918   9.517  11.096 -0.2146  0.0533  0.7453
    4MOL0     C  460   4.821   9.594  11.171  0.3043  0.4408 -0.8804
    4MOL0     C  461   4.702   9.536  11.187  0.1970 -1.3365  1.2403
    4MOL0     C  462   4.668   9.410  11.130  0.8908 -0.5141 -0.4557
    4MOL0     O  463   4.530   9.373  11.148 -0.4442 -0.4939 -0.7283
    4MOL0     C  464   4.469   9.308  11.031 -0.0378  0.0232 -0.1397
    4MOL0     C  465   4.326   9.358  11.012  0.4431 -0.1544  0.3562
    4MOL0     C  466   4.231   9.306  11.117 -1.0351  0.8669  1.2938
    4MOL0     C  467   4.110   9.393  11.114 -0.6509 -1.1304  0.1566
    4MOL0     C  468   4.009   9.370  11.215 -0.7340 -0.6253 -0.0948
    4MOL0     C  469   3.933   9.352  11.303 -0.0504  0.4085 -0.9283
    4MOL0     C  470   4.761   9.332  11.069 -0.2979 -0.1098  0.0341
    4MOL0     C  471   4.880   9.392  11.042 -0.6845  0.1011 -0.5805
    4MOL0     C  472   4.973   9.311  10.956 -0.2312 -0.1821  0.3907
    4MOL0     H  473   5.086   9.958  10.960  0.6113  1.5845 -0.2325
    4MOL0     H  474   5.261  10.115  10.983 -0.2830 -0.8123 -1.8104
    4MOL0     H  475   5.576  10.252  11.119 -0.7654  0.2825 -0.0915
    4MOL0     H  476   5.453  10.226  11.002 -1.7972  1.1023  0.9792
    4MOL0     H  477   5.439  10.309  11.304  0.5550  0.4266  0.7371
    4MOL0     H  478   5.312  10.208  11.248  1.4288  1.0437  2.5527
    4MOL0     H  479   5.238  10.369  11.084 -2.2047  0.9195  1.7408
    4MOL0     H  480   5.371  10.470  11.111  0.4668 -1.7054 -1.7516
    4MOL0     H  481   5.173  10.398  11.344 -0.8911  0.3690  0.4911
    4MOL0     H  482   5.320  10.498  11.353 -1.4790 -0.2685  1.0375
    4MOL0     H  483   5.217  10.638  11.161 -0.1966 -0.0239  1.2150
    4MOL0     H  484   5.061  10.548  11.188 -1.3084 -2.1869  2.8546
    4MOL0     H  485   5.199  10.732  11.388 -0.8894  3.1970 -2.6797
    4MOL0     H  486   5.069  10.771  11.288  0.5186 -0.0417  0.4077
    4MOL0     H  487   5.000  10.685  11.542 -0.7102  0.0274 -0.4623
    4MOL0     H  488   5.042  10.536  11.476 -0.0893  1.1234  1.4442
    4MOL0     H  489   4.834  10.736  11.361  0.0831  0.4678 -1.1382
    4MOL0     H  490   4.864  10.568  11.305  2.8788 -1.8425  1.6543
    4MOL0     H  491   4.781  10.721  11.655  0.9902 -1.1805  1.9388
    4MOL0     H  492   4.450  10.487  11.740 -0.0121  0.1215  1.7334
    4MOL0     H  493   4.575  10.540  11.860  2.1525  0.4620 -0.2129
    4MOL0     H  494   4.526  10.778  11.823  0.9347 -0.9869  0.5396
    4MOL0     H  495   4.434  10.743  11.676 -0.5314 -1.6721 -0.5807
    4MOL0     H  496   4.327  10.618  11.936 -2.3272  0.9783  1.5071
    4MOL0     H  497   4.240  10.671  11.796 -1.2693 -0.1106  2.7286
    4MOL0     H  498   4.365  10.840  12.005 -0.0882  1.0525 -0.8768
    4MOL0     H  499   4.186  10.802  12.006  0.2571 -0.6633 -0.2465
    4MOL0     H  500   4.331  11.062  12.087 -2.1679 -1.4124 -1.5614
    4MOL0     H  501   4.525  11.179  12.116  0.0702 -0.4650  0.8012
    4MOL0     H  502   4.965  11.367  12.008  2.1291  0.9279  0.6220
    4MOL0     H  503   5.176  11.483  11.967  0.7884 -0.3774 -0.4951
    4MOL0     H  504   5.327  11.519  11.536 -0.0925 -1.2641  0.9661
    4MOL0     H  505   5.254  11.685  11.587  1.8228  1.1621 -0.5807
    4MOL0     H  506   5.506  11.579  11.648  1.2556 -0.0822 -1.3231
    4MOL0     H  507   5.475  11.704  11.524 -0.0911  1.2951  0.2459
    4MOL0     H  508   5.412  11.868  11.696  2.5002  0.3920 -2.4704
    4MOL0     H  509   5.419  11.746  11.815 -1.2137  2.4326 -0.1549
    4MOL0     H  510   5.683  11.747  11.721  0.2414  1.6849 -0.3501
    4MOL0     H  511   5.624  11.815  11.868  1.6616  1.3379 -1.2271
    4MOL0     H  512   5.586  12.035  11.749  1.0652  0.7573 -0.7369
    4MOL0     H  513   5.598  11.956  11.593  1.4550 -4.4281 -1.5470
    4MOL0     H  514   5.846  11.952  11.775  1.6778 -2.2441 -1.9668
    4MOL0     H  515   5.835  11.920  11.604 -1.2092 -1.2582  0.4263
    4MOL0     H  516   5.797  12.181  11.754 -0.3854  1.9642 -0.5596
    4MOL0     H  517   5.759  12.170  11.576 -0.3556  1.0768  1.3036
    4MOL0     H  518   5.960  12.267  11.604  1.8926  2.1131  4.1910
    4MOL0     H  519   6.032  12.145  11.704 -0.3458  3.8383 -0.9944
    4MOL0     H  520   5.105  11.436  11.534  0.5734 -0.8669 -0.3973
    4MOL0     H  521   4.898  11.343  11.583 -1.6816 -1.6974  1.2556
    4MOL0     H  522   4.620  11.129  11.688  2.5675  0.5986  1.2596
    4MOL0     H  523   4.415  11.000  11.672  0.1663 -0.4972 -0.2222
    4MOL0     H  524   5.469   9.847  11.241 -0.0275  1.4876 -1.5602
    4MOL0     H  525   5.270   9.686  11.231  0.0278  1.2148  2.8637
    4MOL0     H  526   4.845   9.690  11.217  0.7794  1.5019 -3.1563
    4MOL0     H  527   4.630   9.597  11.242  2.6723  4.1173 -0.8162
    4MOL0     H  528   4.460   9.200  11.045 -2.1545  0.2686  0.7758
    4MOL0     H  529   4.534   9.320  10.944 -1.9622  2.9503 -1.3506
    4MOL0     H  530   4.279   9.333  10.917  0.3322 -1.4188  0.7164
    4MOL0     H  531   4.338   9.466  11.019 -0.0576 -0.0141 -0.8850
    4MOL0     H  532   4.276   9.286  11.215  3.1299 -1.9634 -0.8745
    4MOL0     H  533   4.206   9.201  11.096  0.1527  0.7005  0.5746
    4MOL0     H  534   4.136   9.499  11.123 -0.3974 -1.3648  3.9892
    4MOL0     H  535   4.061   9.380  11.017  2.3515  0.2850 -1.6959
    4MOL0     H  536   3.870   9.338  11.389  3.1982  0.2244  1.6413
    4MOL0     H  537   4.734   9.233  11.033 -3.3866  0.9184 -0.7981
    4MOL0     H  538   5.017   9.353  10.865  0.5301 -0.6077  0.5516
    4MOL0     H  539   5.051   9.295  11.031 -0.3164 -1.9479  0.1371
    4MOL0     H  540   4.932   9.215  10.925  2.1556 -0.2331 -3.1110
    5MOL0     O  541   8.218   8.190   6.309 -0.1196 -0.4129 -0.1845
    5MOL0     C  542   8.222   8.195   6.429  0.2722  0.6946 -0.3403
    5MOL0     O  543   8.307   8.124   6.507  0.7964 -0.5683 -1.3669
    5MOL0     C  544   8.392   8.034   6.447 -0.1668  0.1424 -0.0375
    5MOL0     C  545   8.519   8.066   6.395 -0.2414  0.1839 -0.6597
    5MOL0     C  546   8.591   7.983   6.322 -0.0273  0.5307 -0.2265
    5MOL0     C  547   8.554   7.855   6.287  0.2049  0.0827 -0.6697
    5MOL0     O  548   8.621   7.771   6.219 -1.1162 -0.0447  0.4717
    5MOL0     C  549   8.702   7.820   6.117 -0.2143  0.3173  1.2556
    5MOL0     C  550   8.780   7.691   6.091 -0.3122  0.5929  0.7497
    5MOL0     C  551   8.905   7.713   5.998 -0.1677 -0.2944  0.0944
    5MOL0     C  552   9.030   7.726   6.086 -0.5148  0.3719 -0.7749
    5MOL0     C  553   9.177   7.728   6.026 -0.1360 -0.0897  0.1891
    5MOL0     C  554   9.203   7.845   5.931 -0.2243 -0.2347 -0.3450
    5MOL0     C  555   9.341   7.819   5.867 -0.2243 -0.5378  0.0067
    5MOL0     C  556   9.431   7.939   5.851  1.1410 -0.1314 -0.7057
    5MOL0     N  557   9.557   7.893   5.809 -0.4830 -0.0366 -0.0167
    5MOL0     C  558   9.653   7.854   5.894 -0.6654 -0.7360  0.1240
    5MOL0     C  559   9.767   7.855   5.820 -0.1321  0.3625  0.0034
    5MOL0     C  560   9.901   7.841   5.885 -0.0795  0.7534 -1.2216
    5MOL0     C  561  10.017   7.807   5.799  0.2446 -1.2358 -0.3903
    5MOL0     C  562  10.148   7.797   5.880 -0.1454 -0.2977 -0.6943
    5MOL0     C  563  10.258   7.753   5.787  0.2765 -0.4829 -0.0158
    5MOL0     O  564  10.321   7.871   5.730 -0.2894 -0.6348 -0.3554
    5MOL0     C  565  10.427   7.851   5.644  0.2725  0.4632  0.5751
    5MOL0     C  566  10.496   7.966   5.607  0.1373 -0.4672  0.5463
    5MOL0     C  567  10.606   7.958   5.525  0.1530  0.0197  0.2893
    5MOL0     C  568  10.653   7.836   5.475 -0.4356 -0.3413  0.0451
    5MOL0     C  569  10.780   7.832   5.397 -0.7803  0.7047  0.0619
    5MOL0     O  570  10.857   7.726   5.410  0.0830 -0.0491 -0.0798
    5MOL0     C  571  10.990   7.728   5.371  0.3081 -0.0068  0.1162
    5MOL0     C  572  11.098   7.743   5.463 -0.0615 -0.2258 -0.4908
    5MOL0     C  573  11.234   7.748   5.416  0.0593  0.3814  0.9623
    5MOL0     C  574  11.264   7.718   5.278 -0.6713 -0.3193 -0.5256
    5MOL0     O  575  11.387   7.716   5.218 -0.4465 -0.1512  0.1633
    5MOL0     C  576  11.511   7.758   5.288 -0.3321 -0.0742 -0.3986
    5MOL0     C  577  11.627   7.667   5.237  1.1804  0.0790 -0.2111
    5MOL0     C  578  11.760   7.693   5.296  0.6187 -0.2125 -0.0740
    5MOL0     C  579  11.872   7.641   5.209  0.6998  0.3132  0.1522
    5MOL0     C  580  12.012   7.660   5.274  0.1016  0.0207 -0.3884
    5MOL0     C  581  12.059   7.811   5.270  0.4939 -0.1575  0.3067
    5MOL0     C  582  12.210   7.801   5.308  0.5696  0.0839 -0.1128
    5MOL0     C  583  12.264   7.938   5.345  0.1530 -0.2279 -0.1221
    5MOL0    Cl  584  12.428   7.919   5.426 -0.5145 -0.4851 -0.1986
    5MOL0     C  585  11.161   7.686   5.193  0.3949  0.3159 -0.0293
    5MOL0     C  586  11.029   7.697   5.240  0.5134  0.0115 -0.6491
    5MOL0     O  587  10.806   7.923   5.324 -0.0824 -1.0397  0.3366
    5MOL0     C  588  10.584   7.720   5.512  0.1631 -0.7442  0.0119
    5MOL0     C  589  10.475   7.725   5.601 -0.0660  0.1759 -0.0335
    5MOL0     N  590   9.731   7.905   5.700  0.4527 -0.3302 -0.4547
    5MOL0     N  591   9.601   7.912   5.684 -0.4604  0.5156  0.0918
    5MOL0     C  592   8.424   7.818   6.317 -0.2707 -0.7422 -0.3279
    5MOL0     C  593   8.346   7.911   6.399 -0.5421 -0.3637  0.0629
    5MOL0     C  594   8.149   8.304   6.496  0.8317 -0.1362  0.2636
    5MOL0     C  595   8.196   8.343   6.620  0.3489 -0.9727  0.2299
    5MOL0     C  596   8.136   8.439   6.694 -1.1920  0.0451  0.1015
    5MOL0     C  597   8.025   8.502   6.653  0.3226 -0.6295  0.9768
    5MOL0     O  598   7.963   8.605   6.716  0.3454 -0.2472  0.0572
    5MOL0     C  599   7.902   8.577   6.837 -0.1112  0.7807 -0.0548
    5MOL0     C  600   7.855   8.694   6.908 -0.6555  0.3701 -0.2822
    5MOL0     C  601   7.969   8.792   6.934 -0.3836  0.2955 -0.1608
    5MOL0     C  602   8.082   8.742   7.026 -0.0535  0.6608 -0.1268
    5MOL0     C  603   8.041   8.667   7.149  1.0372 -0.9715 -0.2991
    5MOL0     C  604   8.017   8.607   7.245  0.7165 -0.3548  0.2505
    5MOL0     C  605   7.972   8.465   6.528 -0.2495  0.3701 -1.3030
    5MOL0     C  606   8.032   8.373   6.449 -0.2254  0.2547 -0.1606
    5MOL0     C  607   7.972   8.346   6.311 -0.6378 -0.5623 -0.0230
    5MOL0     H  608   8.557   8.162   6.427  1.7100  0.3038 -3.0406
    5MOL0     H  609   8.681   8.039   6.299 -1.1969  4.0953  2.9164
    5MOL0     H  610   8.647   7.849   6.027  2.7725 -0.3548 -0.9200
    5MOL0     H  611   8.771   7.902   6.141  0.2317  0.3101  0.0543
    5MOL0     H  612   8.715   7.621   6.038 -0.9583  1.0622  0.9160
    5MOL0     H  613   8.808   7.632   6.179 -1.5145  2.3022  2.3499
    5MOL0     H  614   8.880   7.804   5.943 -3.0098 -1.1613 -0.2149
    5MOL0     H  615   8.922   7.630   5.929  0.4551 -0.9849  1.0463
    5MOL0     H  616   9.017   7.815   6.149 -1.3664 -0.2501 -0.0378
    5MOL0     H  617   9.032   7.646   6.161  1.6125  1.5281  0.4993
    5MOL0     H  618   9.246   7.736   6.110 -1.0193  0.6645  0.8637
    5MOL0     H  619   9.200   7.627   5.990  0.1786 -0.6311  1.8304
    5MOL0     H  620   9.130   7.831   5.851  2.0119  2.3230 -3.0677
    5MOL0     H  621   9.192   7.943   5.980 -0.9654 -1.7384  2.7827
    5MOL0     H  622   9.324   7.793   5.762  1.6477  2.0981 -1.0738
    5MOL0     H  623   9.406   7.744   5.913 -0.3117 -2.3620 -2.6408
    5MOL0     H  624   9.397   8.012   5.777  2.0353  2.4139  1.2391
    5MOL0     H  625   9.438   7.993   5.946  3.1291  2.0092 -1.9640
    5MOL0     H  626   9.647   7.827   5.998  0.3716  0.3461  0.4882
    5MOL0     H  627   9.912   7.941   5.929  2.5443  0.6785 -1.5246
    5MOL0     H  628   9.906   7.765   5.964  2.8586 -0.2883 -2.2717
    5MOL0     H  629  10.002   7.705   5.763 -3.1312 -1.8010  2.0716
    5MOL0     H  630  10.033   7.888   5.728  0.7485 -0.2024  0.8567
    5MOL0     H  631  10.122   7.737   5.968 -2.2609 -0.3539 -1.3169
    5MOL0     H  632  10.177   7.896   5.916  1.7429 -0.7476 -0.8364
    5MOL0     H  633  10.224   7.680   5.712 -2.9235 -1.7830  2.4470
    5MOL0     H  634  10.335   7.701   5.844  1.1509  0.1138 -0.6270
    5MOL0     H  635  10.479   8.058   5.662 -0.4193  0.3383 -0.9223
    5MOL0     H  636  10.668   8.041   5.494 -0.7029 -1.0803 -5.5230
    5MOL0     H  637  11.082   7.749   5.570 -2.5594 -1.8477 -0.6764
    5MOL0     H  638  11.325   7.770   5.471  1.9691 -0.8558 -1.5015
    5MOL0     H  639  11.525   7.865   5.270  0.9577 -0.3034 -0.8610
    5MOL0     H  640  11.497   7.735   5.394 -3.5885 -2.3619 -1.1609
    5MOL0     H  641  11.601   7.562   5.252  1.1858 -0.6275 -4.2300
    5MOL0     H  642  11.633   7.680   5.129 -0.1459 -0.7646 -0.4138
    5MOL0     H  643  11.783   7.799   5.310 -0.9321  0.2720 -0.9517
    5MOL0     H  644  11.759   7.643   5.393  0.2592  1.0156  0.5895
    5MOL0     H  645  11.884   7.698   5.117  4.5189  1.9421  1.4672
    5MOL0     H  646  11.851   7.536   5.188  2.1365 -0.1204  0.7770
    5MOL0     H  647  12.088   7.599   5.225 -1.9751 -0.9876 -2.5380
    5MOL0     H  648  12.014   7.637   5.381 -1.5581 -0.2341 -0.3751
    5MOL0     H  649  12.056   7.864   5.174  3.7487  2.1739  1.3392
    5MOL0     H  650  12.001   7.861   5.348 -0.5323 -1.5535  0.4929
    5MOL0     H  651  12.266   7.754   5.227 -1.2350  1.6125 -2.3762
    5MOL0     H  652  12.230   7.728   5.387  0.6093 -1.1174 -1.2053
    5MOL0     H  653  12.286   8.000   5.257  2.9762 -0.9322 -0.0136
    5MOL0     H  654  12.200   7.990   5.416 -0.1653  0.2207 -0.7200
    5MOL0     H  655  11.175   7.652   5.091  0.0130 -0.2176  0.0936
    5MOL0     H  656  10.951   7.682   5.166  0.6910  0.7465 -0.9974
    5MOL0     H  657  10.608   7.621   5.476  1.2488 -2.2183  4.2337
    5MOL0     H  658  10.430   7.629   5.625  0.8731 -0.2203  0.1853
    5MOL0     H  659   8.392   7.716   6.297 -3.1672 -0.0425  0.2296
    5MOL0     H  660   8.246   7.875   6.422  0.2243 -3.1896 -0.6099
    5MOL0     H  661   8.281   8.289   6.660  2.0825 -0.9491 -3.0664
    5MOL0     H  662   8.184   8.459   6.790  1.5840 -2.0034 -0.7376
    5MOL0     H  663   7.971   8.526   6.905 -0.3333 -0.4502 -0.7227
    5MOL0     H  664   7.812   8.517   6.820 -0.0780  0.6069  0.3871
    5MOL0     H  665   7.818   8.665   7.006  3.0493  0.4205  1.2738
    5MOL0     H  666   7.776   8.742   6.849  1.3248  2.9402 -1.0079
    5MOL0     H  667   7.927   8.884   6.977 -1.9080  0.2021 -1.3924
    5MOL0     H  668   8.014   8.825   6.840 -0.7448 -0.5044 -0.6164
    5MOL0     H  669   8.146   8.680   6.963 -1.4532 -0.0768 -0.8669
    5MOL0     H  670   8.148   8.826   7.049 -0.9825  1.6544 -0.9609
    5MOL0     H  671   8.013   8.542   7.330  0.0555 -0.9969 -0.2505
    5MOL0     H  672   7.883   8.516   6.492 -0.5527  1.2525  0.5869
    5MOL0     H  673   7.865   8.365   6.313 -0.5818 -0.3059  1.4201
    5MOL0     H  674   8.003   8.419   6.236 -1.6147  0.8381  0.8954
    5MOL0     H  675   7.989   8.244   6.275  0.2882 -0.6074  0.4885
    6MOL0     O  676   9.845  10.175   9.720  0.5218 -0.6534  0.2898
    6MOL0     C  677   9.803  10.164   9.606 -0.5303 -0.5555  0.4819
    6MOL0     O  678   9.857  10.078   9.509  0.3515 -0.2437  0.0123
    6MOL0     C  679   9.947   9.986   9.562 -0.7783 -0.0409  0.2378
    6MOL0     C  680   9.911   9.851   9.554  1.0663 -0.2558 -0.1228
    6MOL0     C  681   9.986   9.747   9.612 -0.1896 -0.4125 -0.6983
    6MOL0     C  682  10.103   9.792   9.679  0.0218  0.6131  0.5133
    6MOL0     O  683  10.173   9.706   9.757  0.1594  0.6144 -0.4056
    6MOL0     C  684  10.157   9.566   9.744  0.3001  0.4009  0.1425
    6MOL0     C  685  10.274   9.509   9.818 -1.0987  0.5086 -0.5088
    6MOL0     C  686  10.314   9.371   9.797  0.2724  0.1930 -0.2424
    6MOL0     C  687  10.409   9.327   9.912 -0.8716 -0.4598 -0.8141
    6MOL0     C  688  10.466   9.178   9.892  0.7705 -0.0955 -0.1131
    6MOL0     C  689  10.354   9.077   9.887 -0.6765  0.3885 -0.4289
    6MOL0     C  690  10.412   8.933   9.851 -0.0084 -0.1675 -0.1292
    6MOL0     C  691  10.297   8.841   9.853  0.7539 -0.8959  0.1036
    6MOL0     N  692  10.341   8.712   9.805  0.1255  0.2446 -0.0925
    6MOL0     C  693  10.415   8.619   9.874  0.1926  0.2913 -1.2009
    6MOL0     C  694  10.424   8.499   9.801  0.5584  0.0043 -0.5774
    6MOL0     C  695  10.485   8.370   9.849  0.3258  0.2680  0.3683
    6MOL0     C  696  10.604   8.324   9.759 -0.4486  0.1657  0.3731
    6MOL0     C  697  10.728   8.413   9.771 -0.5565 -0.4022 -0.1774
    6MOL0     C  698  10.747   8.517   9.664  0.3695  0.0973  0.0037
    6MOL0     O  699  10.880   8.571   9.659  0.3043  0.5014 -0.5318
    6MOL0     C  700  10.913   8.645   9.543 -0.9101  0.0122  0.0465
    6MOL0     C  701  10.826   8.674   9.437 -0.5682 -0.1073  0.6721
    6MOL0     C  702  10.868   8.753   9.330  0.2433 -0.2228 -0.8406
    6MOL0     C  703  11.006   8.785   9.319  0.8484  0.1388  0.6038
    6MOL0     C  704  11.053   8.865   9.200  0.9819  0.2910  0.2246
    6MOL0     O  705  10.993   8.832   9.083 -0.0635 -0.3187  0.2743
    6MOL0     C  706  11.011   8.918   8.977  0.5336  0.1303  0.2210
    6MOL0     C  707  10.945   9.043   8.977  0.4439 -0.4700 -0.6530
    6MOL0     C  708  10.964   9.124   8.869  0.5227 -0.7407  0.1395
    6MOL0     C  709  11.052   9.099   8.766  0.3375 -0.0028  0.5413
    6MOL0     O  710  11.046   9.193   8.665 -0.0872  0.1651  0.1746
    6MOL0     C  711  10.983   9.159   8.541 -0.6829  0.7064  0.2144
    6MOL0     C  712  10.878   9.263   8.503  1.1463 -0.9119  0.9774
    6MOL0     C  713  10.784   9.300   8.619  0.4979 -0.2118  0.5069
    6MOL0     C  714  10.673   9.209   8.673 -0.4571  0.3624  0.0882
    6MOL0     C  715  10.584   9.151   8.561 -0.5754  0.7187 -1.0239
    6MOL0     C  716  10.483   9.251   8.509 -0.0081  0.1651  0.3790
    6MOL0     C  717  10.386   9.311   8.613  0.5148  0.1500  1.0148
    6MOL0     C  718  10.250   9.356   8.553  0.0363  0.4162  0.3941
    6MOL0    Cl  719  10.269   9.506   8.454  0.4572  0.6367 -0.0866
    6MOL0     C  720  11.128   8.989   8.774 -0.2866  0.3218  0.0934
    6MOL0     C  721  11.103   8.891   8.874 -0.1258  0.4200 -0.3679
    6MOL0     O  722  11.118   8.962   9.219  0.1471 -0.5260 -0.2898
    6MOL0     C  723  11.090   8.753   9.422 -0.6180 -1.0912  0.3248
    6MOL0     C  724  11.046   8.692   9.536  1.0930 -0.5982  0.9388
    6MOL0     N  725  10.360   8.525   9.675  0.2975 -0.1137 -0.1084
    6MOL0     N  726  10.315   8.655   9.676  1.0460  0.4223 -0.2575
    6MOL0     C  727  10.143   9.918   9.665 -0.8377 -0.0557 -0.2373
    6MOL0     C  728  10.070  10.019   9.616 -0.2503  0.3631  1.5643
    6MOL0     C  729   9.686  10.249   9.565  0.6203  0.4232  0.2474
    6MOL0     C  730   9.623  10.334   9.654  0.9686  0.0735  0.6014
    6MOL0     C  731   9.528  10.424   9.610  0.2049 -0.4024 -1.3786
    6MOL0     C  732   9.483  10.433   9.484 -0.3597  0.6876 -0.2181
    6MOL0     O  733   9.391  10.524   9.440  0.9411  1.2354 -0.2416
    6MOL0     C  734   9.348  10.627   9.530  0.1916 -0.3278  0.3290
    6MOL0     C  735   9.228  10.585   9.607 -0.1309 -0.4589 -0.4288
    6MOL0     C  736   9.103  10.577   9.527  0.3460 -0.9682 -0.4277
    6MOL0     C  737   8.984  10.536   9.603  0.1703  0.0507  0.3584
    6MOL0     C  738   8.945  10.628   9.711 -0.0217 -0.3428 -0.8087
    6MOL0     C  739   8.923  10.700   9.809  0.1352 -0.0103 -0.2807
    6MOL0     C  740   9.550  10.361   9.392 -0.2560  0.0743 -0.5222
    6MOL0     C  741   9.654  10.272   9.428  0.0943  0.2195 -0.4126
    6MOL0     C  742   9.716  10.211   9.317 -0.5173 -0.1076  0.8958
    6MOL0     H  743   9.813   9.824   9.515 -0.3388  2.2785  1.4243
    6MOL0     H  744   9.951   9.645   9.614  2.3978 -1.3656  1.5239
    6MOL0     H  745  10.067   9.529   9.793  1.8510 -2.6273  0.9663
    6MOL0     H  746  10.158   9.534   9.639  0.2631  0.5943  0.0832
    6MOL0     H  747  10.261   9.535   9.923  0.0466  0.5162 -0.3588
    6MOL0     H  748  10.356   9.571   9.779 -0.6989  1.2263  1.3627
    6MOL0     H  749  10.369   9.351   9.704  0.0877 -0.8878 -0.1293
    6MOL0     H  750  10.223   9.311   9.793  0.5202 -0.2624  0.6646
    6MOL0     H  751  10.494   9.396   9.920  1.0660 -2.4646 -2.8068
    6MOL0     H  752  10.355   9.328  10.008  0.3963  0.5272 -0.0684
    6MOL0     H  753  10.529   9.174   9.802 -0.1433 -0.4467 -0.7416
    6MOL0     H  754  10.548   9.157   9.962  0.9456  1.1546  0.0833
    6MOL0     H  755  10.292   9.079   9.978 -0.4365  1.1181 -0.2807
    6MOL0     H  756  10.280   9.108   9.813 -1.2210 -0.7960 -0.4206
    6MOL0     H  757  10.484   8.896   9.924 -0.6852 -1.0918  0.0799
    6MOL0     H  758  10.445   8.950   9.748  1.1157  3.8205  0.6981
    6MOL0     H  759  10.245   8.831   9.949 -1.6336 -1.5987 -1.1855
    6MOL0     H  760  10.224   8.881   9.782  0.2613 -0.6576  0.7440
    6MOL0     H  761  10.447   8.620   9.978 -1.7723  1.5791 -0.5582
    6MOL0     H  762  10.529   8.365   9.949  2.1297 -0.1360 -0.4046
    6MOL0     H  763  10.400   8.301   9.851 -0.7599  1.5708  1.1327
    6MOL0     H  764  10.630   8.221   9.783 -2.7277 -0.8662 -1.1949
    6MOL0     H  765  10.571   8.328   9.655 -0.2431 -1.0318  0.2516
    6MOL0     H  766  10.819   8.353   9.771  0.5525  1.0888  2.9881
    6MOL0     H  767  10.723   8.467   9.866 -1.0707 -0.4383 -0.1817
    6MOL0     H  768  10.675   8.598   9.682  0.4458  0.8009 -2.5249
    6MOL0     H  769  10.727   8.469   9.568 -6.7374 -0.5066  1.2626
    6MOL0     H  770  10.731   8.622   9.425 -1.0815  1.2152 -1.4790
    6MOL0     H  771  10.790   8.773   9.258  0.3989  0.8683 -0.7164
    6MOL0     H  772  10.883   9.085   9.056  1.1338 -0.8238  0.0844
    6MOL0     H  773  10.896   9.208   8.858  1.9133  0.3064 -0.8840
    6MOL0     H  774  11.058   9.171   8.462 -2.6187  1.5829 -1.5768
    6MOL0     H  775  10.934   9.061   8.543  4.4448 -2.1784  2.3026
    6MOL0     H  776  10.920   9.364   8.494  0.1926 -0.2867  2.9018
    6MOL0     H  777  10.811   9.243   8.418 -2.1113  0.0022  3.1417
    6MOL0     H  778  10.850   9.323   8.703  2.1256 -1.4959 -0.3523
    6MOL0     H  779  10.736   9.394   8.593  0.6665 -0.2156  0.1653
    6MOL0     H  780  10.607   9.253   8.748 -1.4216  0.8747 -1.0382
    6MOL0     H  781  10.721   9.123   8.721  1.8637  1.4425 -0.1360
    6MOL0     H  782  10.533   9.073   8.617  3.3060 -2.0807 -0.9487
    6MOL0     H  783  10.638   9.105   8.478 -1.5724 -3.1673  0.2578
    6MOL0     H  784  10.533   9.334   8.459 -0.8992  2.0038  2.3829
    6MOL0     H  785  10.437   9.195   8.427  1.6572 -1.1243  0.2644
    6MOL0     H  786  10.432   9.401   8.656 -0.2460 -0.6157  3.6134
    6MOL0     H  787  10.364   9.247   8.699  3.6128  0.7720  2.3959
    6MOL0     H  788  10.204   9.274   8.498  0.2807  1.7263 -1.9147
    6MOL0     H  789  10.181   9.392   8.629 -0.5582  2.1319 -0.8835
    6MOL0     H  790  11.212   8.971   8.708 -1.4273 -2.9756 -0.6752
    6MOL0     H  791  11.142   8.790   8.878 -0.0854  0.4712  1.7682
    6MOL0     H  792  11.197   8.770   9.422 -0.9788  1.8698 -1.3462
    6MOL0     H  793  11.105   8.697   9.628 -2.7248  1.8531  3.5742
    6MOL0     H  794  10.236   9.944   9.716 -0.8599 -1.3353  0.4843
    6MOL0     H  795  10.114  10.117   9.629  1.1639  0.1060 -0.6922
    6MOL0     H  796   9.645  10.332   9.761 -4.2811 -0.2881  1.9545
    6MOL0     H  797   9.475  10.482   9.685  1.9783  2.8194 -2.4608
    6MOL0     H  798   9.330  10.724   9.483  0.8460 -1.0243 -1.4497
    6MOL0     H  799   9.422  10.663   9.602  1.1927 -0.7408 -0.4618
    6MOL0     H  800   9.217  10.657   9.688  3.9892 -0.5735  0.4404
    6MOL0     H  801   9.241  10.485   9.651  2.6974  0.4061  0.9372
    6MOL0     H  802   9.122  10.499   9.452 -0.5754 -0.7864 -0.8582
    6MOL0     H  803   9.086  10.669   9.472 -1.6060 -0.3335  1.1363
    6MOL0     H  804   8.900  10.511   9.538  0.9861 -0.5476 -0.4970
    6MOL0     H  805   9.019  10.437   9.635  1.4487  0.2367 -0.3989
    6MOL0     H  806   8.914  10.771   9.888 -0.3160  1.1254 -1.3183
    6MOL0     H  807   9.511  10.356   9.290 -1.9410 -0.5286  0.1056
    6MOL0     H  808   9.824  10.225   9.329 -0.8994  1.9375  2.5460
    6MOL0     H  809   9.700  10.103   9.306 -0.5774  0.0191 -0.4598
    6MOL0     H  810   9.679  10.260   9.226 -1.0064  1.1487  1.7462
    7MOL0     O  811   2.698   2.876   2.297  0.4649  0.4340 -0.2099
    7MOL0     C  812   2.574   2.858   2.300  0.6080  0.6348  0.4759
    7MOL0     O  813   2.473   2.947   2.265  0.0346 -0.0961 -0.6503
    7MOL0     C  814   2.493   3.078   2.298  0.1300  0.1238 -0.1846
    7MOL0     C  815   2.498   3.109   2.433 -0.1606 -0.0119  0.0098
    7MOL0     C  816   2.526   3.244   2.468 -0.8019  0.3445  0.0453
    7MOL0     C  817   2.549   3.340   2.374  0.4922 -0.6152  0.2161
    7MOL0     O  818   2.605   3.461   2.401 -0.4822  0.5452 -0.4409
    7MOL0     C  819   2.528   3.576   2.357  1.2231  0.8930  0.6232
    7MOL0     C  820   2.430   3.635   2.457  0.2844 -1.2786  0.0605
    7MOL0     C  821   2.485   3.673   2.593 -0.0023  0.1918  0.0668
    7MOL0     C  822   2.557   3.814   2.582  0.4546  0.0057 -0.3753
    7MOL0     C  823   2.701   3.811   2.628 -0.7580 -0.0610 -0.0106
    7MOL0     C  824   2.768   3.956   2.668  0.2038  0.4017 -0.2785
    7MOL0     C  825   2.911   3.927   2.726 -0.3667  0.0452  0.3446
    7MOL0     C  826   2.923   3.847   2.853 -0.0659  0.3381 -0.3381
    7MOL0     N  827   3.023   3.910   2.947  0.0399  0.0140  0.4878
    7MOL0     C  828   3.156   3.919   2.917 -0.7433  0.7522 -0.2139
    7MOL0     C  829   3.201   4.008   3.008 -0.2279  0.3676 -0.0848
    7MOL0     C  830   3.342   4.044   3.026 -0.2364  0.1889 -1.2269
    7MOL0     C  831   3.408   3.943   3.120  0.2522  0.4860  0.2494
    7MOL0     C  832   3.412   3.994   3.259 -0.1300  0.0976 -0.6395
    7MOL0     C  833   3.537   4.087   3.292 -0.5575 -0.1708 -0.1809
    7MOL0     O  834   3.570   4.158   3.177 -0.2824 -0.0836  0.9560
    7MOL0     C  835   3.672   4.252   3.174  0.4958 -0.2379  0.1785
    7MOL0     C  836   3.705   4.319   3.056 -0.6140  0.4795 -0.4524
    7MOL0     C  837   3.811   4.409   3.055  0.3098 -0.0160 -0.2792
    7MOL0     C  838   3.883   4.444   3.167  0.8829 -0.0140 -0.3174
    7MOL0     C  839   3.985   4.546   3.161 -0.3815 -0.2535  0.4627
    7MOL0     O  840   4.019   4.604   3.044  0.4461 -0.0088 -0.2338
    7MOL0     C  841   4.111   4.705   3.018  0.0242  0.6166 -1.5703
    7MOL0     C  842   4.219   4.741   3.102  0.1392 -0.6240 -0.1068
    7MOL0     C  843   4.307   4.845   3.056 -0.6085 -0.0492  0.1360
    7MOL0     C  844   4.291   4.919   2.932 -0.9278 -0.2635  0.4310
    7MOL0     O  845   4.380   5.017   2.891  0.2982  0.0817 -0.5257
    7MOL0     C  846   4.368   5.075   2.761  0.3234 -0.5961 -0.1097
    7MOL0     C  847   4.480   5.176   2.734  0.3864  0.7849 -0.3348
    7MOL0     C  848   4.612   5.091   2.726 -0.1006  0.5355  0.2388
    7MOL0     C  849   4.743   5.178   2.724 -0.3030 -0.5541  0.2100
    7MOL0     C  850   4.853   5.100   2.790  0.0234  0.7756 -0.2943
    7MOL0     C  851   4.902   4.980   2.709 -0.4938  0.1621  0.0832
    7MOL0     C  852   5.032   4.940   2.772  0.3461 -0.9102 -0.4479
    7MOL0     C  853   5.081   4.813   2.711 -0.1471 -0.7179  0.1806
    7MOL0    Cl  854   5.103   4.872   2.533  0.2781 -0.0319 -0.3122
    7MOL0     C  855   4.187   4.877   2.850 -0.2189 -0.3765  0.1833
    7MOL0     C  856   4.109   4.772   2.900 -0.1657  0.2342  0.6017
    7MOL0     O  857   4.019   4.590   3.271 -0.6808  0.5419 -0.2316
    7MOL0     C  858   3.857   4.379   3.283 -0.0869  0.7096 -0.0084
    7MOL0     C  859   3.748   4.282   3.287 -0.3410  0.1334 -0.2197
    7MOL0     N  860   3.099   4.055   3.087  0.9253 -0.4722 -0.1182
    7MOL0     N  861   2.998   3.985   3.058 -0.4052 -0.2339  0.0088
    7MOL0     C  862   2.540   3.307   2.240  0.1467 -0.5759 -0.8711
    7MOL0     C  863   2.509   3.177   2.209  0.3129 -0.5811 -0.2982
    7MOL0     C  864   2.515   2.716   2.341 -0.4568 -0.5874 -0.2352
    7MOL0     C  865   2.375   2.708   2.373 -0.6310 -0.3694 -1.0324
    7MOL0     C  866   2.323   2.598   2.425 -0.6538  0.1346  0.2606
    7MOL0     C  867   2.400   2.485   2.441 -0.6837 -0.3597 -0.3156
    7MOL0     O  868   2.325   2.381   2.487 -0.1691 -0.2619  0.3275
    7MOL0     C  869   2.364   2.244   2.438  0.1402 -0.3277  0.2468
    7MOL0     C  870   2.252   2.140   2.450 -0.7560 -0.2658  0.0529
    7MOL0     C  871   2.168   2.161   2.574  0.9220 -0.4752 -0.5636
    7MOL0     C  872   2.256   2.161   2.704  0.7026 -0.6595  0.1631
    7MOL0     C  873   2.175   2.174   2.827 -0.2657 -0.6700  0.4603
    7MOL0     C  874   2.105   2.202   2.922 -0.4878  0.0672  0.0933
    7MOL0     C  875   2.537   2.481   2.395 -0.0560 -0.1217 -0.0080
    7MOL0     C  876   2.593   2.593   2.340 -0.0825 -0.4760  0.0629
    7MOL0     C  877   2.735   2.574   2.280  0.1333 -0.2072  0.4454
    7MOL0     H  878   2.498   3.031   2.509 -0.1832 -0.3215 -0.3053
    7MOL0     H  879   2.555   3.264   2.571  2.0279 -0.4324 -0.5275
    7MOL0     H  880   2.585   3.664   2.324 -0.2033  1.2119 -1.1423
    7MOL0     H  881   2.465   3.540   2.276  1.5261 -0.2597  0.8933
    7MOL0     H  882   2.338   3.577   2.470  1.1566 -2.8105 -0.3956
    7MOL0     H  883   2.396   3.732   2.419  2.8713  0.3196  1.5400
    7MOL0     H  884   2.549   3.599   2.643 -3.9372 -1.9396  2.4098
    7MOL0     H  885   2.406   3.688   2.666 -1.1968 -1.5645 -0.7971
    7MOL0     H  886   2.552   3.866   2.486  3.5981 -0.5661 -0.9412
    7MOL0     H  887   2.502   3.880   2.650  1.5085 -2.3375  3.0426
    7MOL0     H  888   2.709   3.738   2.709  0.1115  1.3814  1.2626
    7MOL0     H  889   2.761   3.772   2.544  0.2689 -2.1184  1.5978
    7MOL0     H  890   2.773   4.012   2.574 -0.1542 -0.3617 -0.7657
    7MOL0     H  891   2.701   3.999   2.742 -0.3528 -0.2052 -0.4214
    7MOL0     H  892   2.965   4.021   2.740  0.9850 -0.5445 -0.6514
    7MOL0     H  893   2.961   3.863   2.653  0.0213 -1.0401  1.5040
    7MOL0     H  894   2.824   3.853   2.898 -0.3513 -0.4123 -0.8417
    7MOL0     H  895   2.947   3.741   2.835 -1.2454 -0.5351  2.5529
    7MOL0     H  896   3.216   3.859   2.849 -1.6663 -1.2673  0.6554
    7MOL0     H  897   3.401   4.032   2.935  0.4974 -1.0141 -0.6095
    7MOL0     H  898   3.347   4.146   3.065 -1.3995  0.3131 -1.3423
    7MOL0     H  899   3.341   3.857   3.117  2.7005 -1.5696  0.4743
    7MOL0     H  900   3.505   3.916   3.077 -0.4407 -1.3552 -0.2635
    7MOL0     H  901   3.423   3.906   3.324  0.2170  0.5366 -0.0950
    7MOL0     H  902   3.319   4.048   3.281  0.1204  0.9357 -1.5834
    7MOL0     H  903   3.624   4.025   3.311  0.8662  1.6838 -0.3142
    7MOL0     H  904   3.510   4.153   3.375 -0.9322 -1.2717  0.5879
    7MOL0     H  905   3.643   4.299   2.969 -0.4545  1.4823 -0.8079
    7MOL0     H  906   3.835   4.455   2.960  2.8860  2.1745  1.2994
    7MOL0     H  907   4.224   4.696   3.201 -1.4487  2.7007  1.6740
    7MOL0     H  908   4.388   4.871   3.123  0.4818 -0.7981 -0.8450
    7MOL0     H  909   4.363   5.003   2.679  0.3731 -0.6252 -0.0869
    7MOL0     H  910   4.269   5.122   2.754 -0.4495 -2.1891 -0.3187
    7MOL0     H  911   4.452   5.235   2.646 -0.1145 -0.2863 -0.9154
    7MOL0     H  912   4.480   5.245   2.819 -2.1237  1.2194 -0.6121
    7MOL0     H  913   4.607   5.023   2.811 -3.2314 -0.5510 -0.7126
    7MOL0     H  914   4.620   5.024   2.640  1.1472 -0.3497  0.9994
    7MOL0     H  915   4.734   5.266   2.789  1.8605  2.1440 -2.8472
    7MOL0     H  916   4.774   5.216   2.626 -0.2446  1.3291  0.9259
    7MOL0     H  917   4.820   5.064   2.888 -1.7295  2.3370 -0.2516
    7MOL0     H  918   4.933   5.174   2.803 -0.3571  1.0727  0.3758
    7MOL0     H  919   4.837   4.893   2.700 -1.1893  0.3447  2.4954
    7MOL0     H  920   4.910   5.021   2.608  0.0849 -1.2489 -0.4669
    7MOL0     H  921   5.016   4.911   2.876  1.9872  3.0508  1.1443
    7MOL0     H  922   5.099   5.027   2.777 -1.6661  0.6769  0.4545
    7MOL0     H  923   5.180   4.791   2.751 -0.1090  1.5966  1.5691
    7MOL0     H  924   5.014   4.727   2.717 -2.0168  0.6711  0.3385
    7MOL0     H  925   4.154   4.914   2.753 -1.5040 -2.6390 -0.2978
    7MOL0     H  926   4.031   4.746   2.828 -1.9979  2.2693  1.7151
    7MOL0     H  927   3.918   4.399   3.370  0.7692 -1.2157 -0.1084
    7MOL0     H  928   3.730   4.241   3.386  0.7570  0.2141  0.0342
    7MOL0     H  929   2.556   3.381   2.162 -1.5117  0.6819 -0.0777
    7MOL0     H  930   2.499   3.156   2.103  0.0015 -0.6953 -0.2466
    7MOL0     H  931   2.318   2.801   2.373  0.3693  0.2833  0.9264
    7MOL0     H  932   2.220   2.595   2.458 -0.8974  0.0037 -0.5035
    7MOL0     H  933   2.451   2.210   2.494 -0.3649  0.5258  1.6012
    7MOL0     H  934   2.392   2.242   2.332  1.5160 -3.0066  0.5788
    7MOL0     H  935   2.298   2.041   2.443 -0.2251 -0.1800  1.7713
    7MOL0     H  936   2.178   2.141   2.369 -2.0612 -2.8374  1.1038
    7MOL0     H  937   2.107   2.070   2.569  2.1460 -1.7223  3.4447
    7MOL0     H  938   2.103   2.248   2.576 -1.6943 -2.3022  1.7817
    7MOL0     H  939   2.308   2.066   2.723  0.7680 -0.1308  3.0469
    7MOL0     H  940   2.333   2.238   2.707  0.4066 -0.2180 -1.9885
    7MOL0     H  941   2.053   2.222   3.014 -2.3615 -0.5321 -0.7840
    7MOL0     H  942   2.581   2.384   2.415  1.6416  0.7300  0.5644
    7MOL0     H  943   2.807   2.623   2.347  1.2804 -1.8345  0.4634
    7MOL0     H  944   2.753   2.467   2.264 -0.2272 -0.3278  0.8098
    7MOL0     H  945   2.741   2.631   2.187 -1.1451 -0.6838  0.0625
    8MOL0     O  946  10.730   6.763   6.883  0.1083  0.7263  0.4482
    8MOL0     C  947  10.640   6.692   6.830  0.0889 -0.2282 -0.2110
    8MOL0     O  948  10.581   6.725   6.717 -1.1063 -0.1012  0.5553
    8MOL0     C  949  10.621   6.841   6.652  1.1206 -1.0910 -0.7262
    8MOL0     C  950  10.559   6.960   6.685  0.1349  0.4748 -0.1443
    8MOL0     C  951  10.597   7.074   6.611  0.1120 -0.5456  0.0143
    8MOL0     C  952  10.692   7.068   6.504  0.2124  0.1858 -0.2854
    8MOL0     O  953  10.707   7.182   6.428  0.0759 -0.3762  0.0673
    8MOL0     C  954  10.768   7.180   6.298  0.2380 -1.1592  1.0152
    8MOL0     C  955  10.680   7.120   6.194 -0.1681 -0.2249 -0.1492
    8MOL0     C  956  10.700   7.187   6.064 -1.0035  0.3761  0.4029
    8MOL0     C  957  10.638   7.108   5.949 -0.2229 -0.2488 -0.1641
    8MOL0     C  958  10.624   7.204   5.837 -0.0243 -0.1666  0.8554
    8MOL0     C  959  10.570   7.137   5.705 -0.3853 -0.3134 -0.7568
    8MOL0     C  960  10.507   7.235   5.605 -0.1326  0.2195 -0.7209
    8MOL0     C  961  10.352   7.251   5.631 -0.2499  0.6964  0.5524
    8MOL0     N  962  10.317   7.315   5.763 -0.0215  0.3139 -0.6305
    8MOL0     C  963  10.290   7.245   5.884 -0.5480 -0.3497  0.4648
    8MOL0     C  964  10.300   7.345   5.969  0.0243  0.1590 -0.1221
    8MOL0     C  965  10.296   7.314   6.121  1.0897 -0.0070 -0.0746
    8MOL0     C  966  10.168   7.369   6.191 -0.1201 -0.7226  0.3262
    8MOL0     C  967  10.137   7.515   6.197 -0.2882  1.0198 -0.1968
    8MOL0     C  968  10.007   7.555   6.263  1.2830  0.5013 -0.9313
    8MOL0     O  969   9.986   7.702   6.265  0.3831 -0.0289 -0.4657
    8MOL0     C  970   9.864   7.742   6.318  0.6230 -0.7397 -0.4901
    8MOL0     C  971   9.848   7.882   6.340 -0.2270  0.2158  0.1705
    8MOL0     C  972   9.723   7.933   6.390 -0.1427  0.1035  0.7495
    8MOL0     C  973   9.613   7.844   6.426 -0.9228 -0.5747 -0.2437
    8MOL0     C  974   9.484   7.893   6.486 -1.1581  0.7258 -0.6665
    8MOL0     O  975   9.476   8.026   6.515 -0.1866 -0.1331 -0.1030
    8MOL0     C  976   9.393   8.070   6.624 -0.2981  0.2854 -0.0112
    8MOL0     C  977   9.347   7.986   6.731 -0.9182 -0.5197  0.1479
    8MOL0     C  978   9.279   8.035   6.840  0.6511  0.0780  0.0055
    8MOL0     C  979   9.238   8.170   6.848 -0.4663  0.9078  0.0815
    8MOL0     O  980   9.156   8.213   6.951 -1.0027  0.3718 -0.1505
    8MOL0     C  981   9.148   8.357   6.955  0.9832  0.3526 -0.3517
    8MOL0     C  982   9.081   8.399   7.084  0.0338  0.7485  0.6349
    8MOL0     C  983   8.953   8.304   7.112 -0.3081 -0.0339 -0.4649
    8MOL0     C  984   8.883   8.358   7.237  0.1771 -0.4973 -0.3350
    8MOL0     C  985   8.786   8.469   7.211  0.8750  0.8404 -1.1321
    8MOL0     C  986   8.675   8.486   7.312  0.2273 -0.1107 -0.5439
    8MOL0     C  987   8.573   8.579   7.252  0.7725 -0.6377 -0.4248
    8MOL0     C  988   8.499   8.660   7.363  0.2316  0.1889 -0.6314
    8MOL0    Cl  989   8.420   8.558   7.490  0.4004 -0.3462  0.5428
    8MOL0     C  990   9.283   8.252   6.740  0.2149  0.1766  0.1882
    8MOL0     C  991   9.368   8.208   6.638  0.2630 -0.0516 -0.0004
    8MOL0     O  992   9.398   7.806   6.508  1.1077 -0.2373  0.1604
    8MOL0     C  993   9.630   7.709   6.391  1.2651 -0.0991  0.3391
    8MOL0     C  994   9.744   7.661   6.332 -0.0880  0.1815  0.1287
    8MOL0     N  995  10.317   7.466   5.910  0.0607 -0.4599  0.6035
    8MOL0     N  996  10.338   7.446   5.785 -0.0213  1.0604 -0.6527
    8MOL0     C  997  10.748   6.951   6.476  0.2019 -0.0560 -0.9344
    8MOL0     C  998  10.725   6.840   6.556 -0.6713 -0.0737 -0.2252
    8MOL0     C  999  10.611   6.557   6.895  1.0701 -0.9273  0.2691
    8MOL0     C 1000  10.717   6.482   6.942  0.0085 -0.3766 -0.6737
    8MOL0     C 1001  10.698   6.363   7.004  0.6526  0.0544  0.8379
    8MOL0     C 1002  10.570   6.317   7.022  0.2392 -0.0341  0.4704
    8MOL0     O 1003  10.542   6.189   7.066 -0.3346  0.2076  0.5253
    8MOL0     C 1004  10.641   6.081   7.065 -0.1436 -0.8267 -0.0818
    8MOL0     C 1005  10.584   5.963   7.149  0.0294  1.2001 -1.4641
    8MOL0     C 1006  10.469   5.893   7.074  0.1842  1.0719  0.3690
    8MOL0     C 1007  10.331   5.950   7.097  0.4153 -0.7072  1.1153
    8MOL0     C 1008  10.284   5.919   7.224  0.1674 -0.0252  0.1533
    8MOL0     C 1009  10.249   5.899   7.335  0.0103  0.0733 -0.7697
    8MOL0     C 1010  10.455   6.392   6.975 -0.6374 -0.3752 -0.5980
    8MOL0     C 1011  10.475   6.514   6.919  0.8084 -0.0987  0.5993
    8MOL0     C 1012  10.356   6.588   6.871 -0.0776 -0.0316 -0.5234
    8MOL0     H 1013  10.488   6.961   6.767 -0.9785  0.6887 -1.0830
    8MOL0     H 1014  10.553   7.173   6.622  1.0370 -0.1897  0.6659
    8MOL0     H 1015  10.791   7.280   6.259  2.0375 -1.4048  1.3438
    8MOL0     H 1016  10.872   7.144   6.295  1.4890  2.1448 -0.0728
    8MOL0     H 1017  10.575   7.143   6.217  1.0195  2.2628  3.8576
    8MOL0     H 1018  10.706   7.016   6.174  2.1205  0.3494 -0.4748
    8MOL0     H 1019  10.807   7.202   6.048 -0.1534 -2.6027  2.4165
    8MOL0     H 1020  10.663   7.289   6.059  0.8118  0.9938 -2.2724
    8MOL0     H 1021  10.702   7.027   5.912 -1.5231 -1.5797  0.4012
    8MOL0     H 1022  10.546   7.066   5.989 -0.8841  1.0668 -0.2576
    8MOL0     H 1023  10.553   7.285   5.856 -1.4588 -1.3207  0.5608
    8MOL0     H 1024  10.725   7.243   5.821 -0.9023  1.8903 -0.0020
    8MOL0     H 1025  10.660   7.099   5.655  0.2605 -0.7681  0.6933
    8MOL0     H 1026  10.498   7.060   5.731 -0.3959  0.2167  0.9295
    8MOL0     H 1027  10.536   7.202   5.505 -1.2668  1.3015 -1.4399
    8MOL0     H 1028  10.555   7.333   5.611 -0.7311  0.4904 -0.2032
    8MOL0     H 1029  10.302   7.311   5.554 -0.0993  0.3127  0.1457
    8MOL0     H 1030  10.309   7.150   5.627  2.7120 -0.6475 -2.4536
    8MOL0     H 1031  10.281   7.139   5.906  0.0767 -0.7530 -1.0436
    8MOL0     H 1032  10.305   7.208   6.146  2.2226 -0.0212 -0.4721
    8MOL0     H 1033  10.377   7.360   6.178  1.2309 -1.1881  0.7258
    8MOL0     H 1034  10.077   7.315   6.163 -1.9003 -0.4909  4.7762
    8MOL0     H 1035  10.191   7.332   6.291  2.6410  1.5678  0.6524
    8MOL0     H 1036  10.152   7.554   6.096 -0.0653  2.8262  0.5065
    8MOL0     H 1037  10.224   7.559   6.247  0.6451 -0.2630 -0.6238
    8MOL0     H 1038  10.000   7.516   6.365  1.1650 -1.1378 -1.5384
    8MOL0     H 1039   9.930   7.496   6.212  2.2704 -0.5777 -1.1936
    8MOL0     H 1040   9.929   7.954   6.328 -2.6165  3.1204  0.3973
    8MOL0     H 1041   9.731   8.039   6.414  1.1842  1.1701 -3.5340
    8MOL0     H 1042   9.402   7.893   6.741 -2.0545 -1.1003  1.2236
    8MOL0     H 1043   9.253   7.963   6.917  0.9475 -0.1084 -0.0667
    8MOL0     H 1044   9.246   8.405   6.944  1.6125 -0.3230  1.7627
    8MOL0     H 1045   9.078   8.400   6.883  0.0134 -0.0352  0.3453
    8MOL0     H 1046   9.150   8.391   7.169 -4.5321  1.2570  4.8282
    8MOL0     H 1047   9.057   8.506   7.083  0.9620  1.0160 -2.4733
    8MOL0     H 1048   8.881   8.299   7.030 -3.0809 -0.8922  1.8453
    8MOL0     H 1049   8.977   8.203   7.145 -2.0094  0.2870  2.0186
    8MOL0     H 1050   8.964   8.391   7.302 -0.3061 -1.7391  0.9620
    8MOL0     H 1051   8.828   8.270   7.274 -1.2029  0.0384 -1.0108
    8MOL0     H 1052   8.738   8.451   7.114  2.2200  2.5449 -2.1719
    8MOL0     H 1053   8.836   8.566   7.201 -1.0741  1.9709 -0.4569
    8MOL0     H 1054   8.630   8.388   7.332  0.1944 -0.1797 -0.9578
    8MOL0     H 1055   8.708   8.524   7.410  0.2531 -0.0246 -0.5858
    8MOL0     H 1056   8.504   8.507   7.206  3.2309 -2.1683 -1.9865
    8MOL0     H 1057   8.613   8.648   7.177 -3.7432  1.0579 -1.5820
    8MOL0     H 1058   8.571   8.720   7.420 -0.3111  0.0471  0.2294
    8MOL0     H 1059   8.421   8.723   7.318 -0.8070 -2.6218 -3.1519
    8MOL0     H 1060   9.245   8.353   6.730  0.5966  0.1852 -1.6138
    8MOL0     H 1061   9.408   8.271   6.559 -0.8963  0.5323 -0.1333
    8MOL0     H 1062   9.548   7.646   6.423  1.2889 -1.1555 -1.5780
    8MOL0     H 1063   9.748   7.554   6.313  1.1448  0.1589  0.4845
    8MOL0     H 1064  10.835   6.960   6.411 -0.0957  0.4346 -1.2671
    8MOL0     H 1065  10.789   6.754   6.536  1.8612  1.7942 -0.5772
    8MOL0     H 1066  10.818   6.523   6.942  1.2294 -3.1487 -0.7218
    8MOL0     H 1067  10.779   6.310   7.052  2.7226 -0.0263 -2.4315
    8MOL0     H 1068  10.734   6.119   7.106 -2.0933  3.9781  0.5537
    8MOL0     H 1069  10.648   6.049   6.961 -2.8843 -0.0230 -0.6105
    8MOL0     H 1070  10.551   5.983   7.252  0.6914  1.2999 -1.2627
    8MOL0     H 1071  10.661   5.888   7.171 -1.2740  0.7068  2.0439
    8MOL0     H 1072  10.473   5.784   7.087 -2.5109  0.8150 -0.4405
    8MOL0     H 1073  10.487   5.899   6.966 -1.4290 -1.9149 -0.1801
    8MOL0     H 1074  10.334   6.058   7.078  1.6335 -1.0389 -0.7961
    8MOL0     H 1075  10.263   5.913   7.020 -1.5406 -1.9564  3.3089
    8MOL0     H 1076  10.210   5.879   7.433 -1.4359  1.2697 -1.0696
    8MOL0     H 1077  10.358   6.345   6.989 -1.2128  0.9114 -0.0552
    8MOL0     H 1078  10.279   6.568   6.946 -0.5893  0.3324 -0.9495
    8MOL0     H 1079  10.369   6.697   6.878 -0.0443 -0.1027  0.8487
    8MOL0     H 1080  10.332   6.568   6.766 -0.0784  1.9689 -0.9581
    9MOL0     O 1081  10.897   4.742  10.901  0.4581  0.6553 -0.1714
    9MOL0     C 1082  10.939   4.804  10.995  0.3697 -0.7089 -0.3863
    9MOL0     O 1083  11.071   4.822  11.026  0.3201 -0.0011 -0.5358
    9MOL0     C 1084  11.172   4.791  10.937  0.2033  0.1349 -0.0414
    9MOL0     C 1085  11.255   4.891  10.888  0.5585  0.5248 -0.2228
    9MOL0     C 1086  11.375   4.870  10.816 -0.8411  0.7872  0.5058
    9MOL0     C 1087  11.419   4.733  10.801  0.1778  0.0191  0.2010
    9MOL0     O 1088  11.541   4.709  10.735  0.3851 -0.5945  0.8680
    9MOL0     C 1089  11.635   4.631  10.797 -0.3871  0.2062  0.6689
    9MOL0     C 1090  11.744   4.591  10.690  0.5552 -0.9550 -0.1551
    9MOL0     C 1091  11.808   4.718  10.633  0.8714  0.2842 -0.1385
    9MOL0     C 1092  11.891   4.791  10.738 -1.1437 -1.8997  0.3834
    9MOL0     C 1093  11.953   4.917  10.668 -0.1840  0.5787 -0.2507
    9MOL0     C 1094  12.001   5.015  10.772 -0.1295  0.5499 -0.4077
    9MOL0     C 1095  12.093   4.963  10.887 -0.1907  0.7084  0.0970
    9MOL0     C 1096  12.097   5.071  10.989  0.5428  0.3076 -0.5165
    9MOL0     N 1097  12.185   5.026  11.098 -1.0991  0.0724  0.5517
    9MOL0     C 1098  12.319   5.058  11.110 -0.3984  0.4842  0.9297
    9MOL0     C 1099  12.356   5.041  11.245  1.5249  0.3041 -0.0460
    9MOL0     C 1100  12.484   5.084  11.304 -0.1926  0.4930 -0.1153
    9MOL0     C 1101  12.586   4.970  11.318 -0.0276  0.5288 -0.1984
    9MOL0     C 1102  12.731   5.030  11.319 -0.8077  0.0842 -0.5032
    9MOL0     C 1103  12.791   5.057  11.183  0.0521  0.1867 -0.1479
    9MOL0     O 1104  12.835   4.937  11.120  0.6106 -0.9879  0.1656
    9MOL0     C 1105  12.969   4.903  11.108 -0.1737  1.2289  0.3347
    9MOL0     C 1106  12.996   4.766  11.084 -0.3142  0.1534 -0.3956
    9MOL0     C 1107  13.121   4.704  11.101  0.6677  0.4125 -0.3639
    9MOL0     C 1108  13.228   4.780  11.125 -0.7967 -0.8988 -1.4563
    9MOL0     C 1109  13.366   4.730  11.131 -0.2556  0.9126 -0.1267
    9MOL0     O 1110  13.469   4.814  11.111 -0.0677 -0.1695  0.5153
    9MOL0     C 1111  13.597   4.773  11.127 -0.6019 -0.6887 -0.5350
    9MOL0     C 1112  13.658   4.696  11.033  0.4292 -0.1226 -0.0967
    9MOL0     C 1113  13.794   4.654  11.046  0.6984 -0.4033 -0.2851
    9MOL0     C 1114  13.863   4.674  11.168 -0.6833 -0.3067  0.5863
    9MOL0     O 1115  13.994   4.623  11.189 -0.1746  0.0735 -0.1952
    9MOL0     C 1116  14.022   4.576  11.323 -0.1347  0.6632  0.5960
    9MOL0     C 1117  14.144   4.480  11.319  0.1773  0.2594 -0.4268
    9MOL0     C 1118  14.260   4.549  11.244  0.5587  1.1683 -0.5942
    9MOL0     C 1119  14.394   4.475  11.281 -0.1048 -1.1138 -0.3246
    9MOL0     C 1120  14.513   4.547  11.218 -0.3500 -1.4490 -0.1147
    9MOL0     C 1121  14.499   4.594  11.069  0.1086  0.0739 -0.7169
    9MOL0     C 1122  14.616   4.691  11.031  0.3093  0.5499 -0.0419
    9MOL0     C 1123  14.750   4.628  10.973 -0.0276 -0.3574 -0.6608
    9MOL0    Cl 1124  14.728   4.537  10.813 -0.0750 -0.1182 -0.4281
    9MOL0     C 1125  13.801   4.766  11.255 -0.2942 -0.1120  0.0648
    9MOL0     C 1126  13.675   4.816  11.232  0.5491 -0.4584 -0.6238
    9MOL0     O 1127  13.377   4.613  11.162  0.7319  0.2210  0.1356
    9MOL0     C 1128  13.211   4.917  11.141  0.3997 -0.2423 -0.0781
    9MOL0     C 1129  13.082   4.983  11.141 -0.3641  0.7770 -0.6169
    9MOL0     N 1130  12.242   5.010  11.311  0.5412 -0.2721  0.3041
    9MOL0     N 1131  12.147   4.993  11.223  0.8573  0.0246  0.9600
    9MOL0     C 1132  11.337   4.635  10.849 -0.3571  0.2870 -0.0491
    9MOL0     C 1133  11.212   4.661  10.919 -0.8255  0.4154  0.5407
    9MOL0     C 1134  10.838   4.861  11.088 -0.0654 -0.0369  0.1132
    9MOL0     C 1135  10.715   4.795  11.095 -0.9109 -0.5991 -0.0358
    9MOL0     C 1136  10.612   4.847  11.186  0.0946  0.1559  0.2076
    9MOL0     C 1137  10.623   4.968  11.253  0.1710 -0.2080 -0.0644
    9MOL0     O 1138  10.530   5.035  11.330  0.0078  0.1393  0.2159
    9MOL0     C 1139  10.396   4.981  11.331 -1.2408  0.3083 -0.1841
    9MOL0     C 1140  10.318   5.095  11.391 -0.4605 -0.0352  0.5646
    9MOL0     C 1141  10.174   5.067  11.431  0.9157  0.7672 -0.1728
    9MOL0     C 1142  10.101   5.194  11.472  0.0856 -0.3697  0.3463
    9MOL0     C 1143  10.091   5.293  11.357 -0.3380  0.4078  0.4706
    9MOL0     C 1144  10.089   5.377  11.271 -0.4159  0.4840 -0.4369
    9MOL0     C 1145  10.742   5.036  11.223 -1.0065  0.4851 -0.7877
    9MOL0     C 1146  10.849   4.986  11.153  0.4463 -0.5530 -0.1207
    9MOL0     C 1147  10.965   5.074  11.129  0.7755 -0.2350  0.6611
    9MOL0     H 1148  11.216   4.990  10.907 -0.6328 -0.1193  0.8819
    9MOL0     H 1149  11.436   4.955  10.784 -1.4338  0.8194 -0.5995
    9MOL0     H 1150  11.688   4.676  10.882  2.7063 -2.0796  0.1424
    9MOL0     H 1151  11.591   4.542  10.844 -1.0890  0.8344  1.2333
    9MOL0     H 1152  11.694   4.534  10.612  0.3922 -0.2618 -0.5605
    9MOL0     H 1153  11.822   4.529  10.735  1.2524  0.2402  0.3404
    9MOL0     H 1154  11.734   4.786  10.590  0.6991 -0.4929 -1.1051
    9MOL0     H 1155  11.863   4.674  10.549 -0.7492 -1.9359 -0.1482
    9MOL0     H 1156  11.826   4.822  10.820 -0.3040 -0.6275  0.5940
    9MOL0     H 1157  11.961   4.719  10.780 -0.4478 -1.0936  0.6156
    9MOL0     H 1158  12.045   4.885  10.620  1.6436  0.2292  3.1368
    9MOL0     H 1159  11.885   4.970  10.602  0.4281  0.6103 -0.8573
    9MOL0     H 1160  12.075   5.081  10.724  0.3740  0.4893  0.2681
    9MOL0     H 1161  11.918   5.071  10.816  0.1759 -0.0561  1.0102
    9MOL0     H 1162  12.192   4.934  10.848 -0.8366  0.0853 -1.1528
    9MOL0     H 1163  12.063   4.870  10.936  0.0847  1.0390  0.9051
    9MOL0     H 1164  12.134   5.160  10.938 -0.6734  1.1782  0.0784
    9MOL0     H 1165  12.004   5.093  11.042  2.6403  1.6150  3.0548
    9MOL0     H 1166  12.386   5.093  11.032 -0.6062 -2.6174 -0.8030
    9MOL0     H 1167  12.515   5.171  11.245 -1.6125  0.0302 -1.6542
    9MOL0     H 1168  12.480   5.124  11.405  1.4623 -0.6324  0.4371
    9MOL0     H 1169  12.572   4.923  11.415 -0.2171 -0.5694 -0.7477
    9MOL0     H 1170  12.585   4.888  11.246  0.4899 -1.6875  2.1733
    9MOL0     H 1171  12.794   4.964  11.379 -1.6581  0.8469  1.2999
    9MOL0     H 1172  12.733   5.127  11.368  1.0822  1.1287 -2.5012
    9MOL0     H 1173  12.866   5.136  11.198  1.6838 -1.8576  4.4643
    9MOL0     H 1174  12.713   5.105  11.124  1.2337  5.2031  1.8088
    9MOL0     H 1175  12.920   4.689  11.075  0.4786 -0.6539 -0.3544
    9MOL0     H 1176  13.139   4.597  11.102  0.4544  0.2602 -3.2773
    9MOL0     H 1177  13.598   4.687  10.944  1.2107 -0.3198 -0.6128
    9MOL0     H 1178  13.855   4.612  10.967  0.2839  0.1337 -0.9051
    9MOL0     H 1179  14.049   4.652  11.397  1.3256 -0.0486  0.8286
    9MOL0     H 1180  13.935   4.522  11.361 -1.9494  2.7167 -0.4324
    9MOL0     H 1181  14.159   4.448  11.423 -0.3949 -0.7613 -0.6459
    9MOL0     H 1182  14.117   4.395  11.256  3.3704 -0.2511 -1.2423
    9MOL0     H 1183  14.233   4.549  11.138 -2.3558 -1.5155  0.0005
    9MOL0     H 1184  14.270   4.652  11.277  0.7164  1.3656 -1.2449
    9MOL0     H 1185  14.382   4.374  11.242 -2.0321 -2.2885  2.9188
    9MOL0     H 1186  14.416   4.459  11.387  1.3190 -2.4751 -0.7871
    9MOL0     H 1187  14.607   4.491  11.223 -0.3403 -1.4244 -0.0184
    9MOL0     H 1188  14.538   4.638  11.273  0.5304 -0.5274 -1.9547
    9MOL0     H 1189  14.500   4.502  11.010  2.3006 -2.2542  2.5692
    9MOL0     H 1190  14.401   4.640  11.050 -0.2016 -0.9230 -1.6345
    9MOL0     H 1191  14.640   4.755  11.116  0.2574  1.0197 -0.3790
    9MOL0     H 1192  14.565   4.748  10.954 -1.3479 -1.4406 -0.5136
    9MOL0     H 1193  14.829   4.702  10.959  1.4443 -1.8177 -0.4521
    9MOL0     H 1194  14.798   4.557  11.041  2.4199 -0.2903 -2.1778
    9MOL0     H 1195  13.859   4.794  11.343 -1.1118 -1.3569  1.0318
    9MOL0     H 1196  13.640   4.887  11.307  2.9515 -0.6412  0.7802
    9MOL0     H 1197  13.294   4.985  11.157 -2.6086  3.5591  0.8401
    9MOL0     H 1198  13.082   5.089  11.167 -0.1122  0.8090 -0.7435
    9MOL0     H 1199  11.379   4.536  10.838  1.2890  0.5629  2.8671
    9MOL0     H 1200  11.154   4.581  10.963  1.1924 -1.1905  0.4118
    9MOL0     H 1201  10.715   4.691  11.065  1.3331 -0.4291 -0.8166
    9MOL0     H 1202  10.523   4.786  11.198  0.0689  0.1229 -0.1654
    9MOL0     H 1203  10.386   4.898  11.401 -0.3383  2.5663  2.7871
    9MOL0     H 1204  10.365   4.950  11.230 -3.0721 -1.5572  0.8751
    9MOL0     H 1205  10.315   5.174  11.316 -0.8883 -0.8755 -0.3073
    9MOL0     H 1206  10.365   5.124  11.486 -0.4995  1.8793  0.0402
    9MOL0     H 1207  10.168   4.996  11.514  2.8219  1.1681  0.3497
    9MOL0     H 1208  10.128   5.019  11.344  1.7505  0.3705 -0.4064
    9MOL0     H 1209  10.001   5.166  11.507 -0.6698  1.9137  0.2337
    9MOL0     H 1210  10.157   5.234  11.557 -1.6724 -0.2949  1.5284
    9MOL0     H 1211  10.083   5.467  11.213 -0.3102  0.3618 -0.6424
    9MOL0     H 1212  10.756   5.131  11.274  2.8948 -1.0187  1.3411
    9MOL0     H 1213  11.059   5.029  11.162  1.8509  0.4200 -1.3493
    9MOL0     H 1214  10.957   5.095  11.022 -0.1122 -0.2496  0.7172
    9MOL0     H 1215  10.956   5.173  11.175  0.4813 -0.4981  1.1800
   10MOL0     O 1216   3.525   7.169   5.178 -0.2132  0.4180  0.5956
   10MOL0     C 1217   3.535   7.217   5.063 -0.7876 -0.2872 -0.7491
   10MOL0     O 1218   3.648   7.204   4.981  0.3068  0.1793 -0.1474
   10MOL0     C 1219   3.734   7.103   5.011 -0.3682  0.1029  0.0360
   10MOL0     C 1220   3.686   6.975   5.002  0.1572 -0.5486 -0.4001
   10MOL0     C 1221   3.764   6.859   5.019 -0.6581 -0.9827 -1.1788
   10MOL0     C 1222   3.899   6.876   5.039  0.3148  0.0286  0.7458
   10MOL0     O 1223   3.971   6.761   5.050  0.4433 -1.2016 -0.2382
   10MOL0     C 1224   4.095   6.770   5.113 -0.0309 -0.4533 -0.0559
   10MOL0     C 1225   4.134   6.632   5.161  0.1729  0.5081  1.2878
   10MOL0     C 1226   4.181   6.526   5.061  1.0128  0.1952  0.4689
   10MOL0     C 1227   4.071   6.483   4.955  1.0733  0.0579 -0.3110
   10MOL0     C 1228   4.130   6.373   4.868  0.7277  0.3978  0.1891
   10MOL0     C 1229   4.037   6.352   4.750  0.0426  0.6582 -0.3230
   10MOL0     C 1230   4.097   6.234   4.670  0.7416  0.9156  0.5004
   10MOL0     C 1231   3.990   6.203   4.562  0.0837  0.5038 -0.0103
   10MOL0     N 1232   4.054   6.103   4.464  0.7064 -0.1081 -1.4460
   10MOL0     C 1233   4.058   5.970   4.495 -0.3327  0.3310 -0.2548
   10MOL0     C 1234   4.141   5.914   4.399 -0.6039 -0.6047  0.2681
   10MOL0     C 1235   4.180   5.779   4.381 -0.8357  0.2360 -0.2579
   10MOL0     C 1236   4.294   5.739   4.475 -0.1994  0.2088  0.1496
   10MOL0     C 1237   4.430   5.729   4.397  0.1445  0.4206 -0.0056
   10MOL0     C 1238   4.553   5.697   4.488  0.4479  0.7025  0.5065
   10MOL0     O 1239   4.678   5.694   4.413  0.7159 -0.2775  0.3583
   10MOL0     C 1240   4.740   5.814   4.394  0.8552  0.4566 -0.5206
   10MOL0     C 1241   4.692   5.944   4.414 -0.5459  0.6271 -0.0492
   10MOL0     C 1242   4.770   6.056   4.390  0.5283 -0.3677  0.1594
   10MOL0     C 1243   4.904   6.046   4.351 -0.7503  0.2104  0.0825
   10MOL0     C 1244   4.999   6.154   4.324 -0.6065 -0.7197 -0.0531
   10MOL0     O 1245   5.121   6.135   4.279 -0.2968  0.3686  0.3363
   10MOL0     C 1246   5.213   6.244   4.287 -0.2114 -0.5693 -0.1317
   10MOL0     C 1247   5.274   6.287   4.403  0.7248  0.2241 -0.5334
   10MOL0     C 1248   5.368   6.386   4.397 -0.8349  0.4309  0.4872
   10MOL0     C 1249   5.412   6.452   4.278 -0.5648  0.5707  1.1729
   10MOL0     O 1250   5.489   6.561   4.267  0.0502 -0.0183 -0.2392
   10MOL0     C 1251   5.614   6.551   4.342  0.6656  0.3021 -0.6482
   10MOL0     C 1252   5.614   6.658   4.458 -0.8819 -0.5277  0.2315
   10MOL0     C 1253   5.757   6.643   4.531  0.3179 -0.3824  0.1389
   10MOL0     C 1254   5.764   6.522   4.619  0.7743  0.0818 -0.3668
   10MOL0     C 1255   5.904   6.461   4.635  0.1522  0.2905 -0.1809
   10MOL0     C 1256   5.997   6.553   4.711 -0.2678 -0.2298 -0.4630
   10MOL0     C 1257   5.951   6.594   4.848  0.6204 -0.5474  0.4310
   10MOL0     C 1258   5.893   6.475   4.927  0.1770  0.1822  0.8850
   10MOL0    Cl 1259   5.990   6.324   4.918  0.2298 -0.0384  0.1989
   10MOL0     C 1260   5.351   6.401   4.160  0.2637  0.3090 -0.5785
   10MOL0     C 1261   5.250   6.297   4.164 -0.5021 -0.4267  0.0272
   10MOL0     O 1262   4.950   6.266   4.329  0.1591  0.3616  0.1008
   10MOL0     C 1263   4.952   5.918   4.336  0.0793  0.0167 -0.0668
   10MOL0     C 1264   4.873   5.808   4.354 -0.1531 -0.2079  0.3309
   10MOL0     N 1265   4.174   6.023   4.318 -0.8568  0.2103 -0.7101
   10MOL0     N 1266   4.127   6.140   4.359  0.0635  1.0559 -0.1378
   10MOL0     C 1267   3.953   7.007   5.042  0.1824  0.1643 -0.1816
   10MOL0     C 1268   3.870   7.118   5.026 -0.1752 -0.6331 -1.1621
   10MOL0     C 1269   3.429   7.287   5.002 -0.7503 -0.2157  0.9837
   10MOL0     C 1270   3.370   7.397   5.070  0.2494 -0.6253 -0.3214
   10MOL0     C 1271   3.277   7.489   5.007  0.6053  0.6830  0.2802
   10MOL0     C 1272   3.238   7.458   4.873 -0.4389  0.0522  0.0570
   10MOL0     O 1273   3.156   7.538   4.792  0.6176 -0.4796 -0.5038
   10MOL0     C 1274   3.147   7.684   4.822  0.3206  0.4427  0.6770
   10MOL0     C 1275   3.135   7.765   4.684 -0.7942  0.9984  0.0884
   10MOL0     C 1276   2.991   7.788   4.645  0.5530  0.4100  0.0464
   10MOL0     C 1277   2.985   7.903   4.538 -0.5448  0.1690  0.4494
   10MOL0     C 1278   2.858   7.921   4.467  0.3386 -0.6681  0.4030
   10MOL0     C 1279   2.762   7.927   4.392 -0.5684  0.3955 -0.1428
   10MOL0     C 1280   3.288   7.342   4.813  0.2436  0.9883  0.0697
   10MOL0     C 1281   3.379   7.260   4.871  0.0789  0.5974  0.1634
   10MOL0     C 1282   3.429   7.133   4.792  0.3572 -0.5383 -0.2965
   10MOL0     H 1283   3.585   6.947   4.971 -0.1726 -0.1512  0.2853
   10MOL0     H 1284   3.729   6.757   5.018  1.8016 -2.0855  2.9481
   10MOL0     H 1285   4.172   6.808   5.046 -0.8733  3.4561  0.9042
   10MOL0     H 1286   4.090   6.830   5.204  0.3033 -1.2393  0.4871
   10MOL0     H 1287   4.045   6.601   5.217 -1.1292  1.2810 -0.3009
   10MOL0     H 1288   4.207   6.659   5.238 -0.4190  0.1000  2.0130
   10MOL0     H 1289   4.212   6.445   5.127  0.8453  2.1575  3.1519
   10MOL0     H 1290   4.271   6.568   5.017  1.5723 -0.4794  0.9530
   10MOL0     H 1291   3.981   6.460   5.012  1.4009  0.8023  0.5241
   10MOL0     H 1292   4.043   6.568   4.892 -3.5835 -2.1071 -1.6238
   10MOL0     H 1293   4.225   6.408   4.826 -0.0986  2.1370 -0.3156
   10MOL0     H 1294   4.149   6.282   4.925  0.5047  0.2381  0.0085
   10MOL0     H 1295   3.940   6.327   4.792  1.1024  0.2913  2.0633
   10MOL0     H 1296   4.028   6.434   4.678  1.7832  0.3418 -0.9685
   10MOL0     H 1297   4.111   6.148   4.736  1.3472  0.9688  0.4474
   10MOL0     H 1298   4.196   6.247   4.625  1.3033 -1.8218  0.8179
   10MOL0     H 1299   3.906   6.151   4.611  1.0225 -0.8165  0.2760
   10MOL0     H 1300   3.945   6.287   4.509  1.0931  1.5388  0.7480
   10MOL0     H 1301   4.014   5.910   4.574  1.4316 -1.0683 -0.2683
   10MOL0     H 1302   4.092   5.716   4.395 -0.2849 -0.1127  2.1051
   10MOL0     H 1303   4.205   5.771   4.275  0.3416 -2.0725  0.1162
   10MOL0     H 1304   4.302   5.814   4.554 -2.2003 -0.7237  1.3079
   10MOL0     H 1305   4.267   5.643   4.519 -0.6274  0.9261  1.4922
   10MOL0     H 1306   4.446   5.823   4.344  2.7006  0.4247  0.6075
   10MOL0     H 1307   4.425   5.651   4.320  1.3223  2.5286 -2.3443
   10MOL0     H 1308   4.523   5.601   4.531 -2.9377  2.1130  1.6498
   10MOL0     H 1309   4.555   5.775   4.565 -0.1237  3.0617 -1.7370
   10MOL0     H 1310   4.589   5.949   4.446 -0.9700 -2.7511 -0.5389
   10MOL0     H 1311   4.726   6.151   4.418  0.6838 -1.2602  4.0965
   10MOL0     H 1312   5.238   6.233   4.490 -1.8367 -4.2541 -3.8871
   10MOL0     H 1313   5.412   6.421   4.490  2.5559 -0.4078 -0.6655
   10MOL0     H 1314   5.649   6.451   4.368  2.7602  0.3318 -2.9453
   10MOL0     H 1315   5.691   6.575   4.267  2.1604  2.0527  1.3191
   10MOL0     H 1316   5.599   6.763   4.433  4.5679 -0.0838 -2.3900
   10MOL0     H 1317   5.543   6.615   4.530 -1.4004 -1.9396 -1.0489
   10MOL0     H 1318   5.836   6.638   4.455  1.7082  1.4433  1.3761
   10MOL0     H 1319   5.773   6.735   4.588 -1.1646  0.2863 -0.4608
   10MOL0     H 1320   5.702   6.447   4.569  1.1306 -1.6757  1.6867
   10MOL0     H 1321   5.717   6.542   4.716 -2.6527 -2.2462 -1.3629
   10MOL0     H 1322   5.959   6.426   4.546 -0.3394 -2.8543  0.6330
   10MOL0     H 1323   5.894   6.367   4.691  0.3121 -0.2481 -1.0314
   10MOL0     H 1324   6.091   6.498   4.720  0.9299  1.8339  0.5764
   10MOL0     H 1325   6.025   6.646   4.661 -0.3559  0.8979  1.4739
   10MOL0     H 1326   5.865   6.658   4.831 -1.0849 -2.5405  1.1152
   10MOL0     H 1327   6.039   6.635   4.898  1.4104 -1.8525  0.1517
   10MOL0     H 1328   5.896   6.509   5.031 -4.5904 -1.6531  1.9095
   10MOL0     H 1329   5.786   6.457   4.915  0.1505  1.2522 -0.7579
   10MOL0     H 1330   5.384   6.435   4.062 -2.1434 -0.4472 -1.7355
   10MOL0     H 1331   5.213   6.260   4.069 -2.2837  1.2744 -0.0015
   10MOL0     H 1332   5.053   5.896   4.301 -0.4583 -0.7064 -1.2255
   10MOL0     H 1333   4.913   5.712   4.323 -0.0679 -0.4354  1.1195
   10MOL0     H 1334   4.058   7.024   5.064  0.7084 -2.0281 -0.7545
   10MOL0     H 1335   3.921   7.214   5.025 -2.3723  0.5955 -2.3565
   10MOL0     H 1336   3.409   7.414   5.170  2.7554  1.9190 -1.5915
   10MOL0     H 1337   3.227   7.576   5.049 -3.9617 -1.8059  0.7083
   10MOL0     H 1338   3.234   7.715   4.882  0.8964  2.0087 -0.8909
   10MOL0     H 1339   3.060   7.706   4.885  2.2069  0.8839  3.3358
   10MOL0     H 1340   3.185   7.711   4.604 -0.9033  2.7169 -1.1898
   10MOL0     H 1341   3.174   7.866   4.700  0.2344  0.5149  0.6785
   10MOL0     H 1342   2.914   7.810   4.719 -0.7729 -0.6862 -0.9648
   10MOL0     H 1343   2.964   7.686   4.618  1.7429 -0.4200  1.7895
   10MOL0     H 1344   3.003   7.993   4.597 -1.2023 -1.8559  4.0347
   10MOL0     H 1345   3.068   7.892   4.466 -2.4925  1.9831 -2.2451
   10MOL0     H 1346   2.676   7.920   4.330  0.5441  3.0181 -2.1475
   10MOL0     H 1347   3.268   7.326   4.708  2.5464 -1.1099 -0.1265
   10MOL0     H 1348   3.415   7.043   4.853  1.5004 -0.1153  0.6176
   10MOL0     H 1349   3.368   7.130   4.702  0.7443  0.3681 -0.5944
   10MOL0     H 1350   3.537   7.142   4.781  0.2579  1.6119  0.0717
   11MOL0     O 1351   2.164   9.033   2.888 -0.6958 -0.2239  0.6337
   11MOL0     C 1352   2.172   9.072   2.769 -0.5399 -0.4476  0.5160
   11MOL0     O 1353   2.073   9.072   2.677  0.1043 -0.0347  0.5959
   11MOL0     C 1354   1.941   9.065   2.714  0.3995  0.0306 -0.5934
   11MOL0     C 1355   1.863   8.959   2.666 -0.4987  0.0071 -0.1699
   11MOL0     C 1356   1.732   8.941   2.705 -0.5486  0.0166  0.7419
   11MOL0     C 1357   1.678   9.027   2.801 -1.6032  0.5239  0.2595
   11MOL0     O 1358   1.550   9.008   2.829  0.8043  0.3904 -0.2701
   11MOL0     C 1359   1.498   9.057   2.955  0.2067 -0.2003 -0.8272
   11MOL0     C 1360   1.361   9.003   2.989 -0.0995  0.4043 -0.2287
   11MOL0     C 1361   1.263   9.074   2.895  0.8433 -0.2040 -0.2243
   11MOL0     C 1362   1.131   8.996   2.880 -1.0337  0.4147 -0.3054
   11MOL0     C 1363   1.016   9.090   2.873  0.6701  0.2122  0.4973
   11MOL0     C 1364   0.957   9.105   2.733 -0.2996  0.5227 -0.2175
   11MOL0     C 1365   0.823   9.177   2.744 -0.6631 -0.2012  0.8479
   11MOL0     C 1366   0.764   9.167   2.600 -0.3185  0.0595  0.0539
   11MOL0     N 1367   0.638   9.253   2.588  0.0049  1.2035  0.1426
   11MOL0     C 1368   0.512   9.239   2.652  0.0928  0.3235  0.4024
   11MOL0     C 1369   0.447   9.357   2.615 -0.3405  0.0923 -0.1681
   11MOL0     C 1370   0.314   9.401   2.666  0.0897  0.4579  0.2167
   11MOL0     C 1371   0.315   9.543   2.736  0.7264  0.3929  0.1831
   11MOL0     C 1372   0.348   9.538   2.885 -0.3183 -0.3254 -0.6894
   11MOL0     C 1373   0.499   9.504   2.914  0.3668  0.4370 -0.2137
   11MOL0     O 1374   0.574   9.612   2.985 -0.7459  0.5477  0.3553
   11MOL0     C 1375   0.708   9.586   2.999  0.2469 -0.8154 -0.1601
   11MOL0     C 1376   0.773   9.463   2.974  0.2547 -0.4795  0.4960
   11MOL0     C 1377   0.912   9.463   2.999  0.2231 -0.7452 -0.2798
   11MOL0     C 1378   0.979   9.575   3.051 -0.6481  0.4659 -0.1600
   11MOL0     C 1379   1.121   9.565   3.088  0.1116 -0.4761  0.8794
   11MOL0     O 1380   1.175   9.669   3.157 -0.2065  0.6242  0.3335
   11MOL0     C 1381   1.308   9.680   3.192 -0.2078 -0.0421 -0.6174
   11MOL0     C 1382   1.368   9.638   3.310  0.4022  0.2720  0.5732
   11MOL0     C 1383   1.502   9.664   3.335 -0.1442  0.6576  0.5687
   11MOL0     C 1384   1.581   9.744   3.251  0.0799  0.1167 -0.4765
   11MOL0     O 1385   1.715   9.767   3.282  0.0372  0.1190  0.6887
   11MOL0     C 1386   1.811   9.728   3.178 -0.0190 -0.0179  0.2277
   11MOL0     C 1387   1.868   9.854   3.114 -0.1049  1.0478  0.4746
   11MOL0     C 1388   1.935   9.934   3.222 -0.0120 -0.0409  0.5101
   11MOL0     C 1389   2.027  10.041   3.149 -1.7210 -0.3005  0.1203
   11MOL0     C 1390   1.954  10.178   3.127  0.1628  0.3624  0.6768
   11MOL0     C 1391   1.974  10.224   2.992  0.0262 -0.4708  0.1666
   11MOL0     C 1392   1.893  10.355   2.961 -0.2581  0.7434  0.9475
   11MOL0     C 1393   1.935  10.413   2.829  0.7124  0.3735 -0.0921
   11MOL0    Cl 1394   2.043  10.555   2.855 -0.6132  0.2633 -0.1297
   11MOL0     C 1395   1.536   9.779   3.130  1.0091  0.1074  0.2514
   11MOL0     C 1396   1.395   9.756   3.101 -1.1154  0.5605  0.8860
   11MOL0     O 1397   1.190   9.475   3.048  0.7038 -0.2932  0.2123
   11MOL0     C 1398   0.905   9.688   3.078 -0.5870  0.3127 -0.1775
   11MOL0     C 1399   0.774   9.690   3.050 -0.4514  0.7528  0.0247
   11MOL0     N 1400   0.533   9.437   2.537  0.3624 -0.2714 -0.5048
   11MOL0     N 1401   0.646   9.370   2.518 -0.3634  0.2693 -0.7517
   11MOL0     C 1402   1.749   9.138   2.849  0.4837  0.1198 -0.5167
   11MOL0     C 1403   1.878   9.156   2.800 -0.8196 -0.8212  0.3466
   11MOL0     C 1404   2.319   9.098   2.719 -0.3811  0.7462 -0.6022
   11MOL0     C 1405   2.353   9.058   2.594  0.3062 -0.1301  0.4418
   11MOL0     C 1406   2.478   9.064   2.544 -0.6873 -0.8922  0.2739
   11MOL0     C 1407   2.585   9.102   2.617 -0.0164 -0.0898  0.3133
   11MOL0     O 1408   2.702   9.109   2.546 -0.6782 -0.2526 -0.1157
   11MOL0     C 1409   2.813   9.144   2.631  0.2534  0.0735 -0.3427
   11MOL0     C 1410   2.937   9.119   2.555  0.4508 -0.4605  0.2195
   11MOL0     C 1411   3.061   9.114   2.641  1.5089  0.5035 -0.7208
   11MOL0     C 1412   3.195   9.082   2.576 -0.0457  0.0316  0.4347
   11MOL0     C 1413   3.243   9.166   2.474 -0.3509  0.1193  0.0199
   11MOL0     C 1414   3.263   9.245   2.385  0.3878 -0.3409 -0.6216
   11MOL0     C 1415   2.563   9.145   2.753  0.6693  0.9086  0.0882
   11MOL0     C 1416   2.431   9.154   2.807  0.1739  0.1448  0.6477
   11MOL0     C 1417   2.428   9.191   2.955  0.0700  0.6006  0.2612
   11MOL0     H 1418   1.899   8.892   2.588  2.0986  0.5025  0.5045
   11MOL0     H 1419   1.669   8.859   2.670 -0.9207 -0.5124  2.5539
   11MOL0     H 1420   1.566   9.030   3.037 -0.7975  0.7954  0.3747
   11MOL0     H 1421   1.507   9.166   2.956  3.6206 -0.3781  0.3197
   11MOL0     H 1422   1.332   9.034   3.090 -2.0881 -0.1346 -0.5820
   11MOL0     H 1423   1.347   8.895   2.981 -2.5728  0.6386  0.2108
   11MOL0     H 1424   1.305   9.083   2.794  1.2663 -0.5733 -0.0807
   11MOL0     H 1425   1.244   9.177   2.929  1.1838  0.0972 -0.9300
   11MOL0     H 1426   1.133   8.907   2.816  0.9680 -0.2245  0.5833
   11MOL0     H 1427   1.132   8.940   2.973  0.0264 -2.1151 -1.7401
   11MOL0     H 1428   0.940   9.038   2.932 -0.2889 -1.4209 -1.9897
   11MOL0     H 1429   1.035   9.182   2.929 -1.6909  0.9184  0.2499
   11MOL0     H 1430   1.024   9.162   2.668 -2.4534  2.6241 -0.7498
   11MOL0     H 1431   0.941   9.005   2.690  4.0403 -0.7544  0.6528
   11MOL0     H 1432   0.836   9.280   2.779 -0.0593 -0.1573  0.4962
   11MOL0     H 1433   0.746   9.126   2.803 -1.8965 -0.2686 -0.7543
   11MOL0     H 1434   0.841   9.212   2.536 -1.0969 -1.8901 -2.4011
   11MOL0     H 1435   0.738   9.065   2.572  1.2761 -0.4981  0.4907
   11MOL0     H 1436   0.474   9.166   2.723  1.6715 -0.1120  0.8387
   11MOL0     H 1437   0.240   9.405   2.585  0.1837  3.0354  0.2009
   11MOL0     H 1438   0.285   9.338   2.751  0.4029  2.4104  1.8500
   11MOL0     H 1439   0.386   9.608   2.684 -0.7036  0.4823 -1.7765
   11MOL0     H 1440   0.217   9.591   2.729  1.4672  2.1612  1.3111
   11MOL0     H 1441   0.275   9.479   2.941 -0.2666  1.1264  1.0042
   11MOL0     H 1442   0.342   9.644   2.911  1.1945 -0.6842  1.4658
   11MOL0     H 1443   0.553   9.476   2.823  0.3646  0.4335 -0.2142
   11MOL0     H 1444   0.494   9.416   2.978 -0.5200  2.0597  2.0590
   11MOL0     H 1445   0.726   9.375   2.931 -1.0245 -1.6626  3.9598
   11MOL0     H 1446   0.973   9.374   2.985  2.3991  0.6035  0.1361
   11MOL0     H 1447   1.305   9.578   3.375 -0.0874  0.8692  0.6674
   11MOL0     H 1448   1.540   9.636   3.433  1.1630 -0.8706 -0.3503
   11MOL0     H 1449   1.891   9.674   3.229 -1.8542 -2.6172  0.5845
   11MOL0     H 1450   1.770   9.661   3.102 -1.0853  0.4808  0.3457
   11MOL0     H 1451   1.936   9.818   3.037 -0.5365  1.2903 -0.0310
   11MOL0     H 1452   1.793   9.909   3.055 -1.1271  0.6475  1.3630
   11MOL0     H 1453   1.864   9.976   3.293  0.6398  2.1838 -0.0704
   11MOL0     H 1454   2.009   9.867   3.267 -0.9056 -1.4827 -0.1033
   11MOL0     H 1455   2.072  10.012   3.053 -0.1651 -0.5824  0.9053
   11MOL0     H 1456   2.111  10.065   3.215 -2.0177  0.8997  0.0809
   11MOL0     H 1457   2.002  10.249   3.195 -1.5429  0.5115  1.7890
   11MOL0     H 1458   1.849  10.172   3.155  0.9964 -0.0770  4.2332
   11MOL0     H 1459   2.077  10.245   2.963  0.2416 -2.1924 -0.4242
   11MOL0     H 1460   1.941  10.141   2.928 -1.8244  0.4363 -0.1336
   11MOL0     H 1461   1.913  10.423   3.044  2.9629 -0.0376  0.9513
   11MOL0     H 1462   1.788  10.326   2.960  0.5188 -2.4711 -1.0321
   11MOL0     H 1463   1.988  10.341   2.766  2.0800  0.5402  0.8230
   11MOL0     H 1464   1.848  10.455   2.777  0.9548  1.5915  0.4526
   11MOL0     H 1465   1.602   9.821   3.055 -0.6308  1.0252 -0.7270
   11MOL0     H 1466   1.366   9.782   2.999 -0.0412 -1.2847  0.0727
   11MOL0     H 1467   0.948   9.782   3.107  0.8889  0.2532 -1.9751
   11MOL0     H 1468   0.713   9.778   3.069 -0.8787  0.9178 -1.8719
   11MOL0     H 1469   1.695   9.210   2.909  0.8819  2.3509 -2.6768
   11MOL0     H 1470   1.924   9.249   2.833  1.4341 -1.1278 -1.6480
   11MOL0     H 1471   2.276   9.008   2.536  0.4893  0.3865 -0.2622
   11MOL0     H 1472   2.491   9.036   2.440 -2.5197  1.0814 -0.5639
   11MOL0     H 1473   2.831   9.080   2.718  3.4027  0.9700 -0.2084
   11MOL0     H 1474   2.809   9.245   2.670  1.0267 -0.4654  1.2307
   11MOL0     H 1475   2.950   9.202   2.485  2.7338 -1.7349 -0.9612
   11MOL0     H 1476   2.922   9.037   2.485 -3.8929  2.7222 -3.1712
   11MOL0     H 1477   3.039   9.037   2.716  1.0820 -1.5149 -2.8040
   11MOL0     H 1478   3.073   9.209   2.693  1.2561 -0.2841  0.8326
   11MOL0     H 1479   3.275   9.076   2.651  0.2109  0.9934  0.2505
   11MOL0     H 1480   3.186   8.983   2.532  0.7310  0.8581 -1.7331
   11MOL0     H 1481   3.278   9.330   2.321  0.7846  1.4883  1.7390
   11MOL0     H 1482   2.648   9.174   2.815  0.6933 -2.1613  1.6519
   11MOL0     H 1483   2.492   9.278   2.973 -1.1681  1.2241  1.9812
   11MOL0     H 1484   2.328   9.223   2.985 -0.8223  0.5398 -2.3909
   11MOL0     H 1485   2.472   9.114   3.019 -0.9146 -2.3136 -2.2998
   12MOL0     O 1486   8.128   6.257   2.674  0.4648  0.2628 -0.3488
   12MOL0     C 1487   8.061   6.183   2.744  0.2309 -0.6108  0.2662
   12MOL0     O 1488   8.067   6.044   2.738 -0.1456 -0.3501  0.6580
   12MOL0     C 1489   8.167   5.974   2.673 -0.1136  0.3858  1.2075
   12MOL0     C 1490   8.256   6.021   2.570 -0.1585  0.2737  0.4099
   12MOL0     C 1491   8.362   5.938   2.525  0.8857  0.3644  0.6111
   12MOL0     C 1492   8.366   5.800   2.563 -0.4396 -0.7626  0.4970
   12MOL0     O 1493   8.465   5.708   2.529  0.2507  0.5760  1.0717
   12MOL0     C 1494   8.558   5.743   2.427 -0.4065  0.9264  0.1177
   12MOL0     C 1495   8.635   5.617   2.390 -0.9222 -0.2565  0.7085
   12MOL0     C 1496   8.737   5.642   2.278 -0.2209 -0.3010 -0.4493
   12MOL0     C 1497   8.817   5.514   2.246 -0.0145  0.7190  0.4836
   12MOL0     C 1498   8.922   5.550   2.145 -0.5812 -0.0570  0.8596
   12MOL0     C 1499   9.014   5.428   2.099 -0.1443 -0.4778  0.2000
   12MOL0     C 1500   9.114   5.488   1.990 -0.9646 -0.0877 -0.5938
   12MOL0     C 1501   9.051   5.455   1.847 -0.4608 -0.3863  0.1821
   12MOL0     N 1502   8.914   5.502   1.820  0.2486 -0.3762  0.4439
   12MOL0     C 1503   8.790   5.438   1.816  0.2929  0.0166 -0.8100
   12MOL0     C 1504   8.703   5.528   1.779 -0.2981  0.5569  0.3966
   12MOL0     C 1505   8.551   5.506   1.750  0.5036 -0.2706  0.1544
   12MOL0     C 1506   8.466   5.529   1.880  0.3900  0.9741  0.6641
   12MOL0     C 1507   8.494   5.667   1.939  0.0898  0.7389 -0.7869
   12MOL0     C 1508   8.393   5.689   2.060 -1.5038 -0.5775  0.4358
   12MOL0     O 1509   8.265   5.728   2.014  0.5723  0.2206 -0.4667
   12MOL0     C 1510   8.163   5.744   2.108  1.1230 -0.4771  0.0714
   12MOL0     C 1511   8.187   5.723   2.247 -0.0370 -0.9476 -0.3765
   12MOL0     C 1512   8.084   5.748   2.339 -0.1980  0.4950 -0.4885
   12MOL0     C 1513   7.961   5.797   2.302 -0.2276  0.0073 -0.1684
   12MOL0     C 1514   7.862   5.833   2.404  0.0956  0.1026 -0.3661
   12MOL0     O 1515   7.884   5.806   2.538  0.6171  0.4614 -0.0832
   12MOL0     C 1516   7.782   5.835   2.623  0.2388 -0.7291  0.9193
   12MOL0     C 1517   7.707   5.743   2.690 -0.0087 -0.8619  0.9300
   12MOL0     C 1518   7.611   5.779   2.785  0.9513  0.1045  0.5474
   12MOL0     C 1519   7.590   5.906   2.820  0.1418  0.0496  0.0928
   12MOL0     O 1520   7.499   5.949   2.920 -0.2089 -0.1142  0.1100
   12MOL0     C 1521   7.374   5.875   2.928  0.3839 -0.5485  0.2674
   12MOL0     C 1522   7.273   5.971   2.981 -0.8149 -0.0554 -0.3396
   12MOL0     C 1523   7.140   5.966   2.905  0.5437  0.0258 -0.4267
   12MOL0     C 1524   7.034   6.061   2.958  0.8595 -0.4493  0.8499
   12MOL0     C 1525   6.922   6.090   2.856  0.2094  0.7259  0.8655
   12MOL0     C 1526   6.800   6.166   2.921 -0.2728 -0.1603  0.2415
   12MOL0     C 1527   6.828   6.298   2.975  0.0507 -0.1872 -0.3352
   12MOL0     C 1528   6.692   6.349   3.017 -1.0236 -0.6833 -0.6542
   12MOL0    Cl 1529   6.569   6.366   2.890  0.4796  0.1362 -0.7163
   12MOL0     C 1530   7.654   6.012   2.747 -0.1198 -0.2237 -1.5556
   12MOL0     C 1531   7.750   5.976   2.652  0.6531 -0.0615  0.9638
   12MOL0     O 1532   7.756   5.868   2.347  0.3692  0.0447 -0.5462
   12MOL0     C 1533   7.947   5.828   2.158 -0.2613 -0.1930  0.5459
   12MOL0     C 1534   8.044   5.797   2.063 -0.0135 -0.5573  0.1038
   12MOL0     N 1535   8.771   5.648   1.762  0.0160 -0.0960  0.0008
   12MOL0     N 1536   8.901   5.630   1.786 -0.4951 -0.2297 -0.1215
   12MOL0     C 1537   8.261   5.748   2.631 -0.1725  0.6536 -1.1659
   12MOL0     C 1538   8.172   5.837   2.697 -0.1630  0.7149  0.6821
   12MOL0     C 1539   7.955   6.247   2.828 -0.1464 -0.0621 -0.0808
   12MOL0     C 1540   7.927   6.380   2.801 -0.5047 -0.4797 -0.3774
   12MOL0     C 1541   7.851   6.464   2.873  1.1200 -0.2593  0.0046
   12MOL0     C 1542   7.768   6.414   2.973  0.3826  0.2619  0.2221
   12MOL0     O 1543   7.674   6.499   3.033  0.5676 -0.9632 -0.0101
   12MOL0     C 1544   7.550   6.506   2.962 -1.0431 -0.5689 -0.2119
   12MOL0     C 1545   7.445   6.443   3.048  0.6764  0.4812  0.8619
   12MOL0     C 1546   7.413   6.500   3.183  0.8127  1.4061 -0.6116
   12MOL0     C 1547   7.274   6.453   3.223  1.0156 -0.4759  0.4985
   12MOL0     C 1548   7.155   6.505   3.144  0.6196 -0.4690  0.1579
   12MOL0     C 1549   7.064   6.543   3.074  0.4188  0.0458 -0.5185
   12MOL0     C 1550   7.787   6.276   3.003  0.9665 -0.3353 -0.6885
   12MOL0     C 1551   7.879   6.195   2.935 -0.8393  0.9384  0.5774
   12MOL0     C 1552   7.911   6.057   2.984  0.0909 -0.4220 -0.0170
   12MOL0     H 1553   8.254   6.122   2.533  1.3008  0.2332  0.1646
   12MOL0     H 1554   8.434   5.973   2.452 -0.0262 -0.0397 -0.5240
   12MOL0     H 1555   8.501   5.786   2.344 -0.9041  1.5244  0.7513
   12MOL0     H 1556   8.622   5.824   2.462 -1.1409  0.8156  1.8501
   12MOL0     H 1557   8.557   5.546   2.361 -1.5033  0.8695 -0.5876
   12MOL0     H 1558   8.682   5.581   2.483 -2.7871  3.0412  3.1265
   12MOL0     H 1559   8.806   5.712   2.326 -5.5525  3.6098  2.7014
   12MOL0     H 1560   8.680   5.694   2.201 -0.5975  2.6314  1.6388
   12MOL0     H 1561   8.862   5.471   2.336  1.6160  0.0938 -0.5783
   12MOL0     H 1562   8.752   5.440   2.199 -0.7750  0.2401  2.2142
   12MOL0     H 1563   8.868   5.600   2.064 -0.6030 -2.9950 -1.1053
   12MOL0     H 1564   8.994   5.622   2.184  2.5791 -1.7475 -1.3418
   12MOL0     H 1565   9.073   5.386   2.180  2.3112  0.5979 -0.9311
   12MOL0     H 1566   8.963   5.338   2.063 -1.8833  0.8208 -0.7501
   12MOL0     H 1567   9.211   5.438   1.992 -0.6882  0.4402 -0.2079
   12MOL0     H 1568   9.127   5.594   2.018 -2.3606 -0.2557  0.8185
   12MOL0     H 1569   9.106   5.497   1.763 -2.5012  0.0839 -0.9882
   12MOL0     H 1570   9.060   5.346   1.842 -1.0493 -0.5346  1.8361
   12MOL0     H 1571   8.759   5.337   1.840 -1.2715  0.8121  0.7466
   12MOL0     H 1572   8.514   5.572   1.671 -0.7781 -0.2875  0.7216
   12MOL0     H 1573   8.530   5.409   1.704 -1.8954  0.0027  0.5337
   12MOL0     H 1574   8.361   5.515   1.853  1.1377  0.2023 -2.2916
   12MOL0     H 1575   8.490   5.453   1.954 -1.1924 -0.1692  0.0352
   12MOL0     H 1576   8.486   5.740   1.858 -1.1178 -0.8638 -2.1952
   12MOL0     H 1577   8.591   5.676   1.989 -0.1898 -1.7677  0.4024
   12MOL0     H 1578   8.445   5.764   2.121 -0.6770 -0.1989 -0.7019
   12MOL0     H 1579   8.388   5.603   2.127 -3.3297 -1.3572 -0.6361
   12MOL0     H 1580   8.280   5.680   2.283 -0.0957 -0.0960  0.8527
   12MOL0     H 1581   8.103   5.726   2.443  2.9342  2.2840 -0.5334
   12MOL0     H 1582   7.718   5.635   2.679  0.6173 -0.7411  0.3196
   12MOL0     H 1583   7.560   5.697   2.835 -1.2112  1.3879  0.5857
   12MOL0     H 1584   7.346   5.825   2.835  1.8143 -0.7922 -0.0570
   12MOL0     H 1585   7.392   5.800   3.005 -0.4852 -0.6594  0.3696
   12MOL0     H 1586   7.255   5.961   3.088 -0.7307  0.9857 -0.2219
   12MOL0     H 1587   7.314   6.072   2.979 -1.0767  0.0958  1.0881
   12MOL0     H 1588   7.142   5.975   2.796 -0.4516  2.3627 -0.2964
   12MOL0     H 1589   7.123   5.858   2.914 -2.2652  0.4643  0.1753
   12MOL0     H 1590   7.085   6.157   2.966  1.2703  0.2979 -5.6128
   12MOL0     H 1591   6.998   6.030   3.056 -0.6441 -0.0993  0.4328
   12MOL0     H 1592   6.887   5.998   2.807  1.1396  2.3956 -3.3515
   12MOL0     H 1593   6.977   6.157   2.790  0.2755  0.0576  0.2348
   12MOL0     H 1594   6.729   6.186   2.840  0.8157  0.2483 -0.6277
   12MOL0     H 1595   6.749   6.094   2.987  0.1433 -2.6531 -1.9710
   12MOL0     H 1596   6.876   6.365   2.902  1.7940 -0.9384  0.0630
   12MOL0     H 1597   6.889   6.290   3.065 -0.4034  0.2104  0.0096
   12MOL0     H 1598   6.650   6.291   3.099  0.0727  0.5709  0.8711
   12MOL0     H 1599   6.708   6.447   3.063 -1.7746  0.1218 -2.0447
   12MOL0     H 1600   7.642   6.118   2.765 -0.0608 -0.7915  2.8389
   12MOL0     H 1601   7.801   6.051   2.592 -2.5753  1.0513 -0.6319
   12MOL0     H 1602   7.853   5.864   2.115 -1.0817 -2.7210  0.0676
   12MOL0     H 1603   8.020   5.817   1.959 -0.5052  0.0875  0.3306
   12MOL0     H 1604   8.268   5.645   2.666 -2.5154  1.6869  3.1439
   12MOL0     H 1605   8.099   5.788   2.760  1.9276 -2.5888  0.7819
   12MOL0     H 1606   7.976   6.423   2.715  0.5801 -1.1461 -0.1086
   12MOL0     H 1607   7.846   6.569   2.850 -1.2198 -0.2701  0.1860
   12MOL0     H 1608   7.561   6.470   2.859  0.7752  1.4431 -0.7937
   12MOL0     H 1609   7.517   6.610   2.956 -1.1657 -0.5576  0.5242
   12MOL0     H 1610   7.463   6.336   3.054 -2.8467 -0.4704 -2.0720
   12MOL0     H 1611   7.350   6.449   2.994  0.7323 -2.1423  0.3731
   12MOL0     H 1612   7.417   6.609   3.180  3.1980  1.3455 -1.6655
   12MOL0     H 1613   7.484   6.454   3.252 -1.5824 -2.7636 -0.5891
   12MOL0     H 1614   7.282   6.345   3.234  0.0974 -1.8576 -6.7569
   12MOL0     H 1615   7.260   6.497   3.322 -0.4262 -3.8198  1.9065
   12MOL0     H 1616   6.984   6.586   3.017  0.1681 -1.8317 -1.6696
   12MOL0     H 1617   7.731   6.220   3.078  0.0977  0.4102 -0.7728
   12MOL0     H 1618   8.020   6.049   2.987  0.1774  0.7439  0.4588
   12MOL0     H 1619   7.876   6.037   3.085 -1.0888 -1.8469 -0.6763
   12MOL0     H 1620   7.880   5.978   2.916  2.0302 -0.9586 -0.3345
   13MOL0     O 1621   2.269   9.849   4.062  0.1947  0.0910 -0.7776
   13MOL0     C 1622   2.294   9.968   4.068  0.6805  0.1221  0.6528
   13MOL0     O 1623   2.197  10.065   4.110 -0.5931 -0.1089  0.0150
   13MOL0     C 1624   2.070  10.034   4.136  0.1971 -0.0995  0.3376
   13MOL0     C 1625   2.036   9.918   4.213 -0.3739 -0.3155 -0.3787
   13MOL0     C 1626   1.909   9.884   4.233  0.0776  1.3468  0.4529
   13MOL0     C 1627   1.808   9.960   4.180 -0.6914  0.2028  0.7449
   13MOL0     O 1628   1.685   9.913   4.200  0.0187 -0.7805 -0.0415
   13MOL0     C 1629   1.566   9.956   4.133 -0.5323  0.0811  0.2002
   13MOL0     C 1630   1.443   9.872   4.151 -1.0680 -0.2447  0.9326
   13MOL0     C 1631   1.318   9.963   4.136  0.6518  0.2536  0.3494
   13MOL0     C 1632   1.307  10.051   4.003  0.5154 -0.0247  0.4000
   13MOL0     C 1633   1.182  10.133   3.982 -0.4524 -0.5116 -0.4998
   13MOL0     C 1634   1.069  10.052   3.916  0.1672  0.5577  0.4979
   13MOL0     C 1635   0.949  10.138   3.884 -1.3237 -0.4897 -0.1485
   13MOL0     C 1636   0.848  10.048   3.813  0.4623  0.4220 -0.2849
   13MOL0     N 1637   0.728  10.127   3.812 -0.4095 -0.2668  0.2022
   13MOL0     C 1638   0.690  10.217   3.721 -0.0909  0.8541  0.1420
   13MOL0     C 1639   0.562  10.243   3.745 -0.0766 -0.5620  0.4363
   13MOL0     C 1640   0.476  10.348   3.668  0.8480  0.2082  1.1582
   13MOL0     C 1641   0.351  10.289   3.603 -0.1795 -0.5907 -0.4052
   13MOL0     C 1642   0.231  10.270   3.707 -0.6454 -0.0484  0.0133
   13MOL0     C 1643   0.166  10.398   3.754  0.2783  0.6231 -0.3681
   13MOL0     O 1644   0.094  10.403   3.880 -0.7119  1.3085 -0.2409
   13MOL0     C 1645  -0.029  10.343   3.875  0.3477  0.6533  0.1297
   13MOL0     C 1646  -0.100  10.309   3.766  0.1586  0.6093  0.7173
   13MOL0     C 1647  -0.234  10.270   3.781  0.0976 -0.5075 -0.2323
   13MOL0     C 1648  -0.287  10.245   3.909 -0.7836 -0.4467  0.0722
   13MOL0     C 1649  -0.424  10.186   3.924 -0.1928 -0.6060 -0.5250
   13MOL0     O 1650  -0.464  10.114   4.031 -0.2644  0.3343 -0.3061
   13MOL0     C 1651  -0.574  10.032   4.009 -0.0993  0.7065 -0.2413
   13MOL0     C 1652  -0.581   9.947   3.896  0.5317 -0.2496  1.0556
   13MOL0     C 1653  -0.684   9.857   3.872  0.2980 -0.4261  0.2083
   13MOL0     C 1654  -0.780   9.852   3.972  0.2367  0.4151 -0.4439
   13MOL0     O 1655  -0.879   9.756   3.978 -0.2140 -0.8262  0.5695
   13MOL0     C 1656  -1.011   9.809   3.978 -0.2048  0.3803  0.0717
   13MOL0     C 1657  -1.107   9.682   3.983  0.1431  0.5275  0.5459
   13MOL0     C 1658  -1.254   9.733   3.984 -0.8424  1.4073 -0.0193
   13MOL0     C 1659  -1.349   9.614   4.020 -0.2341  0.4894  0.2294
   13MOL0     C 1660  -1.498   9.657   4.047 -0.4454  0.8369  0.4063
   13MOL0     C 1661  -1.589   9.543   4.101 -0.4507 -0.5319  0.4878
   13MOL0     C 1662  -1.615   9.426   4.006 -0.0405 -0.2717  0.5166
   13MOL0     C 1663  -1.710   9.323   4.056  0.2346  0.2569  0.8454
   13MOL0    Cl 1664  -1.879   9.385   4.086  0.5343  0.3063 -0.3170
   13MOL0     C 1665  -0.774   9.931   4.092  0.0520 -0.4006 -0.0174
   13MOL0     C 1666  -0.668  10.021   4.114 -0.4698 -0.2933  0.5815
   13MOL0     O 1667  -0.491  10.223   3.832  0.1571  0.1537  0.6492
   13MOL0     C 1668  -0.208  10.273   4.022  0.2121 -0.6560  0.2670
   13MOL0     C 1669  -0.082  10.332   3.998  0.1320  0.1310 -0.3800
   13MOL0     N 1670   0.527  10.175   3.860  0.1035 -0.6045  0.6653
   13MOL0     N 1671   0.625  10.103   3.895  0.1763 -0.2942  0.3710
   13MOL0     C 1672   1.838  10.074   4.101  0.3891 -0.7876 -0.1115
   13MOL0     C 1673   1.966  10.115   4.080  0.1805  0.2689 -0.3286
   13MOL0     C 1674   2.417  10.027   4.026 -0.4967 -0.3130 -0.2955
   13MOL0     C 1675   2.435  10.168   4.045  1.0510  0.4407  0.0128
   13MOL0     C 1676   2.552  10.237   4.036 -0.8507  0.4463 -0.5512
   13MOL0     C 1677   2.666  10.165   3.985  0.3199 -0.5910 -0.0390
   13MOL0     O 1678   2.781  10.244   3.979  0.5383 -0.4363 -0.4255
   13MOL0     C 1679   2.900  10.169   3.991 -0.5711  0.0325 -0.8376
   13MOL0     C 1680   3.014  10.245   4.070 -0.2755  0.3217  0.6796
   13MOL0     C 1681   2.994  10.272   4.212 -0.3370 -0.2132  0.6035
   13MOL0     C 1682   2.984  10.146   4.299 -0.9361  0.2747  0.7649
   13MOL0     C 1683   3.119  10.086   4.316 -0.0310  0.4611  0.2763
   13MOL0     C 1684   3.235  10.044   4.326 -0.1731  0.2403 -0.3417
   13MOL0     C 1685   2.658  10.029   3.947 -0.6152 -0.0404 -0.0492
   13MOL0     C 1686   2.534   9.960   3.967  1.0749 -0.4000  0.4472
   13MOL0     C 1687   2.530   9.822   3.921  0.7626 -0.1301  0.1767
   13MOL0     H 1688   2.111   9.858   4.263  1.7440  0.2803 -2.6275
   13MOL0     H 1689   1.891   9.791   4.285  1.7499 -0.0464 -1.2972
   13MOL0     H 1690   1.542  10.060   4.153 -3.7234 -0.5247  0.0602
   13MOL0     H 1691   1.582   9.951   4.025  0.4420  0.3146  0.3249
   13MOL0     H 1692   1.435   9.832   4.253 -5.1578 -0.5634  0.6399
   13MOL0     H 1693   1.443   9.786   4.083 -1.0667  2.3437 -2.5775
   13MOL0     H 1694   1.312  10.033   4.220  0.3010  1.9378 -1.0313
   13MOL0     H 1695   1.235   9.892   4.140 -0.5646  1.3294 -2.7740
   13MOL0     H 1696   1.380  10.131   4.007  0.5448  0.1557 -2.2021
   13MOL0     H 1697   1.331   9.995   3.912 -0.4271  0.1219  0.0471
   13MOL0     H 1698   1.150  10.168   4.080 -0.8861 -4.0773  0.7687
   13MOL0     H 1699   1.224  10.220   3.930  1.1053 -1.6293 -1.1920
   13MOL0     H 1700   1.109  10.006   3.825  4.7419  2.2963  1.3868
   13MOL0     H 1701   1.051   9.967   3.983  2.1255  0.3561  0.8180
   13MOL0     H 1702   0.966  10.219   3.812  0.1370 -4.0510 -4.2101
   13MOL0     H 1703   0.900  10.178   3.974 -0.9563  1.7294 -0.8698
   13MOL0     H 1704   0.877  10.021   3.711  0.9199 -0.9133  0.1765
   13MOL0     H 1705   0.838   9.960   3.877 -2.0898  0.2838 -0.7705
   13MOL0     H 1706   0.748  10.256   3.637  0.9869 -0.2023  0.3602
   13MOL0     H 1707   0.460  10.428   3.741  1.9665  2.3611 -0.8509
   13MOL0     H 1708   0.529  10.396   3.586 -0.0917 -0.0249  0.4046
   13MOL0     H 1709   0.310  10.354   3.525 -0.8800  0.1802  0.5712
   13MOL0     H 1710   0.349  10.196   3.546 -5.1199  1.1759 -3.8303
   13MOL0     H 1711   0.271  10.218   3.794  1.2951 -1.4110 -1.5926
   13MOL0     H 1712   0.154  10.208   3.659  1.4019  0.1431 -3.9381
   13MOL0     H 1713   0.108  10.429   3.667  3.3916  1.0436 -2.4801
   13MOL0     H 1714   0.252  10.465   3.756 -1.1808  2.5503  0.8777
   13MOL0     H 1715  -0.073  10.329   3.663  0.7180 -1.1808  0.4817
   13MOL0     H 1716  -0.296  10.251   3.694  1.4734 -3.3541 -0.7346
   13MOL0     H 1717  -0.506   9.962   3.819 -0.0981 -0.4907  0.3855
   13MOL0     H 1718  -0.670   9.797   3.783  1.7104  0.2490 -0.0443
   13MOL0     H 1719  -1.029   9.877   4.062  4.5285  0.5476  1.2208
   13MOL0     H 1720  -1.021   9.865   3.885 -1.4831 -0.2729 -0.2042
   13MOL0     H 1721  -1.097   9.619   3.894 -1.1178  2.7128 -1.2395
   13MOL0     H 1722  -1.079   9.627   4.074  0.9904  0.0746  0.0222
   13MOL0     H 1723  -1.261   9.815   4.056  0.7857  0.7842  0.8923
   13MOL0     H 1724  -1.274   9.770   3.883  2.3107 -0.2603 -1.3970
   13MOL0     H 1725  -1.307   9.546   4.095 -1.5730 -4.4998 -3.0196
   13MOL0     H 1726  -1.355   9.556   3.927  1.8388  0.5082  0.0406
   13MOL0     H 1727  -1.541   9.695   3.954 -0.2250 -2.1542 -1.0178
   13MOL0     H 1728  -1.495   9.748   4.108  2.2232  3.3277 -3.0281
   13MOL0     H 1729  -1.537   9.503   4.189  1.7511  1.5980  0.2526
   13MOL0     H 1730  -1.687   9.586   4.126  0.0084  0.7165  0.2213
   13MOL0     H 1731  -1.516   9.382   3.988  1.7720  4.1299 -1.7154
   13MOL0     H 1732  -1.668   9.467   3.920 -0.1727  1.6898  1.4838
   13MOL0     H 1733  -1.725   9.240   3.986  1.9987 -0.9289  1.7983
   13MOL0     H 1734  -1.665   9.274   4.143  0.1784  0.9939  1.2928
   13MOL0     H 1735  -0.842   9.936   4.176  0.6129 -0.5556  0.4546
   13MOL0     H 1736  -0.661  10.076   4.207 -0.1380 -0.7829  0.8467
   13MOL0     H 1737  -0.251  10.271   4.122 -1.9234  2.1064 -0.4844
   13MOL0     H 1738  -0.021  10.356   4.085  2.6313 -1.3376 -1.6200
   13MOL0     H 1739   1.774  10.149   4.057  1.3955 -0.2973 -0.7679
   13MOL0     H 1740   1.992  10.206   4.028  0.1743  0.5124  0.0933
   13MOL0     H 1741   2.358  10.234   4.085 -0.4728  0.6032 -2.9472
   13MOL0     H 1742   2.549  10.342   4.062  0.5172  0.6147 -1.0228
   13MOL0     H 1743   2.943  10.156   3.891 -0.4131  3.8212 -1.4102
   13MOL0     H 1744   2.884  10.081   4.054  1.2901  0.6314  0.5731
   13MOL0     H 1745   3.031  10.337   4.013 -1.2438  0.6028  0.8332
   13MOL0     H 1746   3.098  10.176   4.057 -2.4075 -2.3252 -0.0793
   13MOL0     H 1747   2.911  10.341   4.231  0.7541  0.4970  3.3426
   13MOL0     H 1748   3.083  10.324   4.248 -0.6393  1.0047 -0.3588
   13MOL0     H 1749   2.940  10.165   4.397 -2.6224 -3.4602  0.8936
   13MOL0     H 1750   2.912  10.080   4.249  0.3583 -0.4693 -0.2028
   13MOL0     H 1751   3.335  10.007   4.324 -0.3108 -0.6285  2.9378
   13MOL0     H 1752   2.749   9.978   3.916  0.4798  1.2773  0.9162
   13MOL0     H 1753   2.562   9.752   3.998 -0.4035 -1.8238 -0.8152
   13MOL0     H 1754   2.429   9.793   3.890  0.1137  1.4468  0.7288
   13MOL0     H 1755   2.590   9.807   3.831  0.7749 -3.0891  0.5904
   14MOL0     O 1756   7.962   7.808   3.034 -0.3075  0.4580 -0.2760
   14MOL0     C 1757   7.874   7.837   2.953  0.4329 -0.4047  0.5380
   14MOL0     O 1758   7.898   7.915   2.838 -0.0010  0.3647  0.4625
   14MOL0     C 1759   8.026   7.927   2.810 -1.0919 -0.2338 -0.0678
   14MOL0     C 1760   8.083   7.859   2.698 -0.0399  0.1069 -0.6387
   14MOL0     C 1761   8.215   7.884   2.654 -0.4411  1.3282 -0.9067
   14MOL0     C 1762   8.292   7.976   2.725 -0.4063 -0.0915  0.2155
   14MOL0     O 1763   8.427   7.990   2.680  0.9396  0.0351  0.5531
   14MOL0     C 1764   8.512   8.079   2.747 -1.2103 -0.4121 -0.5174
   14MOL0     C 1765   8.654   8.061   2.704 -0.4538 -0.1883 -0.2881
   14MOL0     C 1766   8.726   7.950   2.783  0.5795 -0.3019  0.4003
   14MOL0     C 1767   8.822   7.881   2.697  0.1030 -0.1216  0.0897
   14MOL0     C 1768   8.901   7.778   2.775 -0.2599  0.9830  0.5237
   14MOL0     C 1769   8.987   7.690   2.695 -0.2301  0.0657 -0.2752
   14MOL0     C 1770   9.025   7.558   2.764  0.6787  0.0051 -0.2423
   14MOL0     C 1771   9.123   7.467   2.679  0.6453  0.3102 -0.0049
   14MOL0     N 1772   9.055   7.404   2.568 -0.2749  0.3817  1.1023
   14MOL0     C 1773   8.980   7.289   2.569  0.8018 -0.6499 -0.3805
   14MOL0     C 1774   8.974   7.249   2.445  0.3784 -0.0115  0.3717
   14MOL0     C 1775   8.891   7.132   2.399 -0.6550 -0.8382 -0.1233
   14MOL0     C 1776   8.964   6.992   2.406  1.0216 -0.0139  0.5918
   14MOL0     C 1777   9.085   7.000   2.315  1.1455  0.3114 -0.0132
   14MOL0     C 1778   9.142   6.872   2.250  0.1423 -0.3211  0.5429
   14MOL0     O 1779   9.188   6.794   2.358 -0.5978  0.2119  0.3265
   14MOL0     C 1780   9.318   6.816   2.402  0.4830  0.0342 -0.2359
   14MOL0     C 1781   9.427   6.876   2.343  0.4167 -0.1799 -1.1582
   14MOL0     C 1782   9.559   6.863   2.398  0.1967  0.4530 -0.2301
   14MOL0     C 1783   9.589   6.804   2.520 -0.7366 -0.7118 -0.7791
   14MOL0     C 1784   9.727   6.796   2.579  0.9166 -0.2051 -0.8295
   14MOL0     O 1785   9.818   6.790   2.487  0.6738 -0.1418 -0.4693
   14MOL0     C 1786   9.950   6.772   2.535 -0.2624 -0.0748  1.1455
   14MOL0     C 1787  10.024   6.881   2.560  0.2724  0.0331  0.2842
   14MOL0     C 1788  10.160   6.869   2.601 -0.2353  0.6135 -0.2480
   14MOL0     C 1789  10.223   6.743   2.603  0.0321 -0.2222  0.4773
   14MOL0     O 1790  10.345   6.721   2.657 -0.2183 -0.1607  0.1119
   14MOL0     C 1791  10.458   6.817   2.628 -0.0602  0.3418  0.3739
   14MOL0     C 1792  10.578   6.773   2.712  0.1454  0.6696  0.4155
   14MOL0     C 1793  10.703   6.774   2.625 -1.1195 -0.5284 -1.0335
   14MOL0     C 1794  10.820   6.718   2.698  0.0768 -0.9256 -0.3262
   14MOL0     C 1795  10.952   6.713   2.618 -0.4082  0.5133  0.9883
   14MOL0     C 1796  10.947   6.622   2.493  0.0571  0.0458  0.4326
   14MOL0     C 1797  10.944   6.697   2.367  0.0749 -0.1467 -0.3494
   14MOL0     C 1798  10.908   6.621   2.239 -0.8080  1.1472  0.0072
   14MOL0    Cl 1799  11.007   6.467   2.226 -0.4062  0.2056 -0.2574
   14MOL0     C 1800  10.142   6.632   2.578 -0.8002  0.3806  0.3796
   14MOL0     C 1801  10.007   6.648   2.545  0.1941  1.3566 -0.9478
   14MOL0     O 1802   9.748   6.777   2.698 -0.1311  0.2806  0.3693
   14MOL0     C 1803   9.477   6.752   2.588 -0.3760  0.0757  0.0469
   14MOL0     C 1804   9.347   6.747   2.524 -0.3060  0.2968 -0.1860
   14MOL0     N 1805   9.028   7.351   2.360 -0.0888 -0.4594  0.7465
   14MOL0     N 1806   9.059   7.448   2.434 -0.9187  0.5639 -0.3486
   14MOL0     C 1807   8.228   8.055   2.821 -0.5125 -0.3836 -0.2994
   14MOL0     C 1808   8.105   8.021   2.868  1.0824 -1.0815  0.1987
   14MOL0     C 1809   7.728   7.799   2.997 -0.2952  0.6217  0.3823
   14MOL0     C 1810   7.724   7.719   3.121  0.4966 -0.4952 -0.1636
   14MOL0     C 1811   7.597   7.676   3.164  0.2540  0.6379 -0.7607
   14MOL0     C 1812   7.484   7.687   3.087  0.4173 -0.5146 -0.5544
   14MOL0     O 1813   7.372   7.623   3.133  0.0943  0.3307 -0.2113
   14MOL0     C 1814   7.242   7.674   3.101  0.0586 -0.2886  0.4239
   14MOL0     C 1815   7.137   7.601   3.179  0.4143 -0.4003 -0.2776
   14MOL0     C 1816   7.133   7.458   3.153 -0.1283 -0.2122 -0.1467
   14MOL0     C 1817   6.990   7.398   3.156  0.4305  0.7120 -0.0213
   14MOL0     C 1818   6.913   7.414   3.282 -0.0752  0.0850 -0.3352
   14MOL0     C 1819   6.845   7.434   3.382 -0.4258  0.4905  0.3662
   14MOL0     C 1820   7.488   7.758   2.962 -0.9715  0.1609  0.6300
   14MOL0     C 1821   7.612   7.814   2.912 -0.7968  1.1104  0.2070
   14MOL0     C 1822   7.617   7.882   2.774  0.7079 -0.4858  0.6577
   14MOL0     H 1823   8.019   7.784   2.652 -0.3232 -0.5071  0.7068
   14MOL0     H 1824   8.257   7.825   2.574 -0.9799 -0.1773 -0.1184
   14MOL0     H 1825   8.481   8.183   2.733  1.7273  0.7079  0.5372
   14MOL0     H 1826   8.517   8.060   2.855 -1.0544 -0.0991 -0.4682
   14MOL0     H 1827   8.714   8.150   2.722  0.5561 -1.1688  1.5534
   14MOL0     H 1828   8.642   8.047   2.596 -1.2708  0.4474 -0.2842
   14MOL0     H 1829   8.648   7.881   2.818  2.8451 -2.3681  1.7089
   14MOL0     H 1830   8.769   7.984   2.878 -1.6042  0.0477  1.3421
   14MOL0     H 1831   8.763   7.827   2.621 -3.0492  1.1922  1.4087
   14MOL0     H 1832   8.881   7.956   2.645 -0.6893 -1.1918 -2.5561
   14MOL0     H 1833   8.956   7.844   2.842  1.6925  3.7951 -3.4361
   14MOL0     H 1834   8.834   7.713   2.832 -2.5195  0.3557 -2.5642
   14MOL0     H 1835   8.934   7.661   2.604  0.3568 -2.8323  0.2154
   14MOL0     H 1836   9.070   7.753   2.660  1.1096 -2.1669 -1.3108
   14MOL0     H 1837   8.938   7.498   2.792  1.9037 -3.3439 -2.9848
   14MOL0     H 1838   9.082   7.584   2.854  0.7579  3.1546 -1.0751
   14MOL0     H 1839   9.191   7.537   2.630 -1.4694  2.4490 -0.1115
   14MOL0     H 1840   9.172   7.382   2.727  0.7972 -0.6998 -1.8874
   14MOL0     H 1841   8.935   7.230   2.648 -1.7343  1.3991 -0.1402
   14MOL0     H 1842   8.799   7.120   2.456 -0.0126 -2.4789  0.6310
   14MOL0     H 1843   8.857   7.156   2.298 -1.1835  1.8829  0.6071
   14MOL0     H 1844   8.991   6.961   2.507  0.1342 -2.1259  0.2239
   14MOL0     H 1845   8.895   6.923   2.357  0.6051  1.2878 -0.7624
   14MOL0     H 1846   9.164   7.044   2.377  2.0942 -0.7667 -0.4169
   14MOL0     H 1847   9.052   7.064   2.233  0.0583 -0.0824  0.1099
   14MOL0     H 1848   9.222   6.888   2.178 -1.0944  2.8711 -0.2856
   14MOL0     H 1849   9.059   6.822   2.199  1.2102 -1.1077 -0.4818
   14MOL0     H 1850   9.417   6.939   2.255  2.6348  0.3173 -1.1069
   14MOL0     H 1851   9.639   6.908   2.341  0.7018  0.2696  0.3220
   14MOL0     H 1852   9.981   6.979   2.543 -0.5912 -0.7878 -3.1679
   14MOL0     H 1853  10.227   6.951   2.623  3.1758 -1.9614 -0.1259
   14MOL0     H 1854  10.486   6.804   2.523  0.4295 -0.5310  0.5967
   14MOL0     H 1855  10.434   6.921   2.649 -2.2941  0.2790 -1.4480
   14MOL0     H 1856  10.586   6.841   2.797  0.0689  1.3793 -0.1308
   14MOL0     H 1857  10.556   6.672   2.747 -2.4929 -0.3722 -3.5182
   14MOL0     H 1858  10.684   6.713   2.536 -2.8285 -2.5410  0.6229
   14MOL0     H 1859  10.729   6.878   2.601  1.2723 -0.6363  0.6841
   14MOL0     H 1860  10.773   6.623   2.727 -3.4713  1.2346  1.7190
   14MOL0     H 1861  10.832   6.773   2.791  1.1727  1.2606 -1.6813
   14MOL0     H 1862  11.019   6.667   2.691  0.9212  0.4921 -0.2054
   14MOL0     H 1863  10.985   6.810   2.581  0.8465 -0.2627  0.0108
   14MOL0     H 1864  11.039   6.564   2.483 -1.6018 -2.2943 -3.2927
   14MOL0     H 1865  10.870   6.545   2.505  0.9365 -0.6581  1.9706
   14MOL0     H 1866  11.036   6.756   2.366 -0.4297  0.6989  0.8222
   14MOL0     H 1867  10.862   6.769   2.380 -2.7831 -3.3674  1.1793
   14MOL0     H 1868  10.802   6.597   2.252 -0.6987  0.6864  0.0583
   14MOL0     H 1869  10.919   6.691   2.155 -0.3276  0.1937 -0.7383
   14MOL0     H 1870  10.198   6.539   2.578  1.5431  1.6277  2.9844
   14MOL0     H 1871   9.959   6.554   2.519 -1.1122  1.3724  1.1489
   14MOL0     H 1872   9.475   6.700   2.683 -1.4752 -0.4736 -0.2530
   14MOL0     H 1873   9.277   6.688   2.582 -0.1622 -0.1618 -0.4776
   14MOL0     H 1874   8.271   8.145   2.865 -1.0081  0.5045 -1.5711
   14MOL0     H 1875   8.069   8.068   2.959  1.7500  0.8975 -0.5119
   14MOL0     H 1876   7.811   7.705   3.184  2.5051  0.8573 -2.4957
   14MOL0     H 1877   7.587   7.633   3.263 -1.2008  0.1489 -1.0972
   14MOL0     H 1878   7.224   7.670   2.994 -1.0846  0.4265  0.5718
   14MOL0     H 1879   7.232   7.782   3.111 -0.6212 -0.2469 -0.5749
   14MOL0     H 1880   7.040   7.646   3.157  0.8368  0.1871 -0.9538
   14MOL0     H 1881   7.156   7.617   3.286 -1.7023  0.7570 -0.0263
   14MOL0     H 1882   7.202   7.404   3.219 -0.9409 -4.2610 -2.3239
   14MOL0     H 1883   7.180   7.431   3.058  2.3883  0.7836  0.7164
   14MOL0     H 1884   6.946   7.451   3.071  0.8376  0.8115 -0.1725
   14MOL0     H 1885   6.987   7.292   3.126  0.0109  0.8856 -0.6132
   14MOL0     H 1886   6.787   7.443   3.472 -0.9801 -0.6612  0.1425
   14MOL0     H 1887   7.406   7.755   2.891 -0.4174 -0.7599  0.0094
   14MOL0     H 1888   7.522   7.869   2.721  0.8380 -0.3988  0.3973
   14MOL0     H 1889   7.641   7.988   2.772  0.1351 -0.3553 -0.7434
   14MOL0     H 1890   7.700   7.840   2.716  1.4043  0.2235  1.1260
   15MOL0     O 1891   3.084   1.525   4.313  0.0771  0.3029 -1.0247
   15MOL0     C 1892   3.100   1.590   4.417 -0.4526  0.8742 -0.4882
   15MOL0     O 1893   3.206   1.580   4.495  0.0283 -1.3742 -0.0222
   15MOL0     C 1894   3.320   1.512   4.456  0.2835  1.4453  0.6567
   15MOL0     C 1895   3.387   1.511   4.332  0.8446  0.6166 -0.1767
   15MOL0     C 1896   3.501   1.440   4.304  0.7262 -0.2407 -0.1640
   15MOL0     C 1897   3.554   1.358   4.402  0.1137 -0.3065 -0.7323
   15MOL0     O 1898   3.661   1.277   4.388  0.0308  0.0852 -1.7725
   15MOL0     C 1899   3.765   1.314   4.296  0.2920 -0.2974 -0.3870
   15MOL0     C 1900   3.907   1.293   4.344 -0.1692  0.1565 -0.8511
   15MOL0     C 1901   3.966   1.408   4.439 -0.2143  0.5494  0.9963
   15MOL0     C 1902   4.114   1.390   4.478  0.3712  0.9009 -0.0125
   15MOL0     C 1903   4.167   1.513   4.544 -0.1309  0.0269  0.3385
   15MOL0     C 1904   4.316   1.506   4.586  0.0979  0.2065  0.8192
   15MOL0     C 1905   4.364   1.400   4.684  0.1564 -0.5321  0.6637
   15MOL0     C 1906   4.488   1.437   4.765  0.1395  0.0084  0.3379
   15MOL0     N 1907   4.605   1.450   4.675  0.3272 -0.4704 -0.6735
   15MOL0     C 1908   4.666   1.562   4.621  0.2987 -0.4956  0.2629
   15MOL0     C 1909   4.774   1.513   4.553  0.5253  0.3835  0.1246
   15MOL0     C 1910   4.871   1.608   4.489 -0.3032 -0.6602 -0.8717
   15MOL0     C 1911   4.957   1.692   4.586  0.2732  0.1307  0.3170
   15MOL0     C 1912   5.005   1.602   4.699  0.1149 -0.2830 -0.5324
   15MOL0     C 1913   5.132   1.648   4.756 -0.9088  0.0402 -0.5829
   15MOL0     O 1914   5.247   1.585   4.699  0.1534  0.0605  0.0236
   15MOL0     C 1915   5.371   1.635   4.733  0.2018 -0.3709  0.9804
   15MOL0     C 1916   5.399   1.744   4.815 -0.4592  0.7024 -0.4965
   15MOL0     C 1917   5.533   1.776   4.855 -1.5214 -0.4161  0.1662
   15MOL0     C 1918   5.646   1.707   4.803 -0.0623 -0.3339  0.3264
   15MOL0     C 1919   5.782   1.742   4.838  0.0782 -0.0124  0.5765
   15MOL0     O 1920   5.801   1.857   4.910 -0.7946  0.2331  0.1342
   15MOL0     C 1921   5.921   1.914   4.949 -0.4078 -0.8773  0.6448
   15MOL0     C 1922   5.922   2.045   4.988  0.6949 -0.3311  0.3073
   15MOL0     C 1923   6.038   2.102   5.054 -0.2053 -0.1656 -0.4314
   15MOL0     C 1924   6.145   2.029   5.091 -0.2494  0.4869 -0.1851
   15MOL0     O 1925   6.248   2.101   5.155  1.0302 -0.7203  0.4845
   15MOL0     C 1926   6.379   2.076   5.105 -0.2343 -0.3633 -1.0944
   15MOL0     C 1927   6.479   2.184   5.140  0.7213 -0.7171  0.2217
   15MOL0     C 1928   6.443   2.316   5.069 -0.3301 -0.7959  0.2738
   15MOL0     C 1929   6.484   2.443   5.146  0.1997  0.7702  0.2082
   15MOL0     C 1930   6.633   2.455   5.178 -0.8652 -0.8987  0.6018
   15MOL0     C 1931   6.653   2.572   5.282  0.1576  0.1612  0.2005
   15MOL0     C 1932   6.792   2.625   5.303  0.4795 -0.9431  0.3792
   15MOL0     C 1933   6.783   2.766   5.372 -0.4656  0.2619  0.1190
   15MOL0    Cl 1934   6.679   2.753   5.524  0.0408  0.0901 -0.2511
   15MOL0     C 1935   6.151   1.893   5.047  0.3528 -0.1609  0.5855
   15MOL0     C 1936   6.036   1.837   4.982  0.4139  0.4902 -0.0623
   15MOL0     O 1937   5.872   1.666   4.807  0.2169  0.3549  0.5143
   15MOL0     C 1938   5.616   1.611   4.710  0.3763  0.8498 -1.0482
   15MOL0     C 1939   5.483   1.581   4.674  0.8122 -0.3197  0.1769
   15MOL0     N 1940   4.782   1.372   4.573  0.0618 -0.3552  0.1850
   15MOL0     N 1941   4.677   1.346   4.642  0.0333 -0.7207 -0.0928
   15MOL0     C 1942   3.509   1.375   4.532  0.1683  0.2168 -0.6381
   15MOL0     C 1943   3.388   1.448   4.561  0.0309 -0.3035  0.3352
   15MOL0     C 1944   3.001   1.693   4.464 -0.0931  0.2170  0.7337
   15MOL0     C 1945   3.004   1.733   4.588  0.1593  1.0153 -0.5362
   15MOL0     C 1946   2.913   1.820   4.651 -0.8578 -0.0812 -0.3116
   15MOL0     C 1947   2.806   1.870   4.573 -0.6980 -1.3417  0.3870
   15MOL0     O 1948   2.719   1.960   4.637 -0.8601  1.0968 -0.2696
   15MOL0     C 1949   2.580   1.982   4.595  0.7111 -0.9154 -0.0787
   15MOL0     C 1950   2.494   1.875   4.660  0.3064  0.1280  0.2936
   15MOL0     C 1951   2.347   1.890   4.612  0.1695  0.5443  0.2615
   15MOL0     C 1952   2.260   1.777   4.656 -0.7954  0.3084 -0.4377
   15MOL0     C 1953   2.298   1.658   4.583  1.4393  0.3425  0.8619
   15MOL0     C 1954   2.306   1.565   4.501 -0.4312 -0.3150 -0.8042
   15MOL0     C 1955   2.807   1.838   4.439 -0.4423 -0.5022  0.7606
   15MOL0     C 1956   2.905   1.756   4.385  0.6974 -0.4564  0.2492
   15MOL0     C 1957   2.902   1.737   4.232 -0.0345 -0.4641  0.5324
   15MOL0     H 1958   3.341   1.571   4.253 -2.6946 -1.2503  0.2363
   15MOL0     H 1959   3.539   1.446   4.202 -2.7263  0.5736 -1.5294
   15MOL0     H 1960   3.762   1.266   4.198  1.8878 -2.6874  0.6318
   15MOL0     H 1961   3.750   1.422   4.281  0.4215 -0.3746 -1.1241
   15MOL0     H 1962   3.967   1.289   4.252  0.1202 -1.3201 -0.6228
   15MOL0     H 1963   3.905   1.190   4.381  2.3455  0.7886  1.4129
   15MOL0     H 1964   3.906   1.414   4.531  2.2945  2.1087  2.6678
   15MOL0     H 1965   3.947   1.504   4.390 -2.0896 -0.3057 -0.0431
   15MOL0     H 1966   4.118   1.315   4.557  0.0509  2.1294  1.2117
   15MOL0     H 1967   4.177   1.358   4.395  0.1908 -1.0557  0.5475
   15MOL0     H 1968   4.160   1.596   4.473  2.1401  1.2478  1.4347
   15MOL0     H 1969   4.115   1.543   4.636 -0.1552 -0.0620  0.3534
   15MOL0     H 1970   4.382   1.486   4.501  0.4957 -2.5089  1.6842
   15MOL0     H 1971   4.333   1.603   4.634 -1.6663  1.0674 -0.2349
   15MOL0     H 1972   4.368   1.302   4.636 -4.3522  0.3295 -2.1325
   15MOL0     H 1973   4.282   1.392   4.756 -0.8519  1.1022 -0.2341
   15MOL0     H 1974   4.460   1.529   4.818 -3.2856 -0.0941 -1.0265
   15MOL0     H 1975   4.497   1.363   4.845 -1.5252 -0.3578  0.2342
   15MOL0     H 1976   4.626   1.663   4.629 -0.5352 -0.6673 -1.3480
   15MOL0     H 1977   4.926   1.535   4.429  0.1740 -0.0354 -1.2033
   15MOL0     H 1978   4.834   1.677   4.413  0.3437  1.1823  0.4298
   15MOL0     H 1979   5.041   1.742   4.536  2.0589 -0.7951  2.2330
   15MOL0     H 1980   4.899   1.774   4.630  0.9506  0.8916 -0.1659
   15MOL0     H 1981   5.030   1.504   4.657 -0.5260 -0.3259 -0.8233
   15MOL0     H 1982   4.926   1.585   4.773 -0.7965  1.2782 -1.0896
   15MOL0     H 1983   5.142   1.626   4.863  2.4622  1.0146 -0.5607
   15MOL0     H 1984   5.131   1.757   4.751  1.0174  0.0512 -1.7779
   15MOL0     H 1985   5.324   1.794   4.876 -2.1683 -2.6235  0.3881
   15MOL0     H 1986   5.555   1.844   4.937 -2.1356  2.3189 -1.7780
   15MOL0     H 1987   5.835   2.105   4.963 -0.1047 -1.3549  0.6047
   15MOL0     H 1988   6.029   2.208   5.074  0.3160  0.0122 -1.1195
   15MOL0     H 1989   6.420   1.981   5.140 -4.2908 -2.5518 -1.5918
   15MOL0     H 1990   6.371   2.062   4.996 -1.1150 -0.9997 -0.9567
   15MOL0     H 1991   6.480   2.206   5.247  4.9444  4.5109 -0.4953
   15MOL0     H 1992   6.584   2.156   5.127  1.9690  3.3499  0.2286
   15MOL0     H 1993   6.493   2.314   4.972  0.8829  2.6422  0.6945
   15MOL0     H 1994   6.334   2.322   5.057 -0.3396  1.5831  0.9996
   15MOL0     H 1995   6.416   2.458   5.230 -1.5245 -1.9826 -0.5689
   15MOL0     H 1996   6.459   2.524   5.076 -2.6854 -2.0291 -2.3161
   15MOL0     H 1997   6.692   2.481   5.090 -4.6724  2.7409 -1.2169
   15MOL0     H 1998   6.673   2.359   5.213 -1.4140 -0.5961  2.1318
   15MOL0     H 1999   6.588   2.657   5.258 -3.8952 -1.8980  2.7449
   15MOL0     H 2000   6.614   2.544   5.381 -0.6951 -0.6480 -0.3526
   15MOL0     H 2001   6.854   2.634   5.213  1.8401 -0.3932  1.3362
   15MOL0     H 2002   6.845   2.549   5.361 -1.5908 -2.5236  0.3279
   15MOL0     H 2003   6.883   2.805   5.392  1.1965 -3.3284 -0.3756
   15MOL0     H 2004   6.736   2.834   5.301 -1.6811 -0.6482  0.0076
   15MOL0     H 2005   6.236   1.842   5.091 -0.4186 -0.1523  2.1698
   15MOL0     H 2006   6.044   1.734   4.951  1.4361  1.1885 -2.3424
   15MOL0     H 2007   5.708   1.564   4.675  1.1011 -0.0076  1.7382
   15MOL0     H 2008   5.460   1.511   4.594  0.9561 -0.9474  0.6784
   15MOL0     H 2009   3.564   1.337   4.617  1.1414  3.0897  0.1034
   15MOL0     H 2010   3.348   1.441   4.662  0.6080 -0.2678  0.5731
   15MOL0     H 2011   3.072   1.695   4.663  0.8561  1.6470 -0.8310
   15MOL0     H 2012   2.934   1.851   4.753 -0.1759 -0.0672 -0.4566
   15MOL0     H 2013   2.568   1.982   4.486  2.3795  0.0421 -0.2997
   15MOL0     H 2014   2.543   2.079   4.631  0.2154 -1.1223 -0.0212
   15MOL0     H 2015   2.506   1.894   4.767 -2.8037 -1.7088  1.0919
   15MOL0     H 2016   2.531   1.775   4.638 -3.9464 -1.3306 -1.2721
   15MOL0     H 2017   2.336   1.889   4.503 -1.4517 -1.2638  0.3828
   15MOL0     H 2018   2.299   1.984   4.641 -0.3607  0.9463 -1.7690
   15MOL0     H 2019   2.283   1.755   4.761 -0.8756 -1.5704 -0.7843
   15MOL0     H 2020   2.152   1.795   4.643 -0.9598 -1.6596 -2.3357
   15MOL0     H 2021   2.310   1.499   4.416  1.2255  2.6926 -3.2513
   15MOL0     H 2022   2.722   1.866   4.377 -0.4905 -0.4508  0.8505
   15MOL0     H 2023   2.846   1.644   4.222 -1.3900  0.2183  1.4997
   15MOL0     H 2024   2.860   1.823   4.179  0.2825  0.0364  1.0836
   15MOL0     H 2025   3.006   1.727   4.199  0.3996 -1.8086  2.1808
   16MOL0     O 2026   5.296   3.716   7.856 -0.3681  0.7256  0.5730
   16MOL0     C 2027   5.332   3.609   7.804  0.7991  0.3516 -0.3427
   16MOL0     O 2028   5.249   3.498   7.783 -0.0463  0.5532 -0.2312
   16MOL0     C 2029   5.121   3.517   7.795  0.2926  0.8947 -0.4863
   16MOL0     C 2030   5.051   3.433   7.883 -0.4468  0.0241 -0.5947
   16MOL0     C 2031   4.914   3.430   7.857  0.3582 -0.0240  0.2166
   16MOL0     C 2032   4.847   3.504   7.759 -0.7624 -0.8809 -0.8011
   16MOL0     O 2033   4.712   3.512   7.752 -0.3122 -0.0485  0.3122
   16MOL0     C 2034   4.636   3.387   7.746 -0.4528 -0.5304  0.1868
   16MOL0     C 2035   4.501   3.407   7.674  0.6722  0.2344  0.0010
   16MOL0     C 2036   4.499   3.444   7.522  0.2272  0.4201 -0.2761
   16MOL0     C 2037   4.523   3.319   7.435  0.5689  0.1490  0.2649
   16MOL0     C 2038   4.516   3.369   7.294 -0.4697  0.1146  0.7653
   16MOL0     C 2039   4.550   3.260   7.182 -0.2059 -0.1143  0.6910
   16MOL0     C 2040   4.706   3.236   7.171  0.2722  1.3772 -0.2388
   16MOL0     C 2041   4.735   3.105   7.097  0.4650 -0.6283  0.6340
   16MOL0     N 2042   4.861   3.036   7.120 -0.2523 -0.4207 -0.8170
   16MOL0     C 2043   4.980   3.074   7.064  0.2126  0.3559 -0.3452
   16MOL0     C 2044   5.067   2.982   7.108 -0.3011 -0.8126 -0.7677
   16MOL0     C 2045   5.221   2.975   7.062 -0.3685 -0.2519  1.1098
   16MOL0     C 2046   5.282   2.834   7.064 -0.1875  0.2581 -0.3484
   16MOL0     C 2047   5.310   2.780   7.209 -0.6882 -1.1687 -0.8463
   16MOL0     C 2048   5.283   2.630   7.215 -1.0709  0.1319  0.1519
   16MOL0     O 2049   5.370   2.554   7.117  0.5370  0.1741 -0.5740
   16MOL0     C 2050   5.503   2.561   7.123 -0.2900  0.2433  0.4755
   16MOL0     C 2051   5.574   2.539   7.004  1.4886  0.5094 -0.2161
   16MOL0     C 2052   5.709   2.560   7.000  0.3958 -0.0330  1.1795
   16MOL0     C 2053   5.776   2.595   7.117  0.3761  0.2432  0.4250
   16MOL0     C 2054   5.925   2.607   7.122 -0.7132  0.5222  0.9344
   16MOL0     O 2055   5.998   2.532   7.022  0.9725 -0.2467 -0.4674
   16MOL0     C 2056   6.128   2.554   6.995  0.3065  0.5081  0.2177
   16MOL0     C 2057   6.175   2.503   6.870 -1.1710 -0.6818  0.3447
   16MOL0     C 2058   6.308   2.527   6.820  0.8721 -0.6620 -0.2181
   16MOL0     C 2059   6.397   2.614   6.881  0.2256 -0.2199 -0.1968
   16MOL0     O 2060   6.513   2.643   6.808 -0.1731  0.6552 -0.9450
   16MOL0     C 2061   6.596   2.753   6.860  0.1682  0.3624 -0.3170
   16MOL0     C 2062   6.730   2.762   6.781  0.5787  0.0869 -0.2048
   16MOL0     C 2063   6.823   2.638   6.807  0.4591  0.2723 -0.0449
   16MOL0     C 2064   6.959   2.664   6.753 -0.0247 -0.3176  0.5227
   16MOL0     C 2065   7.067   2.569   6.791 -0.1419 -0.2277  0.8001
   16MOL0     C 2066   7.097   2.571   6.937 -0.5964 -0.3407  0.3413
   16MOL0     C 2067   7.226   2.498   6.982  0.5082 -0.7419  0.1893
   16MOL0     C 2068   7.208   2.353   7.000 -0.2677  0.9312 -0.3680
   16MOL0    Cl 2069   7.366   2.266   7.009 -0.4831  0.0420  0.6890
   16MOL0     C 2070   6.344   2.678   7.001 -0.3780  0.2604  0.1284
   16MOL0     C 2071   6.223   2.634   7.062 -0.0173 -1.0503 -0.1447
   16MOL0     O 2072   5.982   2.668   7.205 -0.2530 -0.2444 -0.1814
   16MOL0     C 2073   5.712   2.608   7.243  0.4444 -0.2822  0.1885
   16MOL0     C 2074   5.579   2.581   7.241  0.7422 -0.3229 -0.5279
   16MOL0     N 2075   5.006   2.898   7.198  0.1820 -0.4216 -0.0289
   16MOL0     N 2076   4.879   2.926   7.196  0.1086  0.2850 -0.3885
   16MOL0     C 2077   4.924   3.590   7.678 -0.1618 -0.1654  0.3034
   16MOL0     C 2078   5.068   3.589   7.689  0.0403  0.2439  0.0488
   16MOL0     C 2079   5.480   3.589   7.793 -0.2506 -1.2921  0.4506
   16MOL0     C 2080   5.535   3.462   7.773 -1.0902 -0.4402 -0.2212
   16MOL0     C 2081   5.672   3.431   7.761  0.3544 -0.5519  0.1383
   16MOL0     C 2082   5.759   3.543   7.764 -0.0115  0.7652  0.3312
   16MOL0     O 2083   5.888   3.514   7.729  0.5137 -0.8368  0.8578
   16MOL0     C 2084   5.987   3.621   7.723  0.6704  1.8992  0.5084
   16MOL0     C 2085   6.124   3.546   7.706  0.2381 -0.3548  0.5180
   16MOL0     C 2086   6.154   3.439   7.816  0.4849  0.0294  0.4925
   16MOL0     C 2087   6.115   3.304   7.773  0.4856  0.7861  0.2658
   16MOL0     C 2088   6.224   3.226   7.698  0.2975 -0.7822  0.4465
   16MOL0     C 2089   6.308   3.165   7.642 -0.1599 -0.4872 -0.2571
   16MOL0     C 2090   5.713   3.681   7.777  0.1739  0.2227 -0.3300
   16MOL0     C 2091   5.572   3.700   7.795 -0.1571 -0.1659  0.2531
   16MOL0     C 2092   5.533   3.846   7.783  0.4596  0.2702 -0.5697
   16MOL0     H 2093   5.096   3.370   7.959 -0.5744  1.0974  0.3953
   16MOL0     H 2094   4.866   3.348   7.909  0.8315 -0.2262  0.3336
   16MOL0     H 2095   4.688   3.302   7.703 -1.3399 -0.0338 -2.0029
   16MOL0     H 2096   4.616   3.369   7.852 -1.7385  3.2802  0.7550
   16MOL0     H 2097   4.463   3.492   7.731  3.5259  0.1801  2.2073
   16MOL0     H 2098   4.440   3.316   7.678 -1.1497  1.4004 -0.3103
   16MOL0     H 2099   4.574   3.523   7.512  1.6501 -0.5778  1.8084
   16MOL0     H 2100   4.401   3.490   7.507  0.4712  0.9200 -0.3588
   16MOL0     H 2101   4.619   3.270   7.454  0.0568  0.0124  2.8097
   16MOL0     H 2102   4.449   3.243   7.460  2.4904 -1.7168  0.6081
   16MOL0     H 2103   4.426   3.423   7.262  1.5014  3.2720  0.1573
   16MOL0     H 2104   4.593   3.442   7.267 -1.8249  1.0232 -0.8643
   16MOL0     H 2105   4.494   3.168   7.200 -1.5608  0.7568  1.1291
   16MOL0     H 2106   4.527   3.311   7.088  1.9841 -0.3169 -0.0138
   16MOL0     H 2107   4.750   3.223   7.270  0.4729  0.8198 -0.4027
   16MOL0     H 2108   4.752   3.321   7.120 -4.0839  2.4379 -3.0118
   16MOL0     H 2109   4.656   3.030   7.107  1.1013 -1.0884  2.5383
   16MOL0     H 2110   4.735   3.129   6.990 -1.3222 -0.4510  0.6304
   16MOL0     H 2111   5.001   3.144   6.984  1.0485 -1.9097 -2.2222
   16MOL0     H 2112   5.212   3.009   6.959 -1.9893  1.2251  1.7019
   16MOL0     H 2113   5.298   3.038   7.107  1.4376  0.7970 -2.9636
   16MOL0     H 2114   5.214   2.770   7.007 -2.1586  3.3617 -1.7775
   16MOL0     H 2115   5.375   2.828   7.008 -0.1836 -2.9932 -0.1582
   16MOL0     H 2116   5.241   2.821   7.283 -0.0015  0.6861 -1.2043
   16MOL0     H 2117   5.414   2.805   7.232 -0.9761 -1.0828  0.4369
   16MOL0     H 2118   5.176   2.607   7.207 -0.6097 -2.5346  0.8746
   16MOL0     H 2119   5.319   2.588   7.309 -1.8830 -2.0278 -0.4465
   16MOL0     H 2120   5.512   2.518   6.918 -2.7788 -0.5599  2.8301
   16MOL0     H 2121   5.758   2.553   6.904 -1.3973  0.1077  0.2122
   16MOL0     H 2122   6.110   2.444   6.807 -1.4839 -0.3896  0.3880
   16MOL0     H 2123   6.326   2.487   6.721 -2.5968 -0.6181 -0.9811
   16MOL0     H 2124   6.541   2.845   6.842 -1.1049  0.7338  4.2449
   16MOL0     H 2125   6.613   2.735   6.966 -1.4817 -0.4861 -0.1645
   16MOL0     H 2126   6.701   2.762   6.676  2.7707 -0.5184 -0.8582
   16MOL0     H 2127   6.777   2.854   6.816  1.7787 -1.5740  2.9388
   16MOL0     H 2128   6.828   2.620   6.915 -1.4248 -1.0215 -0.1134
   16MOL0     H 2129   6.777   2.547   6.767  0.5662  0.4150 -0.4934
   16MOL0     H 2130   6.989   2.764   6.786 -2.1775  0.4484  0.3358
   16MOL0     H 2131   6.946   2.674   6.645 -0.5986 -1.3099  0.4923
   16MOL0     H 2132   7.159   2.594   6.737  0.0407 -1.0679  0.7175
   16MOL0     H 2133   7.053   2.469   6.749  0.3931 -0.2900  0.7622
   16MOL0     H 2134   7.114   2.676   6.964 -2.8792  0.6807 -1.8194
   16MOL0     H 2135   7.021   2.527   7.002 -1.6729 -0.4342 -0.9521
   16MOL0     H 2136   7.269   2.542   7.072 -1.6667 -0.4381  1.1348
   16MOL0     H 2137   7.293   2.523   6.899 -0.4999  0.3163 -0.3252
   16MOL0     H 2138   7.158   2.330   7.095 -1.3139 -2.1840 -1.5600
   16MOL0     H 2139   7.141   2.316   6.922 -3.6400  2.3892  1.6055
   16MOL0     H 2140   6.398   2.763   7.042 -1.1679  2.8415 -3.7017
   16MOL0     H 2141   6.201   2.685   7.155  2.3989 -1.8323  0.9122
   16MOL0     H 2142   5.760   2.633   7.336 -0.9236  2.0345  0.3630
   16MOL0     H 2143   5.529   2.581   7.336  0.1758  1.9571 -0.7546
   16MOL0     H 2144   4.877   3.649   7.600 -1.0209  0.1025  1.0124
   16MOL0     H 2145   5.127   3.636   7.611 -1.5097 -0.1537 -1.4051
   16MOL0     H 2146   5.472   3.374   7.768  0.7118 -1.7850  0.1405
   16MOL0     H 2147   5.720   3.336   7.741  2.7497  0.4845  0.5881
   16MOL0     H 2148   5.992   3.664   7.823 -1.3628 -0.1199  1.5826
   16MOL0     H 2149   5.965   3.697   7.648 -0.8465  1.5008  0.5141
   16MOL0     H 2150   6.201   3.624   7.709  1.1421 -1.2176  0.1455
   16MOL0     H 2151   6.126   3.499   7.608  0.7674  2.1376 -0.7617
   16MOL0     H 2152   6.098   3.459   7.908  0.3787  1.3059  0.1779
   16MOL0     H 2153   6.258   3.434   7.848  0.7079 -0.2607 -0.2494
   16MOL0     H 2154   6.095   3.241   7.860  1.0562 -0.9266 -0.7729
   16MOL0     H 2155   6.026   3.294   7.710  1.1878 -3.1677 -0.4147
   16MOL0     H 2156   6.383   3.105   7.595  4.2861  1.7746  3.1895
   16MOL0     H 2157   5.770   3.772   7.789 -2.2011  1.5163  2.2589
   16MOL0     H 2158   5.611   3.900   7.728 -0.2102  2.5977  0.6062
   16MOL0     H 2159   5.441   3.856   7.723  1.2336  1.5524 -1.6162
   16MOL0     H 2160   5.514   3.889   7.882  2.5529 -0.4663  0.1988
   17MOL0     O 2161   4.278   2.564   8.493 -0.4331 -0.3505  0.3623
   17MOL0     C 2162   4.207   2.667   8.481  0.7049 -0.2899  0.7565
   17MOL0     O 2163   4.241   2.792   8.529  0.4943  0.2069  0.1692
   17MOL0     C 2164   4.372   2.819   8.570  0.4213 -0.7625  0.8014
   17MOL0     C 2165   4.468   2.895   8.488  0.5388 -0.0808  0.4265
   17MOL0     C 2166   4.598   2.919   8.529 -0.8399  1.5080 -0.0318
   17MOL0     C 2167   4.644   2.875   8.661 -0.7584 -0.8624  1.1281
   17MOL0     O 2168   4.768   2.905   8.714  0.3909 -0.1187  0.2958
   17MOL0     C 2169   4.865   2.976   8.627 -0.2268  0.0984  0.2974
   17MOL0     C 2170   4.999   2.964   8.701 -0.3978 -0.9838 -0.8507
   17MOL0     C 2171   5.029   2.829   8.764 -0.2482 -0.2334  0.7662
   17MOL0     C 2172   5.182   2.815   8.799 -0.3172 -0.0119 -0.2845
   17MOL0     C 2173   5.196   2.693   8.893 -0.0152 -0.6136  0.1096
   17MOL0     C 2174   5.156   2.565   8.829  0.6854  1.0733 -0.1627
   17MOL0     C 2175   5.019   2.510   8.885 -0.4357  0.3749 -0.6598
   17MOL0     C 2176   4.967   2.390   8.823  0.1923 -0.1523  0.9418
   17MOL0     N 2177   4.942   2.415   8.681  0.3705  0.4235  0.2376
   17MOL0     C 2178   4.836   2.494   8.640 -0.2896 -0.5484  0.2517
   17MOL0     C 2179   4.846   2.496   8.507  0.0898  0.1618  0.8326
   17MOL0     C 2180   4.767   2.583   8.406 -0.3669  0.2377 -0.6208
   17MOL0     C 2181   4.633   2.528   8.346 -0.6048  0.1599  0.7474
   17MOL0     C 2182   4.641   2.373   8.317  0.5090 -0.7370 -0.5015
   17MOL0     C 2183   4.741   2.347   8.206 -1.0670  0.1438 -1.3253
   17MOL0     O 2184   4.749   2.446   8.103 -0.0782 -0.5305 -0.1646
   17MOL0     C 2185   4.852   2.464   8.009  0.0135 -0.5124  0.3543
   17MOL0     C 2186   4.856   2.568   7.912 -0.4231  0.5226  0.2065
   17MOL0     C 2187   4.959   2.583   7.821  0.3368 -0.1374  0.0629
   17MOL0     C 2188   5.069   2.498   7.825  0.4462  0.5025  0.2285
   17MOL0     C 2189   5.182   2.505   7.731 -0.4353  0.3886 -0.9060
   17MOL0     O 2190   5.290   2.422   7.759  1.0214 -0.3525  0.2600
   17MOL0     C 2191   5.406   2.432   7.689 -0.7332  0.6862  0.7407
   17MOL0     C 2192   5.467   2.554   7.644 -0.8205  0.2573  0.2195
   17MOL0     C 2193   5.599   2.555   7.584  0.0792 -0.7950  0.7383
   17MOL0     C 2194   5.662   2.429   7.565 -1.0116  0.8580  0.6954
   17MOL0     O 2195   5.786   2.426   7.507 -0.3154 -0.1021  0.1937
   17MOL0     C 2196   5.885   2.323   7.540 -0.2220  0.4159  0.5303
   17MOL0     C 2197   6.013   2.341   7.468  0.5488  0.2571  0.2451
   17MOL0     C 2198   6.110   2.217   7.494 -0.2107  0.2636 -0.1471
   17MOL0     C 2199   6.251   2.252   7.437  0.1247  0.1222  0.5909
   17MOL0     C 2200   6.327   2.119   7.421  1.2887  0.4893 -0.1584
   17MOL0     C 2201   6.478   2.152   7.403 -0.1768 -0.2789 -0.2554
   17MOL0     C 2202   6.550   2.022   7.417 -1.1012  0.3545  0.2050
   17MOL0     C 2203   6.703   2.064   7.417 -0.2846  0.6576 -0.3962
   17MOL0    Cl 2204   6.746   2.158   7.570 -0.0901 -0.3324 -0.2071
   17MOL0     C 2205   5.596   2.310   7.586 -0.6298  0.6080 -0.4973
   17MOL0     C 2206   5.473   2.312   7.652  0.9361 -0.1211 -0.3595
   17MOL0     O 2207   5.172   2.574   7.632 -0.6079 -0.3565  0.5749
   17MOL0     C 2208   5.071   2.400   7.932  0.6984  0.3818  0.4119
   17MOL0     C 2209   4.960   2.374   8.018 -0.8697  0.3632  0.4333
   17MOL0     N 2210   4.946   2.409   8.472 -0.1114  0.1765 -0.0052
   17MOL0     N 2211   5.003   2.366   8.580  0.2914 -0.5653  0.3345
   17MOL0     C 2212   4.553   2.800   8.736 -0.0390  0.1549  0.2214
   17MOL0     C 2213   4.422   2.784   8.697 -0.5871  1.0051  0.5531
   17MOL0     C 2214   4.078   2.662   8.397 -0.8025 -0.6419 -0.4689
   17MOL0     C 2215   3.988   2.772   8.403 -0.6571  0.3809  0.2857
   17MOL0     C 2216   3.861   2.770   8.351  0.0242  0.1196 -0.0490
   17MOL0     C 2217   3.816   2.659   8.281  0.0221 -0.8492 -0.1852
   17MOL0     O 2218   3.686   2.644   8.231 -0.4789  0.4134  0.2906
   17MOL0     C 2219   3.577   2.727   8.267  0.9271 -0.5039 -0.1081
   17MOL0     C 2220   3.516   2.683   8.398  0.4348  0.1244 -0.2294
   17MOL0     C 2221   3.439   2.545   8.380 -0.0699 -0.1672  0.2254
   17MOL0     C 2222   3.354   2.498   8.493 -0.5495  0.1444  0.3228
   17MOL0     C 2223   3.429   2.479   8.621  0.5459 -0.4354 -0.4354
   17MOL0     C 2224   3.487   2.466   8.726 -0.4742 -0.2581 -0.4388
   17MOL0     C 2225   3.903   2.556   8.259 -0.1169 -0.8915 -0.2877
   17MOL0     C 2226   4.034   2.554   8.314 -0.0832 -0.4031 -0.1485
   17MOL0     C 2227   4.121   2.430   8.295 -0.2827 -0.0089 -0.6028
   17MOL0     H 2228   4.434   2.925   8.389 -2.4153 -2.7540  0.4772
   17MOL0     H 2229   4.674   2.959   8.462  0.4015 -1.0488 -0.3044
   17MOL0     H 2230   4.873   2.931   8.527  0.5884  0.1096  0.3504
   17MOL0     H 2231   4.827   3.077   8.615 -1.1955 -0.3689 -0.7375
   17MOL0     H 2232   4.982   3.025   8.791  0.6815 -0.7468 -0.7937
   17MOL0     H 2233   5.085   3.000   8.644  0.0197  0.7917  0.7785
   17MOL0     H 2234   4.994   2.752   8.696 -0.2810  1.1739 -0.8624
   17MOL0     H 2235   4.975   2.816   8.858  1.4268 -1.2318  1.6461
   17MOL0     H 2236   5.234   2.794   8.706  1.5408  3.9202 -0.3477
   17MOL0     H 2237   5.212   2.911   8.841 -2.6404  1.6656 -2.1686
   17MOL0     H 2238   5.300   2.684   8.925  0.2003  0.6714 -0.2003
   17MOL0     H 2239   5.139   2.724   8.981  1.4777  0.5488  0.6971
   17MOL0     H 2240   5.151   2.564   8.720  0.2118  0.0246 -0.1431
   17MOL0     H 2241   5.231   2.490   8.855  0.5686  1.6336  2.0121
   17MOL0     H 2242   4.937   2.582   8.877  0.4997  1.4100 -1.0592
   17MOL0     H 2243   5.038   2.500   8.992  0.8128 -0.5520 -0.9400
   17MOL0     H 2244   5.032   2.303   8.829 -0.0029 -0.6690 -2.5355
   17MOL0     H 2245   4.874   2.366   8.877  0.9055  0.3133  2.4311
   17MOL0     H 2246   4.768   2.559   8.695  0.2828 -0.5803  1.0145
   17MOL0     H 2247   4.738   2.679   8.448  1.0767 -0.5154  2.3242
   17MOL0     H 2248   4.842   2.606   8.329 -0.4151  0.0691 -0.7195
   17MOL0     H 2249   4.559   2.559   8.420 -0.0228 -1.6137  2.1071
   17MOL0     H 2250   4.601   2.573   8.251 -0.4353 -0.9677  0.1467
   17MOL0     H 2251   4.548   2.353   8.262  0.6896  3.1426 -2.6035
   17MOL0     H 2252   4.642   2.312   8.408  0.3780 -0.8853 -0.5992
   17MOL0     H 2253   4.732   2.240   8.181  0.0843 -0.4388  0.5752
   17MOL0     H 2254   4.840   2.354   8.253 -0.3800 -1.6325 -2.4055
   17MOL0     H 2255   4.774   2.639   7.912 -1.3755 -0.4855  2.1231
   17MOL0     H 2256   4.950   2.654   7.739 -0.4122 -0.4159 -0.1071
   17MOL0     H 2257   5.431   2.651   7.676 -0.7697  0.6826 -0.9828
   17MOL0     H 2258   5.656   2.646   7.567  1.9958 -2.2440 -1.2079
   17MOL0     H 2259   5.904   2.325   7.648  2.1652 -4.0884  0.4293
   17MOL0     H 2260   5.847   2.229   7.499 -0.1286  2.2368 -4.3019
   17MOL0     H 2261   6.002   2.362   7.361 -2.0763  0.9728  0.6005
   17MOL0     H 2262   6.056   2.437   7.496  4.5917 -0.7004 -1.8997
   17MOL0     H 2263   6.114   2.183   7.597  0.8439 -1.0374 -0.5913
   17MOL0     H 2264   6.062   2.131   7.446  2.7310 -2.0709  0.7860
   17MOL0     H 2265   6.289   2.313   7.520 -1.3990  0.8977  0.7457
   17MOL0     H 2266   6.241   2.302   7.340 -1.3139 -0.5385  0.3803
   17MOL0     H 2267   6.296   2.063   7.333  0.4143 -0.1518  0.5360
   17MOL0     H 2268   6.302   2.052   7.504  0.7010 -0.1785 -0.8633
   17MOL0     H 2269   6.502   2.185   7.302 -0.6182  0.7362 -0.0364
   17MOL0     H 2270   6.501   2.222   7.483 -1.4369  0.8941 -0.8843
   17MOL0     H 2271   6.528   1.954   7.334  0.4408 -0.3981  0.3706
   17MOL0     H 2272   6.531   1.961   7.506 -1.6221  0.1491 -0.0451
   17MOL0     H 2273   6.772   1.978   7.416 -0.5816  0.4155 -0.3361
   17MOL0     H 2274   6.715   2.116   7.321 -1.2303 -1.0476 -1.5013
   17MOL0     H 2275   5.632   2.211   7.559 -1.4235 -0.0504  0.7730
   17MOL0     H 2276   5.426   2.218   7.680 -0.9744  0.6881 -0.6889
   17MOL0     H 2277   5.156   2.337   7.955  0.2211 -1.0955 -1.5081
   17MOL0     H 2278   4.972   2.296   8.092 -0.8510  0.9028  1.0104
   17MOL0     H 2279   4.584   2.750   8.827  1.2691 -1.0375 -0.8456
   17MOL0     H 2280   4.348   2.726   8.751 -1.9564 -0.8395 -2.9227
   17MOL0     H 2281   4.021   2.855   8.466  0.2891 -0.1400  0.4894
   17MOL0     H 2282   3.801   2.860   8.365  0.1192  0.1948 -0.1224
   17MOL0     H 2283   3.506   2.714   8.184  2.0384 -4.7537 -0.6122
   17MOL0     H 2284   3.606   2.832   8.275 -0.8069  0.0390 -0.3810
   17MOL0     H 2285   3.439   2.751   8.437  0.4148  2.3007 -3.6411
   17MOL0     H 2286   3.596   2.675   8.472  0.4551  0.1509 -0.2489
   17MOL0     H 2287   3.519   2.473   8.362 -0.1818 -0.6233  1.4365
   17MOL0     H 2288   3.383   2.547   8.286  2.4454 -0.7687 -1.3645
   17MOL0     H 2289   3.279   2.573   8.520  0.0485 -0.1183  3.0233
   17MOL0     H 2290   3.300   2.409   8.459  1.0304 -0.6934 -0.0753
   17MOL0     H 2291   3.524   2.437   8.822  3.7031 -0.3747 -1.8969
   17MOL0     H 2292   3.869   2.473   8.198 -0.7011 -1.6461  1.0061
   17MOL0     H 2293   4.228   2.451   8.291 -0.2157 -0.2584 -0.0823
   17MOL0     H 2294   4.099   2.364   8.379 -1.3222  1.5103  0.3749
   17MOL0     H 2295   4.090   2.376   8.205 -1.1106 -1.6189  0.6119
   18MOL0     O 2296   5.690   2.277   3.358 -0.0315 -0.2185  0.1666
   18MOL0     C 2297   5.685   2.180   3.429  0.2764  1.5267 -0.3742
   18MOL0     O 2298   5.781   2.082   3.442  0.8110  0.1807 -0.4017
   18MOL0     C 2299   5.901   2.105   3.387  0.5465  0.2648 -0.0869
   18MOL0     C 2300   6.014   2.084   3.461 -0.1181 -0.2330 -0.5041
   18MOL0     C 2301   6.143   2.105   3.408  1.0754  0.5792  0.0671
   18MOL0     C 2302   6.165   2.144   3.277 -0.2621 -0.4234  0.0925
   18MOL0     O 2303   6.289   2.161   3.227  0.6788  0.2367  0.6418
   18MOL0     C 2304   6.402   2.105   3.294 -0.1829 -0.5918 -0.6290
   18MOL0     C 2305   6.518   2.086   3.201  0.3294 -0.6211  0.5498
   18MOL0     C 2306   6.626   1.990   3.245 -0.4490  0.0944  0.6415
   18MOL0     C 2307   6.711   1.946   3.127  0.4889  0.0681 -0.1686
   18MOL0     C 2308   6.831   1.891   3.183 -0.1275  0.2424  0.2461
   18MOL0     C 2309   6.935   1.831   3.080 -0.5647  0.1310 -0.2390
   18MOL0     C 2310   7.051   1.754   3.146 -0.1590 -0.1642  0.2944
   18MOL0     C 2311   7.143   1.850   3.223 -0.0445 -0.2991  0.1121
   18MOL0     N 2312   7.285   1.803   3.226  0.3136  0.2411  0.1360
   18MOL0     C 2313   7.328   1.680   3.259 -0.2059  0.4187  0.0983
   18MOL0     C 2314   7.463   1.688   3.276  0.0647 -0.0618  0.7503
   18MOL0     C 2315   7.559   1.571   3.312  1.3250  0.2303  0.4151
   18MOL0     C 2316   7.681   1.615   3.387  0.5958  0.2210 -0.4880
   18MOL0     C 2317   7.797   1.672   3.304 -0.4772  0.5761  0.2018
   18MOL0     C 2318   7.928   1.716   3.368 -0.2530  0.9739 -0.1530
   18MOL0     O 2319   8.000   1.787   3.268 -0.9622  0.0671 -1.3925
   18MOL0     C 2320   8.127   1.836   3.304 -0.5801  0.3439  0.0702
   18MOL0     C 2321   8.211   1.905   3.207  0.8002 -0.1172 -0.0784
   18MOL0     C 2322   8.349   1.939   3.233  0.0279  0.4066  0.2939
   18MOL0     C 2323   8.415   1.892   3.347  0.6187  0.3300  0.4459
   18MOL0     C 2324   8.561   1.915   3.378  0.5603 -0.2581 -0.1427
   18MOL0     O 2325   8.643   1.977   3.283 -0.0811  0.2290 -0.5550
   18MOL0     C 2326   8.777   2.006   3.297  0.1679 -1.2117  0.7888
   18MOL0     C 2327   8.826   2.075   3.191 -0.7713  0.3001 -0.1949
   18MOL0     C 2328   8.967   2.100   3.178  0.5516  0.2314  0.3992
   18MOL0     C 2329   9.057   2.061   3.281 -0.3886 -0.1414 -0.0027
   18MOL0     O 2330   9.189   2.078   3.257 -0.2405  0.4254  0.0596
   18MOL0     C 2331   9.293   2.025   3.340  1.1745 -0.2837  0.9725
   18MOL0     C 2332   9.426   2.028   3.268 -0.3884 -0.5129 -0.3738
   18MOL0     C 2333   9.516   2.152   3.305 -0.6081  0.8443 -0.5634
   18MOL0     C 2334   9.659   2.109   3.266 -1.0360 -0.1701  0.4535
   18MOL0     C 2335   9.699   2.188   3.142 -0.7749  0.0778 -0.3796
   18MOL0     C 2336   9.835   2.161   3.060  0.1413 -0.2613  0.5485
   18MOL0     C 2337   9.954   2.205   3.140  0.0621 -0.0594  0.5767
   18MOL0     C 2338  10.088   2.180   3.060  0.3368 -0.3041  0.3738
   18MOL0    Cl 2339  10.113   2.003   3.044  0.1335 -0.0013 -0.2647
   18MOL0     C 2340   9.002   1.999   3.386 -0.3972 -0.0654  0.1023
   18MOL0     C 2341   8.868   1.969   3.399 -0.6539  0.4691 -1.0227
   18MOL0     O 2342   8.599   1.892   3.492 -0.4299 -0.5294 -0.2723
   18MOL0     C 2343   8.330   1.830   3.437  0.6635  0.4502  0.1638
   18MOL0     C 2344   8.198   1.790   3.414 -0.2986  0.3751  0.0473
   18MOL0     N 2345   7.498   1.819   3.266 -0.6279 -0.1890 -0.9459
   18MOL0     N 2346   7.390   1.887   3.242 -0.4726 -0.1889 -0.2175
   18MOL0     C 2347   6.041   2.173   3.207 -0.2329  0.3888  0.8457
   18MOL0     C 2348   5.920   2.142   3.257  0.1964  0.3250 -0.0660
   18MOL0     C 2349   5.561   2.152   3.500 -0.0938 -0.0495  0.2333
   18MOL0     C 2350   5.473   2.048   3.467  1.2490  0.3771  0.1292
   18MOL0     C 2351   5.354   2.024   3.537 -0.8489  0.9861 -0.2883
   18MOL0     C 2352   5.315   2.101   3.644 -0.5369 -0.0795 -0.8276
   18MOL0     O 2353   5.208   2.068   3.727  0.2581  0.7393 -0.4462
   18MOL0     C 2354   5.142   1.943   3.708 -0.3098  0.8769 -0.5616
   18MOL0     C 2355   5.226   1.826   3.753 -0.5575  0.2080  0.2645
   18MOL0     C 2356   5.293   1.843   3.886  0.3687  0.6761 -0.3291
   18MOL0     C 2357   5.372   1.726   3.957  0.6555 -1.4697 -0.4442
   18MOL0     C 2358   5.485   1.688   3.881 -0.0703 -0.1618 -0.2313
   18MOL0     C 2359   5.580   1.657   3.807  0.1583  0.3792 -0.2554
   18MOL0     C 2360   5.408   2.204   3.682  0.7709 -0.3266  0.7708
   18MOL0     C 2361   5.524   2.237   3.607 -0.3746 -0.5348 -0.3249
   18MOL0     C 2362   5.626   2.329   3.657 -0.6042 -0.4893  0.3029
   18MOL0     H 2363   6.000   2.066   3.567 -0.6279 -1.2168 -0.7261
   18MOL0     H 2364   6.211   2.063   3.482 -2.4132 -2.8160  1.7095
   18MOL0     H 2365   6.425   2.163   3.384 -1.5566  1.0268 -1.2594
   18MOL0     H 2366   6.374   2.006   3.332 -0.2098  0.3234  1.9016
   18MOL0     H 2367   6.556   2.186   3.181 -1.3571  0.3298  1.8088
   18MOL0     H 2368   6.471   2.047   3.110  0.6499 -0.5194  0.3387
   18MOL0     H 2369   6.569   1.906   3.286 -0.9323  1.5153  3.0401
   18MOL0     H 2370   6.692   2.041   3.316  0.3550 -1.0174  0.7233
   18MOL0     H 2371   6.656   1.879   3.061  2.1425 -0.1182 -1.4065
   18MOL0     H 2372   6.740   2.036   3.072 -0.5762  0.3797 -0.2464
   18MOL0     H 2373   6.881   1.964   3.248 -2.3378 -1.0444  3.6527
   18MOL0     H 2374   6.805   1.805   3.244 -1.9643  0.3928 -0.2666
   18MOL0     H 2375   6.876   1.764   3.016 -2.5033 -0.7277  2.2480
   18MOL0     H 2376   6.979   1.910   3.019 -2.1723  1.7416  0.6006
   18MOL0     H 2377   7.115   1.702   3.073  2.3643  1.7703  0.9925
   18MOL0     H 2378   7.010   1.677   3.212  2.2520 -0.1156  2.0067
   18MOL0     H 2379   7.145   1.950   3.180  1.6452  1.1901  3.3133
   18MOL0     H 2380   7.097   1.851   3.323  0.1882 -2.0132  0.2700
   18MOL0     H 2381   7.264   1.592   3.256 -0.3604  0.5644 -1.0842
   18MOL0     H 2382   7.509   1.484   3.355  0.1905  0.7734  0.2410
   18MOL0     H 2383   7.602   1.528   3.221 -0.2954  0.8923 -0.7058
   18MOL0     H 2384   7.655   1.699   3.452 -0.4881  0.5022 -1.2568
   18MOL0     H 2385   7.714   1.528   3.445 -0.9332 -0.5987 -0.7766
   18MOL0     H 2386   7.752   1.758   3.253 -0.6116  0.2959 -0.1605
   18MOL0     H 2387   7.821   1.599   3.226 -0.6722  0.7824 -0.0516
   18MOL0     H 2388   7.984   1.629   3.404  1.3101  0.4834 -3.4851
   18MOL0     H 2389   7.896   1.770   3.458 -3.6214 -0.7641 -0.1333
   18MOL0     H 2390   8.160   1.915   3.112 -2.6176  0.0087  1.6039
   18MOL0     H 2391   8.400   2.002   3.161 -0.9555  2.6322  1.4428
   18MOL0     H 2392   8.766   2.112   3.109 -2.5977 -1.7790  0.1163
   18MOL0     H 2393   9.013   2.149   3.093 -0.8618 -1.1283 -1.2464
   18MOL0     H 2394   9.296   2.083   3.433 -0.5829  0.6572  0.5019
   18MOL0     H 2395   9.268   1.922   3.367  0.2782 -0.5225 -0.5950
   18MOL0     H 2396   9.478   1.934   3.289  0.0455 -0.5351 -1.4795
   18MOL0     H 2397   9.406   2.013   3.161 -1.9336  0.4429 -0.2435
   18MOL0     H 2398   9.469   2.233   3.249 -0.9455  0.8139 -0.3328
   18MOL0     H 2399   9.517   2.169   3.413 -0.0620 -0.0635 -0.4199
   18MOL0     H 2400   9.677   2.008   3.228  1.6716  0.4904 -0.2429
   18MOL0     H 2401   9.731   2.118   3.348  2.0904 -1.9067 -1.8838
   18MOL0     H 2402   9.694   2.294   3.171 -1.6117  0.0062 -0.2280
   18MOL0     H 2403   9.629   2.168   3.060 -0.2684 -1.5091 -0.4501
   18MOL0     H 2404   9.841   2.054   3.043  0.4185 -0.6321  2.6165
   18MOL0     H 2405   9.831   2.221   2.969 -0.4004  3.4093  2.7702
   18MOL0     H 2406   9.963   2.155   3.237 -1.7712  0.4292  1.0370
   18MOL0     H 2407   9.947   2.314   3.142 -0.7000 -0.1170  1.5852
   18MOL0     H 2408  10.076   2.236   2.966  2.8944 -2.6379 -1.5056
   18MOL0     H 2409  10.168   2.228   3.115  1.5826 -2.5438  0.6386
   18MOL0     H 2410   9.060   1.958   3.468 -4.0619 -3.3133  1.4003
   18MOL0     H 2411   8.838   1.912   3.486 -0.9363  2.6086  0.3642
   18MOL0     H 2412   8.376   1.801   3.531  2.4404  2.9756  0.1677
   18MOL0     H 2413   8.166   1.727   3.496  1.1311  0.2984  0.5915
   18MOL0     H 2414   6.043   2.210   3.105 -1.7207 -1.0697  0.2475
   18MOL0     H 2415   5.838   2.172   3.192  1.3239  1.4797 -1.0045
   18MOL0     H 2416   5.503   1.967   3.401  1.2674  0.2701  0.2677
   18MOL0     H 2417   5.297   1.935   3.510  0.5272  0.1337 -0.5225
   18MOL0     H 2418   5.108   1.921   3.607  0.2559 -0.8878 -0.4092
   18MOL0     H 2419   5.058   1.945   3.779 -1.2721 -0.3932 -1.5984
   18MOL0     H 2420   5.308   1.810   3.682 -1.9137  0.0987 -1.3563
   18MOL0     H 2421   5.162   1.737   3.754 -1.3929  0.7885 -0.3041
   18MOL0     H 2422   5.211   1.858   3.957 -1.0824 -2.1520 -1.2353
   18MOL0     H 2423   5.359   1.930   3.881  0.1523  0.8481 -0.1782
   18MOL0     H 2424   5.399   1.747   4.061 -0.7347 -0.4039 -0.2625
   18MOL0     H 2425   5.306   1.640   3.972  0.4232 -0.9680  1.7552
   18MOL0     H 2426   5.645   1.618   3.731  0.4088 -0.9451  0.5899
   18MOL0     H 2427   5.391   2.277   3.761 -2.0449  0.5567 -0.4981
   18MOL0     H 2428   5.648   2.406   3.582  0.0775  1.6971  2.5938
   18MOL0     H 2429   5.593   2.379   3.749  0.8275  0.7076  0.1926
   18MOL0     H 2430   5.719   2.278   3.681 -1.7094 -0.9676  4.3195
   19MOL0     O 2431   2.955   6.170   4.260 -0.0021  0.0618  0.4253
   19MOL0     C 2432   3.058   6.224   4.212  0.5936  0.0426 -0.0214
   19MOL0     O 2433   3.166   6.265   4.281 -0.3510  0.5467 -0.6778
   19MOL0     C 2434   3.176   6.239   4.418 -0.5021 -0.6468 -0.5356
   19MOL0     C 2435   3.228   6.349   4.491 -0.2427 -0.0463  1.1134
   19MOL0     C 2436   3.257   6.336   4.622  0.1086  0.3007  0.0243
   19MOL0     C 2437   3.251   6.209   4.687  0.9150  0.2588 -0.4576
   19MOL0     O 2438   3.302   6.190   4.816 -0.1256  0.1695  0.9967
   19MOL0     C 2439   3.380   6.068   4.837 -0.5004 -0.4171 -0.4200
   19MOL0     C 2440   3.458   6.089   4.955  0.0117  0.1792 -0.9342
   19MOL0     C 2441   3.360   6.086   5.071 -0.0896 -0.5276  0.2647
   19MOL0     C 2442   3.388   6.182   5.186  0.9906  0.0536 -0.3556
   19MOL0     C 2443   3.520   6.163   5.259  0.1552  0.7959 -0.4253
   19MOL0     C 2444   3.490   6.078   5.387 -0.5822 -0.2137  0.1920
   19MOL0     C 2445   3.617   6.010   5.438  0.4565 -0.2889 -0.7077
   19MOL0     C 2446   3.585   5.945   5.578  0.2176 -0.2438  0.2807
   19MOL0     N 2447   3.710   5.877   5.617 -0.2699 -0.5257  0.0388
   19MOL0     C 2448   3.759   5.764   5.567 -0.3234  0.3255 -0.3510
   19MOL0     C 2449   3.878   5.741   5.635  0.4154  1.0245 -0.4834
   19MOL0     C 2450   3.969   5.621   5.615 -0.7080  0.2895 -0.3516
   19MOL0     C 2451   4.115   5.660   5.630 -0.6357  0.8712 -0.2391
   19MOL0     C 2452   4.193   5.554   5.555 -0.2001 -0.3376 -0.3625
   19MOL0     C 2453   4.346   5.564   5.570 -0.1627 -0.3741  0.0257
   19MOL0     O 2454   4.393   5.444   5.506 -0.8873 -0.2759  0.4223
   19MOL0     C 2455   4.536   5.433   5.510  0.8471 -0.5810  0.7689
   19MOL0     C 2456   4.593   5.319   5.443  0.8138 -0.2859  0.0774
   19MOL0     C 2457   4.729   5.311   5.432 -0.6117 -0.0334 -1.0475
   19MOL0     C 2458   4.813   5.400   5.495 -0.6710  0.7344  0.3244
   19MOL0     C 2459   4.959   5.387   5.491  0.0846 -0.5001 -0.5274
   19MOL0     O 2460   5.043   5.443   5.591 -0.1857  0.3304  0.4806
   19MOL0     C 2461   5.173   5.468   5.568 -0.1313  1.5496  1.3326
   19MOL0     C 2462   5.235   5.490   5.443 -0.6946  0.1457 -0.0815
   19MOL0     C 2463   5.383   5.519   5.439 -0.1559 -0.9995  0.1076
   19MOL0     C 2464   5.464   5.528   5.553 -0.1260 -0.2223 -1.6232
   19MOL0     O 2465   5.597   5.564   5.572 -0.2524 -0.0630 -0.3135
   19MOL0     C 2466   5.667   5.598   5.451  0.3244  0.3769 -0.5566
   19MOL0     C 2467   5.735   5.468   5.395  0.0228 -0.8436 -0.1727
   19MOL0     C 2468   5.846   5.497   5.303  0.0438 -0.0510  0.4651
   19MOL0     C 2469   5.963   5.570   5.368 -0.1123 -0.2446 -0.0290
   19MOL0     C 2470   6.091   5.487   5.358 -0.1992  0.3694 -0.2969
   19MOL0     C 2471   6.213   5.572   5.414  0.5727  0.4827  0.5544
   19MOL0     C 2472   6.215   5.579   5.564 -0.8089  0.4598  0.1310
   19MOL0     C 2473   6.327   5.663   5.623  0.3439  0.0241  0.7706
   19MOL0    Cl 2474   6.489   5.594   5.576 -0.2881 -0.0619  0.4879
   19MOL0     C 2475   5.391   5.502   5.676  0.1182 -1.1986  0.2447
   19MOL0     C 2476   5.253   5.468   5.678 -0.0778 -0.6824  0.1042
   19MOL0     O 2477   5.008   5.340   5.393 -0.2779 -0.0931  0.2998
   19MOL0     C 2478   4.763   5.505   5.569 -0.2047  0.7378  0.6179
   19MOL0     C 2479   4.625   5.527   5.564  1.1810 -0.0345  0.3056
   19MOL0     N 2480   3.889   5.842   5.730  0.2390 -0.1021  0.2199
   19MOL0     N 2481   3.787   5.924   5.715 -0.1132 -0.1973  0.0412
   19MOL0     C 2482   3.193   6.102   4.618  0.5505 -0.0203  0.0141
   19MOL0     C 2483   3.154   6.116   4.480 -0.2426 -0.6317 -0.1293
   19MOL0     C 2484   3.060   6.263   4.065 -0.2403  0.1020 -0.9639
   19MOL0     C 2485   3.156   6.350   4.016 -0.0872 -0.6171 -0.0255
   19MOL0     C 2486   3.151   6.389   3.885 -0.2415  0.5006  0.4324
   19MOL0     C 2487   3.057   6.331   3.795 -0.7640  0.0754  0.0419
   19MOL0     O 2488   3.037   6.361   3.655 -0.7799  0.2033  0.1658
   19MOL0     C 2489   3.019   6.497   3.614 -0.2416  0.1120 -0.4666
   19MOL0     C 2490   2.883   6.554   3.654 -0.6841 -0.5782 -0.1154
   19MOL0     C 2491   2.880   6.703   3.616 -0.0704  0.1604  0.6119
   19MOL0     C 2492   2.839   6.731   3.475  0.7875  0.6618 -0.2898
   19MOL0     C 2493   2.743   6.842   3.460  0.4192 -0.0034 -0.3664
   19MOL0     C 2494   2.692   6.949   3.456  1.0527 -0.0059  0.1694
   19MOL0     C 2495   2.973   6.236   3.843 -0.1744  0.1319  0.8662
   19MOL0     C 2496   2.962   6.209   3.975 -0.9300  0.8027 -0.5125
   19MOL0     C 2497   2.838   6.121   3.999  0.0037 -0.1930  0.5486
   19MOL0     H 2498   3.251   6.443   4.443 -1.0773  0.7134  2.1400
   19MOL0     H 2499   3.296   6.422   4.675 -3.3097  1.4116  1.0352
   19MOL0     H 2500   3.304   5.989   4.849  0.1878 -0.8154  1.7863
   19MOL0     H 2501   3.446   6.043   4.754  1.8389  2.9171  0.2415
   19MOL0     H 2502   3.491   6.193   4.941  0.5349 -0.0580 -1.5492
   19MOL0     H 2503   3.534   6.015   4.982 -1.6908 -0.9669  0.8839
   19MOL0     H 2504   3.364   5.986   5.116 -0.3005 -0.3344  0.7221
   19MOL0     H 2505   3.255   6.089   5.041  0.3442  0.1240 -1.2495
   19MOL0     H 2506   3.392   6.285   5.149  0.5612  0.0780 -0.3303
   19MOL0     H 2507   3.312   6.178   5.264  0.8712  3.7150 -0.1201
   19MOL0     H 2508   3.600   6.114   5.202  1.4671  0.2179  1.8247
   19MOL0     H 2509   3.558   6.258   5.297  1.7975  0.5640 -1.3843
   19MOL0     H 2510   3.447   6.138   5.468 -0.4763 -1.6472  1.3590
   19MOL0     H 2511   3.422   5.999   5.352 -1.7677  0.4294  0.9722
   19MOL0     H 2512   3.695   6.086   5.451  2.0882 -2.0559  0.3362
   19MOL0     H 2513   3.654   5.930   5.374  0.2206 -1.0733  0.1143
   19MOL0     H 2514   3.538   6.016   5.647 -1.4207 -0.0659 -0.9481
   19MOL0     H 2515   3.510   5.868   5.560 -0.1110 -0.0698  0.8730
   19MOL0     H 2516   3.710   5.699   5.496 -0.6019 -0.3108  0.4163
   19MOL0     H 2517   3.946   5.537   5.681  1.4724 -2.8294 -3.1891
   19MOL0     H 2518   3.948   5.583   5.514 -0.3956 -0.1839 -0.2432
   19MOL0     H 2519   4.132   5.758   5.587  0.4166  1.8031  2.1382
   19MOL0     H 2520   4.141   5.658   5.736 -0.4921  3.8687 -0.1333
   19MOL0     H 2521   4.149   5.569   5.456 -1.8858  2.3738  0.6881
   19MOL0     H 2522   4.156   5.460   5.596 -0.9384  0.4842  0.9252
   19MOL0     H 2523   4.378   5.558   5.674 -1.2730 -2.5814  0.3113
   19MOL0     H 2524   4.374   5.661   5.527  0.0812  0.0855  1.1828
   19MOL0     H 2525   4.543   5.233   5.400  0.4399  0.5124 -1.1260
   19MOL0     H 2526   4.778   5.225   5.387  2.2918 -0.1583  1.9647
   19MOL0     H 2527   5.187   5.475   5.347  0.9595 -2.1551 -0.6263
   19MOL0     H 2528   5.431   5.527   5.342 -1.1950  0.3626 -0.3375
   19MOL0     H 2529   5.609   5.660   5.382 -1.4953 -1.1952 -0.5185
   19MOL0     H 2530   5.742   5.676   5.467 -0.8841  1.3038  0.9709
   19MOL0     H 2531   5.762   5.411   5.484 -1.9754 -0.2013  0.9171
   19MOL0     H 2532   5.662   5.425   5.327  0.5052  1.9960 -2.6890
   19MOL0     H 2533   5.884   5.408   5.251 -0.1853 -0.0486  0.2931
   19MOL0     H 2534   5.806   5.568   5.231  1.0510  2.1525  1.9604
   19MOL0     H 2535   5.937   5.594   5.471  2.6618 -1.8384  1.1485
   19MOL0     H 2536   5.974   5.666   5.317 -1.0071 -0.4444 -0.6264
   19MOL0     H 2537   6.107   5.458   5.254 -1.0807  1.3912 -0.7382
   19MOL0     H 2538   6.093   5.396   5.419 -1.9097  2.1343  2.6665
   19MOL0     H 2539   6.304   5.524   5.378  0.9277  1.5315  0.0197
   19MOL0     H 2540   6.214   5.670   5.366 -2.3538 -0.1395 -1.0705
   19MOL0     H 2541   6.230   5.476   5.598 -1.3692 -0.7176 -2.8508
   19MOL0     H 2542   6.122   5.613   5.611 -2.1607  0.2905 -2.2899
   19MOL0     H 2543   6.326   5.767   5.587  0.2327 -0.3134 -0.2325
   19MOL0     H 2544   6.325   5.663   5.733  3.1886  0.2856  0.9043
   19MOL0     H 2545   5.445   5.502   5.770 -0.0409  1.5099  0.4230
   19MOL0     H 2546   5.205   5.449   5.774 -0.7615  2.5434  0.5154
   19MOL0     H 2547   4.824   5.578   5.621 -0.5901  0.3784  1.6054
   19MOL0     H 2548   4.597   5.605   5.635 -0.0401 -0.6992  0.5721
   19MOL0     H 2549   3.168   6.010   4.670 -1.9079  0.7428  0.3000
   19MOL0     H 2550   3.106   6.032   4.431 -1.9816  0.5111 -0.4713
   19MOL0     H 2551   3.242   6.376   4.077 -0.0381 -1.9791  0.5255
   19MOL0     H 2552   3.226   6.456   3.846  0.5568 -1.0666 -0.8228
   19MOL0     H 2553   3.021   6.491   3.505  0.0973 -1.9320 -0.3894
   19MOL0     H 2554   3.098   6.562   3.654 -2.0275  1.1792  1.4967
   19MOL0     H 2555   2.886   6.540   3.763  1.5899  0.9726  0.0761
   19MOL0     H 2556   2.804   6.492   3.610 -1.2604 -1.0437  1.4966
   19MOL0     H 2557   2.971   6.752   3.650 -0.6673  1.4060  0.4751
   19MOL0     H 2558   2.807   6.746   3.685  1.4099  3.1237  0.4691
   19MOL0     H 2559   2.933   6.748   3.422  2.7565  1.8730  3.2345
   19MOL0     H 2560   2.787   6.644   3.434 -0.0949  0.6401  0.8113
   19MOL0     H 2561   2.659   7.051   3.456  1.0519  0.0029 -0.6030
   19MOL0     H 2562   2.913   6.195   3.763  0.3729 -0.6584  0.8431
   19MOL0     H 2563   2.880   6.020   4.002  1.5415  0.3923 -0.1655
   19MOL0     H 2564   2.791   6.154   4.092 -0.1415  3.3910 -0.6696
   19MOL0     H 2565   2.755   6.124   3.927 -1.6630 -1.3449  2.3122
   20MOL0     O 2566   8.939   9.892   5.451 -0.2644 -0.3038 -0.0441
   20MOL0     C 2567   8.897   9.987   5.380 -0.9657 -0.2066 -0.5341
   20MOL0     O 2568   8.979  10.085   5.324  0.6214  0.0547  0.1438
   20MOL0     C 2569   9.115  10.084   5.348  0.6208 -0.3934  0.1131
   20MOL0     C 2570   9.176  10.207   5.360  0.0143 -0.6865  0.2155
   20MOL0     C 2571   9.312  10.231   5.368 -0.2735 -0.0563  0.0226
   20MOL0     C 2572   9.391  10.125   5.379  0.0678  0.0229 -0.0714
   20MOL0     O 2573   9.528  10.140   5.391 -0.1305  0.0494  0.1572
   20MOL0     C 2574   9.578  10.130   5.521  0.0815  0.4892  0.1317
   20MOL0     C 2575   9.690  10.023   5.527  0.4324  0.6317 -0.0379
   20MOL0     C 2576   9.825  10.075   5.489 -0.1740  0.2965  0.2083
   20MOL0     C 2577   9.842  10.133   5.344 -1.0203  0.2245  0.0615
   20MOL0     C 2578   9.984  10.129   5.303 -0.7410 -0.3165 -0.0333
   20MOL0     C 2579  10.085  10.209   5.390  0.7663 -0.1270  0.3934
   20MOL0     C 2580  10.032  10.350   5.400 -0.2246  0.5512 -0.2033
   20MOL0     C 2581  10.116  10.448   5.473 -0.6842  0.3346 -0.2162
   20MOL0     N 2582  10.251  10.471   5.399 -0.4951  0.1111  0.3150
   20MOL0     C 2583  10.363  10.401   5.423  0.4299  0.7233  0.1486
   20MOL0     C 2584  10.440  10.445   5.326 -0.2947 -0.4007  0.3031
   20MOL0     C 2585  10.582  10.412   5.305  0.6688  0.5079  0.2354
   20MOL0     C 2586  10.681  10.441   5.419  0.9058  0.3023 -0.1340
   20MOL0     C 2587  10.660  10.576   5.485 -0.9530  0.1163 -0.0796
   20MOL0     C 2588  10.680  10.701   5.391 -0.1850 -0.4005 -0.7186
   20MOL0     O 2589  10.802  10.702   5.317 -0.6006 -0.5909 -0.5964
   20MOL0     C 2590  10.916  10.731   5.383  0.2656  0.2779 -0.3296
   20MOL0     C 2591  10.923  10.838   5.459 -0.6449 -1.3843  0.5503
   20MOL0     C 2592  11.050  10.870   5.514 -0.2658 -0.4749  0.2841
   20MOL0     C 2593  11.165  10.797   5.498  0.2300 -0.6322 -0.6482
   20MOL0     C 2594  11.286  10.838   5.556 -0.6483  0.9197 -0.3610
   20MOL0     O 2595  11.305  10.961   5.617  0.6831 -0.4889 -0.1791
   20MOL0     C 2596  11.412  10.985   5.697  0.6273  0.3215  1.2960
   20MOL0     C 2597  11.413  10.988   5.839 -0.1143 -0.2115  0.8571
   20MOL0     C 2598  11.536  11.016   5.904 -0.0967  0.1478 -0.2829
   20MOL0     C 2599  11.658  11.044   5.834  0.4737 -0.1208  0.1274
   20MOL0     O 2600  11.778  11.066   5.898 -0.1125  0.2468  0.3083
   20MOL0     C 2601  11.774  11.077   6.041 -0.0273 -0.6185  0.8783
   20MOL0     C 2602  11.915  11.071   6.091  0.0466  0.5119 -0.6212
   20MOL0     C 2603  11.934  11.115   6.238  0.3205 -0.0882 -0.5582
   20MOL0     C 2604  12.080  11.107   6.275  0.3156 -0.6942 -0.5898
   20MOL0     C 2605  12.119  11.149   6.417 -0.2227 -0.0109  0.0897
   20MOL0     C 2606  12.095  11.292   6.441 -0.5472 -0.1702  0.2592
   20MOL0     C 2607  12.140  11.322   6.587 -0.5028 -0.1645  0.4455
   20MOL0     C 2608  12.112  11.461   6.627 -0.2669 -0.6545  0.4862
   20MOL0    Cl 2609  11.931  11.496   6.597 -0.5924  0.3164 -0.3279
   20MOL0     C 2610  11.655  11.041   5.692 -0.3473  0.3240 -0.3144
   20MOL0     C 2611  11.535  11.009   5.631 -0.0082 -0.4740 -0.7959
   20MOL0     O 2612  11.377  10.752   5.546 -0.0600 -0.8268  0.3818
   20MOL0     C 2613  11.153  10.689   5.408 -0.3040  0.5116  0.3986
   20MOL0     C 2614  11.028  10.653   5.357 -0.7457  0.1895 -0.3645
   20MOL0     N 2615  10.379  10.539   5.240  0.9879 -0.4223 -0.1715
   20MOL0     N 2616  10.261  10.556   5.287  0.0317  0.1707  0.4425
   20MOL0     C 2617   9.336   9.998   5.375 -0.0406  0.0872  0.3586
   20MOL0     C 2618   9.199   9.975   5.359  0.3884 -0.5434  0.4569
   20MOL0     C 2619   8.750  10.001   5.348  0.0655 -0.7305 -0.9499
   20MOL0     C 2620   8.717  10.078   5.236 -0.4703 -0.3135 -0.3039
   20MOL0     C 2621   8.581  10.094   5.204  1.2155 -0.7019  0.0688
   20MOL0     C 2622   8.480  10.033   5.274 -0.0273 -0.2601  0.1306
   20MOL0     O 2623   8.346  10.042   5.249  0.5090  0.1060 -0.1777
   20MOL0     C 2624   8.305  10.142   5.153  0.2960 -0.2399 -0.1580
   20MOL0     C 2625   8.326  10.295   5.172  0.1815  0.3499  0.5905
   20MOL0     C 2626   8.266  10.347   5.302  0.7163 -0.8670  0.3958
   20MOL0     C 2627   8.122  10.390   5.297 -0.0363  0.3700  0.0961
   20MOL0     C 2628   8.043  10.271   5.336  0.2383  0.0703  0.4606
   20MOL0     C 2629   7.975  10.174   5.345 -0.1582  0.0629  0.0158
   20MOL0     C 2630   8.520   9.965   5.388 -0.2383 -0.2013  0.2391
   20MOL0     C 2631   8.651   9.946   5.425  0.3189  0.7756 -0.8522
   20MOL0     C 2632   8.677   9.852   5.547 -0.1753  0.0180  0.1922
   20MOL0     H 2633   9.111  10.293   5.369 -1.1382 -1.6224  1.3054
   20MOL0     H 2634   9.355  10.330   5.374  0.8779 -0.4137 -1.7536
   20MOL0     H 2635   9.610  10.228   5.555  1.6096 -0.3247  1.1334
   20MOL0     H 2636   9.502  10.089   5.588  1.0510 -1.8953 -0.1178
   20MOL0     H 2637   9.677   9.931   5.470  2.0872  0.9726 -1.0114
   20MOL0     H 2638   9.701   9.998   5.633 -0.9787 -1.7663 -0.3830
   20MOL0     H 2639   9.896   9.997   5.516 -0.9256 -0.7528 -0.7266
   20MOL0     H 2640   9.855  10.153   5.560  3.8894 -3.7339  3.5201
   20MOL0     H 2641   9.795  10.061   5.277 -0.4736  0.6632 -0.8110
   20MOL0     H 2642   9.789  10.228   5.335 -2.2640 -0.4468  0.0720
   20MOL0     H 2643  10.008  10.023   5.294 -0.8507 -0.4762  1.3663
   20MOL0     H 2644  10.002  10.166   5.201 -0.0195 -0.6926 -0.0482
   20MOL0     H 2645  10.103  10.173   5.492  2.1512  2.9729  1.3584
   20MOL0     H 2646  10.180  10.213   5.336  0.5495 -1.1929 -0.0748
   20MOL0     H 2647   9.942  10.356   5.463 -0.9634  0.8002 -1.2606
   20MOL0     H 2648  10.012  10.381   5.297 -0.0694 -1.4945 -0.8802
   20MOL0     H 2649  10.059  10.541   5.484 -3.3100 -1.1328 -0.5162
   20MOL0     H 2650  10.139  10.418   5.576  3.0655  2.8144 -0.1309
   20MOL0     H 2651  10.381  10.331   5.504 -2.1265  1.3419  1.3326
   20MOL0     H 2652  10.581  10.304   5.286 -2.8059  0.4636  0.1434
   20MOL0     H 2653  10.619  10.455   5.211  0.9402 -5.2859 -2.8066
   20MOL0     H 2654  10.667  10.365   5.496  0.0751 -1.2562 -1.7533
   20MOL0     H 2655  10.783  10.426   5.382  0.3631 -1.6389 -1.0009
   20MOL0     H 2656  10.731  10.583   5.568 -1.0602 -1.3787  0.1579
   20MOL0     H 2657  10.563  10.586   5.536 -0.6506  0.5971  0.4198
   20MOL0     H 2658  10.663  10.788   5.456 -2.8422 -0.7793 -0.8016
   20MOL0     H 2659  10.600  10.711   5.317 -0.6386 -1.8607 -0.4483
   20MOL0     H 2660  10.842  10.909   5.468 -0.1056 -0.6698 -0.1474
   20MOL0     H 2661  11.061  10.960   5.573 -1.0292 -0.4807  0.4556
   20MOL0     H 2662  11.325  10.964   5.898 -0.5042 -0.8797  0.0114
   20MOL0     H 2663  11.531  11.003   6.012  0.7632  2.0831  0.0391
   20MOL0     H 2664  11.741  11.177   6.071 -0.8747 -0.5135 -0.3233
   20MOL0     H 2665  11.715  10.998   6.089  0.7775  0.1766  3.2834
   20MOL0     H 2666  11.965  10.976   6.069  1.2210  1.2761 -1.3857
   20MOL0     H 2667  11.971  11.139   6.025  2.6023 -0.2999  0.5892
   20MOL0     H 2668  11.896  11.215   6.263 -0.6286 -0.6751  0.4258
   20MOL0     H 2669  11.887  11.044   6.306  0.1643 -0.1960 -0.7782
   20MOL0     H 2670  12.129  11.170   6.201  0.5807 -0.4033 -0.1762
   20MOL0     H 2671  12.108  11.001   6.267  0.7124 -0.4892 -2.0252
   20MOL0     H 2672  12.225  11.124   6.428 -0.0131  1.3491  1.6062
   20MOL0     H 2673  12.062  11.083   6.484  0.2421 -0.5061  0.0074
   20MOL0     H 2674  12.155  11.358   6.377 -0.7774  2.0496  2.1785
   20MOL0     H 2675  11.987  11.306   6.433 -0.3846  0.8370 -0.4683
   20MOL0     H 2676  12.243  11.292   6.604 -0.5345  0.0010  0.9747
   20MOL0     H 2677  12.088  11.262   6.663  0.5578  0.6540  1.8725
   20MOL0     H 2678  12.143  11.472   6.731  1.7983  3.7037 -0.3927
   20MOL0     H 2679  12.182  11.522   6.570  1.6194 -2.1923  1.0596
   20MOL0     H 2680  11.740  11.051   5.626 -1.5668  5.6801 -1.4689
   20MOL0     H 2681  11.526  11.000   5.523  1.5570  0.9878 -1.0965
   20MOL0     H 2682  11.230  10.615   5.386 -1.5586 -0.6151 -0.3770
   20MOL0     H 2683  11.036  10.567   5.291  3.0818 -0.7934  1.0917
   20MOL0     H 2684   9.412   9.921   5.369 -1.5892 -1.4745 -0.3614
   20MOL0     H 2685   9.155   9.876   5.351 -0.1140 -0.2965  0.1304
   20MOL0     H 2686   8.797  10.121   5.177  0.9002 -1.5268  0.6025
   20MOL0     H 2687   8.555  10.158   5.121  1.2446 -0.0717  0.5425
   20MOL0     H 2688   8.197  10.127   5.139 -0.0166  0.9858  0.7709
   20MOL0     H 2689   8.366  10.120   5.065  3.0981  1.8375  1.1075
   20MOL0     H 2690   8.284  10.335   5.079  1.2982  0.5141  0.1317
   20MOL0     H 2691   8.433  10.320   5.179 -0.2582  2.5929  0.1952
   20MOL0     H 2692   8.322  10.439   5.323  0.9719 -0.4875 -1.7104
   20MOL0     H 2693   8.285  10.273   5.380 -3.1903 -3.1972 -0.5971
   20MOL0     H 2694   8.105  10.473   5.366  0.7096  2.7279 -2.3754
   20MOL0     H 2695   8.097  10.425   5.197 -1.8330 -2.0776 -0.4239
   20MOL0     H 2696   7.919  10.085   5.370  1.3363 -0.5250  1.4484
   20MOL0     H 2697   8.442   9.911   5.440 -0.0853 -2.2920 -1.5338
   20MOL0     H 2698   8.718   9.914   5.627 -2.8364  3.7684 -1.0812
   20MOL0     H 2699   8.585   9.799   5.574 -1.8634  2.2681 -0.8072
   20MOL0     H 2700   8.757   9.783   5.520 -1.0307 -1.4601  1.2947
   21MOL0     O 2701   4.285   1.253   1.086 -0.2559 -0.3035 -0.4940
   21MOL0     C 2702   4.272   1.170   1.176 -0.3499 -0.3895 -0.4550
   21MOL0     O 2703   4.357   1.141   1.273  0.0724  0.0138  0.3427
   21MOL0     C 2704   4.452   1.244   1.288 -0.0552 -0.4837  0.7018
   21MOL0     C 2705   4.580   1.231   1.232  0.5306  0.7058  0.0847
   21MOL0     C 2706   4.680   1.326   1.247 -0.0358  0.2093  1.3681
   21MOL0     C 2707   4.647   1.447   1.318  0.1384  1.3674 -0.9158
   21MOL0     O 2708   4.738   1.544   1.340  0.0185 -0.3129 -0.0999
   21MOL0     C 2709   4.879   1.526   1.307 -0.0532  0.0112  0.4546
   21MOL0     C 2710   4.960   1.443   1.414 -0.6044  0.1537 -0.0468
   21MOL0     C 2711   5.100   1.413   1.359 -0.8224  0.2885  0.4632
   21MOL0     C 2712   5.184   1.538   1.329 -0.0419  0.2335  0.1195
   21MOL0     C 2713   5.336   1.509   1.305 -0.2886  0.5914  0.9886
   21MOL0     C 2714   5.414   1.455   1.425 -0.4355  0.8407  0.5457
   21MOL0     C 2715   5.417   1.536   1.557  0.3512  0.5202  0.1362
   21MOL0     C 2716   5.541   1.510   1.632  1.2391  0.4740  0.1533
   21MOL0     N 2717   5.659   1.575   1.572 -0.0155  0.0329  0.3418
   21MOL0     C 2718   5.753   1.534   1.480 -0.5092  0.2193 -0.2575
   21MOL0     C 2719   5.826   1.643   1.445 -0.1632 -0.4179  0.7334
   21MOL0     C 2720   5.922   1.651   1.321  0.5259  0.0677 -0.2337
   21MOL0     C 2721   5.849   1.680   1.189 -0.4578  0.1074  0.4797
   21MOL0     C 2722   5.736   1.581   1.147 -0.2557 -0.3539  0.4138
   21MOL0     C 2723   5.698   1.599   1.001  0.8529  0.2951 -0.4635
   21MOL0     O 2724   5.607   1.491   0.966  0.4101 -0.5262 -0.0311
   21MOL0     C 2725   5.479   1.520   0.934 -0.1951 -0.8526 -0.3809
   21MOL0     C 2726   5.424   1.405   0.888 -0.6031 -0.9475 -0.7341
   21MOL0     C 2727   5.289   1.397   0.875 -0.5793 -0.4754  0.1028
   21MOL0     C 2728   5.206   1.513   0.903  0.0794  0.8005  0.9633
   21MOL0     C 2729   5.055   1.505   0.883 -0.0593  0.3346  0.7174
   21MOL0     O 2730   5.010   1.419   0.782 -0.1596  0.4072 -0.2293
   21MOL0     C 2731   4.876   1.404   0.754  0.1196  0.1807 -0.3194
   21MOL0     C 2732   4.815   1.278   0.749 -0.0188 -0.3294  0.3605
   21MOL0     C 2733   4.678   1.263   0.723  0.0716 -0.6558  0.2935
   21MOL0     C 2734   4.602   1.373   0.678 -0.7206  0.4916  0.3292
   21MOL0     O 2735   4.477   1.365   0.622 -0.0687  0.5071  0.3534
   21MOL0     C 2736   4.374   1.292   0.701  0.1236  0.0589 -0.0542
   21MOL0     C 2737   4.367   1.166   0.624  0.1165  0.0165  0.0349
   21MOL0     C 2738   4.228   1.133   0.578 -0.7494  0.1853  0.6588
   21MOL0     C 2739   4.230   1.024   0.475  0.3216 -0.9375 -0.0222
   21MOL0     C 2740   4.092   0.987   0.427  0.3716 -0.2453 -0.3720
   21MOL0     C 2741   3.990   0.947   0.533  0.2746 -0.5865 -0.8890
   21MOL0     C 2742   3.865   0.884   0.483  0.4438  0.7884  0.1215
   21MOL0     C 2743   3.786   0.822   0.600  0.3867  0.4554 -0.0507
   21MOL0    Cl 2744   3.733   0.944   0.722 -0.1178  0.0298  0.0216
   21MOL0     C 2745   4.663   1.499   0.685  0.4473 -0.2588  0.8897
   21MOL0     C 2746   4.791   1.515   0.735 -0.6214 -0.8023  0.0928
   21MOL0     O 2747   4.989   1.583   0.947  0.9292  0.0183 -0.2935
   21MOL0     C 2748   5.265   1.636   0.948  0.0757  0.2695 -0.3930
   21MOL0     C 2749   5.407   1.634   0.964  0.1325  0.4180  0.1418
   21MOL0     N 2750   5.768   1.752   1.515  0.6439 -0.1275 -0.0363
   21MOL0     N 2751   5.671   1.709   1.582 -0.3709 -0.6561  0.2255
   21MOL0     C 2752   4.519   1.469   1.376  0.5871  0.1487  0.1825
   21MOL0     C 2753   4.417   1.370   1.353 -0.8309 -0.5736  0.0560
   21MOL0     C 2754   4.156   1.065   1.164 -0.5629  0.2762 -0.2165
   21MOL0     C 2755   4.143   0.963   1.265  0.6259  0.4872 -0.0498
   21MOL0     C 2756   4.033   0.873   1.261 -0.3405 -0.4767 -0.6687
   21MOL0     C 2757   3.930   0.893   1.173 -0.1062 -0.0011 -0.9970
   21MOL0     O 2758   3.825   0.807   1.171 -0.3925  0.3919 -0.3606
   21MOL0     C 2759   3.704   0.852   1.120 -1.0340 -0.1435  0.0336
   21MOL0     C 2760   3.612   0.735   1.123 -0.6749  0.4848 -0.4838
   21MOL0     C 2761   3.608   0.669   0.982  0.4269 -0.4743 -0.0672
   21MOL0     C 2762   3.496   0.577   0.984 -0.2389 -0.4624  0.7592
   21MOL0     C 2763   3.507   0.484   0.866 -0.2658  0.3198 -1.0771
   21MOL0     C 2764   3.515   0.409   0.767  0.9400  0.2561  0.5040
   21MOL0     C 2765   3.937   0.994   1.085  1.3278 -0.2467  0.7339
   21MOL0     C 2766   4.043   1.083   1.066 -1.6593 -0.1544 -0.3623
   21MOL0     C 2767   4.046   1.188   0.965 -0.1975 -0.4037 -0.4452
   21MOL0     H 2768   4.612   1.136   1.190 -2.1840 -0.0903 -0.3483
   21MOL0     H 2769   4.784   1.309   1.223  0.4237  1.9062  2.0240
   21MOL0     H 2770   4.890   1.479   1.209 -1.5885  1.0446 -0.2478
   21MOL0     H 2771   4.930   1.622   1.301  1.5422 -0.6912  1.8141
   21MOL0     H 2772   4.904   1.354   1.443 -1.8789  0.9498  0.0523
   21MOL0     H 2773   4.979   1.500   1.506 -2.4258  0.6537  0.0653
   21MOL0     H 2774   5.078   1.364   1.263 -1.0537  0.5250  0.3932
   21MOL0     H 2775   5.154   1.337   1.416  1.6665 -0.5017 -2.6302
   21MOL0     H 2776   5.140   1.583   1.239 -2.1246  0.1464  1.0451
   21MOL0     H 2777   5.182   1.609   1.412  2.2224 -0.6868  1.0656
   21MOL0     H 2778   5.354   1.442   1.221  1.9725 -0.3103  2.0934
   21MOL0     H 2779   5.391   1.597   1.270  1.4344 -1.1093 -0.8693
   21MOL0     H 2780   5.381   1.352   1.447  0.9719  0.1613 -0.4400
   21MOL0     H 2781   5.517   1.451   1.390  0.7387 -0.6375  3.7623
   21MOL0     H 2782   5.329   1.505   1.615 -0.1757 -0.4434 -1.1176
   21MOL0     H 2783   5.395   1.641   1.537 -1.2454  0.5875  1.9698
   21MOL0     H 2784   5.520   1.549   1.732 -0.1199  0.3242 -0.0570
   21MOL0     H 2785   5.560   1.402   1.635 -0.7353  0.0940  0.3193
   21MOL0     H 2786   5.768   1.437   1.432  1.9145  0.8431 -0.9209
   21MOL0     H 2787   6.000   1.724   1.343 -0.0270 -0.1197  2.7117
   21MOL0     H 2788   5.965   1.550   1.321 -2.4544 -1.3383 -1.6523
   21MOL0     H 2789   5.806   1.781   1.196  1.2250  0.7678  2.1227
   21MOL0     H 2790   5.925   1.693   1.111 -0.8208  1.0747  0.2627
   21MOL0     H 2791   5.644   1.596   1.204  0.8767 -1.3542  2.6344
   21MOL0     H 2792   5.775   1.479   1.158  0.8409 -0.1074 -0.8791
   21MOL0     H 2793   5.787   1.589   0.938 -0.3133  1.4759 -2.3748
   21MOL0     H 2794   5.655   1.697   0.980  0.3203 -0.2554 -2.0525
   21MOL0     H 2795   5.485   1.318   0.867  0.5716 -0.3159 -0.0133
   21MOL0     H 2796   5.235   1.312   0.835  3.0552 -3.6047  1.1904
   21MOL0     H 2797   4.876   1.190   0.766 -0.1281 -0.6115 -0.6577
   21MOL0     H 2798   4.629   1.166   0.732  0.5510 -0.7593  2.2255
   21MOL0     H 2799   4.383   1.278   0.809 -0.6432 -2.9770 -0.2796
   21MOL0     H 2800   4.287   1.357   0.691  0.3489  0.2809 -0.6231
   21MOL0     H 2801   4.439   1.170   0.542  2.7952 -2.2154  2.0395
   21MOL0     H 2802   4.401   1.085   0.689  0.2599 -0.3415 -0.4831
   21MOL0     H 2803   4.175   1.089   0.663  0.6400 -0.8871  1.0179
   21MOL0     H 2804   4.187   1.224   0.535 -0.5268  0.3609  0.8176
   21MOL0     H 2805   4.277   0.938   0.523  1.8138 -0.3670 -0.4222
   21MOL0     H 2806   4.302   1.041   0.395 -1.2149  0.5758 -1.1445
   21MOL0     H 2807   4.091   0.905   0.355  1.5925 -0.1430 -0.5166
   21MOL0     H 2808   4.044   1.071   0.375  0.4775 -0.6019 -1.0541
   21MOL0     H 2809   4.029   0.887   0.615  0.7321  2.0212  0.9494
   21MOL0     H 2810   3.957   1.043   0.575 -1.4027 -0.4689 -2.3512
   21MOL0     H 2811   3.894   0.799   0.420  0.9811 -1.1443  2.7855
   21MOL0     H 2812   3.813   0.963   0.427  0.4899  2.5867  2.4753
   21MOL0     H 2813   3.697   0.782   0.550 -0.7539  2.9600 -0.2216
   21MOL0     H 2814   3.840   0.739   0.645 -1.5233 -0.9005 -0.1066
   21MOL0     H 2815   4.607   1.589   0.661  1.8656 -0.0576 -2.0536
   21MOL0     H 2816   4.838   1.612   0.744 -0.0714 -1.1685  1.4346
   21MOL0     H 2817   5.204   1.720   0.980  0.9900 -0.0002  2.3156
   21MOL0     H 2818   5.445   1.721   1.018 -0.9129  1.8807 -1.3700
   21MOL0     H 2819   4.492   1.556   1.435 -1.2165 -0.0239 -0.3156
   21MOL0     H 2820   4.316   1.392   1.384 -0.8032 -0.2965 -0.0528
   21MOL0     H 2821   4.231   0.962   1.329  0.5038  2.9510  0.2537
   21MOL0     H 2822   4.013   0.791   1.330 -1.0758  0.9391  0.8903
   21MOL0     H 2823   3.706   0.902   1.023  1.0030 -1.0103 -0.4101
   21MOL0     H 2824   3.676   0.937   1.184  1.9457  0.1735  1.0395
   21MOL0     H 2825   3.514   0.777   1.145  0.3212  2.0810  1.1910
   21MOL0     H 2826   3.651   0.662   1.194  0.6500  2.2407  0.6710
   21MOL0     H 2827   3.704   0.619   0.970  0.4279 -0.7627  1.0733
   21MOL0     H 2828   3.598   0.745   0.904  2.2224 -0.9362 -0.7885
   21MOL0     H 2829   3.497   0.517   1.076 -2.6054  1.0524  1.8772
   21MOL0     H 2830   3.399   0.627   0.993  0.0558 -0.0792  2.0550
   21MOL0     H 2831   3.524   0.345   0.681  0.0642  2.4542 -1.3193
   21MOL0     H 2832   3.852   1.014   1.020  0.2796 -1.4557  1.6809
   21MOL0     H 2833   4.069   1.284   1.011  0.7792 -2.1508  3.0650
   21MOL0     H 2834   4.126   1.173   0.892  0.0549  0.8769 -0.4519
   21MOL0     H 2835   3.955   1.184   0.904 -1.6366  2.9915  1.1794
   22MOL0     O 2836  10.500  10.572   6.168  0.7616  0.3100 -0.4026
   22MOL0     C 2837  10.546  10.670   6.229  0.5728 -0.9645  0.2067
   22MOL0     O 2838  10.504  10.798   6.217 -0.0008  0.7220  0.7781
   22MOL0     C 2839  10.376  10.818   6.175  0.1767 -0.5929  0.3644
   22MOL0     C 2840  10.267  10.765   6.254 -0.4026 -0.3282 -0.5314
   22MOL0     C 2841  10.141  10.782   6.200  0.6676 -0.0095 -0.8706
   22MOL0     C 2842  10.118  10.846   6.080 -0.5081  0.4760 -0.8084
   22MOL0     O 2843  10.000  10.867   6.030 -0.1512 -0.4034 -0.2238
   22MOL0     C 2844   9.882  10.881   6.117 -0.9914 -0.6349 -0.6067
   22MOL0     C 2845   9.749  10.916   6.047 -0.1380 -0.0345  0.6338
   22MOL0     C 2846   9.638  10.862   6.152 -0.3206  0.1235  0.1085
   22MOL0     C 2847   9.601  10.714   6.128 -0.3003 -0.5688 -0.1355
   22MOL0     C 2848   9.503  10.671   6.232  0.2253  0.8874 -0.0385
   22MOL0     C 2849   9.460  10.528   6.217 -0.3432 -0.0097  0.1479
   22MOL0     C 2850   9.373  10.510   6.086 -0.1147  0.1219  1.2037
   22MOL0     C 2851   9.223  10.540   6.087  0.6798 -0.7578 -0.0859
   22MOL0     N 2852   9.189  10.671   6.024  0.2347 -0.2730 -0.0646
   22MOL0     C 2853   9.173  10.701   5.892 -0.6102 -0.2541 -1.0593
   22MOL0     C 2854   9.158  10.837   5.887  0.2373  0.5002  0.5748
   22MOL0     C 2855   9.132  10.930   5.770  0.1159  0.6521  0.5459
   22MOL0     C 2856   9.215  11.064   5.770  0.0087  0.3706 -0.4628
   22MOL0     C 2857   9.365  11.045   5.732 -0.3062 -0.2633  1.0705
   22MOL0     C 2858   9.464  11.141   5.807  0.8285  0.3586  0.9045
   22MOL0     O 2859   9.584  11.120   5.733  0.3372  0.0105 -0.3923
   22MOL0     C 2860   9.699  11.184   5.773 -0.2281  0.3861 -0.0348
   22MOL0     C 2861   9.825  11.131   5.718 -0.7087 -0.6273  0.2032
   22MOL0     C 2862   9.942  11.175   5.758 -0.3016 -0.3513  0.1788
   22MOL0     C 2863   9.946  11.281   5.849 -0.7190 -0.5870 -0.6038
   22MOL0     C 2864  10.082  11.307   5.912  0.1989  0.3272  1.2348
   22MOL0     O 2865  10.081  11.410   6.007  0.7031 -0.2260  0.4783
   22MOL0     C 2866  10.205  11.463   6.047 -0.4902  0.1889 -0.2150
   22MOL0     C 2867  10.198  11.523   6.175  0.2051 -0.6938 -0.4193
   22MOL0     C 2868  10.310  11.568   6.246  0.1096  0.5676  0.3579
   22MOL0     C 2869  10.436  11.557   6.184  0.6253  0.8660 -0.2855
   22MOL0     O 2870  10.538  11.597   6.264 -0.0164 -0.3382  0.4640
   22MOL0     C 2871  10.599  11.714   6.222 -0.0138  0.0656 -0.1473
   22MOL0     C 2872  10.615  11.794   6.350 -0.2927 -0.1364 -0.1223
   22MOL0     C 2873  10.629  11.943   6.318  0.3913  0.4685  1.4933
   22MOL0     C 2874  10.774  11.970   6.282  0.8940  0.5604  0.7627
   22MOL0     C 2875  10.785  12.118   6.239 -0.0249 -0.2440  0.1848
   22MOL0     C 2876  10.819  12.218   6.352  0.4991  0.0308 -0.0448
   22MOL0     C 2877  10.846  12.357   6.307 -0.8297 -1.5401  0.3525
   22MOL0     C 2878  10.985  12.371   6.246 -0.9850 -0.0413 -0.0543
   22MOL0    Cl 2879  11.035  12.535   6.214 -0.6724  0.5862  0.4261
   22MOL0     C 2880  10.449  11.496   6.057  0.1686  0.0138 -0.6785
   22MOL0     C 2881  10.331  11.454   5.990  0.7617 -0.0358  0.7027
   22MOL0     O 2882  10.177  11.236   5.886 -0.0822 -0.0083 -0.1102
   22MOL0     C 2883   9.829  11.335   5.904 -0.8445 -0.6468 -0.3062
   22MOL0     C 2884   9.705  11.292   5.863  0.1621 -0.4344 -0.2541
   22MOL0     N 2885   9.156  10.881   6.015  0.2047 -0.8176  0.2403
   22MOL0     N 2886   9.160  10.780   6.095 -1.0449 -0.2674 -0.6494
   22MOL0     C 2887  10.222  10.904   6.010 -0.1041 -0.2053  0.3889
   22MOL0     C 2888  10.355  10.898   6.062 -0.0188  0.0045 -0.4391
   22MOL0     C 2889  10.670  10.650   6.291 -0.5116  0.0330  0.7157
   22MOL0     C 2890  10.785  10.623   6.212  0.1090 -0.3586  0.7494
   22MOL0     C 2891  10.911  10.623   6.268 -0.3727 -0.0407  0.1999
   22MOL0     C 2892  10.926  10.626   6.402  0.3054  0.7585  0.0472
   22MOL0     O 2893  11.054  10.621   6.460  0.4864 -0.3260  0.1125
   22MOL0     C 2894  11.060  10.583   6.597 -0.0611 -0.2449 -1.0598
   22MOL0     C 2895  11.199  10.547   6.628  0.7412 -0.4755  0.1760
   22MOL0     C 2896  11.257  10.410   6.576  0.3159  0.5379  0.6997
   22MOL0     C 2897  11.394  10.388   6.627  0.0562  0.2562 -0.8469
   22MOL0     C 2898  11.442  10.263   6.569 -0.7539 -0.8379 -0.4929
   22MOL0     C 2899  11.476  10.164   6.505  0.7967 -0.5418  0.4327
   22MOL0     C 2900  10.813  10.640   6.484  0.0381 -0.3410 -0.4787
   22MOL0     C 2901  10.686  10.662   6.432  0.3534  0.9260  0.5689
   22MOL0     C 2902  10.576  10.669   6.533 -0.2282  0.0126  0.2893
   22MOL0     H 2903  10.286  10.712   6.348 -4.1221 -1.7159 -0.4075
   22MOL0     H 2904  10.060  10.750   6.265  1.2763  2.7657  1.5101
   22MOL0     H 2905   9.863  10.788   6.170  0.7830 -0.4452  0.4249
   22MOL0     H 2906   9.893  10.964   6.187 -0.6176 -1.0969 -0.1187
   22MOL0     H 2907   9.743  10.873   5.946 -0.6773  0.5362  0.4199
   22MOL0     H 2908   9.739  11.024   6.034  2.4306  0.2273  0.2307
   22MOL0     H 2909   9.545  10.914   6.123 -0.9050 -0.5079  0.8088
   22MOL0     H 2910   9.668  10.875   6.256  4.0064 -1.5126 -0.7259
   22MOL0     H 2911   9.563  10.704   6.026  1.8376 -1.6794 -0.8828
   22MOL0     H 2912   9.699  10.665   6.128  1.3462  2.3457  2.3221
   22MOL0     H 2913   9.553  10.677   6.329 -0.2196 -1.2465  0.3703
   22MOL0     H 2914   9.422  10.745   6.229 -0.1463  0.4539 -1.0063
   22MOL0     H 2915   9.547  10.463   6.203 -1.0774 -0.8577 -0.5713
   22MOL0     H 2916   9.396  10.498   6.300 -3.2839  2.7285 -0.9535
   22MOL0     H 2917   9.374  10.406   6.052 -0.7471 -0.3167  2.4707
   22MOL0     H 2918   9.427  10.560   6.006 -0.7406 -0.2354  0.5451
   22MOL0     H 2919   9.177  10.468   6.019 -1.5260  2.8644 -2.8009
   22MOL0     H 2920   9.188  10.518   6.188 -1.7997  0.8838 -0.4940
   22MOL0     H 2921   9.157  10.635   5.807 -1.3691 -1.4872  0.0084
   22MOL0     H 2922   9.155  10.886   5.673 -2.0432 -1.0216  0.7160
   22MOL0     H 2923   9.026  10.955   5.765 -0.5434 -1.9183  0.4341
   22MOL0     H 2924   9.180  11.148   5.709 -0.7981 -0.7726 -1.6162
   22MOL0     H 2925   9.195  11.108   5.868 -0.1661 -1.3093  0.2970
   22MOL0     H 2926   9.364  11.072   5.626 -0.4086  1.1933  1.4219
   22MOL0     H 2927   9.396  10.940   5.744 -1.1714 -0.2623  4.2092
   22MOL0     H 2928   9.473  11.116   5.913 -1.0590 -0.6817  0.8607
   22MOL0     H 2929   9.437  11.246   5.796  2.0134  0.4363 -4.3788
   22MOL0     H 2930   9.828  11.058   5.638 -1.2941 -0.1874 -0.2292
   22MOL0     H 2931  10.032  11.139   5.709 -0.5209  3.3430 -3.5399
   22MOL0     H 2932  10.102  11.530   6.224  0.4088  0.1264 -0.1101
   22MOL0     H 2933  10.296  11.620   6.341 -1.4187 -0.8435  0.9657
   22MOL0     H 2934  10.704  11.692   6.199  0.0279 -0.0830  0.1739
   22MOL0     H 2935  10.542  11.751   6.136 -0.0149 -1.6560 -0.9291
   22MOL0     H 2936  10.517  11.784   6.398  0.8040 -1.2301  2.0695
   22MOL0     H 2937  10.692  11.759   6.420  0.5764  0.7100 -0.6319
   22MOL0     H 2938  10.565  11.962   6.232 -0.0063 -2.0355  1.1553
   22MOL0     H 2939  10.594  12.010   6.397 -2.2579  0.6389  0.2865
   22MOL0     H 2940  10.795  11.915   6.190 -0.4669  2.4652 -0.7788
   22MOL0     H 2941  10.850  11.958   6.360  1.5644 -0.3955 -0.0171
   22MOL0     H 2942  10.694  12.152   6.189 -1.1846 -0.1421  2.2294
   22MOL0     H 2943  10.865  12.130   6.165  0.2186  3.3612  0.8398
   22MOL0     H 2944  10.726  12.224   6.410  0.1187 -3.9121  0.0514
   22MOL0     H 2945  10.897  12.182   6.419  0.6689 -0.7679 -0.6543
   22MOL0     H 2946  10.836  12.421   6.395  0.2744 -0.5351 -0.2261
   22MOL0     H 2947  10.777  12.394   6.231 -1.0972  1.3804  1.8775
   22MOL0     H 2948  11.061  12.326   6.310  0.0529  0.1831 -1.1053
   22MOL0     H 2949  11.000  12.315   6.153  2.8875 -0.4776  0.6611
   22MOL0     H 2950  10.539  11.463   6.006 -0.5904 -0.9232 -1.4518
   22MOL0     H 2951  10.341  11.421   5.887  2.0791  0.4151  0.6717
   22MOL0     H 2952   9.834  11.416   5.976 -1.0012  0.3071 -1.3507
   22MOL0     H 2953   9.615  11.327   5.912  0.2525 -2.9747  1.9688
   22MOL0     H 2954  10.198  10.954   5.917  2.7988  1.0553  0.2048
   22MOL0     H 2955  10.434  10.959   6.019 -1.3946  1.8829 -0.4178
   22MOL0     H 2956  10.768  10.600   6.107 -1.6178  0.9617  0.6934
   22MOL0     H 2957  11.002  10.614   6.211 -0.1990  1.5749  0.2000
   22MOL0     H 2958  10.995  10.500   6.623  0.2125 -0.4424 -1.0084
   22MOL0     H 2959  11.039  10.672   6.657  0.5688 -1.8846  1.7430
   22MOL0     H 2960  11.213  10.531   6.735  1.1989 -0.1912  0.1609
   22MOL0     H 2961  11.268  10.628   6.603 -0.8209  0.6283 -0.7000
   22MOL0     H 2962  11.261  10.404   6.467 -0.6650 -0.3170  0.6998
   22MOL0     H 2963  11.191  10.337   6.622  0.2887  0.0356 -0.1240
   22MOL0     H 2964  11.458  10.473   6.600 -2.1988  1.4412 -2.8511
   22MOL0     H 2965  11.388  10.380   6.736 -1.2793  3.2891 -0.6048
   22MOL0     H 2966  11.507  10.081   6.445 -0.2607  0.2593 -1.2993
   22MOL0     H 2967  10.818  10.625   6.592  1.6127 -0.4108 -0.5347
   22MOL0     H 2968  10.503  10.594   6.498  0.7306 -1.7124  1.8374
   22MOL0     H 2969  10.614  10.642   6.632  3.0225 -1.2258 -1.1686
   22MOL0     H 2970  10.537  10.771   6.529 -1.5889 -0.5026 -0.6050
   23MOL0     O 2971   4.490   9.334   4.666  0.0089  0.5896  0.5523
   23MOL0     C 2972   4.410   9.424   4.678 -0.4046 -0.3346  1.3885
   23MOL0     O 2973   4.440   9.549   4.723  0.5533 -0.2638  0.2528
   23MOL0     C 2974   4.550   9.579   4.799 -0.1651  0.9326 -0.5279
   23MOL0     C 2975   4.543   9.618   4.932  0.0004  0.9759  0.0313
   23MOL0     C 2976   4.656   9.635   5.015 -0.6592 -0.0847  0.1009
   23MOL0     C 2977   4.783   9.611   4.968  0.8077 -0.6712  0.1882
   23MOL0     O 2978   4.902   9.613   5.035  0.2738  0.2956  0.1378
   23MOL0     C 2979   4.918   9.689   5.153  0.3253 -0.1955  1.0504
   23MOL0     C 2980   4.882   9.599   5.275  1.0559  0.2527 -1.0338
   23MOL0     C 2981   4.907   9.661   5.412  0.0497  0.7539  0.5411
   23MOL0     C 2982   5.055   9.669   5.427 -0.5712  0.2767  0.0609
   23MOL0     C 2983   5.090   9.677   5.582 -0.4390 -0.4184 -0.3062
   23MOL0     C 2984   5.231   9.733   5.594 -0.6487  0.1724 -0.4772
   23MOL0     C 2985   5.225   9.888   5.588  1.5004  1.2083 -0.2297
   23MOL0     C 2986   5.357   9.973   5.587  0.1497 -0.0757  0.7900
   23MOL0     N 2987   5.427   9.952   5.462  0.0509 -0.5941  0.2118
   23MOL0     C 2988   5.524   9.857   5.450  0.1936  0.5901  1.0807
   23MOL0     C 2989   5.552   9.859   5.318  0.9774  0.2833 -1.1014
   23MOL0     C 2990   5.649   9.763   5.250 -0.0845 -0.3719  0.3584
   23MOL0     C 2991   5.792   9.755   5.312  0.0848  0.6865 -0.2441
   23MOL0     C 2992   5.889   9.856   5.249  0.4738 -0.3862 -0.5245
   23MOL0     C 2993   6.042   9.811   5.252 -0.9415  1.0183  0.4214
   23MOL0     O 2994   6.112   9.920   5.195 -0.1045 -0.3865 -0.3767
   23MOL0     C 2995   6.250   9.937   5.197 -0.3816  0.0965  0.1643
   23MOL0     C 2996   6.313  10.005   5.095 -0.2460  0.7010 -0.2683
   23MOL0     C 2997   6.452  10.017   5.085  0.1035  0.5108 -0.7568
   23MOL0     C 2998   6.532   9.944   5.175 -0.9485 -0.7724 -0.9143
   23MOL0     C 2999   6.682   9.963   5.165 -0.2593 -0.1939  0.8239
   23MOL0     O 3000   6.756   9.896   5.266 -0.2544 -0.9136 -0.8717
   23MOL0     C 3001   6.891   9.928   5.277  0.7069 -0.3038 -0.1252
   23MOL0     C 3002   6.963   9.825   5.329  0.2334 -0.2317 -1.1666
   23MOL0     C 3003   7.099   9.845   5.355  0.3221 -0.1892  0.4238
   23MOL0     C 3004   7.157   9.974   5.342  0.9384 -0.0178 -0.8989
   23MOL0     O 3005   7.280  10.011   5.383 -0.1394  0.0077 -0.0241
   23MOL0     C 3006   7.369   9.917   5.448 -0.1686 -0.1117 -0.5001
   23MOL0     C 3007   7.341   9.931   5.601 -0.0810 -0.0222  0.2803
   23MOL0     C 3008   7.375   9.798   5.657 -0.3636  0.0100  0.0821
   23MOL0     C 3009   7.529   9.744   5.667  0.5196  0.5207 -0.4045
   23MOL0     C 3010   7.530   9.606   5.733 -0.6534 -0.1527 -0.0723
   23MOL0     C 3011   7.669   9.544   5.718 -0.0720 -0.6598  1.0246
   23MOL0     C 3012   7.673   9.462   5.585 -0.3488  0.5299 -0.2554
   23MOL0     C 3013   7.824   9.419   5.575 -0.3039 -0.8775  0.2079
   23MOL0    Cl 3014   7.837   9.314   5.433  0.6070  0.4370  0.3669
   23MOL0     C 3015   7.078  10.084   5.296  0.1830 -0.2510  0.0637
   23MOL0     C 3016   6.950  10.058   5.264  0.3559  0.0189 -0.1332
   23MOL0     O 3017   6.723  10.040   5.081  0.5864 -0.1866  0.2817
   23MOL0     C 3018   6.468   9.861   5.271  0.0011  0.0780  0.4289
   23MOL0     C 3019   6.334   9.855   5.287 -0.2667 -0.0006 -0.1748
   23MOL0     N 3020   5.465   9.950   5.256  1.2922 -0.2271 -0.1425
   23MOL0     N 3021   5.394  10.012   5.345  0.6229  1.2120 -0.1998
   23MOL0     C 3022   4.796   9.575   4.831  0.2421  0.6778  0.7575
   23MOL0     C 3023   4.683   9.548   4.746  0.0236 -0.0153  0.6688
   23MOL0     C 3024   4.274   9.401   4.635 -0.1180 -0.5534  0.0390
   23MOL0     C 3025   4.194   9.512   4.619  0.0299  0.0939  0.6489
   23MOL0     C 3026   4.053   9.497   4.590 -0.0820 -0.4433 -0.6296
   23MOL0     C 3027   4.007   9.375   4.549 -0.6390  0.6171  0.1122
   23MOL0     O 3028   3.878   9.354   4.505  0.1868 -0.2219  0.0673
   23MOL0     C 3029   3.777   9.447   4.533  0.3995  0.8417  0.2241
   23MOL0     C 3030   3.745   9.451   4.681 -0.1346  0.1709  0.9703
   23MOL0     C 3031   3.659   9.574   4.710 -0.5218 -0.3632 -0.1502
   23MOL0     C 3032   3.595   9.571   4.851  0.1692  0.4197  0.4107
   23MOL0     C 3033   3.580   9.702   4.915  0.0923 -0.2181  1.1170
   23MOL0     C 3034   3.549   9.804   4.960  0.1820 -1.0050  0.3210
   23MOL0     C 3035   4.086   9.265   4.556 -0.2058 -0.2384  0.1297
   23MOL0     C 3036   4.220   9.276   4.606 -0.0771 -0.8268 -0.4744
   23MOL0     C 3037   4.290   9.143   4.616  0.0474  0.0936  0.3044
   23MOL0     H 3038   4.439   9.624   4.963  0.1088  2.3474  0.2080
   23MOL0     H 3039   4.631   9.662   5.117 -0.8575  0.3901 -0.0719
   23MOL0     H 3040   5.024   9.715   5.153  0.9882 -2.4345 -1.6215
   23MOL0     H 3041   4.861   9.782   5.146 -1.5615 -1.3582  0.1493
   23MOL0     H 3042   4.936   9.504   5.276 -0.0804 -0.4065 -0.2622
   23MOL0     H 3043   4.776   9.575   5.271  0.8385  1.2189 -1.1316
   23MOL0     H 3044   4.872   9.604   5.498  0.0203  0.9033  0.6281
   23MOL0     H 3045   4.861   9.760   5.411  3.4692  2.6696 -3.8646
   23MOL0     H 3046   5.109   9.579   5.397  1.5827  1.3314  0.6047
   23MOL0     H 3047   5.084   9.752   5.363 -1.6926 -0.2213 -1.1395
   23MOL0     H 3048   5.016   9.736   5.637 -1.8301 -1.9576 -0.4672
   23MOL0     H 3049   5.072   9.581   5.630 -1.4361  0.2490  0.7130
   23MOL0     H 3050   5.273   9.699   5.689 -1.1307  3.5026  1.0720
   23MOL0     H 3051   5.290   9.687   5.514  0.5686 -0.3630  0.6899
   23MOL0     H 3052   5.169   9.923   5.676  3.1936  2.4196  0.4089
   23MOL0     H 3053   5.176   9.914   5.494 -0.2258  1.4983  0.6982
   23MOL0     H 3054   5.341  10.081   5.596  0.8293  0.3271 -2.0074
   23MOL0     H 3055   5.411   9.935   5.674  2.5057 -0.0101 -0.5694
   23MOL0     H 3056   5.567   9.802   5.533 -1.0617  1.6014  2.4488
   23MOL0     H 3057   5.602   9.664   5.258  1.6180 -1.3562 -0.9975
   23MOL0     H 3058   5.652   9.793   5.145 -1.4453  0.3677  0.5138
   23MOL0     H 3059   5.785   9.766   5.420  1.3736 -0.4955 -0.0061
   23MOL0     H 3060   5.829   9.653   5.298 -2.2494 -0.2564  0.0283
   23MOL0     H 3061   5.887   9.939   5.320  3.2588 -0.1350 -0.6193
   23MOL0     H 3062   5.858   9.876   5.146  0.5231 -0.3151 -0.5253
   23MOL0     H 3063   6.061   9.722   5.191 -1.8535  1.9119 -1.2127
   23MOL0     H 3064   6.077   9.798   5.355  0.8324  2.6242  0.0586
   23MOL0     H 3065   6.254  10.062   5.023 -0.2261  1.0152 -0.0386
   23MOL0     H 3066   6.498  10.085   5.014 -0.0149  1.7499  0.3156
   23MOL0     H 3067   6.916   9.730   5.350 -1.6909  0.4889 -1.9835
   23MOL0     H 3068   7.159   9.766   5.400  0.2182 -1.7133 -1.9521
   23MOL0     H 3069   7.357   9.816   5.408 -1.4851 -0.2704  0.2383
   23MOL0     H 3070   7.472   9.944   5.424 -0.1703  0.1922 -0.1651
   23MOL0     H 3071   7.392  10.015   5.650 -2.0334  0.2729  1.9256
   23MOL0     H 3072   7.233   9.943   5.613  0.0187 -1.1355  3.2409
   23MOL0     H 3073   7.334   9.808   5.758 -1.1498  0.5255 -0.2780
   23MOL0     H 3074   7.311   9.724   5.607 -1.3498  1.3558 -0.6845
   23MOL0     H 3075   7.589   9.819   5.719 -0.0878  0.5421  0.2815
   23MOL0     H 3076   7.570   9.734   5.565 -0.4599  2.9151 -1.0972
   23MOL0     H 3077   7.462   9.538   5.681  0.5915 -2.0838  0.6661
   23MOL0     H 3078   7.507   9.604   5.840 -0.9400  1.6992 -0.0761
   23MOL0     H 3079   7.746   9.621   5.726 -0.1440 -0.4123 -0.5060
   23MOL0     H 3080   7.685   9.472   5.799  0.5037  0.5641  2.0275
   23MOL0     H 3081   7.649   9.520   5.496 -0.5983 -1.9189 -1.8570
   23MOL0     H 3082   7.616   9.369   5.594  0.0077  0.1176 -1.9592
   23MOL0     H 3083   7.885   9.509   5.563 -0.6426 -0.4686  1.3500
   23MOL0     H 3084   7.857   9.361   5.662 -1.6639 -1.1514  0.5728
   23MOL0     H 3085   7.119  10.183   5.275 -0.3285  0.4270  2.0185
   23MOL0     H 3086   6.900  10.148   5.230  2.3523  0.0130 -3.4723
   23MOL0     H 3087   6.533   9.814   5.345  1.1651 -1.0776 -1.2430
   23MOL0     H 3088   6.302   9.796   5.372 -0.1781  0.6754  0.3398
   23MOL0     H 3089   4.895   9.533   4.810 -0.0976 -1.3271  2.7703
   23MOL0     H 3090   4.694   9.510   4.645 -2.6753 -2.9428  1.3150
   23MOL0     H 3091   4.224   9.616   4.630 -1.7925  0.6144  1.1368
   23MOL0     H 3092   3.995   9.588   4.589 -1.5932 -1.2501  2.2624
   23MOL0     H 3093   3.691   9.425   4.470  0.7562  1.8194 -0.6175
   23MOL0     H 3094   3.817   9.538   4.490 -1.3914  0.1224 -3.3257
   23MOL0     H 3095   3.834   9.456   4.745  0.1998 -1.1154  0.6305
   23MOL0     H 3096   3.689   9.361   4.708  0.0879 -0.4755 -0.6098
   23MOL0     H 3097   3.571   9.583   4.645 -0.8984 -2.1296  0.0560
   23MOL0     H 3098   3.716   9.667   4.704 -2.4578  0.9550  0.6556
   23MOL0     H 3099   3.505   9.507   4.857  1.9836 -2.2113  1.4918
   23MOL0     H 3100   3.678   9.524   4.904  1.8884  0.5381 -2.0200
   23MOL0     H 3101   3.533   9.905   4.993 -4.3201 -0.9343 -1.3599
   23MOL0     H 3102   4.033   9.173   4.532 -0.8870  0.1726  0.0199
   23MOL0     H 3103   4.224   9.056   4.614  2.6300 -2.3437  4.4701
   23MOL0     H 3104   4.372   9.127   4.546 -0.3223 -1.4468  0.2036
   23MOL0     H 3105   4.335   9.150   4.716 -2.0419 -0.3644  1.3266
   24MOL0     O 3106   2.538   7.952  10.553 -0.2390  0.1224 -0.1219
   24MOL0     C 3107   2.560   7.857  10.624 -0.3633  0.6659 -0.8733
   24MOL0     O 3108   2.667   7.849  10.708 -0.2623 -0.3102 -0.2322
   24MOL0     C 3109   2.759   7.949  10.710  0.3813  0.5221  0.4073
   24MOL0     C 3110   2.861   7.951  10.610 -0.2924  0.0184  0.3338
   24MOL0     C 3111   2.953   8.060  10.611 -0.1241 -0.2991 -0.7230
   24MOL0     C 3112   2.945   8.159  10.706  0.2468  0.0606 -0.2331
   24MOL0     O 3113   3.032   8.269  10.712  0.6760 -0.0753 -0.1562
   24MOL0     C 3114   3.174   8.248  10.721 -0.3299 -0.3512 -0.2217
   24MOL0     C 3115   3.260   8.359  10.651 -0.3962  0.3970 -0.2925
   24MOL0     C 3116   3.407   8.310  10.652  0.1189  0.1604 -0.2310
   24MOL0     C 3117   3.481   8.422  10.577  0.6099  0.1361 -0.4352
   24MOL0     C 3118   3.627   8.415  10.631 -1.7052  0.4973  0.7558
   24MOL0     C 3119   3.709   8.299  10.569 -0.3081  0.8066  0.1242
   24MOL0     C 3120   3.846   8.304  10.630  0.1863 -0.1418  0.3101
   24MOL0     C 3121   3.844   8.249  10.776 -0.4882  0.2903 -0.5518
   24MOL0     N 3122   3.818   8.105  10.798  0.0217 -0.0304  0.6669
   24MOL0     C 3123   3.692   8.050  10.823  0.5353 -0.0920 -0.0886
   24MOL0     C 3124   3.727   7.924  10.867  0.4062  0.0125 -0.2701
   24MOL0     C 3125   3.620   7.820  10.905 -0.5531 -0.8211  0.6526
   24MOL0     C 3126   3.546   7.785  10.777 -0.3316  0.5433 -0.2450
   24MOL0     C 3127   3.422   7.864  10.744  0.8536 -0.3609  0.2922
   24MOL0     C 3128   3.322   7.890  10.858 -1.1930 -0.3199  0.3010
   24MOL0     O 3129   3.280   7.784  10.934  0.1124 -0.6576 -1.2055
   24MOL0     C 3130   3.153   7.768  10.991  0.6971  0.7396  0.4165
   24MOL0     C 3131   3.042   7.846  10.964 -0.7643 -0.6449  1.0581
   24MOL0     C 3132   2.923   7.824  11.028  0.7496 -0.4278  0.3894
   24MOL0     C 3133   2.907   7.721  11.128 -0.5478  0.2964 -0.2611
   24MOL0     C 3134   2.777   7.693  11.187  0.0703  0.5647 -0.0359
   24MOL0     O 3135   2.757   7.589  11.276  0.5941 -0.2626  0.2937
   24MOL0     C 3136   2.635   7.555  11.326 -0.1406  0.0357 -0.4230
   24MOL0     C 3137   2.640   7.495  11.445 -0.2388 -0.2847 -0.2627
   24MOL0     C 3138   2.514   7.453  11.500 -0.3054  0.9412 -1.0704
   24MOL0     C 3139   2.387   7.479  11.445 -0.2419  0.2155  1.1192
   24MOL0     O 3140   2.264   7.447  11.491 -0.2192 -0.3507 -0.3231
   24MOL0     C 3141   2.257   7.356  11.599  0.2168  0.2545 -1.5543
   24MOL0     C 3142   2.114   7.356  11.640  1.2107  0.1871 -0.3148
   24MOL0     C 3143   2.025   7.266  11.545 -0.0762 -1.1253  0.2229
   24MOL0     C 3144   1.883   7.244  11.621 -0.3199 -1.0384 -0.8537
   24MOL0     C 3145   1.813   7.125  11.566  0.4833  0.1337 -0.2445
   24MOL0     C 3146   1.678   7.114  11.647 -0.0406  0.6289 -0.6702
   24MOL0     C 3147   1.573   7.022  11.582  0.8440 -0.7841  0.3479
   24MOL0     C 3148   1.442   7.050  11.652 -0.2062  0.3608 -0.0698
   24MOL0    Cl 3149   1.322   6.941  11.572 -0.1919 -0.2671 -0.6682
   24MOL0     C 3150   2.388   7.547  11.321 -0.6634  0.2931 -0.3996
   24MOL0     C 3151   2.507   7.581  11.267  0.2524 -1.0231 -0.2014
   24MOL0     O 3152   2.691   7.766  11.136  0.5405 -0.3224  0.3030
   24MOL0     C 3153   3.024   7.644  11.166  0.5386 -0.0395 -0.1505
   24MOL0     C 3154   3.145   7.671  11.093 -0.0558 -0.1647 -0.4895
   24MOL0     N 3155   3.862   7.897  10.862 -0.1218 -0.2020 -0.1208
   24MOL0     N 3156   3.913   8.004  10.814 -0.2275 -0.2967 -0.2426
   24MOL0     C 3157   2.841   8.149  10.804  0.1969 -1.0059  0.1790
   24MOL0     C 3158   2.744   8.051  10.798  0.0048 -0.1370 -0.3351
   24MOL0     C 3159   2.474   7.736  10.633  0.5838 -0.1153 -0.1019
   24MOL0     C 3160   2.501   7.630  10.727 -0.3360 -0.4078  0.2097
   24MOL0     C 3161   2.427   7.519  10.740  0.0234 -0.5399  0.2310
   24MOL0     C 3162   2.308   7.513  10.673 -0.2670  0.4585 -0.5348
   24MOL0     O 3163   2.217   7.418  10.680  0.1749 -0.4560  0.3461
   24MOL0     C 3164   2.159   7.389  10.805  0.4535  0.0338 -0.7556
   24MOL0     C 3165   2.198   7.256  10.871 -0.0611  0.0373 -0.1166
   24MOL0     C 3166   2.094   7.216  10.977  1.1196  0.0390  0.1589
   24MOL0     C 3167   2.071   7.061  10.986 -0.3479  0.1839  0.7160
   24MOL0     C 3168   1.950   7.032  11.072  1.5887 -0.2120  0.6764
   24MOL0     C 3169   1.860   6.984  11.133 -0.5268  0.1044 -1.0705
   24MOL0     C 3170   2.286   7.607  10.575 -0.4560  0.0187  0.6740
   24MOL0     C 3171   2.362   7.715  10.553  0.4825 -1.0715 -0.0932
   24MOL0     C 3172   2.307   7.822  10.453  0.4890  0.1035  0.4306
   24MOL0     H 3173   2.873   7.869  10.541  1.3027  1.2617 -0.9212
   24MOL0     H 3174   3.022   8.065  10.528  1.6834  0.4512  0.7436
   24MOL0     H 3175   3.197   8.256  10.828  1.3235  1.9851 -0.6743
   24MOL0     H 3176   3.198   8.147  10.687  2.3708 -0.4421  1.6554
   24MOL0     H 3177   3.250   8.448  10.714 -1.3115  1.4641 -1.8866
   24MOL0     H 3178   3.225   8.368  10.548  0.8184  1.8681 -0.6238
   24MOL0     H 3179   3.418   8.213  10.604  0.2435 -1.2311  2.4572
   24MOL0     H 3180   3.429   8.304  10.759  1.1364  0.2583 -0.4247
   24MOL0     H 3181   3.476   8.418  10.468  1.9730 -1.0601 -0.4856
   24MOL0     H 3182   3.445   8.517  10.618 -1.3041 -0.9368  0.5226
   24MOL0     H 3183   3.688   8.502  10.605  3.2089 -3.0390 -1.0842
   24MOL0     H 3184   3.627   8.429  10.739  0.1592  1.6089  0.6569
   24MOL0     H 3185   3.656   8.205  10.591 -0.7759  1.0219 -0.0655
   24MOL0     H 3186   3.721   8.302  10.460 -0.2354 -0.9615  0.0569
   24MOL0     H 3187   3.880   8.407  10.617 -4.6844  1.8816  1.3798
   24MOL0     H 3188   3.905   8.234  10.570 -0.1116  0.8386 -1.2019
   24MOL0     H 3189   3.936   8.272  10.831 -0.1642 -0.4488 -0.7684
   24MOL0     H 3190   3.774   8.306  10.837  0.9626  0.8192  0.6672
   24MOL0     H 3191   3.598   8.104  10.828  1.5694  1.6246  3.0128
   24MOL0     H 3192   3.678   7.733  10.937  2.9420 -0.7739 -4.2621
   24MOL0     H 3193   3.563   7.857  10.990 -0.3046  2.8059 -0.5728
   24MOL0     H 3194   3.611   7.775  10.690 -0.9965  0.0690 -0.6994
   24MOL0     H 3195   3.525   7.679  10.794 -1.8501  0.7408 -0.7098
   24MOL0     H 3196   3.369   7.808  10.666 -2.0382 -1.5603  2.9100
   24MOL0     H 3197   3.448   7.962  10.703  1.3107  0.1690  1.7975
   24MOL0     H 3198   3.242   7.926  10.793 -0.6857 -0.6363 -0.5199
   24MOL0     H 3199   3.364   7.971  10.919  1.6987 -1.7117  0.3518
   24MOL0     H 3200   3.046   7.924  10.889  5.4285 -0.6396  0.8095
   24MOL0     H 3201   2.845   7.896  11.005  0.7960 -0.9107 -1.3934
   24MOL0     H 3202   2.736   7.488  11.495  1.3739  1.1274 -2.9514
   24MOL0     H 3203   2.514   7.393  11.590 -2.4555  0.5605 -1.2809
   24MOL0     H 3204   2.297   7.257  11.575 -0.3385  0.1333 -1.9980
   24MOL0     H 3205   2.321   7.399  11.676  0.1915 -1.3961 -0.5504
   24MOL0     H 3206   2.111   7.322  11.744  1.8785  3.9810  1.1055
   24MOL0     H 3207   2.076   7.459  11.640  0.3466 -0.0386 -3.4167
   24MOL0     H 3208   2.025   7.314  11.447  3.2247 -1.8824 -0.2424
   24MOL0     H 3209   2.070   7.167  11.536  1.3639 -0.3226 -2.5251
   24MOL0     H 3210   1.822   7.335  11.627 -0.1506 -0.9693  0.0468
   24MOL0     H 3211   1.904   7.223  11.727  1.1557  1.1218 -0.6595
   24MOL0     H 3212   1.857   7.027  11.586 -0.9406 -0.0967  2.1297
   24MOL0     H 3213   1.786   7.129  11.460 -3.1052  4.0812  0.5167
   24MOL0     H 3214   1.694   7.077  11.748  0.2109  0.1342 -0.8864
   24MOL0     H 3215   1.639   7.216  11.654 -0.3875  0.4657 -0.1901
   24MOL0     H 3216   1.601   6.916  11.582  0.9579 -0.8273 -2.4172
   24MOL0     H 3217   1.555   7.048  11.477  0.6920  1.8334  0.9622
   24MOL0     H 3218   1.439   7.030  11.760 -0.9583  1.4130  0.1340
   24MOL0     H 3219   1.419   7.154  11.627  0.7373  0.5804 -0.0685
   24MOL0     H 3220   2.302   7.568  11.257 -1.1476 -2.0628 -0.6060
   24MOL0     H 3221   2.497   7.635  11.174  1.4610  0.2930  0.4012
   24MOL0     H 3222   3.013   7.564  11.238  3.5396  0.6951  1.2978
   24MOL0     H 3223   3.229   7.610  11.124  0.0330  1.4621  2.9888
   24MOL0     H 3224   2.828   8.238  10.865 -1.3531 -1.1993  0.1683
   24MOL0     H 3225   2.657   8.058  10.863  0.2622  0.8197 -0.0742
   24MOL0     H 3226   2.579   7.637  10.802 -0.3292 -1.6990  0.3481
   24MOL0     H 3227   2.457   7.444  10.812 -1.6408 -1.5256 -0.0603
   24MOL0     H 3228   2.050   7.391  10.805  0.4617  1.3464 -0.7600
   24MOL0     H 3229   2.194   7.465  10.876 -2.0040  2.3104 -1.8041
   24MOL0     H 3230   2.297   7.264  10.917 -1.1371 -1.0280  2.6074
   24MOL0     H 3231   2.198   7.177  10.795 -1.0039 -1.2323  1.1360
   24MOL0     H 3232   1.994   7.254  10.952  2.4080  2.1769 -2.1651
   24MOL0     H 3233   2.110   7.260  11.076 -0.5076 -1.4597  1.1567
   24MOL0     H 3234   2.047   7.028  10.885  0.1017 -0.6703  0.8815
   24MOL0     H 3235   2.159   6.998  11.002 -0.7590 -1.5673 -2.8930
   24MOL0     H 3236   1.779   6.937  11.185 -0.5620  1.3080 -0.0105
   24MOL0     H 3237   2.188   7.611  10.529 -0.7993  0.4800  1.4253
   24MOL0     H 3238   2.249   7.897  10.508  1.0219  0.8942 -0.0685
   24MOL0     H 3239   2.383   7.850  10.379  3.1056 -4.2908  1.0795
   24MOL0     H 3240   2.231   7.773  10.393  1.0323  2.1860 -2.1361
   25MOL0     O 3241   3.452  11.367   4.516  0.2054 -0.2008 -0.7415
   25MOL0     C 3242   3.371  11.357   4.426  0.4426 -0.0922 -0.3192
   25MOL0     O 3243   3.244  11.414   4.429  0.0580 -0.7177  0.6689
   25MOL0     C 3244   3.168  11.438   4.541  0.0729  0.2127  0.2893
   25MOL0     C 3245   3.186  11.365   4.667 -0.6930  0.5541  0.8314
   25MOL0     C 3246   3.103  11.381   4.779  0.9479 -0.5238 -0.4125
   25MOL0     C 3247   2.999  11.475   4.774  0.2272  0.4420 -0.1253
   25MOL0     O 3248   2.925  11.482   4.888 -0.4369  0.5881  0.0129
   25MOL0     C 3249   2.865  11.609   4.926 -0.2683  0.3946  0.9938
   25MOL0     C 3250   2.831  11.618   5.074  0.7285 -0.0689  0.2537
   25MOL0     C 3251   2.825  11.757   5.131  1.0586 -0.0913  0.0477
   25MOL0     C 3252   2.727  11.847   5.065  0.0767 -1.0395  0.7747
   25MOL0     C 3253   2.701  11.980   5.155  0.0952 -1.2891  0.3864
   25MOL0     C 3254   2.817  12.083   5.153 -0.6293 -0.6747  0.4124
   25MOL0     C 3255   2.915  12.062   5.268  0.3278  0.3185  0.4191
   25MOL0     C 3256   3.034  12.168   5.280 -0.0276 -0.3352  0.0897
   25MOL0     N 3257   3.111  12.166   5.148 -0.4914  0.5626 -1.0039
   25MOL0     C 3258   3.090  12.263   5.059  0.2449 -0.6080  0.1920
   25MOL0     C 3259   3.190  12.232   4.972 -0.4833 -0.3293 -0.7025
   25MOL0     C 3260   3.231  12.312   4.858 -0.6523  0.8652  1.0574
   25MOL0     C 3261   3.379  12.366   4.857 -0.1650 -0.6461  0.3577
   25MOL0     C 3262   3.489  12.256   4.819  0.1166  0.7986  0.4951
   25MOL0     C 3263   3.633  12.317   4.836  0.8157 -0.4539 -0.1937
   25MOL0     O 3264   3.729  12.211   4.854 -0.7101  0.1546  0.1479
   25MOL0     C 3265   3.844  12.211   4.772 -0.4599 -0.3676 -0.4327
   25MOL0     C 3266   3.952  12.130   4.812  1.1544  0.3665  0.8945
   25MOL0     C 3267   4.091  12.146   4.772  1.0858  0.1319  0.3703
   25MOL0     C 3268   4.119  12.236   4.668 -0.6995 -0.7432  0.0783
   25MOL0     C 3269   4.253  12.257   4.618 -0.5783  0.0283 -0.0773
   25MOL0     O 3270   4.352  12.177   4.671  0.1568 -0.0994  1.0944
   25MOL0     C 3271   4.485  12.203   4.625  0.1452  0.2394 -0.3726
   25MOL0     C 3272   4.551  12.316   4.582  0.3486 -1.0938  0.8448
   25MOL0     C 3273   4.687  12.316   4.564  0.8341  0.2964 -0.4924
   25MOL0     C 3274   4.762  12.206   4.588  0.2641 -0.1971 -0.3615
   25MOL0     O 3275   4.898  12.204   4.603  0.7179 -0.0777  0.5232
   25MOL0     C 3276   4.963  12.317   4.648  0.7240  0.3757 -0.4214
   25MOL0     C 3277   5.101  12.272   4.688 -0.1978  1.2563  0.1103
   25MOL0     C 3278   5.202  12.377   4.746 -0.3697 -1.0945 -0.8295
   25MOL0     C 3279   5.254  12.472   4.636 -0.1716  0.1700 -0.7059
   25MOL0     C 3280   5.386  12.537   4.674 -0.3902 -0.3475  0.1526
   25MOL0     C 3281   5.503  12.438   4.640 -0.1205 -0.8121  0.0490
   25MOL0     C 3282   5.649  12.498   4.659  0.7073 -0.9888  0.2975
   25MOL0     C 3283   5.673  12.598   4.546  0.8435  0.0903 -0.1367
   25MOL0    Cl 3284   5.801  12.703   4.623  0.3013  0.1351  0.2854
   25MOL0     C 3285   4.700  12.084   4.615  0.1135  0.2756  0.5037
   25MOL0     C 3286   4.557  12.086   4.638 -1.0234 -0.0434 -0.8183
   25MOL0     O 3287   4.263  12.349   4.525 -0.1108 -0.4255 -0.8268
   25MOL0     C 3288   4.004  12.311   4.619 -0.0896 -0.2963 -0.2096
   25MOL0     C 3289   3.868  12.299   4.662 -1.0708  0.1369  0.1397
   25MOL0     N 3290   3.252  12.110   5.005  0.1906  1.0353  0.5519
   25MOL0     N 3291   3.205  12.074   5.113  0.1466  0.7509 -0.9054
   25MOL0     C 3292   2.980  11.547   4.653 -0.0487  0.2321 -0.4171
   25MOL0     C 3293   3.066  11.531   4.544  0.2282  0.4471 -0.4869
   25MOL0     C 3294   3.426  11.302   4.297 -0.0692 -0.1396  0.1597
   25MOL0     C 3295   3.556  11.258   4.289 -0.0644  0.1560  0.8203
   25MOL0     C 3296   3.610  11.194   4.176 -0.2794 -0.6330  0.6997
   25MOL0     C 3297   3.539  11.186   4.052 -0.2977 -0.3599 -0.0154
   25MOL0     O 3298   3.579  11.151   3.926  0.1358 -0.1230 -0.3730
   25MOL0     C 3299   3.712  11.092   3.915 -0.4281  0.5830 -0.8457
   25MOL0     C 3300   3.710  10.943   3.958 -0.6737  0.3015  0.8199
   25MOL0     C 3301   3.642  10.832   3.858  0.9799 -0.4121 -0.0184
   25MOL0     C 3302   3.491  10.820   3.882  0.1803 -0.0086 -0.9935
   25MOL0     C 3303   3.448  10.684   3.856 -0.3452 -0.3010 -0.6216
   25MOL0     C 3304   3.399  10.575   3.841  0.0641 -0.1010  1.1981
   25MOL0     C 3305   3.412  11.242   4.055  0.1677 -0.3203 -0.4857
   25MOL0     C 3306   3.353  11.298   4.168 -0.0289 -0.1043 -0.8024
   25MOL0     C 3307   3.224  11.375   4.151  0.4231 -0.2690 -0.3650
   25MOL0     H 3308   3.271  11.299   4.684  0.3422  1.0583 -1.8353
   25MOL0     H 3309   3.116  11.330   4.874  0.5771 -1.0638 -0.6478
   25MOL0     H 3310   2.930  11.694   4.902  0.4581  0.2298  2.2734
   25MOL0     H 3311   2.771  11.617   4.871 -1.2378 -0.9355  2.3722
   25MOL0     H 3312   2.903  11.559   5.132  3.4906  0.9632 -1.9015
   25MOL0     H 3313   2.731  11.576   5.082 -0.0387  1.9361  5.3559
   25MOL0     H 3314   2.928  11.794   5.126  1.1338  0.4771  3.6735
   25MOL0     H 3315   2.793  11.745   5.235  1.0153  0.6822  0.1277
   25MOL0     H 3316   2.766  11.879   4.968  5.4705 -0.8649  2.7157
   25MOL0     H 3317   2.630  11.797   5.055 -0.5304  0.1845  0.3253
   25MOL0     H 3318   2.617  12.038   5.113  0.6251 -0.6034  0.2585
   25MOL0     H 3319   2.680  11.951   5.258 -0.1306  2.0325  1.4041
   25MOL0     H 3320   2.861  12.066   5.054 -3.1186 -2.0537 -0.5695
   25MOL0     H 3321   2.781  12.186   5.156 -2.3372 -1.2599  1.2451
   25MOL0     H 3322   2.955  11.961   5.252  0.9419  0.4045  1.3450
   25MOL0     H 3323   2.865  12.062   5.365  2.3735  0.6286  1.5090
   25MOL0     H 3324   2.992  12.266   5.302  1.2523  0.1398  0.5094
   25MOL0     H 3325   3.096  12.133   5.363 -0.6862  0.1867  0.8098
   25MOL0     H 3326   3.031  12.354   5.060  0.7231 -0.2786  1.6664
   25MOL0     H 3327   3.221  12.247   4.770  0.4259 -1.4606  2.5745
   25MOL0     H 3328   3.161  12.397   4.857 -1.7744 -0.0290 -0.2675
   25MOL0     H 3329   3.376  12.444   4.780 -0.2464  0.3149  1.3142
   25MOL0     H 3330   3.420  12.415   4.946  2.0254 -1.0542 -0.3411
   25MOL0     H 3331   3.481  12.224   4.715  1.6380  3.3674 -0.5129
   25MOL0     H 3332   3.483  12.172   4.889  1.8626 -0.2809 -0.5961
   25MOL0     H 3333   3.644  12.399   4.907  2.7599  0.8534 -1.9008
   25MOL0     H 3334   3.643  12.367   4.739 -0.5220  0.5978  0.1644
   25MOL0     H 3335   3.941  12.051   4.886 -0.9728  1.5535  1.9339
   25MOL0     H 3336   4.163  12.072   4.805  2.5522  1.0809 -0.5658
   25MOL0     H 3337   4.506  12.414   4.583  0.9992 -0.7586 -0.6793
   25MOL0     H 3338   4.739  12.411   4.548  0.8489 -0.0758 -3.0866
   25MOL0     H 3339   4.972  12.399   4.576  2.0513  1.7029  1.1735
   25MOL0     H 3340   4.914  12.365   4.733  0.7900 -1.9661  1.0256
   25MOL0     H 3341   5.093  12.189   4.759  0.6833  2.1795  1.3470
   25MOL0     H 3342   5.153  12.227   4.603  1.8990  1.2143  1.3285
   25MOL0     H 3343   5.163  12.437   4.828  1.4916 -0.5611 -0.2922
   25MOL0     H 3344   5.289  12.331   4.795  1.3517  2.1673 -0.5176
   25MOL0     H 3345   5.193  12.557   4.604  2.3171  1.7094 -1.5863
   25MOL0     H 3346   5.264  12.399   4.556  0.5873 -0.3989 -0.1119
   25MOL0     H 3347   5.390  12.560   4.781 -2.6855 -0.5497  0.3284
   25MOL0     H 3348   5.396  12.633   4.622 -2.9710  0.3729  0.8436
   25MOL0     H 3349   5.494  12.347   4.701 -0.1017 -0.6954  0.2294
   25MOL0     H 3350   5.478  12.421   4.535  0.8583 -3.4191  0.1590
   25MOL0     H 3351   5.728  12.423   4.676  0.2246 -1.7863 -0.8648
   25MOL0     H 3352   5.635  12.556   4.751  1.8735 -0.3750  0.1065
   25MOL0     H 3353   5.699  12.544   4.455  2.9827  0.4514  0.2039
   25MOL0     H 3354   5.589  12.663   4.520  0.9537 -0.6932 -2.7129
   25MOL0     H 3355   4.746  11.997   4.661 -0.9386  0.4890  2.0752
   25MOL0     H 3356   4.526  12.003   4.700  2.7515 -0.6510  0.5326
   25MOL0     H 3357   4.026  12.370   4.531  0.5409 -1.1044 -0.5980
   25MOL0     H 3358   3.798  12.361   4.606 -0.2164 -1.1099 -2.4606
   25MOL0     H 3359   2.904  11.623   4.641  1.7549  1.8515 -2.4116
   25MOL0     H 3360   3.055  11.601   4.461 -0.0953  0.6158 -0.3037
   25MOL0     H 3361   3.618  11.257   4.378 -1.4225 -0.7681  1.7941
   25MOL0     H 3362   3.717  11.179   4.177 -0.4632 -2.1752  2.3445
   25MOL0     H 3363   3.787  11.141   3.978  0.2794 -0.0749 -1.1587
   25MOL0     H 3364   3.758  11.107   3.817 -1.8903  2.7568 -1.2678
   25MOL0     H 3365   3.666  10.932   4.058 -0.0704 -2.5513  0.8504
   25MOL0     H 3366   3.814  10.913   3.972  0.1647  0.3014 -3.7487
   25MOL0     H 3367   3.690  10.738   3.888 -1.9473 -2.1945 -0.6149
   25MOL0     H 3368   3.662  10.845   3.751 -0.2149 -1.5928 -0.4048
   25MOL0     H 3369   3.455  10.838   3.983 -0.1719 -2.5637 -0.5827
   25MOL0     H 3370   3.442  10.891   3.815 -1.0195  1.2235  1.0769
   25MOL0     H 3371   3.363  10.474   3.849 -1.9768  0.2939 -1.5977
   25MOL0     H 3372   3.374  11.250   3.954  1.9768  3.3024 -1.0591
   25MOL0     H 3373   3.138  11.308   4.159 -1.3593  1.7623 -1.5789
   25MOL0     H 3374   3.213  11.464   4.213 -1.1031 -1.3901  1.0678
   25MOL0     H 3375   3.216  11.411   4.048  0.3013  4.8092  1.1288
   26MOL0     O 3376   7.451   9.572  11.290 -0.7605 -0.5222 -0.0074
   26MOL0     C 3377   7.414   9.467  11.339  0.0386  0.3272 -0.9903
   26MOL0     O 3378   7.314   9.450  11.419 -0.7772  0.5437 -0.8352
   26MOL0     C 3379   7.200   9.530  11.408 -0.0782  0.6457 -1.0114
   26MOL0     C 3380   7.179   9.638  11.318  0.0823 -0.5844 -0.0658
   26MOL0     C 3381   7.060   9.716  11.329 -0.6986 -0.0755 -0.0257
   26MOL0     C 3382   6.968   9.697  11.430  0.0643 -0.0505 -0.1062
   26MOL0     O 3383   6.862   9.785  11.438  0.0021 -0.0976 -0.1581
   26MOL0     C 3384   6.748   9.751  11.517  0.1389  0.0350 -0.5889
   26MOL0     C 3385   6.638   9.852  11.499 -0.3465  1.2570  0.6985
   26MOL0     C 3386   6.647   9.977  11.577 -0.3656 -0.0700  0.3647
   26MOL0     C 3387   6.622   9.947  11.726  0.3355  0.4528 -0.0775
   26MOL0     C 3388   6.621  10.087  11.797  0.5468  1.1840  0.1805
   26MOL0     C 3389   6.491  10.167  11.786 -0.6193  0.4899 -0.4829
   26MOL0     C 3390   6.374  10.117  11.860 -0.2070  0.6287 -0.6718
   26MOL0     C 3391   6.376  10.110  12.019 -0.2095 -0.3187  0.4791
   26MOL0     N 3392   6.359  10.242  12.070  1.0244  1.1152 -0.2158
   26MOL0     C 3393   6.451  10.309  12.140  1.1509  0.0303  0.3413
   26MOL0     C 3394   6.382  10.424  12.182  0.2456  0.7270  0.7718
   26MOL0     C 3395   6.444  10.534  12.259  0.7049  0.4398 -0.3543
   26MOL0     C 3396   6.538  10.604  12.160 -0.8919 -0.3742  0.4306
   26MOL0     C 3397   6.599  10.730  12.223  0.0694 -0.1583  0.2182
   26MOL0     C 3398   6.611  10.846  12.121  0.5840  0.2687 -0.5880
   26MOL0     O 3399   6.622  10.976  12.172 -0.5984  0.2738 -0.3085
   26MOL0     C 3400   6.720  11.059  12.106  1.3607 -0.3011 -0.0120
   26MOL0     C 3401   6.777  11.154  12.189 -0.5581 -0.5795 -0.5276
   26MOL0     C 3402   6.869  11.253  12.142  1.0474 -0.4881  0.5037
   26MOL0     C 3403   6.917  11.246  12.009  0.6629 -0.7214 -0.1039
   26MOL0     C 3404   7.014  11.344  11.960  0.1855 -0.1161 -1.1285
   26MOL0     O 3405   7.042  11.351  11.827  1.0072  1.1135  0.1604
   26MOL0     C 3406   7.152  11.414  11.776 -0.3705  0.2861 -0.9732
   26MOL0     C 3407   7.125  11.503  11.667  0.5979  0.4904 -0.4423
   26MOL0     C 3408   7.229  11.571  11.607  0.0371 -0.0532 -0.0731
   26MOL0     C 3409   7.361  11.581  11.664 -0.5130  1.0976 -0.0219
   26MOL0     O 3410   7.459  11.661  11.602 -0.3063  0.1506 -0.6776
   26MOL0     C 3411   7.598  11.621  11.626  0.2686 -0.3992 -0.3126
   26MOL0     C 3412   7.685  11.709  11.544 -0.4090 -0.2748 -0.2647
   26MOL0     C 3413   7.831  11.657  11.547 -0.4870 -1.0494 -0.0411
   26MOL0     C 3414   7.926  11.751  11.630 -0.7211  0.1090 -0.4251
   26MOL0     C 3415   8.069  11.705  11.594  1.0036 -0.9918 -0.2156
   26MOL0     C 3416   8.183  11.778  11.659 -0.4677  1.4862 -0.1707
   26MOL0     C 3417   8.189  11.796  11.819  0.3779  0.4930  0.0833
   26MOL0     C 3418   8.322  11.851  11.872  0.5283 -0.1516 -0.1246
   26MOL0    Cl 3419   8.437  11.716  11.852  0.3654  0.2634  0.1359
   26MOL0     C 3420   7.383  11.491  11.775  0.3501  0.2095 -0.1346
   26MOL0     C 3421   7.284  11.402  11.829 -0.0184 -0.3691 -0.6611
   26MOL0     O 3422   7.059  11.429  12.035  0.0906  0.0633 -0.4296
   26MOL0     C 3423   6.872  11.138  11.929  0.0276 -0.4334  0.4582
   26MOL0     C 3424   6.775  11.051  11.977  0.2725  0.0158 -0.1717
   26MOL0     N 3425   6.252  10.417  12.131  0.0537  0.3953  0.6075
   26MOL0     N 3426   6.248  10.307  12.061 -0.3596 -0.1870  0.3381
   26MOL0     C 3427   6.992   9.592  11.518 -0.4141 -0.6461 -0.0071
   26MOL0     C 3428   7.106   9.508  11.511 -0.7672 -0.1641  0.1935
   26MOL0     C 3429   7.486   9.349  11.298 -0.4952 -0.1688  0.5157
   26MOL0     C 3430   7.613   9.370  11.241 -0.7157  0.5254 -0.0734
   26MOL0     C 3431   7.693   9.269  11.187  0.2605 -0.8520  1.5275
   26MOL0     C 3432   7.649   9.141  11.177  0.2662 -0.1132  0.6737
   26MOL0     O 3433   7.729   9.058  11.111 -0.6080  0.5758 -0.2534
   26MOL0     C 3434   7.679   8.924  11.071  0.6599 -0.6508 -1.1207
   26MOL0     C 3435   7.752   8.875  10.949  0.4925  0.6791 -1.0150
   26MOL0     C 3436   7.893   8.834  10.988  0.5433  0.3066  0.3559
   26MOL0     C 3437   7.906   8.687  11.027  0.2497  0.3253 -0.3149
   26MOL0     C 3438   8.050   8.664  11.020  0.0465 -1.0168  1.2161
   26MOL0     C 3439   8.172   8.664  11.002 -0.1190 -0.6770  0.7689
   26MOL0     C 3440   7.533   9.113  11.248  0.5760 -0.4039 -1.0181
   26MOL0     C 3441   7.450   9.214  11.313  0.5950 -0.9030  0.6011
   26MOL0     C 3442   7.318   9.181  11.383  0.8098 -0.3466  0.6034
   26MOL0     H 3443   7.242   9.658  11.232  1.3484  5.6096  1.8148
   26MOL0     H 3444   7.034   9.768  11.237 -0.3653 -0.6262 -0.4355
   26MOL0     H 3445   6.714   9.652  11.485  1.1833 -0.3748 -0.4535
   26MOL0     H 3446   6.778   9.744  11.622 -1.8892 -2.9578 -0.0830
   26MOL0     H 3447   6.539   9.805  11.506  0.3610 -0.6870 -1.0941
   26MOL0     H 3448   6.647   9.865  11.391 -0.4776 -3.1039 -0.0275
   26MOL0     H 3449   6.575  10.050  11.538 -0.4008  0.4419  1.3622
   26MOL0     H 3450   6.744  10.024  11.561 -0.0997 -0.4311  0.8649
   26MOL0     H 3451   6.528   9.892  11.742 -0.2502  0.7134 -2.3132
   26MOL0     H 3452   6.706   9.892  11.769  0.1195  1.6604  2.0493
   26MOL0     H 3453   6.638  10.077  11.905 -0.1394  0.9626  0.2716
   26MOL0     H 3454   6.693  10.147  11.740  2.1765  0.1806  1.0848
   26MOL0     H 3455   6.511  10.270  11.816 -2.6188  0.1746  2.3688
   26MOL0     H 3456   6.462  10.183  11.682  0.0545  2.6262 -0.3855
   26MOL0     H 3457   6.365  10.012  11.829 -0.1026 -0.1243  1.6302
   26MOL0     H 3458   6.287  10.164  11.813  0.1307  1.2575 -0.6754
   26MOL0     H 3459   6.298  10.045  12.059 -0.1343 -2.1375 -2.1049
   26MOL0     H 3460   6.472  10.067  12.048  1.8799  1.7254 -2.7671
   26MOL0     H 3461   6.554  10.284  12.163  0.3738 -2.1036  1.7732
   26MOL0     H 3462   6.363  10.602  12.286 -0.0792  0.0279 -1.5676
   26MOL0     H 3463   6.493  10.484  12.343 -0.3613 -3.3375 -1.7543
   26MOL0     H 3464   6.615  10.539  12.115 -0.3838 -0.9037  2.0090
   26MOL0     H 3465   6.482  10.638  12.072  1.0788  2.1929  0.0216
   26MOL0     H 3466   6.694  10.713  12.274 -0.8223 -0.8797  1.7334
   26MOL0     H 3467   6.531  10.767  12.300  0.7009  2.5878 -0.4122
   26MOL0     H 3468   6.514  10.855  12.070 -0.4604  0.0287  1.2727
   26MOL0     H 3469   6.694  10.828  12.052  0.0216 -0.8483 -1.0001
   26MOL0     H 3470   6.756  11.151  12.295  1.9231  1.6006  0.1507
   26MOL0     H 3471   6.898  11.331  12.212 -0.1867  0.4822 -0.0344
   26MOL0     H 3472   7.026  11.514  11.625  0.2746 -1.9240 -0.4548
   26MOL0     H 3473   7.200  11.629  11.520  0.9510  0.5365  0.0044
   26MOL0     H 3474   7.613  11.642  11.732  1.1075  0.0929 -0.5213
   26MOL0     H 3475   7.610  11.515  11.602 -0.3866 -0.8768  1.3076
   26MOL0     H 3476   7.648  11.696  11.442 -0.1070  2.2564 -0.7639
   26MOL0     H 3477   7.686  11.816  11.567  0.7955 -0.4307  0.4748
   26MOL0     H 3478   7.839  11.558  11.594 -0.4046 -0.0816  2.1030
   26MOL0     H 3479   7.878  11.650  11.448 -2.0724  0.3671 -0.9348
   26MOL0     H 3480   7.918  11.748  11.739 -1.1841 -1.3922 -0.4730
   26MOL0     H 3481   7.921  11.855  11.597 -0.5999  0.0414 -0.6590
   26MOL0     H 3482   8.091  11.711  11.487 -2.4000 -2.1678 -1.1232
   26MOL0     H 3483   8.075  11.596  11.604  1.8758 -0.8673  0.9031
   26MOL0     H 3484   8.273  11.721  11.631  0.1455  1.9168  0.8783
   26MOL0     H 3485   8.184  11.877  11.613 -1.5634  3.0159  2.8831
   26MOL0     H 3486   8.161  11.700  11.863  2.2483  0.0547  0.3722
   26MOL0     H 3487   8.108  11.867  11.840  0.5928  0.6957  0.2204
   26MOL0     H 3488   8.360  11.944  11.828 -0.9786  1.0659  1.0346
   26MOL0     H 3489   8.312  11.859  11.981  1.4487 -2.4917  0.1960
   26MOL0     H 3490   7.483  11.499  11.816  2.1901 -1.2316 -3.8249
   26MOL0     H 3491   7.310  11.349  11.920  0.4038  0.8967 -0.0127
   26MOL0     H 3492   6.918  11.120  11.832  0.1103 -1.7275  0.7203
   26MOL0     H 3493   6.736  10.976  11.908 -1.0466 -0.9805  1.5823
   26MOL0     H 3494   6.908   9.576  11.585 -1.7105 -0.1457 -1.4584
   26MOL0     H 3495   7.118   9.420  11.573  4.0394 -2.0589 -2.8968
   26MOL0     H 3496   7.672   9.461  11.237  0.4330 -0.2024 -4.1889
   26MOL0     H 3497   7.794   9.287  11.150  0.5884 -2.5190  1.5208
   26MOL0     H 3498   7.572   8.916  11.046 -0.6441  2.1504  2.6107
   26MOL0     H 3499   7.699   8.852  11.150 -1.1170  0.7612  0.7223
   26MOL0     H 3500   7.764   8.955  10.875  0.5034  1.2775 -0.3663
   26MOL0     H 3501   7.683   8.802  10.904 -2.1722  2.3675  0.0760
   26MOL0     H 3502   7.918   8.898  11.073 -0.3295 -0.3878  1.1550
   26MOL0     H 3503   7.962   8.849  10.904  1.0121 -1.0692  0.4578
   26MOL0     H 3504   7.865   8.689  11.129  2.1052  0.7625  0.4623
   26MOL0     H 3505   7.860   8.608  10.966 -2.1506  0.8345  0.7159
   26MOL0     H 3506   8.279   8.663  10.997 -0.1304 -0.4324  0.4956
   26MOL0     H 3507   7.505   9.010  11.270 -1.8819  0.0212 -1.8941
   26MOL0     H 3508   7.238   9.234  11.330  1.4220  1.2375  1.1962
   26MOL0     H 3509   7.299   9.073  11.384  0.0982 -0.2391  0.0443
   26MOL0     H 3510   7.332   9.221  11.484 -0.3059  2.3781 -0.2091
   27MOL0     O 3511   8.786   5.842   6.168  0.8759 -0.5872  0.0470
   27MOL0     C 3512   8.683   5.853   6.100 -0.2778  1.0874  0.0480
   27MOL0     O 3513   8.670   5.884   5.971  0.0220  0.1948  0.2028
   27MOL0     C 3514   8.769   5.930   5.884 -0.6775 -0.1883  0.0198
   27MOL0     C 3515   8.729   5.992   5.763  0.4919  0.1702  0.1954
   27MOL0     C 3516   8.826   6.033   5.669 -0.2392 -0.1232 -0.0932
   27MOL0     C 3517   8.961   6.002   5.694  0.6010 -0.2730  0.3274
   27MOL0     O 3518   9.060   6.032   5.608  0.2633 -0.3816 -0.2044
   27MOL0     C 3519   9.024   6.087   5.482 -0.5460 -0.3432  0.0258
   27MOL0     C 3520   9.154   6.097   5.407 -0.0191 -0.5169 -0.2232
   27MOL0     C 3521   9.160   6.178   5.281  0.8818  0.0766  0.5912
   27MOL0     C 3522   9.055   6.133   5.176 -0.0521 -0.0303  1.0252
   27MOL0     C 3523   9.087   6.192   5.041 -0.7183 -0.5872  0.7541
   27MOL0     C 3524   9.016   6.113   4.927 -0.1863  1.0405  0.4340
   27MOL0     C 3525   9.084   6.155   4.794  0.6121  1.2671  0.1032
   27MOL0     C 3526   9.067   6.298   4.735 -0.9586  0.5133 -0.9337
   27MOL0     N 3527   8.928   6.348   4.743 -0.1705 -0.2133  0.2608
   27MOL0     C 3528   8.825   6.314   4.659  1.0231  0.0487 -0.6280
   27MOL0     C 3529   8.717   6.381   4.712 -0.0975  0.0819  0.7094
   27MOL0     C 3530   8.573   6.385   4.665 -0.2253  0.5376 -0.7107
   27MOL0     C 3531   8.578   6.414   4.518  1.0485  0.2827 -0.4981
   27MOL0     C 3532   8.591   6.568   4.479  0.6644  0.1922 -0.3076
   27MOL0     C 3533   8.731   6.619   4.467  0.4981 -0.5368 -0.1568
   27MOL0     O 3534   8.809   6.545   4.375  0.3987  0.8731 -0.1262
   27MOL0     C 3535   8.881   6.618   4.290 -0.2501  0.2568 -1.1546
   27MOL0     C 3536   9.004   6.677   4.341  0.6230  0.2751  0.5447
   27MOL0     C 3537   9.082   6.752   4.252  0.0171 -0.1748 -0.9118
   27MOL0     C 3538   9.032   6.802   4.127  0.2887 -0.0256 -0.3041
   27MOL0     C 3539   9.104   6.907   4.050  0.9631  0.6854 -0.5771
   27MOL0     O 3540   9.073   6.927   3.917  0.4264 -0.0291  0.5383
   27MOL0     C 3541   9.169   6.961   3.827 -0.5358  0.1817  1.2717
   27MOL0     C 3542   9.129   7.031   3.710  0.5243  0.3383 -0.1372
   27MOL0     C 3543   9.222   7.096   3.629 -0.0814  0.3150 -0.3783
   27MOL0     C 3544   9.354   7.088   3.659 -0.2200 -0.2854 -0.6066
   27MOL0     O 3545   9.462   7.153   3.606 -0.7106  0.1318 -0.5120
   27MOL0     C 3546   9.434   7.237   3.489  0.3475  0.4225 -0.8469
   27MOL0     C 3547   9.562   7.291   3.426 -0.3220 -0.1977  0.8753
   27MOL0     C 3548   9.641   7.378   3.516  0.6370  0.5823  0.7376
   27MOL0     C 3549   9.647   7.529   3.490  0.4493  0.7519  0.3940
   27MOL0     C 3550   9.745   7.606   3.575  0.5020 -0.3798 -0.0361
   27MOL0     C 3551   9.687   7.635   3.716 -0.2850 -0.0496 -0.3845
   27MOL0     C 3552   9.611   7.771   3.725 -0.0979 -0.8273  0.5121
   27MOL0     C 3553   9.516   7.773   3.848  0.5367  0.3295 -0.4790
   27MOL0    Cl 3554   9.355   7.680   3.816  0.4240  0.3255  0.3369
   27MOL0     C 3555   9.393   7.001   3.766  0.1618  0.0776  0.7891
   27MOL0     C 3556   9.303   6.935   3.844 -0.0778 -0.9286 -0.0432
   27MOL0     O 3557   9.186   6.975   4.112  0.5556 -0.6050 -0.0364
   27MOL0     C 3558   8.909   6.748   4.082 -0.2598 -0.3266 -0.5658
   27MOL0     C 3559   8.832   6.653   4.167 -0.0854 -0.4756 -0.3741
   27MOL0     N 3560   8.765   6.471   4.812  0.0235  0.4996  0.0464
   27MOL0     N 3561   8.888   6.440   4.832 -0.4910  0.2613  0.3760
   27MOL0     C 3562   9.003   5.955   5.816  1.3962  0.6692 -0.7789
   27MOL0     C 3563   8.906   5.917   5.909  0.7706  0.1278 -0.1252
   27MOL0     C 3564   8.550   5.815   6.164 -0.3369  0.6361 -0.4750
   27MOL0     C 3565   8.442   5.897   6.120 -0.2505 -0.1896  0.6127
   27MOL0     C 3566   8.313   5.870   6.160  0.1042 -0.5945 -1.2101
   27MOL0     C 3567   8.291   5.774   6.260 -0.6158  0.2652  0.6872
   27MOL0     O 3568   8.166   5.767   6.318  0.7823  0.4847 -0.5062
   27MOL0     C 3569   8.089   5.650   6.289 -1.3137 -0.3113 -0.1377
   27MOL0     C 3570   8.010   5.655   6.164 -0.7805 -0.2696  0.5708
   27MOL0     C 3571   7.890   5.568   6.177 -0.7591 -0.6404 -0.0021
   27MOL0     C 3572   7.806   5.559   6.047 -0.0065 -0.3364  0.2572
   27MOL0     C 3573   7.692   5.474   6.076 -0.2686 -0.9684  0.7152
   27MOL0     C 3574   7.615   5.383   6.091  0.1218 -0.4496 -0.6246
   27MOL0     C 3575   8.395   5.698   6.310  0.8874  0.1639 -0.3517
   27MOL0     C 3576   8.524   5.714   6.265 -0.0555 -0.5582 -0.0708
   27MOL0     C 3577   8.638   5.637   6.324  0.4840  0.4016  0.4933
   27MOL0     H 3578   8.623   6.005   5.742 -0.1534 -0.3117  2.7844
   27MOL0     H 3579   8.779   6.087   5.587 -0.4450  0.4284  0.3786
   27MOL0     H 3580   8.949   6.039   5.419 -0.8999  0.2158  0.0173
   27MOL0     H 3581   8.981   6.183   5.510 -0.1563 -0.7274  2.1103
   27MOL0     H 3582   9.197   5.999   5.388 -0.0062 -0.4153 -0.7322
   27MOL0     H 3583   9.219   6.147   5.480 -0.3434 -1.1926  0.5344
   27MOL0     H 3584   9.259   6.154   5.243 -0.0259 -0.6222 -1.4508
   27MOL0     H 3585   9.146   6.282   5.311 -1.7288  0.4832 -1.6883
   27MOL0     H 3586   9.064   6.024   5.172  1.0455  0.0727  0.3985
   27MOL0     H 3587   8.948   6.144   5.199 -0.9998 -0.1530 -2.6376
   27MOL0     H 3588   9.054   6.296   5.052  1.4028  0.2009  0.1115
   27MOL0     H 3589   9.194   6.193   5.024 -0.9440 -1.4694 -0.8482
   27MOL0     H 3590   9.028   6.006   4.945  0.5111  1.1367  0.5583
   27MOL0     H 3591   8.912   6.145   4.912  0.0782  2.3281  1.1942
   27MOL0     H 3592   9.061   6.079   4.720 -4.8028 -0.5795  3.1673
   27MOL0     H 3593   9.192   6.137   4.805  0.2038 -2.0226 -0.4340
   27MOL0     H 3594   9.137   6.364   4.787  1.3825  0.1766 -3.4447
   27MOL0     H 3595   9.098   6.284   4.631 -1.4432  0.1776 -1.0353
   27MOL0     H 3596   8.822   6.239   4.582 -0.2233  1.3184 -1.8793
   27MOL0     H 3597   8.529   6.289   4.694 -1.4716  2.0362  3.0575
   27MOL0     H 3598   8.512   6.457   4.722  1.4524  2.0985 -0.8043
   27MOL0     H 3599   8.647   6.349   4.465  2.7988  0.9859  0.8315
   27MOL0     H 3600   8.479   6.378   4.488  1.1475 -3.9755  3.1558
   27MOL0     H 3601   8.537   6.621   4.558 -0.4744  1.3578 -1.7989
   27MOL0     H 3602   8.533   6.602   4.392 -0.7478  2.6085  1.4333
   27MOL0     H 3603   8.781   6.597   4.562  2.6267  0.3912 -0.9964
   27MOL0     H 3604   8.740   6.727   4.452 -2.1541 -0.4483 -1.7979
   27MOL0     H 3605   9.032   6.648   4.442  0.4009 -0.2668  0.4546
   27MOL0     H 3606   9.177   6.797   4.280 -0.0742 -0.9790  0.7822
   27MOL0     H 3607   9.027   7.059   3.685  0.7845  0.8347 -0.6859
   27MOL0     H 3608   9.195   7.154   3.541  2.1535 -2.2761 -2.9749
   27MOL0     H 3609   9.371   7.184   3.417 -0.8355  2.1279 -1.1180
   27MOL0     H 3610   9.372   7.322   3.518 -0.5822 -0.0725 -1.3274
   27MOL0     H 3611   9.620   7.206   3.389  1.6910  2.0636 -1.5627
   27MOL0     H 3612   9.523   7.350   3.341 -0.2321 -0.6664  0.5058
   27MOL0     H 3613   9.606   7.372   3.620 -1.6096  2.0714  0.1588
   27MOL0     H 3614   9.742   7.338   3.516  0.2284 -0.6194  2.8760
   27MOL0     H 3615   9.545   7.570   3.497  0.2977  0.7130 -1.1720
   27MOL0     H 3616   9.676   7.550   3.387 -0.4498  2.2601  0.4243
   27MOL0     H 3617   9.766   7.705   3.533 -1.2680 -0.4290 -1.1041
   27MOL0     H 3618   9.846   7.564   3.581  1.8200  2.6209  1.3861
   27MOL0     H 3619   9.636   7.546   3.754 -1.1770 -1.3333 -4.2283
   27MOL0     H 3620   9.778   7.652   3.775 -2.0837  1.6222  2.1478
   27MOL0     H 3621   9.568   7.784   3.625  1.6292  3.7672  0.1249
   27MOL0     H 3622   9.688   7.845   3.747 -1.7921  1.2846 -0.2463
   27MOL0     H 3623   9.576   7.728   3.928 -1.2720  0.4076  0.9726
   27MOL0     H 3624   9.490   7.871   3.887  0.2090 -0.5845  1.7552
   27MOL0     H 3625   9.500   6.992   3.781  0.9363  4.1106 -0.8794
   27MOL0     H 3626   9.336   6.875   3.929  1.4306 -0.4954 -0.2990
   27MOL0     H 3627   8.872   6.794   3.991  1.1607  0.0693 -0.9724
   27MOL0     H 3628   8.731   6.630   4.134  0.2070 -1.4379 -0.6196
   27MOL0     H 3629   9.105   5.921   5.832  0.8755 -1.9314 -2.3545
   27MOL0     H 3630   8.948   5.872   5.998  2.3973  1.0102 -0.4184
   27MOL0     H 3631   8.459   5.984   6.057 -0.1679 -1.7224 -1.5696
   27MOL0     H 3632   8.226   5.927   6.130 -0.6651 -0.0567  1.7809
   27MOL0     H 3633   8.021   5.628   6.371  0.1731  0.5682  1.3935
   27MOL0     H 3634   8.160   5.568   6.279 -0.2577  0.4741  0.6984
   27MOL0     H 3635   8.069   5.623   6.078 -1.3914 -0.4141  0.1954
   27MOL0     H 3636   7.981   5.758   6.143  0.3901 -0.0578 -0.0452
   27MOL0     H 3637   7.830   5.612   6.257  1.9204 -1.7751  2.8669
   27MOL0     H 3638   7.914   5.464   6.202  0.3008 -0.6453 -0.9300
   27MOL0     H 3639   7.775   5.656   6.006  0.9876 -0.1681 -0.1278
   27MOL0     H 3640   7.862   5.507   5.969  0.4186  1.3228 -0.5947
   27MOL0     H 3641   7.548   5.306   6.125 -2.5177  1.2719 -1.6228
   27MOL0     H 3642   8.376   5.621   6.385  2.9690 -0.3515 -0.3052
   27MOL0     H 3643   8.662   5.559   6.250 -0.0771  1.3455 -0.7157
   27MOL0     H 3644   8.725   5.702   6.337  1.2658  0.0659 -2.3699
   27MOL0     H 3645   8.598   5.592   6.416  1.4455 -0.0135  0.7221
   28MOL0     O 3646  10.566   8.952   1.670  0.3455 -0.0605  0.6378
   28MOL0     C 3647  10.560   9.016   1.560  0.4788  0.6668 -0.4011
   28MOL0     O 3648  10.450   9.051   1.494  0.2060 -0.1621  0.5587
   28MOL0     C 3649  10.323   9.021   1.545 -0.7248  0.0405 -0.1722
   28MOL0     C 3650  10.227   8.979   1.446 -0.1914 -0.5880 -0.3358
   28MOL0     C 3651  10.097   8.955   1.482 -0.4804  0.2396 -0.0190
   28MOL0     C 3652  10.052   8.976   1.610  0.0100  0.4382  0.4167
   28MOL0     O 3653   9.918   8.945   1.640 -0.0178  0.0954  0.2124
   28MOL0     C 3654   9.847   9.044   1.710 -0.1161  0.1387  0.0729
   28MOL0     C 3655   9.701   9.005   1.708 -0.5805  0.0850  0.0991
   28MOL0     C 3656   9.614   9.126   1.751 -0.0113  0.6951  0.1352
   28MOL0     C 3657   9.474   9.086   1.783 -0.2743 -0.3871 -0.1502
   28MOL0     C 3658   9.374   9.201   1.779 -0.2624  0.0826 -0.8703
   28MOL0     C 3659   9.235   9.143   1.794  0.4198  0.1162 -0.2366
   28MOL0     C 3660   9.201   9.097   1.935 -0.1536  0.5612 -0.1862
   28MOL0     C 3661   9.062   9.038   1.948  0.1972  1.1871  0.5544
   28MOL0     N 3662   9.048   8.912   1.877  0.2031  0.8806  0.3834
   28MOL0     C 3663   9.125   8.803   1.911 -0.4659  0.9115 -0.2866
   28MOL0     C 3664   9.056   8.706   1.838 -0.0712 -0.5234  0.1353
   28MOL0     C 3665   9.098   8.563   1.858 -0.7760 -0.0940  0.1898
   28MOL0     C 3666   9.218   8.518   1.771  0.2380  1.0425 -0.5547
   28MOL0     C 3667   9.353   8.597   1.801  0.8094 -0.4892  0.6267
   28MOL0     C 3668   9.467   8.541   1.712  0.0609  0.2385  0.9793
   28MOL0     O 3669   9.586   8.613   1.735 -0.7736  0.0605  0.1598
   28MOL0     C 3670   9.700   8.574   1.677 -0.7422  0.4966 -1.0996
   28MOL0     C 3671   9.815   8.635   1.725 -0.8575 -0.3421 -0.1858
   28MOL0     C 3672   9.936   8.603   1.670  0.2023 -0.1528 -0.5863
   28MOL0     C 3673   9.945   8.545   1.542  0.6571 -0.4875 -1.3112
   28MOL0     C 3674  10.084   8.527   1.490  0.7882 -0.2266 -0.2336
   28MOL0     O 3675  10.182   8.617   1.517  0.5197  1.4402 -0.7181
   28MOL0     C 3676  10.271   8.644   1.415  0.2415  0.1191  0.6680
   28MOL0     C 3677  10.398   8.698   1.461 -0.7619  0.8834 -0.1470
   28MOL0     C 3678  10.495   8.741   1.369  0.2925  0.4063 -0.1497
   28MOL0     C 3679  10.462   8.734   1.230  0.3782  0.7377  1.0619
   28MOL0     O 3680  10.564   8.775   1.152  0.1902 -0.6358  0.5463
   28MOL0     C 3681  10.598   8.711   1.017 -1.0974 -0.2420 -0.5398
   28MOL0     C 3682  10.718   8.622   1.024 -0.6671 -0.5121 -0.2884
   28MOL0     C 3683  10.720   8.504   0.925  0.5319 -0.2626  0.0559
   28MOL0     C 3684  10.623   8.385   0.951 -0.2903 -0.6470 -0.8346
   28MOL0     C 3685  10.639   8.268   0.847  0.5346 -0.9066 -0.2274
   28MOL0     C 3686  10.513   8.174   0.872 -0.1028  0.1155  0.2831
   28MOL0     C 3687  10.461   8.079   0.767  0.5592  0.1798 -0.1845
   28MOL0     C 3688  10.547   8.003   0.678  0.1457 -0.0939 -0.3096
   28MOL0    Cl 3689  10.660   8.106   0.578  0.1083  0.6008 -0.0283
   28MOL0     C 3690  10.345   8.682   1.181  0.4501  0.2197 -0.6457
   28MOL0     C 3691  10.251   8.630   1.272 -0.1381  0.1311 -0.5109
   28MOL0     O 3692  10.099   8.423   1.432  0.3857 -0.4906  0.6707
   28MOL0     C 3693   9.827   8.487   1.493  0.5330 -0.0008 -0.7275
   28MOL0     C 3694   9.711   8.492   1.565 -0.4782  0.2970  0.0416
   28MOL0     N 3695   8.941   8.746   1.780 -0.3387 -0.0848 -0.0651
   28MOL0     N 3696   8.948   8.873   1.797  0.3988  0.4925 -0.9184
   28MOL0     C 3697  10.146   9.024   1.712 -0.6290 -0.3161  0.5687
   28MOL0     C 3698  10.279   9.050   1.673 -0.8101 -1.0700 -0.5957
   28MOL0     C 3699  10.692   9.064   1.517 -0.9504  0.6490  0.1204
   28MOL0     C 3700  10.802   8.983   1.544  0.0468 -0.6326  0.6384
   28MOL0     C 3701  10.929   9.025   1.509  0.4351 -0.3345 -1.2034
   28MOL0     C 3702  10.954   9.160   1.475  0.2449 -1.1512 -0.1099
   28MOL0     O 3703  11.072   9.222   1.458  0.2855  0.2839 -0.0154
   28MOL0     C 3704  11.198   9.153   1.465  0.2088 -0.0927  0.4175
   28MOL0     C 3705  11.306   9.239   1.408 -0.7157  0.7525  0.2016
   28MOL0     C 3706  11.448   9.207   1.461  1.0475 -0.0935  0.2696
   28MOL0     C 3707  11.557   9.271   1.371  0.7238  0.3769 -0.1976
   28MOL0     C 3708  11.567   9.194   1.249 -0.4747 -0.5692  0.8468
   28MOL0     C 3709  11.570   9.114   1.156  0.2082  0.4580  0.3569
   28MOL0     C 3710  10.846   9.247   1.456 -0.7173  0.3231 -0.4223
   28MOL0     C 3711  10.715   9.198   1.476 -0.5274 -0.1490  0.2054
   28MOL0     C 3712  10.606   9.298   1.436  0.1295  0.2623 -0.3389
   28MOL0     H 3713  10.265   8.956   1.347  0.5893  2.0742 -0.7366
   28MOL0     H 3714  10.035   8.913   1.403 -0.6212 -0.2227  0.3356
   28MOL0     H 3715   9.895   9.064   1.806 -1.7515 -1.3979  1.2682
   28MOL0     H 3716   9.870   9.133   1.651  3.4975  0.5617  1.8476
   28MOL0     H 3717   9.686   8.916   1.771  2.1177  0.0373  0.7754
   28MOL0     H 3718   9.666   8.973   1.610 -1.6465 -1.3200  0.8906
   28MOL0     H 3719   9.616   9.182   1.658 -0.8738 -2.0017 -1.6367
   28MOL0     H 3720   9.659   9.193   1.825 -1.2456  0.4968  1.1056
   28MOL0     H 3721   9.450   9.006   1.712  1.7914 -0.4690 -0.7966
   28MOL0     H 3722   9.471   9.047   1.885  2.1730 -1.1096 -0.3046
   28MOL0     H 3723   9.385   9.265   1.868  1.9060  1.4348 -2.0088
   28MOL0     H 3724   9.385   9.269   1.694 -1.1953  1.3122 -0.0513
   28MOL0     H 3725   9.163   9.214   1.754 -0.5930 -1.0676 -0.5671
   28MOL0     H 3726   9.216   9.059   1.727 -2.8633  2.2758 -2.2704
   28MOL0     H 3727   9.207   9.184   2.000  2.0811  1.1296 -1.0739
   28MOL0     H 3728   9.267   9.015   1.963 -0.2194  0.0532 -1.4269
   28MOL0     H 3729   9.037   9.023   2.053  1.2507  0.3492  0.6914
   28MOL0     H 3730   8.992   9.115   1.912 -1.5313 -0.2688  0.6598
   28MOL0     H 3731   9.212   8.795   1.976 -0.8254 -1.0043  0.0215
   28MOL0     H 3732   9.138   8.549   1.959  1.0498  1.7888 -0.1857
   28MOL0     H 3733   9.016   8.494   1.839 -0.7469 -0.4612  1.3405
   28MOL0     H 3734   9.224   8.415   1.809  1.7150  0.0902 -3.1194
   28MOL0     H 3735   9.198   8.510   1.664 -1.6069 -1.4384 -0.1056
   28MOL0     H 3736   9.367   8.589   1.909 -0.2389 -0.0711  0.8133
   28MOL0     H 3737   9.327   8.700   1.772  1.2832 -0.5956 -0.1995
   28MOL0     H 3738   9.451   8.550   1.605  3.0696  1.2517  0.5128
   28MOL0     H 3739   9.483   8.437   1.741  0.6273 -1.4579 -4.3700
   28MOL0     H 3740   9.817   8.702   1.811  1.3259  0.0118 -0.4524
   28MOL0     H 3741  10.033   8.636   1.707 -0.1462  0.1601  0.0554
   28MOL0     H 3742  10.407   8.709   1.569  2.0950 -0.1741 -0.1973
   28MOL0     H 3743  10.580   8.788   1.418 -2.2128  3.0721  2.0031
   28MOL0     H 3744  10.511   8.649   0.994 -1.7694 -0.5141  2.3140
   28MOL0     H 3745  10.613   8.793   0.947 -1.8378 -1.2649 -1.9359
   28MOL0     H 3746  10.803   8.690   1.015 -1.6391  1.0887  1.8845
   28MOL0     H 3747  10.720   8.579   1.125  1.1488  1.3224  0.5269
   28MOL0     H 3748  10.676   8.549   0.836  0.6955  1.1133  0.6419
   28MOL0     H 3749  10.815   8.452   0.906  1.7480  1.1437  1.8534
   28MOL0     H 3750  10.522   8.426   0.962 -0.3012 -0.3940 -1.7770
   28MOL0     H 3751  10.656   8.348   1.049 -0.7819  0.1193 -0.3705
   28MOL0     H 3752  10.736   8.219   0.839  1.3112  0.7834 -1.9849
   28MOL0     H 3753  10.629   8.320   0.751  1.6966  1.4489  0.8340
   28MOL0     H 3754  10.544   8.114   0.959 -1.1154 -4.8188 -2.3667
   28MOL0     H 3755  10.420   8.229   0.891 -1.1047 -0.1483 -3.2270
   28MOL0     H 3756  10.396   8.140   0.704  0.8452 -0.4321 -1.0932
   28MOL0     H 3757  10.401   8.004   0.819  0.6542 -0.2422 -0.6718
   28MOL0     H 3758  10.604   7.924   0.729  1.3630  0.3266 -0.9614
   28MOL0     H 3759  10.483   7.954   0.605 -3.0327  0.1399  2.1105
   28MOL0     H 3760  10.321   8.679   1.075 -4.4105  1.7106  0.1614
   28MOL0     H 3761  10.161   8.581   1.238 -0.1121 -1.8428  1.9348
   28MOL0     H 3762   9.831   8.426   1.403 -2.8591  1.4371 -2.0033
   28MOL0     H 3763   9.625   8.438   1.527  0.3896 -2.4266  1.6783
   28MOL0     H 3764  10.106   9.032   1.812 -0.7022 -1.1584  0.6155
   28MOL0     H 3765  10.352   9.096   1.739 -0.5543  0.3143 -1.7780
   28MOL0     H 3766  10.788   8.880   1.575 -1.2356 -0.7155 -0.1558
   28MOL0     H 3767  11.007   8.952   1.525 -0.3386 -0.8314  0.5816
   28MOL0     H 3768  11.195   9.062   1.404 -1.0049  0.4054 -0.2964
   28MOL0     H 3769  11.213   9.122   1.569 -2.7612 -0.7119  0.7506
   28MOL0     H 3770  11.285   9.346   1.418 -1.7648  0.4025  2.3084
   28MOL0     H 3771  11.309   9.210   1.303  0.0581 -1.6346  0.8389
   28MOL0     H 3772  11.444   9.098   1.476 -3.2349 -0.0855  0.6054
   28MOL0     H 3773  11.459   9.256   1.558  2.8239 -1.9669  1.0986
   28MOL0     H 3774  11.516   9.371   1.352 -1.0386 -0.3221 -0.2761
   28MOL0     H 3775  11.651   9.258   1.425 -0.5495 -1.7310  1.6862
   28MOL0     H 3776  11.561   9.048   1.072 -0.3031 -2.4693  2.5834
   28MOL0     H 3777  10.871   9.351   1.441 -0.4799  0.1712 -1.1033
   28MOL0     H 3778  10.530   9.314   1.513 -2.1339 -0.5892 -2.2292
   28MOL0     H 3779  10.646   9.390   1.394  2.4544 -0.1899  0.7299
   28MOL0     H 3780  10.540   9.275   1.351  0.0833  0.8086 -0.4540
   29MOL0     O 3781   3.280   0.294   3.859  0.1216  0.4726  0.2874
   29MOL0     C 3782   3.305   0.377   3.766  0.4540 -0.0494 -0.2325
   29MOL0     O 3783   3.430   0.407   3.723 -0.5017  0.5622 -0.2160
   29MOL0     C 3784   3.535   0.321   3.757  0.1383  0.4708  0.0193
   29MOL0     C 3785   3.530   0.177   3.764 -0.1211 -0.6029 -1.4729
   29MOL0     C 3786   3.639   0.097   3.789 -0.7560 -0.3120 -0.3945
   29MOL0     C 3787   3.761   0.159   3.811  0.5520 -0.2983  0.1253
   29MOL0     O 3788   3.872   0.073   3.831 -0.1321  0.0841  0.0068
   29MOL0     C 3789   4.007   0.121   3.814 -0.1276  0.3397  0.5735
   29MOL0     C 3790   4.094  -0.002   3.809  0.4295 -0.2312 -0.0854
   29MOL0     C 3791   4.118  -0.068   3.944 -0.0074  0.4876 -0.1406
   29MOL0     C 3792   4.197  -0.202   3.926  0.5421 -0.4594 -0.6069
   29MOL0     C 3793   4.116  -0.324   3.907 -0.7349 -0.0159  0.3136
   29MOL0     C 3794   4.198  -0.452   3.874  0.5548  0.5711  0.1152
   29MOL0     C 3795   4.302  -0.482   3.987 -0.4034 -0.4660 -0.3395
   29MOL0     C 3796   4.363  -0.618   3.945  1.4013 -0.6593  0.1652
   29MOL0     N 3797   4.468  -0.664   4.034 -0.4672 -0.0261 -0.1255
   29MOL0     C 3798   4.457  -0.666   4.168 -0.6462  0.1817  0.6425
   29MOL0     C 3799   4.576  -0.717   4.210 -0.2597 -0.0823  0.2096
   29MOL0     C 3800   4.618  -0.724   4.354  0.6272  0.0635 -0.1299
   29MOL0     C 3801   4.747  -0.628   4.374  0.1511  0.3986  0.0246
   29MOL0     C 3802   4.824  -0.663   4.500 -0.2458  0.6575 -0.4649
   29MOL0     C 3803   4.948  -0.578   4.525 -0.0251  0.4640 -0.8028
   29MOL0     O 3804   4.906  -0.463   4.600  0.0605 -0.3507 -0.5218
   29MOL0     C 3805   5.000  -0.373   4.644  0.0088  0.0321  0.6561
   29MOL0     C 3806   4.961  -0.261   4.716 -0.0251  0.3082 -0.3005
   29MOL0     C 3807   5.054  -0.171   4.775 -0.0800 -0.7390 -0.1118
   29MOL0     C 3808   5.191  -0.192   4.748  0.1386  0.1368 -0.2081
   29MOL0     C 3809   5.292  -0.106   4.812 -0.2376 -0.4092  1.1426
   29MOL0     O 3810   5.255  -0.058   4.935 -0.7771 -0.2813 -0.3094
   29MOL0     C 3811   5.339   0.024   5.014  0.6594  0.2059 -0.5273
   29MOL0     C 3812   5.474   0.020   5.013 -0.9096  0.2937 -0.5253
   29MOL0     C 3813   5.552   0.104   5.097  0.4363 -0.3954 -0.2452
   29MOL0     C 3814   5.491   0.203   5.181  0.0677  0.4865  0.1517
   29MOL0     O 3815   5.576   0.291   5.252 -0.2147  0.1913  0.4912
   29MOL0     C 3816   5.523   0.343   5.376 -0.7544  0.4766 -0.3033
   29MOL0     C 3817   5.623   0.326   5.495  0.8624  0.2528 -0.2701
   29MOL0     C 3818   5.540   0.360   5.620 -0.3553  0.0552  0.5811
   29MOL0     C 3819   5.617   0.337   5.753  0.7952  0.2869  0.8111
   29MOL0     C 3820   5.723   0.440   5.785  0.6798 -0.2307 -0.8038
   29MOL0     C 3821   5.677   0.577   5.813 -0.6129 -0.9036 -0.2359
   29MOL0     C 3822   5.786   0.660   5.869  0.5252 -0.1674  0.2787
   29MOL0     C 3823   5.803   0.792   5.796 -0.6135  0.3898  0.0894
   29MOL0    Cl 3824   5.908   0.792   5.648  0.0733  0.1832 -0.2366
   29MOL0     C 3825   5.348   0.194   5.187 -0.5993  0.6126  0.2726
   29MOL0     C 3826   5.272   0.110   5.105  1.1094  0.5616 -0.0733
   29MOL0     O 3827   5.395  -0.079   4.749 -0.5787 -0.1208 -0.6732
   29MOL0     C 3828   5.234  -0.304   4.668  0.4761 -0.6722 -0.4223
   29MOL0     C 3829   5.136  -0.394   4.616 -0.5028 -0.4945  0.6025
   29MOL0     N 3830   4.645  -0.764   4.105  0.2661 -0.0336  0.2720
   29MOL0     N 3831   4.581  -0.739   4.001  0.1808 -0.2468  1.0406
   29MOL0     C 3832   3.764   0.309   3.805 -0.0301 -0.2762  0.9308
   29MOL0     C 3833   3.655   0.388   3.778 -0.1321 -0.0106 -0.3320
   29MOL0     C 3834   3.192   0.456   3.704  0.0702  0.2808 -0.4333
   29MOL0     C 3835   3.232   0.546   3.604  0.9473 -0.7300 -0.0910
   29MOL0     C 3836   3.131   0.611   3.534  0.4084 -0.5742  0.5443
   29MOL0     C 3837   2.996   0.603   3.571  0.5489 -0.2238  0.8721
   29MOL0     O 3838   2.895   0.679   3.516 -0.8222 -0.6239  0.2829
   29MOL0     C 3839   2.923   0.819   3.520  0.5249  0.1590  1.0569
   29MOL0     C 3840   2.792   0.891   3.459 -0.3541  0.4478 -0.2593
   29MOL0     C 3841   2.795   1.040   3.480 -0.8192 -0.5081 -0.6150
   29MOL0     C 3842   2.681   1.120   3.415  0.6495  0.7033  0.3422
   29MOL0     C 3843   2.545   1.056   3.430 -0.1668  0.1759 -0.0139
   29MOL0     C 3844   2.438   1.001   3.450  0.5870 -0.3448 -0.4220
   29MOL0     C 3845   2.962   0.528   3.679  0.4524 -0.2248 -0.6559
   29MOL0     C 3846   3.061   0.446   3.743  1.6455 -0.7142  0.5932
   29MOL0     C 3847   3.016   0.386   3.881  0.1472  0.6366  0.0477
   29MOL0     H 3848   3.439   0.118   3.752 -1.2177  0.6835  0.0462
   29MOL0     H 3849   3.630  -0.010   3.800  1.8102 -0.8630 -2.5639
   29MOL0     H 3850   4.019   0.185   3.726  4.2479 -0.1397  0.6365
   29MOL0     H 3851   4.038   0.185   3.897  1.8194 -2.1174  1.8888
   29MOL0     H 3852   4.196   0.022   3.777  0.7017  0.9636  1.5540
   29MOL0     H 3853   4.055  -0.068   3.731 -1.1514  0.6919 -0.1219
   29MOL0     H 3854   4.021  -0.077   3.993 -0.8619 -0.4580 -1.8981
   29MOL0     H 3855   4.177   0.008   3.997  3.2193 -1.8510 -0.0579
   29MOL0     H 3856   4.267  -0.195   3.842 -0.8907  0.3881 -1.7868
   29MOL0     H 3857   4.249  -0.222   4.020 -0.7155  0.8304  0.4231
   29MOL0     H 3858   4.057  -0.335   3.998  1.3449 -3.1292  1.4468
   29MOL0     H 3859   4.038  -0.298   3.835  1.6174  4.4484 -1.0086
   29MOL0     H 3860   4.130  -0.538   3.869  0.9017  0.2369  0.9638
   29MOL0     H 3861   4.248  -0.448   3.776  0.6084 -1.6501 -0.0162
   29MOL0     H 3862   4.246  -0.492   4.080 -2.7451 -0.9705 -1.7505
   29MOL0     H 3863   4.371  -0.397   3.996 -0.6702 -0.4043  1.4972
   29MOL0     H 3864   4.278  -0.686   3.958  1.5200 -0.7522  0.4475
   29MOL0     H 3865   4.396  -0.608   3.841  0.6054 -0.8220 -0.1088
   29MOL0     H 3866   4.371  -0.634   4.227 -1.2680 -3.0448  1.7174
   29MOL0     H 3867   4.532  -0.688   4.410 -0.2694 -1.6747 -0.3206
   29MOL0     H 3868   4.645  -0.828   4.375 -0.9170 -0.7338 -1.7582
   29MOL0     H 3869   4.808  -0.637   4.283  0.1769  0.0749  0.0718
   29MOL0     H 3870   4.716  -0.524   4.387  2.7143  0.9437  3.1550
   29MOL0     H 3871   4.860  -0.764   4.478  0.1547  1.1982 -2.5301
   29MOL0     H 3872   4.769  -0.678   4.593  2.0034 -0.6499  0.7622
   29MOL0     H 3873   5.004  -0.554   4.434  3.1555 -1.1211  0.6168
   29MOL0     H 3874   5.009  -0.644   4.587 -1.4298  0.7499  0.9725
   29MOL0     H 3875   4.855  -0.256   4.739 -0.5875 -1.5415 -2.1832
   29MOL0     H 3876   5.029  -0.085   4.835  1.3412  0.8996 -1.7139
   29MOL0     H 3877   5.532  -0.054   4.960  1.1376  0.5704  1.1990
   29MOL0     H 3878   5.658   0.106   5.073  0.6557  4.8158 -0.0547
   29MOL0     H 3879   5.513   0.452   5.370  0.1765  0.7429  1.9556
   29MOL0     H 3880   5.426   0.299   5.401 -1.2297  1.0061 -1.1802
   29MOL0     H 3881   5.667   0.227   5.502  1.2938  0.5411  1.8081
   29MOL0     H 3882   5.692   0.410   5.483 -1.1653  2.0540 -0.0974
   29MOL0     H 3883   5.504   0.463   5.613 -1.1069 -0.3070 -1.8406
   29MOL0     H 3884   5.457   0.288   5.618  1.4416 -2.2350 -2.8804
   29MOL0     H 3885   5.658   0.237   5.740 -0.4790  0.0573 -2.0790
   29MOL0     H 3886   5.537   0.327   5.828  0.5292 -1.8860  0.2969
   29MOL0     H 3887   5.792   0.454   5.700  1.5461 -0.5388 -0.1659
   29MOL0     H 3888   5.780   0.398   5.868 -0.0738  0.0256 -0.1437
   29MOL0     H 3889   5.629   0.621   5.726 -3.4539  0.0757  1.6999
   29MOL0     H 3890   5.599   0.574   5.890  0.6064 -4.4591  1.1077
   29MOL0     H 3891   5.885   0.614   5.861  1.6657  2.0933  0.4639
   29MOL0     H 3892   5.758   0.688   5.971 -2.6926  0.1481 -0.5939
   29MOL0     H 3893   5.707   0.841   5.777 -0.4325  1.4621  1.7779
   29MOL0     H 3894   5.849   0.855   5.872 -2.9235  2.9484 -0.4235
   29MOL0     H 3895   5.290   0.262   5.249 -1.7108  1.9849 -2.1383
   29MOL0     H 3896   5.164   0.101   5.101  0.6446  3.4771  2.1383
   29MOL0     H 3897   5.337  -0.323   4.640  0.5673  0.0142 -0.5847
   29MOL0     H 3898   5.169  -0.486   4.569 -0.0754 -0.2343  0.3898
   29MOL0     H 3899   3.859   0.359   3.816  0.9335 -2.2101  2.1049
   29MOL0     H 3900   3.667   0.494   3.756  5.2055 -0.0734  1.0371
   29MOL0     H 3901   3.335   0.559   3.571  0.5114 -0.2973 -1.3249
   29MOL0     H 3902   3.163   0.690   3.467 -0.5443  1.1279  2.0050
   29MOL0     H 3903   3.011   0.842   3.459 -2.0810 -0.6884 -3.4775
   29MOL0     H 3904   2.943   0.837   3.626  1.0694  2.1149  0.6561
   29MOL0     H 3905   2.710   0.855   3.521 -0.9730  5.4317  2.3386
   29MOL0     H 3906   2.780   0.860   3.355  0.8276 -2.2822  0.3200
   29MOL0     H 3907   2.888   1.094   3.463  0.8287 -1.8582  3.0739
   29MOL0     H 3908   2.775   1.059   3.585  2.2313 -0.2692  0.0095
   29MOL0     H 3909   2.675   1.220   3.457  1.5775  0.4933  0.9996
   29MOL0     H 3910   2.710   1.135   3.310  0.7274 -0.4122  0.1946
   29MOL0     H 3911   2.350   0.946   3.474 -1.4347  2.5861 -0.6558
   29MOL0     H 3912   2.861   0.543   3.716  0.6209  1.5970 -0.8379
   29MOL0     H 3913   3.095   0.411   3.953  1.6073  0.2781 -1.3685
   29MOL0     H 3914   2.927   0.444   3.905 -0.4821 -0.5125  0.5352
   29MOL0     H 3915   2.982   0.283   3.869 -0.4414  1.1014 -2.7947
   30MOL0     O 3916  11.117   9.921   1.761 -0.1941  0.0501 -0.3210
   30MOL0     C 3917  11.169   9.832   1.818  0.1361  0.1793  0.3188
   30MOL0     O 3918  11.117   9.752   1.917  0.6468  0.1973  0.1314
   30MOL0     C 3919  11.000   9.776   1.981 -0.1402  0.8333 -1.2010
   30MOL0     C 3920  10.930   9.666   2.027  0.0137 -0.2088 -0.0979
   30MOL0     C 3921  10.799   9.688   2.073 -0.6921  0.1326  0.1840
   30MOL0     C 3922  10.740   9.825   2.081  0.3260 -0.1465  0.9431
   30MOL0     O 3923  10.614   9.848   2.140 -1.0205 -0.5033  0.0280
   30MOL0     C 3924  10.524   9.735   2.162  0.1746  0.0655  0.2844
   30MOL0     C 3925  10.394   9.795   2.184  0.1301 -0.6514  0.0123
   30MOL0     C 3926  10.271   9.701   2.202 -0.3866  0.4347 -0.4660
   30MOL0     C 3927  10.156   9.759   2.287 -0.0860 -0.5138 -0.5829
   30MOL0     C 3928  10.021   9.675   2.288 -0.2174 -0.0160 -1.0028
   30MOL0     C 3929  10.038   9.530   2.347 -0.5230 -0.3715 -0.4340
   30MOL0     C 3930   9.922   9.445   2.305  0.2342  0.2983 -0.0582
   30MOL0     C 3931   9.784   9.507   2.357 -0.2935  0.3194  0.9167
   30MOL0     N 3932   9.674   9.412   2.340  0.5450 -0.0904 -1.3403
   30MOL0     C 3933   9.628   9.320   2.428 -0.5313  0.3604  0.7946
   30MOL0     C 3934   9.545   9.239   2.358  0.3906  0.3286 -0.2368
   30MOL0     C 3935   9.459   9.124   2.426 -0.0065 -0.1149 -0.1324
   30MOL0     C 3936   9.342   9.152   2.519 -0.0402  0.3080  0.3603
   30MOL0     C 3937   9.306   9.012   2.575 -0.2200  0.5863  0.1638
   30MOL0     C 3938   9.161   9.022   2.619 -0.7611  0.0342  1.7497
   30MOL0     O 3939   9.070   9.028   2.505 -0.1837  0.0397 -0.0842
   30MOL0     C 3940   8.936   9.007   2.520  0.7997  0.2000  0.6742
   30MOL0     C 3941   8.867   9.087   2.429  0.5058  0.3268  0.6319
   30MOL0     C 3942   8.731   9.068   2.413 -0.4375  0.5010  1.2813
   30MOL0     C 3943   8.663   8.970   2.488  0.2483  0.9150  0.4666
   30MOL0     C 3944   8.517   8.952   2.491  0.7688 -0.4685 -0.1016
   30MOL0     O 3945   8.446   9.025   2.403 -0.1034  0.2021  0.7466
   30MOL0     C 3946   8.309   9.017   2.404 -0.2388 -0.0230 -0.2176
   30MOL0     C 3947   8.241   8.929   2.323  0.6277 -0.3824  0.1426
   30MOL0     C 3948   8.105   8.935   2.322 -0.6134 -0.7241  1.0541
   30MOL0     C 3949   8.035   9.018   2.401 -0.2491  0.5049 -0.8283
   30MOL0     O 3950   7.903   9.020   2.413  0.7392 -0.7691  0.1256
   30MOL0     C 3951   7.852   8.923   2.509 -0.7981  0.5408 -0.3634
   30MOL0     C 3952   7.705   8.913   2.489 -0.6193 -0.9686  0.1783
   30MOL0     C 3953   7.639   8.805   2.569 -1.3329 -1.0923 -0.3570
   30MOL0     C 3954   7.503   8.781   2.510  0.2742  0.2538  0.3276
   30MOL0     C 3955   7.407   8.703   2.608 -0.3620  0.0165 -0.1790
   30MOL0     C 3956   7.264   8.736   2.581  0.1111 -0.2527 -0.0411
   30MOL0     C 3957   7.167   8.667   2.687  0.4683  0.1893  0.3010
   30MOL0     C 3958   7.018   8.684   2.652 -1.0892 -0.5568  0.0981
   30MOL0    Cl 3959   6.965   8.586   2.501 -0.0151  0.1073 -0.2502
   30MOL0     C 3960   8.102   9.111   2.484  0.5829  0.4342  0.1058
   30MOL0     C 3961   8.241   9.102   2.489  1.0437 -0.1744 -0.9144
   30MOL0     O 3962   8.468   8.879   2.577  1.0310  0.0156 -0.5784
   30MOL0     C 3963   8.731   8.899   2.587 -0.2728 -0.4037  0.5286
   30MOL0     C 3964   8.868   8.923   2.608  0.1823  0.0870  0.6419
   30MOL0     N 3965   9.523   9.294   2.229  0.3398  0.8323 -0.0428
   30MOL0     N 3966   9.603   9.402   2.214  0.0933 -0.6278 -1.1669
   30MOL0     C 3967  10.825   9.932   2.050  0.2489  0.0280 -0.0094
   30MOL0     C 3968  10.949   9.904   1.996  0.2726 -0.5648 -0.1120
   30MOL0     C 3969  11.305   9.787   1.762 -0.3077  0.4826  0.0361
   30MOL0     C 3970  11.358   9.824   1.627  0.5775 -0.7549 -0.6502
   30MOL0     C 3971  11.468   9.763   1.569 -0.6322  0.4029 -0.9627
   30MOL0     C 3972  11.555   9.691   1.653  0.3372  0.2893 -1.1246
   30MOL0     O 3973  11.681   9.651   1.609 -0.7313  0.4350 -0.8122
   30MOL0     C 3974  11.755   9.733   1.521  0.2563 -0.4234  0.1033
   30MOL0     C 3975  11.787   9.875   1.586  0.1427 -0.2976  0.2135
   30MOL0     C 3976  11.886   9.957   1.497  0.3316 -0.0271  0.2701
   30MOL0     C 3977  11.855   9.959   1.352 -0.7298  0.3705  0.6577
   30MOL0     C 3978  11.712   9.971   1.320  0.3244 -0.7802 -0.9567
   30MOL0     C 3979  11.598   9.982   1.279  0.0251  0.2359 -0.0279
   30MOL0     C 3980  11.513   9.661   1.785 -0.3555  0.3878  0.1076
   30MOL0     C 3981  11.388   9.697   1.838 -0.0561  0.1557 -0.0121
   30MOL0     C 3982  11.354   9.657   1.990 -0.7972 -0.0613 -0.2010
   30MOL0     H 3983  10.969   9.565   2.015  0.1605  0.0252 -1.7121
   30MOL0     H 3984  10.741   9.608   2.116  1.5973 -1.5099  0.3527
   30MOL0     H 3985  10.506   9.674   2.073 -3.0073  1.9869 -0.5691
   30MOL0     H 3986  10.545   9.671   2.248  0.0799 -0.5919 -0.1747
   30MOL0     H 3987  10.380   9.873   2.109  2.9181 -0.3317 -0.2811
   30MOL0     H 3988  10.409   9.852   2.276 -0.5056  1.2875 -1.0312
   30MOL0     H 3989  10.312   9.609   2.246 -0.0508  0.4520 -0.7418
   30MOL0     H 3990  10.243   9.685   2.098  1.3059  2.4120 -1.2945
   30MOL0     H 3991  10.195   9.766   2.389  1.4719 -1.2954 -1.1005
   30MOL0     H 3992  10.120   9.860   2.268  0.2124  0.3349  2.7114
   30MOL0     H 3993   9.953   9.724   2.358 -0.1908 -1.1828 -0.1335
   30MOL0     H 3994   9.988   9.688   2.185 -1.0554  1.7324 -0.5571
   30MOL0     H 3995  10.136   9.490   2.319  1.0645  3.3230 -0.7599
   30MOL0     H 3996  10.043   9.535   2.456 -2.0733 -1.6150 -0.2658
   30MOL0     H 3997   9.935   9.343   2.343 -1.1671 -2.0708 -4.9884
   30MOL0     H 3998   9.905   9.428   2.198  0.2284 -0.2824  0.0315
   30MOL0     H 3999   9.795   9.527   2.464 -2.9258  0.8993  1.1289
   30MOL0     H 4000   9.758   9.600   2.306  1.8123 -1.0789 -3.2249
   30MOL0     H 4001   9.655   9.306   2.533  2.0742  1.1953  0.3179
   30MOL0     H 4002   9.410   9.070   2.344 -2.0400  0.5281  0.5990
   30MOL0     H 4003   9.525   9.052   2.477  0.3082  0.2509 -0.0252
   30MOL0     H 4004   9.370   9.219   2.601  1.6699 -0.0968  0.1556
   30MOL0     H 4005   9.259   9.193   2.461  0.5529  0.4422 -0.4033
   30MOL0     H 4006   9.380   8.987   2.651  2.2220  1.6780 -1.7370
   30MOL0     H 4007   9.308   8.938   2.493 -0.5952 -0.9373  1.4742
   30MOL0     H 4008   9.142   9.099   2.694 -0.0477  0.9201  1.0407
   30MOL0     H 4009   9.143   8.927   2.672 -2.5447 -0.5003  0.2536
   30MOL0     H 4010   8.928   9.132   2.351 -1.1100 -0.7519 -1.3602
   30MOL0     H 4011   8.675   9.136   2.350  0.3221  0.2788  0.3433
   30MOL0     H 4012   8.282   8.868   2.243 -0.8897 -1.2374 -0.0155
   30MOL0     H 4013   8.034   8.882   2.259 -2.9354  2.1317  1.0512
   30MOL0     H 4014   7.892   8.823   2.494 -1.5049  0.3907 -1.3827
   30MOL0     H 4015   7.875   8.959   2.610 -0.7731 -0.0739 -0.1499
   30MOL0     H 4016   7.656   9.009   2.504 -1.5771 -1.1719 -1.3980
   30MOL0     H 4017   7.693   8.880   2.385  2.8360 -2.2707  0.0349
   30MOL0     H 4018   7.697   8.712   2.563 -1.4309 -1.1091 -1.2398
   30MOL0     H 4019   7.644   8.838   2.673  3.6428 -1.2586 -0.3072
   30MOL0     H 4020   7.521   8.728   2.415 -0.3945 -1.8978  1.3274
   30MOL0     H 4021   7.454   8.877   2.492 -1.2571 -0.4058  0.7867
   30MOL0     H 4022   7.432   8.725   2.712  1.9798  0.0334 -0.7021
   30MOL0     H 4023   7.421   8.595   2.602  0.9588  0.1803 -0.3030
   30MOL0     H 4024   7.246   8.843   2.593 -1.2138 -0.5546  0.7984
   30MOL0     H 4025   7.229   8.722   2.478  1.5469 -2.5476 -0.2846
   30MOL0     H 4026   7.196   8.694   2.789 -2.0855 -0.3599  1.2312
   30MOL0     H 4027   7.190   8.561   2.668  2.4238  0.7218 -0.5841
   30MOL0     H 4028   6.963   8.647   2.739 -3.0367 -1.5325 -1.4610
   30MOL0     H 4029   6.998   8.791   2.639 -1.6805 -0.5653  0.8553
   30MOL0     H 4030   8.045   9.179   2.546  2.0013  0.7581  1.1102
   30MOL0     H 4031   8.303   9.167   2.549 -0.9593 -0.3890  1.5558
   30MOL0     H 4032   8.679   8.831   2.653  0.2021 -0.6694  0.6352
   30MOL0     H 4033   8.910   8.853   2.679  1.5968 -0.0396 -0.2769
   30MOL0     H 4034  10.786  10.033   2.051  0.0327  0.0344 -2.3031
   30MOL0     H 4035  11.007   9.992   1.966 -2.2949  0.3368 -2.9897
   30MOL0     H 4036  11.298   9.896   1.573  1.2621 -1.0524 -1.8372
   30MOL0     H 4037  11.500   9.787   1.468  3.5124  0.5533  0.1907
   30MOL0     H 4038  11.706   9.742   1.424  0.1036 -1.4622  0.0727
   30MOL0     H 4039  11.847   9.680   1.496  0.0984 -0.4567 -0.4124
   30MOL0     H 4040  11.834   9.867   1.685 -2.7558 -2.1681  1.5825
   30MOL0     H 4041  11.695   9.928   1.611  0.0632 -0.9866  1.4690
   30MOL0     H 4042  11.986   9.916   1.513  0.7740  1.1404  0.5877
   30MOL0     H 4043  11.889  10.061   1.531 -2.7988 -0.3274  1.9083
   30MOL0     H 4044  11.919  10.036   1.308  1.3595 -1.6651 -0.1025
   30MOL0     H 4045  11.893   9.864   1.313 -0.6532  0.8424 -0.4270
   30MOL0     H 4046  11.492   9.984   1.261  0.1871  0.1523 -1.0771
   30MOL0     H 4047  11.580   9.596   1.840 -2.2121 -0.2671  1.7542
   30MOL0     H 4048  11.279   9.577   1.994  0.0084 -0.7849  1.2463
   30MOL0     H 4049  11.448   9.626   2.035 -2.2192 -3.3910  0.7977
   30MOL0     H 4050  11.310   9.740   2.047 -2.1887 -2.3186  2.2391
   31MOL0     O 4051   9.379   4.907   4.654 -0.8496  0.4505 -0.4236
   31MOL0     C 4052   9.375   4.854   4.768 -0.0065  0.0239 -0.1971
   31MOL0     O 4053   9.478   4.788   4.829  0.3503  0.5618  0.0915
   31MOL0     C 4054   9.607   4.796   4.772 -0.1493  0.8797  1.4728
   31MOL0     C 4055   9.657   4.681   4.702 -0.3206 -0.2405 -0.2455
   31MOL0     C 4056   9.778   4.694   4.642 -0.1107 -0.3218 -0.4358
   31MOL0     C 4057   9.862   4.804   4.664  0.6667 -0.3284 -0.2681
   31MOL0     O 4058   9.986   4.817   4.610 -0.5015  0.4366 -0.3817
   31MOL0     C 4059  10.016   4.773   4.479  0.5960  0.1267  0.4626
   31MOL0     C 4060  10.070   4.895   4.408  0.7865  0.3158  0.0752
   31MOL0     C 4061  10.186   4.962   4.489 -0.0054  0.6640 -1.0261
   31MOL0     C 4062  10.266   5.062   4.411 -0.0553  0.2339 -0.5126
   31MOL0     C 4063  10.374   5.107   4.515  0.1595  0.3105 -0.5145
   31MOL0     C 4064  10.492   5.190   4.472 -0.1444  0.3394 -0.2229
   31MOL0     C 4065  10.578   5.241   4.596  0.7546 -0.1147  0.0697
   31MOL0     C 4066  10.529   5.369   4.658  0.1688 -0.4956  0.4988
   31MOL0     N 4067  10.501   5.489   4.573 -0.0135  0.8668  0.0580
   31MOL0     C 4068  10.593   5.549   4.494 -0.2014  0.1075 -1.1795
   31MOL0     C 4069  10.529   5.657   4.437 -0.1664  0.6044  0.2044
   31MOL0     C 4070  10.580   5.763   4.333  0.2801  0.3377 -0.2159
   31MOL0     C 4071  10.515   5.741   4.202 -0.0882  0.1892  0.2917
   31MOL0     C 4072  10.582   5.830   4.097  0.2394  0.0020  0.4455
   31MOL0     C 4073  10.559   5.777   3.955  1.0167 -0.5365 -0.8969
   31MOL0     O 4074  10.618   5.654   3.921 -0.3185  0.2922 -0.9612
   31MOL0     C 4075  10.747   5.657   3.874  0.8064  0.7834  0.1453
   31MOL0     C 4076  10.843   5.754   3.887 -1.1858 -0.5786 -0.3147
   31MOL0     C 4077  10.975   5.735   3.829  0.7078 -0.1472  0.4761
   31MOL0     C 4078  11.004   5.622   3.741 -0.6008 -0.1559 -0.5327
   31MOL0     C 4079  11.136   5.596   3.679 -0.3803  1.0858 -0.0309
   31MOL0     O 4080  11.132   5.516   3.565 -0.1091  0.3561 -0.3615
   31MOL0     C 4081  11.242   5.482   3.482  0.2411  0.1442 -0.3469
   31MOL0     C 4082  11.207   5.421   3.361 -0.8675 -0.3863 -0.2440
   31MOL0     C 4083  11.306   5.373   3.273  0.8820 -0.7306  1.1915
   31MOL0     C 4084  11.440   5.370   3.307  0.2239  0.2887 -0.4850
   31MOL0     O 4085  11.534   5.310   3.233  0.2499  0.0295  0.1052
   31MOL0     C 4086  11.527   5.274   3.100 -0.7042  0.6797  0.7803
   31MOL0     C 4087  11.664   5.213   3.043 -0.1101 -0.4396  0.3097
   31MOL0     C 4088  11.652   5.176   2.898  0.0202  0.0028  0.2131
   31MOL0     C 4089  11.787   5.121   2.852  0.3792  0.7418  0.5214
   31MOL0     C 4090  11.775   5.025   2.725 -0.5114 -0.3338  0.1161
   31MOL0     C 4091  11.910   5.009   2.651 -0.3204 -0.3038 -0.6110
   31MOL0     C 4092  11.911   4.975   2.508  0.1961 -0.2514 -0.4984
   31MOL0     C 4093  12.044   4.981   2.440 -0.0122  1.1027 -0.1777
   31MOL0    Cl 4094  12.162   5.097   2.512 -0.3710 -0.1442 -0.3339
   31MOL0     C 4095  11.478   5.427   3.425  0.7302  0.6641 -0.3004
   31MOL0     C 4096  11.384   5.486   3.519 -0.1724  0.4204  0.5307
   31MOL0     O 4097  11.226   5.665   3.720  0.0672 -0.7405 -0.1072
   31MOL0     C 4098  10.903   5.534   3.722  0.0541  0.1929  0.1692
   31MOL0     C 4099  10.783   5.541   3.798 -0.0129  0.2104 -0.1270
   31MOL0     N 4100  10.394   5.650   4.476 -0.6500  0.3257  0.1723
   31MOL0     N 4101  10.378   5.544   4.556 -0.4781 -0.5512 -0.7807
   31MOL0     C 4102   9.822   4.910   4.737  0.1730  1.0861 -1.4826
   31MOL0     C 4103   9.694   4.907   4.792  0.3098  0.6538 -0.2001
   31MOL0     C 4104   9.252   4.853   4.834 -0.2030 -0.1332  1.3098
   31MOL0     C 4105   9.134   4.826   4.755 -0.4281  0.2009  0.1372
   31MOL0     C 4106   9.012   4.829   4.822  0.7594 -0.3117 -0.8743
   31MOL0     C 4107   8.996   4.834   4.959  0.4345  0.1706  0.1075
   31MOL0     O 4108   8.884   4.844   5.044 -0.2858  0.5061  0.3685
   31MOL0     C 4109   8.763   4.812   4.979 -0.2174 -0.7361 -0.5209
   31MOL0     C 4110   8.649   4.840   5.081  0.4809 -0.2849 -0.6831
   31MOL0     C 4111   8.520   4.829   5.000  0.1977  0.2596 -0.0132
   31MOL0     C 4112   8.393   4.819   5.081  0.0261  0.0812  0.1116
   31MOL0     C 4113   8.396   4.690   5.153 -0.2347  0.1293 -0.3827
   31MOL0     C 4114   8.425   4.587   5.218  0.2134  1.1793  0.6206
   31MOL0     C 4115   9.115   4.859   5.033  1.1500 -0.4263  0.5235
   31MOL0     C 4116   9.243   4.872   4.966  0.4664 -0.5151 -0.5568
   31MOL0     C 4117   9.351   4.912   5.059  0.8275 -0.0173 -0.4157
   31MOL0     H 4118   9.606   4.585   4.692  1.2501 -1.2023  0.5926
   31MOL0     H 4119   9.813   4.617   4.573  2.8126  0.7796 -0.3301
   31MOL0     H 4120  10.094   4.696   4.471  0.7301  0.4525 -2.0277
   31MOL0     H 4121   9.929   4.739   4.423  1.6775 -2.7091  0.2968
   31MOL0     H 4122   9.985   4.965   4.406 -0.6307 -1.3563 -1.5712
   31MOL0     H 4123  10.103   4.878   4.305 -1.2164  0.2890 -0.6073
   31MOL0     H 4124  10.248   4.883   4.532 -2.3567  0.1193  1.7463
   31MOL0     H 4125  10.144   5.023   4.570  3.6665  0.5533  1.1601
   31MOL0     H 4126  10.314   5.013   4.325 -1.3407 -3.9393  0.8833
   31MOL0     H 4127  10.201   5.141   4.373  0.3085  0.4141 -0.7585
   31MOL0     H 4128  10.318   5.151   4.598 -1.0749 -1.3972 -0.3781
   31MOL0     H 4129  10.413   5.017   4.565 -1.8178 -0.8161 -0.9237
   31MOL0     H 4130  10.547   5.115   4.415 -1.5637 -1.8982  1.1920
   31MOL0     H 4131  10.462   5.263   4.397 -0.2355 -3.0285 -3.7744
   31MOL0     H 4132  10.676   5.267   4.553  0.9755  1.0485  1.2279
   31MOL0     H 4133  10.583   5.165   4.674 -2.8628 -0.1181  0.4360
   31MOL0     H 4134  10.437   5.356   4.715 -0.8607 -1.8959 -1.3716
   31MOL0     H 4135  10.618   5.388   4.719  0.3882  1.1142 -0.2904
   31MOL0     H 4136  10.698   5.523   4.482  0.3819  1.8208 -0.1656
   31MOL0     H 4137  10.554   5.858   4.381  1.9435  0.3512  0.7599
   31MOL0     H 4138  10.689   5.759   4.324  0.7965  4.7081  1.5379
   31MOL0     H 4139  10.512   5.634   4.177 -2.0970  0.8208 -2.6438
   31MOL0     H 4140  10.410   5.767   4.217 -0.5224 -1.8551  1.0985
   31MOL0     H 4141  10.689   5.820   4.115  0.0468 -1.5539  0.8232
   31MOL0     H 4142  10.556   5.936   4.111  1.0589  0.7065 -2.6643
   31MOL0     H 4143  10.587   5.852   3.881 -0.0064 -0.1082 -0.8622
   31MOL0     H 4144  10.451   5.768   3.939  0.5819  2.1740  0.0261
   31MOL0     H 4145  10.838   5.837   3.957  0.5348 -0.5901 -0.1390
   31MOL0     H 4146  11.046   5.812   3.857 -1.4352  1.6407  1.3083
   31MOL0     H 4147  11.102   5.417   3.335 -1.0518 -0.2691  0.4615
   31MOL0     H 4148  11.280   5.352   3.170  2.9584  5.3469 -1.0655
   31MOL0     H 4149  11.454   5.192   3.095  1.8594 -1.7033 -1.3216
   31MOL0     H 4150  11.520   5.368   3.044  1.1314  1.5453  1.9057
   31MOL0     H 4151  11.751   5.279   3.048 -0.0061 -0.3787 -1.7572
   31MOL0     H 4152  11.686   5.125   3.104  0.0254 -2.0787 -1.9822
   31MOL0     H 4153  11.576   5.101   2.877  0.2483  0.2753 -1.8085
   31MOL0     H 4154  11.634   5.263   2.833 -4.3771 -1.0020 -0.2170
   31MOL0     H 4155  11.831   5.060   2.931 -1.0969 -0.8946  0.1253
   31MOL0     H 4156  11.849   5.210   2.835 -2.4344  2.5792 -0.9220
   31MOL0     H 4157  11.695   5.057   2.658 -0.1266  2.8265  0.9880
   31MOL0     H 4158  11.729   4.938   2.773 -0.2121 -0.7494 -0.3353
   31MOL0     H 4159  11.954   5.109   2.656  1.5405 -1.0953 -0.1730
   31MOL0     H 4160  11.972   4.937   2.705 -2.0189 -1.2841  0.0962
   31MOL0     H 4161  11.844   5.046   2.458 -0.5749 -1.0241 -0.5653
   31MOL0     H 4162  11.879   4.873   2.490  1.8634 -1.0595  0.8370
   31MOL0     H 4163  12.084   4.879   2.443 -0.7639  0.7765 -0.9595
   31MOL0     H 4164  12.018   5.001   2.336 -0.0756 -0.1755 -0.4219
   31MOL0     H 4165  11.583   5.413   3.446  0.8009 -1.9652 -1.9744
   31MOL0     H 4166  11.421   5.528   3.612  0.5727  1.2377 -0.1120
   31MOL0     H 4167  10.919   5.449   3.657  1.0196 -0.3755  1.1188
   31MOL0     H 4168  10.709   5.463   3.785 -3.3889  2.7867  1.8028
   31MOL0     H 4169   9.894   4.990   4.745  1.0203  0.3823 -1.8269
   31MOL0     H 4170   9.659   4.983   4.861  1.3804 -0.7943  2.0377
   31MOL0     H 4171   9.155   4.814   4.649  0.2627  1.0651  0.1644
   31MOL0     H 4172   8.921   4.800   4.770  0.7921 -5.1896  1.2520
   31MOL0     H 4173   8.761   4.708   4.947  0.9422 -0.4937 -1.4493
   31MOL0     H 4174   8.745   4.874   4.891  1.3149 -0.5385 -0.7149
   31MOL0     H 4175   8.660   4.943   5.117 -0.0278 -1.1571  2.1811
   31MOL0     H 4176   8.657   4.759   5.154  1.4155  0.6611  0.3219
   31MOL0     H 4177   8.523   4.734   4.948 -0.9506  0.0467  0.2798
   31MOL0     H 4178   8.521   4.912   4.928  1.7596  0.6362  0.3976
   31MOL0     H 4179   8.389   4.902   5.152  2.8558 -0.4231  0.9588
   31MOL0     H 4180   8.311   4.814   5.008  1.4747 -0.3260 -1.5622
   31MOL0     H 4181   8.436   4.493   5.268 -0.7639 -0.0732 -1.3628
   31MOL0     H 4182   9.092   4.892   5.134 -1.5468  0.5186 -0.3031
   31MOL0     H 4183   9.444   4.943   5.011  1.9346  1.6456  2.5706
   31MOL0     H 4184   9.307   5.003   5.103  1.5950  1.9857 -3.4689
   31MOL0     H 4185   9.372   4.846   5.143  0.7982  1.3811  0.7257
   32MOL0     O 4186   5.355   6.144   5.733 -0.3799  0.0996 -1.2461
   32MOL0     C 4187   5.361   6.261   5.693  0.2991  0.8686  0.6873
   32MOL0     O 4188   5.453   6.360   5.729  0.1289  0.2938 -0.0288
   32MOL0     C 4189   5.525   6.371   5.845  0.4376 -0.5733 -0.7195
   32MOL0     C 4190   5.652   6.444   5.844  0.7301 -0.4045  0.0969
   32MOL0     C 4191   5.712   6.476   5.966  0.8416  0.0035  0.2276
   32MOL0     C 4192   5.670   6.426   6.083 -0.3992 -0.7049  0.2431
   32MOL0     O 4193   5.751   6.455   6.191  0.5776  0.4655  0.4399
   32MOL0     C 4194   5.779   6.328   6.263 -0.4054 -0.6245 -0.8999
   32MOL0     C 4195   5.875   6.229   6.198  0.2185 -0.1005  0.0574
   32MOL0     C 4196   6.016   6.289   6.174  0.4747  1.1243 -0.2804
   32MOL0     C 4197   6.096   6.297   6.307  0.6007 -0.1084  0.7384
   32MOL0     C 4198   6.249   6.306   6.287  0.5335 -0.5806  0.4490
   32MOL0     C 4199   6.278   6.456   6.274 -0.3857 -0.6843  1.0012
   32MOL0     C 4200   6.286   6.537   6.409  0.1936  0.2262  0.5970
   32MOL0     C 4201   6.330   6.675   6.372  0.3333 -1.2211 -0.9023
   32MOL0     N 4202   6.219   6.773   6.348 -0.4177  0.9271 -0.1794
   32MOL0     C 4203   6.155   6.821   6.237 -0.9313  0.7648  0.3574
   32MOL0     C 4204   6.070   6.915   6.283 -0.2830  0.1582 -0.0203
   32MOL0     C 4205   5.976   6.998   6.203 -0.2168 -0.6159  0.2104
   32MOL0     C 4206   5.819   6.970   6.230 -0.1659  0.9469 -0.2589
   32MOL0     C 4207   5.788   6.827   6.182 -0.0674 -0.3026  0.6387
   32MOL0     C 4208   5.642   6.804   6.143  1.1672  0.6779 -0.1198
   32MOL0     O 4209   5.632   6.872   6.013  0.4269 -0.3745 -0.2965
   32MOL0     C 4210   5.508   6.873   5.946 -0.1357 -0.1120  0.5296
   32MOL0     C 4211   5.510   6.888   5.804  0.1996 -0.1936  0.4540
   32MOL0     C 4212   5.391   6.877   5.721  0.4175  0.0588 -0.1669
   32MOL0     C 4213   5.269   6.881   5.787 -0.0221 -0.1980  0.3044
   32MOL0     C 4214   5.146   6.866   5.706 -0.2992 -0.4341  0.5758
   32MOL0     O 4215   5.042   6.802   5.764  0.9409  0.2313  0.1322
   32MOL0     C 4216   4.929   6.776   5.684 -0.5084  0.1404  0.3941
   32MOL0     C 4217   4.927   6.652   5.626 -0.2871 -0.7751  0.0940
   32MOL0     C 4218   4.823   6.627   5.537  0.0097 -0.2196 -0.0531
   32MOL0     C 4219   4.725   6.719   5.505  0.0891 -0.3700  0.0054
   32MOL0     O 4220   4.637   6.658   5.420  0.1297  0.2002 -0.4373
   32MOL0     C 4221   4.569   6.747   5.328 -0.1312 -0.0171 -0.6412
   32MOL0     C 4222   4.662   6.810   5.223 -0.0851  0.0744  0.4647
   32MOL0     C 4223   4.584   6.849   5.098 -0.2466 -0.6777 -0.6223
   32MOL0     C 4224   4.497   6.971   5.118  0.3360 -0.1157  0.0024
   32MOL0     C 4225   4.395   7.009   5.012 -0.0412 -0.5096 -0.0422
   32MOL0     C 4226   4.458   7.093   4.901  0.1233 -0.4174 -0.1164
   32MOL0     C 4227   4.376   7.082   4.771  0.2982  0.0170 -0.6158
   32MOL0     C 4228   4.381   7.210   4.679 -0.2402 -0.1207  0.4415
   32MOL0    Cl 4229   4.334   7.364   4.759 -0.2498  0.2070 -0.4743
   32MOL0     C 4230   4.712   6.842   5.573 -0.4394 -0.7040  0.7675
   32MOL0     C 4231   4.820   6.872   5.664 -0.7698  0.2861  0.7084
   32MOL0     O 4232   5.143   6.930   5.600 -0.4284  0.2126  0.0549
   32MOL0     C 4233   5.261   6.868   5.929  0.4973  0.2249  0.5178
   32MOL0     C 4234   5.383   6.863   5.999  0.6175  0.8229  0.4376
   32MOL0     N 4235   6.083   6.913   6.426  0.4528  0.1625  0.8704
   32MOL0     N 4236   6.168   6.832   6.463 -1.6511  0.0098 -0.4074
   32MOL0     C 4237   5.543   6.365   6.088  0.3285  0.6830 -0.4009
   32MOL0     C 4238   5.474   6.337   5.970  0.7624  0.6213  0.0027
   32MOL0     C 4239   5.276   6.285   5.573  0.1388  0.7340  1.1233
   32MOL0     C 4240   5.232   6.171   5.495 -0.3073  0.0672 -0.3123
   32MOL0     C 4241   5.156   6.197   5.375 -0.4089 -0.2324 -0.3932
   32MOL0     C 4242   5.118   6.327   5.338 -1.2815  0.3319  0.4818
   32MOL0     O 4243   5.044   6.362   5.226  0.7699 -0.5293  0.3411
   32MOL0     C 4244   4.915   6.287   5.215 -0.2310  0.1742 -0.2594
   32MOL0     C 4245   4.802   6.372   5.146 -0.6368  1.3774  0.3648
   32MOL0     C 4246   4.663   6.303   5.155 -0.1024 -0.6296 -0.3628
   32MOL0     C 4247   4.554   6.392   5.085 -0.1130  0.2155 -0.1447
   32MOL0     C 4248   4.442   6.299   5.101  0.1682 -1.0183  0.7095
   32MOL0     C 4249   4.347   6.228   5.107  0.2127 -0.3971  0.1789
   32MOL0     C 4250   5.158   6.434   5.421 -0.5201  0.0496  0.6129
   32MOL0     C 4251   5.242   6.413   5.534  0.2428  0.3671 -0.7782
   32MOL0     C 4252   5.287   6.539   5.601 -0.2829  0.2216  0.4936
   32MOL0     H 4253   5.705   6.483   5.758  1.6426  2.6420  1.9102
   32MOL0     H 4254   5.795   6.545   5.964 -2.7046  4.7801  0.9838
   32MOL0     H 4255   5.819   6.370   6.356 -1.3216 -1.4009 -0.1371
   32MOL0     H 4256   5.691   6.275   6.301 -0.4800 -1.0730 -1.6828
   32MOL0     H 4257   5.838   6.187   6.104  1.2182 -0.4119 -0.2115
   32MOL0     H 4258   5.890   6.138   6.257  1.5927  0.2123  0.2281
   32MOL0     H 4259   5.991   6.393   6.152 -1.6045  0.5067 -1.0489
   32MOL0     H 4260   6.067   6.241   6.091 -1.3034 -1.0462 -0.2103
   32MOL0     H 4261   6.061   6.380   6.370 -1.7356  0.8041 -1.5477
   32MOL0     H 4262   6.086   6.202   6.360 -2.0603 -1.3932 -1.7478
   32MOL0     H 4263   6.303   6.261   6.371  0.8909  2.5986  2.0998
   32MOL0     H 4264   6.286   6.255   6.198 -0.1083 -1.2695  0.5682
   32MOL0     H 4265   6.373   6.474   6.223  0.0325 -1.8212  1.3362
   32MOL0     H 4266   6.198   6.489   6.208  0.0560 -1.7201 -0.0900
   32MOL0     H 4267   6.363   6.496   6.476  0.2540  0.6718  0.8057
   32MOL0     H 4268   6.188   6.544   6.457 -1.0204  0.6052 -1.7800
   32MOL0     H 4269   6.384   6.711   6.460  0.2865  0.8130 -1.6680
   32MOL0     H 4270   6.399   6.677   6.288 -0.9336  1.6809 -2.0198
   32MOL0     H 4271   6.168   6.795   6.132 -2.1480  1.3879  0.0313
   32MOL0     H 4272   6.001   7.100   6.235 -1.9177 -0.1843  0.2882
   32MOL0     H 4273   6.004   6.994   6.097  0.9378 -0.7536  0.5120
   32MOL0     H 4274   5.797   6.978   6.336  0.6153 -2.0388  0.2124
   32MOL0     H 4275   5.756   7.036   6.169  1.6386  1.2096 -1.9379
   32MOL0     H 4276   5.812   6.760   6.265 -2.8864  0.2630  2.0646
   32MOL0     H 4277   5.837   6.795   6.090 -1.2820 -2.4156  0.6559
   32MOL0     H 4278   5.572   6.854   6.210 -1.0864 -2.8339  0.3977
   32MOL0     H 4279   5.607   6.701   6.139 -1.9876  1.5421  1.6553
   32MOL0     H 4280   5.607   6.885   5.756 -0.1995  1.9749 -0.5983
   32MOL0     H 4281   5.392   6.883   5.612 -1.4021  2.2213 -0.1298
   32MOL0     H 4282   4.997   6.575   5.655  0.4039 -0.3606 -0.4423
   32MOL0     H 4283   4.812   6.529   5.492  2.3619 -0.1055 -1.0289
   32MOL0     H 4284   4.487   6.697   5.277 -1.8811  3.0565 -1.0929
   32MOL0     H 4285   4.513   6.825   5.380  0.5525  3.4927 -4.6026
   32MOL0     H 4286   4.717   6.894   5.265  0.3649 -0.3595  0.7426
   32MOL0     H 4287   4.735   6.738   5.186 -0.4720 -0.3730  0.5636
   32MOL0     H 4288   4.667   6.864   5.029  2.7292 -2.1720  2.3168
   32MOL0     H 4289   4.517   6.766   5.072  0.6919 -1.7066  0.1418
   32MOL0     H 4290   4.562   7.050   5.156 -0.0389 -0.4525  1.3934
   32MOL0     H 4291   4.437   6.943   5.205 -3.8162  1.1026 -2.1647
   32MOL0     H 4292   4.317   7.062   5.068 -0.3488 -3.4009  2.5289
   32MOL0     H 4293   4.360   6.915   4.969 -0.2751  0.0294 -1.0675
   32MOL0     H 4294   4.474   7.198   4.929  0.2279 -0.0554 -1.4751
   32MOL0     H 4295   4.558   7.059   4.874  0.3975  0.4766 -0.2693
   32MOL0     H 4296   4.275   7.045   4.789  1.6038 -3.7208 -0.0648
   32MOL0     H 4297   4.427   7.002   4.717 -1.3201 -1.4839 -0.0023
   32MOL0     H 4298   4.481   7.215   4.636 -0.6501 -1.6352 -0.7823
   32MOL0     H 4299   4.316   7.193   4.593 -0.9287 -0.0626  0.9448
   32MOL0     H 4300   4.626   6.906   5.558 -0.9653 -1.5727  0.0033
   32MOL0     H 4301   4.825   6.950   5.739  1.6265  1.5942 -0.6952
   32MOL0     H 4302   5.167   6.868   5.984  1.6989  0.3400  2.6985
   32MOL0     H 4303   5.375   6.846   6.106 -0.0205 -1.5472  0.0704
   32MOL0     H 4304   5.503   6.318   6.177  3.6453 -2.6788 -0.4739
   32MOL0     H 4305   5.378   6.285   5.966  0.8250  0.5818 -1.4463
   32MOL0     H 4306   5.256   6.066   5.513 -3.3666 -0.6391  0.2162
   32MOL0     H 4307   5.144   6.118   5.302 -1.7782 -1.0099  0.6270
   32MOL0     H 4308   4.886   6.268   5.319  0.0291  1.6118  0.1084
   32MOL0     H 4309   4.919   6.189   5.167 -1.0737 -0.3750  0.7424
   32MOL0     H 4310   4.830   6.394   5.043 -3.3624  0.5496 -0.6391
   32MOL0     H 4311   4.800   6.465   5.203 -4.5397  0.9852  1.1011
   32MOL0     H 4312   4.640   6.288   5.261 -2.0250  0.2038 -0.6209
   32MOL0     H 4313   4.681   6.208   5.104  1.1303  0.2755 -1.7080
   32MOL0     H 4314   4.524   6.479   5.144 -0.2083  1.3004 -1.7119
   32MOL0     H 4315   4.574   6.433   4.985 -3.8051  1.5859 -0.4713
   32MOL0     H 4316   4.270   6.155   5.119 -1.5414  1.7620  3.4932
   32MOL0     H 4317   5.137   6.536   5.390 -2.5616 -0.6485 -0.4584
   32MOL0     H 4318   5.233   6.624   5.560 -0.4528  0.2027  0.6777
   32MOL0     H 4319   5.272   6.541   5.710  1.8525 -1.0644  0.8690
   32MOL0     H 4320   5.394   6.549   5.580 -0.2308 -3.0725 -1.5425
   33MOL0     O 4321   4.543  10.295   1.562 -0.6349  0.0188  0.0040
   33MOL0     C 4322   4.547  10.371   1.655 -0.3997 -0.0731 -1.1082
   33MOL0     O 4323   4.649  10.452   1.690  0.0981  0.0272  0.2083
   33MOL0     C 4324   4.765  10.455   1.617  0.1589 -0.7379  0.0118
   33MOL0     C 4325   4.832  10.342   1.568  0.3556 -0.6385  0.1799
   33MOL0     C 4326   4.956  10.357   1.499  0.2293  0.7006  0.4041
   33MOL0     C 4327   5.011  10.478   1.478 -0.6385  0.0616 -0.1794
   33MOL0     O 4328   5.136  10.484   1.415  0.4666 -0.8215 -0.5387
   33MOL0     C 4329   5.190  10.614   1.386 -0.0127 -0.4484 -0.6474
   33MOL0     C 4330   5.319  10.583   1.303 -0.7360 -0.4050  0.3334
   33MOL0     C 4331   5.285  10.524   1.167 -0.0599 -0.0604  0.7007
   33MOL0     C 4332   5.419  10.473   1.088  0.1472 -0.2715  0.0065
   33MOL0     C 4333   5.404  10.431   0.938  0.0010  0.3050  0.0154
   33MOL0     C 4334   5.299  10.312   0.940  0.5776 -0.7013 -0.1273
   33MOL0     C 4335   5.291  10.244   0.802  0.5584  0.8911 -0.3950
   33MOL0     C 4336   5.387  10.123   0.801 -0.3968  0.7154  0.0893
   33MOL0     N 4337   5.413  10.098   0.659 -0.4677  1.1487 -0.1472
   33MOL0     C 4338   5.322  10.043   0.571 -0.5969  0.1514 -0.1837
   33MOL0     C 4339   5.388  10.020   0.456 -0.5762  0.1870 -0.5287
   33MOL0     C 4340   5.342   9.958   0.330  0.6812  0.1554  0.2316
   33MOL0     C 4341   5.192   9.928   0.326 -0.3283  0.1471 -0.7795
   33MOL0     C 4342   5.155   9.850   0.198 -0.2694 -0.9887  0.4309
   33MOL0     C 4343   5.008   9.839   0.149 -0.4294 -0.3142  0.0881
   33MOL0     O 4344   4.930   9.755   0.237  0.5518 -0.4046  0.5492
   33MOL0     C 4345   4.800   9.780   0.236  0.2248 -0.5185 -0.5061
   33MOL0     C 4346   4.732   9.723   0.341 -0.3073 -1.1295  0.0422
   33MOL0     C 4347   4.591   9.732   0.351 -1.2752  0.1859 -0.1316
   33MOL0     C 4348   4.512   9.792   0.247 -0.1457  0.0979  0.3265
   33MOL0     C 4349   4.374   9.772   0.251  0.6997  0.5750  0.3833
   33MOL0     O 4350   4.304   9.770   0.136 -0.3744 -0.8520 -0.8122
   33MOL0     C 4351   4.166   9.746   0.136  0.1406 -0.2107 -0.2392
   33MOL0     C 4352   4.079   9.820   0.220 -0.4668 -0.8993  0.4102
   33MOL0     C 4353   3.939   9.819   0.200 -0.2150  0.3235  0.7297
   33MOL0     C 4354   3.877   9.743   0.098 -0.0878  0.4276  0.4101
   33MOL0     O 4355   3.747   9.724   0.069  0.1257  0.8386  0.2683
   33MOL0     C 4356   3.655   9.836   0.066 -0.1864  0.0406 -0.4750
   33MOL0     C 4357   3.541   9.818   0.173 -0.1020  0.5116  0.2728
   33MOL0     C 4358   3.419   9.908   0.167 -0.1182  0.8507 -0.3388
   33MOL0     C 4359   3.471  10.053   0.200  0.5450 -0.0463 -0.6228
   33MOL0     C 4360   3.355  10.161   0.193  0.0251  1.0634 -0.6050
   33MOL0     C 4361   3.402  10.307   0.197  0.1557  0.3818  0.3394
   33MOL0     C 4362   3.279  10.399   0.190 -0.1380  0.6095 -0.3871
   33MOL0     C 4363   3.299  10.529   0.258 -0.2203  0.6399 -0.1044
   33MOL0    Cl 4364   3.434  10.609   0.161 -0.0438  0.2642 -0.3672
   33MOL0     C 4365   3.967   9.665   0.022  0.8249  0.2151 -0.0621
   33MOL0     C 4366   4.101   9.662   0.048 -0.7057  0.4396 -0.0692
   33MOL0     O 4367   4.322   9.751   0.360  0.2021  0.0928  0.5912
   33MOL0     C 4368   4.578   9.846   0.136  0.2363 -0.0513  0.1899
   33MOL0     C 4369   4.719   9.848   0.136  0.1832 -0.5108  0.1110
   33MOL0     N 4370   5.515  10.067   0.477 -0.3913 -0.4064 -0.1388
   33MOL0     N 4371   5.537  10.101   0.604 -0.0485 -0.1688  0.1622
   33MOL0     C 4372   4.950  10.588   1.532 -0.7130 -0.3186 -0.0190
   33MOL0     C 4373   4.835  10.580   1.604  0.7710  0.1723 -0.5620
   33MOL0     C 4374   4.427  10.385   1.737 -0.1783 -0.7241 -0.1681
   33MOL0     C 4375   4.325  10.479   1.700 -0.2021  0.6460  0.2311
   33MOL0     C 4376   4.207  10.502   1.772  0.0648 -0.4819 -0.1100
   33MOL0     C 4377   4.182  10.427   1.888  0.5658 -0.5948 -0.7074
   33MOL0     O 4378   4.074  10.430   1.973  0.5361 -0.2650  0.6090
   33MOL0     C 4379   3.962  10.514   1.933 -0.3387  0.4999  0.5982
   33MOL0     C 4380   3.876  10.431   1.832 -0.3006 -1.6896 -0.4666
   33MOL0     C 4381   3.737  10.501   1.809 -0.7072 -0.4156  0.5732
   33MOL0     C 4382   3.642  10.421   1.724  0.7865 -0.2089 -0.2190
   33MOL0     C 4383   3.623  10.293   1.782  0.6841 -0.4524 -0.5955
   33MOL0     C 4384   3.598  10.182   1.818  0.5404  0.6211 -0.2086
   33MOL0     C 4385   4.283  10.332   1.925 -0.8271 -0.6314 -0.4430
   33MOL0     C 4386   4.399  10.320   1.852 -0.0254  0.3312 -0.1914
   33MOL0     C 4387   4.494  10.206   1.890  0.2035 -0.6705 -0.0204
   33MOL0     H 4388   4.784  10.245   1.570  0.9674 -0.9355  0.9034
   33MOL0     H 4389   4.996  10.274   1.443 -2.0589  1.8710 -3.3656
   33MOL0     H 4390   5.128  10.683   1.329 -1.2329 -0.9799  0.0090
   33MOL0     H 4391   5.218  10.659   1.481 -2.7027  3.4745 -1.4615
   33MOL0     H 4392   5.381  10.514   1.361 -1.4724 -0.3682  1.1862
   33MOL0     H 4393   5.394  10.661   1.293  2.9114 -3.3862  2.0761
   33MOL0     H 4394   5.240  10.609   1.115  2.6397  2.4805  2.2198
   33MOL0     H 4395   5.218  10.439   1.177 -1.1966  0.8709  1.1938
   33MOL0     H 4396   5.489  10.557   1.084  0.6811 -0.7459 -2.9494
   33MOL0     H 4397   5.478  10.396   1.140  1.5100 -0.6903 -2.0200
   33MOL0     H 4398   5.372  10.518   0.879  0.5634  0.3553 -0.2142
   33MOL0     H 4399   5.500  10.396   0.899 -1.0000 -1.7267 -0.8266
   33MOL0     H 4400   5.315  10.232   1.013  0.5342  1.3957  2.3344
   33MOL0     H 4401   5.210  10.370   0.966  1.5161  0.5956  0.2382
   33MOL0     H 4402   5.313  10.311   0.719 -1.7498 -1.3607 -3.0531
   33MOL0     H 4403   5.192  10.197   0.790  1.5251 -1.7177  0.9416
   33MOL0     H 4404   5.479  10.137   0.858 -0.2445  0.4813 -0.0931
   33MOL0     H 4405   5.341  10.039   0.852 -2.4240  2.4341  1.2329
   33MOL0     H 4406   5.219  10.030   0.601  0.0707 -3.8120  0.9668
   33MOL0     H 4407   5.353  10.025   0.243 -0.0285 -1.6969 -1.3559
   33MOL0     H 4408   5.406   9.872   0.306  2.2130  1.3598 -0.1833
   33MOL0     H 4409   5.176   9.873   0.420  1.3096 -2.8052 -2.0578
   33MOL0     H 4410   5.154  10.030   0.332  0.0667  0.2244  1.1842
   33MOL0     H 4411   5.198   9.750   0.205 -0.9706 -1.3522 -0.3432
   33MOL0     H 4412   5.205   9.896   0.112 -4.1633 -0.7328 -1.9192
   33MOL0     H 4413   5.008   9.795   0.049 -2.2275 -0.2219  0.0300
   33MOL0     H 4414   4.962   9.938   0.146 -1.6426 -0.8627 -2.2626
   33MOL0     H 4415   4.796   9.670   0.410  1.2471 -0.5925 -0.9508
   33MOL0     H 4416   4.546   9.677   0.433  0.8208  0.3597  1.1940
   33MOL0     H 4417   4.129   9.892   0.284 -0.0681 -1.2047  0.4433
   33MOL0     H 4418   3.863   9.876   0.252 -2.9114 -0.1268 -2.3678
   33MOL0     H 4419   3.708   9.931   0.067  1.5633 -0.8764  1.3208
   33MOL0     H 4420   3.596   9.834  -0.026  0.3920 -0.4111 -0.8438
   33MOL0     H 4421   3.503   9.715   0.174 -2.0216  1.1796 -0.4525
   33MOL0     H 4422   3.590   9.826   0.271  1.0260 -1.0607 -0.1096
   33MOL0     H 4423   3.366   9.909   0.071 -2.2272 -1.3623  0.7043
   33MOL0     H 4424   3.352   9.870   0.245  0.0380 -2.1009 -1.4913
   33MOL0     H 4425   3.554  10.081   0.134  2.1226 -0.8383  0.9413
   33MOL0     H 4426   3.516  10.063   0.300 -1.0272 -0.4965  0.1642
   33MOL0     H 4427   3.294  10.148   0.283  0.1828  0.0767 -0.6317
   33MOL0     H 4428   3.287  10.141   0.110  0.7033 -2.1792 -0.4779
   33MOL0     H 4429   3.452  10.324   0.293  1.3202  3.1717 -0.6633
   33MOL0     H 4430   3.477  10.315   0.118  2.5734  1.2106  2.5522
   33MOL0     H 4431   3.203  10.352   0.253  1.6949  3.3368  4.3422
   33MOL0     H 4432   3.251  10.416   0.085 -0.4585  1.2833 -0.1946
   33MOL0     H 4433   3.206  10.586   0.264 -2.1150 -2.3517  1.5207
   33MOL0     H 4434   3.333  10.511   0.360  1.0208 -1.2391 -0.7945
   33MOL0     H 4435   3.921   9.600  -0.051 -1.0969  1.6147 -0.1853
   33MOL0     H 4436   4.178   9.623  -0.018 -1.1149  1.3853 -1.1364
   33MOL0     H 4437   4.521   9.887   0.053  0.6626  0.6275  0.2316
   33MOL0     H 4438   4.763   9.880   0.042  1.0544  0.3380  0.7855
   33MOL0     H 4439   4.994  10.686   1.515  0.6153 -0.9898 -0.6078
   33MOL0     H 4440   4.795  10.668   1.653 -3.8737 -0.5397 -2.5170
   33MOL0     H 4441   4.338  10.541   1.612  1.7457 -0.1797 -0.1281
   33MOL0     H 4442   4.124  10.564   1.738 -0.6406 -0.0600  2.1772
   33MOL0     H 4443   3.994  10.615   1.903  1.6888 -0.3082 -0.1424
   33MOL0     H 4444   3.896  10.528   2.019 -0.6877  4.0143 -0.0737
   33MOL0     H 4445   3.855  10.331   1.872 -1.8705 -0.4519  2.0750
   33MOL0     H 4446   3.927  10.430   1.736  1.9065  4.3010  0.2568
   33MOL0     H 4447   3.754  10.597   1.760  1.9678 -1.3670 -0.5544
   33MOL0     H 4448   3.690  10.532   1.903  0.7799 -2.5200  2.1244
   33MOL0     H 4449   3.550  10.480   1.715  0.1995 -1.1635 -0.6635
   33MOL0     H 4450   3.664  10.406   1.618 -3.2745 -0.5005 -1.1794
   33MOL0     H 4451   3.568  10.081   1.835  3.1863 -0.0877  0.8123
   33MOL0     H 4452   4.282  10.261   2.008  1.5696 -3.7027 -2.7894
   33MOL0     H 4453   4.598  10.235   1.871 -0.0148 -0.7716 -1.4511
   33MOL0     H 4454   4.482  10.179   1.995  1.9908 -0.6407  0.2129
   33MOL0     H 4455   4.492  10.117   1.827  0.9661 -0.8251  0.1711
   34MOL0     O 4456   7.817   0.704  10.081 -0.2234  0.6487 -1.4074
   34MOL0     C 4457   7.863   0.807  10.130  0.4308 -0.0715  0.3599
   34MOL0     O 4458   7.803   0.887  10.219 -0.2666 -0.2439  0.4616
   34MOL0     C 4459   7.685   0.852  10.291 -0.5505 -0.2449  0.5769
   34MOL0     C 4460   7.660   0.719  10.333 -0.0117 -0.0377  0.0981
   34MOL0     C 4461   7.554   0.692  10.422 -0.2915  0.6451 -0.4331
   34MOL0     C 4462   7.459   0.787  10.461  0.0019 -0.6658  0.4727
   34MOL0     O 4463   7.375   0.747  10.553 -0.2588 -0.1439  0.1477
   34MOL0     C 4464   7.256   0.825  10.585  0.3624  0.5815  0.5010
   34MOL0     C 4465   7.134   0.729  10.616  0.4429 -1.0901 -0.5380
   34MOL0     C 4466   7.134   0.591  10.539 -0.1370  0.0389 -0.0317
   34MOL0     C 4467   7.053   0.494  10.626  0.2501 -0.6019 -0.6010
   34MOL0     C 4468   7.016   0.365  10.546 -0.1411 -0.7045  0.5747
   34MOL0     C 4469   6.985   0.255  10.646 -0.6805  0.0573  0.4162
   34MOL0     C 4470   7.011   0.119  10.586  0.7585  0.9309  0.1423
   34MOL0     C 4471   6.913   0.081  10.480  0.0022  0.6049  0.1610
   34MOL0     N 4472   6.917  -0.053  10.429  0.8467 -0.0156 -0.9490
   34MOL0     C 4473   6.826  -0.094  10.329 -0.7925  1.4853 -0.2690
   34MOL0     C 4474   6.881  -0.213  10.301 -0.1657  0.5871  0.0921
   34MOL0     C 4475   6.819  -0.296  10.193  0.5815  0.0687  0.5638
   34MOL0     C 4476   6.811  -0.447  10.222 -0.8878 -0.3604  0.0774
   34MOL0     C 4477   6.707  -0.525  10.132  0.1581 -0.6544  0.6312
   34MOL0     C 4478   6.733  -0.520   9.983 -1.8324 -0.3045  0.5444
   34MOL0     O 4479   6.626  -0.577   9.906 -0.2810 -0.5646  0.0217
   34MOL0     C 4480   6.540  -0.505   9.833  0.2704  0.1506  0.6989
   34MOL0     C 4481   6.423  -0.559   9.797  0.4819  0.0375  0.4350
   34MOL0     C 4482   6.321  -0.489   9.723 -0.1702  0.1963 -0.0357
   34MOL0     C 4483   6.342  -0.355   9.674 -0.1417 -0.5679  0.1212
   34MOL0     C 4484   6.239  -0.275   9.601 -0.4509  0.6272 -0.5549
   34MOL0     O 4485   6.123  -0.342   9.561 -0.7732  0.7239 -0.5339
   34MOL0     C 4486   6.027  -0.267   9.502 -0.2154 -0.4478 -0.2796
   34MOL0     C 4487   5.976  -0.150   9.566  0.3555  0.2621 -0.4561
   34MOL0     C 4488   5.861  -0.078   9.524 -0.0196 -0.3961  0.6170
   34MOL0     C 4489   5.784  -0.128   9.419 -0.2142 -0.7398  0.7104
   34MOL0     O 4490   5.670  -0.054   9.384 -1.3360  0.7614 -0.3525
   34MOL0     C 4491   5.563  -0.142   9.345 -1.2382  0.5422 -0.5186
   34MOL0     C 4492   5.446  -0.056   9.303 -0.8572  0.4093 -0.1057
   34MOL0     C 4493   5.489   0.069   9.221 -0.4290  0.1355 -0.1870
   34MOL0     C 4494   5.390   0.134   9.130  0.2117  0.1317 -0.4126
   34MOL0     C 4495   5.384   0.063   8.992  0.0275 -0.0003 -0.3069
   34MOL0     C 4496   5.293   0.140   8.892 -0.3750  0.4598 -0.1565
   34MOL0     C 4497   5.305   0.103   8.752 -0.1092  0.8638 -0.0644
   34MOL0     C 4498   5.210   0.196   8.667  0.0736  0.1643 -0.4389
   34MOL0    Cl 4499   5.253   0.372   8.680  0.0962 -0.0481 -0.1852
   34MOL0     C 4500   5.828  -0.243   9.351  0.3627  0.0256  0.0283
   34MOL0     C 4501   5.953  -0.306   9.389 -0.1452 -0.0829 -0.2093
   34MOL0     O 4502   6.267  -0.163   9.575  0.3133 -0.2043 -0.1950
   34MOL0     C 4503   6.462  -0.300   9.707 -0.0109 -0.1053 -0.5312
   34MOL0     C 4504   6.559  -0.378   9.777  0.5507 -0.0599  0.2947
   34MOL0     N 4505   6.997  -0.236  10.368  0.1230  0.1535 -0.0284
   34MOL0     N 4506   7.026  -0.133  10.439  0.2992 -0.9313  0.5578
   34MOL0     C 4507   7.481   0.916  10.406 -0.2330 -0.4488 -0.1207
   34MOL0     C 4508   7.595   0.955  10.331  0.3654  0.0536 -0.0216
   34MOL0     C 4509   8.001   0.843  10.082  0.5847  0.5378 -0.0169
   34MOL0     C 4510   8.080   0.737  10.032 -0.2837  0.0818  0.8005
   34MOL0     C 4511   8.205   0.766   9.977 -0.1907 -0.5413 -0.1534
   34MOL0     C 4512   8.263   0.893   9.994 -1.0565 -0.4020  1.1494
   34MOL0     O 4513   8.394   0.903   9.958  0.4483  0.4553  0.4036
   34MOL0     C 4514   8.468   1.020  10.001  0.2396  0.4550  0.0356
   34MOL0     C 4515   8.595   1.058   9.922 -0.0402 -0.0121 -0.3490
   34MOL0     C 4516   8.692   0.940   9.909  0.6777 -0.3514 -1.0734
   34MOL0     C 4517   8.833   0.994   9.942  0.3296 -0.4947 -0.3902
   34MOL0     C 4518   8.885   1.070   9.819  0.4019  0.1606  0.4897
   34MOL0     C 4519   8.918   1.153   9.737 -0.4387  1.4488  0.1223
   34MOL0     C 4520   8.185   0.998  10.049  0.3911 -0.2755  1.4118
   34MOL0     C 4521   8.051   0.971  10.083 -0.4305 -0.3173 -0.5731
   34MOL0     C 4522   7.976   1.091  10.135  0.0254 -0.0664 -0.4756
   34MOL0     H 4523   7.735   0.646  10.305  0.0048 -0.2187  0.6068
   34MOL0     H 4524   7.550   0.596  10.471  1.2318  1.0912  0.6346
   34MOL0     H 4525   7.275   0.894  10.669  1.2221 -0.3447  1.0878
   34MOL0     H 4526   7.217   0.881  10.500 -1.4495 -2.3662 -0.7622
   34MOL0     H 4527   7.036   0.772  10.594 -0.3450 -2.7646 -0.4932
   34MOL0     H 4528   7.149   0.718  10.724 -0.6493  0.8086 -0.1433
   34MOL0     H 4529   7.229   0.538  10.535 -1.9911 -3.4630 -2.2512
   34MOL0     H 4530   7.098   0.601  10.437  1.0183 -2.0631 -0.6936
   34MOL0     H 4531   7.119   0.464  10.708 -1.2069 -3.2981 -0.2946
   34MOL0     H 4532   6.961   0.537  10.667  1.2007  1.9111 -0.9587
   34MOL0     H 4533   6.932   0.393  10.482  1.1864  1.0925 -0.4701
   34MOL0     H 4534   7.095   0.332  10.477 -1.5599 -0.2275 -1.3764
   34MOL0     H 4535   7.058   0.269  10.726  1.6139  2.4837 -1.8803
   34MOL0     H 4536   6.888   0.280  10.690 -0.6727  2.3214 -0.7042
   34MOL0     H 4537   7.005   0.046  10.667 -1.1071  2.1312  1.1500
   34MOL0     H 4538   7.108   0.109  10.535  0.7044 -1.5459  0.4143
   34MOL0     H 4539   6.819   0.088  10.534  0.2331  0.7062  0.5541
   34MOL0     H 4540   6.909   0.153  10.398 -2.4897 -1.7353 -1.9644
   34MOL0     H 4541   6.731  -0.048  10.304 -0.3896  3.5197  1.6313
   34MOL0     H 4542   6.717  -0.263  10.173  0.5901  0.6713  1.4673
   34MOL0     H 4543   6.883  -0.276  10.106  1.7547 -0.0293  1.3768
   34MOL0     H 4544   6.911  -0.487  10.204 -0.5133  0.3038  0.6343
   34MOL0     H 4545   6.784  -0.466  10.326  0.9547 -4.1631  0.0488
   34MOL0     H 4546   6.609  -0.480  10.150 -0.9595 -1.6324 -2.3540
   34MOL0     H 4547   6.712  -0.630  10.160  1.0991 -1.0627 -0.9361
   34MOL0     H 4548   6.833  -0.557   9.956 -0.9368  2.7490 -0.8023
   34MOL0     H 4549   6.740  -0.412   9.963  1.8591 -0.4158  0.5318
   34MOL0     H 4550   6.398  -0.649   9.851 -0.9094 -0.4692 -0.9752
   34MOL0     H 4551   6.231  -0.542   9.695 -0.5892  0.2984  1.0485
   34MOL0     H 4552   6.042  -0.113   9.645 -0.3097  2.0090 -0.6931
   34MOL0     H 4553   5.834   0.013   9.576 -0.2369 -0.9822  1.5461
   34MOL0     H 4554   5.585  -0.203   9.257  0.3041 -0.1362  0.3079
   34MOL0     H 4555   5.526  -0.200   9.429 -1.7630 -1.1957 -1.8917
   34MOL0     H 4556   5.384  -0.120   9.239 -1.8520 -0.0704  1.2780
   34MOL0     H 4557   5.393  -0.031   9.396  3.0034 -2.0389  3.1321
   34MOL0     H 4558   5.526   0.149   9.285  2.7244  0.4203 -2.1468
   34MOL0     H 4559   5.574   0.054   9.154  2.0087  0.8497  2.5820
   34MOL0     H 4560   5.428   0.236   9.121  0.3664  0.5416  3.4688
   34MOL0     H 4561   5.292   0.137   9.179 -0.5022  1.5729 -1.8084
   34MOL0     H 4562   5.340  -0.037   8.994 -2.4556  0.8802 -3.1291
   34MOL0     H 4563   5.487   0.054   8.955  0.4979 -0.2356  1.0016
   34MOL0     H 4564   5.189   0.126   8.923  0.1705  0.1872  1.6790
   34MOL0     H 4565   5.319   0.246   8.892 -1.9428  0.8780 -0.4593
   34MOL0     H 4566   5.285  -0.002   8.729 -3.7427  1.4653 -0.3892
   34MOL0     H 4567   5.413   0.109   8.739  1.4655 -4.2176  5.8166
   34MOL0     H 4568   5.219   0.188   8.559  2.3442  1.3146 -0.4006
   34MOL0     H 4569   5.104   0.192   8.696 -0.0781  2.2162 -0.5457
   34MOL0     H 4570   5.780  -0.276   9.260  0.5477 -0.2950  0.0469
   34MOL0     H 4571   5.995  -0.391   9.338  4.4412  1.0052  1.2726
   34MOL0     H 4572   6.491  -0.200   9.679  3.1464 -0.8280 -0.2079
   34MOL0     H 4573   6.659  -0.338   9.791  0.2443  0.7727  0.1704
   34MOL0     H 4574   7.410   0.992  10.438  0.4298 -0.3716  1.2471
   34MOL0     H 4575   7.624   1.055  10.301  0.9064  0.1335  0.7591
   34MOL0     H 4576   8.035   0.639  10.013 -1.0326  0.5992 -0.1642
   34MOL0     H 4577   8.266   0.685   9.937  0.5560 -0.4578  0.7689
   34MOL0     H 4578   8.488   1.006  10.108 -0.6596 -1.3825 -0.0042
   34MOL0     H 4579   8.393   1.100   9.990 -1.9788 -1.3207  1.3307
   34MOL0     H 4580   8.643   1.145   9.969 -0.6894 -0.3023  0.8741
   34MOL0     H 4581   8.581   1.094   9.819  3.7186  0.6671 -0.7846
   34MOL0     H 4582   8.693   0.897   9.808  0.0879  0.9912 -1.6669
   34MOL0     H 4583   8.659   0.862   9.978 -0.3868 -0.4198 -1.6461
   34MOL0     H 4584   8.835   1.058  10.031  1.2804  0.8256 -1.3248
   34MOL0     H 4585   8.892   0.902   9.954 -0.6276 -0.8703  1.9530
   34MOL0     H 4586   8.962   1.216   9.661 -0.5525  2.1655  0.6422
   34MOL0     H 4587   8.213   1.101  10.068  0.3406  0.2227 -0.8786
   34MOL0     H 4588   8.032   1.185  10.127 -1.2857  0.8238  0.4425
   34MOL0     H 4589   7.887   1.104  10.073  0.4545  0.5138 -0.9878
   34MOL0     H 4590   7.947   1.089  10.241  0.1307  0.0583 -0.4436
   35MOL0     O 4591   3.026  10.590   6.616  0.9732 -0.2418 -0.0336
   35MOL0     C 4592   3.030  10.709   6.628 -0.2764 -0.8597  0.2658
   35MOL0     O 4593   3.117  10.789   6.571 -0.6778  0.0326  0.1699
   35MOL0     C 4594   3.213  10.740   6.482  0.6946  0.1898  0.3966
   35MOL0     C 4595   3.202  10.633   6.391 -0.2622 -0.3263  0.0252
   35MOL0     C 4596   3.298  10.609   6.292 -0.5423 -0.4447  0.2358
   35MOL0     C 4597   3.413  10.690   6.293 -0.8547  0.5309  0.0146
   35MOL0     O 4598   3.503  10.665   6.193  0.1511  0.9576 -0.0609
   35MOL0     C 4599   3.592  10.772   6.149  0.0311  1.0416  0.8561
   35MOL0     C 4600   3.517  10.887   6.085  0.6606  0.1162 -0.1478
   35MOL0     C 4601   3.581  10.921   5.948  0.2942 -0.5527  0.4590
   35MOL0     C 4602   3.721  10.984   5.948  0.8649  0.0763  0.0608
   35MOL0     C 4603   3.717  11.136   5.968  0.1734 -0.5349 -0.3573
   35MOL0     C 4604   3.860  11.196   5.971  0.3034  0.6244 -0.7917
   35MOL0     C 4605   3.857  11.333   6.031  0.0269 -0.5430 -0.7825
   35MOL0     C 4606   3.854  11.435   5.915  0.4186  0.3984 -1.1638
   35MOL0     N 4607   3.826  11.567   5.973 -0.4232 -0.3124  0.5878
   35MOL0     C 4608   3.697  11.621   5.985 -0.3367  0.2419  0.6805
   35MOL0     C 4609   3.710  11.739   6.049  0.6435  0.0491 -0.1481
   35MOL0     C 4610   3.597  11.826   6.114 -0.0654  0.3173 -0.8084
   35MOL0     C 4611   3.451  11.805   6.067 -0.5535 -0.3338  0.7838
   35MOL0     C 4612   3.359  11.909   6.134  0.6529  0.1412  0.7127
   35MOL0     C 4613   3.222  11.911   6.064 -0.9619 -0.3487 -0.5429
   35MOL0     O 4614   3.149  12.000   6.141  0.5643  0.5229  0.5585
   35MOL0     C 4615   3.034  12.062   6.088 -0.0111 -0.2101 -0.2866
   35MOL0     C 4616   2.962  12.017   5.982 -0.2493 -0.6915  0.4150
   35MOL0     C 4617   2.847  12.090   5.943  0.3469 -0.0402 -0.7315
   35MOL0     C 4618   2.802  12.205   6.004 -0.5924 -0.1811  0.0107
   35MOL0     C 4619   2.677  12.274   5.965 -0.0419  0.2953  0.3486
   35MOL0     O 4620   2.657  12.409   6.002 -0.2013 -1.2555  0.3719
   35MOL0     C 4621   2.552  12.492   5.954 -1.0070  0.0846 -0.3741
   35MOL0     C 4622   2.489  12.472   5.836  0.1857  0.6173 -0.2200
   35MOL0     C 4623   2.398  12.570   5.792 -0.2644  0.0918 -0.1378
   35MOL0     C 4624   2.360  12.677   5.874 -0.2420 -0.3590 -0.0317
   35MOL0     O 4625   2.267  12.771   5.844 -0.4381  0.0855  0.0127
   35MOL0     C 4626   2.225  12.783   5.708  0.1302  0.6533 -0.1754
   35MOL0     C 4627   2.146  12.908   5.667  0.9261  0.1523  0.1108
   35MOL0     C 4628   2.248  13.024   5.675  1.0518  0.3364  0.7634
   35MOL0     C 4629   2.208  13.143   5.594  0.2527  0.3816  0.5631
   35MOL0     C 4630   2.280  13.267   5.638 -0.1839 -0.8314 -0.2596
   35MOL0     C 4631   2.254  13.389   5.543 -0.1005 -0.1035  0.3812
   35MOL0     C 4632   2.124  13.464   5.573  0.6520  0.0302  0.2280
   35MOL0     C 4633   2.066  13.527   5.449 -0.6886 -0.7746 -0.4333
   35MOL0    Cl 4634   1.953  13.417   5.366  0.0673 -0.1977 -0.0134
   35MOL0     C 4635   2.428  12.693   5.987  0.4685 -0.0062  1.0103
   35MOL0     C 4636   2.530  12.609   6.032 -0.3439 -0.3930 -0.7208
   35MOL0     O 4637   2.595  12.206   5.904 -0.3482  0.6156 -0.3474
   35MOL0     C 4638   2.888  12.258   6.105  0.6476  1.6076 -0.0026
   35MOL0     C 4639   3.008  12.186   6.150  0.3448 -0.8648  1.0933
   35MOL0     N 4640   3.852  11.754   6.064  0.8396  0.1150 -0.1611
   35MOL0     N 4641   3.920  11.653   6.023  0.3060  0.6807  0.7316
   35MOL0     C 4642   3.431  10.791   6.386 -0.4262 -0.4599 -0.0866
   35MOL0     C 4643   3.332  10.812   6.478 -0.2386  0.3185 -0.5590
   35MOL0     C 4644   2.919  10.775   6.693  0.0887 -0.8589  0.7491
   35MOL0     C 4645   2.940  10.877   6.784  0.0757  0.0048  0.1229
   35MOL0     C 4646   2.836  10.933   6.858  0.6271  0.1473 -0.0195
   35MOL0     C 4647   2.702  10.911   6.838  0.5631  0.8157 -0.2586
   35MOL0     O 4648   2.584  10.959   6.897  0.0632 -0.2112  0.0989
   35MOL0     C 4649   2.592  11.065   6.992  0.4528  0.3426 -0.6760
   35MOL0     C 4650   2.451  11.070   7.047 -0.6981 -0.9393 -0.0113
   35MOL0     C 4651   2.365  11.177   6.966  0.6022 -1.2883 -0.5861
   35MOL0     C 4652   2.226  11.186   7.031 -0.4608 -0.2057 -0.0221
   35MOL0     C 4653   2.148  11.066   6.997 -0.5454  0.1238  0.2641
   35MOL0     C 4654   2.065  10.975   6.986  1.3358  0.1130  0.1248
   35MOL0     C 4655   2.678  10.811   6.744 -0.1008 -0.0586 -0.6893
   35MOL0     C 4656   2.780  10.740   6.680 -0.4253 -0.1483 -1.3519
   35MOL0     C 4657   2.749  10.642   6.572  0.4053 -0.6429  0.6245
   35MOL0     H 4658   3.122  10.560   6.380  0.5731 -1.0338 -1.6592
   35MOL0     H 4659   3.293  10.523   6.225 -0.5824 -1.8856  2.0013
   35MOL0     H 4660   3.656  10.820   6.224  1.5610  1.8401 -0.8547
   35MOL0     H 4661   3.663  10.722   6.081 -1.3048 -2.3264  1.7535
   35MOL0     H 4662   3.532  10.974   6.150  2.8770  0.2925 -0.8099
   35MOL0     H 4663   3.411  10.860   6.082  0.6285 -0.0042  1.3998
   35MOL0     H 4664   3.518  10.980   5.881  0.0129 -0.7078  0.5822
   35MOL0     H 4665   3.581  10.827   5.891  0.8358 -0.6086  0.5433
   35MOL0     H 4666   3.784  10.940   6.025 -1.6638 -1.1318  1.5824
   35MOL0     H 4667   3.765  10.958   5.852  1.2320 -2.8377  0.9381
   35MOL0     H 4668   3.658  11.177   5.885  0.4635 -0.1654 -0.3861
   35MOL0     H 4669   3.662  11.154   6.061 -0.4976  0.8454 -0.9840
   35MOL0     H 4670   3.912  11.136   6.046 -1.2639  1.0163  0.6595
   35MOL0     H 4671   3.904  11.191   5.870  0.1756  1.7050 -0.9164
   35MOL0     H 4672   3.942  11.356   6.095 -1.0611  2.7118 -0.3252
   35MOL0     H 4673   3.771  11.351   6.097 -0.7362 -1.0495 -1.6069
   35MOL0     H 4674   3.950  11.443   5.863  0.4689  0.4188 -1.0667
   35MOL0     H 4675   3.763  11.413   5.857 -0.1094 -0.7483  0.0406
   35MOL0     H 4676   3.602  11.569   5.977  0.1933 -0.9661  1.7926
   35MOL0     H 4677   3.606  11.810   6.222 -0.7868 -0.3772 -0.8423
   35MOL0     H 4678   3.624  11.928   6.082 -0.4279  0.7217  0.1324
   35MOL0     H 4679   3.448  11.807   5.957  0.2819 -1.5073  0.7265
   35MOL0     H 4680   3.412  11.710   6.104 -1.4044  0.0631  0.9297
   35MOL0     H 4681   3.395  12.009   6.110 -3.8042  2.3031  2.1014
   35MOL0     H 4682   3.358  11.897   6.242  1.7854  1.1355  0.8632
   35MOL0     H 4683   3.176  11.812   6.070  3.0317 -2.3074  1.4484
   35MOL0     H 4684   3.238  11.939   5.959  2.7120 -1.0903 -0.3050
   35MOL0     H 4685   2.993  11.934   5.920  4.1965 -0.0147  1.3898
   35MOL0     H 4686   2.793  12.048   5.859  1.7198 -1.6314 -0.8652
   35MOL0     H 4687   2.500  12.378   5.783 -3.2718  0.4502 -0.9096
   35MOL0     H 4688   2.356  12.548   5.694 -2.4666  2.0041  0.2832
   35MOL0     H 4689   2.317  12.766   5.650  1.3414 -1.9528  2.2706
   35MOL0     H 4690   2.158  12.699   5.688 -1.8857  1.3685  3.0296
   35MOL0     H 4691   2.106  12.891   5.566 -1.4101 -1.1133  1.1611
   35MOL0     H 4692   2.056  12.930   5.726 -0.2412  1.0731 -1.9004
   35MOL0     H 4693   2.253  13.047   5.782 -3.7142 -1.6607  1.6599
   35MOL0     H 4694   2.341  12.984   5.633 -0.6114 -1.6126 -1.3356
   35MOL0     H 4695   2.100  13.161   5.591  0.3255  1.6902  3.1229
   35MOL0     H 4696   2.247  13.133   5.492  1.6086  1.2172  0.9631
   35MOL0     H 4697   2.389  13.254   5.635 -0.0166  0.4532 -0.4239
   35MOL0     H 4698   2.251  13.299   5.738 -0.1336 -0.2377 -0.4316
   35MOL0     H 4699   2.335  13.458   5.567  0.9123 -1.1118 -0.0447
   35MOL0     H 4700   2.259  13.360   5.438 -1.4232  1.0969 -0.0492
   35MOL0     H 4701   2.139  13.534   5.656  0.2065  1.4027 -0.8150
   35MOL0     H 4702   2.056  13.387   5.612  1.5666 -1.5205 -1.1092
   35MOL0     H 4703   2.028  13.626   5.475 -4.1844 -1.6522 -1.6627
   35MOL0     H 4704   2.142  13.549   5.373  0.0884 -0.7937  0.3142
   35MOL0     H 4705   2.410  12.788   6.036 -1.7528  2.7614 -4.3989
   35MOL0     H 4706   2.586  12.633   6.122 -1.6663  2.6919 -0.5744
   35MOL0     H 4707   2.857  12.349   6.155  0.5371  1.7993 -0.4094
   35MOL0     H 4708   3.061  12.230   6.233  2.4051 -2.6057  0.7875
   35MOL0     H 4709   3.523  10.850   6.385 -0.0419 -0.8697  2.4996
   35MOL0     H 4710   3.335  10.897   6.545  1.7822  1.7296 -2.3149
   35MOL0     H 4711   3.040  10.915   6.802  0.7729 -1.7931  0.2789
   35MOL0     H 4712   2.855  10.993   6.946  1.2280 -2.2329  1.5752
   35MOL0     H 4713   2.625  11.151   6.934  2.3911 -1.1536 -1.9298
   35MOL0     H 4714   2.659  11.052   7.078 -3.0183  1.2426  2.4298
   35MOL0     H 4715   2.454  11.098   7.152  0.4490  1.1634 -0.5453
   35MOL0     H 4716   2.397  10.975   7.043 -2.7563  0.1736 -0.1543
   35MOL0     H 4717   2.357  11.132   6.867  0.2134 -0.3012 -1.0113
   35MOL0     H 4718   2.415  11.274   6.965 -0.0849 -0.9337 -1.5826
   35MOL0     H 4719   2.232  11.204   7.138  0.4105 -0.2239 -0.0660
   35MOL0     H 4720   2.175  11.272   6.987 -1.8646 -0.0106  1.8475
   35MOL0     H 4721   2.002  10.891   6.967  1.3533  0.1370 -0.0425
   35MOL0     H 4722   2.576  10.792   6.714 -0.1117 -3.6767  1.1066
   35MOL0     H 4723   2.644  10.626   6.543  0.9297  2.7254 -4.2681
   35MOL0     H 4724   2.793  10.668   6.476  0.7828  1.6917  1.3746
   35MOL0     H 4725   2.784  10.541   6.596 -0.3299 -1.1502 -0.3074
   36MOL0     O 4726   7.640   9.896   2.640  0.0339  0.4540 -0.3530
   36MOL0     C 4727   7.575   9.789   2.662 -0.1514 -0.1416 -0.0978
   36MOL0     O 4728   7.621   9.669   2.717 -1.0859 -0.3524  0.1505
   36MOL0     C 4729   7.760   9.650   2.731  0.0386 -1.5200 -0.3992
   36MOL0     C 4730   7.849   9.740   2.788  0.4846  0.7531 -0.5337
   36MOL0     C 4731   7.985   9.704   2.814 -0.8578 -0.6084 -0.1276
   36MOL0     C 4732   8.037   9.581   2.773 -0.1665  0.6138  0.1834
   36MOL0     O 4733   8.164   9.546   2.789  0.1932  0.0138 -0.5242
   36MOL0     C 4734   8.259   9.626   2.850 -0.6584 -0.0148 -0.0273
   36MOL0     C 4735   8.257   9.605   3.005 -0.5644  0.0696  0.3514
   36MOL0     C 4736   8.374   9.661   3.078 -0.7742 -0.8029  0.0291
   36MOL0     C 4737   8.395   9.589   3.213 -1.0536 -0.9250 -0.1436
   36MOL0     C 4738   8.532   9.619   3.268 -0.6586 -0.1535  1.1981
   36MOL0     C 4739   8.553   9.571   3.418  0.3815 -1.2008  0.8401
   36MOL0     C 4740   8.520   9.426   3.444 -0.1369  0.7261  0.9559
   36MOL0     C 4741   8.593   9.323   3.354 -0.0735  0.0658  0.5407
   36MOL0     N 4742   8.742   9.308   3.345  0.3349  0.9916 -0.2621
   36MOL0     C 4743   8.841   9.368   3.414  0.1209 -0.0213 -0.8917
   36MOL0     C 4744   8.954   9.302   3.375 -0.8305  0.0730  0.4010
   36MOL0     C 4745   9.098   9.323   3.413 -0.5953  0.7254 -0.1565
   36MOL0     C 4746   9.146   9.460   3.439  0.5801 -0.6947 -0.1120
   36MOL0     C 4747   9.209   9.527   3.308  0.4358  0.1993  0.0002
   36MOL0     C 4748   9.095   9.546   3.208 -0.0069 -0.8043  0.4228
   36MOL0     O 4749   9.140   9.613   3.088 -0.1058 -0.8904  1.2600
   36MOL0     C 4750   9.038   9.645   2.996 -0.3256  0.3681 -0.4954
   36MOL0     C 4751   8.906   9.611   3.008  0.2573  0.4690 -0.4598
   36MOL0     C 4752   8.816   9.624   2.898 -0.0978  0.6410  0.3796
   36MOL0     C 4753   8.864   9.673   2.777  1.2015  0.4640 -0.3357
   36MOL0     C 4754   8.771   9.682   2.663 -0.7385  1.2733  0.3667
   36MOL0     O 4755   8.646   9.712   2.693  0.0542 -0.5483  0.2406
   36MOL0     C 4756   8.542   9.698   2.607  0.8615 -0.2261 -0.4145
   36MOL0     C 4757   8.525   9.590   2.516 -0.1978 -0.8864  0.2547
   36MOL0     C 4758   8.402   9.586   2.454  0.0083  0.1712  0.2740
   36MOL0     C 4759   8.298   9.672   2.465  1.2769 -0.2481 -0.1795
   36MOL0     O 4760   8.188   9.632   2.402  0.4087  0.7719  0.3593
   36MOL0     C 4761   8.071   9.711   2.416  0.8661 -0.5518 -0.4213
   36MOL0     C 4762   7.960   9.670   2.309 -0.1430 -0.1647 -0.3572
   36MOL0     C 4763   7.839   9.765   2.316 -0.4447  0.0577  0.0472
   36MOL0     C 4764   7.724   9.713   2.219 -0.6683  0.0169  0.3883
   36MOL0     C 4765   7.600   9.790   2.225 -0.2754 -0.5856  0.3292
   36MOL0     C 4766   7.489   9.705   2.150  0.4084  0.0151  0.1944
   36MOL0     C 4767   7.353   9.750   2.192 -0.6992 -0.5505 -0.3998
   36MOL0     C 4768   7.331   9.905   2.185 -0.3287  0.3987  0.7189
   36MOL0    Cl 4769   7.386   9.975   2.034  0.8184 -0.3155 -0.0502
   36MOL0     C 4770   8.314   9.775   2.558 -0.4527 -0.3387  0.1656
   36MOL0     C 4771   8.435   9.789   2.624 -1.5635  0.9416  0.5103
   36MOL0     O 4772   8.815   9.671   2.548  0.4340 -0.2809  0.3073
   36MOL0     C 4773   9.002   9.693   2.759  0.0141  0.1561 -0.8744
   36MOL0     C 4774   9.083   9.689   2.876 -0.1684  0.1011  0.9312
   36MOL0     N 4775   8.924   9.209   3.279  0.6948  0.0043  0.1034
   36MOL0     N 4776   8.799   9.213   3.258  0.0390  0.0285 -0.0023
   36MOL0     C 4777   7.948   9.484   2.717  0.3728 -0.6432 -0.4820
   36MOL0     C 4778   7.808   9.521   2.696  0.1684 -0.7562  0.2492
   36MOL0     C 4779   7.431   9.784   2.622 -0.0226  0.5776  0.1516
   36MOL0     C 4780   7.354   9.670   2.655 -0.1097  0.2041 -0.4440
   36MOL0     C 4781   7.217   9.656   2.624 -0.1913  0.9324  0.0576
   36MOL0     C 4782   7.149   9.755   2.562  0.6257 -0.5114 -0.4499
   36MOL0     O 4783   7.015   9.758   2.538  0.3668 -0.8949 -0.6492
   36MOL0     C 4784   6.914   9.663   2.574  0.9528 -0.2675  0.5618
   36MOL0     C 4785   6.890   9.663   2.729 -0.6570 -0.0158 -0.6552
   36MOL0     C 4786   6.851   9.808   2.753 -0.2383  0.0245 -0.3060
   36MOL0     C 4787   6.791   9.829   2.886  0.1563  0.1285  0.1220
   36MOL0     C 4788   6.678   9.746   2.923 -0.0162  0.3229  0.8023
   36MOL0     C 4789   6.577   9.692   2.958  0.5369  0.5084  0.5327
   36MOL0     C 4790   7.210   9.872   2.524  0.4802  0.6133 -0.0327
   36MOL0     C 4791   7.349   9.894   2.557 -0.9019 -0.2082  0.4297
   36MOL0     C 4792   7.394  10.040   2.537  0.3739  0.2097  0.6327
   36MOL0     H 4793   7.809   9.839   2.804 -0.9688  0.1327 -0.1049
   36MOL0     H 4794   8.052   9.785   2.842  1.6857 -2.6185 -0.1580
   36MOL0     H 4795   8.353   9.602   2.798 -0.9743  1.4145 -1.3603
   36MOL0     H 4796   8.243   9.734   2.836 -1.5082  0.5610  4.0760
   36MOL0     H 4797   8.257   9.497   3.022  1.9996 -0.3360 -1.6417
   36MOL0     H 4798   8.159   9.643   3.035 -2.7505 -2.0855 -3.3007
   36MOL0     H 4799   8.349   9.767   3.092  2.3350  0.3609 -2.0041
   36MOL0     H 4800   8.471   9.644   3.030  0.5994  1.0180  1.9165
   36MOL0     H 4801   8.328   9.638   3.285 -2.1062 -1.0536 -1.0219
   36MOL0     H 4802   8.372   9.483   3.201 -0.2573 -1.3098  1.4804
   36MOL0     H 4803   8.619   9.593   3.208 -1.7207 -0.1050 -0.3957
   36MOL0     H 4804   8.521   9.728   3.264 -0.8689 -0.1991  0.4768
   36MOL0     H 4805   8.653   9.592   3.458 -0.5970  2.0516  1.8328
   36MOL0     H 4806   8.488   9.633   3.480  0.7150 -0.4749  0.4705
   36MOL0     H 4807   8.411   9.419   3.439 -0.1258  0.8783  0.4439
   36MOL0     H 4808   8.545   9.391   3.545  0.8949 -1.2157  0.0755
   36MOL0     H 4809   8.545   9.225   3.368 -0.0927 -0.0648 -0.3701
   36MOL0     H 4810   8.566   9.357   3.254  0.4739  0.5022  0.5364
   36MOL0     H 4811   8.834   9.455   3.479 -1.6997 -0.7268 -0.0724
   36MOL0     H 4812   9.116   9.267   3.505  3.5564  1.8550 -0.0692
   36MOL0     H 4813   9.170   9.282   3.342 -0.6081 -1.3779  0.9466
   36MOL0     H 4814   9.068   9.512   3.496  0.5593 -1.1279  0.2581
   36MOL0     H 4815   9.224   9.452   3.516  0.5301  0.0478  0.0280
   36MOL0     H 4816   9.287   9.465   3.262 -1.9035 -1.4872 -1.9424
   36MOL0     H 4817   9.248   9.620   3.350  2.4021 -0.5070 -0.1250
   36MOL0     H 4818   9.020   9.609   3.257 -0.8893 -2.5894  1.4475
   36MOL0     H 4819   9.051   9.453   3.171 -1.7560 -0.0768  0.6143
   36MOL0     H 4820   8.861   9.560   3.093  0.7370  0.5897 -0.1275
   36MOL0     H 4821   8.710   9.604   2.907 -0.4159  2.1616  0.2198
   36MOL0     H 4822   8.597   9.508   2.512 -1.6391 -2.3962  2.4356
   36MOL0     H 4823   8.389   9.494   2.399  2.0010 -0.9422  1.5539
   36MOL0     H 4824   8.038   9.710   2.520 -2.5546 -0.3656 -1.3736
   36MOL0     H 4825   8.084   9.818   2.397 -1.5782 -0.1861 -0.4004
   36MOL0     H 4826   8.012   9.685   2.215  2.0116 -0.0695  0.7855
   36MOL0     H 4827   7.930   9.567   2.327 -0.0519  0.0139  0.9642
   36MOL0     H 4828   7.790   9.768   2.414 -0.1962 -0.4127  0.1897
   36MOL0     H 4829   7.865   9.867   2.287 -2.0434  0.0225 -1.7296
   36MOL0     H 4830   7.702   9.619   2.270 -0.2778 -2.4282 -3.4945
   36MOL0     H 4831   7.753   9.692   2.116  1.4544 -0.0727  0.9548
   36MOL0     H 4832   7.613   9.885   2.172  0.7613 -0.6986  0.3669
   36MOL0     H 4833   7.576   9.801   2.331  1.3415 -2.4595  0.9649
   36MOL0     H 4834   7.499   9.724   2.043  0.6024 -0.0641  0.1980
   36MOL0     H 4835   7.495   9.598   2.173 -0.6093  0.7749  5.2132
   36MOL0     H 4836   7.318   9.717   2.290 -1.3066  0.6588 -0.1837
   36MOL0     H 4837   7.277   9.711   2.124 -1.6914 -1.8690  1.3919
   36MOL0     H 4838   7.229   9.940   2.205 -0.5806  1.3757 -1.9015
   36MOL0     H 4839   7.385   9.947   2.271 -1.7031  0.5079  1.5667
   36MOL0     H 4840   8.234   9.834   2.601 -0.2778 -2.1368  3.2886
   36MOL0     H 4841   8.460   9.869   2.694  1.6621  3.6170 -3.2643
   36MOL0     H 4842   9.039   9.721   2.661 -1.5400 -0.6296 -1.7253
   36MOL0     H 4843   9.188   9.717   2.880  0.0414  0.2027 -2.5144
   36MOL0     H 4844   7.996   9.394   2.681 -0.0057 -1.2732  0.5641
   36MOL0     H 4845   7.743   9.449   2.646  2.1212 -4.1313  2.1843
   36MOL0     H 4846   7.394   9.583   2.705  2.3271  1.3306 -0.3024
   36MOL0     H 4847   7.162   9.576   2.673  0.2215  1.6671  1.8006
   36MOL0     H 4848   6.946   9.569   2.529 -0.9343 -0.4079 -0.5877
   36MOL0     H 4849   6.827   9.686   2.512 -1.2665 -2.8545  2.4898
   36MOL0     H 4850   6.984   9.636   2.777 -0.9182 -1.7260 -1.0414
   36MOL0     H 4851   6.812   9.587   2.743 -0.9289 -0.0061 -1.9844
   36MOL0     H 4852   6.791   9.842   2.668  0.2926 -1.6289 -1.3996
   36MOL0     H 4853   6.940   9.869   2.764  0.1830 -1.0358  3.2100
   36MOL0     H 4854   6.874   9.797   2.951 -1.5551 -1.1844  1.7687
   36MOL0     H 4855   6.770   9.936   2.895 -1.7929 -0.1061 -1.1221
   36MOL0     H 4856   6.483   9.646   2.981  0.6414 -0.5988 -1.1732
   36MOL0     H 4857   7.157   9.951   2.472  4.2398  3.0763 -0.5114
   36MOL0     H 4858   7.499  10.035   2.507  0.1143 -0.4678 -0.2114
   36MOL0     H 4859   7.339  10.095   2.459  0.7469 -0.5481 -0.1874
   36MOL0     H 4860   7.394  10.108   2.622 -0.3333  0.4907  0.4180
   37MOL0     O 4861   7.288   6.049   8.767  0.3748  0.2279  0.1030
   37MOL0     C 4862   7.324   6.109   8.869  0.1741 -0.0819  0.3686
   37MOL0     O 4863   7.392   6.050   8.972  0.7291 -0.4716 -0.0116
   37MOL0     C 4864   7.433   5.925   8.981 -0.1959  1.1674  0.0912
   37MOL0     C 4865   7.546   5.903   9.058 -0.1936  0.5251 -0.7592
   37MOL0     C 4866   7.590   5.768   9.076  0.3299 -0.7800 -0.0996
   37MOL0     C 4867   7.523   5.666   9.021  0.9269 -0.0494 -0.1380
   37MOL0     O 4868   7.556   5.537   9.025  0.0768  0.3964 -0.1068
   37MOL0     C 4869   7.668   5.490   9.110  0.7239 -0.1762  0.7411
   37MOL0     C 4870   7.688   5.338   9.068 -0.4073 -0.5881  0.4922
   37MOL0     C 4871   7.788   5.270   9.170 -0.9707 -0.8988 -0.5981
   37MOL0     C 4872   7.716   5.215   9.292 -0.3473  0.3179  0.2007
   37MOL0     C 4873   7.795   5.103   9.371  0.4489 -0.8674 -0.9663
   37MOL0     C 4874   7.906   5.172   9.449  0.1241  0.2328 -0.0500
   37MOL0     C 4875   7.993   5.057   9.519 -0.3045  0.1214 -0.6771
   37MOL0     C 4876   8.071   5.098   9.641 -0.5005  0.0116  0.5884
   37MOL0     N 4877   8.111   5.004   9.740 -0.0607  0.1205 -0.6238
   37MOL0     C 4878   8.215   4.915   9.727 -0.5896 -0.6617  0.3388
   37MOL0     C 4879   8.197   4.829   9.835  0.1279 -1.0091  0.7641
   37MOL0     C 4880   8.281   4.710   9.862  0.1919 -0.2297 -0.4261
   37MOL0     C 4881   8.404   4.740   9.954  0.1752 -0.6917 -0.3087
   37MOL0     C 4882   8.351   4.791  10.091 -0.5318 -0.1223  0.0183
   37MOL0     C 4883   8.473   4.850  10.170 -0.0868  0.4717 -0.1609
   37MOL0     O 4884   8.480   4.789  10.304  0.6663 -0.2582  0.3939
   37MOL0     C 4885   8.561   4.834  10.405  0.3379 -0.2909 -0.3647
   37MOL0     C 4886   8.531   4.786  10.532 -0.0565 -0.3374 -0.4683
   37MOL0     C 4887   8.617   4.818  10.640  0.4932  0.5354 -0.3239
   37MOL0     C 4888   8.729   4.900  10.616 -0.5704  0.6942 -0.1724
   37MOL0     C 4889   8.810   4.950  10.727 -0.7067  1.3450 -0.4281
   37MOL0     O 4890   8.919   5.014  10.686 -0.0682 -0.0153 -0.4854
   37MOL0     C 4891   8.995   5.070  10.785 -0.5039 -0.2979  0.3260
   37MOL0     C 4892   9.131   5.028  10.805  0.1621 -0.1230 -0.4445
   37MOL0     C 4893   9.220   5.108  10.881  0.1755 -0.4709  0.3178
   37MOL0     C 4894   9.173   5.220  10.950 -0.4207 -0.0911  0.7114
   37MOL0     O 4895   9.248   5.297  11.043 -0.2999  0.6233 -0.0460
   37MOL0     C 4896   9.376   5.271  11.075 -0.0507 -0.7701 -0.2748
   37MOL0     C 4897   9.398   5.321  11.217 -0.4155 -0.2441 -0.6407
   37MOL0     C 4898   9.535   5.284  11.279  0.3026 -0.3258  0.4485
   37MOL0     C 4899   9.660   5.355  11.220  0.1182 -0.0294  0.0815
   37MOL0     C 4900   9.648   5.508  11.208 -0.1018  0.6255  0.3574
   37MOL0     C 4901   9.776   5.586  11.173 -0.4236  0.5678 -0.2796
   37MOL0     C 4902   9.753   5.724  11.125 -0.1037  1.1043  0.4495
   37MOL0     C 4903   9.885   5.795  11.118  0.1672 -0.2786 -0.6933
   37MOL0    Cl 4904   9.995   5.805  11.266 -0.1821 -0.3023 -0.2575
   37MOL0     C 4905   9.040   5.255  10.946 -0.5526  0.9818  0.3312
   37MOL0     C 4906   8.949   5.182  10.862 -0.9699 -0.2797  0.3693
   37MOL0     O 4907   8.777   4.916  10.840 -0.4133 -0.5339 -0.7825
   37MOL0     C 4908   8.753   4.955  10.486  0.2881  0.1555  0.1366
   37MOL0     C 4909   8.665   4.920  10.386  0.3113 -0.5778 -0.4626
   37MOL0     N 4910   8.082   4.871   9.909 -0.4765 -0.1908  0.5042
   37MOL0     N 4911   8.038   4.972   9.852 -0.5063  0.6094 -0.1754
   37MOL0     C 4912   7.406   5.686   8.954  0.7996  0.0816  0.1981
   37MOL0     C 4913   7.367   5.813   8.925  0.3765  0.0847  0.2526
   37MOL0     C 4914   7.291   6.257   8.886  0.9090  0.2813 -0.2936
   37MOL0     C 4915   7.364   6.330   8.978 -1.0409  0.9469 -0.1535
   37MOL0     C 4916   7.337   6.469   8.992 -0.7302 -0.4957 -0.1836
   37MOL0     C 4917   7.239   6.539   8.923  0.8307  0.4852 -0.4527
   37MOL0     O 4918   7.217   6.674   8.944  0.4610  0.6511  0.3996
   37MOL0     C 4919   7.088   6.691   8.992 -0.4841  0.7954 -0.6216
   37MOL0     C 4920   7.087   6.823   9.075  0.6209  0.3078  0.0249
   37MOL0     C 4921   6.956   6.870   9.134  0.1312  0.6617  0.4535
   37MOL0     C 4922   6.876   6.948   9.020  0.5370  0.4417 -0.4997
   37MOL0     C 4923   6.731   6.977   9.048  1.2064 -0.2073 -0.0893
   37MOL0     C 4924   6.616   7.018   9.054 -0.0127  0.5726 -1.0977
   37MOL0     C 4925   7.158   6.457   8.836 -0.0218 -0.5416 -0.4066
   37MOL0     C 4926   7.185   6.322   8.818 -0.4087  0.0050 -0.1719
   37MOL0     C 4927   7.087   6.245   8.732  0.2492 -0.8342  0.5987
   37MOL0     H 4928   7.595   5.983   9.112  0.2082  0.9922 -1.7859
   37MOL0     H 4929   7.661   5.743   9.155 -1.0162 -0.4799  1.2671
   37MOL0     H 4930   7.762   5.539   9.084  0.3294 -0.1728 -0.7992
   37MOL0     H 4931   7.650   5.498   9.217  0.0729 -0.0360  0.6291
   37MOL0     H 4932   7.729   5.346   8.967  0.9416 -0.8155  1.0087
   37MOL0     H 4933   7.585   5.299   9.069 -1.2228  1.4398 -0.0484
   37MOL0     H 4934   7.854   5.350   9.207 -1.2643  1.2112 -4.2208
   37MOL0     H 4935   7.853   5.197   9.121 -0.2954 -1.3294  0.8500
   37MOL0     H 4936   7.673   5.287   9.361 -1.2496  0.5287 -0.5563
   37MOL0     H 4937   7.641   5.147   9.250  0.2051 -0.0253 -0.2453
   37MOL0     H 4938   7.726   5.045   9.433 -1.2954  2.3185  0.3602
   37MOL0     H 4939   7.824   5.027   9.299  2.4684 -2.1039  1.0272
   37MOL0     H 4940   7.963   5.239   9.384  0.1888 -0.4385 -0.6915
   37MOL0     H 4941   7.858   5.238   9.522  1.5802  3.9118 -2.1152
   37MOL0     H 4942   8.066   5.008   9.454  0.6706 -0.3354  0.7176
   37MOL0     H 4943   7.919   4.990   9.563 -1.4034  1.1501 -0.9048
   37MOL0     H 4944   8.152   5.159   9.601 -0.9416  0.0891 -0.2191
   37MOL0     H 4945   8.006   5.169   9.694  2.9421  4.9894 -1.1119
   37MOL0     H 4946   8.299   4.924   9.660 -1.5904 -0.1464 -0.8932
   37MOL0     H 4947   8.217   4.642   9.920  1.3599 -1.0537 -0.0590
   37MOL0     H 4948   8.317   4.663   9.770  1.3803 -2.0935  0.9239
   37MOL0     H 4949   8.461   4.649   9.974  1.6496 -0.3527 -2.6424
   37MOL0     H 4950   8.476   4.812   9.915  1.5004 -0.3487  2.5328
   37MOL0     H 4951   8.304   4.714  10.153  2.4330 -3.4844 -1.5494
   37MOL0     H 4952   8.283   4.875  10.078  0.7701  0.6308 -2.6936
   37MOL0     H 4953   8.466   4.959  10.159  1.8539  0.5270 -1.3568
   37MOL0     H 4954   8.571   4.821  10.130 -0.0754 -1.3095  1.0362
   37MOL0     H 4955   8.444   4.721  10.527  2.5427 -4.1039 -3.9921
   37MOL0     H 4956   8.599   4.769  10.735  1.8327 -1.2551 -0.9427
   37MOL0     H 4957   9.162   4.938  10.752  0.8823 -2.1737  3.1464
   37MOL0     H 4958   9.325   5.089  10.899  1.0561  2.7964 -0.7842
   37MOL0     H 4959   9.410   5.167  11.072  0.3998 -0.6117 -1.0090
   37MOL0     H 4960   9.433   5.322  10.997 -0.6997  0.6446  0.1531
   37MOL0     H 4961   9.397   5.430  11.225  1.7102 -0.2396  0.0798
   37MOL0     H 4962   9.328   5.281  11.291  0.8808 -0.6890  0.3865
   37MOL0     H 4963   9.525   5.301  11.386 -0.3410  1.4545  0.1423
   37MOL0     H 4964   9.546   5.176  11.261  1.1276 -0.1544 -0.1234
   37MOL0     H 4965   9.687   5.311  11.123  2.0823  2.2363 -0.5007
   37MOL0     H 4966   9.750   5.334  11.277 -0.0174 -2.0868 -0.4000
   37MOL0     H 4967   9.607   5.548  11.301  2.3188  2.2775  0.8055
   37MOL0     H 4968   9.579   5.521  11.124  1.4770 -0.3698 -1.1717
   37MOL0     H 4969   9.840   5.574  11.261 -0.6113  2.4960  0.1689
   37MOL0     H 4970   9.823   5.524  11.096 -2.5339 -0.6051 -0.7210
   37MOL0     H 4971   9.692   5.777  11.199  1.8869  0.2729  2.8265
   37MOL0     H 4972   9.706   5.714  11.028  0.8807 -3.4096  0.2135
   37MOL0     H 4973   9.955   5.754  11.044 -0.4392 -0.7527 -1.0201
   37MOL0     H 4974   9.851   5.895  11.092 -1.3269 -0.0943  1.7115
   37MOL0     H 4975   8.984   5.328  11.003 -2.2295  0.7452 -0.9475
   37MOL0     H 4976   8.845   5.214  10.862 -0.7141  0.6078  1.3074
   37MOL0     H 4977   8.837   5.023  10.469 -0.2903  1.6885  2.8619
   37MOL0     H 4978   8.676   4.967  10.289 -1.6894 -1.1842 -1.0430
   37MOL0     H 4979   7.349   5.606   8.908 -1.4128  1.2130  0.8730
   37MOL0     H 4980   7.274   5.826   8.870  0.6195  2.1256  0.2484
   37MOL0     H 4981   7.446   6.280   9.028 -0.5461  1.5805 -0.3078
   37MOL0     H 4982   7.402   6.537   9.046  1.4626 -3.0555  0.6259
   37MOL0     H 4983   7.062   6.606   9.056  0.8525 -0.3612 -1.5582
   37MOL0     H 4984   7.010   6.707   8.917  0.4182  3.4717 -1.0876
   37MOL0     H 4985   7.130   6.898   9.008  3.1184 -0.7958  0.3156
   37MOL0     H 4986   7.154   6.804   9.159 -1.9574 -2.3339  1.6773
   37MOL0     H 4987   6.960   6.918   9.232 -1.3896 -2.1375  2.0110
   37MOL0     H 4988   6.915   6.771   9.156  1.7509 -0.1779 -0.1263
   37MOL0     H 4989   6.923   7.046   9.010 -3.1085  2.4211 -0.2065
   37MOL0     H 4990   6.886   6.892   8.927  0.8543 -2.0339  0.9474
   37MOL0     H 4991   6.520   7.059   9.078  1.0241  2.1795  0.5851
   37MOL0     H 4992   7.077   6.504   8.780 -0.5091  3.1979  2.9797
   37MOL0     H 4993   7.145   6.217   8.644  3.1663  0.7600  1.8822
   37MOL0     H 4994   7.058   6.151   8.780  1.3599 -1.6892 -0.3407
   37MOL0     H 4995   7.001   6.308   8.707  1.9643  1.1374 -0.5673
   38MOL0     O 4996   2.412   4.343   1.679  0.3263 -0.0776 -0.1369
   38MOL0     C 4997   2.362   4.241   1.711 -0.4208  0.0521 -0.6256
   38MOL0     O 4998   2.430   4.124   1.692 -0.0359 -0.0798 -0.7381
   38MOL0     C 4999   2.561   4.125   1.654 -0.7853  0.0811  0.7100
   38MOL0     C 5000   2.657   4.180   1.738 -0.3577 -0.2808  0.3505
   38MOL0     C 5001   2.791   4.179   1.708 -1.0094 -0.4960  0.8020
   38MOL0     C 5002   2.837   4.107   1.596  0.0358 -0.5296  0.2361
   38MOL0     O 5003   2.968   4.116   1.555  0.4190  0.2644 -0.1334
   38MOL0     C 5004   3.029   3.983   1.546 -0.9493 -0.0105 -0.1562
   38MOL0     C 5005   3.175   3.975   1.611 -0.1484  0.1560  0.5525
   38MOL0     C 5006   3.164   4.007   1.762 -0.4439  0.2100 -0.3209
   38MOL0     C 5007   3.266   3.932   1.845  0.6843 -0.1007 -0.0878
   38MOL0     C 5008   3.274   3.966   1.994 -0.3979  0.0700 -0.2261
   38MOL0     C 5009   3.323   4.102   2.021 -0.4528 -0.3494 -0.6713
   38MOL0     C 5010   3.286   4.137   2.168 -0.1456 -0.8198 -0.4256
   38MOL0     C 5011   3.410   4.108   2.247  0.2508  0.4584 -0.0808
   38MOL0     N 5012   3.517   4.206   2.210  0.4146  0.0494  0.8503
   38MOL0     C 5013   3.640   4.163   2.157  0.2033 -0.0038  0.5436
   38MOL0     C 5014   3.706   4.285   2.158  0.1204  0.2973 -0.6099
   38MOL0     C 5015   3.851   4.313   2.133 -0.1088  0.1782  0.0567
   38MOL0     C 5016   3.936   4.302   2.258  0.2624  0.3807 -0.1778
   38MOL0     C 5017   4.043   4.184   2.265  0.2784 -1.4821 -0.6425
   38MOL0     C 5018   4.123   4.181   2.392 -1.0962 -0.6652 -0.4824
   38MOL0     O 5019   4.197   4.306   2.399 -0.5920 -0.2064 -0.1429
   38MOL0     C 5020   4.317   4.293   2.444 -0.0856  0.6329  0.0909
   38MOL0     C 5021   4.404   4.401   2.419  0.2022  0.0141  0.4899
   38MOL0     C 5022   4.529   4.409   2.474 -0.2835  0.1554 -0.5137
   38MOL0     C 5023   4.589   4.308   2.544 -0.3131 -1.1407  0.1446
   38MOL0     C 5024   4.728   4.316   2.587 -0.1973 -0.1097  0.4427
   38MOL0     O 5025   4.800   4.389   2.501  0.2482 -0.7813 -0.1766
   38MOL0     C 5026   4.936   4.415   2.520  0.2874 -1.2763  0.3017
   38MOL0     C 5027   5.024   4.367   2.622 -0.1244  0.5562  0.2071
   38MOL0     C 5028   5.148   4.426   2.635 -0.5965 -0.2808  0.3150
   38MOL0     C 5029   5.206   4.513   2.540  0.1145 -0.0995 -0.4650
   38MOL0     O 5030   5.336   4.560   2.562 -0.1336  0.4664  0.0381
   38MOL0     C 5031   5.412   4.605   2.453 -1.3610  0.0292  0.1062
   38MOL0     C 5032   5.543   4.517   2.472 -0.0306 -0.6639 -0.0990
   38MOL0     C 5033   5.647   4.563   2.376 -0.5268  0.9309  0.1727
   38MOL0     C 5034   5.782   4.495   2.404 -0.7280 -0.0645 -0.2001
   38MOL0     C 5035   5.881   4.566   2.315  0.3443 -0.0672 -0.0520
   38MOL0     C 5036   6.012   4.497   2.344  0.0026  0.3009  0.2059
   38MOL0     C 5037   6.125   4.592   2.308  0.0484 -0.0214 -0.4739
   38MOL0     C 5038   6.263   4.517   2.277  0.2225  0.0430  0.1012
   38MOL0    Cl 5039   6.249   4.440   2.115  0.3224 -0.5135  0.0605
   38MOL0     C 5040   5.133   4.558   2.434  0.3212 -0.0209  0.5825
   38MOL0     C 5041   4.997   4.511   2.425 -0.5590  0.9354  0.6917
   38MOL0     O 5042   4.770   4.253   2.686  0.2734 -0.5146 -0.0872
   38MOL0     C 5043   4.511   4.196   2.573 -0.9183  0.8634 -0.1591
   38MOL0     C 5044   4.377   4.191   2.523 -0.3621 -0.2350  0.2221
   38MOL0     N 5045   3.614   4.391   2.193  0.1044 -0.9804 -0.0008
   38MOL0     N 5046   3.504   4.343   2.228 -0.7895  0.4971 -0.2957
   38MOL0     C 5047   2.743   4.061   1.506 -1.0528 -0.4445 -0.2003
   38MOL0     C 5048   2.608   4.074   1.534  0.6473  0.2781  0.0464
   38MOL0     C 5049   2.226   4.237   1.776 -0.1781 -0.2095  0.5784
   38MOL0     C 5050   2.157   4.120   1.780 -0.2153  0.7045  0.5985
   38MOL0     C 5051   2.027   4.114   1.829 -0.9013 -0.3092 -0.1671
   38MOL0     C 5052   1.965   4.232   1.882  0.3154  0.3883 -0.4042
   38MOL0     O 5053   1.843   4.231   1.957 -0.1740  0.5464 -0.0542
   38MOL0     C 5054   1.741   4.142   1.911  0.4283 -0.2622  0.4426
   38MOL0     C 5055   1.609   4.221   1.912  0.5106 -0.0318  0.3972
   38MOL0     C 5056   1.615   4.363   1.842 -0.5049  0.0163 -0.0640
   38MOL0     C 5057   1.485   4.410   1.784 -0.3856  0.3555 -0.1246
   38MOL0     C 5058   1.374   4.403   1.877  0.0915  0.3881  0.3862
   38MOL0     C 5059   1.296   4.397   1.963 -0.1682  0.6474 -0.4106
   38MOL0     C 5060   2.041   4.341   1.892  0.1061  0.3803  0.3660
   38MOL0     C 5061   2.166   4.349   1.836  0.6041 -0.0584  0.4992
   38MOL0     C 5062   2.253   4.476   1.858 -0.3715  0.3515 -0.0278
   38MOL0     H 5063   2.635   4.235   1.829  2.5450  1.4735  0.1171
   38MOL0     H 5064   2.866   4.225   1.771 -2.2299  5.2487 -1.3318
   38MOL0     H 5065   2.961   3.903   1.577  1.9855 -3.2311 -1.4038
   38MOL0     H 5066   3.043   3.970   1.439 -2.7204 -0.4781 -0.3605
   38MOL0     H 5067   3.248   4.038   1.561  3.1426 -1.9986  2.3144
   38MOL0     H 5068   3.210   3.872   1.598  1.0156  0.8429 -2.6483
   38MOL0     H 5069   3.064   3.991   1.802 -0.4980  0.4373 -0.3612
   38MOL0     H 5070   3.181   4.114   1.780 -2.3434  0.4077  0.5279
   38MOL0     H 5071   3.248   3.825   1.844 -1.7811  0.2706 -0.0236
   38MOL0     H 5072   3.354   3.953   1.783 -1.1373  2.9229 -1.9378
   38MOL0     H 5073   3.173   3.948   2.031 -0.1029 -0.6561  0.2522
   38MOL0     H 5074   3.345   3.898   2.042  0.3007  0.8501 -0.1362
   38MOL0     H 5075   3.431   4.108   2.004 -0.2393 -2.4857 -0.3097
   38MOL0     H 5076   3.284   4.183   1.959  0.1903 -1.4090 -2.5425
   38MOL0     H 5077   3.196   4.082   2.198 -0.1176 -0.8081 -0.3196
   38MOL0     H 5078   3.268   4.243   2.188 -0.0066 -1.1219  1.4653
   38MOL0     H 5079   3.386   4.118   2.353 -3.0259 -0.7475 -0.6050
   38MOL0     H 5080   3.441   4.006   2.220  0.5464  1.0194 -1.9933
   38MOL0     H 5081   3.681   4.066   2.129  0.8993  0.6312 -0.7261
   38MOL0     H 5082   3.895   4.247   2.058 -1.9952 -1.6256  0.4615
   38MOL0     H 5083   3.869   4.406   2.077 -2.3445 -0.6999 -2.3207
   38MOL0     H 5084   4.001   4.390   2.269  0.1532  0.6776 -1.6989
   38MOL0     H 5085   3.879   4.286   2.349  2.4094 -1.6888  0.9096
   38MOL0     H 5086   4.111   4.195   2.180  2.0359 -0.0448  0.8499
   38MOL0     H 5087   3.984   4.092   2.265 -2.4068  0.0683  1.8330
   38MOL0     H 5088   4.184   4.091   2.385  1.2076  0.8059 -0.3637
   38MOL0     H 5089   4.053   4.184   2.476  0.7913 -1.2581  1.1737
   38MOL0     H 5090   4.370   4.487   2.363 -0.7445  1.5671  3.2756
   38MOL0     H 5091   4.593   4.495   2.463 -0.5573  0.3837 -0.3185
   38MOL0     H 5092   4.991   4.307   2.707  0.8744  0.0601  0.2639
   38MOL0     H 5093   5.204   4.388   2.719  0.0277 -0.6313 -0.2588
   38MOL0     H 5094   5.383   4.577   2.352  0.0759 -5.0401  0.8520
   38MOL0     H 5095   5.442   4.710   2.469  1.2291 -0.6251  0.0933
   38MOL0     H 5096   5.587   4.530   2.571 -3.9641  2.5238  1.5055
   38MOL0     H 5097   5.524   4.411   2.452  0.8677 -0.4653 -2.3532
   38MOL0     H 5098   5.615   4.529   2.277 -0.4378  1.5331 -0.0675
   38MOL0     H 5099   5.660   4.672   2.367  0.4083  0.7783 -0.5122
   38MOL0     H 5100   5.772   4.389   2.379 -0.9946 -0.2992  0.8554
   38MOL0     H 5101   5.805   4.504   2.511  1.3208  1.9672 -0.7240
   38MOL0     H 5102   5.880   4.675   2.322 -1.2050  0.0681 -1.7869
   38MOL0     H 5103   5.859   4.561   2.208 -0.6709  0.4335  0.1204
   38MOL0     H 5104   6.019   4.460   2.447 -1.5550 -1.8661 -0.3924
   38MOL0     H 5105   6.033   4.405   2.288  0.1458 -0.2860  1.1939
   38MOL0     H 5106   6.154   4.649   2.397  0.7082  0.6621 -1.1050
   38MOL0     H 5107   6.106   4.670   2.234  0.5430 -0.3079 -0.9102
   38MOL0     H 5108   6.341   4.593   2.268 -0.1539  0.5456  0.9236
   38MOL0     H 5109   6.303   4.445   2.349  1.4897 -1.3678 -1.8957
   38MOL0     H 5110   5.169   4.630   2.361 -2.6728 -0.3642 -1.4180
   38MOL0     H 5111   4.939   4.543   2.340 -0.4348  1.5481  0.8305
   38MOL0     H 5112   4.562   4.109   2.613  2.0504  1.8557 -1.5559
   38MOL0     H 5113   4.320   4.103   2.548 -1.0387 -0.2789 -1.3430
   38MOL0     H 5114   2.776   4.006   1.418  1.6223 -0.5064  0.7554
   38MOL0     H 5115   2.530   4.031   1.472  1.8983 -2.3439  0.1719
   38MOL0     H 5116   2.196   4.028   1.737  3.7418  3.2027 -1.8193
   38MOL0     H 5117   1.982   4.015   1.824 -3.2752  0.4464  2.9068
   38MOL0     H 5118   1.742   4.051   1.972 -0.8226 -0.8224 -0.3204
   38MOL0     H 5119   1.767   4.108   1.810  3.1543 -0.1186  1.0132
   38MOL0     H 5120   1.586   4.238   2.017  1.2107 -1.2810  0.7740
   38MOL0     H 5121   1.520   4.162   1.888 -0.4937  0.5052  2.5490
   38MOL0     H 5122   1.686   4.366   1.759  0.5998  1.7566  0.8899
   38MOL0     H 5123   1.648   4.440   1.913  2.6450 -1.3699  0.1246
   38MOL0     H 5124   1.502   4.517   1.767  0.5912  0.3332  0.6242
   38MOL0     H 5125   1.458   4.354   1.694 -1.6179  0.5415  0.1150
   38MOL0     H 5126   1.221   4.392   2.040  0.9071  1.3985  0.7232
   38MOL0     H 5127   1.995   4.428   1.938  0.8914  0.1567  1.6356
   38MOL0     H 5128   2.357   4.454   1.884 -0.0765  2.4212  0.7021
   38MOL0     H 5129   2.252   4.549   1.776 -0.6275  0.4240  0.0376
   38MOL0     H 5130   2.208   4.523   1.946  1.3831 -2.2977  2.4447
   39MOL0     O 5131   6.023   4.016   2.101 -0.3290 -0.3967  0.8642
   39MOL0     C 5132   6.013   4.012   1.976 -0.0285  0.6076 -0.1898
   39MOL0     O 5133   6.091   3.933   1.894 -0.0875 -0.2064 -0.0125
   39MOL0     C 5134   6.224   3.912   1.938  0.3253  0.6413  0.7473
   39MOL0     C 5135   6.283   3.790   1.891  0.2622 -0.6694  0.3405
   39MOL0     C 5136   6.409   3.752   1.950 -0.2041  0.4106  0.1990
   39MOL0     C 5137   6.485   3.840   2.025 -0.4685 -0.5778  0.0298
   39MOL0     O 5138   6.608   3.784   2.066  0.0136 -0.9723 -0.0855
   39MOL0     C 5139   6.664   3.831   2.192  0.3242 -0.2044 -0.1680
   39MOL0     C 5140   6.789   3.753   2.215 -0.4232  0.0448  0.0030
   39MOL0     C 5141   6.900   3.805   2.124 -0.3394  0.2041  0.3093
   39MOL0     C 5142   7.035   3.735   2.164 -0.9257  0.3712  0.1891
   39MOL0     C 5143   7.154   3.805   2.094  0.2304 -0.0624  0.5242
   39MOL0     C 5144   7.277   3.724   2.130 -0.6478  0.2743 -0.1572
   39MOL0     C 5145   7.400   3.786   2.066 -1.1212 -0.4780 -0.6132
   39MOL0     C 5146   7.524   3.712   2.120 -0.9227  1.5294  0.2488
   39MOL0     N 5147   7.642   3.766   2.053  0.1336  0.2421 -0.1880
   39MOL0     C 5148   7.715   3.696   1.962 -0.2245 -0.0408  0.3967
   39MOL0     C 5149   7.809   3.787   1.926 -0.2167 -1.0323  0.9303
   39MOL0     C 5150   7.906   3.766   1.809  1.0676 -0.1360 -1.0354
   39MOL0     C 5151   8.046   3.799   1.862  0.5556 -0.1782 -0.5146
   39MOL0     C 5152   8.085   3.704   1.977 -0.2838 -0.0411 -0.9660
   39MOL0     C 5153   8.225   3.641   1.967 -0.9476  0.5799  0.2506
   39MOL0     O 5154   8.327   3.741   1.969 -0.3191  0.4200 -0.3875
   39MOL0     C 5155   8.456   3.721   2.004 -0.0152 -0.3323  0.9087
   39MOL0     C 5156   8.535   3.836   2.033  0.4296 -0.8028  0.1306
   39MOL0     C 5157   8.673   3.835   2.058  0.3145  0.1081  0.2553
   39MOL0     C 5158   8.736   3.712   2.071 -0.3661  0.1232 -0.1846
   39MOL0     C 5159   8.884   3.707   2.110  0.4026 -0.1150 -0.3856
   39MOL0     O 5160   8.958   3.596   2.065 -0.2084 -0.0557  0.3042
   39MOL0     C 5161   9.075   3.550   2.119  0.4073  0.2317  0.0465
   39MOL0     C 5162   9.179   3.635   2.155  0.0426  1.3561 -0.0400
   39MOL0     C 5163   9.300   3.578   2.197  0.0970  0.4432 -0.7589
   39MOL0     C 5164   9.313   3.440   2.236  0.2115  0.0691  0.3009
   39MOL0     O 5165   9.432   3.410   2.292  0.5725 -0.3747  0.2287
   39MOL0     C 5166   9.421   3.346   2.418 -1.0879 -0.7843 -1.1712
   39MOL0     C 5167   9.470   3.203   2.425  0.1085  0.1911  0.5997
   39MOL0     C 5168   9.627   3.187   2.409 -0.1432  0.6187  1.6728
   39MOL0     C 5169   9.673   3.240   2.271 -0.4186 -0.8744  0.5019
   39MOL0     C 5170   9.820   3.192   2.244  0.3333 -0.0763 -0.6740
   39MOL0     C 5171   9.924   3.299   2.282 -0.1135 -0.3628 -0.0039
   39MOL0     C 5172  10.070   3.274   2.243  0.4542  0.1718  0.5824
   39MOL0     C 5173  10.101   3.265   2.093  0.2163 -1.2410 -0.1337
   39MOL0    Cl 5174  10.289   3.267   2.063  0.4964  0.3283 -0.1406
   39MOL0     C 5175   9.208   3.354   2.212 -0.8923 -0.1354 -0.3504
   39MOL0     C 5176   9.090   3.409   2.148  0.1642 -0.3099 -0.7852
   39MOL0     O 5177   8.928   3.799   2.181 -0.2253  0.2794  0.3674
   39MOL0     C 5178   8.674   3.598   2.023 -0.5589  0.2763  0.4857
   39MOL0     C 5179   8.535   3.609   1.995  0.2213 -0.1736 -0.1490
   39MOL0     N 5180   7.802   3.903   2.002 -0.3640 -0.1543  0.2522
   39MOL0     N 5181   7.700   3.884   2.074  1.1109 -0.9099 -0.1878
   39MOL0     C 5182   6.423   3.960   2.064  0.3358  0.0866  0.8987
   39MOL0     C 5183   6.302   4.005   2.015  0.2337 -0.2035  0.3776
   39MOL0     C 5184   5.910   4.094   1.910  1.1252 -0.9495 -0.6260
   39MOL0     C 5185   5.907   4.086   1.774  0.0562 -0.2062  0.4235
   39MOL0     C 5186   5.799   4.143   1.701 -0.1974 -0.8346 -0.1838
   39MOL0     C 5187   5.700   4.231   1.762  0.7800  0.3236  0.2024
   39MOL0     O 5188   5.597   4.283   1.693 -0.3943 -0.0717  0.9809
   39MOL0     C 5189   5.493   4.361   1.747  0.2325  0.0443 -1.1175
   39MOL0     C 5190   5.377   4.370   1.650 -0.3854 -0.2611 -1.2034
   39MOL0     C 5191   5.403   4.455   1.522  0.3279 -0.3649 -0.0208
   39MOL0     C 5192   5.376   4.603   1.554 -0.2396 -0.1927 -0.4519
   39MOL0     C 5193   5.234   4.628   1.548 -0.2900  0.2513 -0.3007
   39MOL0     C 5194   5.113   4.651   1.538  0.3796  1.4570  0.0483
   39MOL0     C 5195   5.716   4.250   1.894 -0.0453  0.4304  0.4817
   39MOL0     C 5196   5.822   4.189   1.965 -0.3533 -0.0082  0.3173
   39MOL0     C 5197   5.828   4.242   2.110  0.1407 -0.1299  0.0385
   39MOL0     H 5198   6.227   3.740   1.813  2.3094 -0.0626 -1.6243
   39MOL0     H 5199   6.438   3.653   1.918 -3.1511 -0.1419 -1.1741
   39MOL0     H 5200   6.699   3.935   2.185 -0.4426 -0.0264 -1.7481
   39MOL0     H 5201   6.594   3.816   2.274  0.9055 -0.5581  0.2683
   39MOL0     H 5202   6.763   3.648   2.205 -0.5588  0.2394 -1.9925
   39MOL0     H 5203   6.825   3.773   2.317 -1.0892 -0.0708  0.2657
   39MOL0     H 5204   6.899   3.914   2.115 -0.4496  0.1486 -0.3923
   39MOL0     H 5205   6.876   3.763   2.026  2.3607 -2.1474  0.5028
   39MOL0     H 5206   7.037   3.754   2.272  0.1712  0.9069  0.0795
   39MOL0     H 5207   7.048   3.629   2.140 -1.4391  0.6286 -1.3579
   39MOL0     H 5208   7.152   3.801   1.985 -2.1468 -1.6549  0.5352
   39MOL0     H 5209   7.151   3.909   2.128  0.5812 -0.9661  3.6790
   39MOL0     H 5210   7.285   3.717   2.239 -3.3279  2.5375  0.3040
   39MOL0     H 5211   7.270   3.625   2.084  1.9733  0.6279 -1.4906
   39MOL0     H 5212   7.404   3.892   2.093 -0.5663 -0.3617 -1.1122
   39MOL0     H 5213   7.391   3.793   1.957 -0.8814 -0.8548 -0.6578
   39MOL0     H 5214   7.525   3.743   2.224  1.8579  0.5045  0.6149
   39MOL0     H 5215   7.524   3.602   2.120  0.1017  1.3963  3.9588
   39MOL0     H 5216   7.699   3.601   1.911  1.1738 -1.7879  2.9324
   39MOL0     H 5217   7.893   3.661   1.785 -1.0453 -0.9702  2.8565
   39MOL0     H 5218   7.881   3.825   1.720  1.5264 -1.7191 -2.2566
   39MOL0     H 5219   8.117   3.779   1.782  0.5534 -2.2162 -0.0500
   39MOL0     H 5220   8.070   3.900   1.897 -2.8322 -0.0795  2.1948
   39MOL0     H 5221   8.009   3.632   2.009 -0.2540  1.3667  2.6754
   39MOL0     H 5222   8.103   3.776   2.056  1.9911  0.3683 -1.7950
   39MOL0     H 5223   8.234   3.582   1.875 -0.7131  2.6968 -1.1510
   39MOL0     H 5224   8.243   3.572   2.050  1.0187 -0.2020 -0.7602
   39MOL0     H 5225   8.469   3.921   2.045 -1.0741 -2.2942  4.0297
   39MOL0     H 5226   8.725   3.929   2.070  1.5499 -0.4770 -0.3455
   39MOL0     H 5227   9.168   3.742   2.143 -0.7505  1.0386 -2.6595
   39MOL0     H 5228   9.383   3.648   2.200 -0.0189  0.5559  0.2180
   39MOL0     H 5229   9.478   3.397   2.496 -0.6958 -3.3099  0.3241
   39MOL0     H 5230   9.317   3.348   2.453 -0.6902 -3.5220  0.4850
   39MOL0     H 5231   9.454   3.168   2.527  1.5845 -1.4000  0.3288
   39MOL0     H 5232   9.412   3.150   2.349 -0.0624  3.2226 -1.5770
   39MOL0     H 5233   9.685   3.243   2.483  3.0967  0.1534 -0.3287
   39MOL0     H 5234   9.649   3.081   2.421 -0.0675 -0.1669 -3.3190
   39MOL0     H 5235   9.657   3.348   2.272  0.8234 -0.6029 -1.7472
   39MOL0     H 5236   9.608   3.201   2.192  1.1350 -0.4516 -1.0611
   39MOL0     H 5237   9.833   3.177   2.136 -1.3147  3.8588 -1.5937
   39MOL0     H 5238   9.838   3.102   2.304  1.7245 -0.6703 -1.9237
   39MOL0     H 5239   9.889   3.393   2.240  0.1543 -0.6423 -0.8667
   39MOL0     H 5240   9.927   3.311   2.391  0.5261 -1.5940  0.1328
   39MOL0     H 5241  10.097   3.177   2.287  1.8379 -0.9277 -2.4106
   39MOL0     H 5242  10.126   3.360   2.281  2.4859  0.6320 -3.0003
   39MOL0     H 5243  10.041   3.184   2.051  0.8400 -1.6082 -0.3372
   39MOL0     H 5244  10.068   3.352   2.036  2.4039 -0.5599 -0.4600
   39MOL0     H 5245   9.204   3.254   2.254 -0.4121 -0.6893 -1.5820
   39MOL0     H 5246   9.005   3.343   2.134 -0.1954  0.1103 -0.5932
   39MOL0     H 5247   8.725   3.502   2.016 -2.1069 -0.5205 -0.4454
   39MOL0     H 5248   8.490   3.518   1.956  0.7094  0.1213 -1.4289
   39MOL0     H 5249   6.479   4.028   2.126  2.3816  0.1152 -0.8393
   39MOL0     H 5250   6.251   4.098   2.038 -0.5671 -1.0523  2.2703
   39MOL0     H 5251   5.973   4.012   1.730 -1.6882 -1.2376 -0.5956
   39MOL0     H 5252   5.802   4.118   1.596  1.1177  0.8512 -0.6041
   39MOL0     H 5253   5.531   4.460   1.770  3.6217 -1.5693  0.9800
   39MOL0     H 5254   5.450   4.307   1.833  3.2312  1.1751  1.2520
   39MOL0     H 5255   5.282   4.395   1.699 -0.3355  1.6377 -1.9622
   39MOL0     H 5256   5.368   4.263   1.630 -0.2362 -0.2704 -1.2201
   39MOL0     H 5257   5.346   4.414   1.438 -3.7544 -1.2262  2.8700
   39MOL0     H 5258   5.510   4.458   1.500  0.8921  1.1403  2.4708
   39MOL0     H 5259   5.403   4.624   1.658 -3.3436 -2.8295  1.0539
   39MOL0     H 5260   5.433   4.661   1.481 -0.2789 -1.6943 -1.7038
   39MOL0     H 5261   5.011   4.684   1.533  0.0598  0.4666 -0.2195
   39MOL0     H 5262   5.655   4.315   1.956  0.7844 -0.6117  2.4794
   39MOL0     H 5263   5.891   4.332   2.115  1.8865 -1.2388 -0.9981
   39MOL0     H 5264   5.728   4.261   2.150  0.7742 -0.0825  1.6934
   39MOL0     H 5265   5.874   4.175   2.183  0.4440  1.0553  0.9880
   40MOL0     O 5266   4.673   4.367   3.231 -0.1009  0.2046 -0.4739
   40MOL0     C 5267   4.599   4.447   3.283  1.0305  0.3803 -1.0289
   40MOL0     O 5268   4.458   4.431   3.316  0.1797 -0.3573 -0.1713
   40MOL0     C 5269   4.394   4.306   3.295  0.3750  0.0129 -0.2997
   40MOL0     C 5270   4.450   4.183   3.259 -0.3295 -0.2279 -0.5822
   40MOL0     C 5271   4.373   4.072   3.221  0.0484 -0.2221  0.1345
   40MOL0     C 5272   4.236   4.084   3.210 -0.3073 -0.0854  0.0331
   40MOL0     O 5273   4.169   3.966   3.174  0.6703 -0.2780  0.0787
   40MOL0     C 5274   4.044   3.948   3.249 -0.6513  1.5490  0.1103
   40MOL0     C 5275   3.984   3.800   3.248 -0.3184  0.3436  0.9934
   40MOL0     C 5276   3.935   3.765   3.108 -1.0885 -0.1928  0.7860
   40MOL0     C 5277   3.827   3.867   3.052  0.0196  0.1257  0.7613
   40MOL0     C 5278   3.743   3.796   2.938  0.6073  0.5426 -0.0607
   40MOL0     C 5279   3.641   3.684   2.989 -0.1023 -0.0413 -0.7408
   40MOL0     C 5280   3.545   3.646   2.875 -0.1317  0.0266 -0.1864
   40MOL0     C 5281   3.429   3.561   2.916 -0.1735 -0.4265  0.5043
   40MOL0     N 5282   3.310   3.555   2.823  0.0899 -0.2946  0.2073
   40MOL0     C 5283   3.182   3.508   2.858 -0.4202 -0.3300  0.4480
   40MOL0     C 5284   3.116   3.494   2.743  0.7760  0.0629  0.2415
   40MOL0     C 5285   2.971   3.451   2.711 -0.3056 -0.1250  0.3918
   40MOL0     C 5286   2.973   3.313   2.644 -0.5129 -0.2421  0.0636
   40MOL0     C 5287   2.847   3.279   2.571  1.0018 -0.5583 -0.2479
   40MOL0     C 5288   2.842   3.125   2.549  0.2406 -0.0807  0.8629
   40MOL0     O 5289   2.830   3.061   2.681 -0.1861  0.1665  0.2991
   40MOL0     C 5290   2.807   2.927   2.664  0.7929 -0.9785 -0.4123
   40MOL0     C 5291   2.690   2.866   2.679 -0.1450 -0.3372 -0.0222
   40MOL0     C 5292   2.681   2.731   2.701  0.2974 -0.5568 -0.9028
   40MOL0     C 5293   2.792   2.649   2.696  0.1492  0.7257  0.0467
   40MOL0     C 5294   2.788   2.502   2.713 -0.4461 -0.7326 -0.4314
   40MOL0     O 5295   2.675   2.440   2.726  0.1084  0.5014 -0.4016
   40MOL0     C 5296   2.650   2.307   2.769 -0.9746 -0.0855  0.9148
   40MOL0     C 5297   2.579   2.279   2.883 -0.2500 -0.4491 -0.4033
   40MOL0     C 5298   2.568   2.145   2.924  0.2152 -0.0471 -0.0783
   40MOL0     C 5299   2.614   2.039   2.852  0.3285  0.1910  0.1885
   40MOL0     O 5300   2.591   1.911   2.900 -0.8366 -0.2324  0.3008
   40MOL0     C 5301   2.686   1.814   2.849 -0.3463  0.2587 -0.9357
   40MOL0     C 5302   2.695   1.694   2.945 -0.4365 -0.3126  0.7969
   40MOL0     C 5303   2.723   1.738   3.093 -0.5542 -0.8081 -0.5294
   40MOL0     C 5304   2.717   1.619   3.187 -0.2591  0.3981 -0.1846
   40MOL0     C 5305   2.773   1.632   3.330  0.0853 -0.5418  0.7392
   40MOL0     C 5306   2.926   1.638   3.326  0.1113 -0.8064  0.3749
   40MOL0     C 5307   2.993   1.633   3.458 -0.4824 -0.2145 -1.0170
   40MOL0     C 5308   3.034   1.486   3.512 -0.8438 -0.4175  0.4468
   40MOL0    Cl 5309   2.896   1.396   3.567 -0.1454  0.0747  0.1104
   40MOL0     C 5310   2.673   2.064   2.728 -0.1053  0.2272 -0.1172
   40MOL0     C 5311   2.697   2.198   2.688  1.2616  0.0722  0.6953
   40MOL0     O 5312   2.899   2.448   2.731  0.2052 -0.0993  0.4093
   40MOL0     C 5313   2.911   2.707   2.654 -0.6902 -0.9066 -0.1048
   40MOL0     C 5314   2.916   2.847   2.649  0.5153 -0.6688 -0.1623
   40MOL0     N 5315   3.199   3.547   2.648 -1.1730  0.2771 -0.0592
   40MOL0     N 5316   3.314   3.595   2.697  1.4001  0.1990  0.6078
   40MOL0     C 5317   4.174   4.196   3.267  0.1987 -0.3342  0.1790
   40MOL0     C 5318   4.255   4.300   3.318 -0.8444 -0.5459  0.5710
   40MOL0     C 5319   4.652   4.586   3.292  0.6272  0.6877  0.2290
   40MOL0     C 5320   4.568   4.699   3.291 -0.3118 -0.2919  0.0816
   40MOL0     C 5321   4.607   4.833   3.319  0.7495 -0.7767  0.3204
   40MOL0     C 5322   4.740   4.865   3.352  0.0986  0.2869  0.4145
   40MOL0     O 5323   4.799   4.988   3.357  0.7771  0.1892 -0.2099
   40MOL0     C 5324   4.711   5.101   3.342 -0.4407 -0.4652  0.2414
   40MOL0     C 5325   4.779   5.233   3.395 -1.2393  0.1560  0.2706
   40MOL0     C 5326   4.915   5.264   3.346  0.4282 -0.2511  0.8191
   40MOL0     C 5327   4.920   5.289   3.193 -0.1392 -0.0029  1.4757
   40MOL0     C 5328   4.849   5.406   3.130  0.3484  0.5340  0.1248
   40MOL0     C 5329   4.790   5.500   3.080 -0.5617 -0.6734 -0.6904
   40MOL0     C 5330   4.830   4.751   3.348 -0.0440 -0.3716  0.2162
   40MOL0     C 5331   4.793   4.612   3.320  0.6789 -0.6153 -0.2372
   40MOL0     C 5332   4.898   4.510   3.330 -0.3429  0.5811  0.2354
   40MOL0     H 5333   4.552   4.155   3.283  0.1435  0.5575 -1.5663
   40MOL0     H 5334   4.427   3.978   3.209 -0.9329 -0.9669  1.2900
   40MOL0     H 5335   4.073   3.966   3.353 -0.1075  2.3778 -0.1688
   40MOL0     H 5336   3.961   4.009   3.212 -1.5512 -0.7928 -1.9755
   40MOL0     H 5337   3.905   3.814   3.322 -0.7580  2.2003  0.2333
   40MOL0     H 5338   4.060   3.727   3.278  1.0296  1.6481  0.9204
   40MOL0     H 5339   3.889   3.666   3.103  0.2757 -0.7983 -2.2931
   40MOL0     H 5340   4.028   3.765   3.051  0.3118 -0.2419  2.9360
   40MOL0     H 5341   3.761   3.905   3.129 -0.5724  2.3010 -0.7208
   40MOL0     H 5342   3.868   3.962   3.016 -2.6341  1.1097  0.0727
   40MOL0     H 5343   3.687   3.876   2.889 -0.9088 -0.4985 -0.1135
   40MOL0     H 5344   3.807   3.756   2.859  1.3532  2.2592 -0.3569
   40MOL0     H 5345   3.680   3.598   3.044 -0.9128 -3.0343 -4.4400
   40MOL0     H 5346   3.572   3.729   3.061 -1.0346  1.9159 -2.7314
   40MOL0     H 5347   3.603   3.597   2.797 -0.0246 -1.3471  0.7149
   40MOL0     H 5348   3.507   3.739   2.832 -0.3317 -0.7172 -1.6765
   40MOL0     H 5349   3.464   3.459   2.935 -2.8035 -1.1676  1.9116
   40MOL0     H 5350   3.391   3.595   3.013  1.4069  0.2469  0.9041
   40MOL0     H 5351   3.154   3.474   2.957 -4.0789 -3.5166 -1.3738
   40MOL0     H 5352   2.907   3.441   2.799 -3.5411 -3.7065 -2.0782
   40MOL0     H 5353   2.925   3.519   2.639  1.8332 -0.3195 -1.2585
   40MOL0     H 5354   3.053   3.292   2.573  1.6055 -0.9018  2.4931
   40MOL0     H 5355   2.989   3.246   2.729  1.3123  2.4669  2.0284
   40MOL0     H 5356   2.833   3.337   2.479 -0.9712 -0.6929 -0.0831
   40MOL0     H 5357   2.760   3.309   2.631  0.4800  0.9656 -1.7024
   40MOL0     H 5358   2.937   3.107   2.498 -0.6485 -0.7099 -0.6396
   40MOL0     H 5359   2.763   3.100   2.477 -1.3826 -0.5127  2.7182
   40MOL0     H 5360   2.611   2.939   2.694 -1.8236 -1.7663 -1.4295
   40MOL0     H 5361   2.580   2.692   2.701  1.2141 -3.1099  0.0318
   40MOL0     H 5362   2.552   2.352   2.959 -1.0949  0.1748 -1.2762
   40MOL0     H 5363   2.512   2.122   3.013 -0.6281  0.5027 -0.4530
   40MOL0     H 5364   2.646   1.780   2.753  1.7139 -1.3502 -1.3119
   40MOL0     H 5365   2.784   1.861   2.834  0.4278 -0.4210  1.5219
   40MOL0     H 5366   2.596   1.647   2.945 -0.8264  0.4668 -0.4355
   40MOL0     H 5367   2.767   1.623   2.903 -0.0686  0.9236 -0.7616
   40MOL0     H 5368   2.822   1.782   3.107 -2.1474  2.8370  0.4951
   40MOL0     H 5369   2.662   1.823   3.125  2.6422  1.3338  0.3525
   40MOL0     H 5370   2.768   1.539   3.132 -2.4241 -0.8869 -0.4271
   40MOL0     H 5371   2.614   1.587   3.201 -0.0296  0.3586  1.6951
   40MOL0     H 5372   2.741   1.548   3.392 -0.0156 -1.9118 -1.0752
   40MOL0     H 5373   2.735   1.723   3.379  0.2620  0.6920 -1.2864
   40MOL0     H 5374   2.965   1.561   3.260 -3.2819 -2.5200  0.1805
   40MOL0     H 5375   2.954   1.733   3.280 -3.6843  1.9835  3.1290
   40MOL0     H 5376   2.939   1.680   3.540  0.2106 -1.2458  0.0587
   40MOL0     H 5377   3.084   1.691   3.439 -3.0228  3.7433 -2.6141
   40MOL0     H 5378   3.093   1.429   3.439  2.3302 -0.9898  3.2126
   40MOL0     H 5379   3.093   1.495   3.604 -0.5066 -0.7772  0.2692
   40MOL0     H 5380   2.711   1.985   2.664  0.2883  0.4162 -0.1185
   40MOL0     H 5381   2.752   2.211   2.595  0.6366  0.3723  0.3598
   40MOL0     H 5382   2.999   2.653   2.622 -0.3182 -1.3113  1.5031
   40MOL0     H 5383   3.015   2.889   2.631 -1.1387  3.2297 -0.9921
   40MOL0     H 5384   4.065   4.202   3.274  0.2532  1.1765  0.0641
   40MOL0     H 5385   4.202   4.380   3.369 -0.3658 -0.3627  0.7899
   40MOL0     H 5386   4.460   4.690   3.278 -0.8994 -0.7454  4.0247
   40MOL0     H 5387   4.536   4.913   3.299  0.3622 -1.4625 -1.1575
   40MOL0     H 5388   4.614   5.091   3.390 -2.3182  3.1542 -2.3069
   40MOL0     H 5389   4.678   5.113   3.238 -3.3176 -1.6780  0.9202
   40MOL0     H 5390   4.786   5.233   3.504  3.7868  0.8274  0.1785
   40MOL0     H 5391   4.722   5.321   3.365 -0.3047  0.7683  0.2403
   40MOL0     H 5392   4.976   5.178   3.374  0.2986 -0.5021  0.3425
   40MOL0     H 5393   4.949   5.355   3.396  2.0160  0.8368 -2.0226
   40MOL0     H 5394   5.024   5.303   3.163 -0.4169  0.7281  0.8029
   40MOL0     H 5395   4.899   5.196   3.139 -0.2171 -0.5548  2.4290
   40MOL0     H 5396   4.733   5.576   3.031  1.8782  0.8257 -1.3769
   40MOL0     H 5397   4.932   4.775   3.376 -1.2017  3.3160  1.9864
   40MOL0     H 5398   4.867   4.431   3.400 -1.2871 -1.8106 -2.6460
   40MOL0     H 5399   4.903   4.461   3.232 -0.2139  0.6233  0.2216
   40MOL0     H 5400   4.995   4.544   3.365 -0.0527 -1.3238  1.4492
   41MOL0     O 5401   6.657   0.121   3.153 -0.5903 -0.2256  0.7602
   41MOL0     C 5402   6.552   0.128   3.085 -0.0043 -0.0086 -1.0383
   41MOL0     O 5403   6.448   0.214   3.111  0.3879 -0.7000 -0.6836
   41MOL0     C 5404   6.458   0.298   3.218  0.6593  0.1201 -0.4510
   41MOL0     C 5405   6.495   0.424   3.191 -0.2716 -0.2249  0.1571
   41MOL0     C 5406   6.490   0.523   3.290 -0.1604  0.1248 -1.4056
   41MOL0     C 5407   6.453   0.484   3.422  0.2247  0.3450  0.3092
   41MOL0     O 5408   6.431   0.587   3.511  0.4070  0.3575  0.1830
   41MOL0     C 5409   6.448   0.571   3.657 -0.1049  0.6471 -0.0644
   41MOL0     C 5410   6.595   0.548   3.702  1.0367  0.5218 -0.1105
   41MOL0     C 5411   6.693   0.653   3.651 -0.2452 -1.1169  0.4117
   41MOL0     C 5412   6.671   0.802   3.719  0.3555  0.0511  0.2143
   41MOL0     C 5413   6.706   0.917   3.625  0.3712  0.2960 -0.5843
   41MOL0     C 5414   6.592   0.939   3.517  0.1098  0.2687  0.9571
   41MOL0     C 5415   6.633   1.015   3.391 -0.3764 -0.3518  0.6647
   41MOL0     C 5416   6.532   1.002   3.272 -0.3210 -0.3948 -0.6559
   41MOL0     N 5417   6.426   1.101   3.285 -0.1401 -0.6017  0.1481
   41MOL0     C 5418   6.299   1.085   3.328  1.2735  0.5449 -0.9897
   41MOL0     C 5419   6.241   1.202   3.302  1.1763  0.3947 -0.6948
   41MOL0     C 5420   6.092   1.223   3.339  0.6119 -0.5609  0.0480
   41MOL0     C 5421   6.030   1.320   3.237 -0.9738 -0.0544 -0.2243
   41MOL0     C 5422   6.006   1.264   3.098  0.1298  0.7359  0.2978
   41MOL0     C 5423   6.014   1.375   3.005 -0.0188  1.3290 -0.0794
   41MOL0     O 5424   6.005   1.331   2.867 -0.4135 -0.4042  0.4558
   41MOL0     C 5425   6.115   1.337   2.788  0.4457  0.1244 -0.0923
   41MOL0     C 5426   6.244   1.306   2.836 -0.9033  0.0893  0.1693
   41MOL0     C 5427   6.348   1.308   2.744  0.7232 -1.1111 -0.2508
   41MOL0     C 5428   6.325   1.353   2.611  0.4318 -0.1637 -0.2918
   41MOL0     C 5429   6.441   1.392   2.525  0.0845 -0.5743  0.2554
   41MOL0     O 5430   6.411   1.412   2.395 -0.6721  0.5528 -0.2614
   41MOL0     C 5431   6.516   1.455   2.311 -0.1362  0.2811  0.6280
   41MOL0     C 5432   6.522   1.589   2.263 -0.0927 -0.5457 -0.0407
   41MOL0     C 5433   6.622   1.627   2.184  0.0243 -0.3809  0.0212
   41MOL0     C 5434   6.735   1.536   2.158  0.5952 -0.5548 -0.2870
   41MOL0     O 5435   6.843   1.557   2.080  0.1208 -0.7574  0.1960
   41MOL0     C 5436   6.827   1.666   1.991  0.9374  0.8165 -0.4071
   41MOL0     C 5437   6.929   1.665   1.881  0.2057  0.8242  0.2801
   41MOL0     C 5438   6.889   1.741   1.751  0.7235 -0.4900 -0.4333
   41MOL0     C 5439   6.766   1.673   1.684  0.1570 -0.1337  0.6632
   41MOL0     C 5440   6.733   1.762   1.561  0.3856  0.4853  0.4497
   41MOL0     C 5441   6.692   1.896   1.592 -0.0241  0.2424  0.7963
   41MOL0     C 5442   6.603   1.955   1.487 -0.0810 -0.1311 -0.6512
   41MOL0     C 5443   6.677   1.983   1.356 -0.1387 -0.0390  0.1089
   41MOL0    Cl 5444   6.598   2.112   1.267  0.4572 -0.2388 -0.3778
   41MOL0     C 5445   6.733   1.406   2.204  0.3539  0.6888  0.4879
   41MOL0     C 5446   6.621   1.365   2.275 -0.5453 -0.9619  0.0223
   41MOL0     O 5447   6.558   1.400   2.573  0.7274 -0.5463 -0.2199
   41MOL0     C 5448   6.197   1.374   2.561  0.2847 -0.0577  0.2216
   41MOL0     C 5449   6.089   1.362   2.648 -0.1035  0.9818  0.4324
   41MOL0     N 5450   6.324   1.285   3.231 -0.5507 -0.3409  0.0374
   41MOL0     N 5451   6.437   1.220   3.220 -0.0847  0.3924  0.8377
   41MOL0     C 5452   6.426   0.353   3.451 -0.2381  0.5856 -0.6037
   41MOL0     C 5453   6.428   0.261   3.349 -0.8282 -0.5665 -0.4565
   41MOL0     C 5454   6.536   0.038   2.967  0.2389  0.0315 -0.7961
   41MOL0     C 5455   6.663   0.012   2.893  0.5354  0.7820  0.2052
   41MOL0     C 5456   6.655  -0.059   2.778 -0.6334 -0.1173 -0.3858
   41MOL0     C 5457   6.536  -0.101   2.723 -0.8600  0.3482 -0.4836
   41MOL0     O 5458   6.539  -0.163   2.604  0.0333 -0.5525  0.3263
   41MOL0     C 5459   6.499  -0.302   2.594 -0.6022 -0.2791 -0.1855
   41MOL0     C 5460   6.540  -0.353   2.457 -0.1394  0.1695 -0.2839
   41MOL0     C 5461   6.473  -0.493   2.435 -0.2477 -0.0622 -0.0465
   41MOL0     C 5462   6.511  -0.569   2.306  0.3513  0.2536 -0.4167
   41MOL0     C 5463   6.515  -0.717   2.337 -0.4710 -0.0183  0.1837
   41MOL0     C 5464   6.522  -0.842   2.345 -0.3653 -0.9366  0.3447
   41MOL0     C 5465   6.416  -0.083   2.785  0.4325  0.1015  0.5035
   41MOL0     C 5466   6.416  -0.016   2.909  0.2862 -0.3484 -0.5157
   41MOL0     C 5467   6.291   0.015   2.982 -0.6993  0.3126 -0.7927
   41MOL0     H 5468   6.524   0.462   3.094  1.8157  1.2590  1.2855
   41MOL0     H 5469   6.511   0.626   3.262 -1.7363  1.7937  2.6928
   41MOL0     H 5470   6.411   0.657   3.714  2.0348  4.0687 -3.3248
   41MOL0     H 5471   6.390   0.488   3.697 -0.0783  0.9431  0.6067
   41MOL0     H 5472   6.636   0.449   3.678 -0.2986  0.2871 -1.5292
   41MOL0     H 5473   6.591   0.551   3.811  0.8471  0.3919 -0.1137
   41MOL0     H 5474   6.684   0.639   3.543 -0.2452 -1.9294  0.5077
   41MOL0     H 5475   6.800   0.637   3.672  1.3888  0.9339 -4.7633
   41MOL0     H 5476   6.570   0.799   3.759 -0.5548  0.6783 -1.8733
   41MOL0     H 5477   6.740   0.806   3.804  1.0847 -1.1154 -0.3046
   41MOL0     H 5478   6.714   1.010   3.682 -1.8413 -0.5086  1.2068
   41MOL0     H 5479   6.798   0.883   3.577  0.8520  0.0702  0.4641
   41MOL0     H 5480   6.557   0.839   3.490  0.2452  0.2912  0.6985
   41MOL0     H 5481   6.499   0.975   3.563 -0.7434 -0.2885 -0.2758
   41MOL0     H 5482   6.719   0.958   3.354 -1.0065  0.9088 -3.1781
   41MOL0     H 5483   6.651   1.120   3.415 -3.4658 -0.0956  2.4025
   41MOL0     H 5484   6.578   1.011   3.173 -1.7742 -1.0334 -1.4162
   41MOL0     H 5485   6.474   0.909   3.277 -1.8579  0.5259 -1.0166
   41MOL0     H 5486   6.273   0.996   3.384 -3.8446  2.1701 -0.3511
   41MOL0     H 5487   6.044   1.125   3.345  1.5318 -1.0682 -0.5643
   41MOL0     H 5488   6.099   1.264   3.440  4.3573  0.0217 -0.2829
   41MOL0     H 5489   5.925   1.334   3.267 -1.3864 -3.8170  0.5158
   41MOL0     H 5490   6.086   1.414   3.235 -1.2098  0.0769 -0.7562
   41MOL0     H 5491   5.906   1.220   3.099  1.2311 -2.0907  3.2514
   41MOL0     H 5492   6.090   1.199   3.073  0.7715  0.5212  2.7369
   41MOL0     H 5493   6.102   1.438   3.023  0.0419  0.4725  3.1128
   41MOL0     H 5494   5.924   1.436   3.019  0.6636  2.0804  1.2346
   41MOL0     H 5495   6.269   1.266   2.934  0.1663  1.0555  0.3210
   41MOL0     H 5496   6.445   1.289   2.791  1.0261 -3.7310 -1.7629
   41MOL0     H 5497   6.435   1.650   2.289  0.8903  0.8864  0.0316
   41MOL0     H 5498   6.618   1.731   2.153  0.2336  0.3378  2.2494
   41MOL0     H 5499   6.724   1.667   1.952  0.1095  1.3046  1.6558
   41MOL0     H 5500   6.837   1.763   2.039 -0.8011 -0.5034  2.9676
   41MOL0     H 5501   7.022   1.713   1.914 -0.8573  4.3481 -1.4296
   41MOL0     H 5502   6.959   1.563   1.853 -3.2805 -0.3578  0.4316
   41MOL0     H 5503   6.863   1.843   1.781  0.6165  0.2682 -2.9098
   41MOL0     H 5504   6.965   1.743   1.673 -0.5972  0.7261 -1.7666
   41MOL0     H 5505   6.675   1.672   1.745 -0.2223  2.2684  0.2450
   41MOL0     H 5506   6.789   1.571   1.654  1.6826  0.7656 -1.5011
   41MOL0     H 5507   6.655   1.706   1.509  0.5697 -0.0274  0.7148
   41MOL0     H 5508   6.819   1.769   1.494  1.6012  2.6644  2.1436
   41MOL0     H 5509   6.650   1.898   1.693  1.4571 -0.3815  1.4431
   41MOL0     H 5510   6.778   1.963   1.605 -1.4600  2.1308  1.1261
   41MOL0     H 5511   6.573   2.053   1.523 -0.7897 -0.2547 -0.8873
   41MOL0     H 5512   6.511   1.901   1.462 -0.4721  0.9474 -1.6402
   41MOL0     H 5513   6.785   1.995   1.368  0.1542 -1.5167 -0.7893
   41MOL0     H 5514   6.659   1.903   1.284 -3.6566  0.1006  0.6486
   41MOL0     H 5515   6.805   1.330   2.174 -1.2529  0.4282 -3.2859
   41MOL0     H 5516   6.620   1.260   2.304  1.4489 -1.1618 -0.4762
   41MOL0     H 5517   6.187   1.420   2.463 -1.5853  2.3501  1.4307
   41MOL0     H 5518   5.984   1.357   2.622  0.4874 -0.3060 -1.9468
   41MOL0     H 5519   6.394   0.319   3.550 -0.4570  1.6363 -0.3065
   41MOL0     H 5520   6.409   0.156   3.365  0.5746 -1.2002 -2.5579
   41MOL0     H 5521   6.758   0.048   2.931 -0.9243  1.9154  3.1345
   41MOL0     H 5522   6.747  -0.102   2.739 -0.0937 -0.8173  1.5055
   41MOL0     H 5523   6.391  -0.308   2.609 -0.6352  0.1414 -0.2563
   41MOL0     H 5524   6.553  -0.370   2.661  0.5961 -0.6164 -1.4642
   41MOL0     H 5525   6.649  -0.360   2.451 -0.1357  0.9217 -1.4089
   41MOL0     H 5526   6.505  -0.286   2.378 -2.4192 -1.6015 -0.9196
   41MOL0     H 5527   6.364  -0.496   2.437 -0.2862  1.0292  0.0776
   41MOL0     H 5528   6.506  -0.555   2.519  4.3207  2.2490  0.1523
   41MOL0     H 5529   6.440  -0.555   2.224 -0.6292  0.1141  0.3942
   41MOL0     H 5530   6.610  -0.537   2.273  0.3269  0.8648  0.0719
   41MOL0     H 5531   6.535  -0.947   2.359 -0.8947 -1.3803 -2.0275
   41MOL0     H 5532   6.330  -0.126   2.734  0.8407 -1.8115  1.3471
   41MOL0     H 5533   6.268   0.122   2.986  1.1020  0.8700 -3.1190
   41MOL0     H 5534   6.206  -0.040   2.941  0.1076 -0.6545 -1.2065
   41MOL0     H 5535   6.295  -0.026   3.083  1.1001  0.8874 -0.6064
   42MOL0     O 5536   9.878   7.673   2.855 -0.3108 -0.4010 -0.1890
   42MOL0     C 5537   9.779   7.749   2.863 -0.5357  0.5546  0.1407
   42MOL0     O 5538   9.780   7.881   2.838  0.3155 -0.5178 -0.1325
   42MOL0     C 5539   9.894   7.954   2.809  0.4056 -0.1673  0.3702
   42MOL0     C 5540   9.960   8.029   2.899 -0.0143 -0.1740 -0.2597
   42MOL0     C 5541  10.086   8.089   2.873 -0.0012  0.5116  0.0008
   42MOL0     C 5542  10.125   8.094   2.734  0.1622  1.2457  0.0216
   42MOL0     O 5543  10.244   8.156   2.712 -0.4499 -0.0854  0.2041
   42MOL0     C 5544  10.311   8.104   2.603  0.2029 -0.5821 -0.1865
   42MOL0     C 5545  10.454   8.128   2.619  0.0901  0.7210  0.1351
   42MOL0     C 5546  10.546   8.054   2.511  0.3829  0.0684 -0.2258
   42MOL0     C 5547  10.499   8.073   2.369 -0.3666  0.0179  0.1073
   42MOL0     C 5548  10.601   8.031   2.260 -0.0004  0.6477  0.4746
   42MOL0     C 5549  10.547   8.055   2.121  0.1032  0.2365  0.0871
   42MOL0     C 5550  10.664   8.028   2.018 -0.2678 -1.0351 -0.2253
   42MOL0     C 5551  10.761   8.147   2.010 -1.0730  1.4887  0.5960
   42MOL0     N 5552  10.892   8.132   2.086 -0.0109  0.2480  0.0638
   42MOL0     C 5553  10.977   8.027   2.075  0.1750  0.6012  0.7085
   42MOL0     C 5554  11.053   8.035   2.189  0.1834 -0.2358 -0.4958
   42MOL0     C 5555  11.168   7.942   2.235  0.9899 -0.2751 -0.2905
   42MOL0     C 5556  11.235   7.885   2.106 -0.0439 -0.1501  0.0792
   42MOL0     C 5557  11.285   7.993   2.012 -0.3506 -0.5263  0.4973
   42MOL0     C 5558  11.431   8.018   1.999  0.4659  0.0409 -0.0133
   42MOL0     O 5559  11.510   7.902   1.974 -0.2004 -0.2033 -0.9265
   42MOL0     C 5560  11.638   7.928   1.963 -0.4936  0.0121  0.2840
   42MOL0     C 5561  11.701   7.898   1.842  0.1720 -0.4571  0.2359
   42MOL0     C 5562  11.845   7.904   1.828  0.7153  0.4275 -0.8142
   42MOL0     C 5563  11.917   7.961   1.931  0.1500  0.0391  0.4771
   42MOL0     C 5564  12.061   7.997   1.914  0.0734  0.3212 -0.0996
   42MOL0     O 5565  12.107   8.102   1.988 -0.1323 -0.2427  0.8546
   42MOL0     C 5566  12.236   8.140   1.952  0.1575 -1.0516  0.6772
   42MOL0     C 5567  12.349   8.061   1.974  0.2897  1.0128  0.7907
   42MOL0     C 5568  12.472   8.100   1.945  0.2940  0.2113 -0.3884
   42MOL0     C 5569  12.490   8.230   1.882 -1.0162  0.1672 -0.3985
   42MOL0     O 5570  12.625   8.249   1.848 -0.1975 -0.6894 -0.4289
   42MOL0     C 5571  12.640   8.360   1.760  0.0364  0.3181 -0.1341
   42MOL0     C 5572  12.773   8.338   1.690  0.4299  0.1576 -0.1629
   42MOL0     C 5573  12.888   8.343   1.781 -0.2669  0.3322 -1.4439
   42MOL0     C 5574  13.022   8.331   1.721  0.8556  0.1611  0.8104
   42MOL0     C 5575  13.060   8.462   1.652  0.5656  0.5123  1.5823
   42MOL0     C 5576  13.189   8.427   1.576  0.5841  0.0520  0.5884
   42MOL0     C 5577  13.235   8.558   1.515  0.3855  0.4164  0.2091
   42MOL0     C 5578  13.347   8.514   1.425 -0.2249  0.2332  0.5764
   42MOL0    Cl 5579  13.440   8.653   1.344  0.3002 -0.1136 -0.3075
   42MOL0     C 5580  12.375   8.315   1.864 -0.6562  0.5793  0.7171
   42MOL0     C 5581  12.248   8.272   1.902 -0.3660 -0.3598 -0.0722
   42MOL0     O 5582  12.124   7.933   1.828 -0.3727  0.1601 -0.4805
   42MOL0     C 5583  11.847   8.004   2.047 -0.5731 -0.3100 -0.0403
   42MOL0     C 5584  11.716   7.976   2.069  0.0804 -0.4170  0.5105
   42MOL0     N 5585  11.014   8.133   2.268 -0.6377  0.2033 -0.0520
   42MOL0     N 5586  10.914   8.188   2.205  0.5814 -0.5373 -0.4206
   42MOL0     C 5587  10.043   8.031   2.642  0.1099  0.4076 -0.4933
   42MOL0     C 5588   9.938   7.949   2.679  0.6098  0.1297 -1.4976
   42MOL0     C 5589   9.649   7.681   2.887  1.2581 -0.0677  0.2500
   42MOL0     C 5590   9.530   7.741   2.842  0.5671 -0.4620  0.3033
   42MOL0     C 5591   9.405   7.687   2.870 -0.2616 -0.4771 -0.7390
   42MOL0     C 5592   9.393   7.566   2.941  0.2883  0.6475 -0.2380
   42MOL0     O 5593   9.271   7.519   2.981  0.1182  0.0332  0.9812
   42MOL0     C 5594   9.252   7.386   3.039 -0.0988 -0.3387  0.0125
   42MOL0     C 5595   9.111   7.365   3.091 -0.5556 -0.7267 -0.2930
   42MOL0     C 5596   9.103   7.236   3.165  0.4287  1.0386 -0.8258
   42MOL0     C 5597   8.978   7.215   3.246 -0.0825  0.7014 -0.2696
   42MOL0     C 5598   8.979   7.078   3.309 -0.3518 -0.7168  0.6103
   42MOL0     C 5599   8.979   6.975   3.380 -0.6042  0.1088 -0.0122
   42MOL0     C 5600   9.507   7.493   2.966  0.6681  0.1431  0.1754
   42MOL0     C 5601   9.632   7.553   2.953 -0.3893 -0.3126  0.7604
   42MOL0     C 5602   9.749   7.467   3.002 -1.0163  0.4001 -0.1861
   42MOL0     H 5603   9.920   8.033   3.000  2.5970 -1.4033  0.9394
   42MOL0     H 5604  10.137   8.151   2.947  2.0849  0.8302 -1.6197
   42MOL0     H 5605  10.290   7.997   2.591 -2.5392 -0.7605  4.0301
   42MOL0     H 5606  10.284   8.156   2.511 -0.5858 -0.9205 -0.1620
   42MOL0     H 5607  10.481   8.096   2.720  1.0225 -0.7182 -0.5396
   42MOL0     H 5608  10.475   8.235   2.617 -1.4225  1.0330 -0.4567
   42MOL0     H 5609  10.548   7.947   2.535 -1.5973  0.0938  0.2220
   42MOL0     H 5610  10.642   8.104   2.520 -0.0902  0.7759  1.1582
   42MOL0     H 5611  10.405   8.022   2.345 -1.3110  3.3521 -4.5547
   42MOL0     H 5612  10.484   8.179   2.346 -0.1540 -0.5188 -3.0441
   42MOL0     H 5613  10.692   8.086   2.285  1.0093  0.5981 -2.6641
   42MOL0     H 5614  10.616   7.923   2.270 -2.4387  0.3796  1.8042
   42MOL0     H 5615  10.464   7.991   2.092  1.6776 -0.9689 -2.0287
   42MOL0     H 5616  10.522   8.161   2.113  3.0405  1.1267  1.1232
   42MOL0     H 5617  10.619   8.016   1.919  0.3880  2.7214 -1.1157
   42MOL0     H 5618  10.711   7.932   2.042  0.0837 -0.7604  0.2110
   42MOL0     H 5619  10.779   8.164   1.903  0.5335 -1.2252  0.3361
   42MOL0     H 5620  10.712   8.238   2.047 -3.0895  0.2894  1.0034
   42MOL0     H 5621  10.975   7.952   1.996 -2.0397  0.4836  0.8306
   42MOL0     H 5622  11.244   7.988   2.298  0.4976 -0.5618  0.5413
   42MOL0     H 5623  11.129   7.858   2.293  2.2093  0.1431  1.2128
   42MOL0     H 5624  11.318   7.814   2.117  0.4546  0.5714  1.1910
   42MOL0     H 5625  11.160   7.833   2.046  1.3336  0.7924 -2.6599
   42MOL0     H 5626  11.245   8.094   2.021  0.8629  0.1089 -0.9361
   42MOL0     H 5627  11.250   7.958   1.915 -1.7909 -0.4370  0.9575
   42MOL0     H 5628  11.467   8.071   2.087 -0.5295  1.5479 -0.4633
   42MOL0     H 5629  11.444   8.090   1.917  1.5602  0.2635  0.3401
   42MOL0     H 5630  11.631   7.880   1.761  0.7324  0.7981 -0.5458
   42MOL0     H 5631  11.901   7.884   1.737  0.7914  2.0119 -1.1362
   42MOL0     H 5632  12.343   7.961   2.016 -0.3777 -0.6594 -2.8495
   42MOL0     H 5633  12.557   8.037   1.972  0.1689 -0.9434 -2.5003
   42MOL0     H 5634  12.573   8.346   1.674 -2.1017 -0.0367  1.5170
   42MOL0     H 5635  12.636   8.462   1.800  0.2968  0.2437  0.0766
   42MOL0     H 5636  12.761   8.244   1.635  0.6339 -0.2034  0.4072
   42MOL0     H 5637  12.791   8.420   1.620  1.4970 -0.4297 -0.5904
   42MOL0     H 5638  12.879   8.440   1.831 -0.0326  0.3671 -1.4682
   42MOL0     H 5639  12.886   8.263   1.856  1.7821  0.3300 -1.3445
   42MOL0     H 5640  13.017   8.251   1.646  2.4746  0.2674  0.5469
   42MOL0     H 5641  13.094   8.302   1.798  0.2832  0.4031  1.4457
   42MOL0     H 5642  13.070   8.538   1.730 -2.7502  0.8821  1.7537
   42MOL0     H 5643  12.983   8.494   1.582  0.3878 -1.6400  0.7009
   42MOL0     H 5644  13.265   8.387   1.645  1.3585  0.1572 -0.1949
   42MOL0     H 5645  13.175   8.345   1.505 -1.9231  0.5326  0.4629
   42MOL0     H 5646  13.277   8.634   1.580  1.9747  0.9112 -1.3132
   42MOL0     H 5647  13.168   8.601   1.440 -0.5888 -2.1546 -0.5028
   42MOL0     H 5648  13.422   8.457   1.480 -0.3154 -1.0332 -0.5748
   42MOL0     H 5649  13.307   8.441   1.355 -1.2336  0.5963  0.7474
   42MOL0     H 5650  12.384   8.417   1.827  2.4048  0.1997  0.1689
   42MOL0     H 5651  12.159   8.335   1.894 -0.1655 -0.2097 -1.3604
   42MOL0     H 5652  11.899   8.074   2.111  2.0483 -1.0045 -1.2553
   42MOL0     H 5653  11.668   7.984   2.166 -1.6122  0.2986 -0.3544
   42MOL0     H 5654  10.073   8.037   2.537 -1.4194  0.8165 -0.9255
   42MOL0     H 5655   9.880   7.899   2.602 -0.2313 -2.3198  0.5794
   42MOL0     H 5656   9.537   7.818   2.766 -0.1634 -2.0519 -1.4600
   42MOL0     H 5657   9.317   7.739   2.833 -0.2264 -0.8221 -1.3209
   42MOL0     H 5658   9.311   7.373   3.131  0.4775  0.1104 -0.2865
   42MOL0     H 5659   9.276   7.317   2.958 -0.9655  2.5011 -2.8905
   42MOL0     H 5660   9.031   7.366   3.016  1.1526 -2.2775 -2.2560
   42MOL0     H 5661   9.109   7.447   3.163  1.4478 -1.0804  0.2152
   42MOL0     H 5662   9.188   7.232   3.234 -1.1973 -2.4852  1.1946
   42MOL0     H 5663   9.105   7.152   3.095  0.9128  0.9766 -0.7415
   42MOL0     H 5664   8.968   7.289   3.325  2.8814  0.8513  0.0895
   42MOL0     H 5665   8.893   7.232   3.178 -1.7890  0.4622  1.7151
   42MOL0     H 5666   8.974   6.892   3.447  0.5866  0.8598  1.0478
   42MOL0     H 5667   9.491   7.398   3.017 -0.0518  1.1437  1.8975
   42MOL0     H 5668   9.830   7.529   3.042 -0.9047  0.4819 -0.5334
   42MOL0     H 5669   9.719   7.402   3.084  0.0481  2.7371  2.1867
   42MOL0     H 5670   9.802   7.415   2.921  0.3691  2.3271 -0.6004
   43MOL0     O 5671   9.692   9.645   3.314  0.6781  0.4511 -0.3748
   43MOL0     C 5672   9.737   9.619   3.423  0.3614  0.1201  0.4059
   43MOL0     O 5673   9.850   9.685   3.478  1.1255  0.1284 -0.3898
   43MOL0     C 5674   9.930   9.761   3.402 -0.5935 -0.2177 -0.9107
   43MOL0     C 5675   9.966   9.885   3.443 -0.7300 -0.1026 -0.1911
   43MOL0     C 5676  10.060   9.956   3.379 -0.1844 -0.4297 -0.3925
   43MOL0     C 5677  10.105   9.914   3.248 -0.5314 -0.6490 -0.7838
   43MOL0     O 5678  10.194   9.986   3.167 -0.7669 -0.3537 -0.8489
   43MOL0     C 5679  10.331   9.956   3.200 -0.3622  0.0307 -0.0890
   43MOL0     C 5680  10.421  10.047   3.120  0.0618 -0.1156 -0.0265
   43MOL0     C 5681  10.559   9.997   3.138 -1.3046  0.6823 -0.7205
   43MOL0     C 5682  10.653  10.100   3.066 -0.0240  0.1021 -0.1629
   43MOL0     C 5683  10.798  10.081   3.100 -0.5919  0.3211 -0.3008
   43MOL0     C 5684  10.895  10.181   3.041 -0.2738  0.6488  0.4687
   43MOL0     C 5685  11.037  10.162   3.099 -0.5334 -0.6898  0.3473
   43MOL0     C 5686  11.122  10.046   3.051  0.0870 -0.1744  0.6216
   43MOL0     N 5687  11.257  10.058   3.088  0.0132  0.7945 -0.6039
   43MOL0     C 5688  11.362  10.006   3.022  0.2899 -0.5281 -0.1226
   43MOL0     C 5689  11.470  10.045   3.100  0.2690 -0.5424  0.3337
   43MOL0     C 5690  11.611  10.004   3.082  0.5781 -1.0693 -0.8967
   43MOL0     C 5691  11.645   9.872   3.154 -0.0626  0.2225  0.2299
   43MOL0     C 5692  11.791   9.842   3.159  0.4490  0.9590 -0.5199
   43MOL0     C 5693  11.866   9.906   3.270 -0.6109 -0.4734 -0.3985
   43MOL0     O 5694  11.990   9.839   3.302 -0.4455 -0.6071 -0.7314
   43MOL0     C 5695  12.087   9.899   3.379  0.0806  0.3997 -0.1779
   43MOL0     C 5696  12.202   9.828   3.394  0.0325  1.1016 -1.3206
   43MOL0     C 5697  12.322   9.882   3.434 -0.0901  0.0103 -0.1509
   43MOL0     C 5698  12.335  10.014   3.452 -0.7557  0.6326  0.0727
   43MOL0     C 5699  12.472  10.070   3.479  0.4593 -1.7000 -0.4745
   43MOL0     O 5700  12.571   9.985   3.501 -0.1256  0.0772  0.5849
   43MOL0     C 5701  12.700  10.036   3.512 -0.4067  0.3542 -0.0382
   43MOL0     C 5702  12.799   9.996   3.421 -0.0007  0.0198 -0.2459
   43MOL0     C 5703  12.930  10.031   3.434  0.0006 -0.7191 -0.4076
   43MOL0     C 5704  12.968  10.119   3.536 -0.6203  0.1714 -0.5274
   43MOL0     O 5705  13.101  10.168   3.533  0.8188  0.2639 -0.6414
   43MOL0     C 5706  13.149  10.251   3.648  0.0238 -0.4504  0.0211
   43MOL0     C 5707  13.305  10.280   3.629  0.2318 -0.9268  0.3138
   43MOL0     C 5708  13.386  10.154   3.608 -0.1783  0.5662  0.2936
   43MOL0     C 5709  13.537  10.159   3.643 -0.1914  0.2104  1.0657
   43MOL0     C 5710  13.616  10.037   3.602 -0.3525  0.0876 -0.6126
   43MOL0     C 5711  13.768  10.072   3.585 -0.3407 -0.3507  0.0849
   43MOL0     C 5712  13.856   9.954   3.607  1.3098 -0.1983 -0.3525
   43MOL0     C 5713  13.998   9.999   3.607  0.9084 -0.1738 -0.0302
   43MOL0    Cl 5714  14.090   9.853   3.607  0.0958  0.2323  0.2125
   43MOL0     C 5715  12.877  10.153   3.637 -0.4302  0.5257 -1.4404
   43MOL0     C 5716  12.745  10.107   3.626  0.3764 -0.8063 -1.0854
   43MOL0     O 5717  12.471  10.192   3.481  0.2534 -0.4028  0.1101
   43MOL0     C 5718  12.224  10.098   3.438  0.5602 -0.3360  0.3493
   43MOL0     C 5719  12.102  10.038   3.403  0.1102  0.2860 -0.9184
   43MOL0     N 5720  11.427  10.123   3.209 -0.0811 -0.1489 -0.4466
   43MOL0     N 5721  11.299  10.117   3.209  1.2491  0.4953  0.7712
   43MOL0     C 5722  10.077   9.793   3.199 -0.3988  0.8007 -0.9268
   43MOL0     C 5723   9.998   9.710   3.282 -0.0366  0.4112  1.0249
   43MOL0     C 5724   9.653   9.529   3.491  0.5598 -0.2199 -0.4511
   43MOL0     C 5725   9.624   9.563   3.628 -0.1683  0.8168 -0.1636
   43MOL0     C 5726   9.531   9.496   3.704 -0.1519  0.4380 -0.8953
   43MOL0     C 5727   9.469   9.388   3.644 -0.9575 -0.3834 -1.3003
   43MOL0     O 5728   9.366   9.334   3.721  0.1592  0.5442 -0.2470
   43MOL0     C 5729   9.381   9.189   3.741  0.0719 -0.6993 -0.1755
   43MOL0     C 5730   9.258   9.147   3.840  0.0669  0.0238  0.3546
   43MOL0     C 5731   9.286   9.007   3.895  0.0001 -0.0498 -0.3976
   43MOL0     C 5732   9.165   8.959   3.974 -0.6640 -0.3008 -0.0170
   43MOL0     C 5733   9.037   8.944   3.894 -0.7369  0.2093  0.0149
   43MOL0     C 5734   8.928   8.921   3.838 -0.6455  2.0647  0.2368
   43MOL0     C 5735   9.496   9.348   3.517  1.0295  0.2297 -0.0974
   43MOL0     C 5736   9.577   9.419   3.432 -0.1927 -0.6706 -0.7413
   43MOL0     C 5737   9.609   9.366   3.302  0.7361  0.1282 -0.4603
   43MOL0     H 5738   9.923   9.913   3.539  2.1157 -1.6655  1.6831
   43MOL0     H 5739  10.103  10.051   3.408  0.3191 -0.5755 -0.6386
   43MOL0     H 5740  10.343   9.960   3.309 -0.0865 -0.5931 -0.0909
   43MOL0     H 5741  10.367   9.857   3.170  2.0573  0.3543  1.4294
   43MOL0     H 5742  10.408  10.151   3.151 -0.0940 -0.0278 -0.3751
   43MOL0     H 5743  10.393  10.043   3.014 -0.3719 -2.7697  0.1232
   43MOL0     H 5744  10.567   9.899   3.090  0.4664  1.1319 -1.4545
   43MOL0     H 5745  10.597   9.993   3.240 -1.5283  0.1420 -0.6581
   43MOL0     H 5746  10.644  10.105   2.957 -0.3679  0.4455 -0.1198
   43MOL0     H 5747  10.632  10.202   3.097 -3.5398 -1.0851  1.8730
   43MOL0     H 5748  10.803  10.099   3.208  1.5793  0.2643 -0.3509
   43MOL0     H 5749  10.819   9.975   3.086  0.7518  0.4897  0.3088
   43MOL0     H 5750  10.894  10.181   2.931 -3.8757 -1.2183  0.3439
   43MOL0     H 5751  10.857  10.280   3.067  1.9921  1.2876  1.5207
   43MOL0     H 5752  11.036  10.163   3.209 -0.2504  3.5634  0.4505
   43MOL0     H 5753  11.085  10.256   3.072 -3.3761  0.6518 -0.3490
   43MOL0     H 5754  11.085   9.950   3.088  0.7502 -2.5828 -4.1633
   43MOL0     H 5755  11.119  10.057   2.942  2.7634  0.6485  0.5665
   43MOL0     H 5756  11.352   9.939   2.938 -0.1559 -0.5085 -0.0888
   43MOL0     H 5757  11.642   9.991   2.978  0.6280 -1.1277 -0.8745
   43MOL0     H 5758  11.676  10.078   3.130  2.3079 -0.7532 -3.5083
   43MOL0     H 5759  11.605   9.868   3.255 -0.7562 -1.6859 -0.0749
   43MOL0     H 5760  11.600   9.794   3.091 -0.1242  1.7196 -1.6849
   43MOL0     H 5761  11.843   9.853   3.064  1.8471  1.4701  0.2665
   43MOL0     H 5762  11.802   9.734   3.176 -0.2553  1.3160  2.9240
   43MOL0     H 5763  11.807   9.913   3.361  0.2376  1.8100  0.0276
   43MOL0     H 5764  11.886  10.009   3.240 -2.4357 -0.9941 -3.9925
   43MOL0     H 5765  12.219   9.724   3.368  0.8701  0.7161  0.5916
   43MOL0     H 5766  12.411   9.821   3.438 -0.9508 -1.3959 -1.1375
   43MOL0     H 5767  12.767   9.931   3.340 -1.6205  0.2223  0.1875
   43MOL0     H 5768  13.002  10.001   3.359 -1.7074 -1.9429 -1.6592
   43MOL0     H 5769  13.092  10.344   3.649  1.4024  0.4160  1.1720
   43MOL0     H 5770  13.118  10.199   3.740 -2.7088  0.5631 -0.2121
   43MOL0     H 5771  13.329  10.361   3.559  0.7316  0.5859  2.1340
   43MOL0     H 5772  13.341  10.315   3.727 -4.6003 -0.5017  2.1980
   43MOL0     H 5773  13.343  10.062   3.648 -1.0514  0.4964 -0.7469
   43MOL0     H 5774  13.378  10.147   3.499 -0.2762 -2.0103  0.3983
   43MOL0     H 5775  13.559  10.163   3.750  1.5893  1.0249  0.7038
   43MOL0     H 5776  13.576  10.251   3.599  0.4454 -1.3827 -2.0098
   43MOL0     H 5777  13.588   9.988   3.508  0.0717 -1.6434  0.1147
   43MOL0     H 5778  13.602   9.970   3.688  0.3536  2.6614  1.6352
   43MOL0     H 5779  13.797  10.108   3.486 -3.3487  0.5554 -0.5798
   43MOL0     H 5780  13.789  10.155   3.654 -1.2981  0.9966 -1.1671
   43MOL0     H 5781  13.837   9.882   3.528 -0.4664 -2.6413  2.1143
   43MOL0     H 5782  13.834   9.913   3.706  0.7931 -1.7552 -1.0863
   43MOL0     H 5783  14.013  10.044   3.508 -0.4006  1.2066  0.3544
   43MOL0     H 5784  14.012  10.074   3.685  0.4930  0.0440 -0.1600
   43MOL0     H 5785  12.913  10.198   3.728  0.3246 -1.2457 -0.8283
   43MOL0     H 5786  12.679  10.125   3.711  2.3564  5.9745 -0.4384
   43MOL0     H 5787  12.215  10.206   3.443 -1.0068 -0.5097  2.0511
   43MOL0     H 5788  12.019  10.101   3.372  0.0271  0.1109 -1.0580
   43MOL0     H 5789  10.132   9.762   3.111 -0.2762  1.8224 -1.2258
   43MOL0     H 5790   9.978   9.607   3.256  0.0074  0.6730 -0.0937
   43MOL0     H 5791   9.666   9.651   3.675  0.5625  0.4433 -0.1165
   43MOL0     H 5792   9.493   9.528   3.800  0.7558 -1.1116  0.0255
   43MOL0     H 5793   9.475   9.177   3.796 -0.3508 -2.6710  0.1794
   43MOL0     H 5794   9.376   9.134   3.647  0.4376 -2.3732  0.7610
   43MOL0     H 5795   9.163   9.149   3.786  1.6978 -0.4602 -2.7676
   43MOL0     H 5796   9.245   9.223   3.918  1.1557  2.1497 -1.3941
   43MOL0     H 5797   9.366   8.998   3.968 -0.0345  2.5828  0.0527
   43MOL0     H 5798   9.303   8.945   3.806 -1.6680  0.3670 -1.0481
   43MOL0     H 5799   9.192   8.857   4.003 -2.1514 -0.0892  2.3776
   43MOL0     H 5800   9.140   9.021   4.060 -0.5486 -0.2136 -0.0455
   43MOL0     H 5801   8.835   8.896   3.792  0.1421 -0.9408  0.0390
   43MOL0     H 5802   9.452   9.264   3.464  3.3203 -0.6714 -0.7090
   43MOL0     H 5803   9.551   9.410   3.220 -0.3062  1.8693  1.1451
   43MOL0     H 5804   9.715   9.379   3.279  0.2498  0.9484 -2.3997
   43MOL0     H 5805   9.591   9.258   3.306 -0.8013  0.2916 -1.9329
   44MOL0     O 5806   1.776   7.167   5.469  0.3299  0.5868  0.2875
   44MOL0     C 5807   1.803   7.289   5.493 -0.7703  0.7563  0.1503
   44MOL0     O 5808   1.887   7.331   5.587 -0.7769 -0.2485  0.0745
   44MOL0     C 5809   1.961   7.244   5.657  0.2621 -0.6529 -0.0003
   44MOL0     C 5810   1.957   7.264   5.796  0.1608  0.6611 -0.6345
   44MOL0     C 5811   2.022   7.179   5.886 -0.5130 -0.4160  0.5253
   44MOL0     C 5812   2.105   7.075   5.826 -0.0319 -0.5139  0.0072
   44MOL0     O 5813   2.169   6.994   5.917 -0.0295 -0.7494 -0.2113
   44MOL0     C 5814   2.250   6.883   5.874 -0.2734 -0.6350 -0.5344
   44MOL0     C 5815   2.234   6.784   5.979 -0.5330  0.4433  0.2815
   44MOL0     C 5816   2.281   6.648   5.942  0.1480  0.5778  0.0226
   44MOL0     C 5817   2.232   6.541   6.043  1.2170 -0.0600  0.1395
   44MOL0     C 5818   2.322   6.420   6.036  0.1760 -0.1535  0.4288
   44MOL0     C 5819   2.339   6.349   5.899 -0.4897  0.4538 -0.3440
   44MOL0     C 5820   2.460   6.251   5.892 -0.8564  0.0895  0.8123
   44MOL0     C 5821   2.486   6.178   5.771 -0.5197 -0.1607  0.2517
   44MOL0     N 5822   2.390   6.073   5.748  0.9931  0.4189  0.3891
   44MOL0     C 5823   2.281   6.079   5.658 -0.9674 -0.4948  0.6027
   44MOL0     C 5824   2.233   5.955   5.652 -0.0088 -0.6503  0.3531
   44MOL0     C 5825   2.105   5.930   5.593  0.6246  1.0321  0.2089
   44MOL0     C 5826   1.986   5.987   5.666  0.7139 -0.0976  0.6233
   44MOL0     C 5827   1.852   5.982   5.584  0.1495 -0.6389  0.0334
   44MOL0     C 5828   1.731   6.015   5.671  0.0043 -0.5033 -0.6890
   44MOL0     O 5829   1.723   6.159   5.699 -0.2356 -0.7103  0.2667
   44MOL0     C 5830   1.601   6.206   5.745 -0.4257 -0.1331  0.0858
   44MOL0     C 5831   1.608   6.346   5.773 -0.0221 -0.1541  0.2143
   44MOL0     C 5832   1.487   6.406   5.824 -0.2530  0.2506 -0.2416
   44MOL0     C 5833   1.370   6.333   5.848 -0.5201 -0.2016 -0.0777
   44MOL0     C 5834   1.248   6.397   5.905 -1.1322 -0.4956 -1.2628
   44MOL0     O 5835   1.239   6.534   5.888 -0.5536 -0.3260  0.2265
   44MOL0     C 5836   1.123   6.588   5.921 -0.3642  0.2478 -0.5134
   44MOL0     C 5837   1.041   6.634   5.820  0.5087  0.1867  1.4993
   44MOL0     C 5838   0.913   6.688   5.849  0.6455  0.4906 -0.1775
   44MOL0     C 5839   0.869   6.698   5.983 -0.3753 -0.4078 -0.3811
   44MOL0     O 5840   0.752   6.770   6.005  0.8513  0.6292  0.1104
   44MOL0     C 5841   0.704   6.763   6.138 -0.0965  0.0988  0.7657
   44MOL0     C 5842   0.570   6.838   6.157  0.7899 -0.5386 -1.0283
   44MOL0     C 5843   0.585   6.983   6.123 -0.0489 -0.3786 -0.2029
   44MOL0     C 5844   0.462   7.071   6.148  0.0195  0.2564  0.3762
   44MOL0     C 5845   0.442   7.112   6.290  1.0812  0.7272 -0.0376
   44MOL0     C 5846   0.312   7.199   6.321 -0.0497 -0.0730 -0.7547
   44MOL0     C 5847   0.181   7.119   6.312  0.9266 -0.1996  0.7099
   44MOL0     C 5848   0.049   7.204   6.300  0.6800  0.2027 -0.4576
   44MOL0    Cl 5849   0.066   7.302   6.151  0.4803  0.1207  0.3131
   44MOL0     C 5850   0.945   6.652   6.081 -0.6390 -0.7438 -0.0562
   44MOL0     C 5851   1.073   6.592   6.051 -0.4122 -0.5686  0.4560
   44MOL0     O 5852   1.177   6.324   5.971  0.1234  0.1354 -0.2782
   44MOL0     C 5853   1.365   6.201   5.809  0.2004  0.4255 -0.6434
   44MOL0     C 5854   1.482   6.134   5.770  0.0223  0.0256  0.6109
   44MOL0     N 5855   2.303   5.883   5.747 -0.0077 -0.9771 -0.2809
   44MOL0     N 5856   2.394   5.954   5.810  0.0285 -0.2580 -0.3598
   44MOL0     C 5857   2.115   7.060   5.690  0.7276 -0.2975  1.2366
   44MOL0     C 5858   2.039   7.139   5.600 -0.3533 -0.0962  0.1540
   44MOL0     C 5859   1.768   7.391   5.381 -0.2041 -1.1766 -0.1538
   44MOL0     C 5860   1.788   7.522   5.399  0.1845  0.8741  0.0120
   44MOL0     C 5861   1.750   7.621   5.303  1.0596  0.4438  0.2411
   44MOL0     C 5862   1.697   7.584   5.180 -0.2244  0.0959 -0.8179
   44MOL0     O 5863   1.663   7.681   5.081  0.4020  0.4314 -0.4104
   44MOL0     C 5864   1.594   7.635   4.958  0.1500  0.5128 -0.4486
   44MOL0     C 5865   1.598   7.740   4.847  0.5228 -0.4484 -0.1397
   44MOL0     C 5866   1.731   7.776   4.784 -0.5596 -0.1566 -0.7046
   44MOL0     C 5867   1.723   7.837   4.649  0.1385  0.7054  0.4412
   44MOL0     C 5868   1.673   7.976   4.657  0.0665 -0.3308  0.7179
   44MOL0     C 5869   1.623   8.089   4.661 -0.6571 -0.0178  0.0070
   44MOL0     C 5870   1.683   7.448   5.158 -1.8104  0.0827 -1.1229
   44MOL0     C 5871   1.719   7.352   5.253  0.1851  0.1188 -0.0783
   44MOL0     C 5872   1.717   7.209   5.208  0.6064  0.5264  0.0109
   44MOL0     H 5873   1.901   7.351   5.829  1.4433  1.9378 -1.7363
   44MOL0     H 5874   2.031   7.200   5.992  1.6658  1.5818  0.0380
   44MOL0     H 5875   2.213   6.845   5.778  1.4963 -1.5485 -0.9021
   44MOL0     H 5876   2.352   6.920   5.855 -1.2847  1.3993 -2.4385
   44MOL0     H 5877   2.126   6.781   5.996 -1.0886 -0.0708 -2.6612
   44MOL0     H 5878   2.272   6.824   6.073  0.8889  0.4349 -0.2735
   44MOL0     H 5879   2.390   6.654   5.939  0.1576  1.8318  1.6414
   44MOL0     H 5880   2.242   6.627   5.842 -1.3954 -1.1896  0.9463
   44MOL0     H 5881   2.234   6.585   6.143  0.4971 -1.0446  0.5988
   44MOL0     H 5882   2.126   6.520   6.026  0.8125  1.6821  0.3114
   44MOL0     H 5883   2.416   6.446   6.087 -1.1060 -0.3070  3.0342
   44MOL0     H 5884   2.300   6.338   6.106 -2.4308  1.0079  1.0744
   44MOL0     H 5885   2.252   6.300   5.855 -1.2546  2.0584 -0.6937
   44MOL0     H 5886   2.367   6.440   5.845 -1.3842  2.6128  2.5794
   44MOL0     H 5887   2.463   6.172   5.968  2.5306 -3.0118 -2.1432
   44MOL0     H 5888   2.546   6.318   5.907 -1.7275  1.3012  0.5621
   44MOL0     H 5889   2.490   6.242   5.682 -1.0338  0.7886  0.9040
   44MOL0     H 5890   2.586   6.135   5.787 -0.3006  0.4004  0.4029
   44MOL0     H 5891   2.258   6.158   5.587  1.1681 -0.1976  0.1606
   44MOL0     H 5892   2.108   5.951   5.486  1.1733 -0.5336 -0.1070
   44MOL0     H 5893   2.082   5.823   5.595 -0.4159  1.0846 -3.1136
   44MOL0     H 5894   1.969   5.933   5.759  2.4446 -1.6518  0.0941
   44MOL0     H 5895   2.008   6.090   5.696 -0.0406 -0.1059  1.2374
   44MOL0     H 5896   1.846   5.883   5.538  0.5495 -2.0233  2.7569
   44MOL0     H 5897   1.856   6.060   5.507  1.3698 -1.0651 -0.3700
   44MOL0     H 5898   1.733   5.963   5.768  0.0086 -2.3234 -1.6296
   44MOL0     H 5899   1.648   5.978   5.611 -0.4429  1.6888 -1.4919
   44MOL0     H 5900   1.691   6.409   5.744  0.4067 -1.7334 -2.3390
   44MOL0     H 5901   1.491   6.507   5.862 -0.6710 -0.2120  1.0703
   44MOL0     H 5902   1.073   6.623   5.717 -1.9164 -0.9529  0.7701
   44MOL0     H 5903   0.852   6.721   5.764  1.9109  1.0995 -0.8778
   44MOL0     H 5904   0.683   6.659   6.162 -0.4519 -0.0600 -0.1988
   44MOL0     H 5905   0.765   6.804   6.220 -3.9095  0.5561  3.6878
   44MOL0     H 5906   0.501   6.785   6.090 -1.0464 -0.6107  0.8095
   44MOL0     H 5907   0.527   6.827   6.257  3.2526 -3.3417 -0.1423
   44MOL0     H 5908   0.671   7.036   6.166 -2.2845  3.7652 -0.2885
   44MOL0     H 5909   0.598   6.983   6.015  0.0378  2.6799 -0.2928
   44MOL0     H 5910   0.375   7.032   6.095 -0.1545 -1.2070  1.6618
   44MOL0     H 5911   0.480   7.153   6.078 -0.0642 -2.9167 -3.7946
   44MOL0     H 5912   0.524   7.168   6.337  1.6877  1.0472 -1.4429
   44MOL0     H 5913   0.436   7.016   6.342 -0.0815  0.8699  0.1235
   44MOL0     H 5914   0.329   7.250   6.416  0.5383 -0.3818 -0.6877
   44MOL0     H 5915   0.303   7.284   6.253 -2.6739 -0.7617 -1.4033
   44MOL0     H 5916   0.188   7.050   6.397  0.9299 -0.5181  0.4537
   44MOL0     H 5917   0.188   7.049   6.228 -4.3478 -1.1044  0.6862
   44MOL0     H 5918  -0.037   7.137   6.292  0.9752 -0.1305 -0.8447
   44MOL0     H 5919   0.034   7.262   6.392 -0.7703 -4.4460  2.6010
   44MOL0     H 5920   0.913   6.654   6.185 -2.3242  1.9318 -0.5381
   44MOL0     H 5921   1.122   6.537   6.130  2.4666  3.5329  1.8616
   44MOL0     H 5922   1.276   6.140   5.823 -0.6215  2.3298  4.8695
   44MOL0     H 5923   1.487   6.027   5.756  1.0082 -0.2180  2.5289
   44MOL0     H 5924   2.188   6.991   5.650  1.1529  0.9487 -0.2495
   44MOL0     H 5925   2.058   7.120   5.495  0.9357 -0.9786  0.5169
   44MOL0     H 5926   1.837   7.561   5.488  0.3015  1.2620 -0.2178
   44MOL0     H 5927   1.768   7.727   5.314 -0.5342  0.5702  2.3449
   44MOL0     H 5928   1.494   7.595   4.980  0.9834 -1.1193  0.5177
   44MOL0     H 5929   1.649   7.551   4.916 -0.9096 -1.9535  2.7505
   44MOL0     H 5930   1.562   7.834   4.892  0.3718 -0.1383 -0.8920
   44MOL0     H 5931   1.533   7.703   4.767  1.6367 -1.5662 -0.5416
   44MOL0     H 5932   1.790   7.684   4.775 -0.3021  0.2278 -3.8063
   44MOL0     H 5933   1.771   7.854   4.850 -1.2598 -0.2664 -0.1451
   44MOL0     H 5934   1.823   7.842   4.605 -0.6663  0.2185 -1.5240
   44MOL0     H 5935   1.659   7.781   4.580  0.3044  1.3677 -0.2515
   44MOL0     H 5936   1.566   8.173   4.693  1.1457  1.5935 -0.8444
   44MOL0     H 5937   1.651   7.407   5.062  1.6420  0.9562 -2.8186
   44MOL0     H 5938   1.634   7.154   5.254 -0.7302  2.1478 -0.3820
   44MOL0     H 5939   1.700   7.201   5.100 -3.7879  1.0022  0.5102
   44MOL0     H 5940   1.816   7.164   5.219  0.6047  0.1308 -1.3808
   45MOL0     O 5941   2.505   0.235   1.223 -0.4578 -0.1921 -0.4680
   45MOL0     C 5942   2.539   0.318   1.306  0.2061  0.9143 -0.8174
   45MOL0     O 5943   2.659   0.384   1.311  0.5701  0.1067  0.4051
   45MOL0     C 5944   2.748   0.374   1.206  0.4143 -0.0245 -0.4153
   45MOL0     C 5945   2.874   0.434   1.240  0.5282  0.0495  0.2438
   45MOL0     C 5946   2.979   0.433   1.141  0.0688 -0.2694 -0.8607
   45MOL0     C 5947   2.968   0.377   1.016 -0.1832 -0.2380 -0.2552
   45MOL0     O 5948   3.076   0.386   0.930  0.7397  0.3924  0.0078
   45MOL0     C 5949   3.187   0.304   0.970 -0.7947 -0.5086 -1.0809
   45MOL0     C 5950   3.152   0.153   0.946  0.0962 -0.3576  0.4218
   45MOL0     C 5951   3.268   0.056   0.977  0.8866 -0.3506 -0.2729
   45MOL0     C 5952   3.399   0.083   0.896  0.7686 -0.7008 -0.3421
   45MOL0     C 5953   3.492  -0.041   0.928 -0.1155  0.2182  0.6899
   45MOL0     C 5954   3.632  -0.010   0.905  0.0422 -0.1420 -1.0461
   45MOL0     C 5955   3.716  -0.125   0.959  0.2928 -0.8351  0.2309
   45MOL0     C 5956   3.862  -0.090   0.953  0.6773  0.0237  0.3241
   45MOL0     N 5957   3.908   0.019   1.035 -0.0929 -0.2138 -0.0509
   45MOL0     C 5958   3.917   0.141   0.978  0.1512 -0.3088 -0.5673
   45MOL0     C 5959   3.974   0.212   1.080 -0.2958  0.8437  0.3889
   45MOL0     C 5960   3.996   0.364   1.082  0.7098 -0.4133  0.5117
   45MOL0     C 5961   4.109   0.408   1.174 -0.4348 -0.7242  0.0393
   45MOL0     C 5962   4.221   0.467   1.082 -1.1538  0.6579  0.5625
   45MOL0     C 5963   4.339   0.524   1.163 -0.3857 -0.6054  0.6261
   45MOL0     O 5964   4.290   0.632   1.246 -0.4937  0.0217  0.3449
   45MOL0     C 5965   4.390   0.701   1.319  0.2765  0.2934  0.4755
   45MOL0     C 5966   4.511   0.735   1.247 -0.1033 -1.0469  0.3983
   45MOL0     C 5967   4.606   0.826   1.304  0.7300 -0.1805 -0.4122
   45MOL0     C 5968   4.589   0.873   1.429 -0.2711  0.1902 -0.0639
   45MOL0     C 5969   4.702   0.959   1.488  0.4073  0.3923 -1.0669
   45MOL0     O 5970   4.686   0.980   1.626  0.2960  0.2108 -0.2038
   45MOL0     C 5971   4.794   1.051   1.682  0.6687  0.9410  0.1052
   45MOL0     C 5972   4.902   0.982   1.727 -0.7270  0.1505  0.0440
   45MOL0     C 5973   5.008   1.058   1.794 -0.1631  0.1981 -0.2450
   45MOL0     C 5974   5.009   1.192   1.816 -0.5085 -0.2509  0.3381
   45MOL0     O 5975   5.111   1.244   1.894  0.7083 -0.5619  0.0092
   45MOL0     C 5976   5.112   1.389   1.890  0.2681  0.6657 -0.3884
   45MOL0     C 5977   5.233   1.448   1.956  0.1559 -0.6802  0.2411
   45MOL0     C 5978   5.273   1.400   2.096 -0.3531 -0.3196  0.1866
   45MOL0     C 5979   5.171   1.438   2.191 -0.4790 -0.3159  0.3029
   45MOL0     C 5980   5.228   1.428   2.333 -0.0529  0.3599 -0.7796
   45MOL0     C 5981   5.114   1.438   2.437 -0.6199 -0.3689 -0.6051
   45MOL0     C 5982   5.184   1.442   2.571 -0.5192 -0.1683 -1.3835
   45MOL0     C 5983   5.074   1.477   2.673 -0.6075  0.5089  0.4092
   45MOL0    Cl 5984   5.035   1.656   2.688 -0.4381 -0.5176 -0.0541
   45MOL0     C 5985   4.895   1.259   1.755  0.1007 -0.0080 -1.1225
   45MOL0     C 5986   4.795   1.188   1.687  0.3112 -0.8009 -0.2926
   45MOL0     O 5987   4.806   0.979   1.422 -0.1417  0.1352  0.2695
   45MOL0     C 5988   4.475   0.834   1.502  0.0578 -0.3864  0.3703
   45MOL0     C 5989   4.371   0.751   1.449  0.7350 -1.1439  0.6212
   45MOL0     N 5990   4.010   0.123   1.180  1.0900 -0.5158 -0.2000
   45MOL0     N 5991   3.978   0.010   1.151 -0.3803 -0.1341  0.0868
   45MOL0     C 5992   2.842   0.316   0.987  0.1140  0.1255 -0.0059
   45MOL0     C 5993   2.734   0.316   1.080 -1.2147 -0.1859  0.6998
   45MOL0     C 5994   2.453   0.354   1.427  0.0660  0.2554  0.1397
   45MOL0     C 5995   2.496   0.458   1.512 -0.4183 -0.1897 -1.1216
   45MOL0     C 5996   2.424   0.487   1.637 -0.3694 -0.3982 -0.2077
   45MOL0     C 5997   2.294   0.435   1.660 -0.3319  0.3718  0.1157
   45MOL0     O 5998   2.205   0.464   1.763  0.3964 -0.5396  0.4970
   45MOL0     C 5999   2.238   0.573   1.845  0.1404 -0.5337  0.0323
   45MOL0     C 6000   2.146   0.584   1.957  0.0182 -0.1112  0.4880
   45MOL0     C 6001   2.011   0.640   1.914 -0.0774  0.7441 -0.3613
   45MOL0     C 6002   1.909   0.630   2.032  0.0693 -0.4546 -0.6794
   45MOL0     C 6003   1.895   0.759   2.100 -0.2610 -0.9064 -0.3985
   45MOL0     C 6004   1.899   0.862   2.153 -0.3831 -0.1466  0.0260
   45MOL0     C 6005   2.253   0.339   1.568  0.5021  0.8943  0.1663
   45MOL0     C 6006   2.326   0.289   1.461  0.0668 -0.5668  0.6918
   45MOL0     C 6007   2.284   0.156   1.396 -0.3938  0.6111 -0.0550
   45MOL0     H 6008   2.890   0.477   1.339  1.3524 -1.8352  0.9673
   45MOL0     H 6009   3.074   0.480   1.164 -0.1602 -0.9154  1.7158
   45MOL0     H 6010   3.276   0.330   0.911  0.0800  0.4488  0.5943
   45MOL0     H 6011   3.208   0.320   1.076 -0.8665 -1.2880 -0.9466
   45MOL0     H 6012   3.112   0.155   0.844 -1.1557  3.4741  0.8219
   45MOL0     H 6013   3.062   0.138   1.007 -2.4277  1.7390 -2.4460
   45MOL0     H 6014   3.239  -0.049   0.975  1.3274 -0.4621 -1.0315
   45MOL0     H 6015   3.287   0.081   1.082 -2.2558  2.8648 -0.2877
   45MOL0     H 6016   3.389   0.121   0.794  4.4110  1.4790 -0.0368
   45MOL0     H 6017   3.431   0.168   0.957 -0.6870 -1.3170  1.3570
   45MOL0     H 6018   3.472  -0.075   1.030 -2.5695  0.1199  0.2409
   45MOL0     H 6019   3.468  -0.125   0.863  1.6553  1.2125 -1.4083
   45MOL0     H 6020   3.651   0.013   0.800 -3.1838 -2.9959 -2.4502
   45MOL0     H 6021   3.661   0.084   0.954 -1.4778  0.6833 -1.6519
   45MOL0     H 6022   3.699  -0.213   0.896  0.3736  1.5339 -3.4366
   45MOL0     H 6023   3.684  -0.153   1.060  0.9976 -1.2320  0.3499
   45MOL0     H 6024   3.909  -0.185   0.983  2.5212  0.2553 -1.5622
   45MOL0     H 6025   3.897  -0.067   0.852 -0.2757 -0.3070 -0.0892
   45MOL0     H 6026   3.872   0.179   0.887 -2.4497  2.4126  1.6074
   45MOL0     H 6027   4.014   0.397   0.980  0.7734  0.8056  0.9085
   45MOL0     H 6028   3.902   0.410   1.112  1.4624  0.2947  1.9281
   45MOL0     H 6029   4.068   0.492   1.231  0.1767 -0.2607 -0.1989
   45MOL0     H 6030   4.150   0.338   1.247  2.9217  2.5988  1.7001
   45MOL0     H 6031   4.184   0.549   1.019  0.2627  1.2584  0.4577
   45MOL0     H 6032   4.249   0.386   1.014 -0.7645  2.4607 -1.5629
   45MOL0     H 6033   4.413   0.557   1.089 -0.5533  0.9566  1.1187
   45MOL0     H 6034   4.386   0.454   1.233 -0.0739 -1.2158 -0.1639
   45MOL0     H 6035   4.536   0.714   1.144  0.3063 -1.8723  0.6549
   45MOL0     H 6036   4.698   0.847   1.250  0.9034  1.8102  0.5654
   45MOL0     H 6037   4.901   0.873   1.725 -0.3621  0.1482 -0.1612
   45MOL0     H 6038   5.096   1.004   1.828 -1.2053 -1.5552 -0.2126
   45MOL0     H 6039   5.117   1.416   1.784 -1.1351  0.9455 -0.3990
   45MOL0     H 6040   5.023   1.431   1.939 -0.1082  1.1028 -1.4186
   45MOL0     H 6041   5.318   1.443   1.887  1.0675  0.6782  1.2045
   45MOL0     H 6042   5.216   1.556   1.958 -7.5975 -1.3135 -0.9197
   45MOL0     H 6043   5.279   1.291   2.094  0.1915 -0.2870 -0.7633
   45MOL0     H 6044   5.363   1.457   2.117  1.5898 -3.3694  0.7433
   45MOL0     H 6045   5.085   1.371   2.185 -0.0832 -1.1428  2.6383
   45MOL0     H 6046   5.136   1.541   2.179 -0.5747 -0.1055  2.0248
   45MOL0     H 6047   5.298   1.510   2.347  1.7588 -1.0537 -1.2272
   45MOL0     H 6048   5.289   1.338   2.347 -1.2589 -0.4391 -0.4823
   45MOL0     H 6049   5.053   1.527   2.426 -1.1422 -0.5693  0.4886
   45MOL0     H 6050   5.048   1.351   2.428 -2.3195  0.9909 -1.8526
   45MOL0     H 6051   5.266   1.513   2.566 -1.6943  1.1598 -2.7917
   45MOL0     H 6052   5.226   1.342   2.588  1.0179  1.1290  5.1864
   45MOL0     H 6053   4.987   1.417   2.644  0.3016 -0.2223 -0.9199
   45MOL0     H 6054   5.102   1.435   2.770  1.1013  0.2939 -0.1406
   45MOL0     H 6055   4.877   1.365   1.773 -1.0774 -0.6868  2.5764
   45MOL0     H 6056   4.714   1.252   1.655 -0.1036  0.8643  3.5249
   45MOL0     H 6057   4.458   0.885   1.597  0.6899  1.2057 -0.3361
   45MOL0     H 6058   4.277   0.740   1.502 -0.7646 -0.2232 -1.7072
   45MOL0     H 6059   2.823   0.252   0.901  0.4856 -0.5974  0.4423
   45MOL0     H 6060   2.645   0.270   1.037 -0.1495  0.7061 -2.7519
   45MOL0     H 6061   2.588   0.513   1.493 -0.7568  0.1384 -1.8278
   45MOL0     H 6062   2.476   0.544   1.714  0.8410  0.5222 -1.6460
   45MOL0     H 6063   2.226   0.662   1.783 -1.2066 -1.3459 -0.9002
   45MOL0     H 6064   2.339   0.573   1.888 -0.7407 -1.2242  2.2676
   45MOL0     H 6065   2.190   0.651   2.032  2.4620 -1.0318 -0.0404
   45MOL0     H 6066   2.147   0.482   1.998  2.3013 -0.9336 -1.4356
   45MOL0     H 6067   1.997   0.588   1.819 -0.9663 -1.6726  0.9921
   45MOL0     H 6068   2.023   0.746   1.891 -1.1940  1.0354  0.3186
   45MOL0     H 6069   1.813   0.593   1.996  0.0379 -0.7403 -0.2952
   45MOL0     H 6070   1.941   0.562   2.110  0.6030  0.8185  0.2547
   45MOL0     H 6071   1.900   0.955   2.207  0.3195 -0.8980  1.3703
   45MOL0     H 6072   2.154   0.304   1.591  1.7931 -1.0931  3.3016
   45MOL0     H 6073   2.245   0.092   1.475  3.3647 -0.5439  1.0982
   45MOL0     H 6074   2.213   0.178   1.316  0.1436 -1.5351 -1.1897
   45MOL0     H 6075   2.371   0.102   1.357 -1.1153 -1.9325  1.5941
   46MOL0     O 6076   3.962   7.445   0.970 -0.0655 -0.9310 -0.2783
   46MOL0     C 6077   3.874   7.425   0.890  0.2610 -0.4336 -0.0112
   46MOL0     O 6078   3.893   7.355   0.770 -0.5102  0.0847  0.2802
   46MOL0     C 6079   3.998   7.266   0.750 -0.1171  0.0056 -0.2470
   46MOL0     C 6080   4.091   7.218   0.849  0.7122 -0.4532  0.3818
   46MOL0     C 6081   4.173   7.109   0.825  0.2692 -0.1157  0.0029
   46MOL0     C 6082   4.170   7.048   0.701 -0.3230 -0.1334 -1.0069
   46MOL0     O 6083   4.241   6.931   0.687  0.4109  0.1746  0.0072
   46MOL0     C 6084   4.365   6.942   0.633 -0.8763  1.0198 -0.7299
   46MOL0     C 6085   4.384   6.991   0.495  0.1804  0.0709 -0.0127
   46MOL0     C 6086   4.535   6.995   0.448  0.2817 -0.4074 -0.9971
   46MOL0     C 6087   4.556   7.076   0.314  0.4099  0.4391  0.8776
   46MOL0     C 6088   4.697   7.122   0.293  0.0887 -0.3180 -0.8829
   46MOL0     C 6089   4.770   7.009   0.228 -0.6019  0.1434 -0.6113
   46MOL0     C 6090   4.917   7.040   0.221  0.6988  0.8883 -0.5813
   46MOL0     C 6091   4.953   7.156   0.119 -0.0130  0.5325 -1.4955
   46MOL0     N 6092   5.092   7.138   0.069  0.1629 -0.1699  0.2271
   46MOL0     C 6093   5.198   7.213   0.100 -0.6232  0.3004 -0.2643
   46MOL0     C 6094   5.296   7.161   0.015  0.0811  0.2492 -0.4064
   46MOL0     C 6095   5.439   7.193   0.039 -0.5020  0.5160 -0.2859
   46MOL0     C 6096   5.479   7.324  -0.041 -0.1285 -0.1621 -0.2776
   46MOL0     C 6097   5.623   7.359  -0.007  0.2517 -0.3044 -0.9074
   46MOL0     C 6098   5.723   7.275  -0.080 -0.6780 -0.0375  0.1178
   46MOL0     O 6099   5.726   7.302  -0.221  0.0903 -0.2899 -0.4401
   46MOL0     C 6100   5.790   7.210  -0.297  0.9632 -0.1233 -0.6540
   46MOL0     C 6101   5.773   7.203  -0.439  0.1517 -0.7103 -0.2201
   46MOL0     C 6102   5.860   7.125  -0.512 -0.4233 -0.5003  0.5620
   46MOL0     C 6103   5.966   7.045  -0.457  0.5529  0.4828 -0.0473
   46MOL0     C 6104   6.051   6.959  -0.540  0.4905 -0.2842 -0.4762
   46MOL0     O 6105   5.995   6.930  -0.659 -0.2766  0.3884  0.8169
   46MOL0     C 6106   6.047   6.842  -0.748 -0.2068  0.6889  0.8652
   46MOL0     C 6107   5.956   6.794  -0.837 -0.3841 -0.1938 -0.2607
   46MOL0     C 6108   5.994   6.692  -0.932 -0.2199  0.2667  1.2054
   46MOL0     C 6109   6.125   6.630  -0.930  0.3175 -0.1063  0.5324
   46MOL0     O 6110   6.159   6.519  -1.006  0.1575 -0.0333  0.5135
   46MOL0     C 6111   6.054   6.433  -1.026  0.0820 -0.0776  0.7923
   46MOL0     C 6112   6.081   6.304  -1.108  0.5536  0.1024  0.1922
   46MOL0     C 6113   6.170   6.204  -1.024 -0.4633 -0.5610 -0.7262
   46MOL0     C 6114   6.311   6.263  -0.968 -0.9417  0.1328 -0.4911
   46MOL0     C 6115   6.392   6.152  -0.908 -0.6107  0.2206  0.5536
   46MOL0     C 6116   6.521   6.222  -0.862  0.5397 -0.0026 -0.4579
   46MOL0     C 6117   6.620   6.117  -0.816 -0.4357  0.1016 -0.0325
   46MOL0     C 6118   6.762   6.181  -0.826 -0.1998  0.2597  0.0139
   46MOL0    Cl 6119   6.892   6.043  -0.818 -0.3304 -0.0002  0.0583
   46MOL0     C 6120   6.221   6.682  -0.840  0.6583 -0.3699  0.1058
   46MOL0     C 6121   6.177   6.781  -0.749 -0.2428 -0.7373  0.4258
   46MOL0     O 6122   6.154   6.915  -0.493 -0.0145  0.5542  0.4014
   46MOL0     C 6123   5.991   7.056  -0.321 -0.4837 -0.2453 -0.3122
   46MOL0     C 6124   5.898   7.141  -0.251 -0.4414  0.0440  0.4854
   46MOL0     N 6125   5.242   7.070  -0.071 -0.3694  0.0162  0.1555
   46MOL0     N 6126   5.128   7.053  -0.033 -0.1659  0.2200 -0.0227
   46MOL0     C 6127   4.082   7.096   0.605 -0.3380 -0.9246  0.3994
   46MOL0     C 6128   3.999   7.201   0.626  0.8249 -0.2013 -1.1974
   46MOL0     C 6129   3.745   7.490   0.918  0.3003 -0.0887  0.4017
   46MOL0     C 6130   3.732   7.563   1.039  0.7510  0.1341  0.5518
   46MOL0     C 6131   3.613   7.629   1.066  0.4903  0.4888 -0.1362
   46MOL0     C 6132   3.511   7.635   0.972  0.2019 -0.2961  0.6495
   46MOL0     O 6133   3.385   7.689   0.996 -0.2930  0.2802  0.4266
   46MOL0     C 6134   3.320   7.648   1.113 -0.0248 -0.5635  0.4073
   46MOL0     C 6135   3.201   7.738   1.160  0.1807 -0.1226  0.1983
   46MOL0     C 6136   3.133   7.690   1.296  1.0215  0.4442  0.5167
   46MOL0     C 6137   3.032   7.789   1.361 -0.3199  0.2073  0.1126
   46MOL0     C 6138   2.905   7.815   1.289  0.5095  0.5280 -0.0126
   46MOL0     C 6139   2.806   7.859   1.235 -0.2445  0.4810 -0.1163
   46MOL0     C 6140   3.524   7.559   0.857  0.4609 -0.3388 -0.7169
   46MOL0     C 6141   3.634   7.480   0.827 -0.8033  0.2708 -0.2215
   46MOL0     C 6142   3.621   7.414   0.691 -0.2211  0.3594 -0.0050
   46MOL0     H 6143   4.103   7.266   0.946 -0.4044 -2.9793  1.8901
   46MOL0     H 6144   4.232   7.073   0.908  0.0067  2.6631  1.5232
   46MOL0     H 6145   4.413   7.011   0.703 -0.0768 -0.6959  0.4898
   46MOL0     H 6146   4.403   6.839   0.639 -4.7022 -0.5104  0.3247
   46MOL0     H 6147   4.335   7.087   0.477  1.8582  0.4422 -3.2919
   46MOL0     H 6148   4.334   6.916   0.432  5.2076 -4.6310  0.8085
   46MOL0     H 6149   4.566   6.892   0.429  0.8410 -0.5483  0.5460
   46MOL0     H 6150   4.591   7.035   0.533  0.0897 -0.5503 -0.8030
   46MOL0     H 6151   4.522   7.017   0.227 -0.7276 -1.8354  2.7417
   46MOL0     H 6152   4.496   7.167   0.314  0.3169  0.4354 -1.1387
   46MOL0     H 6153   4.692   7.205   0.222  0.5586 -2.2607 -3.3456
   46MOL0     H 6154   4.731   7.148   0.394 -0.8742  1.3703 -0.9685
   46MOL0     H 6155   4.744   6.918   0.282 -0.8879 -1.0380 -2.6723
   46MOL0     H 6156   4.737   7.000   0.125  2.2455 -1.7603 -1.4594
   46MOL0     H 6157   4.965   6.947   0.190 -0.8610 -0.6207  1.2813
   46MOL0     H 6158   4.951   7.078   0.317 -2.6962  0.4688  0.9598
   46MOL0     H 6159   4.879   7.150   0.039 -1.3766 -1.1501 -0.1882
   46MOL0     H 6160   4.937   7.250   0.174 -2.5834 -1.8888  2.4038
   46MOL0     H 6161   5.209   7.295   0.170 -4.0689  1.3604 -0.7930
   46MOL0     H 6162   5.459   7.215   0.144 -2.4833  0.5961  0.1054
   46MOL0     H 6163   5.498   7.106   0.008  0.5266  1.3995 -0.8622
   46MOL0     H 6164   5.467   7.318  -0.150 -1.1399  1.8238 -0.3199
   46MOL0     H 6165   5.413   7.403  -0.006 -0.9362 -0.9185 -0.0373
   46MOL0     H 6166   5.646   7.347   0.099  1.7156 -2.4760 -1.3947
   46MOL0     H 6167   5.648   7.456  -0.053  0.8513  0.2495  0.5427
   46MOL0     H 6168   5.705   7.168  -0.065  2.5144 -0.6077  0.5428
   46MOL0     H 6169   5.821   7.305  -0.041  0.6052  0.0679 -2.9443
   46MOL0     H 6170   5.700   7.268  -0.485  1.0589 -0.7022 -1.7000
   46MOL0     H 6171   5.832   7.131  -0.617  1.1228  2.7157  0.2156
   46MOL0     H 6172   5.860   6.844  -0.840 -0.3519 -0.1665 -1.0534
   46MOL0     H 6173   5.915   6.660  -0.999  2.2245  0.2806 -1.9507
   46MOL0     H 6174   6.003   6.398  -0.935 -0.8155 -0.3756  0.1827
   46MOL0     H 6175   5.979   6.475  -1.093  0.7381 -2.1502 -1.3663
   46MOL0     H 6176   5.993   6.258  -1.154  1.5108 -0.7049 -0.8934
   46MOL0     H 6177   6.141   6.345  -1.190  0.8429  0.8514  0.7687
   46MOL0     H 6178   6.124   6.168  -0.931  2.0191 -2.2362 -0.0474
   46MOL0     H 6179   6.189   6.118  -1.088  1.9955 -0.3854 -0.3407
   46MOL0     H 6180   6.292   6.339  -0.892 -0.3995 -0.2941  0.0822
   46MOL0     H 6181   6.368   6.308  -1.049  1.6531 -0.5901  0.8104
   46MOL0     H 6182   6.404   6.061  -0.967 -0.6439 -2.5260  4.4026
   46MOL0     H 6183   6.332   6.114  -0.825 -2.3828 -1.1168 -1.2616
   46MOL0     H 6184   6.562   6.282  -0.944  0.1811 -0.4532 -0.9630
   46MOL0     H 6185   6.499   6.284  -0.774  0.0941 -0.0197 -0.5587
   46MOL0     H 6186   6.620   6.025  -0.876  0.7755  0.7278 -1.0405
   46MOL0     H 6187   6.597   6.085  -0.714 -2.4134  1.4860  0.0314
   46MOL0     H 6188   6.771   6.221  -0.928  0.6798 -1.3670 -0.5830
   46MOL0     H 6189   6.788   6.252  -0.747 -0.2624  1.0107 -0.6322
   46MOL0     H 6190   6.321   6.640  -0.839  1.0131  0.3361 -2.1056
   46MOL0     H 6191   6.254   6.817  -0.682  0.3019 -0.9151 -0.0896
   46MOL0     H 6192   6.069   7.010  -0.261 -1.2355  1.6233  2.2793
   46MOL0     H 6193   5.928   7.161  -0.149  0.8053 -0.0136  0.1365
   46MOL0     H 6194   4.079   7.044   0.510 -4.1115  0.3992 -0.3798
   46MOL0     H 6195   3.913   7.208   0.561 -1.0791  0.4980  1.2222
   46MOL0     H 6196   3.807   7.562   1.117  0.6321  2.0992  0.7405
   46MOL0     H 6197   3.594   7.681   1.159 -2.4535 -0.9809  0.2229
   46MOL0     H 6198   3.390   7.626   1.194  0.1987 -0.2242  0.3070
   46MOL0     H 6199   3.282   7.550   1.080  0.1491 -0.8791  1.1332
   46MOL0     H 6200   3.133   7.744   1.075 -0.8717 -4.8858  0.4359
   46MOL0     H 6201   3.241   7.837   1.184 -1.0406  0.5396 -0.4370
   46MOL0     H 6202   3.205   7.660   1.373  0.6877 -4.2766 -0.7022
   46MOL0     H 6203   3.086   7.596   1.267 -0.1587  1.1429  0.0926
   46MOL0     H 6204   3.010   7.751   1.461  0.6738  2.9657  1.4690
   46MOL0     H 6205   3.093   7.878   1.380  2.2931 -1.1123 -1.4323
   46MOL0     H 6206   2.713   7.896   1.197  0.3530  0.0210 -2.1579
   46MOL0     H 6207   3.433   7.556   0.797  1.6432 -2.4027 -2.5587
   46MOL0     H 6208   3.633   7.310   0.720 -1.2298  0.5196  1.0698
   46MOL0     H 6209   3.527   7.435   0.639  0.1127 -1.6775 -1.5488
   46MOL0     H 6210   3.704   7.441   0.625 -1.6262  1.1506 -1.5240
   47MOL0     O 6211   3.233   5.998   5.593  0.3425  0.0792 -0.5309
   47MOL0     C 6212   3.202   6.063   5.695  0.1778 -0.6277  0.4959
   47MOL0     O 6213   3.269   6.061   5.819 -0.1198 -0.3071  0.3157
   47MOL0     C 6214   3.349   5.948   5.842  0.8507 -0.2651  0.7390
   47MOL0     C 6215   3.300   5.820   5.827 -0.1054 -0.0232 -0.4918
   47MOL0     C 6216   3.380   5.702   5.856  0.1772 -0.2657  0.9962
   47MOL0     C 6217   3.503   5.717   5.907 -0.3584  0.5713  0.6295
   47MOL0     O 6218   3.591   5.611   5.923 -0.4009  0.0778  0.6923
   47MOL0     C 6219   3.541   5.479   5.947  0.0451  0.1700  0.6202
   47MOL0     C 6220   3.510   5.449   6.093  0.0053 -0.6164  0.3044
   47MOL0     C 6221   3.645   5.418   6.168 -0.3002 -1.3999 -0.5167
   47MOL0     C 6222   3.615   5.425   6.327 -0.1154  0.3526 -0.2661
   47MOL0     C 6223   3.737   5.407   6.410 -1.0394 -1.0927 -0.0676
   47MOL0     C 6224   3.699   5.377   6.558  0.5602 -0.4325 -0.4268
   47MOL0     C 6225   3.661   5.225   6.569  0.5604 -0.4714  0.2929
   47MOL0     C 6226   3.659   5.183   6.719 -0.2807 -0.1472 -0.7136
   47MOL0     N 6227   3.600   5.056   6.732 -0.1610 -0.4864  0.1932
   47MOL0     C 6228   3.637   4.940   6.667 -0.0488 -0.2027  0.0424
   47MOL0     C 6229   3.566   4.845   6.737  0.6833  0.4207 -0.3349
   47MOL0     C 6230   3.580   4.697   6.708  0.1127 -0.2896 -0.5758
   47MOL0     C 6231   3.724   4.647   6.682  0.1202  0.0905  1.1836
   47MOL0     C 6232   3.822   4.681   6.796  0.8286 -0.7792 -0.2761
   47MOL0     C 6233   3.956   4.638   6.764 -0.5316 -0.0107 -0.6664
   47MOL0     O 6234   3.974   4.507   6.711 -0.4192  0.2341 -0.1597
   47MOL0     C 6235   4.100   4.457   6.686  0.2890  0.3332 -0.1886
   47MOL0     C 6236   4.215   4.530   6.686  0.0525  0.4932  0.0834
   47MOL0     C 6237   4.341   4.468   6.658  0.8419  0.3599  0.0811
   47MOL0     C 6238   4.343   4.335   6.630  0.2271  0.0980 -0.1820
   47MOL0     C 6239   4.469   4.267   6.622 -0.6964  0.5832  0.2688
   47MOL0     O 6240   4.558   4.310   6.527 -0.6714  0.1187 -0.5492
   47MOL0     C 6241   4.682   4.254   6.492 -0.7291  0.3385  0.3519
   47MOL0     C 6242   4.770   4.186   6.584 -0.4795 -1.0153  0.3750
   47MOL0     C 6243   4.886   4.133   6.535  0.2304  0.0198 -0.2232
   47MOL0     C 6244   4.923   4.131   6.399 -0.3254  0.7429 -0.2935
   47MOL0     O 6245   5.037   4.060   6.359  0.6117 -1.0833  0.4577
   47MOL0     C 6246   5.092   3.958   6.450 -0.6843 -0.7868 -0.2939
   47MOL0     C 6247   5.207   3.907   6.363  0.6299 -0.1713  1.1284
   47MOL0     C 6248   5.297   3.809   6.428  0.8112 -0.2837  0.3509
   47MOL0     C 6249   5.387   3.731   6.334 -0.1412  0.0724 -0.3008
   47MOL0     C 6250   5.484   3.645   6.416 -0.1765  0.1123  0.2376
   47MOL0     C 6251   5.609   3.614   6.328  0.0655  0.6191  0.5826
   47MOL0     C 6252   5.690   3.488   6.372 -0.2096  0.0120  0.1588
   47MOL0     C 6253   5.830   3.522   6.427 -0.1086  0.2685 -0.3505
   47MOL0    Cl 6254   5.819   3.636   6.565 -0.0948  0.0379  0.2524
   47MOL0     C 6255   4.844   4.207   6.311 -0.1423  1.0909 -0.2185
   47MOL0     C 6256   4.722   4.259   6.356 -0.0012  0.8551  0.2453
   47MOL0     O 6257   4.478   4.169   6.690  0.1361  0.5576  0.1322
   47MOL0     C 6258   4.224   4.256   6.641  0.4156  1.0431  0.7749
   47MOL0     C 6259   4.106   4.317   6.676 -0.3697  1.1290 -0.5009
   47MOL0     N 6260   3.466   4.912   6.814 -1.6665  0.0474 -0.1346
   47MOL0     N 6261   3.478   5.042   6.794  0.5294  1.4565  0.1793
   47MOL0     C 6262   3.555   5.848   5.922  0.0533 -0.2525 -0.5085
   47MOL0     C 6263   3.478   5.964   5.897  0.4423  0.2447 -0.2253
   47MOL0     C 6264   3.095   6.161   5.686  0.4520 -0.1380 -0.0665
   47MOL0     C 6265   3.027   6.191   5.801 -0.0563  0.4280  0.4475
   47MOL0     C 6266   2.937   6.295   5.803 -0.2586  0.1306  0.6461
   47MOL0     C 6267   2.906   6.366   5.681 -0.7070  0.1815  0.3719
   47MOL0     O 6268   2.808   6.465   5.695  0.8370 -0.1125 -0.2495
   47MOL0     C 6269   2.757   6.543   5.584  0.0626 -0.2289  0.6112
   47MOL0     C 6270   2.666   6.664   5.622 -0.2696  0.3782 -0.1678
   47MOL0     C 6271   2.520   6.632   5.652 -0.5641 -0.4803 -0.2876
   47MOL0     C 6272   2.424   6.640   5.543  0.7996  0.5647  0.4323
   47MOL0     C 6273   2.386   6.780   5.498  0.2715  0.6627 -0.3826
   47MOL0     C 6274   2.359   6.893   5.466 -0.5389  0.1132 -0.1350
   47MOL0     C 6275   2.972   6.337   5.568 -0.1736 -0.2947  0.0921
   47MOL0     C 6276   3.063   6.234   5.568 -0.5771 -1.5001  0.1797
   47MOL0     C 6277   3.119   6.208   5.431  0.9204  0.2056  0.2829
   47MOL0     H 6278   3.196   5.805   5.799 -0.2412 -0.0979  0.0477
   47MOL0     H 6279   3.337   5.607   5.826 -1.6045  0.1974  1.9139
   47MOL0     H 6280   3.453   5.457   5.886 -0.6347  1.2687  1.1829
   47MOL0     H 6281   3.615   5.412   5.902 -0.2054  0.8351 -0.8541
   47MOL0     H 6282   3.446   5.361   6.103 -1.7791  0.7928  2.3188
   47MOL0     H 6283   3.456   5.534   6.137  0.1504 -0.1288 -0.4608
   47MOL0     H 6284   3.703   5.505   6.137 -1.3366 -1.4666 -2.8582
   47MOL0     H 6285   3.706   5.332   6.138  2.6383  1.4880 -3.6582
   47MOL0     H 6286   3.584   5.528   6.347 -0.2363  0.6338 -1.7781
   47MOL0     H 6287   3.545   5.350   6.363 -0.4954  1.4684  1.4693
   47MOL0     H 6288   3.787   5.318   6.370 -1.8932 -1.6995  0.1744
   47MOL0     H 6289   3.808   5.490   6.406  0.4278 -2.2677  0.6233
   47MOL0     H 6290   3.785   5.396   6.622  0.8448 -0.3863 -0.8166
   47MOL0     H 6291   3.623   5.448   6.592  0.0088 -1.5733  0.8299
   47MOL0     H 6292   3.731   5.158   6.519  0.4269  0.6265 -1.4642
   47MOL0     H 6293   3.563   5.211   6.524  0.9223  1.1042 -1.0909
   47MOL0     H 6294   3.751   5.178   6.779 -1.3867  1.7690  1.2790
   47MOL0     H 6295   3.609   5.268   6.765  0.6909 -1.2604  2.6877
   47MOL0     H 6296   3.714   4.938   6.591 -0.2510 -0.9211 -0.1477
   47MOL0     H 6297   3.533   4.637   6.786  0.5710  1.6399  1.2826
   47MOL0     H 6298   3.534   4.681   6.610 -2.0697 -0.0076  0.3504
   47MOL0     H 6299   3.712   4.539   6.669 -0.1455  0.0213  1.9717
   47MOL0     H 6300   3.760   4.698   6.592 -0.2459  0.4815  1.2541
   47MOL0     H 6301   3.784   4.625   6.882 -3.3432 -0.1540 -1.4975
   47MOL0     H 6302   3.808   4.786   6.821 -0.5051 -1.0775  0.3180
   47MOL0     H 6303   4.026   4.659   6.847  1.5292 -1.6087 -1.8986
   47MOL0     H 6304   3.994   4.709   6.690 -1.2551  2.2386  0.9997
   47MOL0     H 6305   4.217   4.636   6.712  0.1452  0.2621  1.0776
   47MOL0     H 6306   4.428   4.531   6.669  0.7550  0.3587  0.8238
   47MOL0     H 6307   4.753   4.212   6.687  0.7056 -2.0805  0.8626
   47MOL0     H 6308   4.955   4.084   6.603  3.0535  0.4067 -2.5680
   47MOL0     H 6309   5.140   4.007   6.535  1.6457 -2.3336 -0.6091
   47MOL0     H 6310   5.022   3.883   6.487  0.7434 -2.1154 -0.1748
   47MOL0     H 6311   5.159   3.857   6.279  1.8138 -0.2322  0.4659
   47MOL0     H 6312   5.270   3.987   6.323  0.2356 -0.6693 -0.5671
   47MOL0     H 6313   5.348   3.853   6.515  0.3406  0.2940  0.3405
   47MOL0     H 6314   5.241   3.723   6.467  0.0510 -0.8522 -1.8583
   47MOL0     H 6315   5.450   3.809   6.292  1.3777  0.5116  2.4894
   47MOL0     H 6316   5.332   3.668   6.264  0.0891  1.0619 -1.4004
   47MOL0     H 6317   5.425   3.559   6.448 -0.1287  1.1393  3.5321
   47MOL0     H 6318   5.513   3.696   6.508  2.3208  1.5085 -1.2134
   47MOL0     H 6319   5.569   3.590   6.229 -0.7744  0.8733  0.8503
   47MOL0     H 6320   5.676   3.700   6.337  0.1488  0.6403 -0.2241
   47MOL0     H 6321   5.716   3.428   6.285  4.4346  1.6701  0.1109
   47MOL0     H 6322   5.625   3.425   6.432 -1.1472 -1.5314 -2.3419
   47MOL0     H 6323   5.890   3.434   6.448 -0.8010 -0.2912 -0.6948
   47MOL0     H 6324   5.886   3.572   6.348  3.1665  0.0998  1.6926
   47MOL0     H 6325   4.885   4.214   6.211 -1.2081  0.1061 -0.7449
   47MOL0     H 6326   4.656   4.309   6.286  1.2447  1.0873 -0.8246
   47MOL0     H 6327   4.236   4.148   6.647 -2.4323  0.7518  3.7836
   47MOL0     H 6328   4.015   4.259   6.683 -1.2661  2.2442 -2.2301
   47MOL0     H 6329   3.660   5.865   5.942  0.1363 -1.5289  0.2441
   47MOL0     H 6330   3.523   6.063   5.897 -1.0096  0.9264  0.8539
   47MOL0     H 6331   3.037   6.142   5.897 -0.0069 -3.4693 -1.3712
   47MOL0     H 6332   2.877   6.322   5.889  0.8637  2.3783  0.7711
   47MOL0     H 6333   2.709   6.471   5.519 -0.7190  1.7676 -1.1333
   47MOL0     H 6334   2.842   6.580   5.526  0.5924 -1.7772  0.3633
   47MOL0     H 6335   2.662   6.738   5.542  1.1212 -0.0061 -0.6339
   47MOL0     H 6336   2.706   6.713   5.711 -3.4215  1.3515  0.8131
   47MOL0     H 6337   2.479   6.702   5.726 -1.0747 -1.4557  0.3937
   47MOL0     H 6338   2.527   6.530   5.691  1.3382  0.1211  1.1199
   47MOL0     H 6339   2.470   6.590   5.457 -1.8266  0.0695 -0.7728
   47MOL0     H 6340   2.334   6.588   5.578  1.1054 -0.4853 -0.2777
   47MOL0     H 6341   2.328   6.994   5.448  1.0805  0.1062 -4.1553
   47MOL0     H 6342   2.944   6.390   5.477  1.8266  0.1614 -0.2932
   47MOL0     H 6343   3.064   6.256   5.350 -0.0002 -1.5238 -0.1483
   47MOL0     H 6344   3.224   6.241   5.438  1.1452 -0.7667  2.1222
   47MOL0     H 6345   3.103   6.103   5.409 -1.0397  0.5397 -0.0281
   48MOL0     O 6346   6.180   3.083   8.546  0.0313  0.7532  0.1261
   48MOL0     C 6347   6.206   3.196   8.587 -0.0504 -0.4432  0.5009
   48MOL0     O 6348   6.322   3.263   8.561  0.4066 -1.0663 -0.4373
   48MOL0     C 6349   6.436   3.193   8.530  0.3448 -0.2259  0.3709
   48MOL0     C 6350   6.459   3.060   8.576 -1.0470  0.0043 -0.0282
   48MOL0     C 6351   6.577   2.994   8.538  0.9085  0.1973 -0.4407
   48MOL0     C 6352   6.675   3.054   8.460  0.2213 -0.0859  0.3101
   48MOL0     O 6353   6.791   2.994   8.414 -0.3111 -0.3962  0.2463
   48MOL0     C 6354   6.799   2.854   8.407 -0.4960  0.4775  0.6562
   48MOL0     C 6355   6.910   2.819   8.309 -0.1764 -0.2741 -0.4969
   48MOL0     C 6356   7.051   2.852   8.355 -0.7600  0.4861 -0.2339
   48MOL0     C 6357   7.153   2.790   8.269 -0.3188  0.8569 -0.1004
   48MOL0     C 6358   7.301   2.834   8.299 -0.5324 -0.1069  0.7522
   48MOL0     C 6359   7.403   2.753   8.214 -0.3214 -0.4617 -0.1600
   48MOL0     C 6360   7.543   2.803   8.243 -0.0578  0.1263  0.9152
   48MOL0     C 6361   7.603   2.704   8.340  0.2071  0.6163 -0.2534
   48MOL0     N 6362   7.741   2.739   8.374  0.1879 -0.4135 -0.1309
   48MOL0     C 6363   7.756   2.781   8.499 -0.3418  0.1280 -0.5930
   48MOL0     C 6364   7.876   2.844   8.491  0.8026  0.2662  0.4313
   48MOL0     C 6365   7.948   2.909   8.609 -0.4977  0.0718  0.2657
   48MOL0     C 6366   7.949   3.061   8.584 -0.0156  0.0290 -0.3426
   48MOL0     C 6367   8.023   3.129   8.699  0.6006  0.4267  0.0958
   48MOL0     C 6368   8.016   3.287   8.677  0.1193 -0.3068 -0.1000
   48MOL0     O 6369   8.081   3.341   8.563  0.5592  0.0105 -0.9776
   48MOL0     C 6370   8.206   3.395   8.580 -0.5526 -0.3568 -0.1175
   48MOL0     C 6371   8.265   3.459   8.463 -0.4587  0.8059  0.1066
   48MOL0     C 6372   8.389   3.517   8.475  0.2779 -1.0054 -0.0286
   48MOL0     C 6373   8.465   3.523   8.593  0.0811 -0.0901 -0.3392
   48MOL0     C 6374   8.591   3.608   8.592  1.5177  0.0978  0.4446
   48MOL0     O 6375   8.681   3.597   8.700 -0.2683 -0.7160  0.0955
   48MOL0     C 6376   8.775   3.697   8.714 -0.8529 -0.4263  1.1409
   48MOL0     C 6377   8.906   3.667   8.768  0.1510 -0.5453  0.2893
   48MOL0     C 6378   8.993   3.770   8.804  0.2565  0.6222  0.2593
   48MOL0     C 6379   8.959   3.905   8.786 -0.7775 -0.2112 -0.2561
   48MOL0     O 6380   9.056   3.998   8.807  0.5245 -0.3920 -0.7337
   48MOL0     C 6381   9.197   3.963   8.833 -1.3941  0.3074 -0.0528
   48MOL0     C 6382   9.280   4.094   8.841  0.7839  0.3528  1.3191
   48MOL0     C 6383   9.431   4.080   8.832 -0.3733  0.6204  0.2168
   48MOL0     C 6384   9.502   4.189   8.902 -0.9912  0.1860 -0.6284
   48MOL0     C 6385   9.647   4.203   8.864  0.1752  1.0418 -0.7813
   48MOL0     C 6386   9.712   4.315   8.949  0.6386 -0.1335  0.0043
   48MOL0     C 6387   9.860   4.302   8.956 -0.4329 -0.1742 -0.6739
   48MOL0     C 6388   9.921   4.405   9.060 -1.0653 -0.2043  0.0312
   48MOL0    Cl 6389  10.096   4.428   9.019  0.5217 -0.1136 -0.2243
   48MOL0     C 6390   8.833   3.939   8.733 -0.2354  0.0720 -0.4030
   48MOL0     C 6391   8.747   3.835   8.693  0.1360 -0.6876  0.0071
   48MOL0     O 6392   8.597   3.685   8.500 -1.2389 -0.2149  0.2292
   48MOL0     C 6393   8.411   3.468   8.706 -0.4392  0.7549 -0.8282
   48MOL0     C 6394   8.285   3.403   8.701  0.1021 -0.3004  0.5710
   48MOL0     N 6395   7.918   2.856   8.364 -0.4421 -0.0249 -0.3955
   48MOL0     N 6396   7.835   2.791   8.294  0.2748 -0.0768  0.5639
   48MOL0     C 6397   6.654   3.185   8.412  0.3094  0.2345  0.1744
   48MOL0     C 6398   6.527   3.251   8.443 -0.7011 -0.3204 -0.0764
   48MOL0     C 6399   6.086   3.280   8.614  0.9937 -1.2608  0.1709
   48MOL0     C 6400   6.111   3.411   8.653 -0.2290  0.2432  0.1346
   48MOL0     C 6401   6.012   3.494   8.700  0.2495 -0.4450 -0.5321
   48MOL0     C 6402   5.874   3.461   8.688 -0.2851 -0.2427  0.0482
   48MOL0     O 6403   5.781   3.549   8.740 -0.7254  0.6055  0.3988
   48MOL0     C 6404   5.669   3.575   8.659  0.7440 -0.6956  0.2695
   48MOL0     C 6405   5.580   3.683   8.735 -0.3289 -0.1240 -1.0674
   48MOL0     C 6406   5.463   3.727   8.648 -0.3844  0.1961 -0.0743
   48MOL0     C 6407   5.344   3.783   8.717  0.4212  0.0568  0.9057
   48MOL0     C 6408   5.235   3.823   8.628  0.3868  0.7053  0.5388
   48MOL0     C 6409   5.140   3.856   8.558  0.0991  1.0257 -1.0509
   48MOL0     C 6410   5.842   3.332   8.633  0.0031 -0.0272 -0.4453
   48MOL0     C 6411   5.946   3.248   8.599 -0.0291 -0.5944  0.0842
   48MOL0     C 6412   5.905   3.112   8.549  1.3794 -0.3811 -0.6728
   48MOL0     H 6413   6.402   3.020   8.659  1.0659 -0.3362  1.3106
   48MOL0     H 6414   6.581   2.891   8.574 -2.0284 -0.5709 -2.0246
   48MOL0     H 6415   6.827   2.807   8.502  1.3598 -4.7961 -2.0874
   48MOL0     H 6416   6.704   2.823   8.361  1.0373 -2.5666 -0.7778
   48MOL0     H 6417   6.890   2.858   8.209 -2.8619 -2.0581 -0.7680
   48MOL0     H 6418   6.911   2.710   8.293  0.3024 -0.9848  3.3273
   48MOL0     H 6419   7.066   2.831   8.461 -1.1716  1.1271 -0.0417
   48MOL0     H 6420   7.065   2.959   8.339  1.5498  0.1839 -0.6081
   48MOL0     H 6421   7.155   2.681   8.280  4.4949  0.9328  2.1994
   48MOL0     H 6422   7.144   2.812   8.162  2.5268  1.3020 -0.3214
   48MOL0     H 6423   7.292   2.939   8.269  0.8793 -1.0527 -3.9071
   48MOL0     H 6424   7.324   2.801   8.400  0.1326 -3.6505 -0.4135
   48MOL0     H 6425   7.393   2.645   8.228 -0.7639 -0.3735  0.2508
   48MOL0     H 6426   7.383   2.775   8.108 -0.4154  2.6627  0.3940
   48MOL0     H 6427   7.549   2.907   8.275 -1.7115  0.1021  1.4210
   48MOL0     H 6428   7.597   2.801   8.148 -0.9253 -1.4742  0.4134
   48MOL0     H 6429   7.546   2.698   8.433  2.4157 -0.8406  1.0995
   48MOL0     H 6430   7.593   2.605   8.293 -2.1381  0.8443 -0.3530
   48MOL0     H 6431   7.711   2.748   8.592  0.5214  0.2955 -0.1004
   48MOL0     H 6432   7.905   2.889   8.707 -0.2298 -0.7151  0.2274
   48MOL0     H 6433   8.047   2.863   8.610 -1.1678 -1.4213  0.2818
   48MOL0     H 6434   8.000   3.087   8.491  0.1313  1.1602  0.0290
   48MOL0     H 6435   7.849   3.106   8.580  0.3905  0.8583 -2.0654
   48MOL0     H 6436   8.130   3.105   8.702  0.1284 -2.0108 -0.5981
   48MOL0     H 6437   7.978   3.095   8.793  1.0647  0.7037  0.4227
   48MOL0     H 6438   8.043   3.332   8.773 -0.0591 -2.3554  0.9585
   48MOL0     H 6439   7.916   3.323   8.654  0.7498  0.9676 -0.9736
   48MOL0     H 6440   8.201   3.488   8.381 -0.3512 -2.0698 -1.0909
   48MOL0     H 6441   8.406   3.572   8.383 -1.7420  1.1084  0.7431
   48MOL0     H 6442   8.939   3.564   8.777 -0.6130 -0.9513 -1.1931
   48MOL0     H 6443   9.090   3.744   8.844  0.2149  1.2688  0.7880
   48MOL0     H 6444   9.209   3.916   8.931 -1.3885  1.3635  0.4770
   48MOL0     H 6445   9.229   3.900   8.750 -1.3705  0.5414 -0.2214
   48MOL0     H 6446   9.248   4.165   8.764 -0.7097  2.0760  3.4048
   48MOL0     H 6447   9.254   4.143   8.935 -1.1373  2.6414 -0.2695
   48MOL0     H 6448   9.462   3.986   8.879  2.9954  2.5386  2.2267
   48MOL0     H 6449   9.460   4.080   8.726 -0.0866  1.0427  0.2960
   48MOL0     H 6450   9.483   4.176   9.009 -2.8001  1.2428 -0.7749
   48MOL0     H 6451   9.460   4.288   8.883 -1.4288  0.6268  2.1765
   48MOL0     H 6452   9.657   4.213   8.756  0.1101  1.1788 -0.7757
   48MOL0     H 6453   9.684   4.102   8.885 -3.4902 -0.2610  0.2615
   48MOL0     H 6454   9.696   4.415   8.907  0.2381 -0.3051 -0.2619
   48MOL0     H 6455   9.688   4.307   9.055  3.1559 -2.1458  0.5239
   48MOL0     H 6456   9.904   4.310   8.856  1.4937 -4.3487 -0.3564
   48MOL0     H 6457   9.890   4.202   8.988  0.0907 -0.1385 -1.0377
   48MOL0     H 6458   9.871   4.501   9.045 -0.1985 -0.1875 -3.9299
   48MOL0     H 6459   9.912   4.369   9.162  0.1039  0.5794  0.4327
   48MOL0     H 6460   8.811   4.044   8.714 -1.2321  0.0098  0.2892
   48MOL0     H 6461   8.648   3.868   8.661  0.0965 -2.3344 -1.7383
   48MOL0     H 6462   8.460   3.466   8.802  2.3920 -3.1688 -2.1032
   48MOL0     H 6463   8.248   3.350   8.788  3.0015 -5.5765 -0.9687
   48MOL0     H 6464   6.733   3.230   8.353  0.0664 -1.1815 -1.2895
   48MOL0     H 6465   6.506   3.345   8.394  0.9451 -0.8208 -1.9153
   48MOL0     H 6466   6.213   3.443   8.671  0.2223 -0.1708 -1.5393
   48MOL0     H 6467   6.050   3.584   8.748  2.1086 -1.3217 -0.2409
   48MOL0     H 6468   5.616   3.481   8.644  1.6566 -0.8617 -2.4626
   48MOL0     H 6469   5.695   3.616   8.561 -1.6543 -1.2858 -0.6824
   48MOL0     H 6470   5.651   3.760   8.766  1.2779 -0.8881 -2.7326
   48MOL0     H 6471   5.541   3.652   8.833  3.2112  0.6989  0.7730
   48MOL0     H 6472   5.433   3.638   8.591 -0.5556  2.3050 -3.5428
   48MOL0     H 6473   5.500   3.800   8.576 -2.8303  0.9310 -0.6867
   48MOL0     H 6474   5.305   3.719   8.797 -1.9565  2.5639  1.9136
   48MOL0     H 6475   5.382   3.881   8.750 -0.4858  1.6885 -2.4381
   48MOL0     H 6476   5.055   3.887   8.502 -0.5775  3.5397  1.1811
   48MOL0     H 6477   5.742   3.289   8.638 -0.5588  1.3402  0.6776
   48MOL0     H 6478   5.941   3.083   8.450  1.7976  1.7494 -1.1909
   48MOL0     H 6479   5.909   3.038   8.629 -0.6944 -2.8185 -2.6643
   48MOL0     H 6480   5.801   3.114   8.513  1.8590  1.7140 -2.1479
   49MOL0     O 6481   1.367  10.340   8.115 -1.0391  0.2679 -0.0366
   49MOL0     C 6482   1.404  10.243   8.183  0.5332 -0.2461  0.3740
   49MOL0     O 6483   1.530  10.221   8.234  0.3055 -0.0339 -0.3368
   49MOL0     C 6484   1.618  10.327   8.221  0.3976  0.7831  0.2482
   49MOL0     C 6485   1.672  10.386   8.109 -0.2400  0.3017 -0.3254
   49MOL0     C 6486   1.752  10.493   8.113  0.2404  0.5439  0.2209
   49MOL0     C 6487   1.771  10.558   8.230 -0.9834 -0.0966  0.6502
   49MOL0     O 6488   1.853  10.676   8.222  0.0048 -0.7281 -0.3991
   49MOL0     C 6489   1.864  10.747   8.348 -0.1555  0.1359 -0.2227
   49MOL0     C 6490   1.937  10.873   8.336 -0.3775  0.2900 -0.7076
   49MOL0     C 6491   1.923  10.949   8.470 -0.4359  0.9051  0.4802
   49MOL0     C 6492   1.945  11.097   8.440 -0.6007 -0.1525  0.5425
   49MOL0     C 6493   1.954  11.176   8.567  1.1025  0.3207  0.4067
   49MOL0     C 6494   2.080  11.146   8.651 -0.1027  0.0107 -0.2882
   49MOL0     C 6495   2.103  11.249   8.756 -0.6131 -0.2821 -0.2783
   49MOL0     C 6496   2.243  11.236   8.820  0.0776  0.7187  0.5984
   49MOL0     N 6497   2.256  11.310   8.948 -0.4651  0.1986  0.2171
   49MOL0     C 6498   2.389  11.328   9.004  0.4475  0.4601 -0.0546
   49MOL0     C 6499   2.368  11.429   9.087  0.7942  0.6150 -0.0046
   49MOL0     C 6500   2.471  11.494   9.166  0.5956 -0.7964  0.1630
   49MOL0     C 6501   2.573  11.406   9.233  1.0105 -1.5194  0.3019
   49MOL0     C 6502   2.649  11.491   9.337  0.5227 -0.0148  0.0476
   49MOL0     C 6503   2.763  11.410   9.391 -0.7031 -0.8453  0.1221
   49MOL0     O 6504   2.873  11.431   9.298 -0.2790  0.5951  0.1527
   49MOL0     C 6505   3.002  11.437   9.332 -0.3671  0.3323  0.1746
   49MOL0     C 6506   3.060  11.384   9.448 -0.1299 -0.4291  0.3488
   49MOL0     C 6507   3.201  11.392   9.464 -0.5268  0.5899  0.0838
   49MOL0     C 6508   3.284  11.464   9.377 -0.8690 -0.4899 -0.0138
   49MOL0     C 6509   3.428  11.480   9.412  0.2756  0.4781  0.9880
   49MOL0     O 6510   3.514  11.470   9.300  0.1617 -1.0217  0.3596
   49MOL0     C 6511   3.650  11.469   9.325  0.0933  0.2786 -0.2511
   49MOL0     C 6512   3.716  11.398   9.427 -0.0865 -0.5496 -0.3367
   49MOL0     C 6513   3.859  11.388   9.427  0.9446  0.0762 -0.2847
   49MOL0     C 6514   3.931  11.440   9.317  0.9668 -0.7301 -0.3708
   49MOL0     O 6515   4.063  11.426   9.320  0.5098  0.4074  0.6232
   49MOL0     C 6516   4.143  11.482   9.213  0.8108  0.6255 -0.2675
   49MOL0     C 6517   4.286  11.442   9.239 -0.4406 -0.0652 -0.9168
   49MOL0     C 6518   4.389  11.529   9.166 -0.6169  0.3733 -0.0886
   49MOL0     C 6519   4.528  11.466   9.168 -0.0132  0.5642 -0.8390
   49MOL0     C 6520   4.626  11.558   9.096 -0.5847 -0.5150  0.6731
   49MOL0     C 6521   4.766  11.549   9.141  0.2676  0.3755 -1.0757
   49MOL0     C 6522   4.832  11.414   9.127  0.5684 -0.5591  0.7944
   49MOL0     C 6523   4.971  11.413   9.166 -1.3402  0.2658 -0.5321
   49MOL0    Cl 6524   4.991  11.461   9.342 -0.2286 -0.3967  0.0692
   49MOL0     C 6525   3.858  11.496   9.214  0.6560  0.0820 -0.4902
   49MOL0     C 6526   3.722  11.518   9.221 -0.3051  0.1934 -0.6100
   49MOL0     O 6527   3.457  11.511   9.528  0.0912 -0.2161  0.0740
   49MOL0     C 6528   3.228  11.521   9.260 -0.5048 -0.0335 -0.3091
   49MOL0     C 6529   3.090  11.497   9.236 -0.3814  0.7804 -0.2709
   49MOL0     N 6530   2.237  11.466   9.076 -0.3873  0.4651 -0.5271
   49MOL0     N 6531   2.167  11.399   8.999  0.1091 -0.2502  0.9597
   49MOL0     C 6532   1.733  10.496   8.348 -0.0859 -0.0445 -0.6881
   49MOL0     C 6533   1.651  10.378   8.349  0.3128 -0.0489 -0.2000
   49MOL0     C 6534   1.312  10.128   8.183 -0.1874  0.7037  0.7161
   49MOL0     C 6535   1.371  10.004   8.176  0.0788  0.3108  0.8667
   49MOL0     C 6536   1.296   9.892   8.154 -0.1580 -0.5057  0.0512
   49MOL0     C 6537   1.158   9.899   8.122  0.3853 -1.0248 -0.2036
   49MOL0     O 6538   1.072   9.795   8.099 -0.0663 -0.3426 -0.2873
   49MOL0     C 6539   1.132   9.670   8.104 -1.1210 -0.3126 -0.4020
   49MOL0     C 6540   1.041   9.560   8.043 -0.2958 -0.0905 -0.1650
   49MOL0     C 6541   0.985   9.598   7.909  0.5149 -0.8545  0.6771
   49MOL0     C 6542   0.836   9.644   7.915  0.8045  0.5103  0.0297
   49MOL0     C 6543   0.815   9.788   7.955  0.1322  0.3462  0.1331
   49MOL0     C 6544   0.788   9.901   7.990 -0.8341  0.2057  0.1260
   49MOL0     C 6545   1.100  10.028   8.134 -0.2225 -0.5353 -0.4515
   49MOL0     C 6546   1.177  10.141   8.175 -0.1354  0.2335 -0.2751
   49MOL0     C 6547   1.102  10.276   8.171  0.0548  0.2231 -0.0522
   49MOL0     H 6548   1.651  10.350   8.009  0.0619  0.3917 -0.4249
   49MOL0     H 6549   1.796  10.538   8.024  0.7957 -0.6476 -0.1310
   49MOL0     H 6550   1.770  10.775   8.396  0.7844  2.5134  0.4063
   49MOL0     H 6551   1.914  10.668   8.404 -1.6103 -0.0801  0.8354
   49MOL0     H 6552   1.901  10.924   8.246 -2.4960 -0.9996 -0.6616
   49MOL0     H 6553   2.042  10.860   8.308 -0.2027 -0.2325  0.1693
   49MOL0     H 6554   1.989  10.910   8.549  0.9415  1.4459 -0.3753
   49MOL0     H 6555   1.819  10.944   8.504 -0.7347  2.9071 -0.0262
   49MOL0     H 6556   2.044  11.120   8.399 -0.6388 -0.2925  0.3710
   49MOL0     H 6557   1.862  11.130   8.377 -0.4173  1.7363  1.2225
   49MOL0     H 6558   1.944  11.280   8.537 -5.4971 -0.9691 -3.9166
   49MOL0     H 6559   1.864  11.160   8.626  0.5363  0.4965 -0.3990
   49MOL0     H 6560   2.070  11.044   8.689 -1.0605  0.7215  1.4384
   49MOL0     H 6561   2.161  11.134   8.578  0.1685 -0.8085  0.1375
   49MOL0     H 6562   2.025  11.235   8.832 -0.7972 -0.6343 -0.5266
   49MOL0     H 6563   2.100  11.346   8.705  2.6032 -0.4271 -0.9168
   49MOL0     H 6564   2.269  11.134   8.851  1.7020  1.0807  0.5083
   49MOL0     H 6565   2.317  11.278   8.752  0.2862 -1.4212 -0.5730
   49MOL0     H 6566   2.477  11.266   8.987  0.6559  0.8253 -0.3309
   49MOL0     H 6567   2.515  11.572   9.103 -0.7443  1.2866  1.7105
   49MOL0     H 6568   2.414  11.545   9.243  2.7692  4.8310 -1.4599
   49MOL0     H 6569   2.518  11.325   9.282  2.5118 -1.3597  2.4087
   49MOL0     H 6570   2.639  11.377   9.150  1.9974 -0.7377  0.7787
   49MOL0     H 6571   2.591  11.528   9.422  0.9395 -0.1728  0.4053
   49MOL0     H 6572   2.686  11.580   9.285  0.0361 -1.2712 -2.6014
   49MOL0     H 6573   2.741  11.304   9.398  0.4360 -0.9959  1.9356
   49MOL0     H 6574   2.794  11.446   9.490 -1.4483 -0.8471  0.3606
   49MOL0     H 6575   2.990  11.346   9.521 -0.5016  0.8651  0.6952
   49MOL0     H 6576   3.247  11.353   9.554 -0.3468  0.0734 -0.2280
   49MOL0     H 6577   3.657  11.361   9.511 -1.1114 -1.3994 -1.3910
   49MOL0     H 6578   3.891  11.347   9.522  0.9641  0.4235 -0.1382
   49MOL0     H 6579   4.114  11.441   9.116 -4.5677  0.1966  1.2205
   49MOL0     H 6580   4.130  11.590   9.204 -1.0579  0.4803  0.2963
   49MOL0     H 6581   4.310  11.468   9.343 -0.1423 -2.7308 -0.2377
   49MOL0     H 6582   4.302  11.334   9.226  2.2276  0.0099  0.7612
   49MOL0     H 6583   4.353  11.539   9.063  1.2604 -0.0623 -0.8270
   49MOL0     H 6584   4.393  11.629   9.209  0.3473 -0.2916  1.4498
   49MOL0     H 6585   4.530  11.365   9.126 -2.1801 -0.1722  0.6258
   49MOL0     H 6586   4.554  11.455   9.274 -2.0234  3.7273  0.1135
   49MOL0     H 6587   4.588  11.660   9.104  1.6287  0.2606  2.2305
   49MOL0     H 6588   4.623  11.534   8.990 -1.7768 -1.7150  0.9444
   49MOL0     H 6589   4.829  11.617   9.083  2.2470  0.2557  0.7743
   49MOL0     H 6590   4.772  11.590   9.243  1.1235  0.5968 -1.2020
   49MOL0     H 6591   4.822  11.388   9.021 -0.2865 -0.5211  0.8585
   49MOL0     H 6592   4.773  11.344   9.187  1.1255  0.1951  2.2685
   49MOL0     H 6593   5.011  11.312   9.160 -4.3349 -0.9203 -2.3996
   49MOL0     H 6594   5.019  11.485   9.099  0.0723 -3.3054 -3.6845
   49MOL0     H 6595   3.916  11.554   9.142  1.8996  0.7728  1.0141
   49MOL0     H 6596   3.661  11.568   9.146 -0.1357 -0.2324 -1.0416
   49MOL0     H 6597   3.289  11.577   9.189 -1.3697  0.5976 -0.5793
   49MOL0     H 6598   3.051  11.539   9.144  2.4082 -0.7096 -2.2812
   49MOL0     H 6599   1.762  10.536   8.445  2.3854 -0.6306 -1.1171
   49MOL0     H 6600   1.608  10.341   8.441 -0.8744  1.3891 -0.1365
   49MOL0     H 6601   1.479  10.005   8.177  0.0953  2.1233  2.5721
   49MOL0     H 6602   1.356   9.801   8.155 -1.7386 -1.5906  1.5156
   49MOL0     H 6603   1.148   9.643   8.209 -2.2600 -0.0536 -0.1447
   49MOL0     H 6604   1.229   9.665   8.054 -0.3310 -1.5154  1.1788
   49MOL0     H 6605   0.982   9.524   8.127 -0.1283 -2.2441 -0.9085
   49MOL0     H 6606   1.096   9.468   8.019 -1.3595 -0.4251 -1.4921
   49MOL0     H 6607   0.988   9.506   7.851  1.1319 -1.6916  2.0084
   49MOL0     H 6608   1.032   9.677   7.851 -0.5475  0.0814  1.0357
   49MOL0     H 6609   0.808   9.628   7.811  0.0338  1.5849  0.0511
   49MOL0     H 6610   0.771   9.579   7.974  0.6115 -1.1789 -1.9557
   49MOL0     H 6611   0.753  10.000   8.009 -0.0516  0.8088 -1.4081
   49MOL0     H 6612   0.996  10.048   8.110  0.5064  0.5843 -3.0304
   49MOL0     H 6613   1.107  10.335   8.079  1.0682 -1.4131 -1.1094
   49MOL0     H 6614   0.995  10.266   8.192 -0.1063 -0.2366 -1.0442
   49MOL0     H 6615   1.135  10.348   8.246 -2.2358 -0.3356  1.6136
   50MOL0     O 6616   2.181   4.487  10.726 -0.2619  0.1176 -0.3702
   50MOL0     C 6617   2.105   4.424  10.645 -0.3439 -0.3499 -0.1417
   50MOL0     O 6618   2.130   4.305  10.592 -0.2282 -0.7034 -0.1670
   50MOL0     C 6619   2.245   4.234  10.626  0.4093  0.1355 -0.4455
   50MOL0     C 6620   2.236   4.119  10.698  0.1648  0.0841  0.1216
   50MOL0     C 6621   2.340   4.036  10.729  0.2072  0.2320 -0.3021
   50MOL0     C 6622   2.469   4.063  10.680 -0.2180  0.4787  0.0108
   50MOL0     O 6623   2.573   3.985  10.707 -0.1684 -0.6706  0.4286
   50MOL0     C 6624   2.559   3.847  10.753 -0.2570 -1.1716 -0.4013
   50MOL0     C 6625   2.695   3.793  10.773 -1.2606 -0.5280 -0.0774
   50MOL0     C 6626   2.769   3.725  10.653  0.9538 -0.2906 -0.2984
   50MOL0     C 6627   2.907   3.681  10.685 -0.9653  0.7299  1.0483
   50MOL0     C 6628   2.970   3.634  10.557 -0.0177 -0.0420 -0.0594
   50MOL0     C 6629   3.123   3.592  10.582 -0.0049 -0.2008 -0.9627
   50MOL0     C 6630   3.206   3.574  10.453  0.6271  0.6473 -0.5188
   50MOL0     C 6631   3.336   3.498  10.468 -0.2259  0.7318  0.7287
   50MOL0     N 6632   3.438   3.565  10.545  0.7020 -0.0294 -1.0119
   50MOL0     C 6633   3.427   3.582  10.683 -0.5667  0.2821  0.3784
   50MOL0     C 6634   3.546   3.641  10.717  0.8137  0.1075  0.3195
   50MOL0     C 6635   3.580   3.690  10.854 -0.3530  0.1232 -0.1345
   50MOL0     C 6636   3.497   3.817  10.885 -0.1952  0.4106 -0.2983
   50MOL0     C 6637   3.487   3.853  11.038 -0.4760  0.0490  0.3358
   50MOL0     C 6638   3.412   3.748  11.117  0.3722  0.3759 -0.0509
   50MOL0     O 6639   3.307   3.682  11.047  0.3985  0.8558 -0.2728
   50MOL0     C 6640   3.180   3.718  11.081  0.9091  0.3566 -0.0783
   50MOL0     C 6641   3.115   3.658  11.191 -0.1796  0.1758 -0.3257
   50MOL0     C 6642   2.986   3.679  11.221  0.3047  0.2968 -0.4594
   50MOL0     C 6643   2.911   3.778  11.148  0.0778 -0.6404  0.0628
   50MOL0     C 6644   2.765   3.810  11.174 -0.0611 -0.3905 -0.2834
   50MOL0     O 6645   2.707   3.724  11.254 -0.3043  0.0850 -0.2754
   50MOL0     C 6646   2.584   3.757  11.308  0.7711  0.3208 -0.8575
   50MOL0     C 6647   2.581   3.730  11.446  0.5169  0.3047 -0.7669
   50MOL0     C 6648   2.460   3.741  11.517 -0.0668  0.1839 -0.3470
   50MOL0     C 6649   2.342   3.783  11.447 -0.8826  0.1679  0.4696
   50MOL0     O 6650   2.219   3.778  11.505 -0.0183  0.2907  0.4001
   50MOL0     C 6651   2.094   3.818  11.440 -0.6110 -0.0710  0.4300
   50MOL0     C 6652   1.983   3.770  11.528 -0.7712 -0.3855  0.1814
   50MOL0     C 6653   1.841   3.811  11.488  0.3122 -0.0258  0.2117
   50MOL0     C 6654   1.815   3.960  11.421  0.6979  0.6062  0.2084
   50MOL0     C 6655   1.667   3.981  11.365  0.4159 -0.8227 -0.1232
   50MOL0     C 6656   1.620   3.870  11.261  0.1276 -1.0310  1.3204
   50MOL0     C 6657   1.472   3.880  11.215 -0.7624  0.7448 -0.1949
   50MOL0     C 6658   1.462   3.830  11.072  0.3082 -0.1150 -0.6573
   50MOL0    Cl 6659   1.506   3.659  11.055  0.0322 -0.3965 -0.0641
   50MOL0     C 6660   2.351   3.824  11.308 -0.0942  0.1420  0.1010
   50MOL0     C 6661   2.470   3.802  11.241 -0.5982  0.3895  0.1693
   50MOL0     O 6662   2.718   3.920  11.140 -0.0660 -0.4071 -0.1820
   50MOL0     C 6663   2.978   3.838  11.039  0.3514  0.5088  0.6381
   50MOL0     C 6664   3.104   3.807  11.005 -0.2105  0.5128  0.3673
   50MOL0     N 6665   3.634   3.641  10.603 -0.0308  0.3142 -1.1076
   50MOL0     N 6666   3.561   3.608  10.505 -0.1174 -0.7319 -0.0279
   50MOL0     C 6667   2.487   4.175  10.602  0.1804  0.7924  0.0168
   50MOL0     C 6668   2.375   4.262  10.580 -0.7722 -0.5649  0.6181
   50MOL0     C 6669   1.981   4.484  10.611  0.6682 -0.4163  0.1836
   50MOL0     C 6670   1.931   4.581  10.695 -0.2368 -0.1444  0.4063
   50MOL0     C 6671   1.804   4.641  10.682 -0.3999  0.1739 -0.2186
   50MOL0     C 6672   1.734   4.626  10.563 -0.2150  0.1693 -0.0118
   50MOL0     O 6673   1.625   4.710  10.538 -0.1067 -0.0187 -0.3615
   50MOL0     C 6674   1.537   4.672  10.430  0.0490 -0.1384  0.2767
   50MOL0     C 6675   1.421   4.764  10.442 -0.2543  0.2540 -0.4675
   50MOL0     C 6676   1.308   4.758  10.339 -0.4806  0.1758  0.6124
   50MOL0     C 6677   1.232   4.617  10.320 -0.0660 -0.3391 -0.6219
   50MOL0     C 6678   1.302   4.519  10.235 -0.0067 -0.4251 -0.8463
   50MOL0     C 6679   1.353   4.426  10.175  0.0053 -0.2299 -0.1108
   50MOL0     C 6680   1.795   4.537  10.463 -0.0593 -1.7603 -0.7916
   50MOL0     C 6681   1.914   4.472  10.489  1.2163  1.2379  0.3492
   50MOL0     C 6682   1.957   4.373  10.382  0.1208 -0.6621 -0.1770
   50MOL0     H 6683   2.141   4.092  10.743  1.0252 -0.3470  1.7641
   50MOL0     H 6684   2.305   3.953  10.788 -2.9401  1.2903 -0.4614
   50MOL0     H 6685   2.526   3.845  10.858  0.5324 -2.0597 -0.1601
   50MOL0     H 6686   2.492   3.791  10.686  0.2656 -2.3144 -0.0067
   50MOL0     H 6687   2.692   3.713  10.848 -1.0218 -1.5162 -1.0945
   50MOL0     H 6688   2.766   3.869  10.807 -0.8844 -1.5665  1.5770
   50MOL0     H 6689   2.761   3.801  10.575  0.4718  0.7130  0.6946
   50MOL0     H 6690   2.719   3.634  10.620  0.8612 -0.6731  0.8622
   50MOL0     H 6691   2.968   3.764  10.722  2.1286 -1.4844  1.2345
   50MOL0     H 6692   2.906   3.609  10.767 -3.3574  1.5326  1.7995
   50MOL0     H 6693   2.916   3.543  10.529 -1.2919  1.0164 -1.1531
   50MOL0     H 6694   2.971   3.709  10.478 -1.6711  1.4155  1.2139
   50MOL0     H 6695   3.170   3.665  10.647 -2.4909  0.1924  0.5454
   50MOL0     H 6696   3.131   3.500  10.640 -1.7025  1.0678  1.4696
   50MOL0     H 6697   3.236   3.668  10.407  1.9685  0.4622 -0.0649
   50MOL0     H 6698   3.141   3.511  10.391  1.1071  0.8351 -1.2145
   50MOL0     H 6699   3.312   3.399  10.507  0.3086  0.7449  1.0922
   50MOL0     H 6700   3.356   3.494  10.360 -0.8936 -1.4076  0.6304
   50MOL0     H 6701   3.347   3.556  10.752 -2.0189  0.2128 -1.2727
   50MOL0     H 6702   3.561   3.605  10.919  0.6699 -1.8403 -2.2866
   50MOL0     H 6703   3.685   3.713  10.874 -0.4116 -0.9328  1.5583
   50MOL0     H 6704   3.553   3.892  10.829  1.5762 -1.7337 -1.5677
   50MOL0     H 6705   3.396   3.806  10.845 -0.2632  0.8318 -0.2484
   50MOL0     H 6706   3.431   3.947  11.041  1.3378  1.1734  0.8702
   50MOL0     H 6707   3.579   3.874  11.093  0.1850 -0.4206 -0.5543
   50MOL0     H 6708   3.373   3.802  11.205 -0.6194  0.6298 -0.6310
   50MOL0     H 6709   3.480   3.672  11.158 -2.9316 -1.5878  2.2610
   50MOL0     H 6710   3.171   3.588  11.252 -0.8398 -1.0938 -1.1207
   50MOL0     H 6711   2.939   3.635  11.308 -0.1672 -0.5912 -1.1382
   50MOL0     H 6712   2.663   3.686  11.502 -2.4439 -1.6052  2.4471
   50MOL0     H 6713   2.445   3.717  11.621 -0.9678  1.0673 -0.2556
   50MOL0     H 6714   2.097   3.928  11.442  2.0429 -0.0515 -0.5075
   50MOL0     H 6715   2.086   3.769  11.342  1.0366 -2.2635  1.3079
   50MOL0     H 6716   1.985   3.661  11.526 -0.5423 -0.3722 -0.2867
   50MOL0     H 6717   2.007   3.816  11.624  1.2308  3.5316 -1.9218
   50MOL0     H 6718   1.802   3.738  11.417 -3.9437  1.9453  0.2487
   50MOL0     H 6719   1.784   3.800  11.581 -1.6979  0.7960 -0.8695
   50MOL0     H 6720   1.889   3.966  11.340 -0.2711  0.2094 -0.7356
   50MOL0     H 6721   1.846   4.041  11.487  0.9311  1.7378 -1.2320
   50MOL0     H 6722   1.651   4.079  11.321  0.2598 -1.9110 -2.6445
   50MOL0     H 6723   1.607   3.972  11.456  1.2000  0.2909  0.5269
   50MOL0     H 6724   1.682   3.880  11.171 -4.8162  2.1147 -2.2526
   50MOL0     H 6725   1.638   3.767  11.292 -2.9033 -1.8653  0.5904
   50MOL0     H 6726   1.428   3.979  11.224  0.4994  1.3840 -0.7238
   50MOL0     H 6727   1.408   3.816  11.276  0.4934 -1.7764 -1.3328
   50MOL0     H 6728   1.359   3.836  11.036  0.1006 -0.9928 -0.2207
   50MOL0     H 6729   1.531   3.893  11.014  0.9968 -0.4040 -0.1556
   50MOL0     H 6730   2.264   3.854  11.251 -2.5918 -2.0704  2.5236
   50MOL0     H 6731   2.465   3.813  11.133  0.5484  1.2175  0.1801
   50MOL0     H 6732   2.933   3.926  10.996  2.9639  1.0149 -1.3276
   50MOL0     H 6733   3.157   3.854  10.923  0.2634  1.8331  1.4062
   50MOL0     H 6734   2.579   4.192  10.547  0.7069 -2.4560 -0.2840
   50MOL0     H 6735   2.389   4.357  10.529 -0.4687  0.1768  2.0034
   50MOL0     H 6736   1.990   4.611  10.781 -2.2461 -0.1938  1.8650
   50MOL0     H 6737   1.774   4.713  10.758 -1.2239  0.2641 -0.6196
   50MOL0     H 6738   1.503   4.568  10.432 -0.1434 -0.1238 -1.1964
   50MOL0     H 6739   1.589   4.692  10.337 -0.2192 -0.6479  0.0111
   50MOL0     H 6740   1.460   4.866  10.439 -0.8376  0.8172  3.8681
   50MOL0     H 6741   1.383   4.746  10.544 -0.3352 -0.1732 -0.5718
   50MOL0     H 6742   1.327   4.789  10.236  0.2762 -2.2599 -0.0424
   50MOL0     H 6743   1.229   4.825  10.375 -1.2374 -1.2694  1.7543
   50MOL0     H 6744   1.207   4.577  10.418 -3.0453  0.9621 -0.7309
   50MOL0     H 6745   1.133   4.639  10.278 -0.7295 -0.0100  1.0276
   50MOL0     H 6746   1.390   4.336  10.131  2.1077 -0.1363  1.3350
   50MOL0     H 6747   1.758   4.518  10.362 -3.0511 -1.1569  0.0638
   50MOL0     H 6748   1.940   4.271  10.418  0.6289  0.0228  2.1436
   50MOL0     H 6749   1.907   4.376  10.285 -1.2990 -2.1399  0.4590
   50MOL0     H 6750   2.064   4.393  10.373  0.0113  0.0870  0.1338
   51MOL0     O 6751   2.166   6.392   0.768 -0.7661  0.1797  0.6260
   51MOL0     C 6752   2.157   6.515   0.756  0.0206 -1.1065 -0.6278
   51MOL0     O 6753   2.229   6.603   0.676  0.4606  0.2190  0.5187
   51MOL0     C 6754   2.313   6.568   0.571  0.7743  0.3893 -0.1276
   51MOL0     C 6755   2.394   6.447   0.568  0.1993 -1.2909 -0.7237
   51MOL0     C 6756   2.501   6.435   0.478 -0.2511  0.1115  0.2277
   51MOL0     C 6757   2.514   6.535   0.382 -1.2409  0.3599 -0.2775
   51MOL0     O 6758   2.620   6.505   0.293  0.1657 -0.3216 -0.0209
   51MOL0     C 6759   2.623   6.588   0.172 -0.2179  1.0446  0.3826
   51MOL0     C 6760   2.734   6.533   0.080 -0.3468 -0.1677  0.2397
   51MOL0     C 6761   2.683   6.407   0.017 -0.8286  0.2003  0.0446
   51MOL0     C 6762   2.792   6.309  -0.039  0.1241  0.1187  0.2314
   51MOL0     C 6763   2.725   6.213  -0.140 -0.0421 -0.3192  0.0488
   51MOL0     C 6764   2.805   6.080  -0.163  0.0769  0.9451 -0.9706
   51MOL0     C 6765   2.721   5.974  -0.240  0.0866 -1.8615  0.0315
   51MOL0     C 6766   2.671   6.012  -0.375  0.1150  0.4304  0.4313
   51MOL0     N 6767   2.781   6.038  -0.472 -0.3028  0.5631  0.4893
   51MOL0     C 6768   2.899   5.978  -0.473  0.0840 -0.5705 -0.1192
   51MOL0     C 6769   2.964   6.041  -0.574 -0.0009 -0.6148 -0.4426
   51MOL0     C 6770   3.105   6.005  -0.626  0.2493  0.0881 -0.3050
   51MOL0     C 6771   3.193   6.123  -0.642 -0.1438  0.0181  0.5243
   51MOL0     C 6772   3.261   6.168  -0.507 -0.9365 -0.7053 -0.3758
   51MOL0     C 6773   3.318   6.311  -0.517 -0.2533  0.1138  0.5977
   51MOL0     O 6774   3.395   6.341  -0.397  0.2753 -0.4634  0.6748
   51MOL0     C 6775   3.465   6.461  -0.400 -0.0852  0.3551  0.2171
   51MOL0     C 6776   3.523   6.506  -0.283 -0.4797  0.3999 -0.3980
   51MOL0     C 6777   3.608   6.619  -0.276  0.1703  0.4927 -0.3053
   51MOL0     C 6778   3.644   6.686  -0.391 -0.1789 -0.4572  0.6701
   51MOL0     C 6779   3.749   6.783  -0.389  0.4636  0.8827 -0.2912
   51MOL0     O 6780   3.832   6.782  -0.283  0.6975 -0.3746 -0.5200
   51MOL0     C 6781   3.947   6.856  -0.305 -0.0864  0.6606  0.6707
   51MOL0     C 6782   4.060   6.788  -0.353  0.0084 -0.8706  0.9211
   51MOL0     C 6783   4.173   6.864  -0.381 -0.5021 -0.4647 -0.3785
   51MOL0     C 6784   4.175   7.003  -0.374  0.0137 -0.5226  0.0976
   51MOL0     O 6785   4.294   7.065  -0.420 -0.2197 -0.1985  0.4321
   51MOL0     C 6786   4.271   7.145  -0.539  0.3147 -0.3173 -0.1644
   51MOL0     C 6787   4.400   7.202  -0.577  0.2251 -0.0087  0.0166
   51MOL0     C 6788   4.504   7.102  -0.638 -0.5155  0.2625  0.1699
   51MOL0     C 6789   4.499   7.081  -0.786  0.5516 -0.3685 -0.0687
   51MOL0     C 6790   4.570   6.949  -0.823 -1.0926  0.4157 -0.4193
   51MOL0     C 6791   4.586   6.943  -0.968 -0.2507  0.4781  0.6994
   51MOL0     C 6792   4.661   6.820  -1.013 -0.7747  1.0351  0.1207
   51MOL0     C 6793   4.667   6.814  -1.168  1.0566 -0.7513 -0.1531
   51MOL0    Cl 6794   4.778   6.686  -1.235  0.1710 -0.6513  0.1266
   51MOL0     C 6795   4.060   7.062  -0.328 -0.1152 -0.5876  0.6898
   51MOL0     C 6796   3.949   6.990  -0.285 -0.6770 -0.2929  0.2633
   51MOL0     O 6797   3.760   6.844  -0.493  0.1613  0.3087 -0.6632
   51MOL0     C 6798   3.568   6.651  -0.503  0.1954 -0.6134 -0.5837
   51MOL0     C 6799   3.483   6.547  -0.511  0.7854  0.1306 -0.2776
   51MOL0     N 6800   2.876   6.121  -0.629  0.3604  0.0296  0.3729
   51MOL0     N 6801   2.768   6.126  -0.568  0.3272  0.6054  0.1251
   51MOL0     C 6802   2.431   6.648   0.368  0.2407 -0.1728 -0.8462
   51MOL0     C 6803   2.336   6.657   0.472 -0.7619  1.1574  0.2604
   51MOL0     C 6804   2.045   6.569   0.844  0.4285 -1.2287  0.8241
   51MOL0     C 6805   1.927   6.498   0.870  0.0984  0.1810 -0.9366
   51MOL0     C 6806   1.815   6.563   0.926  0.9830 -0.5688  0.0190
   51MOL0     C 6807   1.817   6.692   0.969 -0.8038 -0.9234 -0.3181
   51MOL0     O 6808   1.711   6.764   1.025  0.4091  0.1918 -0.3032
   51MOL0     C 6809   1.703   6.788   1.163 -0.2459  0.1022  0.4253
   51MOL0     C 6810   1.662   6.665   1.248  0.0559 -0.2474  0.2052
   51MOL0     C 6811   1.521   6.616   1.226 -0.4301 -0.0610 -1.0007
   51MOL0     C 6812   1.464   6.518   1.336  0.5542 -0.0838  0.9065
   51MOL0     C 6813   1.341   6.449   1.294  0.8599 -0.7339  0.0006
   51MOL0     C 6814   1.249   6.386   1.242 -0.0151  0.6050  0.6791
   51MOL0     C 6815   1.947   6.764   0.958  0.2533 -0.0825 -0.0021
   51MOL0     C 6816   2.056   6.703   0.889  1.6965  0.5513 -1.4339
   51MOL0     C 6817   2.174   6.795   0.880  0.5756 -0.6363  0.7661
   51MOL0     H 6818   2.375   6.376   0.647 -4.5470  2.7654  2.3744
   51MOL0     H 6819   2.572   6.353   0.486  0.9194  0.7824 -2.2749
   51MOL0     H 6820   2.530   6.574   0.117 -0.4517 -0.7063  1.1580
   51MOL0     H 6821   2.643   6.690   0.206  0.4953  1.0750 -0.0887
   51MOL0     H 6822   2.825   6.516   0.139  0.7131  3.3638 -0.1438
   51MOL0     H 6823   2.760   6.604   0.001  0.8250 -0.7356  0.0889
   51MOL0     H 6824   2.636   6.435  -0.078  0.9566  2.2833 -0.2873
   51MOL0     H 6825   2.615   6.358   0.088 -0.0012  0.3008  0.9321
   51MOL0     H 6826   2.868   6.370  -0.089 -0.1900 -0.6220 -1.1953
   51MOL0     H 6827   2.815   6.234   0.037  2.1545 -0.8871 -1.2709
   51MOL0     H 6828   2.632   6.176  -0.095  1.2810 -4.2876 -0.0231
   51MOL0     H 6829   2.696   6.258  -0.236 -1.7318  1.5116  1.3488
   51MOL0     H 6830   2.895   6.117  -0.213  1.5950 -0.9617  0.2182
   51MOL0     H 6831   2.834   6.032  -0.069 -0.2540  0.6601 -1.0089
   51MOL0     H 6832   2.631   5.957  -0.180  0.0505  1.0362  0.9362
   51MOL0     H 6833   2.785   5.887  -0.253  3.0728  0.1203  0.5994
   51MOL0     H 6834   2.598   5.940  -0.414 -1.6624  0.8844  2.6994
   51MOL0     H 6835   2.622   6.110  -0.362  1.2874  1.1845 -0.6180
   51MOL0     H 6836   2.925   5.901  -0.401  2.6889 -0.7447 -1.1435
   51MOL0     H 6837   3.147   5.941  -0.548  1.3972  1.3545  0.1705
   51MOL0     H 6838   3.089   5.956  -0.722 -0.9302 -0.2781  0.0560
   51MOL0     H 6839   3.263   6.103  -0.723  0.2127  2.0856  0.2600
   51MOL0     H 6840   3.134   6.207  -0.679 -0.2640 -0.3556 -0.1404
   51MOL0     H 6841   3.332   6.091  -0.474 -0.3528 -0.4345 -0.9671
   51MOL0     H 6842   3.178   6.173  -0.435 -4.0941  0.0352 -3.7596
   51MOL0     H 6843   3.240   6.388  -0.518  1.0196  1.4655  1.2914
   51MOL0     H 6844   3.375   6.313  -0.610 -0.9716 -0.0467  0.1517
   51MOL0     H 6845   3.509   6.444  -0.195 -0.0053  2.9539  1.6197
   51MOL0     H 6846   3.655   6.645  -0.182  1.6590  1.4133 -1.2554
   51MOL0     H 6847   4.062   6.685  -0.385 -0.3373 -0.0024 -2.1337
   51MOL0     H 6848   4.264   6.817  -0.417  1.2134  1.2679  1.4556
   51MOL0     H 6849   4.227   7.089  -0.621  0.1765 -2.4286  1.2730
   51MOL0     H 6850   4.206   7.231  -0.523  2.2699  0.9161  1.7837
   51MOL0     H 6851   4.377   7.282  -0.648 -0.5377 -1.7462 -1.7894
   51MOL0     H 6852   4.439   7.251  -0.488  2.3146 -1.6274  0.0770
   51MOL0     H 6853   4.597   7.153  -0.608  1.4048 -3.4719  1.2005
   51MOL0     H 6854   4.503   7.006  -0.585 -1.6719 -0.0843 -0.4610
   51MOL0     H 6855   4.554   7.155  -0.844 -0.3344 -1.6736 -2.7417
   51MOL0     H 6856   4.398   7.063  -0.824  1.0830 -3.9159 -0.1935
   51MOL0     H 6857   4.503   6.867  -0.796 -0.6420  0.4675  0.9004
   51MOL0     H 6858   4.667   6.934  -0.774 -0.2415  0.6300 -1.9641
   51MOL0     H 6859   4.489   6.953  -1.016  0.9244 -0.1187 -2.0219
   51MOL0     H 6860   4.648   7.031  -0.989  0.2728  0.7976  3.2526
   51MOL0     H 6861   4.597   6.735  -0.985 -2.2049  1.5011 -1.6047
   51MOL0     H 6862   4.763   6.825  -0.973 -0.0442  0.0573 -1.5186
   51MOL0     H 6863   4.567   6.810  -1.213  0.3901  3.3223  0.5160
   51MOL0     H 6864   4.699   6.911  -1.208  4.2021 -1.2405  0.9143
   51MOL0     H 6865   4.057   7.171  -0.333  2.5851 -0.4885 -0.2278
   51MOL0     H 6866   3.866   7.043  -0.238 -0.1258  1.5341 -0.7289
   51MOL0     H 6867   3.575   6.705  -0.597 -0.5860  4.3539  1.8413
   51MOL0     H 6868   3.427   6.527  -0.601 -1.1107 -0.6164  1.0085
   51MOL0     H 6869   2.444   6.729   0.298  1.0216  0.6188  0.1876
   51MOL0     H 6870   2.271   6.743   0.466  0.4666  2.0326 -1.0591
   51MOL0     H 6871   1.921   6.393   0.841  0.6049  0.1260 -0.8548
   51MOL0     H 6872   1.724   6.510   0.953 -0.1321  1.0806 -0.3599
   51MOL0     H 6873   1.636   6.873   1.181  1.6940  1.1832  3.2883
   51MOL0     H 6874   1.806   6.815   1.188  0.9047 -3.1187 -0.3770
   51MOL0     H 6875   1.664   6.687   1.355 -2.1204  1.8447 -0.0995
   51MOL0     H 6876   1.731   6.584   1.222  3.0225  1.9292  0.6767
   51MOL0     H 6877   1.528   6.571   1.127 -0.2979 -2.4823  0.0202
   51MOL0     H 6878   1.448   6.697   1.233 -0.2221  0.1294 -1.0312
   51MOL0     H 6879   1.546   6.447   1.350  0.2812 -0.8821 -1.1069
   51MOL0     H 6880   1.445   6.564   1.433 -2.1090  3.4094 -1.0191
   51MOL0     H 6881   1.167   6.329   1.203  2.9514 -2.0921 -2.2620
   51MOL0     H 6882   1.955   6.862   1.003  0.0188  0.1439 -0.4532
   51MOL0     H 6883   2.193   6.859   0.967  1.1137 -0.1359  0.2825
   51MOL0     H 6884   2.264   6.733   0.872  0.8281 -0.1204 -0.5758
   51MOL0     H 6885   2.162   6.859   0.792 -0.1939 -0.4863  0.9725
   52MOL0     O 6886   5.238   8.666   0.881  0.1673 -0.5555  0.6561
   52MOL0     C 6887   5.169   8.649   0.779  0.0105  0.8243 -0.4778
   52MOL0     O 6888   5.224   8.590   0.664  0.4472 -0.3885  0.4078
   52MOL0     C 6889   5.361   8.610   0.649 -0.8802  0.1164 -0.1319
   52MOL0     C 6890   5.419   8.732   0.634 -0.2882  0.3533  0.2658
   52MOL0     C 6891   5.555   8.741   0.587  0.0806 -0.6232  0.8419
   52MOL0     C 6892   5.638   8.630   0.557  0.0044 -0.1802 -0.4108
   52MOL0     O 6893   5.770   8.654   0.524  0.3160  0.2899 -0.6962
   52MOL0     C 6894   5.786   8.713   0.394  0.0919  0.1102 -0.7559
   52MOL0     C 6895   5.931   8.775   0.384  0.0577  0.2542 -0.0584
   52MOL0     C 6896   5.987   8.775   0.242  0.3372 -0.8905 -0.0015
   52MOL0     C 6897   6.136   8.808   0.230  0.5386  0.0842  0.6574
   52MOL0     C 6898   6.225   8.692   0.266  0.6345 -0.2476  1.1597
   52MOL0     C 6899   6.371   8.740   0.285  0.2136  0.5218 -0.5002
   52MOL0     C 6900   6.458   8.613   0.309  0.0153  0.6310 -0.5397
   52MOL0     C 6901   6.611   8.650   0.332  0.3388  0.2202  1.3499
   52MOL0     N 6902   6.626   8.736   0.451  0.6007  0.2324  0.0245
   52MOL0     C 6903   6.613   8.703   0.586 -0.5330 -0.3420  0.0441
   52MOL0     C 6904   6.592   8.816   0.652  0.0020 -1.1355 -0.0340
   52MOL0     C 6905   6.537   8.828   0.789  0.2616  0.0695 -1.0200
   52MOL0     C 6906   6.387   8.809   0.812 -0.0665  0.6995  0.1686
   52MOL0     C 6907   6.336   8.661   0.802 -0.3123  0.1357 -1.0142
   52MOL0     C 6908   6.175   8.668   0.833 -0.1883  0.5194 -0.0725
   52MOL0     O 6909   6.105   8.756   0.737  0.3774  0.0464 -0.0435
   52MOL0     C 6910   5.994   8.823   0.791  0.2209 -0.2106 -0.9058
   52MOL0     C 6911   5.879   8.765   0.849 -0.5271 -0.4820  0.1719
   52MOL0     C 6912   5.779   8.838   0.905 -0.6955  0.2637 -0.3094
   52MOL0     C 6913   5.786   8.981   0.914 -1.1844 -0.0929  0.1778
   52MOL0     C 6914   5.676   9.053   0.984  0.0992 -0.7309  0.0031
   52MOL0     O 6915   5.569   8.988   1.029  0.8697 -0.0055  0.1254
   52MOL0     C 6916   5.446   9.053   1.025 -0.0881 -0.1838 -0.3800
   52MOL0     C 6917   5.344   8.975   0.965  0.8842 -0.3738 -0.3675
   52MOL0     C 6918   5.213   9.012   0.972  0.2075  0.0696 -0.7873
   52MOL0     C 6919   5.170   9.124   1.052  0.0537  0.6178 -0.0066
   52MOL0     O 6920   5.036   9.152   1.072  0.8634  0.6336 -0.8305
   52MOL0     C 6921   4.993   9.257   0.985 -0.2979 -0.4411 -0.5089
   52MOL0     C 6922   4.981   9.192   0.846 -0.8103 -0.2028  0.8200
   52MOL0     C 6923   4.921   9.292   0.755  0.1165  0.1618 -0.7944
   52MOL0     C 6924   4.876   9.219   0.621 -0.3547  0.2779 -1.0047
   52MOL0     C 6925   4.769   9.290   0.542 -0.1497 -1.1104  0.1049
   52MOL0     C 6926   4.734   9.203   0.415 -1.0253 -0.6539  0.4103
   52MOL0     C 6927   4.604   9.243   0.343 -0.6562  0.1701 -0.1943
   52MOL0     C 6928   4.606   9.382   0.273 -0.0795 -0.3151  0.1297
   52MOL0    Cl 6929   4.444   9.408   0.189 -0.1585 -0.1235 -0.9831
   52MOL0     C 6930   5.272   9.195   1.108 -0.1538  0.4151 -0.6695
   52MOL0     C 6931   5.411   9.168   1.093  0.9020  0.3149 -0.5539
   52MOL0     O 6932   5.683   9.175   0.982 -1.0951 -0.0053 -0.4147
   52MOL0     C 6933   5.897   9.045   0.850 -0.6309 -1.4882  1.0470
   52MOL0     C 6934   5.997   8.967   0.792  0.0185  0.3602 -0.6662
   52MOL0     N 6935   6.606   8.921   0.565 -0.2453 -0.4916 -0.7046
   52MOL0     N 6936   6.628   8.874   0.449  0.1390 -0.2340  0.0113
   52MOL0     C 6937   5.589   8.504   0.602  0.4940 -0.5255 -0.0532
   52MOL0     C 6938   5.446   8.495   0.626  0.3182  0.1319  0.3137
   52MOL0     C 6939   5.032   8.702   0.782  0.6210  0.4181  0.2552
   52MOL0     C 6940   4.950   8.666   0.895 -0.2451 -1.0037  0.4865
   52MOL0     C 6941   4.827   8.727   0.896  0.4854  0.1918 -0.7929
   52MOL0     C 6942   4.774   8.805   0.804 -0.7026 -0.8678 -0.4179
   52MOL0     O 6943   4.648   8.855   0.827  0.8686  0.0704  0.2752
   52MOL0     C 6944   4.594   8.966   0.751 -0.4620 -0.6911  0.1894
   52MOL0     C 6945   4.437   8.955   0.771  0.5636 -1.1294 -0.7822
   52MOL0     C 6946   4.379   8.820   0.730 -0.8330  0.4697  0.4820
   52MOL0     C 6947   4.402   8.778   0.581 -0.4391  0.4621  0.7721
   52MOL0     C 6948   4.343   8.875   0.490  0.7873  0.4352  1.5433
   52MOL0     C 6949   4.275   8.948   0.415 -0.1503  0.2848  0.2163
   52MOL0     C 6950   4.850   8.840   0.694  0.0854 -0.6333  0.1586
   52MOL0     C 6951   4.984   8.791   0.682 -0.3222  0.2333  0.0701
   52MOL0     C 6952   5.077   8.830   0.563 -0.5060 -0.6511 -0.2190
   52MOL0     H 6953   5.370   8.826   0.659 -0.9751 -0.0726  0.5586
   52MOL0     H 6954   5.590   8.842   0.567 -2.9697  0.4117  0.2453
   52MOL0     H 6955   5.773   8.636   0.318  4.7068  2.0740 -3.9428
   52MOL0     H 6956   5.712   8.794   0.383  0.6559  1.2594  2.5414
   52MOL0     H 6957   6.003   8.725   0.449 -1.7675 -2.1990  0.1864
   52MOL0     H 6958   5.925   8.880   0.416  1.7291 -0.3687  2.6140
   52MOL0     H 6959   5.929   8.846   0.183 -0.1246 -1.2459  0.0218
   52MOL0     H 6960   5.972   8.678   0.194 -0.0643  0.7677 -3.5524
   52MOL0     H 6961   6.152   8.830   0.124 -0.1812  1.6361  0.8495
   52MOL0     H 6962   6.164   8.898   0.286  1.8531  1.3386 -1.8080
   52MOL0     H 6963   6.198   8.648   0.362 -0.5432 -0.6806  0.6612
   52MOL0     H 6964   6.221   8.602   0.204 -0.5370 -0.6712  1.8160
   52MOL0     H 6965   6.407   8.799   0.200 -1.5436 -1.5949 -2.8681
   52MOL0     H 6966   6.372   8.809   0.370 -1.0085  0.4587 -0.4176
   52MOL0     H 6967   6.460   8.538   0.230  0.3130 -0.1294  0.1802
   52MOL0     H 6968   6.421   8.564   0.400 -1.1544  0.8624 -0.8739
   52MOL0     H 6969   6.662   8.556   0.357 -1.8505 -1.0860  1.0745
   52MOL0     H 6970   6.645   8.686   0.235 -0.7810 -1.7891  0.1292
   52MOL0     H 6971   6.607   8.603   0.629  0.3210  0.2227  1.5242
   52MOL0     H 6972   6.594   8.750   0.839 -1.1909 -0.3314  0.0843
   52MOL0     H 6973   6.561   8.925   0.833  1.8681 -1.0101  0.5917
   52MOL0     H 6974   6.363   8.855   0.909 -2.7341  0.6373 -0.3908
   52MOL0     H 6975   6.331   8.861   0.734 -0.4663 -0.2020 -0.1500
   52MOL0     H 6976   6.377   8.600   0.883  0.4840 -0.5301 -1.8922
   52MOL0     H 6977   6.356   8.611   0.707  0.8092 -1.1138 -0.1640
   52MOL0     H 6978   6.161   8.704   0.935 -2.1585  0.8243 -0.4107
   52MOL0     H 6979   6.127   8.571   0.845  0.5874  0.4601  3.7278
   52MOL0     H 6980   5.875   8.657   0.852 -0.1040 -0.5608  5.1101
   52MOL0     H 6981   5.703   8.780   0.957  2.3571 -4.1845 -0.2666
   52MOL0     H 6982   5.372   8.890   0.904  0.2506 -0.4339 -0.5899
   52MOL0     H 6983   5.131   8.950   0.938 -0.7270  1.2409 -0.7375
   52MOL0     H 6984   4.892   9.281   1.018 -0.2114  0.2584 -0.7500
   52MOL0     H 6985   5.063   9.340   0.994  3.0776 -3.0975 -0.0167
   52MOL0     H 6986   5.078   9.166   0.804  0.4097  3.3180  1.1325
   52MOL0     H 6987   4.918   9.103   0.852  3.1984 -3.3835 -0.3060
   52MOL0     H 6988   4.839   9.339   0.811  0.1973 -0.4188 -0.1848
   52MOL0     H 6989   4.996   9.365   0.724 -1.1679  1.3530 -1.2417
   52MOL0     H 6990   4.823   9.129   0.654  2.0765  0.2049  3.4416
   52MOL0     H 6991   4.954   9.197   0.548  0.3099  0.9115 -0.4969
   52MOL0     H 6992   4.801   9.393   0.521 -2.8390 -0.1805  0.1171
   52MOL0     H 6993   4.675   9.298   0.597 -0.4012  0.6810 -0.5168
   52MOL0     H 6994   4.821   9.217   0.350 -0.8177  2.2824  1.1671
   52MOL0     H 6995   4.723   9.102   0.456 -1.4230  0.4116  3.1798
   52MOL0     H 6996   4.522   9.236   0.415 -0.1781 -1.5324  0.2307
   52MOL0     H 6997   4.587   9.160   0.274  3.2457  0.2876 -1.4982
   52MOL0     H 6998   4.622   9.464   0.343  0.7304 -0.6614  0.3662
   52MOL0     H 6999   4.695   9.387   0.208 -0.2690 -2.4235 -0.3739
   52MOL0     H 7000   5.237   9.272   1.177  0.5252 -0.1852  0.3625
   52MOL0     H 7001   5.474   9.226   1.161 -0.7420  1.4714  0.0588
   52MOL0     H 7002   5.898   9.152   0.835 -1.9035 -1.1660  2.9317
   52MOL0     H 7003   6.089   9.014   0.759  0.0545  1.7951  1.3400
   52MOL0     H 7004   5.643   8.413   0.578 -0.4150 -1.1057  0.0703
   52MOL0     H 7005   5.399   8.398   0.628  3.1927 -1.4208 -1.0055
   52MOL0     H 7006   4.976   8.590   0.968 -2.1714  0.3294  2.6933
   52MOL0     H 7007   4.756   8.694   0.971 -0.1553  0.9312 -1.0641
   52MOL0     H 7008   4.615   8.958   0.644  0.8952  1.3107  0.2568
   52MOL0     H 7009   4.643   9.054   0.794  1.8261 -1.6161 -0.3604
   52MOL0     H 7010   4.382   9.033   0.719  1.1456  0.5230  0.9599
   52MOL0     H 7011   4.417   8.969   0.878 -1.5578  0.7365 -1.3687
   52MOL0     H 7012   4.270   8.821   0.736 -0.8123  1.5868  0.8463
   52MOL0     H 7013   4.411   8.735   0.790  0.3458  0.1371 -0.5694
   52MOL0     H 7014   4.510   8.773   0.568  0.1374  1.1740  4.2952
   52MOL0     H 7015   4.358   8.680   0.559  1.1953 -0.7509  2.5780
   52MOL0     H 7016   4.209   9.000   0.350 -0.7922  0.2195  0.7999
   52MOL0     H 7017   4.813   8.902   0.613 -2.3410 -0.4732  1.2982
   52MOL0     H 7018   5.025   8.879   0.480 -0.0546 -3.2332 -2.1683
   52MOL0     H 7019   5.166   8.888   0.590 -1.0472  1.0659 -1.8936
   52MOL0     H 7020   5.123   8.742   0.516  3.1937  0.1973  1.4047
   53MOL0     O 7021   0.636   8.897  11.388 -0.0375 -0.4320  0.0577
   53MOL0     C 7022   0.689   8.982  11.318  0.0955 -1.3749 -0.8961
   53MOL0     O 7023   0.634   9.034  11.205 -0.1362  0.3430  0.0056
   53MOL0     C 7024   0.522   8.971  11.169  0.2766  1.1855  0.6096
   53MOL0     C 7025   0.402   9.009  11.221  0.3611 -0.3156 -0.8660
   53MOL0     C 7026   0.289   8.933  11.186 -0.4934 -0.1144  0.1325
   53MOL0     C 7027   0.285   8.832  11.079 -0.6719  0.7135 -0.2194
   53MOL0     O 7028   0.178   8.780  11.024 -0.0963 -0.1454 -0.3142
   53MOL0     C 7029   0.052   8.799  11.089  0.0669  0.0173 -0.2230
   53MOL0     C 7030  -0.011   8.934  11.037 -0.2653 -0.6942  0.1415
   53MOL0     C 7031  -0.015   8.956  10.887  0.6385 -0.0881  0.0810
   53MOL0     C 7032  -0.063   9.096  10.844  0.2096 -0.0139 -0.1789
   53MOL0     C 7033  -0.217   9.090  10.803 -0.4940  0.1679 -0.1332
   53MOL0     C 7034  -0.307   9.091  10.929 -0.0125  0.7301  0.7284
   53MOL0     C 7035  -0.453   9.091  10.902  0.8994 -0.2094 -0.1505
   53MOL0     C 7036  -0.491   8.975  10.810 -0.6067 -0.1430  1.2896
   53MOL0     N 7037  -0.633   8.960  10.769  0.0273 -0.2313  0.1027
   53MOL0     C 7038  -0.709   8.870  10.846  0.1871 -0.1533 -0.2346
   53MOL0     C 7039  -0.830   8.899  10.795  0.4609  0.1896 -0.3790
   53MOL0     C 7040  -0.961   8.833  10.848  0.5512  0.4200  0.8977
   53MOL0     C 7041  -1.079   8.856  10.739  0.7312 -0.0720  0.9008
   53MOL0     C 7042  -1.206   8.789  10.783  0.1310  0.5062 -0.1436
   53MOL0     C 7043  -1.312   8.794  10.666 -0.0537  0.0319 -0.2520
   53MOL0     O 7044  -1.440   8.750  10.708  0.8567  0.3123 -0.3050
   53MOL0     C 7045  -1.535   8.740  10.610 -0.5070  0.6308  0.4717
   53MOL0     C 7046  -1.640   8.656  10.629  0.2410  0.1321 -0.4281
   53MOL0     C 7047  -1.747   8.643  10.545  0.8682 -0.9542 -0.2342
   53MOL0     C 7048  -1.758   8.722  10.426 -0.3055  0.8562  0.4520
   53MOL0     C 7049  -1.870   8.713  10.334  0.2410 -0.3089  0.8937
   53MOL0     O 7050  -1.966   8.604  10.341 -0.7298 -0.0947  0.3512
   53MOL0     C 7051  -2.077   8.606  10.260 -0.3765 -0.4287  0.0810
   53MOL0     C 7052  -2.214   8.589  10.303 -0.4351 -0.7064  0.4989
   53MOL0     C 7053  -2.325   8.616  10.217 -0.0049  0.8858 -0.5069
   53MOL0     C 7054  -2.295   8.632  10.074  0.1018  0.2348 -0.9715
   53MOL0     O 7055  -2.410   8.645  10.003 -0.3728  0.3566  0.5368
   53MOL0     C 7056  -2.400   8.702   9.872 -0.0770  0.4441  1.1407
   53MOL0     C 7057  -2.537   8.751   9.829 -0.0989 -0.4863  0.0647
   53MOL0     C 7058  -2.533   8.817   9.690 -0.1833  0.0184 -0.1474
   53MOL0     C 7059  -2.672   8.825   9.626  0.0465 -0.8208  0.6445
   53MOL0     C 7060  -2.664   8.890   9.487 -0.6225  0.4897  0.4537
   53MOL0     C 7061  -2.797   8.864   9.405 -0.2892  0.1566 -0.8445
   53MOL0     C 7062  -2.807   8.929   9.275  1.0086 -0.5591 -0.3919
   53MOL0     C 7063  -2.721   8.854   9.167 -0.0718  0.1284 -0.6383
   53MOL0    Cl 7064  -2.785   8.701   9.096 -0.5874  0.1597  0.2349
   53MOL0     C 7065  -2.166   8.623  10.032  0.4124  0.0642 -0.4420
   53MOL0     C 7066  -2.057   8.615  10.118  0.7026  0.9537 -0.7096
   53MOL0     O 7067  -1.876   8.812  10.262  0.2593  0.1376 -0.0459
   53MOL0     C 7068  -1.648   8.809  10.396 -0.7243  0.4380 -0.7029
   53MOL0     C 7069  -1.542   8.816  10.488 -0.1652  0.3796 -0.7682
   53MOL0     N 7070  -0.825   8.999  10.698  0.1455  0.5376  0.3161
   53MOL0     N 7071  -0.701   9.026  10.679  0.5401  0.1537  0.0144
   53MOL0     C 7072   0.415   8.805  11.023  0.0329  0.2997 -0.5971
   53MOL0     C 7073   0.528   8.870  11.071 -0.5362  0.2248 -0.3819
   53MOL0     C 7074   0.823   9.025  11.356 -0.7545  0.1083 -0.6473
   53MOL0     C 7075   0.901   9.096  11.260  0.5283 -0.1152 -0.0218
   53MOL0     C 7076   1.026   9.145  11.298 -0.8867  0.2111  0.0307
   53MOL0     C 7077   1.088   9.111  11.419  0.3093 -1.2738 -0.4575
   53MOL0     O 7078   1.213   9.161  11.447 -0.1499  0.1915  0.4422
   53MOL0     C 7079   1.299   9.079  11.514  0.2668  1.0217  0.0092
   53MOL0     C 7080   1.325   9.140  11.656 -0.2206  0.0038  0.2771
   53MOL0     C 7081   1.430   9.241  11.658  0.2526 -0.2548  0.8111
   53MOL0     C 7082   1.432   9.313  11.792  0.2317 -0.8217 -0.9578
   53MOL0     C 7083   1.555   9.390  11.807  0.5303  1.3386  0.8862
   53MOL0     C 7084   1.655   9.447  11.823  0.3821  0.1129  0.1825
   53MOL0     C 7085   1.010   9.039  11.513 -0.0091 -1.4535  0.0485
   53MOL0     C 7086   0.885   8.993  11.482  0.5339 -0.2902 -0.2615
   53MOL0     C 7087   0.826   8.905  11.601  0.5067  0.7615 -0.1653
   53MOL0     H 7088   0.405   9.077  11.304 -1.7548 -1.3943  0.1538
   53MOL0     H 7089   0.204   8.957  11.249  0.2899  0.8746  0.8591
   53MOL0     H 7090  -0.019   8.719  11.064 -0.0257 -0.4433  1.4120
   53MOL0     H 7091   0.057   8.799  11.198  0.7254  1.6393 -0.2227
   53MOL0     H 7092   0.055   9.013  11.076  0.4276 -0.7913 -0.7952
   53MOL0     H 7093  -0.112   8.938  11.077 -1.0151 -0.3555 -1.7202
   53MOL0     H 7094  -0.079   8.879  10.843 -2.7343  2.1167  0.7422
   53MOL0     H 7095   0.088   8.937  10.855  0.9822  3.4270 -1.3600
   53MOL0     H 7096  -0.046   9.161  10.930 -0.4950  0.4189 -0.3606
   53MOL0     H 7097   0.012   9.127  10.770  1.6740  1.2761  1.7619
   53MOL0     H 7098  -0.243   9.184  10.754 -0.9628  1.0144  1.6705
   53MOL0     H 7099  -0.238   9.002  10.742  1.5419 -1.3934  1.2686
   53MOL0     H 7100  -0.288   9.009  10.998  1.8370  2.1642  2.0316
   53MOL0     H 7101  -0.291   9.184  10.985 -0.1014  1.4238 -0.3486
   53MOL0     H 7102  -0.482   9.178  10.843  2.9612 -0.2583 -1.3194
   53MOL0     H 7103  -0.505   9.092  10.998  2.1194  0.5598  0.5319
   53MOL0     H 7104  -0.440   8.983  10.713 -0.2244 -0.1136  1.4913
   53MOL0     H 7105  -0.452   8.885  10.857  0.9891  1.2082  2.6675
   53MOL0     H 7106  -0.681   8.795  10.919  1.1870  1.0044  0.6127
   53MOL0     H 7107  -0.941   8.726  10.862  0.4805  0.4032  0.8715
   53MOL0     H 7108  -0.983   8.884  10.942  2.2492 -1.5558  2.4735
   53MOL0     H 7109  -1.101   8.963  10.738 -1.0127 -0.3995  0.9792
   53MOL0     H 7110  -1.033   8.821  10.646  0.5686  1.1772  0.3265
   53MOL0     H 7111  -1.244   8.842  10.871  0.0904 -0.3334  0.3541
   53MOL0     H 7112  -1.186   8.684  10.809 -3.2930  0.1340  1.5388
   53MOL0     H 7113  -1.278   8.756  10.569  0.5520 -3.5492  1.1896
   53MOL0     H 7114  -1.322   8.902  10.648  2.1582  0.5111  0.9740
   53MOL0     H 7115  -1.645   8.603  10.723 -0.6318 -0.9640 -1.0627
   53MOL0     H 7116  -1.838   8.587  10.565 -0.4166  1.1270  0.0660
   53MOL0     H 7117  -2.226   8.565  10.409  0.7628  0.2376  0.8695
   53MOL0     H 7118  -2.426   8.616  10.256  1.1715  1.1407  2.8157
   53MOL0     H 7119  -2.334   8.789   9.862  0.6992 -0.1286  1.1283
   53MOL0     H 7120  -2.368   8.617   9.810 -3.9453 -1.7598  1.8512
   53MOL0     H 7121  -2.589   8.655   9.819 -0.0774 -0.7296  1.9649
   53MOL0     H 7122  -2.569   8.812   9.914  3.1774 -0.7751  1.6554
   53MOL0     H 7123  -2.491   8.917   9.707 -0.7943  0.1056  0.8834
   53MOL0     H 7124  -2.472   8.746   9.632 -1.5966 -1.9305  0.6453
   53MOL0     H 7125  -2.735   8.883   9.694 -0.0431 -0.0206 -0.1064
   53MOL0     H 7126  -2.708   8.721   9.628  0.6413 -1.0470  2.6535
   53MOL0     H 7127  -2.571   8.859   9.438 -0.9186  0.6456 -0.2098
   53MOL0     H 7128  -2.647   8.997   9.501  2.3756  0.1574  0.1709
   53MOL0     H 7129  -2.818   8.757   9.400  0.0946  0.1313 -3.5135
   53MOL0     H 7130  -2.875   8.919   9.458  2.9930  3.8349  0.6939
   53MOL0     H 7131  -2.783   9.036   9.279  1.5229 -0.6807 -0.0437
   53MOL0     H 7132  -2.913   8.930   9.250  1.2266  1.0469 -1.3821
   53MOL0     H 7133  -2.710   8.921   9.080 -1.6942 -0.8065 -1.6119
   53MOL0     H 7134  -2.624   8.825   9.208  0.0606  0.0013 -1.0274
   53MOL0     H 7135  -2.153   8.617   9.925  0.1246 -2.7271 -0.3770
   53MOL0     H 7136  -1.960   8.618  10.069 -0.4146 -5.2196 -4.3414
   53MOL0     H 7137  -1.638   8.852  10.297 -1.0729 -0.8502 -1.3173
   53MOL0     H 7138  -1.465   8.891  10.473 -2.5493  3.0141 -0.6625
   53MOL0     H 7139   0.417   8.727  10.948 -0.1560 -0.2674 -0.0262
   53MOL0     H 7140   0.621   8.827  11.034  0.5714 -0.5064  2.9549
   53MOL0     H 7141   0.863   9.132  11.165 -0.7256 -0.9127  0.1455
   53MOL0     H 7142   1.084   9.208  11.232  0.0150 -0.9533 -0.3221
   53MOL0     H 7143   1.387   9.066  11.450 -0.7481  2.6394 -1.8388
   53MOL0     H 7144   1.250   8.983  11.527 -1.1857  1.7752  0.2785
   53MOL0     H 7145   1.365   9.061  11.721 -0.9823 -0.3569  0.3158
   53MOL0     H 7146   1.231   9.183  11.694  1.2179  3.1606  0.6192
   53MOL0     H 7147   1.413   9.316  11.580 -1.2212 -0.7200  0.6694
   53MOL0     H 7148   1.526   9.191  11.641  0.8037  1.1474 -0.4567
   53MOL0     H 7149   1.356   9.392  11.791  0.7746 -0.2219 -3.9021
   53MOL0     H 7150   1.412   9.243  11.874 -1.0767 -1.7409 -1.9998
   53MOL0     H 7151   1.748   9.501  11.820  1.2362 -1.3152  0.2240
   53MOL0     H 7152   1.066   9.015  11.603 -0.8785 -2.3121  0.3735
   53MOL0     H 7153   0.896   8.911  11.685  1.7654  0.3044 -1.1449
   53MOL0     H 7154   0.727   8.942  11.628  0.1080 -1.4466  1.6768
   53MOL0     H 7155   0.810   8.802  11.566  0.7469 -0.2470  2.5084
   54MOL0     O 7156   0.726   9.748   0.487 -0.3047 -0.1902 -0.2648
   54MOL0     C 7157   0.633   9.797   0.557 -0.5372  0.6944 -1.1323
   54MOL0     O 7158   0.641   9.824   0.688  0.3843  0.0680  0.7314
   54MOL0     C 7159   0.743   9.764   0.756 -0.2759  0.1444 -0.8086
   54MOL0     C 7160   0.811   9.855   0.833 -1.0226 -0.1924 -0.4579
   54MOL0     C 7161   0.921   9.819   0.904 -0.5152  0.0695  0.2137
   54MOL0     C 7162   0.962   9.691   0.900 -0.5506 -0.2443 -0.6072
   54MOL0     O 7163   1.081   9.653   0.964 -0.1235  0.1398  0.7832
   54MOL0     C 7164   1.190   9.739   0.948 -0.5190 -0.6168  0.1470
   54MOL0     C 7165   1.310   9.683   1.016 -1.1148 -0.6095  0.6242
   54MOL0     C 7166   1.345   9.534   0.985 -0.3846 -0.4393  0.0428
   54MOL0     C 7167   1.385   9.509   0.837 -0.4038 -0.4914  0.1513
   54MOL0     C 7168   1.387   9.359   0.790  0.1775 -0.7731 -0.1738
   54MOL0     C 7169   1.252   9.314   0.754  0.4435  0.1951  0.9464
   54MOL0     C 7170   1.242   9.156   0.738 -0.3142 -0.5022  0.5226
   54MOL0     C 7171   1.083   9.127   0.748 -0.4415  0.9442  0.3218
   54MOL0     N 7172   1.026   9.158   0.615 -0.1616  0.1608 -0.3111
   54MOL0     C 7173   0.938   9.264   0.597  0.0298 -0.4148 -0.1708
   54MOL0     C 7174   0.933   9.279   0.467 -0.8694  0.2391 -0.0816
   54MOL0     C 7175   0.855   9.380   0.389  0.5598 -0.0068  0.9322
   54MOL0     C 7176   0.930   9.483   0.315  0.3077 -0.8643  0.3238
   54MOL0     C 7177   0.999   9.579   0.416  0.9594 -0.3549  0.3996
   54MOL0     C 7178   1.064   9.703   0.354  0.0122  0.1948 -0.5052
   54MOL0     O 7179   1.202   9.682   0.329  0.5518  0.2091  0.3993
   54MOL0     C 7180   1.290   9.733   0.411 -0.0989 -0.1109 -0.4233
   54MOL0     C 7181   1.268   9.799   0.543 -0.1908  0.0984  0.0263
   54MOL0     C 7182   1.381   9.834   0.619 -1.7425 -0.8327  0.1171
   54MOL0     C 7183   1.514   9.802   0.574 -0.4247  0.3953 -0.1566
   54MOL0     C 7184   1.632   9.831   0.663  0.0554 -0.7896 -0.0035
   54MOL0     O 7185   1.754   9.810   0.607 -0.2183  0.3503 -0.0539
   54MOL0     C 7186   1.872   9.796   0.680  0.2676 -0.0454  0.7023
   54MOL0     C 7187   1.928   9.900   0.751  1.1383  0.7068 -0.3803
   54MOL0     C 7188   2.035   9.870   0.839 -0.5427 -1.0177 -0.0586
   54MOL0     C 7189   2.098   9.751   0.839 -0.5666  0.7393 -0.0196
   54MOL0     O 7190   2.220   9.725   0.914  0.6217 -0.7531  0.5446
   54MOL0     C 7191   2.286   9.819   1.001 -0.4298 -0.1352  0.3535
   54MOL0     C 7192   2.226   9.849   1.143  0.6016  1.1824 -0.3820
   54MOL0     C 7193   2.262   9.747   1.251  0.0004 -0.3212  0.1676
   54MOL0     C 7194   2.386   9.782   1.341 -0.0511  1.1982  0.5091
   54MOL0     C 7195   2.423   9.694   1.458 -0.9504  0.2597  0.1204
   54MOL0     C 7196   2.470   9.552   1.423 -0.5016 -0.0862 -0.5206
   54MOL0     C 7197   2.592   9.562   1.331  0.7138 -0.1546  0.6841
   54MOL0     C 7198   2.683   9.442   1.347  0.4338  0.6650  0.0437
   54MOL0    Cl 7199   2.785   9.457   1.493  0.2708  0.1401 -0.5446
   54MOL0     C 7200   2.044   9.649   0.756  0.0653 -0.4578  0.4357
   54MOL0     C 7201   1.930   9.664   0.675 -0.0278 -0.6399  0.2710
   54MOL0     O 7202   1.612   9.847   0.786 -0.2385 -0.3496 -0.1610
   54MOL0     C 7203   1.533   9.744   0.449  1.0241 -0.3114  0.1799
   54MOL0     C 7204   1.423   9.710   0.374  0.4949 -0.2467 -0.1042
   54MOL0     N 7205   1.013   9.179   0.409 -0.0857  0.2935 -0.0811
   54MOL0     N 7206   1.071   9.109   0.497 -0.3225  0.8040  0.2710
   54MOL0     C 7207   0.902   9.597   0.830  0.1393  0.4765  1.0672
   54MOL0     C 7208   0.785   9.631   0.752  0.5111  0.1716 -0.1812
   54MOL0     C 7209   0.496   9.811   0.492 -0.7941  0.8597  0.4247
   54MOL0     C 7210   0.386   9.849   0.573  1.6092  0.7916 -0.5238
   54MOL0     C 7211   0.248   9.850   0.527  0.1503 -2.2773 -1.0743
   54MOL0     C 7212   0.226   9.824   0.390 -0.0898 -0.0315  0.4531
   54MOL0     O 7213   0.101   9.845   0.325  0.3052  0.6445  0.0889
   54MOL0     C 7214  -0.018   9.886   0.395  0.1543  0.3496  0.3044
   54MOL0     C 7215  -0.006  10.040   0.411  0.4726 -1.1195 -0.1452
   54MOL0     C 7216  -0.141  10.112   0.405 -0.2380  0.1277  0.5195
   54MOL0     C 7217  -0.223  10.113   0.537 -0.5185  0.6880 -0.4422
   54MOL0     C 7218  -0.344  10.192   0.546  0.1746  0.1098  0.0421
   54MOL0     C 7219  -0.443  10.259   0.571 -0.4806 -0.5554 -0.0497
   54MOL0     C 7220   0.336   9.784   0.308  1.3746  0.8329  0.6493
   54MOL0     C 7221   0.470   9.775   0.357  0.1903  0.0658 -0.1299
   54MOL0     C 7222   0.567   9.720   0.256 -0.1918 -0.9224 -0.0190
   54MOL0     H 7223   0.781   9.958   0.820  2.7723  0.6947 -4.2426
   54MOL0     H 7224   0.960   9.881   0.984  0.8019  0.8119 -0.9723
   54MOL0     H 7225   1.214   9.749   0.842  0.7698  1.9082  0.6060
   54MOL0     H 7226   1.171   9.833   1.000  1.1130 -0.2979  0.2449
   54MOL0     H 7227   1.289   9.698   1.122  0.4381 -0.4480  0.9345
   54MOL0     H 7228   1.395   9.748   0.994 -0.0994 -1.4490  1.9141
   54MOL0     H 7229   1.261   9.471   1.014  1.1633 -1.4813  2.5895
   54MOL0     H 7230   1.422   9.493   1.052 -0.9804 -1.2540  0.2356
   54MOL0     H 7231   1.332   9.569   0.763  0.7791  0.4858  0.0521
   54MOL0     H 7232   1.487   9.547   0.820 -0.9598  1.3561  0.7763
   54MOL0     H 7233   1.460   9.350   0.710  2.1405  0.8918  1.3222
   54MOL0     H 7234   1.420   9.294   0.871 -1.6836 -0.7004  0.7172
   54MOL0     H 7235   1.183   9.338   0.835 -0.8408 -3.8480  1.2528
   54MOL0     H 7236   1.222   9.361   0.659 -1.8125  1.0311  1.9813
   54MOL0     H 7237   1.281   9.094   0.819 -4.0678 -2.5299  1.0390
   54MOL0     H 7238   1.289   9.121   0.646  1.0452 -1.4550  1.5444
   54MOL0     H 7239   1.061   9.025   0.778  2.1171  0.8164  2.0928
   54MOL0     H 7240   1.030   9.184   0.825 -0.9078 -1.8805  2.2615
   54MOL0     H 7241   0.886   9.322   0.672  0.5009 -1.0270  0.6395
   54MOL0     H 7242   0.793   9.322   0.320 -0.7132  0.5568  1.5667
   54MOL0     H 7243   0.776   9.410   0.458 -0.6546 -1.2896  0.1608
   54MOL0     H 7244   0.997   9.445   0.238 -2.1333 -0.4392 -2.2065
   54MOL0     H 7245   0.865   9.553   0.261  0.0485  1.8252  3.7951
   54MOL0     H 7246   1.073   9.523   0.474  2.6546 -0.8621 -2.0582
   54MOL0     H 7247   0.927   9.615   0.490 -0.3692  0.5814 -1.2645
   54MOL0     H 7248   1.056   9.795   0.412  0.7203  0.0860 -0.2238
   54MOL0     H 7249   1.013   9.722   0.259 -1.3419 -2.4725 -0.4181
   54MOL0     H 7250   1.172   9.817   0.592  0.2551 -0.0188  0.9587
   54MOL0     H 7251   1.383   9.882   0.716 -0.2672  0.0784 -0.3414
   54MOL0     H 7252   1.879   9.997   0.747  1.7180  0.9874 -0.8285
   54MOL0     H 7253   2.071   9.954   0.897 -1.0207  2.9187 -4.7438
   54MOL0     H 7254   2.388   9.785   1.022  0.8209  2.8436 -0.2991
   54MOL0     H 7255   2.303   9.911   0.943 -0.9043 -1.4507 -2.0004
   54MOL0     H 7256   2.241   9.948   1.185 -2.6404  1.2652  0.8806
   54MOL0     H 7257   2.119   9.860   1.123  0.6282 -0.2064 -1.4279
   54MOL0     H 7258   2.177   9.726   1.316 -2.5244  4.3212 -1.2404
   54MOL0     H 7259   2.292   9.654   1.201  1.5884 -0.0001  0.4429
   54MOL0     H 7260   2.357   9.875   1.391  1.1167  1.2544  1.1009
   54MOL0     H 7261   2.476   9.801   1.282  0.0290  0.3588  0.3507
   54MOL0     H 7262   2.326   9.675   1.504 -1.0585 -1.9631 -0.8589
   54MOL0     H 7263   2.476   9.753   1.533 -2.6110  1.3452  0.4669
   54MOL0     H 7264   2.490   9.494   1.514 -0.3319  2.1828  0.9568
   54MOL0     H 7265   2.388   9.497   1.376 -0.8996 -0.4539  0.5624
   54MOL0     H 7266   2.648   9.654   1.348  2.5632 -1.3424  1.3156
   54MOL0     H 7267   2.550   9.553   1.230  1.8865 -3.3405  0.3708
   54MOL0     H 7268   2.633   9.346   1.361  1.3033  0.4022  1.7005
   54MOL0     H 7269   2.753   9.427   1.264  1.0479  2.2676  0.2330
   54MOL0     H 7270   2.087   9.550   0.744 -1.0292 -0.6354 -4.0163
   54MOL0     H 7271   1.890   9.584   0.614 -2.5558  1.4270 -0.9801
   54MOL0     H 7272   1.629   9.715   0.407  1.4248  2.3559 -0.9470
   54MOL0     H 7273   1.421   9.642   0.290  0.7551  0.8299 -0.9973
   54MOL0     H 7274   0.948   9.499   0.833  0.3311  0.5162 -0.0338
   54MOL0     H 7275   0.728   9.569   0.684 -0.2262  1.2132 -0.5466
   54MOL0     H 7276   0.410   9.882   0.674 -0.6996 -2.5844  1.3135
   54MOL0     H 7277   0.165   9.882   0.589  1.6210  0.6301 -0.4347
   54MOL0     H 7278  -0.032   9.841   0.494  1.2112  0.7915  0.6678
   54MOL0     H 7279  -0.112   9.862   0.342  0.6967  2.3703 -1.7561
   54MOL0     H 7280   0.054  10.073   0.325 -0.6513 -2.1609 -1.3791
   54MOL0     H 7281   0.046  10.070   0.502 -0.6621  2.4668 -0.5336
   54MOL0     H 7282  -0.200  10.081   0.318 -2.1175 -2.6231  2.6101
   54MOL0     H 7283  -0.117  10.215   0.377  1.7798 -0.8133 -1.6702
   54MOL0     H 7284  -0.255  10.009   0.544 -0.7967  0.7485 -0.8247
   54MOL0     H 7285  -0.155  10.141   0.618  0.5926 -2.0086 -0.3183
   54MOL0     H 7286  -0.544  10.293   0.583 -0.9668 -1.6557 -0.8657
   54MOL0     H 7287   0.303   9.756   0.208 -0.7488 -1.9255  1.9606
   54MOL0     H 7288   0.650   9.789   0.237  0.5245 -1.5234  0.8150
   54MOL0     H 7289   0.615   9.624   0.280  1.9744 -0.3714 -1.8044
   54MOL0     H 7290   0.520   9.701   0.159  2.3808 -0.3212 -1.4700
   55MOL0     O 7291   9.532   2.054   5.639 -0.9477 -0.4896  0.3650
   55MOL0     C 7292   9.572   2.129   5.548  0.6645  0.3943 -0.2317
   55MOL0     O 7293   9.488   2.194   5.455  0.4605  0.0844 -0.1510
   55MOL0     C 7294   9.357   2.210   5.483  0.3260 -0.0017  0.1578
   55MOL0     C 7295   9.271   2.097   5.487 -0.4082 -0.3559 -0.3611
   55MOL0     C 7296   9.131   2.113   5.502  0.5429 -0.2110  0.5221
   55MOL0     C 7297   9.077   2.238   5.529  1.0023 -0.3305 -0.7937
   55MOL0     O 7298   8.948   2.261   5.569  0.1925  0.5465  0.1640
   55MOL0     C 7299   8.849   2.150   5.569 -0.0611 -0.1171  0.4542
   55MOL0     C 7300   8.789   2.119   5.436  0.7851  0.3434  0.2037
   55MOL0     C 7301   8.685   2.221   5.394  0.7578 -0.2910 -0.0710
   55MOL0     C 7302   8.609   2.174   5.276 -0.7577  0.1096  1.2241
   55MOL0     C 7303   8.467   2.224   5.264  0.3054 -0.1067  1.0740
   55MOL0     C 7304   8.398   2.171   5.132  0.6951 -0.0540  0.4411
   55MOL0     C 7305   8.245   2.195   5.148  0.7604 -0.4958  0.8308
   55MOL0     C 7306   8.153   2.174   5.023 -0.1224  0.1073  0.3933
   55MOL0     N 7307   8.181   2.058   4.938  0.0676 -0.6181 -0.3779
   55MOL0     C 7308   8.289   2.053   4.856  0.2161 -0.4360 -0.0205
   55MOL0     C 7309   8.313   1.918   4.855  0.1380  0.1847 -0.1793
   55MOL0     C 7310   8.421   1.854   4.771  0.3267  1.0444 -0.7218
   55MOL0     C 7311   8.392   1.880   4.620  0.2257  0.0919 -0.9560
   55MOL0     C 7312   8.472   1.801   4.519  0.4897 -0.2922  0.0125
   55MOL0     C 7313   8.453   1.648   4.540 -0.0627 -0.0972  1.2969
   55MOL0     O 7314   8.477   1.562   4.423 -0.2576  0.1719 -0.4772
   55MOL0     C 7315   8.583   1.585   4.338  0.2609  0.0718  0.6432
   55MOL0     C 7316   8.711   1.573   4.387 -0.6398 -0.4604  0.5228
   55MOL0     C 7317   8.819   1.614   4.310  0.0620  0.7097 -0.4866
   55MOL0     C 7318   8.801   1.688   4.186 -0.5146  0.1612  0.8940
   55MOL0     C 7319   8.914   1.757   4.120 -0.6022  1.0072  0.3950
   55MOL0     O 7320   9.041   1.707   4.146  0.2779 -0.0641 -1.0770
   55MOL0     C 7321   9.158   1.769   4.114 -0.3981  0.4113 -0.2582
   55MOL0     C 7322   9.266   1.688   4.095 -0.3155 -0.5627 -1.0652
   55MOL0     C 7323   9.395   1.738   4.051  1.4930  0.0145 -0.8905
   55MOL0     C 7324   9.412   1.880   4.035 -0.0645 -0.0259 -1.2827
   55MOL0     O 7325   9.523   1.946   4.005 -0.6759 -0.5434 -0.2123
   55MOL0     C 7326   9.624   1.876   3.933 -0.6056 -0.3173 -0.7926
   55MOL0     C 7327   9.711   1.984   3.874 -0.5569  0.5520 -1.1696
   55MOL0     C 7328   9.801   1.928   3.774 -0.1250 -0.0532  0.0820
   55MOL0     C 7329   9.928   2.005   3.774  0.4618 -0.2035  0.1376
   55MOL0     C 7330  10.035   1.955   3.677  0.0055 -0.8317 -0.0931
   55MOL0     C 7331  10.162   2.040   3.695  0.2635 -0.8072 -0.9894
   55MOL0     C 7332  10.273   1.981   3.605 -0.2997 -0.2610 -0.5980
   55MOL0     C 7333  10.400   2.047   3.654 -0.2703 -0.0091 -0.2759
   55MOL0    Cl 7334  10.512   2.023   3.518 -0.0665 -0.3389 -0.3932
   55MOL0     C 7335   9.307   1.970   4.076 -0.5601  0.6000  0.1799
   55MOL0     C 7336   9.184   1.911   4.108  0.4863  0.8175 -0.1453
   55MOL0     O 7337   8.893   1.851   4.039 -1.2246 -0.1424 -0.4254
   55MOL0     C 7338   8.660   1.704   4.136 -0.4488  0.7416  0.1931
   55MOL0     C 7339   8.562   1.654   4.211  0.4098  0.8980 -1.2515
   55MOL0     N 7340   8.214   1.850   4.916 -0.3384 -0.1966  0.2071
   55MOL0     N 7341   8.143   1.938   4.980 -0.0371 -0.6320  0.8819
   55MOL0     C 7342   9.162   2.352   5.518 -0.3759 -0.4268 -0.3176
   55MOL0     C 7343   9.302   2.340   5.492 -0.3328 -0.1348  0.3485
   55MOL0     C 7344   9.718   2.143   5.541 -0.2116 -0.1403  0.4429
   55MOL0     C 7345   9.804   2.031   5.579 -0.4401 -0.5098 -0.1205
   55MOL0     C 7346   9.936   2.052   5.599 -0.3054  0.7173  0.7219
   55MOL0     C 7347   9.998   2.176   5.588 -0.6526 -0.1943 -0.4877
   55MOL0     O 7348  10.128   2.200   5.629  0.1792  0.9264 -0.2733
   55MOL0     C 7349  10.154   2.169   5.762 -0.5648 -0.0051  0.3292
   55MOL0     C 7350  10.209   2.300   5.819  0.2057  0.7126 -0.4844
   55MOL0     C 7351  10.275   2.292   5.965  0.7173  0.1095  0.2444
   55MOL0     C 7352  10.337   2.154   5.999 -0.4441 -0.3563  0.4766
   55MOL0     C 7353  10.437   2.114   5.900 -0.1388 -0.6292  0.0952
   55MOL0     C 7354  10.511   2.098   5.813  0.2883  0.3447 -0.7943
   55MOL0     C 7355   9.924   2.285   5.543  0.5195  0.0211  0.1403
   55MOL0     C 7356   9.787   2.266   5.517 -0.4110  0.0026  0.2953
   55MOL0     C 7357   9.717   2.394   5.465 -0.3090  0.0297  0.1530
   55MOL0     H 7358   9.318   2.000   5.475  1.2129  0.6189 -2.8200
   55MOL0     H 7359   9.074   2.021   5.497  3.7427 -2.3296 -3.9839
   55MOL0     H 7360   8.889   2.059   5.617 -1.3925 -1.8820 -1.5910
   55MOL0     H 7361   8.774   2.182   5.642 -1.4228  0.0142 -0.9546
   55MOL0     H 7362   8.749   2.018   5.434 -1.4798  1.0808  2.7679
   55MOL0     H 7363   8.863   2.123   5.356  0.3598 -0.1443 -0.2214
   55MOL0     H 7364   8.724   2.323   5.390 -1.8561  0.8963  1.9187
   55MOL0     H 7365   8.620   2.230   5.481  1.0220 -1.0219  0.2182
   55MOL0     H 7366   8.666   2.212   5.190 -1.8041  1.2733  1.0234
   55MOL0     H 7367   8.604   2.066   5.291 -0.7690 -0.1898 -0.6654
   55MOL0     H 7368   8.414   2.199   5.356  1.9119 -0.6846  1.8873
   55MOL0     H 7369   8.464   2.333   5.254 -1.3673 -0.0654  1.7813
   55MOL0     H 7370   8.437   2.224   5.044  3.0674 -2.0025  0.2195
   55MOL0     H 7371   8.427   2.067   5.110 -1.4245 -0.8128  0.9842
   55MOL0     H 7372   8.235   2.299   5.181 -0.9674 -0.5018  0.3866
   55MOL0     H 7373   8.211   2.131   5.230 -2.7619 -1.9185 -1.5520
   55MOL0     H 7374   8.048   2.171   5.052 -0.6226  2.1322 -0.9562
   55MOL0     H 7375   8.168   2.263   4.960 -5.2442 -0.9711 -2.9126
   55MOL0     H 7376   8.335   2.140   4.810 -1.2763  0.4958  0.2056
   55MOL0     H 7377   8.520   1.884   4.806  0.3302 -3.5559  4.6691
   55MOL0     H 7378   8.433   1.748   4.796 -2.0490  1.4481  2.9460
   55MOL0     H 7379   8.286   1.855   4.608  0.1193  0.2567 -0.3619
   55MOL0     H 7380   8.413   1.981   4.584  0.5000  0.0781 -0.8365
   55MOL0     H 7381   8.575   1.831   4.497 -0.2130 -0.3251 -4.0797
   55MOL0     H 7382   8.428   1.823   4.422  0.9009  0.7856  0.0607
   55MOL0     H 7383   8.347   1.635   4.564 -1.2811  1.3009 -2.5968
   55MOL0     H 7384   8.511   1.616   4.628 -0.1461  1.1044  1.8122
   55MOL0     H 7385   8.723   1.526   4.484  0.6787 -2.5268 -0.5722
   55MOL0     H 7386   8.916   1.594   4.354  0.1898 -2.1517 -1.8846
   55MOL0     H 7387   9.246   1.583   4.113  0.4864 -0.5060  0.3228
   55MOL0     H 7388   9.469   1.669   4.011  1.0638 -0.2287 -1.2704
   55MOL0     H 7389   9.679   1.824   4.013  0.3267  1.9509  0.1218
   55MOL0     H 7390   9.590   1.803   3.858 -2.7882  0.6045 -0.7640
   55MOL0     H 7391   9.644   2.060   3.831 -2.5916 -1.3190 -1.4837
   55MOL0     H 7392   9.765   2.037   3.953  0.7773 -0.0005 -1.6850
   55MOL0     H 7393   9.832   1.826   3.798  0.4454 -0.6188 -2.6798
   55MOL0     H 7394   9.753   1.910   3.677  0.8134 -4.1625  0.2204
   55MOL0     H 7395   9.975   2.001   3.873 -1.3372 -1.9940  0.9678
   55MOL0     H 7396   9.902   2.104   3.735 -0.5446 -0.2635  0.6249
   55MOL0     H 7397  10.000   1.947   3.574  1.1481  0.1096 -0.5788
   55MOL0     H 7398  10.063   1.851   3.696 -0.5306 -1.1084 -0.7860
   55MOL0     H 7399  10.139   2.144   3.669 -0.8932 -1.1274 -1.2917
   55MOL0     H 7400  10.194   2.042   3.800  0.0725  0.9651 -0.9224
   55MOL0     H 7401  10.244   1.995   3.501 -1.8759 -0.6434 -0.2299
   55MOL0     H 7402  10.282   1.873   3.623  1.0259 -0.0362  0.2269
   55MOL0     H 7403  10.386   2.155   3.671  0.6152 -0.1660  1.5504
   55MOL0     H 7404  10.437   2.001   3.745  0.6178  1.2021  0.0026
   55MOL0     H 7405   9.319   2.077   4.060 -1.3517  1.3458  3.7091
   55MOL0     H 7406   9.096   1.973   4.122  1.0327  2.3949 -2.9736
   55MOL0     H 7407   8.642   1.751   4.041 -0.2729 -1.8668 -1.2242
   55MOL0     H 7408   8.457   1.664   4.185 -0.8818 -0.0192  2.8719
   55MOL0     H 7409   9.112   2.447   5.532 -2.5260 -1.6720  0.8794
   55MOL0     H 7410   9.355   2.432   5.476  2.2248 -1.3957  0.9906
   55MOL0     H 7411   9.762   1.934   5.607 -0.5167 -0.6890 -0.8458
   55MOL0     H 7412   9.982   1.964   5.642 -0.1173  0.7574  0.6065
   55MOL0     H 7413  10.229   2.090   5.746 -0.0365  0.1095  1.9697
   55MOL0     H 7414  10.069   2.140   5.825 -2.3930 -0.3253 -2.1557
   55MOL0     H 7415  10.134   2.379   5.825 -1.9721 -1.3698  1.6719
   55MOL0     H 7416  10.284   2.343   5.751  0.0703 -1.7389 -2.3257
   55MOL0     H 7417  10.196   2.308   6.040 -0.6518  1.1224 -1.3411
   55MOL0     H 7418  10.343   2.376   5.976 -3.3055  3.6978  0.2991
   55MOL0     H 7419  10.391   2.165   6.094 -1.0888  3.3777  0.5600
   55MOL0     H 7420  10.252   2.085   6.008 -2.1983  1.5856 -0.3887
   55MOL0     H 7421  10.576   2.073   5.730  1.2877 -2.6033  0.7236
   55MOL0     H 7422   9.970   2.383   5.544  1.0802 -0.2375  0.3981
   55MOL0     H 7423   9.778   2.466   5.408 -3.3740  1.6010 -1.4294
   55MOL0     H 7424   9.647   2.373   5.383  2.1564  1.3463 -2.4919
   55MOL0     H 7425   9.677   2.444   5.553 -0.8972  0.8408 -0.5513
   56MOL0     O 7426   1.815  10.954   9.648 -0.4494 -0.3978 -0.5389
   56MOL0     C 7427   1.852  11.031   9.559  0.9244  0.3450  0.4893
   56MOL0     O 7428   1.961  11.109   9.558 -0.0535  0.5743  0.1937
   56MOL0     C 7429   2.034  11.129   9.672 -0.6654 -0.2223  1.0072
   56MOL0     C 7430   2.042  11.257   9.731 -0.0900 -0.1739  0.0950
   56MOL0     C 7431   2.128  11.281   9.841 -0.8959  0.4056  0.4064
   56MOL0     C 7432   2.202  11.172   9.898  0.1710 -0.6547 -0.9672
   56MOL0     O 7433   2.291  11.188  10.003 -0.1887 -0.7562  0.5479
   56MOL0     C 7434   2.292  11.308  10.080  0.1015  0.6349  0.2588
   56MOL0     C 7435   2.374  11.279  10.201  0.3326 -0.0808  1.1114
   56MOL0     C 7436   2.330  11.163  10.291  0.0080 -1.0967 -0.2293
   56MOL0     C 7437   2.428  11.134  10.406  0.1271  0.1703 -0.1805
   56MOL0     C 7438   2.361  11.048  10.519 -0.2760  0.0109 -0.5995
   56MOL0     C 7439   2.328  10.897  10.469 -0.1724  0.1223 -0.3530
   56MOL0     C 7440   2.465  10.820  10.437 -0.2990 -0.5798 -1.2296
   56MOL0     C 7441   2.437  10.673  10.409 -0.5185  0.2015 -0.9096
   56MOL0     N 7442   2.568  10.608  10.380 -1.2315  0.2074  0.4164
   56MOL0     C 7443   2.645  10.634  10.269 -0.3309 -0.0520 -0.9729
   56MOL0     C 7444   2.754  10.558  10.288  0.2073  0.1728  1.4464
   56MOL0     C 7445   2.882  10.537  10.210 -0.1366 -0.8175 -0.0775
   56MOL0     C 7446   3.014  10.608  10.263  0.0214  0.4711 -0.2241
   56MOL0     C 7447   3.067  10.574  10.403 -0.6141  0.2036  0.8076
   56MOL0     C 7448   3.212  10.640  10.401  0.9792  0.4176 -0.1044
   56MOL0     O 7449   3.269  10.674  10.529  0.0513 -0.2473 -0.9951
   56MOL0     C 7450   3.390  10.725  10.523 -0.5556 -0.2980 -0.5035
   56MOL0     C 7451   3.458  10.763  10.644  0.7779  0.2780  0.4784
   56MOL0     C 7452   3.595  10.810  10.647 -0.2164  0.3786 -0.3353
   56MOL0     C 7453   3.660  10.830  10.528  1.1923  0.5868  0.2852
   56MOL0     C 7454   3.793  10.875  10.520  0.6010 -0.0306 -0.5193
   56MOL0     O 7455   3.866  10.854  10.633  0.2166  0.0450  0.0486
   56MOL0     C 7456   4.000  10.898  10.641 -1.1081 -0.3297 -0.7449
   56MOL0     C 7457   4.095  10.913  10.542 -0.3244  0.3390 -0.6386
   56MOL0     C 7458   4.225  10.961  10.572  0.8813  0.1295  0.1366
   56MOL0     C 7459   4.266  10.994  10.703  0.4104  0.4108  0.8325
   56MOL0     O 7460   4.385  11.047  10.742 -0.3716 -0.5705 -0.3624
   56MOL0     C 7461   4.481  11.036  10.636  0.1566  0.2414 -0.5194
   56MOL0     C 7462   4.615  11.050  10.694 -0.3410 -1.1757  0.0964
   56MOL0     C 7463   4.633  11.200  10.738 -0.2449  0.5182  0.8755
   56MOL0     C 7464   4.774  11.227  10.777 -0.0228  0.0425 -0.4157
   56MOL0     C 7465   4.795  11.382  10.799 -0.0575  0.7895  0.4622
   56MOL0     C 7466   4.888  11.407  10.919  0.0642  0.3885  0.0068
   56MOL0     C 7467   5.034  11.421  10.857  0.0028  0.3330  1.0382
   56MOL0     C 7468   5.099  11.290  10.827 -0.1975 -0.1906  0.2026
   56MOL0    Cl 7469   5.115  11.200  10.985 -0.0915  0.3612  0.2015
   56MOL0     C 7470   4.169  10.967  10.806  0.3032  0.4077  0.2934
   56MOL0     C 7471   4.048  10.916  10.772 -0.2549 -0.9134 -0.2907
   56MOL0     O 7472   3.833  10.939  10.421  0.8171  0.0588  0.7664
   56MOL0     C 7473   3.600  10.794  10.407  0.8559  0.3047  0.0550
   56MOL0     C 7474   3.457  10.756  10.406 -0.2875 -0.1274 -0.5192
   56MOL0     N 7475   2.740  10.480  10.399 -0.7640 -0.2363 -0.1960
   56MOL0     N 7476   2.632  10.513  10.463  0.1522  0.1839  0.6937
   56MOL0     C 7477   2.198  11.046   9.836  0.4608 -0.4268  0.6005
   56MOL0     C 7478   2.111  11.017   9.727  0.5485 -0.9924  0.2112
   56MOL0     C 7479   1.774  11.055   9.428 -0.5438  0.4676  0.3321
   56MOL0     C 7480   1.846  11.103   9.316 -0.5356 -0.4133 -0.0543
   56MOL0     C 7481   1.779  11.136   9.194 -0.3279  0.4285 -0.0817
   56MOL0     C 7482   1.636  11.108   9.180 -0.8345 -0.3052 -0.2288
   56MOL0     O 7483   1.566  11.135   9.070  0.1015  0.4297  0.1381
   56MOL0     C 7484   1.462  11.226   9.082 -0.6539 -0.2062 -0.8235
   56MOL0     C 7485   1.413  11.270   8.940 -0.3844 -0.0355  0.2563
   56MOL0     C 7486   1.509  11.363   8.874  0.9584  0.7620  0.7368
   56MOL0     C 7487   1.484  11.387   8.729 -0.4184 -0.4886  0.3657
   56MOL0     C 7488   1.542  11.283   8.648 -0.0574  0.2571 -0.2424
   56MOL0     C 7489   1.593  11.207   8.563 -0.0400  0.1829  0.0119
   56MOL0     C 7490   1.567  11.069   9.298 -0.1654  0.7511 -0.3755
   56MOL0     C 7491   1.633  11.037   9.417  0.3497  0.2591  0.0168
   56MOL0     C 7492   1.549  10.975   9.531  0.1219  0.2724 -0.0219
   56MOL0     H 7493   1.974  11.328   9.685  1.1876  1.3514  0.4691
   56MOL0     H 7494   2.129  11.380   9.886  2.3834 -0.2528  2.0663
   56MOL0     H 7495   2.337  11.381  10.012 -0.0661 -1.7624 -2.6881
   56MOL0     H 7496   2.192  11.336  10.112  0.4952  2.4791 -0.0248
   56MOL0     H 7497   2.399  11.364  10.265 -1.5215  0.5154  1.0910
   56MOL0     H 7498   2.467  11.244  10.153 -0.8170 -0.0037 -1.3217
   56MOL0     H 7499   2.317  11.078  10.223  0.5433 -0.6413 -0.9143
   56MOL0     H 7500   2.238  11.188  10.346  0.3077 -0.0503 -0.1857
   56MOL0     H 7501   2.525  11.096  10.374  1.3944  2.4297  0.7629
   56MOL0     H 7502   2.468  11.228  10.445 -2.6442  1.4056 -0.0507
   56MOL0     H 7503   2.434  11.042  10.601  1.1250  0.0052 -1.8049
   56MOL0     H 7504   2.270  11.095  10.556 -0.2743  1.3459 -2.1770
   56MOL0     H 7505   2.278  10.846  10.552 -0.6254  2.9017  1.2190
   56MOL0     H 7506   2.270  10.901  10.376  0.0926 -1.4734 -0.6175
   56MOL0     H 7507   2.543  10.827  10.514 -2.1154 -1.4961  0.8163
   56MOL0     H 7508   2.510  10.867  10.350 -0.1129  0.6562 -0.4999
   56MOL0     H 7509   2.391  10.621  10.493  1.6389  0.7407  0.7133
   56MOL0     H 7510   2.362  10.659  10.330 -0.7068 -0.3929 -0.6335
   56MOL0     H 7511   2.638  10.714  10.196 -1.6299 -0.4493 -1.3188
   56MOL0     H 7512   2.900  10.430  10.190 -0.9068 -1.3574  1.8608
   56MOL0     H 7513   2.855  10.572  10.110  1.8119 -4.5037 -2.1234
   56MOL0     H 7514   3.102  10.570  10.209 -0.1078 -0.3643  0.1437
   56MOL0     H 7515   2.997  10.714  10.243  0.1608  0.0710 -2.9754
   56MOL0     H 7516   3.088  10.468  10.421  0.2726  0.2316  0.0525
   56MOL0     H 7517   2.998  10.618  10.476 -1.3271  1.5125 -0.5885
   56MOL0     H 7518   3.186  10.731  10.346 -2.4651 -1.1607 -1.3795
   56MOL0     H 7519   3.279  10.573  10.347  1.7068  3.0750 -2.7923
   56MOL0     H 7520   3.399  10.748  10.734 -0.3798 -1.1262 -0.4660
   56MOL0     H 7521   3.644  10.847  10.736 -2.1250  4.0908 -0.6375
   56MOL0     H 7522   4.072  10.889  10.439 -1.9299  1.2447 -0.5281
   56MOL0     H 7523   4.297  10.973  10.491  0.1725  0.5781 -0.4376
   56MOL0     H 7524   4.483  10.940  10.584  1.6420  0.7317 -1.4339
   56MOL0     H 7525   4.460  11.101  10.551  0.0311 -1.2188 -1.6572
   56MOL0     H 7526   4.643  10.981  10.774 -2.1427  0.3710  2.1790
   56MOL0     H 7527   4.683  11.037  10.610 -1.3961 -1.7228 -0.7042
   56MOL0     H 7528   4.600  11.263  10.655  0.0895 -1.7906 -1.1194
   56MOL0     H 7529   4.567  11.219  10.822 -2.2162  0.4828 -0.6004
   56MOL0     H 7530   4.847  11.194  10.702  1.0959 -0.6401  0.9200
   56MOL0     H 7531   4.801  11.179  10.871 -3.0631 -1.4338 -0.1857
   56MOL0     H 7532   4.698  11.417  10.833 -0.5624  1.3906 -1.4422
   56MOL0     H 7533   4.827  11.438  10.710 -1.0650  2.1152  0.9063
   56MOL0     H 7534   4.863  11.501  10.971  0.1454 -1.4135  3.6175
   56MOL0     H 7535   4.885  11.333  11.000 -2.2365  0.7285  0.3156
   56MOL0     H 7536   5.102  11.472  10.926  1.3377 -1.4785  1.1207
   56MOL0     H 7537   5.035  11.494  10.776 -0.4516 -0.2621  0.4809
   56MOL0     H 7538   5.052  11.233  10.747  0.5628  0.4121 -0.6963
   56MOL0     H 7539   5.195  11.320  10.784 -1.0977  2.9429  0.1719
   56MOL0     H 7540   4.185  10.980  10.912  1.1585 -0.8907  0.3466
   56MOL0     H 7541   3.978  10.902  10.854 -2.0638 -0.5893 -1.7277
   56MOL0     H 7542   3.652  10.801  10.312 -0.4941  2.7574 -0.5959
   56MOL0     H 7543   3.409  10.747  10.309  1.9947  1.5114 -1.9088
   56MOL0     H 7544   2.258  10.964   9.873  0.3232 -1.8626 -2.1434
   56MOL0     H 7545   2.106  10.917   9.683  1.3650 -0.0426 -2.1908
   56MOL0     H 7546   1.954  11.108   9.328 -0.8451  3.8279  2.4513
   56MOL0     H 7547   1.840  11.168   9.111  0.6269 -0.1087  0.3983
   56MOL0     H 7548   1.493  11.317   9.133 -3.7335  0.2107  0.5309
   56MOL0     H 7549   1.376  11.176   9.128  1.3904 -3.7083 -0.4514
   56MOL0     H 7550   1.316  11.321   8.950 -0.3366  0.0077  0.5278
   56MOL0     H 7551   1.398  11.181   8.879 -0.1835  0.9343 -1.2406
   56MOL0     H 7552   1.612  11.327   8.883  0.8970 -0.4838 -2.4165
   56MOL0     H 7553   1.504  11.462   8.921  1.0052  0.3149  1.7215
   56MOL0     H 7554   1.376  11.393   8.711 -0.6997  0.0095  2.0777
   56MOL0     H 7555   1.541  11.477   8.706 -0.9857 -0.1954  0.0837
   56MOL0     H 7556   1.647  11.150   8.490 -1.4022 -1.8258  0.4880
   56MOL0     H 7557   1.461  11.046   9.295 -0.1560  0.1986  1.6716
   56MOL0     H 7558   1.585  11.018   9.625 -0.5931 -1.2071  0.9695
   56MOL0     H 7559   1.442  10.996   9.520 -0.0495 -0.6427 -0.1592
   56MOL0     H 7560   1.555  10.866   9.526  1.4073  0.3714 -1.1066
   57MOL0     O 7561   8.516   4.568  10.933 -0.2305 -0.1395 -0.2294
   57MOL0     C 7562   8.489   4.508  10.831  0.5289  0.0577  0.3366
   57MOL0     O 7563   8.565   4.407  10.780 -0.5500 -0.2009  0.2397
   57MOL0     C 7564   8.684   4.368  10.835  0.7455 -0.1820 -0.2587
   57MOL0     C 7565   8.791   4.459  10.831  1.4608 -0.5083 -0.0214
   57MOL0     C 7566   8.909   4.416  10.893  1.0103 -0.4944  0.8013
   57MOL0     C 7567   8.921   4.293  10.945 -0.7820  0.8107  0.0074
   57MOL0     O 7568   9.045   4.260  10.987  0.1840  0.7461 -1.3312
   57MOL0     C 7569   9.053   4.219  11.121  0.4926  0.2217  0.2851
   57MOL0     C 7570   9.202   4.166  11.137  0.5821  0.1001 -0.1279
   57MOL0     C 7571   9.309   4.268  11.153 -0.4664  0.3345 -0.1793
   57MOL0     C 7572   9.259   4.383  11.253 -0.2961  0.4157  0.5141
   57MOL0     C 7573   9.366   4.477  11.291  0.0421 -0.4508 -1.0197
   57MOL0     C 7574   9.453   4.420  11.403  0.0701 -0.6232  0.1469
   57MOL0     C 7575   9.561   4.526  11.439  0.2519 -0.2830 -0.1681
   57MOL0     C 7576   9.699   4.502  11.373  0.1319 -1.1329  0.3865
   57MOL0     N 7577   9.777   4.622  11.364 -0.6624 -0.4079  0.0803
   57MOL0     C 7578   9.758   4.730  11.278 -0.0365 -0.5766  0.4309
   57MOL0     C 7579   9.855   4.824  11.314  0.5388  0.0229 -1.4014
   57MOL0     C 7580   9.865   4.958  11.231  0.7391  0.8496 -0.2453
   57MOL0     C 7581   9.896   4.926  11.082  0.5755 -0.5071  0.4879
   57MOL0     C 7582  10.043   4.904  11.060 -0.9970 -1.0792 -0.1614
   57MOL0     C 7583  10.100   4.767  11.109  0.5265 -0.4182 -0.1893
   57MOL0     O 7584  10.228   4.746  11.058  0.3962  0.0103 -0.3919
   57MOL0     C 7585  10.282   4.620  11.084  1.3622  0.0722  0.4958
   57MOL0     C 7586  10.400   4.582  11.022  0.4691 -0.4709  0.5953
   57MOL0     C 7587  10.455   4.464  11.033 -0.5565  0.6295  0.3354
   57MOL0     C 7588  10.409   4.373  11.131  0.1050  0.0514 -0.3697
   57MOL0     C 7589  10.476   4.241  11.150 -0.3461  1.0710 -0.1576
   57MOL0     O 7590  10.616   4.225  11.120  0.0857 -0.2952 -0.3365
   57MOL0     C 7591  10.675   4.111  11.141 -0.0347 -0.1351 -0.5915
   57MOL0     C 7592  10.676   4.034  11.266  0.2783 -0.8060  0.1615
   57MOL0     C 7593  10.742   3.915  11.265 -0.5011  0.0739 -0.5594
   57MOL0     C 7594  10.818   3.866  11.157  0.9973  0.2079  0.7568
   57MOL0     O 7595  10.876   3.743  11.171 -0.0582 -0.2766  0.4077
   57MOL0     C 7596  10.980   3.744  11.261  0.2743  0.6451 -0.2561
   57MOL0     C 7597  11.111   3.793  11.203 -0.1614 -0.9912 -0.1137
   57MOL0     C 7598  11.160   3.709  11.083  0.1675 -0.2606 -0.9177
   57MOL0     C 7599  11.280   3.783  11.020  0.1689 -0.1928 -0.0446
   57MOL0     C 7600  11.344   3.711  10.895  1.0540  0.6158 -0.1560
   57MOL0     C 7601  11.425   3.595  10.944  0.0602  0.1136 -0.8167
   57MOL0     C 7602  11.493   3.546  10.820 -0.9765 -0.1289  0.7214
   57MOL0     C 7603  11.605   3.447  10.860  0.8376 -0.6694 -0.2873
   57MOL0    Cl 7604  11.761   3.537  10.881  0.2880  0.2676 -0.0478
   57MOL0     C 7605  10.814   3.934  11.037 -0.0493 -1.1096  0.0403
   57MOL0     C 7606  10.745   4.054  11.028  0.3838 -0.3181 -0.1074
   57MOL0     O 7607  10.398   4.146  11.167  0.2518 -0.0394 -0.3569
   57MOL0     C 7608  10.295   4.404  11.197 -0.3054 -0.7642  0.3007
   57MOL0     C 7609  10.232   4.526  11.174  0.3720  0.1462 -0.0783
   57MOL0     N 7610   9.932   4.765  11.412  0.2243 -0.1166  0.3707
   57MOL0     N 7611   9.888   4.650  11.440 -0.9173 -0.0354 -0.7049
   57MOL0     C 7612   8.825   4.199  10.939  0.7221 -0.4510 -0.5204
   57MOL0     C 7613   8.702   4.239  10.891  0.3075 -0.7598  0.1381
   57MOL0     C 7614   8.351   4.536  10.765 -0.8640  0.0747 -0.2979
   57MOL0     C 7615   8.288   4.655  10.793  0.1240  0.1363  0.1578
   57MOL0     C 7616   8.171   4.703  10.740 -0.9612  0.4716  0.4375
   57MOL0     C 7617   8.114   4.622  10.640 -0.4206  0.3010 -0.3987
   57MOL0     O 7618   7.993   4.640  10.577  0.4640  0.7378 -0.7668
   57MOL0     C 7619   7.887   4.684  10.662  0.9963 -0.2555 -0.9198
   57MOL0     C 7620   7.753   4.638  10.614 -0.4908  0.1543 -0.5401
   57MOL0     C 7621   7.742   4.484  10.638 -0.2879 -0.0966 -0.5018
   57MOL0     C 7622   7.658   4.419  10.530  0.4716  0.2241 -0.2808
   57MOL0     C 7623   7.651   4.274  10.559  0.2245 -0.5119 -0.4675
   57MOL0     C 7624   7.645   4.157  10.575  0.5924 -0.5955 -0.0263
   57MOL0     C 7625   8.170   4.503  10.608 -0.6296 -0.1124 -0.9306
   57MOL0     C 7626   8.296   4.456  10.657  0.1619 -0.5641  0.3373
   57MOL0     C 7627   8.342   4.316  10.618  0.5519 -0.4198 -0.6040
   57MOL0     H 7628   8.777   4.559  10.790  4.0373 -0.6841 -1.5221
   57MOL0     H 7629   9.001   4.472  10.886  2.9549 -3.6454 -3.1838
   57MOL0     H 7630   9.030   4.296  11.195 -2.1489 -0.2325  0.0489
   57MOL0     H 7631   8.980   4.139  11.137 -0.8550  1.4618  0.6003
   57MOL0     H 7632   9.228   4.101  11.053 -0.8347 -2.7162  1.4490
   57MOL0     H 7633   9.194   4.103  11.226  0.0606 -0.3616 -0.4940
   57MOL0     H 7634   9.340   4.302  11.054  0.1400 -1.3490 -0.6130
   57MOL0     H 7635   9.406   4.232  11.190 -0.9403  1.1401  1.9555
   57MOL0     H 7636   9.186   4.449  11.204 -0.6804 -0.2855  0.1275
   57MOL0     H 7637   9.206   4.341  11.339  0.1274 -1.9458 -0.3088
   57MOL0     H 7638   9.433   4.489  11.205 -0.8262  0.5120 -1.5760
   57MOL0     H 7639   9.315   4.566  11.327 -2.4621 -2.2138  0.0683
   57MOL0     H 7640   9.386   4.407  11.489 -1.7582 -2.9914 -1.5070
   57MOL0     H 7641   9.498   4.324  11.375 -0.5889 -1.3440  1.4163
   57MOL0     H 7642   9.580   4.520  11.547  0.7851  0.2061 -0.2276
   57MOL0     H 7643   9.526   4.628  11.424  2.7795  0.6611 -0.2056
   57MOL0     H 7644   9.754   4.425  11.428  0.6608 -0.8335  0.2862
   57MOL0     H 7645   9.683   4.481  11.267  1.2891  1.3265 -0.3659
   57MOL0     H 7646   9.677   4.755  11.210  2.6576  3.8556 -1.5709
   57MOL0     H 7647   9.762   4.995  11.238 -0.1167 -1.5691  0.9083
   57MOL0     H 7648   9.939   5.027  11.274  4.3508 -2.0649 -1.2601
   57MOL0     H 7649   9.829   4.846  11.048 -2.9787  0.9405  3.3444
   57MOL0     H 7650   9.866   5.005  11.013  1.6866 -0.3587  0.1615
   57MOL0     H 7651  10.110   4.985  11.089 -0.8797 -1.3763  0.4216
   57MOL0     H 7652  10.058   4.905  10.952  0.3927  0.8812 -0.0019
   57MOL0     H 7653  10.020   4.700  11.078 -1.6011  2.0489 -0.2971
   57MOL0     H 7654  10.115   4.764  11.218 -2.6260  2.6651  0.5111
   57MOL0     H 7655  10.437   4.651  10.947 -0.8241 -1.0651 -0.6485
   57MOL0     H 7656  10.544   4.444  10.974 -0.1067 -0.8553  1.4594
   57MOL0     H 7657  10.619   4.062  11.355  0.8937  2.1414 -0.2616
   57MOL0     H 7658  10.731   3.847  11.349  4.3181 -0.9391 -0.4291
   57MOL0     H 7659  10.959   3.800  11.353 -1.1133  0.0625 -0.1976
   57MOL0     H 7660  10.989   3.642  11.300 -0.7007  0.8202  0.4746
   57MOL0     H 7661  11.100   3.898  11.174 -2.2495 -1.6974 -2.2099
   57MOL0     H 7662  11.187   3.777  11.280  1.8957 -1.2640 -2.0986
   57MOL0     H 7663  11.205   3.619  11.126  0.0255  0.1911  0.2084
   57MOL0     H 7664  11.084   3.697  11.005 -1.3540  0.6572  0.3731
   57MOL0     H 7665  11.369   3.792  11.084  0.5126 -1.8471 -0.2341
   57MOL0     H 7666  11.247   3.883  10.991 -1.9069 -1.1106 -1.0233
   57MOL0     H 7667  11.399   3.780  10.830  0.0052  0.5764 -1.1242
   57MOL0     H 7668  11.262   3.664  10.839  1.1669 -0.0297  0.2217
   57MOL0     H 7669  11.493   3.637  11.018 -1.8579  1.9698 -0.0162
   57MOL0     H 7670  11.355   3.523  10.988  0.8901  0.3391  0.9547
   57MOL0     H 7671  11.531   3.634  10.766 -0.7158 -1.8731 -2.1404
   57MOL0     H 7672  11.426   3.481  10.764 -0.1140 -0.8948  0.5602
   57MOL0     H 7673  11.583   3.390  10.951 -1.6956 -0.5782 -0.7748
   57MOL0     H 7674  11.613   3.369  10.784  0.1479 -0.5265 -0.5151
   57MOL0     H 7675  10.866   3.900  10.948  1.5924 -2.8724  1.5966
   57MOL0     H 7676  10.739   4.114  10.938 -3.2760  1.5697  1.1731
   57MOL0     H 7677  10.259   4.340  11.276  1.1604 -0.2575  1.4343
   57MOL0     H 7678  10.140   4.552  11.225 -0.3753  1.2895 -1.9034
   57MOL0     H 7679   8.835   4.103  10.989 -0.2230  0.7077  2.0401
   57MOL0     H 7680   8.622   4.166  10.901  2.2285 -3.0526 -0.2996
   57MOL0     H 7681   8.330   4.720  10.870  0.1703  0.2506  0.0379
   57MOL0     H 7682   8.142   4.803  10.771 -1.0470  1.4735 -2.5315
   57MOL0     H 7683   7.877   4.793  10.661 -0.4177 -0.3626 -0.3973
   57MOL0     H 7684   7.909   4.654  10.765 -0.5609  3.6329  0.7468
   57MOL0     H 7685   7.732   4.672  10.512 -0.0839  0.1171 -0.6378
   57MOL0     H 7686   7.677   4.684  10.678 -1.7682 -1.2890 -0.9735
   57MOL0     H 7687   7.691   4.475  10.734  3.4982  2.0227  1.9643
   57MOL0     H 7688   7.840   4.436  10.636 -0.3712 -0.3414  0.7356
   57MOL0     H 7689   7.557   4.458  10.543  0.5389 -0.2386  1.8655
   57MOL0     H 7690   7.684   4.434  10.424  4.5199  0.6795  0.6108
   57MOL0     H 7691   7.640   4.052  10.599  2.7711 -0.7773 -0.2335
   57MOL0     H 7692   8.119   4.436  10.540  1.4864 -2.2434 -0.5466
   57MOL0     H 7693   8.367   4.273  10.715 -0.5604 -1.5458 -0.7842
   57MOL0     H 7694   8.263   4.250  10.580  0.0296  0.2864 -0.7527
   57MOL0     H 7695   8.425   4.329  10.548  0.4311 -0.1497 -0.6986
   58MOL0     O 7696   3.140   8.424   9.767  0.3437 -0.2925  0.6531
   58MOL0     C 7697   3.117   8.416   9.889  0.0964 -0.4075 -0.8911
   58MOL0     O 7698   3.200   8.372   9.988  0.2675 -0.3778  0.1627
   58MOL0     C 7699   3.317   8.299   9.944  1.0935 -1.0167 -0.2018
   58MOL0     C 7700   3.337   8.158   9.984 -0.3515  0.6398  0.3043
   58MOL0     C 7701   3.466   8.096   9.956 -1.0887  0.7434 -0.9639
   58MOL0     C 7702   3.558   8.167   9.884 -0.6684 -0.5917  0.2216
   58MOL0     O 7703   3.677   8.106   9.862  0.0906  0.5361  0.7432
   58MOL0     C 7704   3.779   8.169   9.791  1.0063 -0.0216  0.4598
   58MOL0     C 7705   3.909   8.087   9.800 -0.2297  1.2314  0.3713
   58MOL0     C 7706   4.012   8.165   9.712  0.4193 -0.4366 -0.6624
   58MOL0     C 7707   4.142   8.170   9.804  0.8349  0.2625 -0.2211
   58MOL0     C 7708   4.213   8.038   9.811 -0.4241  0.2439 -0.4020
   58MOL0     C 7709   4.310   8.030   9.934  0.1615  0.4495  0.3787
   58MOL0     C 7710   4.419   7.922   9.904  0.1712 -0.3236 -1.3626
   58MOL0     C 7711   4.507   7.905  10.027 -0.1273 -0.2750 -0.1965
   58MOL0     N 7712   4.601   7.794  10.000  0.4886 -0.1053  0.3240
   58MOL0     C 7713   4.732   7.788   9.950 -0.5685 -0.5160 -0.8177
   58MOL0     C 7714   4.775   7.666   9.986  0.2948  1.2437  0.2817
   58MOL0     C 7715   4.910   7.599   9.961  0.2392 -0.2071  0.9070
   58MOL0     C 7716   5.016   7.686  10.026  0.2113 -0.4438 -0.0745
   58MOL0     C 7717   5.149   7.621   9.981 -0.1967 -0.3361  0.0319
   58MOL0     C 7718   5.269   7.684  10.052 -0.0962  0.7469  0.0835
   58MOL0     O 7719   5.258   7.696  10.196  0.2363  0.4357 -0.0501
   58MOL0     C 7720   5.362   7.663  10.276 -0.0689 -0.2510 -0.3464
   58MOL0     C 7721   5.486   7.633  10.240  0.1405 -0.5624  0.3863
   58MOL0     C 7722   5.587   7.602  10.332  1.0679  0.3966  0.5024
   58MOL0     C 7723   5.557   7.589  10.464  1.0133 -0.5262 -0.1528
   58MOL0     C 7724   5.658   7.538  10.560 -0.4013 -0.2212 -1.1236
   58MOL0     O 7725   5.795   7.587  10.548 -0.4458  0.1185 -0.0633
   58MOL0     C 7726   5.899   7.536  10.619  0.1995 -0.7653  0.3657
   58MOL0     C 7727   5.893   7.470  10.738 -0.2062  0.1572  0.3219
   58MOL0     C 7728   6.020   7.432  10.798  0.6556  0.2700 -0.0946
   58MOL0     C 7729   6.140   7.440  10.729 -0.2430 -0.4698  0.5192
   58MOL0     O 7730   6.257   7.413  10.788  0.1572 -0.2503 -0.0392
   58MOL0     C 7731   6.278   7.274  10.819 -0.6699 -0.1608  0.1274
   58MOL0     C 7732   6.424   7.233  10.812  0.8426  0.3501 -1.4513
   58MOL0     C 7733   6.430   7.090  10.842 -0.5428 -0.5994  0.4820
   58MOL0     C 7734   6.575   7.049  10.846  0.1843  0.4526 -0.7870
   58MOL0     C 7735   6.592   6.901  10.859 -0.2188  0.3582  0.1511
   58MOL0     C 7736   6.726   6.846  10.810  0.0061  0.7834  0.6723
   58MOL0     C 7737   6.721   6.688  10.792  0.0331  0.3470  0.2713
   58MOL0     C 7738   6.610   6.632  10.696  0.5318  0.2777  1.0691
   58MOL0    Cl 7739   6.619   6.726  10.551  0.0720 -0.2425  0.3040
   58MOL0     C 7740   6.141   7.514  10.615 -0.8288  0.0753 -0.8624
   58MOL0     C 7741   6.022   7.561  10.558 -0.2165 -0.2812 -0.2142
   58MOL0     O 7742   5.620   7.451  10.648  0.2454  0.0554  0.0322
   58MOL0     C 7743   5.434   7.631  10.506  0.3803 -0.1573 -0.0544
   58MOL0     C 7744   5.332   7.674  10.416  0.7097 -0.4098  1.0714
   58MOL0     N 7745   4.678   7.590  10.045 -0.2659 -0.2960  0.0505
   58MOL0     N 7746   4.569   7.666  10.040 -0.0584  0.7265  0.6399
   58MOL0     C 7747   3.537   8.296   9.840 -0.3355 -0.5479  0.7118
   58MOL0     C 7748   3.418   8.362   9.871 -0.5484  0.8040  0.3876
   58MOL0     C 7749   2.991   8.482   9.928 -0.3922 -0.3413  0.0165
   58MOL0     C 7750   2.874   8.405   9.917  0.3302  0.4428  0.0122
   58MOL0     C 7751   2.754   8.462   9.950 -0.0092 -0.3507 -0.5899
   58MOL0     C 7752   2.741   8.600   9.992  0.3297  0.8622  0.4488
   58MOL0     O 7753   2.615   8.644  10.021  0.5613  1.3164  0.0902
   58MOL0     C 7754   2.597   8.782  10.052  0.4202  0.5437 -0.7343
   58MOL0     C 7755   2.601   8.793  10.211  0.4389 -0.2827  0.2041
   58MOL0     C 7756   2.473   8.752  10.278  0.3074 -1.3534 -0.2363
   58MOL0     C 7757   2.470   8.796  10.425 -0.0208 -0.2668  1.4584
   58MOL0     C 7758   2.342   8.758  10.483 -0.2861  0.5839 -0.1114
   58MOL0     C 7759   2.240   8.712  10.533 -0.1950 -0.0093  1.0620
   58MOL0     C 7760   2.863   8.670  10.008  0.6811  0.8335 -0.5018
   58MOL0     C 7761   2.989   8.613   9.970  0.1382  0.9373 -0.0065
   58MOL0     C 7762   3.109   8.700   9.982  0.0337  0.0153 -0.5396
   58MOL0     H 7763   3.267   8.088  10.028  2.4239 -3.3637 -1.0041
   58MOL0     H 7764   3.483   7.998  10.000 -0.6590  0.5657 -1.5228
   58MOL0     H 7765   3.751   8.180   9.686  1.1385  2.3770  0.6178
   58MOL0     H 7766   3.799   8.272   9.823 -1.7005  0.6204  0.3377
   58MOL0     H 7767   3.895   7.984   9.768  1.1332  1.5477 -1.4246
   58MOL0     H 7768   3.948   8.078   9.901 -1.9206 -0.4838  0.9214
   58MOL0     H 7769   3.981   8.268   9.689  0.3845 -0.6605 -1.6715
   58MOL0     H 7770   4.030   8.111   9.618  0.4013 -0.7191 -0.5021
   58MOL0     H 7771   4.217   8.241   9.769  2.0146 -1.2519 -0.9204
   58MOL0     H 7772   4.111   8.201   9.904 -2.6947  1.8675 -1.6734
   58MOL0     H 7773   4.143   7.954   9.817 -0.2217 -0.1608 -2.9192
   58MOL0     H 7774   4.271   8.019   9.721  0.7713  0.3144  0.3262
   58MOL0     H 7775   4.354   8.126   9.963  0.0903  0.4987  0.3259
   58MOL0     H 7776   4.258   7.989  10.021  1.7094 -1.4755  0.4428
   58MOL0     H 7777   4.473   7.953   9.814  1.2294 -2.1164 -1.3915
   58MOL0     H 7778   4.371   7.825   9.889 -0.8490  0.3655 -2.7062
   58MOL0     H 7779   4.563   7.997  10.049  0.5874 -0.6326 -0.4641
   58MOL0     H 7780   4.451   7.876  10.116 -1.2857 -0.9766 -1.1196
   58MOL0     H 7781   4.797   7.859   9.900 -0.5549  0.3218  0.3418
   58MOL0     H 7782   4.912   7.501  10.011  0.2339  1.2872  4.0146
   58MOL0     H 7783   4.932   7.589   9.854  0.1901  0.0629  0.8725
   58MOL0     H 7784   5.015   7.785   9.977 -1.4228 -0.1317  0.5179
   58MOL0     H 7785   5.010   7.694  10.135  1.7811  1.6261 -0.0743
   58MOL0     H 7786   5.168   7.632   9.874  2.3838 -0.2769  0.4261
   58MOL0     H 7787   5.128   7.515   9.997 -1.7960  0.3004  2.8018
   58MOL0     H 7788   5.288   7.787  10.018 -0.7707  0.0580 -2.6053
   58MOL0     H 7789   5.350   7.616  10.025 -2.0605 -2.7297  2.2808
   58MOL0     H 7790   5.506   7.641  10.134 -3.2955  1.4647 -0.2551
   58MOL0     H 7791   5.688   7.578  10.298 -0.3936 -3.3499 -1.9550
   58MOL0     H 7792   5.792   7.468  10.777 -0.7401  2.5102 -0.7801
   58MOL0     H 7793   6.016   7.374  10.890 -3.4829 -0.2870 -0.4260
   58MOL0     H 7794   6.226   7.254  10.913 -0.2150 -3.2591 -0.1766
   58MOL0     H 7795   6.217   7.212  10.752 -0.3056  0.0298 -0.3878
   58MOL0     H 7796   6.458   7.258  10.711  4.2583  3.2182  0.2039
   58MOL0     H 7797   6.484   7.291  10.882 -1.4812 -1.1369  2.0919
   58MOL0     H 7798   6.372   7.069  10.932  0.2070  2.2483  1.7276
   58MOL0     H 7799   6.385   7.046  10.752  0.2912  1.8545 -1.2262
   58MOL0     H 7800   6.627   7.087  10.935  0.2738 -1.3505 -0.0221
   58MOL0     H 7801   6.632   7.085  10.760 -0.2482  1.4351 -0.6765
   58MOL0     H 7802   6.510   6.851  10.806 -1.3769  0.4683  1.7826
   58MOL0     H 7803   6.566   6.867  10.959 -3.2469 -0.6954 -0.8736
   58MOL0     H 7804   6.747   6.893  10.713 -1.7012 -1.5010 -0.9331
   58MOL0     H 7805   6.807   6.876  10.876  2.2326 -0.1115 -1.4837
   58MOL0     H 7806   6.718   6.642  10.891 -2.8915 -0.8462 -0.2580
   58MOL0     H 7807   6.819   6.675  10.745  0.2337  3.2935 -0.3345
   58MOL0     H 7808   6.623   6.524  10.678 -4.4108 -0.5162  0.8304
   58MOL0     H 7809   6.510   6.647  10.738 -0.5741  3.9717 -2.2984
   58MOL0     H 7810   6.229   7.531  10.555 -0.6876 -0.7518 -0.8991
   58MOL0     H 7811   6.020   7.620  10.466  1.1483 -0.8651 -0.6391
   58MOL0     H 7812   5.407   7.641  10.611 -2.2269  2.5410 -0.8429
   58MOL0     H 7813   5.230   7.695  10.448 -0.1289 -0.8445 -1.1176
   58MOL0     H 7814   3.609   8.342   9.773 -1.6443 -0.0184 -0.3761
   58MOL0     H 7815   3.395   8.466   9.851  0.5074  1.2194  1.2229
   58MOL0     H 7816   2.877   8.303   9.880 -0.9447 -0.6144  2.6287
   58MOL0     H 7817   2.667   8.397   9.938 -0.5743 -0.0566  1.4605
   58MOL0     H 7818   2.498   8.815  10.018 -0.3607  0.1854  1.1055
   58MOL0     H 7819   2.667   8.842   9.992 -0.9982  1.8586 -1.1408
   58MOL0     H 7820   2.619   8.895  10.247  2.1242  0.4941 -2.4950
   58MOL0     H 7821   2.693   8.746  10.248  0.2742 -2.3402 -1.8114
   58MOL0     H 7822   2.479   8.643  10.289  3.0467 -1.0805  2.4263
   58MOL0     H 7823   2.386   8.790  10.223  1.0950  2.3988  0.8414
   58MOL0     H 7824   2.552   8.746  10.477  2.8256  1.6416 -0.8840
   58MOL0     H 7825   2.486   8.903  10.433 -0.5512 -0.0346 -0.1958
   58MOL0     H 7826   2.157   8.678  10.593 -0.1123  1.9453  2.4070
   58MOL0     H 7827   2.865   8.772  10.047  0.4631 -0.0034  1.8366
   58MOL0     H 7828   3.132   8.759   9.892  4.0632  0.8928  0.8776
   58MOL0     H 7829   3.095   8.776  10.059  0.5948 -0.2154 -0.2042
   58MOL0     H 7830   3.199   8.646  10.012  0.4835  2.5402  3.4568
   59MOL0     O 7831   9.111   7.641   5.644  0.2744 -0.0433  0.5774
   59MOL0     C 7832   9.011   7.703   5.609  0.2016  0.3531  0.0668
   59MOL0     O 7833   9.004   7.820   5.552 -0.4856 -0.1466 -0.3967
   59MOL0     C 7834   9.110   7.908   5.543 -0.1813 -0.2838 -0.2213
   59MOL0     C 7835   9.098   8.038   5.594  0.5904 -0.3488  0.4899
   59MOL0     C 7836   9.195   8.134   5.575  0.0057  0.4932 -0.3144
   59MOL0     C 7837   9.316   8.105   5.514  0.1723  0.5571  0.5568
   59MOL0     O 7838   9.400   8.216   5.507 -0.3979  0.1408  0.3125
   59MOL0     C 7839   9.531   8.178   5.457  0.2144 -0.2667 -0.4804
   59MOL0     C 7840   9.597   8.313   5.419 -0.4285  0.0041  0.0547
   59MOL0     C 7841   9.726   8.271   5.344 -0.3799  0.5850  0.3845
   59MOL0     C 7842   9.806   8.381   5.275 -0.9006 -0.2777  0.7678
   59MOL0     C 7843   9.932   8.337   5.192 -0.3735 -0.5958 -0.3413
   59MOL0     C 7844   9.982   8.463   5.111 -0.3336 -0.4586 -0.5137
   59MOL0     C 7845  10.082   8.417   5.004 -0.8193 -0.7812  0.0558
   59MOL0     C 7846  10.208   8.340   5.062 -0.0832 -0.4500 -0.5192
   59MOL0     N 7847  10.320   8.372   4.981 -0.5974  0.6913  0.3031
   59MOL0     C 7848  10.329   8.347   4.846 -0.1738 -0.9538 -0.9043
   59MOL0     C 7849  10.453   8.383   4.815  0.2504 -0.5060 -1.0756
   59MOL0     C 7850  10.507   8.364   4.667 -0.8965 -0.9975  0.1840
   59MOL0     C 7851  10.449   8.461   4.562 -0.5358 -0.0213 -0.0285
   59MOL0     C 7852  10.483   8.609   4.571  0.0154 -0.2412  0.0496
   59MOL0     C 7853  10.415   8.687   4.452  0.3698 -0.1565 -0.8993
   59MOL0     O 7854  10.459   8.824   4.467  0.6136 -0.0935  0.5210
   59MOL0     C 7855  10.543   8.887   4.383 -0.7050  0.6453  0.6780
   59MOL0     C 7856  10.601   8.828   4.275  0.2317  0.1722 -0.8490
   59MOL0     C 7857  10.712   8.891   4.224  1.3398 -0.2848  0.4885
   59MOL0     C 7858  10.771   9.010   4.271  0.3318 -0.1586 -0.2620
   59MOL0     C 7859  10.894   9.060   4.216  0.1238  0.4565 -0.6144
   59MOL0     O 7860  10.947   9.155   4.284  0.6290  0.5968 -0.1717
   59MOL0     C 7861  11.055   9.220   4.237  0.3608 -0.3043 -0.9177
   59MOL0     C 7862  11.032   9.360   4.217  0.6305 -0.3440 -0.8289
   59MOL0     C 7863  11.142   9.444   4.180  0.6331  0.2858  0.2420
   59MOL0     C 7864  11.271   9.395   4.170  1.2116 -0.2993 -0.7013
   59MOL0     O 7865  11.380   9.474   4.142  0.4714 -0.1332  0.5230
   59MOL0     C 7866  11.381   9.618   4.163  0.5881  0.5757 -0.0540
   59MOL0     C 7867  11.525   9.665   4.185 -0.7836  0.7618 -1.0400
   59MOL0     C 7868  11.582   9.609   4.320  0.3661  0.6386 -0.5386
   59MOL0     C 7869  11.730   9.654   4.343 -0.1535  0.6547  0.4095
   59MOL0     C 7870  11.781   9.638   4.492 -0.2564  0.0765 -0.5635
   59MOL0     C 7871  11.931   9.681   4.511 -0.4582 -0.4311 -0.6521
   59MOL0     C 7872  11.971   9.660   4.661  0.3965 -0.0771 -0.0890
   59MOL0     C 7873  12.113   9.686   4.694 -1.0622  0.5058 -0.1434
   59MOL0    Cl 7874  12.236   9.591   4.599 -0.2159 -0.0821  0.1279
   59MOL0     C 7875  11.289   9.254   4.199 -0.0031 -0.1984  0.0711
   59MOL0     C 7876  11.176   9.166   4.236  0.2380  0.0190  0.1220
   59MOL0     O 7877  10.946   8.998   4.117 -0.3277  0.3523  0.0036
   59MOL0     C 7878  10.689   9.074   4.375 -0.0051  0.6550 -0.2598
   59MOL0     C 7879  10.576   9.011   4.429 -0.9031 -0.0608 -0.5418
   59MOL0     N 7880  10.532   8.415   4.927 -0.0154 -0.6261  0.5952
   59MOL0     N 7881  10.451   8.416   5.023  0.8960  0.5646 -0.0163
   59MOL0     C 7882   9.333   7.971   5.470  0.0985 -0.0064 -0.5680
   59MOL0     C 7883   9.228   7.881   5.475 -1.0762  0.5123  1.2340
   59MOL0     C 7884   8.877   7.634   5.624 -0.4983 -0.9587  0.3594
   59MOL0     C 7885   8.866   7.494   5.638  0.4629 -0.0700  0.6584
   59MOL0     C 7886   8.739   7.427   5.659  0.0014  0.5315  0.3329
   59MOL0     C 7887   8.619   7.496   5.653 -0.6168  0.2535 -0.5576
   59MOL0     O 7888   8.493   7.439   5.656  0.4996 -0.1948 -0.4125
   59MOL0     C 7889   8.474   7.317   5.586 -0.1615  0.5603  0.2143
   59MOL0     C 7890   8.340   7.248   5.616 -0.1048  0.3004 -0.3716
   59MOL0     C 7891   8.216   7.341   5.587 -0.5944  0.1346 -0.0378
   59MOL0     C 7892   8.234   7.443   5.459  0.6042  1.1727 -0.8410
   59MOL0     C 7893   8.099   7.467   5.397  0.2286  0.6808 -0.1508
   59MOL0     C 7894   8.007   7.496   5.324  0.5236  0.2186 -0.8948
   59MOL0     C 7895   8.631   7.635   5.668  0.0218 -0.1788  0.3626
   59MOL0     C 7896   8.759   7.707   5.657  0.9026 -0.3570  0.1068
   59MOL0     C 7897   8.758   7.854   5.682 -0.0727  0.3267  0.4788
   59MOL0     H 7898   9.000   8.063   5.634  0.2961  0.7773 -0.8474
   59MOL0     H 7899   9.175   8.238   5.597  2.2255  1.2354 -1.5569
   59MOL0     H 7900   9.586   8.129   5.538  0.4308 -1.8976 -1.5719
   59MOL0     H 7901   9.524   8.110   5.372  0.2189 -0.4751 -0.3154
   59MOL0     H 7902   9.624   8.374   5.507  3.0521 -0.8179 -0.2805
   59MOL0     H 7903   9.533   8.375   5.356 -0.3325 -0.0524 -0.0979
   59MOL0     H 7904   9.689   8.201   5.268 -0.5395 -0.0730  1.0581
   59MOL0     H 7905   9.794   8.215   5.409  2.9292 -0.3580 -3.4862
   59MOL0     H 7906   9.747   8.443   5.206  3.7746  3.5779 -0.3091
   59MOL0     H 7907   9.842   8.442   5.358 -1.1820  1.1849 -0.1462
   59MOL0     H 7908  10.021   8.303   5.246  0.1033  1.1115 -0.0159
   59MOL0     H 7909   9.894   8.258   5.126  2.0176 -0.9545 -1.4185
   59MOL0     H 7910   9.898   8.510   5.058  0.3427  0.9036 -0.4095
   59MOL0     H 7911  10.030   8.529   5.183  2.2018 -2.5985 -0.0999
   59MOL0     H 7912  10.110   8.505   4.947 -2.0815 -0.7005 -0.4758
   59MOL0     H 7913  10.025   8.353   4.936 -2.5595 -0.2739  0.9629
   59MOL0     H 7914  10.231   8.373   5.164 -1.1225  3.3483 -1.3675
   59MOL0     H 7915  10.196   8.232   5.047 -0.0853 -0.4407 -0.5850
   59MOL0     H 7916  10.258   8.304   4.776  1.8429 -2.0287 -2.3841
   59MOL0     H 7917  10.615   8.366   4.646 -1.0984  0.3428 -0.8660
   59MOL0     H 7918  10.475   8.268   4.627 -1.7055  0.3010 -2.4900
   59MOL0     H 7919  10.478   8.425   4.464  0.6435  0.1082  0.2531
   59MOL0     H 7920  10.340   8.465   4.572 -0.6656  1.9033 -1.6565
   59MOL0     H 7921  10.592   8.623   4.565  0.2308 -2.1691 -2.0788
   59MOL0     H 7922  10.450   8.663   4.660  0.8205  1.1897 -0.4899
   59MOL0     H 7923  10.306   8.682   4.460  0.3827  0.2888 -0.3523
   59MOL0     H 7924  10.433   8.643   4.353 -1.2389 -2.4111 -0.2840
   59MOL0     H 7925  10.569   8.737   4.227 -2.4530  1.4419 -1.6621
   59MOL0     H 7926  10.772   8.836   4.152  0.2415 -0.1366 -0.5804
   59MOL0     H 7927  10.928   9.389   4.209  0.2286 -1.2816  0.5066
   59MOL0     H 7928  11.115   9.548   4.162 -1.9717 -0.3701 -0.0788
   59MOL0     H 7929  11.333   9.660   4.074  0.8003 -1.8448 -1.3936
   59MOL0     H 7930  11.323   9.650   4.250 -0.4027  0.7205 -0.7530
   59MOL0     H 7931  11.574   9.619   4.098  3.8803  0.5028  1.3822
   59MOL0     H 7932  11.547   9.771   4.195  2.5726 -0.0395  2.8882
   59MOL0     H 7933  11.530   9.654   4.404  0.6461 -0.2118  0.1127
   59MOL0     H 7934  11.566   9.501   4.310 -1.8820  1.1424 -3.5139
   59MOL0     H 7935  11.745   9.757   4.309  1.3770  0.5213  0.6221
   59MOL0     H 7936  11.788   9.589   4.277 -0.2130  2.7698 -1.8721
   59MOL0     H 7937  11.763   9.533   4.517 -0.2831 -0.1565 -1.5321
   59MOL0     H 7938  11.714   9.701   4.552 -1.0467 -0.6867 -0.6260
   59MOL0     H 7939  12.003   9.625   4.452 -1.2104 -1.2155 -0.8427
   59MOL0     H 7940  11.944   9.788   4.488  0.3551  0.6954  4.1048
   59MOL0     H 7941  11.943   9.558   4.686  1.7986 -1.0480 -2.2156
   59MOL0     H 7942  11.911   9.721   4.730  1.5125 -0.3913  1.2132
   59MOL0     H 7943  12.128   9.792   4.669  0.6645 -0.0821 -1.7504
   59MOL0     H 7944  12.133   9.662   4.799  2.5852  2.2443 -0.3022
   59MOL0     H 7945  11.392   9.220   4.198  0.9404  2.0894 -4.0498
   59MOL0     H 7946  11.193   9.061   4.259  1.5134  0.7159  2.8094
   59MOL0     H 7947  10.732   9.166   4.414 -1.0550  0.9601  0.2197
   59MOL0     H 7948  10.511   9.047   4.508  0.6959  2.0622 -0.1117
   59MOL0     H 7949   9.429   7.953   5.423  0.5864  0.7876  0.1142
   59MOL0     H 7950   9.251   7.790   5.422 -0.4614  2.1218 -1.4310
   59MOL0     H 7951   8.950   7.426   5.639 -0.7927 -1.6769  0.2844
   59MOL0     H 7952   8.750   7.319   5.666 -0.9527  0.3511 -0.8177
   59MOL0     H 7953   8.558   7.254   5.616 -0.2348  1.4084  2.3401
   59MOL0     H 7954   8.489   7.328   5.478 -1.2605  1.5499  0.1390
   59MOL0     H 7955   8.339   7.228   5.723  2.5442 -1.9231 -0.6710
   59MOL0     H 7956   8.316   7.159   5.557 -1.4248  1.3980 -1.5827
   59MOL0     H 7957   8.199   7.399   5.679  0.1198 -0.3382  0.4017
   59MOL0     H 7958   8.133   7.272   5.573  0.6730 -1.2499 -1.0926
   59MOL0     H 7959   8.298   7.530   5.477  1.2886  1.0714 -2.6527
   59MOL0     H 7960   8.282   7.395   5.374 -0.2621  0.4744 -0.9465
   59MOL0     H 7961   7.931   7.521   5.253 -0.4473  0.0617  0.0576
   59MOL0     H 7962   8.535   7.680   5.694  1.0328  0.2857  3.7494
   59MOL0     H 7963   8.720   7.907   5.594 -1.9790  0.5561  1.3856
   59MOL0     H 7964   8.693   7.874   5.767  0.6136 -0.3393  1.1725
   59MOL0     H 7965   8.856   7.892   5.712 -0.8517 -0.1812  4.1656
   60MOL0     O 7966  11.366   7.207   0.240  0.8889 -0.4849  0.5611
   60MOL0     C 7967  11.479   7.246   0.244  0.1506  0.4526 -0.5273
   60MOL0     O 7968  11.584   7.169   0.280  0.4991 -0.1014 -0.6915
   60MOL0     C 7969  11.575   7.025   0.260 -0.7552  0.1650  0.1742
   60MOL0     C 7970  11.507   6.964   0.147  0.5256 -0.6000 -0.5738
   60MOL0     C 7971  11.506   6.821   0.130  0.2023 -0.0439 -0.6401
   60MOL0     C 7972  11.587   6.740   0.208 -0.4897 -0.1126  0.4086
   60MOL0     O 7973  11.587   6.604   0.186  0.1966  0.1606 -0.3751
   60MOL0     C 7974  11.715   6.545   0.163 -0.3413  0.2851  1.0745
   60MOL0     C 7975  11.779   6.571   0.025  0.8667  0.2438 -0.0333
   60MOL0     C 7976  11.901   6.486  -0.005  0.3388 -1.3781  0.0732
   60MOL0     C 7977  11.935   6.360   0.069 -0.2970  0.2928  0.1314
   60MOL0     C 7978  12.054   6.277   0.002  0.3199  0.8152  0.1247
   60MOL0     C 7979  12.095   6.167   0.097 -0.3802 -0.1129 -0.4074
   60MOL0     C 7980  12.225   6.102   0.047  0.1548 -0.5759  0.2096
   60MOL0     C 7981  12.297   6.031   0.160  0.2781  0.1979  0.2843
   60MOL0     N 7982  12.415   5.954   0.110  0.1856  0.0592 -0.7174
   60MOL0     C 7983  12.548   6.006   0.091  0.2439  0.5859  0.2243
   60MOL0     C 7984  12.616   5.891   0.053 -0.5277 -0.0333  0.2497
   60MOL0     C 7985  12.759   5.908   0.009  0.1475 -0.1844  0.4913
   60MOL0     C 7986  12.842   5.778   0.031 -0.8104 -0.2364 -0.1114
   60MOL0     C 7987  12.811   5.662  -0.055  0.0161  0.1190  0.5815
   60MOL0     C 7988  12.932   5.559  -0.056  0.1615  0.1202  0.7676
   60MOL0     O 7989  13.055   5.626  -0.092 -0.7034  0.1799 -0.0751
   60MOL0     C 7990  13.162   5.534  -0.095  0.7678 -1.1134 -0.5195
   60MOL0     C 7991  13.162   5.400  -0.040 -0.1703  0.2907  0.4787
   60MOL0     C 7992  13.272   5.320  -0.046 -0.7564 -0.2525  0.8976
   60MOL0     C 7993  13.388   5.366  -0.115  0.9849 -0.4815 -0.4699
   60MOL0     C 7994  13.506   5.284  -0.138 -1.0036  0.4288  0.2463
   60MOL0     O 7995  13.598   5.330  -0.227 -0.3892 -0.0317  0.8824
   60MOL0     C 7996  13.706   5.252  -0.270  0.6908  0.7559 -0.1470
   60MOL0     C 7997  13.838   5.309  -0.269  0.3112  0.7000  0.3493
   60MOL0     C 7998  13.943   5.224  -0.319  0.2368 -0.9153  0.1303
   60MOL0     C 7999  13.918   5.101  -0.370 -0.0813 -0.0129  0.2847
   60MOL0     O 8000  14.041   5.034  -0.395  0.2222 -0.0713  0.2658
   60MOL0     C 8001  14.040   4.894  -0.417  0.3647 -0.0641  0.4539
   60MOL0     C 8002  14.173   4.832  -0.471  0.4413  0.0343  0.1600
   60MOL0     C 8003  14.208   4.898  -0.603  0.3784 -0.0624 -0.3927
   60MOL0     C 8004  14.347   4.857  -0.656 -0.5851  0.0018 -0.0523
   60MOL0     C 8005  14.424   4.981  -0.695  0.4444  0.5414  0.0569
   60MOL0     C 8006  14.546   4.967  -0.796  0.0211 -0.3511 -0.8808
   60MOL0     C 8007  14.664   4.928  -0.693  0.2975  0.2489 -0.9852
   60MOL0     C 8008  14.796   4.898  -0.759  0.6818 -0.9327  1.0346
   60MOL0    Cl 8009  14.918   4.836  -0.650 -0.3868 -0.1479 -0.1670
   60MOL0     C 8010  13.795   5.045  -0.371  0.2863 -0.4217 -0.5854
   60MOL0     C 8011  13.688   5.121  -0.314 -0.3478  0.2034 -1.1952
   60MOL0     O 8012  13.520   5.181  -0.072 -0.5234 -0.1598  0.5597
   60MOL0     C 8013  13.390   5.499  -0.167 -0.4877  0.7242 -0.3188
   60MOL0     C 8014  13.277   5.582  -0.156 -0.7250  0.3316 -0.2677
   60MOL0     N 8015  12.529   5.787   0.038 -0.1499  0.0463  0.6296
   60MOL0     N 8016  12.412   5.825   0.074  0.1374 -0.1324 -0.8122
   60MOL0     C 8017  11.659   6.800   0.311 -0.0743 -0.1773  0.1752
   60MOL0     C 8018  11.650   6.938   0.345  0.2535 -0.8426 -0.1158
   60MOL0     C 8019  11.504   7.384   0.236  0.4251 -0.1861 -0.7291
   60MOL0     C 8020  11.629   7.424   0.284  0.3221 -0.4506  0.3206
   60MOL0     C 8021  11.664   7.559   0.287  0.4068 -0.3907 -0.7185
   60MOL0     C 8022  11.578   7.661   0.250 -0.3094  1.1085 -0.2429
   60MOL0     O 8023  11.608   7.796   0.247  0.7222  0.3283 -0.6428
   60MOL0     C 8024  11.727   7.843   0.306  0.2734 -0.0226  0.0495
   60MOL0     C 8025  11.749   7.992   0.289  0.1735  0.3072  0.4062
   60MOL0     C 8026  11.642   8.076   0.355 -0.5382  0.1791 -0.3935
   60MOL0     C 8027  11.684   8.223   0.362  0.1060 -0.2817  0.4578
   60MOL0     C 8028  11.668   8.275   0.231 -0.4915  1.0267 -0.3709
   60MOL0     C 8029  11.651   8.327   0.126  0.5817 -0.1643  0.2040
   60MOL0     C 8030  11.456   7.615   0.205  0.0379 -0.7256 -0.8133
   60MOL0     C 8031  11.413   7.488   0.199 -0.5943  0.6743  0.6697
   60MOL0     C 8032  11.269   7.459   0.139  0.0502  0.0207  0.3420
   60MOL0     H 8033  11.444   7.030   0.089 -3.5035 -2.1503  1.6409
   60MOL0     H 8034  11.446   6.769   0.056 -0.6982  2.9994 -2.2083
   60MOL0     H 8035  11.782   6.559   0.249 -0.8665  0.9669  1.3780
   60MOL0     H 8036  11.688   6.440   0.174 -1.9492  0.8017  2.5720
   60MOL0     H 8037  11.790   6.678   0.008  2.4392  0.2541  0.8726
   60MOL0     H 8038  11.695   6.539  -0.037  0.1624  2.3491 -0.2294
   60MOL0     H 8039  11.975   6.564   0.016 -0.5351  0.1011 -2.0217
   60MOL0     H 8040  11.917   6.471  -0.112 -0.8630  3.3676 -1.0023
   60MOL0     H 8041  11.955   6.383   0.174 -1.6655  4.7543 -0.3877
   60MOL0     H 8042  11.848   6.293   0.073 -0.5510  0.6496  0.8802
   60MOL0     H 8043  12.000   6.235  -0.084 -1.6768  0.7769  1.3265
   60MOL0     H 8044  12.139   6.342  -0.020  2.0254 -0.1689  3.1077
   60MOL0     H 8045  12.115   6.218   0.191  0.5568  4.2859 -2.7439
   60MOL0     H 8046  12.009   6.101   0.110 -1.4119  1.3456  0.4251
   60MOL0     H 8047  12.297   6.173   0.005  0.4757 -2.2040 -2.2319
   60MOL0     H 8048  12.200   6.024  -0.026  0.7092  1.3899 -2.2126
   60MOL0     H 8049  12.331   6.103   0.235 -0.5827  1.5845 -0.6174
   60MOL0     H 8050  12.227   5.967   0.215  1.1051 -0.1746  0.9355
   60MOL0     H 8051  12.585   6.108   0.095  1.3390  0.3678 -2.5389
   60MOL0     H 8052  12.760   5.927  -0.099 -2.2693 -0.3330  0.3880
   60MOL0     H 8053  12.811   5.994   0.052 -0.4294 -0.4572  1.7690
   60MOL0     H 8054  12.944   5.807   0.005 -0.9782 -0.3382 -0.9120
   60MOL0     H 8055  12.855   5.755   0.137 -1.7514  2.0397  0.5526
   60MOL0     H 8056  12.773   5.692  -0.153  0.7252 -0.0448  0.2518
   60MOL0     H 8057  12.721   5.612  -0.017  0.0841 -0.7993 -0.4237
   60MOL0     H 8058  12.907   5.477  -0.125  1.3355 -0.2748  0.7786
   60MOL0     H 8059  12.933   5.522   0.047 -0.1283  0.2677  0.8238
   60MOL0     H 8060  13.071   5.363   0.005 -1.8564  3.1046 -0.3805
   60MOL0     H 8061  13.269   5.216  -0.015 -1.3353 -1.1255 -1.8335
   60MOL0     H 8062  13.849   5.409  -0.227 -0.5926  0.2869  1.6458
   60MOL0     H 8063  14.041   5.268  -0.335 -1.6823  3.2787 -1.5233
   60MOL0     H 8064  14.007   4.848  -0.324 -2.1084  3.1659  1.3695
   60MOL0     H 8065  13.972   4.870  -0.499  0.2895  0.0919  0.4696
   60MOL0     H 8066  14.256   4.844  -0.401 -0.0581 -0.1238  0.7907
   60MOL0     H 8067  14.167   4.726  -0.497  0.1835  0.0079  0.3206
   60MOL0     H 8068  14.125   4.880  -0.672  0.0583  1.8447 -0.5666
   60MOL0     H 8069  14.196   5.007  -0.598 -1.4090 -0.1720 -1.2974
   60MOL0     H 8070  14.347   4.800  -0.750  2.5999 -0.9984  0.4206
   60MOL0     H 8071  14.398   4.794  -0.582  0.5320 -0.5457 -1.2461
   60MOL0     H 8072  14.468   5.036  -0.612  1.2084  0.3006 -0.1741
   60MOL0     H 8073  14.351   5.047  -0.744  0.0334  0.1217  0.1012
   60MOL0     H 8074  14.533   4.884  -0.867  1.4188 -0.4586 -1.0374
   60MOL0     H 8075  14.570   5.057  -0.853  1.4558 -0.7208 -0.8986
   60MOL0     H 8076  14.638   4.834  -0.645 -2.2428  0.9991 -0.7730
   60MOL0     H 8077  14.690   5.008  -0.622 -1.4126 -0.3634  0.3716
   60MOL0     H 8078  14.766   4.823  -0.833 -1.8588  3.1305 -2.5032
   60MOL0     H 8079  14.829   4.993  -0.802 -0.8746 -1.5136 -1.7147
   60MOL0     H 8080  13.782   4.946  -0.414  2.7258 -1.6360  1.1785
   60MOL0     H 8081  13.588   5.079  -0.319 -0.4295  0.4652 -2.0065
   60MOL0     H 8082  13.477   5.548  -0.209  0.9790 -0.4867  1.1863
   60MOL0     H 8083  13.271   5.684  -0.192  0.3708  0.1000 -1.1597
   60MOL0     H 8084  11.732   6.762   0.382  1.7412  2.6194 -0.0360
   60MOL0     H 8085  11.694   6.977   0.436 -0.7489 -0.9360  0.4292
   60MOL0     H 8086  11.708   7.352   0.302  2.4552  1.7269  0.2325
   60MOL0     H 8087  11.764   7.569   0.327 -0.0044 -1.7499  0.7418
   60MOL0     H 8088  11.815   7.784   0.278 -0.5231 -1.9075  1.3291
   60MOL0     H 8089  11.719   7.827   0.414  1.3117  1.4284  0.3789
   60MOL0     H 8090  11.750   8.010   0.181  1.8269 -0.9968  0.1546
   60MOL0     H 8091  11.850   8.020   0.322  0.6588 -0.3123 -0.5105
   60MOL0     H 8092  11.623   8.041   0.457 -0.9312  0.0842 -0.4953
   60MOL0     H 8093  11.544   8.057   0.310 -1.3751  0.9875  1.0235
   60MOL0     H 8094  11.627   8.286   0.432 -0.1148 -0.2758  0.2735
   60MOL0     H 8095  11.790   8.242   0.380  0.2509  0.5729 -1.1475
   60MOL0     H 8096  11.645   8.378   0.032  0.8670 -1.0495 -0.3157
   60MOL0     H 8097  11.388   7.698   0.186  2.4382  2.1498  2.0271
   60MOL0     H 8098  11.185   7.486   0.202 -0.2304 -1.2514  0.5506
   60MOL0     H 8099  11.256   7.500   0.039 -0.5646 -1.3867 -0.1928
   60MOL0     H 8100  11.255   7.352   0.118 -2.6267  0.2123  0.7901
   61MOL0     O 8101   2.313   6.187   3.173  0.7762  0.6724  0.4418
   61MOL0     C 8102   2.372   6.270   3.112  0.5795  0.0086  0.6562
   61MOL0     O 8103   2.328   6.337   2.995 -0.3048  0.4591  0.0687
   61MOL0     C 8104   2.196   6.316   2.949 -0.5114 -0.1969  0.1326
   61MOL0     C 8105   2.181   6.217   2.845 -0.2591  0.0323 -0.0678
   61MOL0     C 8106   2.049   6.179   2.806  0.5255 -0.5224 -0.7249
   61MOL0     C 8107   1.939   6.235   2.875  0.0245  0.6605  0.3323
   61MOL0     O 8108   1.816   6.207   2.820  0.7784  0.5435 -0.3144
   61MOL0     C 8109   1.701   6.263   2.880 -0.8351 -0.2474 -0.1912
   61MOL0     C 8110   1.574   6.205   2.804 -0.4905  0.2049 -0.6143
   61MOL0     C 8111   1.531   6.289   2.682  0.3018  0.2371 -0.5537
   61MOL0     C 8112   1.400   6.243   2.623  0.8062 -0.1939 -0.0478
   61MOL0     C 8113   1.374   6.310   2.488 -0.5333  0.4805  1.2927
   61MOL0     C 8114   1.261   6.265   2.388 -0.3679  0.0485 -0.1762
   61MOL0     C 8115   1.114   6.282   2.438  1.3682 -0.0045 -0.1200
   61MOL0     C 8116   1.034   6.158   2.455  0.4460 -0.1465 -0.4017
   61MOL0     N 8117   1.077   6.068   2.562 -0.0391 -0.2624  0.6731
   61MOL0     C 8118   1.135   5.942   2.552 -0.3946  0.6850 -0.2972
   61MOL0     C 8119   1.161   5.908   2.676  0.2984  0.1368  0.2916
   61MOL0     C 8120   1.235   5.795   2.753  0.5127  1.1456  0.3794
   61MOL0     C 8121   1.384   5.826   2.763  0.3376 -0.0495 -0.0357
   61MOL0     C 8122   1.456   5.787   2.632  0.8005  0.1772  0.5883
   61MOL0     C 8123   1.605   5.789   2.655 -0.2389  0.2252 -0.0971
   61MOL0     O 8124   1.656   5.763   2.521  0.0911  0.3176  0.3349
   61MOL0     C 8125   1.794   5.747   2.516 -0.1022  0.2787 -0.2291
   61MOL0     C 8126   1.881   5.813   2.611  1.1525  0.4383  0.6916
   61MOL0     C 8127   2.017   5.793   2.606  0.3808  0.1147  0.1076
   61MOL0     C 8128   2.080   5.714   2.509 -1.0745 -0.2748  0.7876
   61MOL0     C 8129   2.225   5.696   2.507  0.4741 -0.2151 -0.7652
   61MOL0     O 8130   2.294   5.779   2.584  0.1539 -0.0961 -0.4669
   61MOL0     C 8131   2.432   5.776   2.584 -0.0690 -0.2808 -0.5057
   61MOL0     C 8132   2.497   5.902   2.603  0.7419  0.1546  0.4487
   61MOL0     C 8133   2.631   5.917   2.598 -0.6144  0.7255  1.2144
   61MOL0     C 8134   2.721   5.801   2.587 -0.2746 -0.3561  0.3039
   61MOL0     O 8135   2.860   5.819   2.600  0.2147 -0.2334 -0.2231
   61MOL0     C 8136   2.910   5.920   2.503 -0.0462 -0.1089  0.5617
   61MOL0     C 8137   3.066   5.927   2.523  0.1666  0.6340  0.7775
   61MOL0     C 8138   3.142   6.035   2.445 -0.5288  0.1934 -0.9194
   61MOL0     C 8139   3.292   5.993   2.426  0.5353 -0.1317 -1.0762
   61MOL0     C 8140   3.364   6.119   2.391 -0.3209 -0.4408 -0.5973
   61MOL0     C 8141   3.505   6.084   2.342 -0.2092  0.5258 -0.0468
   61MOL0     C 8142   3.587   6.029   2.456  0.9591 -0.0801 -0.1030
   61MOL0     C 8143   3.732   6.020   2.413 -0.1315 -1.0059  0.2604
   61MOL0    Cl 8144   3.813   5.947   2.554  0.1287  0.3584  0.1719
   61MOL0     C 8145   2.658   5.674   2.574  0.3387  0.3037 -0.4520
   61MOL0     C 8146   2.519   5.663   2.576  0.2054 -0.2433  0.4556
   61MOL0     O 8147   2.274   5.617   2.425  0.7295 -0.1315  0.2410
   61MOL0     C 8148   1.996   5.657   2.406  0.5207  1.5002 -1.0240
   61MOL0     C 8149   1.855   5.677   2.413 -0.0629 -0.3265 -1.3281
   61MOL0     N 8150   1.119   6.002   2.759  0.4576 -0.3989 -0.5732
   61MOL0     N 8151   1.061   6.094   2.694 -0.8012  0.0209  0.1544
   61MOL0     C 8152   1.962   6.336   2.971  0.4602  1.0604  0.5069
   61MOL0     C 8153   2.093   6.377   3.008  0.0087  0.0066 -0.2553
   61MOL0     C 8154   2.504   6.312   3.162  0.7673  0.1293 -0.1946
   61MOL0     C 8155   2.569   6.420   3.103 -0.5160  0.3476 -0.3587
   61MOL0     C 8156   2.693   6.471   3.135 -0.8575 -0.5400  0.0518
   61MOL0     C 8157   2.772   6.407   3.232 -0.3633  0.6741 -0.4218
   61MOL0     O 8158   2.903   6.442   3.272  0.8311 -0.2337 -0.7858
   61MOL0     C 8159   2.993   6.464   3.169 -0.5696 -0.1250  0.0525
   61MOL0     C 8160   3.082   6.587   3.177 -0.2238  0.3965 -0.6329
   61MOL0     C 8161   3.211   6.573   3.088  0.8543  0.1284  0.3017
   61MOL0     C 8162   3.189   6.569   2.934  0.0650  0.1045  0.7481
   61MOL0     C 8163   3.097   6.679   2.894  0.8547  0.8538  0.3119
   61MOL0     C 8164   3.023   6.772   2.862 -0.3846  0.0266  0.2103
   61MOL0     C 8165   2.709   6.299   3.297 -0.4813  0.8616  0.3904
   61MOL0     C 8166   2.585   6.240   3.261 -0.0085 -0.2858 -0.2913
   61MOL0     C 8167   2.540   6.116   3.348  0.6098 -0.1127 -0.3840
   61MOL0     H 8168   2.262   6.175   2.787 -2.2227 -1.1687 -2.1313
   61MOL0     H 8169   2.026   6.115   2.722 -0.2877 -0.9357 -0.2002
   61MOL0     H 8170   1.693   6.238   2.986  0.2535  1.3057  0.2914
   61MOL0     H 8171   1.709   6.371   2.864 -0.2405 -0.5698 -2.5289
   61MOL0     H 8172   1.494   6.212   2.879 -2.0089  2.2352 -2.3030
   61MOL0     H 8173   1.579   6.099   2.776 -2.8967 -0.1693  0.1898
   61MOL0     H 8174   1.619   6.288   2.617  0.3078 -0.0644 -0.5410
   61MOL0     H 8175   1.509   6.392   2.710  1.0310  1.3000 -3.4913
   61MOL0     H 8176   1.399   6.133   2.616  2.4391 -0.1643 -1.5834
   61MOL0     H 8177   1.320   6.286   2.682  1.0989  1.2339 -0.6633
   61MOL0     H 8178   1.353   6.417   2.497  1.4173  1.2583 -1.6771
   61MOL0     H 8179   1.459   6.301   2.419 -2.3721  0.2276 -1.1041
   61MOL0     H 8180   1.267   6.332   2.302  1.6903 -1.1595 -1.0421
   61MOL0     H 8181   1.277   6.166   2.344  2.0405 -0.2157  1.1668
   61MOL0     H 8182   1.057   6.345   2.369  1.8687  1.0230  0.3786
   61MOL0     H 8183   1.115   6.329   2.537  3.6331 -0.4151  0.0968
   61MOL0     H 8184   0.929   6.176   2.480  0.8188  0.8049  0.5555
   61MOL0     H 8185   1.031   6.110   2.357 -1.8780  0.4328 -0.6564
   61MOL0     H 8186   1.179   5.886   2.470 -2.6304 -2.0379  0.2060
   61MOL0     H 8187   1.208   5.780   2.858 -2.4175  2.6324 -0.0793
   61MOL0     H 8188   1.213   5.700   2.704  0.8562  2.1714 -1.8702
   61MOL0     H 8189   1.416   5.922   2.804  1.9774 -0.6530  0.1913
   61MOL0     H 8190   1.420   5.755   2.839  0.4425 -1.6562 -1.5237
   61MOL0     H 8191   1.433   5.857   2.551  1.7196  1.0811  1.0880
   61MOL0     H 8192   1.420   5.687   2.604  0.9692 -0.1711  1.5663
   61MOL0     H 8193   1.626   5.723   2.740 -1.4182 -0.0835 -0.0211
   61MOL0     H 8194   1.631   5.881   2.707 -1.2895 -0.6704  2.1762
   61MOL0     H 8195   1.843   5.869   2.695  1.9652 -0.6293  1.8087
   61MOL0     H 8196   2.079   5.816   2.692  0.9699 -3.6769  0.8860
   61MOL0     H 8197   2.438   5.992   2.617  2.3229  1.5639 -1.4709
   61MOL0     H 8198   2.673   6.016   2.611  2.4834 -0.2819 -0.1206
   61MOL0     H 8199   2.886   5.881   2.404  1.0571 -0.2671  0.3438
   61MOL0     H 8200   2.870   6.021   2.509  1.9810  0.7948 -0.2006
   61MOL0     H 8201   3.085   5.952   2.628 -1.8321  2.7727  0.6900
   61MOL0     H 8202   3.103   5.827   2.495 -2.8211  0.1661 -2.1349
   61MOL0     H 8203   3.103   6.053   2.345  0.7792 -0.6516 -1.6140
   61MOL0     H 8204   3.142   6.132   2.494 -0.7829  0.3367 -1.2004
   61MOL0     H 8205   3.307   5.927   2.340  0.2460 -1.7100  0.0594
   61MOL0     H 8206   3.331   5.944   2.515 -2.8328  1.1246  1.2760
   61MOL0     H 8207   3.374   6.185   2.478 -0.3260 -1.6627  0.3638
   61MOL0     H 8208   3.311   6.167   2.309 -1.2454  1.2269  0.9051
   61MOL0     H 8209   3.502   6.012   2.259  1.4155  1.1913 -0.7151
   61MOL0     H 8210   3.543   6.181   2.312 -3.0052  2.1975  1.3903
   61MOL0     H 8211   3.553   5.929   2.487 -3.1317  2.4371  5.1586
   61MOL0     H 8212   3.577   6.098   2.540 -1.0716  1.5825 -1.6288
   61MOL0     H 8213   3.748   5.953   2.329  0.2733  0.5998 -0.9996
   61MOL0     H 8214   3.780   6.116   2.388 -3.0304  0.0293 -1.8972
   61MOL0     H 8215   2.728   5.590   2.572  0.0907  0.1143 -2.6928
   61MOL0     H 8216   2.469   5.566   2.574  0.4100 -0.4041 -2.7342
   61MOL0     H 8217   2.045   5.622   2.315  1.6004  3.7666 -1.3905
   61MOL0     H 8218   1.791   5.630   2.339 -2.3062 -1.7764  1.3504
   61MOL0     H 8219   1.880   6.386   3.022 -2.8309 -2.6883 -0.6964
   61MOL0     H 8220   2.102   6.449   3.089  0.2034  0.3898 -0.6110
   61MOL0     H 8221   2.514   6.483   3.034 -2.0155  2.9314  2.9004
   61MOL0     H 8222   2.724   6.560   3.080  0.7218  1.3018  3.6072
   61MOL0     H 8223   2.938   6.462   3.074 -2.0481  1.1194  0.8515
   61MOL0     H 8224   3.061   6.378   3.170  1.3118  1.3016  1.1627
   61MOL0     H 8225   3.107   6.606   3.282 -2.5404 -2.5387  0.5710
   61MOL0     H 8226   3.027   6.681   3.164 -0.0379  0.7008  0.5846
   61MOL0     H 8227   3.276   6.489   3.113 -0.4792 -1.6284 -1.7180
   61MOL0     H 8228   3.257   6.670   3.107  1.0636 -0.4300  3.0772
   61MOL0     H 8229   3.289   6.586   2.894  0.3759 -1.2836  0.8841
   61MOL0     H 8230   3.146   6.472   2.908 -0.4130  0.4695  0.1428
   61MOL0     H 8231   2.954   6.838   2.813 -3.1991 -1.2122  2.2096
   61MOL0     H 8232   2.774   6.252   3.370 -0.4240  1.0675  0.4714
   61MOL0     H 8233   2.446   6.124   3.403  0.7158 -3.2897  0.4436
   61MOL0     H 8234   2.523   6.026   3.288 -1.7002  0.6945 -1.0413
   61MOL0     H 8235   2.620   6.092   3.420 -0.7123 -2.7982  0.3007
   62MOL0     O 8236   3.657   8.415   6.938 -0.7712  0.2243  0.0783
   62MOL0     C 8237   3.667   8.463   6.829 -0.1356 -0.8447 -1.1155
   62MOL0     O 8238   3.774   8.545   6.789 -0.4585  0.1921 -0.1609
   62MOL0     C 8239   3.893   8.542   6.853 -0.9456 -0.5253 -0.0039
   62MOL0     C 8240   3.973   8.652   6.820 -0.1964  0.2738 -0.2365
   62MOL0     C 8241   4.092   8.663   6.887 -0.5001 -0.5033  0.0533
   62MOL0     C 8242   4.138   8.584   6.991 -1.0992 -0.2331 -0.3787
   62MOL0     O 8243   4.252   8.601   7.064  0.2472 -0.2439 -0.3775
   62MOL0     C 8244   4.280   8.729   7.108 -0.9573  0.3655  0.4010
   62MOL0     C 8245   4.410   8.718   7.181 -0.5056 -0.3495  0.2363
   62MOL0     C 8246   4.462   8.865   7.202 -0.2795  0.1520  0.6151
   62MOL0     C 8247   4.585   8.855   7.286  0.6455 -0.7368 -0.4722
   62MOL0     C 8248   4.702   8.815   7.202 -0.2165 -0.9165  0.8459
   62MOL0     C 8249   4.840   8.872   7.246  1.3251 -0.1715 -0.2087
   62MOL0     C 8250   4.937   8.866   7.130  0.0268  0.5285 -0.1260
   62MOL0     C 8251   4.971   8.723   7.087  0.4479  1.1456  0.2798
   62MOL0     N 8252   5.079   8.697   6.981  0.0574  0.0849  0.0020
   62MOL0     C 8253   5.207   8.734   7.000 -0.6177  0.0740 -0.1129
   62MOL0     C 8254   5.257   8.729   6.878 -0.1295  0.1849 -0.0327
   62MOL0     C 8255   5.403   8.761   6.844 -0.8822 -0.5574  1.4880
   62MOL0     C 8256   5.498   8.779   6.972  0.2559  0.1107 -0.1225
   62MOL0     C 8257   5.627   8.842   6.934 -0.4726  1.2890  0.0083
   62MOL0     C 8258   5.698   8.750   6.823 -0.6052  0.2460  0.4531
   62MOL0     O 8259   5.831   8.798   6.806 -0.2897 -0.4438  0.8330
   62MOL0     C 8260   5.913   8.733   6.719 -0.7595 -0.4087  0.8938
   62MOL0     C 8261   6.048   8.768   6.721 -1.0788  0.0642  0.4772
   62MOL0     C 8262   6.135   8.700   6.638 -0.6203  0.6810 -0.2710
   62MOL0     C 8263   6.102   8.599   6.551  0.9526 -0.7763  0.4915
   62MOL0     C 8264   6.206   8.538   6.463 -0.6572 -0.3279 -0.0569
   62MOL0     O 8265   6.179   8.416   6.415  0.1135 -0.1321 -0.0420
   62MOL0     C 8266   6.261   8.353   6.317  0.8738  0.3267  0.2499
   62MOL0     C 8267   6.395   8.392   6.278  0.7186 -0.6358  0.0620
   62MOL0     C 8268   6.463   8.334   6.170 -0.6634  0.2799  0.5420
   62MOL0     C 8269   6.389   8.237   6.095 -0.0889  1.3262 -0.0679
   62MOL0     O 8270   6.437   8.194   5.974  0.3779  0.2252  0.2640
   62MOL0     C 8271   6.437   8.051   5.945  0.1524 -0.3735  0.0236
   62MOL0     C 8272   6.443   8.032   5.800 -0.2692  0.3736 -0.3493
   62MOL0     C 8273   6.481   7.882   5.785  0.2154  0.6192  0.1963
   62MOL0     C 8274   6.487   7.830   5.636  0.5226  0.2340 -0.1472
   62MOL0     C 8275   6.361   7.816   5.544  0.3566 -0.4427 -0.1908
   62MOL0     C 8276   6.271   7.705   5.615  0.7196 -0.1706  0.2271
   62MOL0     C 8277   6.141   7.677   5.530  0.1781  0.4164 -0.2007
   62MOL0     C 8278   6.041   7.587   5.596  0.4087 -1.3737 -0.6898
   62MOL0    Cl 8279   5.924   7.523   5.476 -0.3741 -0.2429 -0.4054
   62MOL0     C 8280   6.254   8.200   6.127 -0.3493 -1.0823 -0.0275
   62MOL0     C 8281   6.190   8.259   6.238 -0.1628 -0.0154 -0.1743
   62MOL0     O 8282   6.308   8.604   6.439 -0.1130 -0.2676 -0.1872
   62MOL0     C 8283   5.961   8.574   6.553 -0.2127  0.0680 -1.0147
   62MOL0     C 8284   5.868   8.630   6.633 -1.4312  0.8413 -1.0995
   62MOL0     N 8285   5.160   8.699   6.781 -0.6911  0.1946 -0.4077
   62MOL0     N 8286   5.047   8.671   6.847 -0.4163  0.0504  0.2554
   62MOL0     C 8287   4.060   8.472   7.023  0.5206  0.1744 -1.0214
   62MOL0     C 8288   3.947   8.451   6.945 -0.7051 -0.1514  0.2957
   62MOL0     C 8289   3.553   8.434   6.741 -0.0754  0.5455 -0.2473
   62MOL0     C 8290   3.417   8.464   6.791 -1.3584  0.4185 -0.0639
   62MOL0     C 8291   3.302   8.452   6.700 -0.9463 -0.3610  0.2402
   62MOL0     C 8292   3.322   8.403   6.570 -0.3612 -0.7663 -0.2710
   62MOL0     O 8293   3.208   8.390   6.495 -0.1601 -0.4333  0.5431
   62MOL0     C 8294   3.193   8.256   6.449 -0.2279 -0.0459  0.1028
   62MOL0     C 8295   3.110   8.179   6.546  0.2964  0.6976  0.0698
   62MOL0     C 8296   2.987   8.251   6.604  0.4139  0.2830  0.4947
   62MOL0     C 8297   2.885   8.146   6.678 -0.2994 -0.2874  1.4480
   62MOL0     C 8298   2.748   8.198   6.694 -0.4736 -0.9176 -0.0853
   62MOL0     C 8299   2.633   8.246   6.718  0.6369 -0.2536  0.0357
   62MOL0     C 8300   3.451   8.373   6.522 -0.1972 -0.4555 -0.0218
   62MOL0     C 8301   3.568   8.405   6.601  0.4455  0.5843 -0.0324
   62MOL0     C 8302   3.709   8.376   6.553 -0.6782  0.3684 -0.0571
   62MOL0     H 8303   3.939   8.727   6.750  2.8965  1.2034 -0.8537
   62MOL0     H 8304   4.161   8.746   6.873 -2.3129  0.9310 -0.7715
   62MOL0     H 8305   4.291   8.802   7.027  0.6264 -0.3768 -0.0989
   62MOL0     H 8306   4.208   8.782   7.171 -1.6606 -0.4139  0.2805
   62MOL0     H 8307   4.478   8.649   7.129  0.0084  0.7481 -0.5796
   62MOL0     H 8308   4.385   8.680   7.281 -1.7923  0.8111  0.3854
   62MOL0     H 8309   4.381   8.919   7.251 -1.7953 -1.4600 -0.0350
   62MOL0     H 8310   4.493   8.909   7.106  0.9477  0.6861  1.2325
   62MOL0     H 8311   4.600   8.954   7.329  0.8091 -0.5342 -0.9868
   62MOL0     H 8312   4.568   8.776   7.359 -2.2597 -0.2966 -0.5453
   62MOL0     H 8313   4.711   8.706   7.198 -4.2922 -1.3561 -1.6927
   62MOL0     H 8314   4.686   8.845   7.098  1.4069 -3.2558 -0.1514
   62MOL0     H 8315   4.839   8.975   7.281 -2.0601  0.6323 -2.1939
   62MOL0     H 8316   4.871   8.804   7.326 -1.2279  0.2082  1.2258
   62MOL0     H 8317   5.032   8.914   7.156 -1.0031  2.7422 -0.2663
   62MOL0     H 8318   4.894   8.936   7.058  0.1926 -0.0989 -0.8553
   62MOL0     H 8319   4.989   8.663   7.177  0.8926  0.1517 -0.4471
   62MOL0     H 8320   4.881   8.683   7.038 -0.5790  1.9511  1.4458
   62MOL0     H 8321   5.259   8.769   7.088 -1.3511 -0.2287  0.4546
   62MOL0     H 8322   5.437   8.686   6.772 -0.1995  0.5288  0.6435
   62MOL0     H 8323   5.401   8.856   6.789 -0.9780 -2.4541 -2.0672
   62MOL0     H 8324   5.441   8.852   7.030 -0.7404 -2.1000  1.8587
   62MOL0     H 8325   5.511   8.687   7.031 -0.2630 -1.0675 -1.7872
   62MOL0     H 8326   5.701   8.843   7.015 -0.6923  1.1299  0.2126
   62MOL0     H 8327   5.616   8.941   6.890  1.4567  1.7153  0.3800
   62MOL0     H 8328   5.646   8.753   6.727 -0.3971  0.9999  0.3585
   62MOL0     H 8329   5.703   8.646   6.858 -1.8776 -0.4061 -1.1304
   62MOL0     H 8330   6.086   8.844   6.787  2.3382 -1.8878  0.9662
   62MOL0     H 8331   6.239   8.730   6.639 -0.5466  0.8105 -3.3458
   62MOL0     H 8332   6.447   8.471   6.331 -3.4150  0.2574  3.2961
   62MOL0     H 8333   6.558   8.371   6.134 -0.0573 -0.6787  1.1185
   62MOL0     H 8334   6.525   8.006   5.992  1.7460  0.0851 -2.3769
   62MOL0     H 8335   6.344   8.007   5.980 -0.8478 -0.3265 -2.4333
   62MOL0     H 8336   6.349   8.045   5.745 -0.3540 -2.9687 -1.2245
   62MOL0     H 8337   6.510   8.106   5.757 -0.8948  0.1916 -1.6781
   62MOL0     H 8338   6.582   7.857   5.819  0.0852 -1.6125 -0.8817
   62MOL0     H 8339   6.416   7.815   5.842 -0.5016  2.2257  1.3475
   62MOL0     H 8340   6.534   7.731   5.633  0.7395  0.3526 -1.9875
   62MOL0     H 8341   6.564   7.895   5.593  1.7111 -1.0516 -0.0193
   62MOL0     H 8342   6.375   7.785   5.440 -0.2128 -2.9332  0.4196
   62MOL0     H 8343   6.308   7.911   5.552 -0.7866 -1.2404  2.7742
   62MOL0     H 8344   6.334   7.621   5.644 -0.1067 -1.0044 -0.3423
   62MOL0     H 8345   6.238   7.735   5.715 -1.0413 -0.0315 -0.3665
   62MOL0     H 8346   6.172   7.627   5.438  0.3443  0.8480 -0.3796
   62MOL0     H 8347   6.102   7.774   5.500 -2.6161 -0.7533 -0.7330
   62MOL0     H 8348   6.088   7.503   5.648 -1.0069 -1.1262  1.1089
   62MOL0     H 8349   5.982   7.653   5.661  0.6393 -0.0337 -1.7897
   62MOL0     H 8350   6.194   8.131   6.068  0.2560 -1.0768 -0.6656
   62MOL0     H 8351   6.091   8.233   6.275  0.0162  0.6535  0.8270
   62MOL0     H 8352   5.921   8.499   6.486 -0.1660 -0.4108 -0.5165
   62MOL0     H 8353   5.768   8.589   6.635 -3.1410  4.5530 -1.4044
   62MOL0     H 8354   4.101   8.407   7.099  1.7593  1.3863 -0.5986
   62MOL0     H 8355   3.887   8.365   6.974  1.3530 -2.1316 -0.9390
   62MOL0     H 8356   3.410   8.512   6.888  1.0229  1.0319 -0.1342
   62MOL0     H 8357   3.210   8.480   6.750  0.9127  1.3282  3.0544
   62MOL0     H 8358   3.287   8.202   6.431 -0.9994 -1.4086  0.0676
   62MOL0     H 8359   3.138   8.269   6.355 -0.4795  1.7088  0.4535
   62MOL0     H 8360   3.175   8.146   6.628  0.1026 -1.1242 -0.4638
   62MOL0     H 8361   3.086   8.084   6.498  2.5593  0.3671 -0.5201
   62MOL0     H 8362   2.930   8.298   6.523 -0.2042  3.2080  2.4711
   62MOL0     H 8363   3.020   8.330   6.672  2.3919  0.6311 -0.7953
   62MOL0     H 8364   2.879   8.054   6.619 -1.5676  0.7587 -0.1546
   62MOL0     H 8365   2.929   8.129   6.776  2.1755 -2.2993  0.1209
   62MOL0     H 8366   2.535   8.279   6.747  0.3668  0.5115 -1.6448
   62MOL0     H 8367   3.468   8.343   6.419  0.2287  2.0893 -0.7759
   62MOL0     H 8368   3.772   8.326   6.626 -1.8571 -2.8960 -1.0614
   62MOL0     H 8369   3.708   8.300   6.475 -0.1889  0.0256  0.2693
   62MOL0     H 8370   3.750   8.469   6.513 -3.0744  1.1700 -0.8638
   63MOL0     O 8371   3.717   7.098   0.098  0.1141  0.6438  0.6095
   63MOL0     C 8372   3.746   6.980   0.088  0.5039 -0.2593 -0.1823
   63MOL0     O 8373   3.857   6.925   0.111  0.1475 -0.4026  0.7060
   63MOL0     C 8374   3.974   6.994   0.120  0.3038 -0.0868  0.3594
   63MOL0     C 8375   4.074   6.986   0.017  0.0815  0.3989 -0.3560
   63MOL0     C 8376   4.186   7.069   0.013  0.8969 -0.0356 -0.6700
   63MOL0     C 8377   4.201   7.166   0.115 -0.1057  0.0957  0.4454
   63MOL0     O 8378   4.311   7.253   0.137  0.2721 -0.3216  0.2395
   63MOL0     C 8379   4.426   7.249   0.062  0.0043 -1.0512  1.5909
   63MOL0     C 8380   4.411   7.325  -0.068  0.5714 -0.0787 -0.2231
   63MOL0     C 8381   4.514   7.287  -0.169 -0.3446  0.1484  1.0418
   63MOL0     C 8382   4.569   7.409  -0.238 -0.2249 -0.2936 -0.3147
   63MOL0     C 8383   4.690   7.478  -0.168  0.5762 -0.0086 -0.1883
   63MOL0     C 8384   4.725   7.606  -0.256  0.1828 -0.0171  0.3072
   63MOL0     C 8385   4.802   7.718  -0.181  0.4292 -0.5721 -0.4076
   63MOL0     C 8386   4.939   7.668  -0.130 -0.2850  0.1382 -0.2940
   63MOL0     N 8387   5.031   7.780  -0.110  0.0718 -0.3260 -0.1999
   63MOL0     C 8388   5.082   7.870  -0.202  0.0357  0.2340  0.0493
   63MOL0     C 8389   5.191   7.925  -0.137 -0.7510  0.0675  0.2347
   63MOL0     C 8390   5.288   8.023  -0.201 -0.1584 -0.0591 -0.0142
   63MOL0     C 8391   5.442   8.002  -0.182  0.9142 -0.1449 -0.6193
   63MOL0     C 8392   5.483   8.072  -0.054 -0.2189 -0.1577  0.1214
   63MOL0     C 8393   5.633   8.064  -0.037  0.1304 -0.0801  0.5215
   63MOL0     O 8394   5.696   8.125  -0.148 -0.5346  0.5236  0.6862
   63MOL0     C 8395   5.826   8.081  -0.170 -0.4758  0.4298  0.1706
   63MOL0     C 8396   5.916   8.031  -0.073  0.3768 -0.1218  0.1474
   63MOL0     C 8397   6.046   7.995  -0.105  0.9918  0.2555  0.1613
   63MOL0     C 8398   6.097   8.021  -0.234 -0.3082 -0.3372 -0.4266
   63MOL0     C 8399   6.239   8.004  -0.267 -0.4941  0.1784  0.0879
   63MOL0     O 8400   6.317   7.958  -0.164  0.3867 -0.0187  0.2071
   63MOL0     C 8401   6.451   7.927  -0.177  0.1541  0.3700  0.0530
   63MOL0     C 8402   6.547   7.997  -0.255  0.1332 -0.3764  0.5116
   63MOL0     C 8403   6.684   7.959  -0.260 -0.2138 -0.2450  0.1372
   63MOL0     C 8404   6.716   7.843  -0.190 -0.0458 -0.1775 -0.2205
   63MOL0     O 8405   6.846   7.819  -0.169 -0.2915  0.5917 -0.2128
   63MOL0     C 8406   6.874   7.686  -0.213  0.2477 -0.4668 -0.2575
   63MOL0     C 8407   7.024   7.690  -0.234 -0.9775  0.1565 -0.9902
   63MOL0     C 8408   7.100   7.753  -0.115  0.1591 -0.4195 -0.1357
   63MOL0     C 8409   7.258   7.737  -0.116  0.4602 -0.2208  0.2505
   63MOL0     C 8410   7.299   7.597  -0.109  1.1897  0.4965 -0.3662
   63MOL0     C 8411   7.442   7.576  -0.055  0.2620  0.7306  0.2676
   63MOL0     C 8412   7.464   7.427  -0.043  0.9887  1.0147 -0.8931
   63MOL0     C 8413   7.575   7.375   0.055  0.2685  0.6217  0.2235
   63MOL0    Cl 8414   7.735   7.445   0.025  0.3226  0.2743 -0.2017
   63MOL0     C 8415   6.614   7.770  -0.131 -0.0323 -0.1604 -0.5046
   63MOL0     C 8416   6.488   7.810  -0.116 -0.3710 -0.2709  0.6926
   63MOL0     O 8417   6.281   8.022  -0.381 -0.5684 -0.0426  0.1741
   63MOL0     C 8418   6.014   8.063  -0.340 -0.0836  0.1675 -0.3772
   63MOL0     C 8419   5.883   8.090  -0.305  1.2752 -0.4032 -0.3050
   63MOL0     N 8420   5.196   7.883  -0.005  0.8046 -0.6297  0.3770
   63MOL0     N 8421   5.091   7.800   0.013  0.0493 -0.3682  0.3619
   63MOL0     C 8422   4.106   7.169   0.212 -0.3249 -0.4396 -0.2443
   63MOL0     C 8423   4.004   7.087   0.219 -0.2927  0.0862 -0.3296
   63MOL0     C 8424   3.625   6.898   0.039 -0.1010 -0.3922  1.0420
   63MOL0     C 8425   3.609   6.777   0.103  0.2894 -0.1046 -0.6521
   63MOL0     C 8426   3.505   6.694   0.075 -1.1014 -0.7892  0.3320
   63MOL0     C 8427   3.418   6.730  -0.026  0.6156  0.1265 -1.1329
   63MOL0     O 8428   3.317   6.632  -0.034 -0.7496 -0.2912  0.5544
   63MOL0     C 8429   3.223   6.641  -0.138 -0.2105 -0.3977 -0.0640
   63MOL0     C 8430   3.145   6.505  -0.131  0.7666 -1.1151  0.7612
   63MOL0     C 8431   3.081   6.466  -0.265  0.0524  0.0720  0.7181
   63MOL0     C 8432   3.020   6.584  -0.349  0.9522 -0.4835 -0.2958
   63MOL0     C 8433   2.997   6.535  -0.492 -0.8860  0.2416 -0.9983
   63MOL0     C 8434   2.988   6.503  -0.615 -0.0482 -0.7054  0.0372
   63MOL0     C 8435   3.445   6.838  -0.111  1.0182  0.4808  0.6095
   63MOL0     C 8436   3.544   6.924  -0.076 -0.6037  0.0435  0.9581
   63MOL0     C 8437   3.550   7.040  -0.164  0.6305  0.5746 -0.1437
   63MOL0     H 8438   4.050   6.915  -0.062 -1.6174 -4.0104  3.6306
   63MOL0     H 8439   4.250   7.072  -0.075  0.8560  3.2031 -0.7138
   63MOL0     H 8440   4.507   7.287   0.124  0.7814 -0.2139  0.1051
   63MOL0     H 8441   4.454   7.146   0.036  1.4909 -0.2036 -0.4237
   63MOL0     H 8442   4.412   7.432  -0.045 -0.7766 -0.2723  0.8665
   63MOL0     H 8443   4.308   7.303  -0.097  0.2415 -3.8708  2.9326
   63MOL0     H 8444   4.462   7.215  -0.232 -4.2847  2.1110  1.7109
   63MOL0     H 8445   4.603   7.238  -0.130  0.1742  1.2871  1.3350
   63MOL0     H 8446   4.591   7.376  -0.340  0.7476 -0.0461 -0.1938
   63MOL0     H 8447   4.500   7.494  -0.236  1.0157  0.7492  1.6625
   63MOL0     H 8448   4.656   7.522  -0.074 -0.6843 -0.7533 -0.2764
   63MOL0     H 8449   4.778   7.415  -0.156 -0.0653 -1.7463 -3.4032
   63MOL0     H 8450   4.785   7.567  -0.339 -2.6230 -5.1653  0.2917
   63MOL0     H 8451   4.630   7.653  -0.284  0.8153 -0.1559 -2.2725
   63MOL0     H 8452   4.741   7.758  -0.099 -1.4047  1.1034 -2.4657
   63MOL0     H 8453   4.829   7.798  -0.251  1.4130  0.0839  0.6889
   63MOL0     H 8454   4.938   7.603  -0.042  2.7985 -0.2242 -0.4223
   63MOL0     H 8455   4.986   7.622  -0.218  1.8958 -0.7754  1.2598
   63MOL0     H 8456   5.059   7.881  -0.307 -2.6965 -1.1420  0.4199
   63MOL0     H 8457   5.257   8.016  -0.306 -2.3116 -0.9638  0.6412
   63MOL0     H 8458   5.262   8.122  -0.163  0.0664  0.0050 -0.0229
   63MOL0     H 8459   5.477   7.899  -0.179 -0.3791 -0.6517 -1.8592
   63MOL0     H 8460   5.478   8.053  -0.272 -0.7793 -1.8831 -2.3695
   63MOL0     H 8461   5.433   8.021   0.029 -2.0263 -0.3286 -0.9979
   63MOL0     H 8462   5.451   8.176  -0.063 -0.0404 -0.1219 -0.1075
   63MOL0     H 8463   5.663   7.959  -0.035 -4.1305 -1.4810  2.3019
   63MOL0     H 8464   5.654   8.103   0.063 -1.4645  1.4863  0.3041
   63MOL0     H 8465   5.880   8.007   0.027 -1.9523 -0.4817 -0.7287
   63MOL0     H 8466   6.112   7.958  -0.027  0.2615  1.1840  1.2761
   63MOL0     H 8467   6.520   8.092  -0.298 -1.2235 -0.3239  1.3971
   63MOL0     H 8468   6.759   8.010  -0.320  0.8098 -2.2180 -0.3204
   63MOL0     H 8469   6.846   7.610  -0.138 -1.5259  0.8628  0.4982
   63MOL0     H 8470   6.820   7.676  -0.308 -1.8006  0.1403  0.7717
   63MOL0     H 8471   7.059   7.590  -0.258  0.9136  0.8413 -1.3045
   63MOL0     H 8472   7.036   7.756  -0.320 -2.5699  0.4979 -0.9832
   63MOL0     H 8473   7.073   7.858  -0.102  0.9945 -0.4537  2.4365
   63MOL0     H 8474   7.067   7.699  -0.026  2.0225  1.1534  1.6116
   63MOL0     H 8475   7.290   7.777  -0.019 -0.5001 -0.9311  0.8796
   63MOL0     H 8476   7.311   7.786  -0.198  0.7006  2.1964  1.7280
   63MOL0     H 8477   7.282   7.556  -0.208 -0.7342 -1.4699  0.6929
   63MOL0     H 8478   7.234   7.547  -0.037 -0.3840  1.4636 -1.0837
   63MOL0     H 8479   7.511   7.614  -0.130  0.7562 -2.5537 -1.1134
   63MOL0     H 8480   7.457   7.641   0.032  0.5585  1.4000 -0.2716
   63MOL0     H 8481   7.493   7.391  -0.143 -1.3030 -1.4814 -0.7886
   63MOL0     H 8482   7.371   7.375  -0.018  1.6175  0.3805  0.2220
   63MOL0     H 8483   7.542   7.409   0.153  1.6525  0.6160  0.7197
   63MOL0     H 8484   7.590   7.266   0.057  2.3393  0.8344 -1.0000
   63MOL0     H 8485   6.630   7.679  -0.072  0.0328 -1.0394 -1.8451
   63MOL0     H 8486   6.424   7.737  -0.067 -0.4242 -0.1886  0.7446
   63MOL0     H 8487   6.039   8.068  -0.445  0.3495 -0.7174 -0.3215
   63MOL0     H 8488   5.817   8.131  -0.380  2.2937  1.3172 -0.3247
   63MOL0     H 8489   4.118   7.240   0.293  0.0647  0.0219 -0.6945
   63MOL0     H 8490   3.935   7.087   0.303 -0.5389 -1.0177 -0.5163
   63MOL0     H 8491   3.679   6.760   0.184 -0.0573 -0.1939 -0.3672
   63MOL0     H 8492   3.488   6.604   0.132  0.3031 -0.4521  1.3185
   63MOL0     H 8493   3.280   6.644  -0.231  0.4756  1.5586  0.3634
   63MOL0     H 8494   3.158   6.730  -0.137  0.2101 -0.0693 -0.8263
   63MOL0     H 8495   3.066   6.524  -0.058  1.1795 -0.9436  1.1674
   63MOL0     H 8496   3.217   6.429  -0.101  1.6039  0.5790  3.4060
   63MOL0     H 8497   2.999   6.395  -0.250 -1.1078  1.5067  1.3470
   63MOL0     H 8498   3.153   6.416  -0.330 -1.0524 -1.6646  0.7667
   63MOL0     H 8499   2.929   6.623  -0.301  0.7896  0.8888 -1.6571
   63MOL0     H 8500   3.088   6.669  -0.345 -2.0140  2.0413  3.3544
   63MOL0     H 8501   2.993   6.473  -0.717 -0.6547  0.5354 -0.3778
   63MOL0     H 8502   3.382   6.865  -0.195 -2.0917  0.0622  2.6533
   63MOL0     H 8503   3.480   7.112  -0.120 -1.3524 -2.0763  1.3478
   63MOL0     H 8504   3.653   7.075  -0.165  1.9829 -2.9520 -0.0984
   63MOL0     H 8505   3.531   7.014  -0.268  1.6714  2.0713 -0.7366
   64MOL0     O 8506   5.958  10.599   0.567 -0.2760 -1.0005 -0.0264
   64MOL0     C 8507   6.042  10.570   0.483  0.2464 -0.1929 -0.6382
   64MOL0     O 8508   6.141  10.655   0.449 -0.2818 -0.1348  0.3597
   64MOL0     C 8509   6.181  10.762   0.529 -0.8146  0.9038  0.5297
   64MOL0     C 8510   6.184  10.760   0.670  0.2483 -0.3158 -0.1795
   64MOL0     C 8511   6.228  10.868   0.751 -1.0054  1.0166 -0.1647
   64MOL0     C 8512   6.277  10.986   0.689  0.4173  0.1634  0.3981
   64MOL0     O 8513   6.319  11.095   0.760  0.1164  0.0431 -0.5040
   64MOL0     C 8514   6.388  11.211   0.706 -0.4191  0.6902  0.4168
   64MOL0     C 8515   6.442  11.294   0.813  0.1714 -0.0666  0.3107
   64MOL0     C 8516   6.499  11.427   0.758 -0.1393 -0.2458  0.4623
   64MOL0     C 8517   6.616  11.479   0.844  0.3394 -0.4436  0.1833
   64MOL0     C 8518   6.696  11.590   0.768  0.7934 -0.3545  0.0351
   64MOL0     C 8519   6.815  11.647   0.845  0.3926 -0.4744  0.4562
   64MOL0     C 8520   6.922  11.737   0.771  0.6730  0.4870  0.0343
   64MOL0     C 8521   6.875  11.861   0.689 -0.5514  0.0687  0.1117
   64MOL0     N 8522   6.815  11.963   0.772  0.1514  0.3110 -0.4024
   64MOL0     C 8523   6.685  11.961   0.826 -0.4635  0.3032  0.4835
   64MOL0     C 8524   6.680  12.076   0.903 -0.2356  0.7782 -0.0621
   64MOL0     C 8525   6.554  12.127   0.970 -0.1284 -0.0984  0.5196
   64MOL0     C 8526   6.519  12.271   0.938 -0.2018 -0.1442 -0.8662
   64MOL0     C 8527   6.587  12.366   1.030  0.0335 -0.1127  0.9913
   64MOL0     C 8528   6.673  12.474   0.944 -0.4450  0.1552 -0.7660
   64MOL0     O 8529   6.592  12.561   0.864  0.3112  0.1279 -0.2535
   64MOL0     C 8530   6.531  12.665   0.942  0.1234  1.3275  0.3241
   64MOL0     C 8531   6.600  12.769   1.002  0.5946  0.3144  0.0032
   64MOL0     C 8532   6.530  12.858   1.081  0.4101 -0.1729 -0.8917
   64MOL0     C 8533   6.388  12.841   1.103 -0.5673 -0.6787 -0.0575
   64MOL0     C 8534   6.307  12.945   1.161  0.5254  0.1595 -0.3828
   64MOL0     O 8535   6.372  13.032   1.229 -0.5029  0.0842 -0.9923
   64MOL0     C 8536   6.297  13.122   1.297  0.7054 -0.1876  0.8600
   64MOL0     C 8537   6.252  13.080   1.420  0.2539  0.8672  0.0858
   64MOL0     C 8538   6.203  13.170   1.512 -0.0195  0.3318 -0.0593
   64MOL0     C 8539   6.193  13.310   1.482  0.3723 -0.0586  0.1576
   64MOL0     O 8540   6.137  13.405   1.568 -0.2474 -0.1732 -0.5013
   64MOL0     C 8541   6.012  13.372   1.633 -0.6538 -0.1106  0.6397
   64MOL0     C 8542   5.982  13.494   1.715  0.2464 -0.0817 -0.3841
   64MOL0     C 8543   5.836  13.521   1.728  0.2889  0.3253  0.4655
   64MOL0     C 8544   5.759  13.395   1.790  0.2622 -0.1016 -0.2563
   64MOL0     C 8545   5.613  13.435   1.812 -0.4328  0.0335  0.4200
   64MOL0     C 8546   5.520  13.320   1.834  0.6180  0.4953 -0.4114
   64MOL0     C 8547   5.523  13.294   1.979  0.3289 -0.6384 -0.1514
   64MOL0     C 8548   5.461  13.163   2.013 -0.0824 -0.8510  0.2439
   64MOL0    Cl 8549   5.485  13.128   2.184  0.1658  0.1228 -0.4031
   64MOL0     C 8550   6.242  13.351   1.355  0.5727  0.0585  0.9638
   64MOL0     C 8551   6.296  13.259   1.264 -0.6767 -0.4223 -0.4067
   64MOL0     O 8552   6.182  12.945   1.141  0.2838 -0.3241 -0.2846
   64MOL0     C 8553   6.320  12.733   1.044 -0.5601 -0.3445  0.0487
   64MOL0     C 8554   6.389  12.643   0.966  1.0858 -0.8957 -0.7490
   64MOL0     N 8555   6.800  12.141   0.904  0.3444 -0.3012  0.5898
   64MOL0     N 8556   6.878  12.069   0.833 -0.0789 -0.3336 -0.1437
   64MOL0     C 8557   6.281  10.982   0.543 -0.1401 -0.7862  0.0477
   64MOL0     C 8558   6.241  10.870   0.465  0.7318 -0.6713 -0.0483
   64MOL0     C 8559   6.019  10.436   0.419 -0.1368  0.5604  0.3109
   64MOL0     C 8560   5.912  10.361   0.471  1.4340  0.1224  1.0796
   64MOL0     C 8561   5.856  10.249   0.410 -1.1661  0.1658  0.1126
   64MOL0     C 8562   5.931  10.197   0.297  0.9832 -0.6813  1.2422
   64MOL0     O 8563   5.901  10.080   0.240 -0.8553  0.2695 -0.8738
   64MOL0     C 8564   5.779  10.017   0.271  0.4387  0.3183 -0.4243
   64MOL0     C 8565   5.772   9.896   0.187 -0.0855  1.2438 -0.3823
   64MOL0     C 8566   5.763   9.921   0.035 -0.1666 -0.5216  0.5204
   64MOL0     C 8567   5.729   9.797  -0.045 -0.5063  0.0922 -0.9269
   64MOL0     C 8568   5.809   9.680  -0.000  0.0060  0.2130  0.4511
   64MOL0     C 8569   5.862   9.581   0.049  0.3799 -0.0914 -0.2055
   64MOL0     C 8570   6.042  10.264   0.243  0.6688 -0.5805 -0.5274
   64MOL0     C 8571   6.085  10.383   0.307 -0.1492  0.1592 -0.1319
   64MOL0     C 8572   6.214  10.442   0.245  0.5018  0.3678  0.4575
   64MOL0     H 8573   6.135  10.677   0.720 -0.3675  1.8560  3.1507
   64MOL0     H 8574   6.231  10.850   0.858 -1.6164  0.2140 -0.2808
   64MOL0     H 8575   6.475  11.177   0.650 -2.3073 -1.5927 -1.3441
   64MOL0     H 8576   6.320  11.255   0.633 -1.4665 -0.7552  0.4665
   64MOL0     H 8577   6.523  11.237   0.859  1.1267  1.3234  0.3900
   64MOL0     H 8578   6.365  11.315   0.888  0.1997  2.1678 -0.2136
   64MOL0     H 8579   6.426  11.508   0.767 -0.8023 -0.9280  1.4119
   64MOL0     H 8580   6.542  11.415   0.658  0.6889 -1.0750  0.8960
   64MOL0     H 8581   6.570  11.511   0.937  1.1826  0.4153  0.3259
   64MOL0     H 8582   6.684  11.399   0.875  3.5187  2.9776  3.0720
   64MOL0     H 8583   6.728  11.538   0.677  0.5294  0.5655 -0.5977
   64MOL0     H 8584   6.631  11.676   0.748  0.5542 -0.4621  0.3596
   64MOL0     H 8585   6.785  11.707   0.932  1.5433 -1.2584  1.4251
   64MOL0     H 8586   6.861  11.553   0.877  0.2237 -0.3563  1.0709
   64MOL0     H 8587   6.985  11.679   0.703  0.2667 -0.1700  0.2056
   64MOL0     H 8588   6.990  11.768   0.850 -0.2699  1.7088  0.3973
   64MOL0     H 8589   6.951  11.903   0.622 -2.0136  1.4358 -0.7744
   64MOL0     H 8590   6.809  11.810   0.618 -2.1338 -1.2132  2.3815
   64MOL0     H 8591   6.599  11.896   0.813 -1.1489  1.3640 -0.4659
   64MOL0     H 8592   6.474  12.067   0.927 -1.2891 -0.5491  3.1273
   64MOL0     H 8593   6.554  12.114   1.079 -3.3198 -1.1536  0.4759
   64MOL0     H 8594   6.536  12.297   0.833  0.6622 -2.7085 -1.4401
   64MOL0     H 8595   6.413  12.273   0.963  0.1916 -4.1980  2.0943
   64MOL0     H 8596   6.658  12.311   1.092 -0.2764 -2.9985 -0.9862
   64MOL0     H 8597   6.521  12.415   1.102 -1.5713 -0.0839 -0.4285
   64MOL0     H 8598   6.742  12.425   0.874 -0.9372  0.7466 -1.6834
   64MOL0     H 8599   6.742  12.519   1.016 -1.0382 -0.5241  0.2418
   64MOL0     H 8600   6.706  12.773   0.982  0.3968 -1.1391 -1.6247
   64MOL0     H 8601   6.574  12.943   1.132 -1.0077  0.1366 -0.1205
   64MOL0     H 8602   6.269  12.975   1.441 -0.5952  1.1061  2.2808
   64MOL0     H 8603   6.171  13.124   1.605  0.0460 -0.7572 -0.5562
   64MOL0     H 8604   5.938  13.346   1.557 -1.4841 -0.1520  1.4510
   64MOL0     H 8605   6.023  13.287   1.700  1.1644  1.1036  1.9843
   64MOL0     H 8606   6.023  13.474   1.814  0.4280 -1.7790 -0.7761
   64MOL0     H 8607   6.029  13.583   1.670  0.6568 -1.5819 -3.1636
   64MOL0     H 8608   5.809  13.603   1.795  1.8779  1.4378 -0.2029
   64MOL0     H 8609   5.794  13.546   1.630  0.9141 -0.3103  0.0291
   64MOL0     H 8610   5.800  13.370   1.888  1.1838  0.8256 -0.3804
   64MOL0     H 8611   5.763  13.312   1.719  0.4222  1.0673 -1.6758
   64MOL0     H 8612   5.572  13.481   1.722  1.9168  1.0799 -0.1850
   64MOL0     H 8613   5.607  13.499   1.900  0.0811  0.3147  0.2574
   64MOL0     H 8614   5.417  13.343   1.805  0.8587 -0.7256 -2.5268
   64MOL0     H 8615   5.544  13.233   1.770  0.0655  1.0092 -1.3373
   64MOL0     H 8616   5.479  13.379   2.033  0.5751 -1.7510  1.9089
   64MOL0     H 8617   5.628  13.286   2.008  0.1242 -0.3735  0.6965
   64MOL0     H 8618   5.356  13.178   1.988 -0.0426 -3.7098 -2.1588
   64MOL0     H 8619   5.498  13.089   1.942  0.2952 -1.1435  0.7422
   64MOL0     H 8620   6.243  13.458   1.335  0.1219 -0.2971 -1.1211
   64MOL0     H 8621   6.343  13.301   1.176 -1.4982  0.4903 -0.4342
   64MOL0     H 8622   6.213  12.718   1.047 -0.3332 -6.0361 -4.3528
   64MOL0     H 8623   6.337  12.560   0.920 -1.7909 -0.3021  1.1948
   64MOL0     H 8624   6.294  11.072   0.483 -2.3507 -0.9171 -0.7196
   64MOL0     H 8625   6.236  10.867   0.356  0.0164 -0.1353 -0.0396
   64MOL0     H 8626   5.857  10.391   0.559  2.7087 -1.6933  2.5628
   64MOL0     H 8627   5.769  10.206   0.458  0.3417 -1.8529  1.2143
   64MOL0     H 8628   5.697  10.084   0.246 -0.6792 -0.5642  0.7512
   64MOL0     H 8629   5.774   9.979   0.374 -3.3894  1.7877  0.0828
   64MOL0     H 8630   5.686   9.832   0.210  1.2640 -0.5172 -0.0397
   64MOL0     H 8631   5.867   9.846   0.210 -1.2062  0.4029  2.8292
   64MOL0     H 8632   5.855   9.969  -0.001 -1.1348  0.5841 -0.5867
   64MOL0     H 8633   5.693  10.000   0.006 -0.5512 -0.4068  1.7332
   64MOL0     H 8634   5.624   9.770  -0.053  0.1033 -2.6448 -0.7095
   64MOL0     H 8635   5.760   9.812  -0.149 -0.9062 -1.6260 -1.3279
   64MOL0     H 8636   5.910   9.497   0.094  0.2361 -0.1940 -0.2415
   64MOL0     H 8637   6.099  10.209   0.169  1.1479  0.5207 -0.9814
   64MOL0     H 8638   6.195  10.543   0.209 -0.9619 -0.5752 -1.5592
   64MOL0     H 8639   6.295  10.430   0.319  0.8273 -0.6911 -0.0504
   64MOL0     H 8640   6.246  10.382   0.160  0.0038  0.4974  0.1776
   65MOL0     O 8641   8.301   0.158   4.754  0.1647 -0.9744 -0.1197
   65MOL0     C 8642   8.267   0.248   4.675  0.8457 -0.2565 -0.9754
   65MOL0     O 8643   8.345   0.362   4.638 -0.3857  0.1930  1.0864
   65MOL0     C 8644   8.477   0.369   4.670 -0.4921  0.0476  0.3609
   65MOL0     C 8645   8.580   0.355   4.573 -0.2270  0.3112  1.0723
   65MOL0     C 8646   8.712   0.354   4.617  0.6821  0.5577 -0.3925
   65MOL0     C 8647   8.751   0.361   4.750  1.1418  0.9037  0.7693
   65MOL0     O 8648   8.889   0.369   4.759  0.0271 -0.2946 -0.2415
   65MOL0     C 8649   8.936   0.443   4.865  0.2328 -0.1585 -0.2705
   65MOL0     C 8650   9.087   0.439   4.894 -0.0353  0.9537  0.4005
   65MOL0     C 8651   9.139   0.293   4.932 -0.6723 -0.5586 -0.3514
   65MOL0     C 8652   9.288   0.294   4.909 -0.9398 -0.0235  0.0830
   65MOL0     C 8653   9.351   0.155   4.937 -0.9969  0.2214 -0.2076
   65MOL0     C 8654   9.495   0.126   4.877  0.5787  0.8994  0.1977
   65MOL0     C 8655   9.527  -0.023   4.899 -0.7602 -0.7535  0.4010
   65MOL0     C 8656   9.674  -0.069   4.903  0.3444  1.3070  0.6332
   65MOL0     N 8657   9.690  -0.206   4.953 -0.3768 -0.3805  0.7490
   65MOL0     C 8658   9.752  -0.302   4.875 -0.7294 -1.1708  0.3354
   65MOL0     C 8659   9.778  -0.398   4.972  0.1185  0.5996  0.4941
   65MOL0     C 8660   9.877  -0.514   4.965  0.2915  0.6475  0.2859
   65MOL0     C 8661  10.014  -0.465   4.973  0.5738 -0.0719 -0.3710
   65MOL0     C 8662  10.110  -0.568   5.028  0.5320 -0.5093  0.6409
   65MOL0     C 8663  10.249  -0.512   5.059  0.8107 -0.5543  0.0486
   65MOL0     O 8664  10.322  -0.471   4.941  0.0116 -0.0087 -0.2926
   65MOL0     C 8665  10.457  -0.417   4.967  0.4789  0.3097  0.4066
   65MOL0     C 8666  10.481  -0.283   4.952  0.6264 -0.9001 -0.7770
   65MOL0     C 8667  10.603  -0.230   4.992 -0.0553  1.0106  0.0619
   65MOL0     C 8668  10.703  -0.299   5.057  0.6557 -0.2074  0.1885
   65MOL0     C 8669  10.817  -0.237   5.116  0.5300 -0.3639 -0.2975
   65MOL0     O 8670  10.874  -0.307   5.221 -0.3821 -0.6202  0.5076
   65MOL0     C 8671  10.998  -0.265   5.260 -0.9817 -0.0265 -0.3473
   65MOL0     C 8672  11.037  -0.135   5.302  1.3571  0.3133  0.2083
   65MOL0     C 8673  11.166  -0.104   5.333 -0.2042  0.0752  0.6668
   65MOL0     C 8674  11.266  -0.204   5.324 -0.9822 -0.6429  0.0659
   65MOL0     O 8675  11.387  -0.180   5.376 -0.1892  0.2667 -0.0309
   65MOL0     C 8676  11.499  -0.179   5.289  0.6385  0.2714  0.1972
   65MOL0     C 8677  11.627  -0.152   5.363  0.1748 -0.2976  0.4593
   65MOL0     C 8678  11.756  -0.196   5.295 -0.4499 -0.5939  1.4752
   65MOL0     C 8679  11.779  -0.115   5.162 -0.1018  0.1792  0.7004
   65MOL0     C 8680  11.927  -0.127   5.108  0.0472  0.2447  0.1480
   65MOL0     C 8681  12.030  -0.049   5.188 -0.1232 -0.5526 -0.4947
   65MOL0     C 8682  12.155  -0.023   5.101  0.6569 -0.3794  0.7305
   65MOL0     C 8683  12.283  -0.045   5.175 -0.4525  0.1262  0.7067
   65MOL0    Cl 8684  12.421  -0.038   5.058 -0.0052 -0.0515 -0.0791
   65MOL0     C 8685  11.232  -0.330   5.276 -0.8249  0.6126 -0.1741
   65MOL0     C 8686  11.103  -0.367   5.262  0.4966 -0.5023 -0.1775
   65MOL0     O 8687  10.856  -0.131   5.075 -0.7457 -0.6498  0.2019
   65MOL0     C 8688  10.680  -0.441   5.058 -0.0936  0.5682 -0.5074
   65MOL0     C 8689  10.557  -0.505   5.012 -0.3159  0.1750 -0.1758
   65MOL0     N 8690   9.725  -0.356   5.099 -0.2145 -0.5841  0.3132
   65MOL0     N 8691   9.675  -0.238   5.084 -0.1123  0.2922 -0.4986
   65MOL0     C 8692   8.642   0.372   4.843  0.1553 -0.2774 -0.4316
   65MOL0     C 8693   8.514   0.383   4.802  0.2651  0.4733 -0.6768
   65MOL0     C 8694   8.132   0.258   4.611 -0.4078  0.5667 -0.0695
   65MOL0     C 8695   8.111   0.336   4.497 -0.5103 -0.0919 -0.1481
   65MOL0     C 8696   7.983   0.372   4.449  0.4901 -0.1464  0.3732
   65MOL0     C 8697   7.864   0.337   4.513  0.0039 -0.6256  0.8825
   65MOL0     O 8698   7.748   0.374   4.456  0.7771 -0.3435 -0.2974
   65MOL0     C 8699   7.627   0.339   4.516 -0.4993  0.6967  0.0256
   65MOL0     C 8700   7.585   0.449   4.623 -0.0602 -1.3098 -0.5276
   65MOL0     C 8701   7.478   0.534   4.560 -0.2337 -0.4084  1.2230
   65MOL0     C 8702   7.433   0.657   4.649 -0.2972  0.5087  0.0688
   65MOL0     C 8703   7.517   0.767   4.613 -0.0265  0.5554 -0.0890
   65MOL0     C 8704   7.590   0.863   4.591  0.1448  0.7317 -0.1151
   65MOL0     C 8705   7.884   0.265   4.627 -0.4735  0.2482  0.2594
   65MOL0     C 8706   8.010   0.223   4.673  0.4313  0.0215 -0.2033
   65MOL0     C 8707   8.013   0.139   4.798 -0.0805  0.2907 -0.1921
   65MOL0     H 8708   8.551   0.326   4.473 -3.0423  1.5636  1.4414
   65MOL0     H 8709   8.785   0.350   4.536 -2.6434  0.3921 -3.6442
   65MOL0     H 8710   8.900   0.544   4.842  0.1650  0.0540  0.6865
   65MOL0     H 8711   8.877   0.408   4.951 -0.7959  0.4955 -0.6891
   65MOL0     H 8712   9.101   0.509   4.977 -1.8970  0.4680  1.1811
   65MOL0     H 8713   9.136   0.476   4.803 -1.0364  0.5402 -0.3315
   65MOL0     H 8714   9.089   0.213   4.877 -0.0630 -1.0460 -0.2079
   65MOL0     H 8715   9.119   0.287   5.039 -2.3707 -3.0519 -0.7107
   65MOL0     H 8716   9.310   0.302   4.802 -1.8371 -0.8601 -0.1876
   65MOL0     H 8717   9.332   0.376   4.965 -1.1936  1.7520 -2.1630
   65MOL0     H 8718   9.359   0.144   5.045  0.9307 -1.9545 -0.4933
   65MOL0     H 8719   9.279   0.077   4.911 -2.2233  0.3846  2.3584
   65MOL0     H 8720   9.484   0.148   4.770 -2.3590 -2.2934 -0.3187
   65MOL0     H 8721   9.570   0.188   4.926 -0.4161  0.9464  1.7500
   65MOL0     H 8722   9.476  -0.081   4.822 -2.7363  0.4659  0.7347
   65MOL0     H 8723   9.481  -0.044   4.996  0.0405  1.7064  1.3866
   65MOL0     H 8724   9.717  -0.064   4.803 -1.8442  0.1342 -0.4208
   65MOL0     H 8725   9.723  -0.003   4.976  3.1899  0.6470 -0.5373
   65MOL0     H 8726   9.780  -0.283   4.772 -2.4947  4.4830  0.5809
   65MOL0     H 8727   9.846  -0.573   5.052 -1.6172  1.2857  0.0965
   65MOL0     H 8728   9.856  -0.579   4.880 -2.0537 -1.1968  2.1111
   65MOL0     H 8729  10.050  -0.417   4.882 -1.3191  0.1946 -1.0338
   65MOL0     H 8730  10.000  -0.389   5.050 -0.6908 -2.1316  1.5562
   65MOL0     H 8731  10.116  -0.653   4.960 -2.9537  0.1327 -0.6997
   65MOL0     H 8732  10.064  -0.605   5.121  0.0535  0.1830  0.6868
   65MOL0     H 8733  10.310  -0.572   5.126  1.5748  4.9357  5.1762
   65MOL0     H 8734  10.229  -0.426   5.123 -2.3387 -1.0506 -0.1214
   65MOL0     H 8735  10.406  -0.213   4.917 -0.2026 -1.7947 -0.8370
   65MOL0     H 8736  10.620  -0.124   4.975  0.0197  1.1328  0.8225
   65MOL0     H 8737  10.964  -0.057   5.317  1.7149  0.8207 -0.6253
   65MOL0     H 8738  11.179  -0.002   5.366 -2.4824  0.9309 -0.8112
   65MOL0     H 8739  11.514  -0.282   5.255 -1.5642 -0.8274  2.2152
   65MOL0     H 8740  11.474  -0.120   5.201 -1.4719 -0.9151 -0.0751
   65MOL0     H 8741  11.625  -0.044   5.380  0.5319 -0.0259 -1.0814
   65MOL0     H 8742  11.620  -0.206   5.458  1.0572 -1.4534 -0.0969
   65MOL0     H 8743  11.842  -0.166   5.355  1.3868 -2.7078  0.0812
   65MOL0     H 8744  11.760  -0.305   5.283  1.2003 -0.2388 -2.6887
   65MOL0     H 8745  11.764  -0.010   5.192  0.5584 -0.0517  1.9015
   65MOL0     H 8746  11.707  -0.155   5.090  0.1430  0.9602  0.0051
   65MOL0     H 8747  11.918  -0.090   5.005 -1.8342  0.2591  0.2812
   65MOL0     H 8748  11.958  -0.232   5.108  0.0584  0.2469  0.7526
   65MOL0     H 8749  11.985   0.046   5.219 -1.0721 -1.2538  0.3633
   65MOL0     H 8750  12.058  -0.114   5.272 -2.2361  1.2703  1.7643
   65MOL0     H 8751  12.166   0.075   5.052  1.9780 -0.5307  0.6675
   65MOL0     H 8752  12.147  -0.099   5.024 -0.8022 -1.0237  1.4929
   65MOL0     H 8753  12.299   0.037   5.246  1.2211  1.2442 -0.9030
   65MOL0     H 8754  12.273  -0.140   5.229 -2.4286  1.0300  2.0560
   65MOL0     H 8755  11.308  -0.407   5.290 -1.0709  0.6251  1.4461
   65MOL0     H 8756  11.077  -0.467   5.229 -0.6105 -0.2529 -0.0883
   65MOL0     H 8757  10.759  -0.503   5.100 -0.1757 -0.2989 -1.5684
   65MOL0     H 8758  10.539  -0.612   5.021  0.5207 -0.1571 -1.9777
   65MOL0     H 8759   8.663   0.384   4.949 -0.1394 -0.1452 -0.3876
   65MOL0     H 8760   8.433   0.402   4.872  0.0387  0.5752 -0.9646
   65MOL0     H 8761   8.192   0.384   4.443  0.7747 -0.8708  1.0093
   65MOL0     H 8762   7.971   0.443   4.367  0.0703  2.9427  2.8981
   65MOL0     H 8763   7.628   0.244   4.572 -1.2969  0.1952 -0.7953
   65MOL0     H 8764   7.553   0.336   4.436 -0.6769  0.3642  0.1977
   65MOL0     H 8765   7.671   0.516   4.633 -0.0982 -1.4314  0.8449
   65MOL0     H 8766   7.573   0.415   4.726  0.6475  1.1181  0.4195
   65MOL0     H 8767   7.389   0.477   4.530 -0.1880  0.8258 -1.4978
   65MOL0     H 8768   7.513   0.573   4.464 -0.2952  0.5837  1.5914
   65MOL0     H 8769   7.331   0.693   4.630 -2.0641 -2.7034  2.4861
   65MOL0     H 8770   7.441   0.637   4.756  0.5274 -1.3697 -0.2988
   65MOL0     H 8771   7.657   0.930   4.542  3.1686 -0.7359  1.7437
   65MOL0     H 8772   7.799   0.230   4.684 -0.3675  0.3744  0.4925
   65MOL0     H 8773   7.916   0.095   4.822  0.4443 -0.7751  0.0700
   65MOL0     H 8774   8.075   0.050   4.784 -1.6307 -0.7548 -0.6520
   65MOL0     H 8775   8.052   0.201   4.879  0.3445  2.1234 -1.7276
   66MOL0     O 8776   6.984   2.738  10.814 -0.6561  0.4865  0.2005
   66MOL0     C 8777   7.007   2.674  10.913 -0.2500 -0.3260  0.5943
   66MOL0     O 8778   7.127   2.614  10.948  0.6390  0.7937  0.1866
   66MOL0     C 8779   7.206   2.583  10.841  0.1154  0.2607 -0.1832
   66MOL0     C 8780   7.334   2.633  10.838 -0.3608  0.0832  0.2288
   66MOL0     C 8781   7.429   2.584  10.739  0.4268 -0.4747 -0.9048
   66MOL0     C 8782   7.387   2.504  10.634 -0.3963  0.4157  0.2814
   66MOL0     O 8783   7.487   2.470  10.540  0.2890  0.7458 -0.0310
   66MOL0     C 8784   7.453   2.426  10.413  0.5085 -0.0237  0.1477
   66MOL0     C 8785   7.569   2.446  10.314  0.2675 -0.8447 -0.2617
   66MOL0     C 8786   7.680   2.347  10.341  0.0540 -0.6255  0.0438
   66MOL0     C 8787   7.799   2.370  10.241 -0.4469  0.1765  0.3225
   66MOL0     C 8788   7.874   2.236  10.218 -0.2183 -0.4614  0.0135
   66MOL0     C 8789   7.951   2.196  10.344 -0.0632  0.0925 -0.5843
   66MOL0     C 8790   7.990   2.050  10.355  0.0404  0.1322 -0.5120
   66MOL0     C 8791   8.081   2.002  10.235 -0.0138 -0.2427  0.7178
   66MOL0     N 8792   8.222   1.983  10.267  0.1350  0.2264 -0.1916
   66MOL0     C 8793   8.311   2.066  10.327 -0.1871 -0.3238 -1.2046
   66MOL0     C 8794   8.436   2.009  10.334  0.3632  1.5599 -0.2829
   66MOL0     C 8795   8.546   2.057  10.422  0.5106  0.0187  0.8052
   66MOL0     C 8796   8.680   2.061  10.358 -0.3617 -1.0978  0.2286
   66MOL0     C 8797   8.733   1.920  10.323 -0.4799 -0.3500 -0.4133
   66MOL0     C 8798   8.887   1.930  10.309 -0.5494 -0.3224 -0.3428
   66MOL0     O 8799   8.916   2.008  10.187  0.5716  0.1276 -0.4949
   66MOL0     C 8800   9.043   1.991  10.125  0.4318 -0.2719 -0.1344
   66MOL0     C 8801   9.152   1.939  10.177 -0.1232 -0.4570  0.2969
   66MOL0     C 8802   9.272   1.937  10.099 -0.8061  0.1511 -0.7013
   66MOL0     C 8803   9.281   1.985   9.966 -0.7496  0.0587  0.0043
   66MOL0     C 8804   9.404   1.970   9.875 -0.1640  0.6597  0.1663
   66MOL0     O 8805   9.391   2.008   9.744  0.0653  0.4650  0.4322
   66MOL0     C 8806   9.492   1.964   9.661 -0.5319  0.1198  0.6371
   66MOL0     C 8807   9.576   2.058   9.608  0.4511 -0.2477 -0.1889
   66MOL0     C 8808   9.669   2.017   9.512 -0.4199  0.1420  0.0937
   66MOL0     C 8809   9.685   1.883   9.479 -0.1312 -0.4661  0.3153
   66MOL0     O 8810   9.789   1.861   9.391 -0.4108 -0.1953 -0.2711
   66MOL0     C 8811   9.914   1.859   9.462  0.0276  0.6520  1.0910
   66MOL0     C 8812  10.017   1.883   9.353  0.4454  0.6879 -0.2177
   66MOL0     C 8813  10.010   2.012   9.272 -0.1121  0.1534  0.8458
   66MOL0     C 8814  10.123   2.016   9.161 -0.1683 -0.4109  0.8570
   66MOL0     C 8815  10.272   2.020   9.201 -0.0560 -0.3285  0.9877
   66MOL0     C 8816  10.361   2.052   9.080  0.0836  0.3783  0.1827
   66MOL0     C 8817  10.498   2.050   9.149 -0.1421  0.7653  0.8612
   66MOL0     C 8818  10.618   2.074   9.042  0.6019 -0.0698 -0.0018
   66MOL0    Cl 8819  10.612   1.973   8.894  0.1892 -0.2645  0.2125
   66MOL0     C 8820   9.613   1.782   9.545 -0.6174 -0.8196 -0.0045
   66MOL0     C 8821   9.514   1.819   9.631 -0.3251 -0.2390  0.5013
   66MOL0     O 8822   9.509   1.924   9.925 -0.2501 -0.3023  0.2007
   66MOL0     C 8823   9.174   2.061   9.922 -0.9631  0.1720  0.1435
   66MOL0     C 8824   9.058   2.060   9.997  0.1022 -0.2383  0.0073
   66MOL0     N 8825   8.426   1.888  10.266 -1.3429 -0.0790  0.6337
   66MOL0     N 8826   8.297   1.881  10.230 -0.1833  0.9479  0.0676
   66MOL0     C 8827   7.250   2.450  10.635  0.1612 -0.3288 -0.5848
   66MOL0     C 8828   7.165   2.491  10.733 -0.4192  1.1220 -0.7170
   66MOL0     C 8829   6.901   2.676  11.018 -0.9189  0.2773 -0.0807
   66MOL0     C 8830   6.906   2.568  11.106 -0.0777  0.1044 -0.1743
   66MOL0     C 8831   6.818   2.559  11.210  0.4907  0.5183  0.1362
   66MOL0     C 8832   6.718   2.651  11.224 -0.3543  0.4976  0.0666
   66MOL0     O 8833   6.618   2.637  11.324  0.0321  0.1541  0.0185
   66MOL0     C 8834   6.604   2.523  11.403 -0.6350 -0.4956  0.1866
   66MOL0     C 8835   6.521   2.555  11.527  0.6614  0.6557 -0.0901
   66MOL0     C 8836   6.374   2.497  11.529 -0.7001  0.0265  0.2862
   66MOL0     C 8837   6.306   2.495  11.665  0.0750  1.4500 -0.4100
   66MOL0     C 8838   6.226   2.609  11.699 -0.4511 -0.1506 -0.8976
   66MOL0     C 8839   6.157   2.708  11.729  0.3937  0.2886  0.0966
   66MOL0     C 8840   6.703   2.755  11.139 -0.5780 -0.2470  0.1458
   66MOL0     C 8841   6.787   2.762  11.030  0.4474 -0.5149 -0.4519
   66MOL0     C 8842   6.748   2.865  10.931 -0.0314 -0.7179  0.1584
   66MOL0     H 8843   7.355   2.690  10.928 -0.2985 -1.7821  1.4591
   66MOL0     H 8844   7.532   2.617  10.749  1.0062 -2.5943  1.0477
   66MOL0     H 8845   7.418   2.323  10.421  1.8766 -0.5125  0.1861
   66MOL0     H 8846   7.372   2.486  10.370  0.4939  0.4380  0.8099
   66MOL0     H 8847   7.608   2.547  10.325  2.0055 -0.8643 -4.3100
   66MOL0     H 8848   7.518   2.444  10.217 -0.9345 -1.3409  0.3709
   66MOL0     H 8849   7.640   2.246  10.329  1.2194 -0.7526 -4.5291
   66MOL0     H 8850   7.712   2.360  10.445  0.1692 -1.1625  0.0793
   66MOL0     H 8851   7.762   2.398  10.142  1.1689 -1.5254 -0.8355
   66MOL0     H 8852   7.870   2.445  10.278 -1.8420  0.1268  3.3273
   66MOL0     H 8853   7.793   2.165  10.198 -1.3229  0.9760 -0.8376
   66MOL0     H 8854   7.939   2.244  10.130 -2.1826  1.2577 -1.3962
   66MOL0     H 8855   8.040   2.257  10.360 -1.0222  0.6666  3.7348
   66MOL0     H 8856   7.888   2.219  10.430  3.1036  0.1859  1.9022
   66MOL0     H 8857   7.911   1.974  10.348  0.6551 -0.7767  1.6220
   66MOL0     H 8858   8.048   2.036  10.446  1.5288  1.1540 -1.2664
   66MOL0     H 8859   8.053   1.900  10.207 -1.4169  0.0105  1.1147
   66MOL0     H 8860   8.072   2.063  10.145 -0.5890 -1.3211  0.0119
   66MOL0     H 8861   8.284   2.154  10.384  2.0671  0.8829 -1.8935
   66MOL0     H 8862   8.522   2.163  10.431 -0.3960 -0.0655 -0.4409
   66MOL0     H 8863   8.537   2.020  10.525 -2.0707  1.4189  1.1717
   66MOL0     H 8864   8.678   2.127  10.270 -1.8998  1.1420  1.8242
   66MOL0     H 8865   8.753   2.102  10.429  1.5455  1.1497 -2.7380
   66MOL0     H 8866   8.701   1.885  10.225  1.1815  0.1310 -1.1624
   66MOL0     H 8867   8.709   1.848  10.402  1.2146  0.2465  0.7055
   66MOL0     H 8868   8.926   1.828  10.304  0.2691 -0.0592  0.4577
   66MOL0     H 8869   8.922   1.983  10.399  0.9820  0.9688 -1.6185
   66MOL0     H 8870   9.155   1.908  10.281 -0.0196  0.3764  0.5489
   66MOL0     H 8871   9.361   1.902  10.151 -1.9687  0.1606  1.4121
   66MOL0     H 8872   9.555   2.162   9.629  1.7047  0.3135 -1.5053
   66MOL0     H 8873   9.726   2.102   9.478  0.7658 -0.3499  0.7699
   66MOL0     H 8874   9.921   1.943   9.533 -0.6072  2.5152 -0.9328
   66MOL0     H 8875   9.932   1.765   9.515  1.7570  1.3296  1.7758
   66MOL0     H 8876  10.116   1.873   9.398  1.1172  0.6746 -1.6473
   66MOL0     H 8877  10.018   1.801   9.280  1.4611  2.5002 -2.3828
   66MOL0     H 8878   9.912   2.023   9.225 -0.6931 -0.7311  1.8080
   66MOL0     H 8879  10.027   2.105   9.327 -1.1931  1.5642 -1.0497
   66MOL0     H 8880  10.108   2.095   9.088  3.1257 -2.4476 -2.3240
   66MOL0     H 8881  10.110   1.923   9.105  0.0167  0.8761 -1.3959
   66MOL0     H 8882  10.313   1.930   9.248  1.8443 -0.1708 -0.2383
   66MOL0     H 8883  10.280   2.102   9.273  1.2810 -1.2222  1.8931
   66MOL0     H 8884  10.343   1.984   8.996 -1.9364  0.6709  0.3273
   66MOL0     H 8885  10.349   2.151   9.035  0.4340 -0.3417 -1.5709
   66MOL0     H 8886  10.511   1.956   9.204  0.8711 -1.0404 -2.2239
   66MOL0     H 8887  10.505   2.122   9.232  2.9461  3.8835 -1.7949
   66MOL0     H 8888  10.606   2.178   9.009  1.2988 -0.7788 -2.7537
   66MOL0     H 8889  10.719   2.065   9.085 -0.4188  0.2264  2.6618
   66MOL0     H 8890   9.636   1.679   9.517 -2.6469 -0.7031 -2.5679
   66MOL0     H 8891   9.452   1.740   9.671 -0.2111 -1.2687 -1.2569
   66MOL0     H 8892   9.180   2.122   9.832  0.3376  0.5819  0.4829
   66MOL0     H 8893   8.981   2.115   9.944  2.4867  2.5980 -0.7676
   66MOL0     H 8894   7.216   2.390  10.551 -2.5065  0.0054  0.1815
   66MOL0     H 8895   7.059   2.470  10.743 -0.0380 -0.4402  0.7449
   66MOL0     H 8896   6.979   2.488  11.101  1.0204  1.0166  0.7776
   66MOL0     H 8897   6.840   2.469  11.267  0.6475  0.2417 -0.3584
   66MOL0     H 8898   6.704   2.494  11.440 -0.3711  1.8868  1.5351
   66MOL0     H 8899   6.560   2.431  11.362  0.0258 -1.9987  2.6094
   66MOL0     H 8900   6.520   2.663  11.543 -1.5202  0.1891  4.4524
   66MOL0     H 8901   6.571   2.508  11.612 -0.8698  0.9332  0.9875
   66MOL0     H 8902   6.382   2.391  11.503 -2.3361 -0.7858  2.7215
   66MOL0     H 8903   6.307   2.551  11.461  1.0562  2.8966  0.6577
   66MOL0     H 8904   6.252   2.402  11.681  4.9493 -1.6637  0.2489
   66MOL0     H 8905   6.386   2.498  11.740 -0.7114  2.2672  0.4164
   66MOL0     H 8906   6.105   2.802  11.739  3.7985  2.5204 -1.0910
   66MOL0     H 8907   6.626   2.832  11.135  1.9154  2.3458 -2.6192
   66MOL0     H 8908   6.640   2.878  10.933 -0.0745 -0.9515 -0.6113
   66MOL0     H 8909   6.807   2.956  10.951  2.3597 -2.2171  0.2969
   66MOL0     H 8910   6.754   2.833  10.827 -1.5359  3.5816 -1.4901
   67MOL0     O 8911   3.859   8.169   6.145 -0.2105 -0.0708  0.0614
   67MOL0     C 8912   3.862   8.268   6.219 -0.1792  0.9625  0.6439
   67MOL0     O 8913   3.758   8.357   6.224  0.4647  0.0964 -0.2521
   67MOL0     C 8914   3.690   8.373   6.107  0.2301  0.1495 -0.2470
   67MOL0     C 8915   3.705   8.497   6.044 -0.1496  0.1928 -0.1330
   67MOL0     C 8916   3.633   8.511   5.921 -0.5280 -0.8224  0.2240
   67MOL0     C 8917   3.542   8.416   5.865 -0.4161  0.5507  0.3925
   67MOL0     O 8918   3.457   8.424   5.753 -0.5643  0.2190  0.7294
   67MOL0     C 8919   3.328   8.475   5.800 -0.2999 -0.1424 -0.6882
   67MOL0     C 8920   3.231   8.525   5.692  0.0306  0.2318  0.3786
   67MOL0     C 8921   3.178   8.418   5.601 -0.5203  0.1508 -0.2952
   67MOL0     C 8922   3.064   8.481   5.516 -0.5692  0.3630  0.2910
   67MOL0     C 8923   3.001   8.380   5.416 -0.5437 -0.1630  0.2595
   67MOL0     C 8924   2.877   8.442   5.343 -1.0034  0.4865 -0.6591
   67MOL0     C 8925   2.850   8.336   5.238 -0.2215  1.0596  0.2078
   67MOL0     C 8926   2.727   8.377   5.148 -0.1907  0.7501  0.5126
   67MOL0     N 8927   2.598   8.351   5.208  0.7963 -0.2806  0.0055
   67MOL0     C 8928   2.553   8.237   5.269 -1.2490  0.2488  0.3772
   67MOL0     C 8929   2.427   8.260   5.295  0.3506 -0.1779 -0.6149
   67MOL0     C 8930   2.349   8.150   5.356  0.7505 -0.2401 -0.3241
   67MOL0     C 8931   2.269   8.086   5.250  0.0425  0.8947  0.4015
   67MOL0     C 8932   2.349   7.985   5.167 -0.6578 -0.1482  0.0696
   67MOL0     C 8933   2.329   7.852   5.232  0.8468 -0.3234 -0.3042
   67MOL0     O 8934   2.404   7.749   5.166 -0.5786 -0.5600 -0.1016
   67MOL0     C 8935   2.540   7.746   5.188  0.2502  0.6769  0.2201
   67MOL0     C 8936   2.612   7.665   5.101 -1.1327 -0.6061  0.6869
   67MOL0     C 8937   2.754   7.644   5.123  0.1151 -0.2534  0.2773
   67MOL0     C 8938   2.821   7.703   5.225  0.3568  0.2294 -0.1362
   67MOL0     C 8939   2.961   7.676   5.251  0.0954  0.6365  0.8784
   67MOL0     O 8940   3.026   7.784   5.316  0.4500  0.0455 -0.8549
   67MOL0     C 8941   3.158   7.745   5.357  0.5478 -0.0498 -0.6094
   67MOL0     C 8942   3.262   7.749   5.261  1.1605  0.6375 -0.4668
   67MOL0     C 8943   3.390   7.685   5.290  0.3926  0.5101 -0.0561
   67MOL0     C 8944   3.415   7.641   5.422  0.0421 -0.2296 -0.0629
   67MOL0     O 8945   3.521   7.565   5.463 -0.5900 -0.6459 -0.1829
   67MOL0     C 8946   3.619   7.523   5.361 -0.4103  0.2733  0.0287
   67MOL0     C 8947   3.733   7.443   5.434 -0.5551 -0.2618  0.0900
   67MOL0     C 8948   3.840   7.521   5.517  0.0225  0.3666  0.7104
   67MOL0     C 8949   3.957   7.438   5.562  0.2150 -0.2798 -0.2034
   67MOL0     C 8950   4.042   7.523   5.655 -0.5317 -0.0549 -0.9072
   67MOL0     C 8951   4.162   7.444   5.713  0.8206  0.0894  0.0770
   67MOL0     C 8952   4.243   7.524   5.815 -1.1874 -0.1797  0.1658
   67MOL0     C 8953   4.385   7.474   5.827  1.2417 -0.6062  0.4674
   67MOL0    Cl 8954   4.465   7.514   5.981  0.0813  0.2051  0.0358
   67MOL0     C 8955   3.315   7.663   5.526  0.1674  0.0318  0.2072
   67MOL0     C 8956   3.188   7.700   5.488 -0.1660  0.1555  0.6050
   67MOL0     O 8957   3.013   7.569   5.216 -0.2560 -0.4070 -0.9561
   67MOL0     C 8958   2.753   7.798   5.304  0.2801  0.0737  0.2933
   67MOL0     C 8959   2.612   7.816   5.292  0.6433  0.7281 -0.1307
   67MOL0     N 8960   2.392   8.385   5.252  0.5421 -0.2529  0.4114
   67MOL0     N 8961   2.492   8.431   5.193  0.0321 -1.5481 -0.2510
   67MOL0     C 8962   3.547   8.292   5.926 -0.5247  0.2977 -0.0176
   67MOL0     C 8963   3.616   8.271   6.041  0.1224 -0.0469  0.3301
   67MOL0     C 8964   3.981   8.302   6.301 -1.3609  0.0878  0.2176
   67MOL0     C 8965   4.000   8.429   6.360  0.0433  0.5769 -0.1077
   67MOL0     C 8966   4.104   8.467   6.445  0.4234 -0.3029  0.4214
   67MOL0     C 8967   4.207   8.371   6.472  0.1024  0.0953  0.0423
   67MOL0     O 8968   4.299   8.405   6.569 -0.8135  0.1542  0.1848
   67MOL0     C 8969   4.412   8.316   6.588  0.5103 -0.5300 -0.7332
   67MOL0     C 8970   4.473   8.367   6.721  0.7311 -0.2932 -0.5285
   67MOL0     C 8971   4.533   8.506   6.696  0.2379  0.2521  0.8001
   67MOL0     C 8972   4.575   8.574   6.830 -0.3060 -0.6214 -1.0695
   67MOL0     C 8973   4.656   8.692   6.820  0.2023 -0.6280 -0.1764
   67MOL0     C 8974   4.721   8.800   6.827 -0.1098  0.6161  0.5393
   67MOL0     C 8975   4.193   8.248   6.410  0.5417 -0.2841  0.0954
   67MOL0     C 8976   4.087   8.207   6.328 -0.5005 -1.6028  0.1007
   67MOL0     C 8977   4.085   8.056   6.277 -0.0174 -1.0266  0.1711
   67MOL0     H 8978   3.770   8.573   6.086 -0.3575 -1.6042  3.9367
   67MOL0     H 8979   3.650   8.611   5.881 -0.6290  0.5667  3.3320
   67MOL0     H 8980   3.286   8.407   5.874 -2.7954  2.0754  0.0993
   67MOL0     H 8981   3.361   8.562   5.857  0.8047 -1.2560  0.4226
   67MOL0     H 8982   3.267   8.602   5.623  2.7564 -1.7705 -0.6084
   67MOL0     H 8983   3.156   8.566   5.761  0.1304 -3.4818  2.9902
   67MOL0     H 8984   3.145   8.324   5.647  1.9048 -1.5492 -1.8117
   67MOL0     H 8985   3.250   8.392   5.523 -2.0785  3.4984 -3.1365
   67MOL0     H 8986   2.985   8.522   5.580 -1.2058 -1.3182  0.6452
   67MOL0     H 8987   3.109   8.557   5.452  1.1910 -1.6598 -1.0304
   67MOL0     H 8988   3.085   8.346   5.355  1.9981  2.8182  1.8203
   67MOL0     H 8989   2.968   8.294   5.475  1.0585 -1.4069 -0.5813
   67MOL0     H 8990   2.788   8.457   5.405 -2.8016 -0.3394 -2.8755
   67MOL0     H 8991   2.908   8.538   5.300 -2.4012  1.7353  0.9959
   67MOL0     H 8992   2.837   8.237   5.282  0.5212  0.9131  0.1184
   67MOL0     H 8993   2.939   8.321   5.176  0.8221  1.5663  1.5137
   67MOL0     H 8994   2.734   8.479   5.109  2.3130 -0.2989 -2.0736
   67MOL0     H 8995   2.736   8.311   5.062 -2.0993 -0.8464  1.4493
   67MOL0     H 8996   2.612   8.155   5.307  0.2485  2.2328  2.6174
   67MOL0     H 8997   2.407   8.081   5.419  0.1250 -0.8279 -0.3734
   67MOL0     H 8998   2.269   8.185   5.421  1.2730 -0.2914  0.3606
   67MOL0     H 8999   2.182   8.038   5.296  1.0156 -0.9976  0.3676
   67MOL0     H 9000   2.227   8.161   5.182 -0.8609 -0.6009 -0.7485
   67MOL0     H 9001   2.453   8.017   5.155 -0.1693 -1.0523  1.6008
   67MOL0     H 9002   2.309   7.975   5.066 -0.8258 -0.8347  0.1958
   67MOL0     H 9003   2.225   7.819   5.222 -0.1790  1.6127  2.7206
   67MOL0     H 9004   2.351   7.853   5.339  1.1895 -2.7426 -0.3045
   67MOL0     H 9005   2.570   7.612   5.016  1.7059 -2.2331  0.1712
   67MOL0     H 9006   2.807   7.580   5.053  0.7693  2.8316 -2.2323
   67MOL0     H 9007   3.240   7.784   5.161  1.3137 -0.7406 -1.0046
   67MOL0     H 9008   3.470   7.695   5.218 -0.5629  0.1921 -1.1940
   67MOL0     H 9009   3.576   7.463   5.281 -1.5158 -0.7270  1.3116
   67MOL0     H 9010   3.678   7.606   5.321  0.1195 -0.4538 -0.7300
   67MOL0     H 9011   3.708   7.350   5.485  1.3121 -0.5469  0.5591
   67MOL0     H 9012   3.787   7.399   5.349 -1.6743 -1.3073 -0.1019
   67MOL0     H 9013   3.878   7.607   5.461  0.1933 -0.2905 -0.2008
   67MOL0     H 9014   3.787   7.551   5.608 -0.5016 -0.8942  0.8486
   67MOL0     H 9015   4.007   7.411   5.469  2.7924  3.1898 -0.0451
   67MOL0     H 9016   3.908   7.366   5.628 -0.9636  1.8575  1.4117
   67MOL0     H 9017   3.983   7.555   5.742  1.4655 -0.1709  0.5553
   67MOL0     H 9018   4.074   7.611   5.599 -2.3424 -0.9148 -3.4893
   67MOL0     H 9019   4.119   7.363   5.773 -0.5882  1.5296  1.0709
   67MOL0     H 9020   4.229   7.407   5.634  3.1896  1.3870  1.3695
   67MOL0     H 9021   4.199   7.537   5.914  4.7319  1.7237  3.0596
   67MOL0     H 9022   4.251   7.631   5.791 -0.3037 -0.0706  0.8913
   67MOL0     H 9023   4.393   7.365   5.819  1.2751 -1.0836  4.8864
   67MOL0     H 9024   4.433   7.528   5.744  1.0757 -0.7120  0.3004
   67MOL0     H 9025   3.332   7.623   5.625  2.4121 -3.0097 -1.2398
   67MOL0     H 9026   3.112   7.677   5.562 -0.1945  1.5249  1.0315
   67MOL0     H 9027   2.812   7.864   5.367  1.5762 -0.1677 -0.6354
   67MOL0     H 9028   2.559   7.884   5.358  0.2944 -0.7459  1.1788
   67MOL0     H 9029   3.488   8.206   5.895  0.6562 -0.6493  0.3084
   67MOL0     H 9030   3.616   8.167   6.069 -1.7196  0.3468  1.9856
   67MOL0     H 9031   3.929   8.508   6.341  0.6805  1.3270  0.5871
   67MOL0     H 9032   4.098   8.564   6.494 -1.7383 -0.3231  0.2882
   67MOL0     H 9033   4.490   8.320   6.511  0.4061  0.2396 -0.8009
   67MOL0     H 9034   4.393   8.210   6.610  0.7130 -0.4924 -0.3773
   67MOL0     H 9035   4.561   8.308   6.749  1.0841  0.6516  0.4267
   67MOL0     H 9036   4.406   8.363   6.807  0.5637 -1.5171 -0.7050
   67MOL0     H 9037   4.471   8.576   6.639 -1.0230  0.4694  2.3413
   67MOL0     H 9038   4.618   8.501   6.629 -0.5194  2.2870 -0.4177
   67MOL0     H 9039   4.495   8.611   6.895  2.0957  0.0902  1.6426
   67MOL0     H 9040   4.640   8.499   6.876 -2.1448 -1.1792  0.8076
   67MOL0     H 9041   4.777   8.892   6.832 -2.4095  2.1390  0.0833
   67MOL0     H 9042   4.261   8.165   6.428  0.3978 -0.5639 -0.6182
   67MOL0     H 9043   4.148   7.979   6.324  0.2491 -1.2927 -0.6105
   67MOL0     H 9044   3.984   8.019   6.296  0.4799 -1.3253  2.5768
   67MOL0     H 9045   4.116   8.067   6.173  0.2814 -0.5876  0.3061
   68MOL0     O 9046   1.667   1.172   4.380 -0.6129 -0.1897  0.0846
   68MOL0     C 9047   1.647   1.127   4.260  0.2517 -0.8909  0.2745
   68MOL0     O 9048   1.743   1.069   4.176  1.5002  0.4336  0.0256
   68MOL0     C 9049   1.865   1.074   4.242  0.5716 -0.9790 -0.5253
   68MOL0     C 9050   1.898   0.999   4.361  0.2196  0.7684  0.3115
   68MOL0     C 9051   2.035   1.001   4.413  0.7864 -0.2610  0.7508
   68MOL0     C 9052   2.134   1.078   4.363  0.0229  0.4181  0.1799
   68MOL0     O 9053   2.263   1.063   4.409  0.1607  0.0269  0.2524
   68MOL0     C 9054   2.362   1.152   4.364  0.0375  0.0800 -0.1932
   68MOL0     C 9055   2.499   1.102   4.400  0.8343 -1.1454 -0.9131
   68MOL0     C 9056   2.623   1.187   4.363 -0.2694  0.1851 -0.1889
   68MOL0     C 9057   2.750   1.103   4.375 -0.1740 -0.9296  0.6525
   68MOL0     C 9058   2.865   1.203   4.330 -0.6270 -0.3362 -0.1667
   68MOL0     C 9059   3.013   1.163   4.365  0.3249 -0.4135 -0.1650
   68MOL0     C 9060   3.031   1.117   4.516 -0.2646 -0.0596 -0.7858
   68MOL0     C 9061   3.182   1.121   4.564  0.1576 -0.3035  1.1271
   68MOL0     N 9062   3.262   1.024   4.476  0.1245 -1.0622 -0.1700
   68MOL0     C 9063   3.356   1.056   4.377 -0.8583 -0.2104 -0.1900
   68MOL0     C 9064   3.391   0.930   4.328  0.6764  0.1864  0.2420
   68MOL0     C 9065   3.502   0.926   4.220 -0.1787 -0.2874  0.0653
   68MOL0     C 9066   3.645   0.891   4.274  0.2941 -0.1264 -0.1130
   68MOL0     C 9067   3.644   0.760   4.350 -0.0889 -0.2432 -0.6017
   68MOL0     C 9068   3.774   0.693   4.373  0.7546 -0.4984  1.1689
   68MOL0     O 9069   3.802   0.640   4.244 -0.4958  0.5734  0.1956
   68MOL0     C 9070   3.919   0.565   4.225  0.0496  0.4223  0.2255
   68MOL0     C 9071   4.003   0.515   4.331 -0.8199 -0.5668 -0.1568
   68MOL0     C 9072   4.116   0.448   4.301 -1.1372 -0.2925 -0.3583
   68MOL0     C 9073   4.157   0.420   4.164  0.7427 -0.1551  0.0275
   68MOL0     C 9074   4.281   0.338   4.153  0.2229 -0.6063  0.9555
   68MOL0     O 9075   4.300   0.265   4.041 -0.0728 -0.6783 -0.2407
   68MOL0     C 9076   4.393   0.167   4.020  0.5188 -0.7202 -0.1195
   68MOL0     C 9077   4.435   0.079   4.115 -0.2541 -0.4348 -0.4051
   68MOL0     C 9078   4.528  -0.012   4.081  0.0306  0.2387  0.1535
   68MOL0     C 9079   4.572  -0.028   3.949 -0.2702  0.4189  0.8951
   68MOL0     O 9080   4.671  -0.117   3.929 -0.2026 -0.0746 -0.0244
   68MOL0     C 9081   4.608  -0.230   3.864 -0.3004  0.2510  0.9184
   68MOL0     C 9082   4.690  -0.357   3.895  0.1078 -0.1958 -0.0839
   68MOL0     C 9083   4.843  -0.344   3.855 -0.6383 -0.1408  0.6802
   68MOL0     C 9084   4.924  -0.452   3.919 -0.7991 -0.2142 -0.7074
   68MOL0     C 9085   5.073  -0.437   3.880 -0.1163  0.7667  0.0986
   68MOL0     C 9086   5.182  -0.526   3.950 -0.1145  0.0560  0.9163
   68MOL0     C 9087   5.322  -0.505   3.883  0.2235 -0.9698  0.1429
   68MOL0     C 9088   5.376  -0.628   3.817  0.0858 -0.1607  0.4412
   68MOL0    Cl 9089   5.431  -0.767   3.926  0.3036  0.1739 -0.5167
   68MOL0     C 9090   4.530   0.058   3.853  0.8711  0.0048  0.3360
   68MOL0     C 9091   4.447   0.163   3.887  0.5338  0.4452  0.5417
   68MOL0     O 9092   4.367   0.352   4.242  0.0497 -0.1050 -0.5354
   68MOL0     C 9093   4.067   0.456   4.062 -0.4633  0.2335  0.0008
   68MOL0     C 9094   3.944   0.524   4.095  0.1054 -0.1348  0.6739
   68MOL0     N 9095   3.316   0.833   4.397  0.7484  0.5315  0.6242
   68MOL0     N 9096   3.245   0.888   4.487 -0.2092 -0.3206 -0.5573
   68MOL0     C 9097   2.102   1.169   4.261  0.4475  0.0661 -0.0536
   68MOL0     C 9098   1.975   1.160   4.199  0.3229 -0.6564  0.1435
   68MOL0     C 9099   1.516   1.142   4.202 -0.2269 -0.8561 -0.5858
   68MOL0     C 9100   1.471   1.043   4.115 -0.6520 -0.2046 -1.2009
   68MOL0     C 9101   1.347   1.043   4.055  0.0036 -0.1362  1.0540
   68MOL0     C 9102   1.256   1.140   4.090 -0.2189 -0.0668  0.0938
   68MOL0     O 9103   1.122   1.154   4.046 -0.4054  0.4348 -0.3900
   68MOL0     C 9104   1.080   1.034   3.980 -0.0843  0.6987  1.6210
   68MOL0     C 9105   0.934   1.052   3.941 -0.3476 -0.9484 -0.1108
   68MOL0     C 9106   0.883   0.964   3.832 -0.0260 -0.1129  0.0793
   68MOL0     C 9107   0.731   0.992   3.804 -0.7927  1.1107 -0.0215
   68MOL0     C 9108   0.645   0.927   3.907  0.6130  0.7009  0.4082
   68MOL0     C 9109   0.572   0.845   3.973  0.5173  0.5481 -0.0897
   68MOL0     C 9110   1.296   1.244   4.175 -0.5505  0.6522 -0.4029
   68MOL0     C 9111   1.426   1.246   4.231  0.3842 -0.3457 -0.2570
   68MOL0     C 9112   1.455   1.371   4.314  0.0751 -0.3021 -0.4750
   68MOL0     H 9113   1.823   0.933   4.403 -2.0802  0.8418 -3.2482
   68MOL0     H 9114   2.069   0.924   4.481  3.6533  1.1433  1.0583
   68MOL0     H 9115   2.365   1.162   4.256  0.8718 -1.5295 -0.3436
   68MOL0     H 9116   2.346   1.247   4.417 -2.6514 -1.7038  2.4786
   68MOL0     H 9117   2.496   1.002   4.356  1.1705 -1.5270 -0.0905
   68MOL0     H 9118   2.500   1.093   4.509 -3.4701  0.7417 -0.5202
   68MOL0     H 9119   2.632   1.262   4.442 -2.1042 -0.1240  0.3570
   68MOL0     H 9120   2.622   1.236   4.265  3.4453  0.3397 -0.2718
   68MOL0     H 9121   2.774   1.067   4.476  5.5021 -1.2793 -0.4817
   68MOL0     H 9122   2.748   1.016   4.308  0.6762 -1.3956  1.2028
   68MOL0     H 9123   2.867   1.224   4.223 -0.9561  1.0822  0.0881
   68MOL0     H 9124   2.844   1.303   4.368  1.1312  0.7002 -1.7714
   68MOL0     H 9125   3.022   1.073   4.303  2.0059 -1.8484  2.0235
   68MOL0     H 9126   3.082   1.244   4.337  0.2828  0.3774  1.8528
   68MOL0     H 9127   2.992   1.016   4.529 -0.6922  0.3630  1.5317
   68MOL0     H 9128   2.978   1.182   4.585 -1.2812 -2.6029  0.9949
   68MOL0     H 9129   3.222   1.221   4.543 -2.5278  0.3366 -1.6761
   68MOL0     H 9130   3.193   1.114   4.673 -0.9576  1.4967  1.4039
   68MOL0     H 9131   3.407   1.150   4.358 -0.6987 -0.2759 -0.0835
   68MOL0     H 9132   3.488   0.852   4.141  1.2663 -0.6829  0.1455
   68MOL0     H 9133   3.500   1.028   4.181 -2.8671  0.6307  2.2747
   68MOL0     H 9134   3.719   0.891   4.193  1.5516  1.7900  0.9621
   68MOL0     H 9135   3.669   0.974   4.341  0.8824  0.0635 -0.5502
   68MOL0     H 9136   3.580   0.686   4.300 -1.5843 -0.1816  1.0951
   68MOL0     H 9137   3.597   0.780   4.447 -2.0728  2.4202 -1.9746
   68MOL0     H 9138   3.773   0.625   4.458 -1.0990  0.4391  1.9471
   68MOL0     H 9139   3.843   0.774   4.396 -1.6633  2.0473  0.0327
   68MOL0     H 9140   3.992   0.534   4.438 -4.5959 -2.2447 -0.0855
   68MOL0     H 9141   4.179   0.407   4.380  1.2108  0.5350 -1.7148
   68MOL0     H 9142   4.398   0.092   4.216 -4.1043  1.2825 -1.8412
   68MOL0     H 9143   4.576  -0.085   4.145 -2.0266 -0.8897  0.5076
   68MOL0     H 9144   4.501  -0.243   3.885 -0.1437 -2.0157  0.5421
   68MOL0     H 9145   4.622  -0.203   3.759 -1.9531 -0.0337  0.6043
   68MOL0     H 9146   4.678  -0.375   4.002 -1.7995  1.1457 -0.0302
   68MOL0     H 9147   4.657  -0.446   3.842  1.9362 -1.9735  1.5738
   68MOL0     H 9148   4.865  -0.351   3.748 -1.3273 -1.5029  0.6090
   68MOL0     H 9149   4.879  -0.245   3.885 -0.1862 -0.1088  0.0583
   68MOL0     H 9150   4.881  -0.550   3.896 -1.4516 -0.0771 -0.0970
   68MOL0     H 9151   4.909  -0.439   4.027  1.1224 -0.0676 -0.4139
   68MOL0     H 9152   5.104  -0.335   3.902  0.5623  0.6180 -0.1190
   68MOL0     H 9153   5.093  -0.445   3.773  2.9437  1.9918  0.4848
   68MOL0     H 9154   5.183  -0.508   4.058 -3.6674  0.8805  0.9310
   68MOL0     H 9155   5.155  -0.629   3.925 -2.9178  0.7341  0.8329
   68MOL0     H 9156   5.399  -0.482   3.957 -0.1767  1.0528 -0.0050
   68MOL0     H 9157   5.317  -0.424   3.810 -0.7570 -0.6821  0.5100
   68MOL0     H 9158   5.302  -0.682   3.757  0.4140 -2.8594  2.2685
   68MOL0     H 9159   5.461  -0.601   3.755 -0.9529 -0.7826 -1.3304
   68MOL0     H 9160   4.566   0.034   3.754  2.2176  1.8455  0.3232
   68MOL0     H 9161   4.423   0.240   3.814 -0.0916  0.7915  1.1032
   68MOL0     H 9162   4.085   0.426   3.959 -0.8148 -2.6702  0.6998
   68MOL0     H 9163   3.869   0.534   4.018  0.0375 -0.5347  0.6833
   68MOL0     H 9164   2.172   1.244   4.227  0.0211  0.9098  0.8607
   68MOL0     H 9165   1.954   1.227   4.117 -2.3092 -0.2605  1.0391
   68MOL0     H 9166   1.533   0.966   4.071 -0.2405  0.2966 -1.5061
   68MOL0     H 9167   1.327   0.977   3.971  1.2750 -1.1864  1.5537
   68MOL0     H 9168   1.091   0.938   4.030 -3.7751  1.2561  3.8819
   68MOL0     H 9169   1.129   1.029   3.882 -0.8191  3.0993  1.0526
   68MOL0     H 9170   0.924   1.154   3.903 -0.6379 -0.7893  0.3953
   68MOL0     H 9171   0.879   1.051   4.035  0.5409  1.1964  0.4961
   68MOL0     H 9172   0.910   0.865   3.869  1.0470  1.0992  2.8374
   68MOL0     H 9173   0.935   0.990   3.739 -3.8470 -1.7866 -2.7874
   68MOL0     H 9174   0.717   1.100   3.802 -2.3942  0.9649  0.9099
   68MOL0     H 9175   0.692   0.954   3.709 -1.8093  0.3386  0.6660
   68MOL0     H 9176   0.496   0.782   4.014  1.3061  0.1540  0.8020
   68MOL0     H 9177   1.221   1.320   4.196 -1.1429 -0.3592  1.3372
   68MOL0     H 9178   1.433   1.468   4.268  0.7703  1.0204  1.8603
   68MOL0     H 9179   1.412   1.373   4.414 -1.6936  2.7726 -1.1431
   68MOL0     H 9180   1.564   1.372   4.319  0.0231 -0.3337  1.1927
   69MOL0     O 9181   1.875   8.547   3.435  0.3625  0.5921 -0.2279
   69MOL0     C 9182   1.829   8.435   3.406  0.2043  0.9378 -0.2225
   69MOL0     O 9183   1.897   8.319   3.389 -0.4037 -0.2409  0.7568
   69MOL0     C 9184   2.031   8.333   3.412  0.4709 -0.5581  0.0876
   69MOL0     C 9185   2.078   8.252   3.512  0.0089 -0.2407 -0.8841
   69MOL0     C 9186   2.207   8.277   3.564 -0.2379 -0.9765  0.4027
   69MOL0     C 9187   2.290   8.365   3.502 -0.5709  0.2926 -0.9831
   69MOL0     O 9188   2.414   8.388   3.555 -1.1657  0.1664 -0.5284
   69MOL0     C 9189   2.490   8.508   3.523  0.3614  0.9403 -0.1063
   69MOL0     C 9190   2.586   8.536   3.638  0.3271  0.5075 -0.3644
   69MOL0     C 9191   2.721   8.460   3.641  0.0697  0.8872  0.3025
   69MOL0     C 9192   2.778   8.472   3.776  0.0934 -0.8981 -0.1814
   69MOL0     C 9193   2.842   8.613   3.795 -0.0432  0.4504 -0.0239
   69MOL0     C 9194   2.898   8.645   3.939 -0.9330  0.3575 -0.1735
   69MOL0     C 9195   2.981   8.768   3.957 -0.2331 -0.5272 -0.1260
   69MOL0     C 9196   3.019   8.771   4.100 -0.6968 -0.1642  0.6721
   69MOL0     N 9197   3.106   8.897   4.114  0.1637  0.1304 -1.1084
   69MOL0     C 9198   3.058   9.008   4.181 -0.0358  0.1603  0.6271
   69MOL0     C 9199   3.174   9.073   4.214  0.1332 -0.2244  0.3314
   69MOL0     C 9200   3.206   9.208   4.281 -0.0801  0.2249 -0.3506
   69MOL0     C 9201   3.183   9.317   4.178 -0.0487 -0.7947 -0.2567
   69MOL0     C 9202   3.222   9.464   4.209  0.3945  0.1879 -0.4348
   69MOL0     C 9203   3.361   9.478   4.241  0.1560  0.1662 -0.3819
   69MOL0     O 9204   3.403   9.612   4.254  0.1469 -0.7160  0.4172
   69MOL0     C 9205   3.532   9.655   4.270  0.0093 -0.3505  0.4587
   69MOL0     C 9206   3.635   9.603   4.188 -0.1510 -0.2745 -0.1124
   69MOL0     C 9207   3.770   9.651   4.209  0.5287 -0.1637 -0.8695
   69MOL0     C 9208   3.794   9.743   4.310 -0.5063  0.1787 -0.4759
   69MOL0     C 9209   3.927   9.798   4.329  0.4209 -0.1496  0.1680
   69MOL0     O 9210   3.977   9.867   4.225  0.7289 -0.6127  0.5418
   69MOL0     C 9211   4.095   9.939   4.236 -0.0137 -0.1428  0.2270
   69MOL0     C 9212   4.122  10.006   4.354 -0.1938  0.1296 -0.6291
   69MOL0     C 9213   4.236  10.088   4.363  0.0862  1.2239 -0.1908
   69MOL0     C 9214   4.322  10.109   4.252 -0.3082 -0.3104  0.7679
   69MOL0     O 9215   4.435  10.185   4.264 -0.1537  0.2404 -0.3321
   69MOL0     C 9216   4.531  10.185   4.163  0.6262 -0.9727  0.5651
   69MOL0     C 9217   4.663  10.247   4.202  0.1028 -0.7042  0.0861
   69MOL0     C 9218   4.699  10.217   4.348 -0.1902  1.1909  0.1525
   69MOL0     C 9219   4.832  10.260   4.395 -0.3364 -0.2084 -0.5436
   69MOL0     C 9220   4.845  10.245   4.547  0.1336 -0.6106 -0.0226
   69MOL0     C 9221   4.991  10.279   4.604  0.4412  0.2648  0.2347
   69MOL0     C 9222   5.009  10.305   4.753  0.1595  0.7701  0.0773
   69MOL0     C 9223   5.149  10.332   4.789 -0.4845  0.9286 -0.1867
   69MOL0    Cl 9224   5.193  10.501   4.732  0.0414 -0.1787 -0.1978
   69MOL0     C 9225   4.289  10.038   4.135 -0.8609  0.6689 -0.2505
   69MOL0     C 9226   4.175   9.958   4.122 -0.3007  0.1266  0.6496
   69MOL0     O 9227   3.988   9.767   4.434  0.5504  0.6790 -0.7346
   69MOL0     C 9228   3.689   9.795   4.390 -0.2977  0.5843 -0.2091
   69MOL0     C 9229   3.559   9.760   4.355 -0.0886 -0.6211 -0.0431
   69MOL0     N 9230   3.284   9.011   4.141 -0.0634 -0.6442 -0.5641
   69MOL0     N 9231   3.242   8.903   4.093 -0.0271  0.0344  0.0963
   69MOL0     C 9232   2.247   8.438   3.393  1.0120  0.4883  1.0129
   69MOL0     C 9233   2.122   8.419   3.344 -0.2661  0.4288  0.0994
   69MOL0     C 9234   1.685   8.425   3.398  0.0401 -0.5587  0.2738
   69MOL0     C 9235   1.607   8.477   3.510  0.3985 -1.3699  0.6350
   69MOL0     C 9236   1.475   8.441   3.522 -0.0735 -0.7178  0.2776
   69MOL0     C 9237   1.408   8.356   3.428 -0.3622 -0.3829  0.7019
   69MOL0     O 9238   1.278   8.313   3.445  0.5612 -0.4099 -0.2069
   69MOL0     C 9239   1.208   8.257   3.331  0.3180 -0.2805  0.1294
   69MOL0     C 9240   1.059   8.287   3.360  0.2230 -0.1355  0.2059
   69MOL0     C 9241   0.965   8.227   3.257  0.3018  0.9643  0.1822
   69MOL0     C 9242   0.822   8.292   3.283  0.4538 -0.4555  0.3791
   69MOL0     C 9243   0.725   8.212   3.207 -0.6411  0.2330 -0.3833
   69MOL0     C 9244   0.640   8.148   3.153 -0.7136  0.3730  0.5793
   69MOL0     C 9245   1.488   8.317   3.323 -1.0605  1.1599  0.1147
   69MOL0     C 9246   1.620   8.345   3.303  0.1982  0.3963 -0.5747
   69MOL0     C 9247   1.693   8.269   3.196 -0.7808 -0.2390  0.1345
   69MOL0     H 9248   2.006   8.189   3.564  0.8829  1.1254  2.2432
   69MOL0     H 9249   2.250   8.218   3.644  2.8165 -0.6985 -0.8990
   69MOL0     H 9250   2.547   8.482   3.434 -1.2830  2.5743 -1.7417
   69MOL0     H 9251   2.420   8.592   3.515 -0.0587  0.7266  1.0838
   69MOL0     H 9252   2.538   8.514   3.734  1.0666 -0.5900 -0.2212
   69MOL0     H 9253   2.608   8.641   3.619  0.8273  0.3150 -0.8712
   69MOL0     H 9254   2.798   8.502   3.576  2.1764 -2.9920 -0.0291
   69MOL0     H 9255   2.701   8.354   3.624 -0.2281  1.2182 -1.5465
   69MOL0     H 9256   2.707   8.467   3.859 -0.7080 -0.1297 -0.8060
   69MOL0     H 9257   2.861   8.401   3.786 -0.9839 -2.2558 -0.6226
   69MOL0     H 9258   2.914   8.629   3.715 -1.0116  0.0587 -0.9938
   69MOL0     H 9259   2.771   8.692   3.770 -0.3753 -0.1756 -1.1253
   69MOL0     H 9260   2.809   8.661   4.001 -2.3361 -0.0355 -1.9975
   69MOL0     H 9261   2.946   8.558   3.985 -3.4022 -1.2487 -0.4756
   69MOL0     H 9262   2.923   8.854   3.922 -0.3577  0.4270  2.2613
   69MOL0     H 9263   3.072   8.753   3.898  0.8103 -3.6978  1.9792
   69MOL0     H 9264   2.936   8.789   4.169 -2.3553  2.7904 -1.8301
   69MOL0     H 9265   3.079   8.685   4.129  3.1274  1.4025 -1.8039
   69MOL0     H 9266   2.953   9.033   4.196 -0.4601 -2.1497  1.8091
   69MOL0     H 9267   3.155   9.227   4.376  1.0121  0.2907  0.2401
   69MOL0     H 9268   3.310   9.214   4.314 -0.6292 -1.6301  2.0308
   69MOL0     H 9269   3.232   9.291   4.084 -1.6125  0.5053 -1.4888
   69MOL0     H 9270   3.075   9.321   4.165 -0.4301 -2.8466  1.7330
   69MOL0     H 9271   3.162   9.520   4.281  1.7086 -0.3936  1.1764
   69MOL0     H 9272   3.215   9.518   4.114  0.4395  0.6104 -0.2008
   69MOL0     H 9273   3.425   9.418   4.176 -1.1966 -1.9061  0.1091
   69MOL0     H 9274   3.382   9.429   4.337 -1.4208 -3.1306 -1.5784
   69MOL0     H 9275   3.614   9.530   4.110 -1.0777  0.1934 -0.3148
   69MOL0     H 9276   3.856   9.606   4.160  1.8013  0.9134  0.2880
   69MOL0     H 9277   4.061   9.990   4.442  1.3838 -2.4049  0.0990
   69MOL0     H 9278   4.252  10.152   4.449 -1.8634  0.4066  0.8253
   69MOL0     H 9279   4.545  10.079   4.139  2.9111 -0.3088 -1.4729
   69MOL0     H 9280   4.484  10.231   4.076  2.5885 -0.3150 -0.2155
   69MOL0     H 9281   4.736  10.202   4.134  0.2255  0.8656 -0.8824
   69MOL0     H 9282   4.652  10.352   4.173 -0.4914 -0.5960  0.6880
   69MOL0     H 9283   4.619  10.251   4.415  0.6121 -1.4153  2.5927
   69MOL0     H 9284   4.693  10.109   4.363 -1.1645  1.1328 -0.5438
   69MOL0     H 9285   4.829  10.368   4.375  1.0319 -0.0635 -0.0742
   69MOL0     H 9286   4.917  10.225   4.336  0.0022  1.0694 -0.8631
   69MOL0     H 9287   4.829  10.142   4.581  0.2369 -1.1250 -1.4563
   69MOL0     H 9288   4.777  10.304   4.609  1.4863  0.2793  0.6550
   69MOL0     H 9289   5.056  10.198   4.571 -0.1854 -1.5194  3.0403
   69MOL0     H 9290   5.001  10.372   4.547 -4.1502  1.5918  1.1617
   69MOL0     H 9291   4.981  10.216   4.810 -2.8072  1.7873  0.3587
   69MOL0     H 9292   4.937  10.379   4.787 -3.5388 -2.0050 -1.0687
   69MOL0     H 9293   5.163  10.318   4.896 -1.1869  0.3146 -0.1649
   69MOL0     H 9294   5.226  10.265   4.751 -0.9977  0.3606 -0.2364
   69MOL0     H 9295   4.350  10.049   4.046  0.7797 -1.1254  0.5727
   69MOL0     H 9296   4.146   9.903   4.033  2.7692  0.2401 -0.5363
   69MOL0     H 9297   3.702   9.862   4.475  1.7030  0.8941 -0.7148
   69MOL0     H 9298   3.485   9.821   4.404  1.5258  1.2663  0.1659
   69MOL0     H 9299   2.302   8.517   3.345 -2.9054  3.3496  0.6973
   69MOL0     H 9300   2.076   8.471   3.261 -1.4207 -0.3012  0.2506
   69MOL0     H 9301   1.650   8.545   3.583 -0.5982  0.1418 -0.1242
   69MOL0     H 9302   1.423   8.456   3.616  0.6348 -2.6581  1.0340
   69MOL0     H 9303   1.223   8.151   3.314 -0.1994 -0.4959  0.9462
   69MOL0     H 9304   1.220   8.306   3.234 -0.6266 -0.3575 -0.0339
   69MOL0     H 9305   1.045   8.395   3.350  0.1552 -0.2602 -1.3277
   69MOL0     H 9306   1.031   8.257   3.462 -0.2174  0.9252  0.4133
   69MOL0     H 9307   0.965   8.118   3.256 -1.6729  0.9051  1.0306
   69MOL0     H 9308   1.001   8.261   3.160  1.2700  0.5227  0.3847
   69MOL0     H 9309   0.798   8.303   3.389 -0.0875  0.1330  0.1977
   69MOL0     H 9310   0.823   8.395   3.247 -1.1644  0.0227  1.5798
   69MOL0     H 9311   0.564   8.098   3.097  2.1518 -0.0286 -3.3579
   69MOL0     H 9312   1.452   8.250   3.246  2.5178  2.6705 -3.1860
   69MOL0     H 9313   1.626   8.264   3.110 -2.0845  2.0030  0.9188
   69MOL0     H 9314   1.787   8.312   3.160  2.6741 -5.4035  1.8424
   69MOL0     H 9315   1.712   8.166   3.227  0.5098  0.2499  1.0607
   70MOL0     O 9316   7.034   4.719   6.487  0.2768 -1.1007 -0.2734
   70MOL0     C 9317   6.951   4.684   6.567 -0.2633  1.3325  0.7067
   70MOL0     O 9318   6.964   4.579   6.650  0.2512  0.2888 -0.1144
   70MOL0     C 9319   7.064   4.491   6.614  1.0968 -0.0050 -1.1392
   70MOL0     C 9320   7.042   4.367   6.560  0.6695 -0.1178 -0.1684
   70MOL0     C 9321   7.139   4.266   6.562  0.4929  1.0523  0.0985
   70MOL0     C 9322   7.260   4.285   6.626 -0.1195 -0.5563 -1.1156
   70MOL0     O 9323   7.354   4.191   6.662 -0.6986  0.9244  0.0408
   70MOL0     C 9324   7.336   4.070   6.594 -0.0602 -0.0949  0.0756
   70MOL0     C 9325   7.448   3.983   6.640  0.2547  0.0579 -0.8188
   70MOL0     C 9326   7.579   4.007   6.559 -0.0608 -0.4449  0.4090
   70MOL0     C 9327   7.689   3.956   6.651  0.3753  0.8054  0.4951
   70MOL0     C 9328   7.818   3.947   6.566  0.3207 -0.1970  0.3825
   70MOL0     C 9329   7.933   3.899   6.653  0.7856  0.0434 -0.3509
   70MOL0     C 9330   8.022   3.824   6.562  0.2022 -0.1725  0.2209
   70MOL0     C 9331   8.163   3.794   6.611 -0.4884  0.8020 -0.1823
   70MOL0     N 9332   8.242   3.757   6.496  1.1707 -0.2370  1.5453
   70MOL0     C 9333   8.264   3.836   6.387  0.2013  0.5891  0.0425
   70MOL0     C 9334   8.361   3.772   6.322  0.0349 -0.1015  0.8428
   70MOL0     C 9335   8.421   3.845   6.195  0.0884  0.3598  0.8913
   70MOL0     C 9336   8.559   3.787   6.147 -0.1749  0.3714  1.0152
   70MOL0     C 9337   8.673   3.874   6.199 -0.0612  0.1500 -0.2492
   70MOL0     C 9338   8.811   3.829   6.167 -0.4656  1.1343  0.6633
   70MOL0     O 9339   8.848   3.837   6.022  0.2243 -0.2648 -0.6725
   70MOL0     C 9340   8.986   3.866   5.998  0.2997  0.5030 -0.3589
   70MOL0     C 9341   9.026   3.904   5.871  0.7985 -0.0268  0.1388
   70MOL0     C 9342   9.156   3.930   5.835  1.2818 -0.0024 -0.2481
   70MOL0     C 9343   9.257   3.935   5.928  1.0825 -1.0060 -0.3475
   70MOL0     C 9344   9.388   3.958   5.884  0.0166  0.3345 -0.5945
   70MOL0     O 9345   9.484   3.971   5.982 -0.5394 -0.0776 -0.1060
   70MOL0     C 9346   9.614   3.992   5.943 -0.4729 -0.2300 -0.0996
   70MOL0     C 9347   9.659   4.116   5.917  0.4838 -0.3944 -0.0494
   70MOL0     C 9348   9.788   4.144   5.867  0.8030 -0.3725  0.3213
   70MOL0     C 9349   9.873   4.032   5.847 -0.0168  0.3703  0.8444
   70MOL0     O 9350   9.997   4.034   5.786  0.5935 -0.9116  0.3149
   70MOL0     C 9351  10.055   4.155   5.742  0.3568  1.0757 -0.3945
   70MOL0     C 9352  10.145   4.131   5.624  0.2964 -0.7719 -0.1601
   70MOL0     C 9353  10.284   4.078   5.678  0.6274  0.0567 -0.6370
   70MOL0     C 9354  10.388   4.054   5.562  0.2655 -0.0464  0.3898
   70MOL0     C 9355  10.520   3.993   5.609  0.1298  0.4600  1.2811
   70MOL0     C 9356  10.626   4.099   5.654 -0.5932  0.9789 -0.3665
   70MOL0     C 9357  10.756   4.023   5.676 -0.6794  0.9288  0.3096
   70MOL0     C 9358  10.870   4.123   5.689 -0.1458  0.5101  0.4721
   70MOL0    Cl 9359  11.017   4.042   5.751  0.3212 -0.3554  0.1128
   70MOL0     C 9360   9.833   3.906   5.882  0.5620 -0.2072  1.3799
   70MOL0     C 9361   9.701   3.878   5.928  0.4391  0.6013  0.4682
   70MOL0     O 9362   9.410   3.961   5.762 -0.4018  0.1972 -0.2435
   70MOL0     C 9363   9.219   3.905   6.060  0.3210  0.4332  0.8599
   70MOL0     C 9364   9.086   3.868   6.087 -0.4836  0.9086 -0.2353
   70MOL0     N 9365   8.410   3.665   6.399  0.5058  0.4433  0.3667
   70MOL0     N 9366   8.339   3.664   6.500  0.0274 -0.2870  0.5353
   70MOL0     C 9367   7.290   4.417   6.673  0.7159 -0.4457 -0.5064
   70MOL0     C 9368   7.197   4.518   6.662  0.4449 -0.0411 -0.2413
   70MOL0     C 9369   6.831   4.763   6.581  0.3913 -0.1160 -0.2842
   70MOL0     C 9370   6.734   4.720   6.672  0.6444  0.9355  0.1619
   70MOL0     C 9371   6.607   4.785   6.685 -0.9610  1.1948 -1.2138
   70MOL0     C 9372   6.577   4.888   6.604  0.8147 -0.5507  0.0813
   70MOL0     O 9373   6.451   4.945   6.599 -0.3550 -0.6992  0.0356
   70MOL0     C 9374   6.341   4.906   6.683 -0.6901 -0.1321  0.1632
   70MOL0     C 9375   6.360   4.951   6.830  0.2283  0.0514  0.6492
   70MOL0     C 9376   6.360   5.103   6.852  0.3009  0.4782  0.1693
   70MOL0     C 9377   6.339   5.125   6.998 -0.0645 -1.0642 -0.0743
   70MOL0     C 9378   6.418   5.234   7.055  0.4021  0.9621  0.1698
   70MOL0     C 9379   6.477   5.320   7.115 -0.3006 -0.0426  0.5705
   70MOL0     C 9380   6.680   4.940   6.524 -0.1229 -0.8779  0.0954
   70MOL0     C 9381   6.805   4.881   6.510  0.9476  0.7134  0.2666
   70MOL0     C 9382   6.893   4.955   6.426  0.0668  1.2075 -0.5103
   70MOL0     H 9383   6.939   4.347   6.534  0.5110  0.1429  0.2396
   70MOL0     H 9384   7.122   4.167   6.522 -0.6401  0.8279  1.0861
   70MOL0     H 9385   7.246   4.023   6.635  0.2386  0.3385  1.2772
   70MOL0     H 9386   7.329   4.080   6.486  2.1226 -0.5006 -0.1657
   70MOL0     H 9387   7.435   3.875   6.623 -0.4149 -0.4639  2.4089
   70MOL0     H 9388   7.469   4.002   6.745  1.9857 -0.2018 -1.0851
   70MOL0     H 9389   7.590   4.112   6.531 -1.4850 -0.2393  0.5422
   70MOL0     H 9390   7.573   3.957   6.462 -1.7623  1.4268 -0.5065
   70MOL0     H 9391   7.710   4.032   6.727 -3.1511  0.6606  1.7832
   70MOL0     H 9392   7.657   3.857   6.685  2.6944 -0.4027 -0.6197
   70MOL0     H 9393   7.809   3.873   6.486  2.5549  2.0469 -2.1870
   70MOL0     H 9394   7.858   4.036   6.516  0.0412  0.1934  0.8497
   70MOL0     H 9395   7.987   3.987   6.690  3.0807 -1.0483 -0.9008
   70MOL0     H 9396   7.906   3.837   6.739  1.7986 -2.7929 -1.9699
   70MOL0     H 9397   8.034   3.877   6.467 -4.1581  1.1182  0.1967
   70MOL0     H 9398   7.979   3.728   6.533 -0.2724  0.4110 -1.0861
   70MOL0     H 9399   8.212   3.878   6.659  1.3750 -1.0278  1.3052
   70MOL0     H 9400   8.164   3.712   6.683 -1.8722  0.5813 -0.3823
   70MOL0     H 9401   8.220   3.930   6.356 -0.4181 -0.3975 -2.3133
   70MOL0     H 9402   8.347   3.837   6.115  1.0033 -1.2224  0.1513
   70MOL0     H 9403   8.447   3.944   6.233  2.5275 -0.5422  1.8086
   70MOL0     H 9404   8.572   3.683   6.177 -0.2862  0.2703  0.7224
   70MOL0     H 9405   8.562   3.790   6.037 -1.7769  0.5927  0.9538
   70MOL0     H 9406   8.672   3.892   6.307 -2.2090 -0.2433 -0.1624
   70MOL0     H 9407   8.642   3.971   6.159 -1.1009 -0.1249 -0.1318
   70MOL0     H 9408   8.822   3.728   6.208 -3.3126  0.4095 -0.1263
   70MOL0     H 9409   8.867   3.907   6.219  1.4818  1.6341 -2.0010
   70MOL0     H 9410   8.951   3.914   5.793  0.3068 -1.5187  0.4035
   70MOL0     H 9411   9.174   3.933   5.728  0.4481 -2.8650 -0.5591
   70MOL0     H 9412   9.584   4.194   5.921  0.8925 -0.0285  0.7921
   70MOL0     H 9413   9.811   4.243   5.829 -0.2058 -1.2823 -2.9019
   70MOL0     H 9414   9.983   4.234   5.718  0.7881  1.4230 -0.5581
   70MOL0     H 9415  10.116   4.184   5.828  1.2602 -2.3583  0.2567
   70MOL0     H 9416  10.093   4.069   5.550  0.0094 -1.6614  0.7698
   70MOL0     H 9417  10.177   4.223   5.575  2.1365 -0.3681  1.6653
   70MOL0     H 9418  10.312   4.142   5.763 -1.5935  0.1189  0.1313
   70MOL0     H 9419  10.275   3.979   5.724  1.6728  1.2910  2.5343
   70MOL0     H 9420  10.402   4.150   5.512 -3.1604  1.5712  2.1952
   70MOL0     H 9421  10.331   3.981   5.503 -2.5153  1.1827  1.4267
   70MOL0     H 9422  10.569   3.935   5.531 -0.7167 -1.7840  2.3342
   70MOL0     H 9423  10.498   3.922   5.690  0.7272  0.2745  1.2809
   70MOL0     H 9424  10.638   4.187   5.590 -0.9237  1.0409 -0.3437
   70MOL0     H 9425  10.590   4.132   5.752  0.7051  0.8821  0.1635
   70MOL0     H 9426  10.760   3.947   5.597  0.9910 -2.2095  3.1747
   70MOL0     H 9427  10.757   3.967   5.770 -0.7602 -2.1172 -1.3574
   70MOL0     H 9428  10.889   4.162   5.588  0.3658 -2.3827 -0.6512
   70MOL0     H 9429  10.840   4.199   5.762 -2.8755 -1.2933  1.4185
   70MOL0     H 9430   9.908   3.828   5.874 -0.6320 -1.1704 -2.2268
   70MOL0     H 9431   9.660   3.781   5.954  1.9519 -0.3174 -0.4408
   70MOL0     H 9432   9.295   3.907   6.137 -0.3712 -1.1411  1.6362
   70MOL0     H 9433   9.077   3.831   6.188  1.4706 -1.5993 -0.8839
   70MOL0     H 9434   7.382   4.439   6.726  0.0598  0.4089  0.3119
   70MOL0     H 9435   7.215   4.621   6.689 -2.8369  0.1067  1.9439
   70MOL0     H 9436   6.742   4.630   6.732 -1.5676  0.8826  0.4685
   70MOL0     H 9437   6.550   4.729   6.758  3.0891  0.7826  2.0270
   70MOL0     H 9438   6.336   4.797   6.671  0.2473 -0.0838 -0.8613
   70MOL0     H 9439   6.250   4.956   6.651  1.5242  2.2056 -3.0217
   70MOL0     H 9440   6.451   4.906   6.871  1.8257  1.8791 -0.7111
   70MOL0     H 9441   6.275   4.908   6.884  0.1519 -0.2059  0.3298
   70MOL0     H 9442   6.280   5.148   6.792  2.5330  3.8656 -0.5979
   70MOL0     H 9443   6.459   5.136   6.818  1.5596 -3.0227  0.0178
   70MOL0     H 9444   6.234   5.158   6.995 -0.0824 -1.1214 -0.0787
   70MOL0     H 9445   6.353   5.034   7.056  3.7193 -0.7244 -0.2200
   70MOL0     H 9446   6.536   5.386   7.175 -0.6618  1.3326 -0.5500
   70MOL0     H 9447   6.655   5.031   6.470  2.2430 -0.4986 -0.4871
   70MOL0     H 9448   6.992   4.975   6.466  1.1206  0.4619 -2.6201
   70MOL0     H 9449   6.903   4.889   6.340  3.0772  2.7609 -1.4814
   70MOL0     H 9450   6.848   5.051   6.398 -0.9723  1.2957  1.2440
   71MOL0     O 9451   3.061   7.582   3.505 -0.1723 -0.3816 -0.6973
   71MOL0     C 9452   3.020   7.633   3.401  0.3176 -1.0087 -0.0043
   71MOL0     O 9453   3.109   7.679   3.305  0.7594  0.0239 -0.0674
   71MOL0     C 9454   3.230   7.616   3.291 -0.5431  0.4077 -0.1334
   71MOL0     C 9455   3.252   7.473   3.294  0.1926 -0.0992 -0.7825
   71MOL0     C 9456   3.383   7.419   3.282 -0.7714 -0.6558 -1.1819
   71MOL0     C 9457   3.488   7.496   3.244 -0.2791  0.6562 -0.8597
   71MOL0     O 9458   3.610   7.436   3.206 -0.6026  0.1381 -0.3420
   71MOL0     C 9459   3.736   7.507   3.180 -0.0326  0.7220  0.3710
   71MOL0     C 9460   3.838   7.393   3.151  1.0040  0.1053  0.0514
   71MOL0     C 9461   3.969   7.448   3.106 -0.2007  0.0459 -0.3178
   71MOL0     C 9462   4.048   7.476   3.235  0.0384 -0.5695 -0.3006
   71MOL0     C 9463   4.202   7.498   3.210  0.1047  0.0332  0.3707
   71MOL0     C 9464   4.234   7.601   3.097  0.0772 -0.2246 -1.1656
   71MOL0     C 9465   4.263   7.531   2.963  0.6603 -0.6072 -0.4467
   71MOL0     C 9466   4.385   7.598   2.897 -0.5131 -0.0429  0.1556
   71MOL0     N 9467   4.385   7.568   2.757  0.3689  0.5313 -0.3986
   71MOL0     C 9468   4.432   7.446   2.709  0.4651 -0.2525 -0.5801
   71MOL0     C 9469   4.434   7.466   2.576  0.0870  0.6016  0.1647
   71MOL0     C 9470   4.463   7.358   2.479 -0.1045  0.6806  0.2228
   71MOL0     C 9471   4.524   7.414   2.352  0.0259 -0.0380 -0.3282
   71MOL0     C 9472   4.672   7.443   2.373 -0.4716 -0.2194 -0.0435
   71MOL0     C 9473   4.766   7.327   2.334 -0.1140  0.1484 -1.0835
   71MOL0     O 9474   4.897   7.386   2.292  0.5857  0.1005 -0.6030
   71MOL0     C 9475   5.018   7.325   2.337 -0.3529  0.1510  0.2448
   71MOL0     C 9476   5.137   7.375   2.278 -0.4866 -0.7089 -0.4206
   71MOL0     C 9477   5.258   7.305   2.297  0.1404  0.8345  0.3902
   71MOL0     C 9478   5.262   7.184   2.368 -0.9959 -0.1227  0.1375
   71MOL0     C 9479   5.392   7.114   2.391 -0.0767 -1.0042 -1.4025
   71MOL0     O 9480   5.393   7.009   2.475  0.2952 -0.4463  0.1795
   71MOL0     C 9481   5.500   6.957   2.534 -0.6626  0.4490  0.4865
   71MOL0     C 9482   5.633   7.011   2.528 -0.1992  0.8562 -0.3968
   71MOL0     C 9483   5.739   6.952   2.593 -0.9674 -0.4353  0.1619
   71MOL0     C 9484   5.722   6.845   2.682  0.4700 -0.0339 -0.2807
   71MOL0     O 9485   5.819   6.799   2.769  0.1942 -0.4286  0.0265
   71MOL0     C 9486   5.944   6.859   2.790  0.3216  0.3919 -0.5185
   71MOL0     C 9487   6.028   6.775   2.895  0.1584  0.0822 -0.2223
   71MOL0     C 9488   6.095   6.644   2.838 -0.7402  0.5350  0.0248
   71MOL0     C 9489   6.190   6.666   2.719 -0.1218  0.3059 -0.1200
   71MOL0     C 9490   6.260   6.533   2.666  0.1484 -0.0367  0.0413
   71MOL0     C 9491   6.350   6.570   2.551  0.6582  0.3875 -0.3526
   71MOL0     C 9492   6.407   6.450   2.476  0.2506  0.1591 -0.5292
   71MOL0     C 9493   6.454   6.492   2.339  0.4308  0.9016  0.1413
   71MOL0    Cl 9494   6.314   6.526   2.219  0.4395 -0.2078 -0.0517
   71MOL0     C 9495   5.592   6.800   2.696 -0.2947 -0.0083  0.1916
   71MOL0     C 9496   5.482   6.847   2.619  0.5930  0.9146  0.5139
   71MOL0     O 9497   5.490   7.175   2.342 -0.1818  0.2945 -0.1168
   71MOL0     C 9498   5.148   7.141   2.433 -0.0465  0.0966  0.3375
   71MOL0     C 9499   5.027   7.208   2.414  0.1969  0.0006 -1.1258
   71MOL0     N 9500   4.385   7.594   2.550  0.0980  0.9971  0.4131
   71MOL0     N 9501   4.364   7.656   2.658 -0.3899  0.1820 -0.9227
   71MOL0     C 9502   3.475   7.628   3.242 -0.6733 -0.2922  0.2723
   71MOL0     C 9503   3.350   7.695   3.268  0.3788  0.2675  0.0854
   71MOL0     C 9504   2.869   7.665   3.388  0.4736  0.3919 -0.1925
   71MOL0     C 9505   2.825   7.757   3.294 -0.4886  0.4454 -0.6786
   71MOL0     C 9506   2.699   7.803   3.287 -0.4583  0.2300  0.7198
   71MOL0     C 9507   2.602   7.744   3.371 -0.1964 -0.3311 -0.3563
   71MOL0     O 9508   2.477   7.792   3.376  0.1838 -0.5757  0.4645
   71MOL0     C 9509   2.438   7.913   3.319 -0.2255 -0.1240 -0.0259
   71MOL0     C 9510   2.291   7.940   3.334 -0.1254 -0.3978 -0.4124
   71MOL0     C 9511   2.200   7.866   3.242  0.8498 -0.1164  0.0847
   71MOL0     C 9512   2.074   7.935   3.204 -0.6377 -0.9169 -0.2232
   71MOL0     C 9513   2.093   8.064   3.143  0.1049 -0.5037  0.1325
   71MOL0     C 9514   2.088   8.174   3.092  0.9653  0.0144  0.2148
   71MOL0     C 9515   2.639   7.635   3.461  0.1697  0.4117 -0.0179
   71MOL0     C 9516   2.770   7.600   3.475 -0.2269  0.0388 -0.0790
   71MOL0     C 9517   2.800   7.503   3.594  0.9941  0.8272  0.8478
   71MOL0     H 9518   3.168   7.408   3.312  0.3343 -0.3343 -0.9693
   71MOL0     H 9519   3.393   7.311   3.289 -0.5117 -0.5488  0.9303
   71MOL0     H 9520   3.729   7.567   3.088  1.7501  0.3257 -0.0730
   71MOL0     H 9521   3.767   7.576   3.259 -0.6777  2.3048 -0.7069
   71MOL0     H 9522   3.800   7.335   3.067 -0.6716  0.5157  0.4985
   71MOL0     H 9523   3.845   7.328   3.239 -0.3710  0.9907  0.8442
   71MOL0     H 9524   3.955   7.535   3.041  1.9499 -0.7577 -1.9869
   71MOL0     H 9525   4.021   7.373   3.045  1.2978 -0.0416  1.0086
   71MOL0     H 9526   4.003   7.549   3.302 -2.2650 -2.3694  0.2566
   71MOL0     H 9527   4.047   7.387   3.299  0.0101  1.5967  2.9550
   71MOL0     H 9528   4.240   7.544   3.302 -2.2525  3.2596 -0.0971
   71MOL0     H 9529   4.249   7.400   3.201  1.0545  0.3785  1.4041
   71MOL0     H 9530   4.155   7.676   3.095  1.9392  2.3644  3.6606
   71MOL0     H 9531   4.317   7.663   3.133 -1.6759  2.2511 -1.1054
   71MOL0     H 9532   4.182   7.555   2.894  1.9128  1.7755 -1.1925
   71MOL0     H 9533   4.292   7.426   2.976 -2.5242 -1.4025  1.2666
   71MOL0     H 9534   4.370   7.704   2.921 -0.2923  0.0292 -0.0230
   71MOL0     H 9535   4.479   7.566   2.943  0.3669 -1.0086 -2.1519
   71MOL0     H 9536   4.438   7.351   2.762 -1.9289 -0.3233 -0.3048
   71MOL0     H 9537   4.527   7.290   2.536 -0.3062  1.9222  2.0071
   71MOL0     H 9538   4.369   7.304   2.461 -0.4640  1.6002 -0.7374
   71MOL0     H 9539   4.512   7.347   2.266 -0.7731 -0.4067  0.0620
   71MOL0     H 9540   4.465   7.498   2.314 -2.9609 -1.0732  1.6531
   71MOL0     H 9541   4.686   7.476   2.477  0.4506  1.7083 -0.7372
   71MOL0     H 9542   4.692   7.523   2.301 -3.6173  0.7287 -0.0118
   71MOL0     H 9543   4.719   7.268   2.255  0.2021 -0.9689 -0.4719
   71MOL0     H 9544   4.780   7.260   2.419  1.7463  1.9713  0.1299
   71MOL0     H 9545   5.119   7.471   2.231 -0.2819  1.4399  3.4390
   71MOL0     H 9546   5.349   7.353   2.263  0.2538 -0.5842 -1.4614
   71MOL0     H 9547   5.649   7.111   2.489 -2.2173  0.8882 -1.2541
   71MOL0     H 9548   5.833   7.002   2.573 -0.7160 -0.7666  0.5160
   71MOL0     H 9549   6.008   6.871   2.702  1.1759 -1.9754 -0.2945
   71MOL0     H 9550   5.932   6.957   2.836 -0.8293  0.4182 -0.8499
   71MOL0     H 9551   6.108   6.837   2.937  1.0966 -2.0868  1.3867
   71MOL0     H 9552   5.964   6.739   2.976  0.9164  1.1655  0.8931
   71MOL0     H 9553   6.144   6.594   2.922 -0.6663  3.1707  1.6677
   71MOL0     H 9554   6.027   6.566   2.803  1.2875 -0.1352 -2.7960
   71MOL0     H 9555   6.263   6.737   2.761 -1.1763  3.3115 -2.9294
   71MOL0     H 9556   6.140   6.715   2.635 -0.5511 -1.0451 -0.6684
   71MOL0     H 9557   6.186   6.459   2.635 -2.1168  1.9217  0.4058
   71MOL0     H 9558   6.315   6.487   2.748  0.2191  0.7758  0.4594
   71MOL0     H 9559   6.302   6.639   2.480  1.9670  0.1380 -1.5178
   71MOL0     H 9560   6.431   6.626   2.598  1.9338  1.4541 -3.5636
   71MOL0     H 9561   6.339   6.365   2.465 -1.7988  1.8675 -1.6503
   71MOL0     H 9562   6.507   6.430   2.518  0.4693  2.9611  0.4617
   71MOL0     H 9563   6.515   6.581   2.354  0.1179  0.8843  1.6503
   71MOL0     H 9564   6.517   6.414   2.294 -0.2993  0.8383 -0.8135
   71MOL0     H 9565   5.568   6.726   2.772  0.5929 -1.2912 -0.7260
   71MOL0     H 9566   5.381   6.813   2.640  0.6834  1.3015  1.6085
   71MOL0     H 9567   5.156   7.060   2.504 -1.6352 -0.0852  0.3283
   71MOL0     H 9568   4.938   7.159   2.452  0.4732  2.1554  2.8248
   71MOL0     H 9569   3.560   7.695   3.233  1.5868 -2.7492  1.8972
   71MOL0     H 9570   3.344   7.803   3.266  1.9002  0.4324  1.6218
   71MOL0     H 9571   2.906   7.805   3.240 -0.4638  1.6486  0.3765
   71MOL0     H 9572   2.670   7.881   3.217  0.3703 -0.0670  0.0377
   71MOL0     H 9573   2.469   7.922   3.214 -1.0529  1.1578 -0.1818
   71MOL0     H 9574   2.475   7.993   3.384  0.7444 -0.7269  0.1801
   71MOL0     H 9575   2.272   8.047   3.319 -0.0793 -0.2427  0.5369
   71MOL0     H 9576   2.263   7.924   3.439  0.9351 -0.5738 -0.1452
   71MOL0     H 9577   2.180   7.773   3.296  2.1608  0.5782  1.9077
   71MOL0     H 9578   2.251   7.838   3.150 -0.7839 -0.0084 -0.8834
   71MOL0     H 9579   2.029   7.879   3.122 -1.7570  1.8246 -1.6134
   71MOL0     H 9580   2.008   7.947   3.290  1.1183  2.4123  0.8455
   71MOL0     H 9581   2.065   8.268   3.048  0.0193 -0.2605  0.1036
   71MOL0     H 9582   2.559   7.595   3.521  1.6492 -1.4736  0.7900
   71MOL0     H 9583   2.710   7.448   3.623  1.9770 -0.0567  2.3439
   71MOL0     H 9584   2.876   7.426   3.581 -1.6070 -2.5536  3.7760
   71MOL0     H 9585   2.830   7.558   3.683  3.2733  0.3960  0.4080
   72MOL0     O 9586   6.651   1.538   9.468 -0.5309  0.5828 -0.5289
   72MOL0     C 9587   6.696   1.512   9.353  0.3191  0.1470 -0.7959
   72MOL0     O 9588   6.612   1.478   9.249  0.2175 -0.5488 -0.2273
   72MOL0     C 9589   6.476   1.479   9.274  0.3199 -0.3952 -0.1565
   72MOL0     C 9590   6.414   1.399   9.366 -0.6290  0.1065 -1.0223
   72MOL0     C 9591   6.274   1.393   9.381 -0.2186  0.5553 -0.0551
   72MOL0     C 9592   6.187   1.479   9.304 -0.6986  0.1573 -0.3746
   72MOL0     O 9593   6.050   1.465   9.309 -0.1094  1.4533 -0.3745
   72MOL0     C 9594   5.967   1.579   9.294 -0.0061  0.3914 -0.2370
   72MOL0     C 9595   5.833   1.542   9.349 -0.2938  0.5205 -0.1029
   72MOL0     C 9596   5.748   1.669   9.352  0.5109 -1.1045 -0.5983
   72MOL0     C 9597   5.601   1.651   9.395  0.2752  0.3634 -0.4995
   72MOL0     C 9598   5.541   1.791   9.407  0.3851  0.4238  0.0236
   72MOL0     C 9599   5.392   1.777   9.442  0.5431  0.3002  0.0628
   72MOL0     C 9600   5.334   1.907   9.511 -0.3065  0.0142  0.4657
   72MOL0     C 9601   5.287   1.998   9.400  0.7800 -0.4960 -0.0072
   72MOL0     N 9602   5.259   2.134   9.446 -0.2137  0.1356 -1.0382
   72MOL0     C 9603   5.144   2.169   9.515  1.0448  0.8120 -0.2755
   72MOL0     C 9604   5.166   2.302   9.532  0.5539  0.8863  0.1046
   72MOL0     C 9605   5.087   2.419   9.583  0.2444  0.0214  0.2268
   72MOL0     C 9606   4.938   2.388   9.630  0.2762 -0.0742  0.2769
   72MOL0     C 9607   4.834   2.379   9.510 -1.1805  0.1535 -0.1562
   72MOL0     C 9608   4.705   2.331   9.563  0.9566 -0.1648  0.8906
   72MOL0     O 9609   4.652   2.426   9.656  0.5702  0.1295  0.0014
   72MOL0     C 9610   4.520   2.419   9.701  0.0403  0.1949  0.1566
   72MOL0     C 9611   4.430   2.324   9.663  0.2222 -0.8065 -0.0299
   72MOL0     C 9612   4.302   2.318   9.714  0.5471  0.0033  0.7579
   72MOL0     C 9613   4.254   2.411   9.806 -0.7172  0.0301  0.8321
   72MOL0     C 9614   4.126   2.380   9.871 -0.6487 -0.5211 -0.4141
   72MOL0     O 9615   4.115   2.429   9.996 -0.2327  0.4270  0.2767
   72MOL0     C 9616   4.004   2.383  10.061  0.3405  0.0974 -0.1367
   72MOL0     C 9617   4.018   2.282  10.152 -0.3051  0.5573 -0.1163
   72MOL0     C 9618   3.914   2.243  10.238  0.4370  0.0712  0.3887
   72MOL0     C 9619   3.794   2.316  10.230 -0.0882  0.5837  0.0815
   72MOL0     O 9620   3.689   2.276  10.310  0.8031  0.5442 -0.4425
   72MOL0     C 9621   3.697   2.303  10.448  0.8996  0.0530 -0.3875
   72MOL0     C 9622   3.565   2.328  10.536  0.6725 -0.6592 -0.8419
   72MOL0     C 9623   3.491   2.472  10.522  0.0868 -0.3025  0.2755
   72MOL0     C 9624   3.381   2.468  10.615  0.2057 -0.1543 -0.5252
   72MOL0     C 9625   3.275   2.576  10.599  0.1576  0.0156  0.1071
   72MOL0     C 9626   3.182   2.546  10.486  0.5487  0.4312 -0.9287
   72MOL0     C 9627   3.100   2.667  10.444 -0.2368 -0.8689  0.1692
   72MOL0     C 9628   3.169   2.758  10.349 -1.0116 -0.4968 -0.0396
   72MOL0    Cl 9629   3.060   2.889  10.320 -0.1452 -0.0929  0.4679
   72MOL0     C 9630   3.777   2.413  10.133  0.3825 -0.7227 -0.7463
   72MOL0     C 9631   3.885   2.455  10.054 -0.2395 -0.7981 -0.4569
   72MOL0     O 9632   4.048   2.313   9.805  0.4928  0.4980  0.1546
   72MOL0     C 9633   4.343   2.512   9.850  0.1555 -0.4071  0.8346
   72MOL0     C 9634   4.470   2.517   9.788 -0.4490  0.2634 -0.3547
   72MOL0     N 9635   5.282   2.340   9.470 -0.0570  0.4377  0.2804
   72MOL0     N 9636   5.346   2.236   9.422  0.5220  0.1393  0.3626
   72MOL0     C 9637   6.253   1.563   9.206  0.1812 -0.5891 -0.0680
   72MOL0     C 9638   6.393   1.565   9.190 -0.1859  0.0770  0.5389
   72MOL0     C 9639   6.835   1.538   9.308 -0.8309  0.7670 -0.5472
   72MOL0     C 9640   6.868   1.498   9.179  0.0521 -0.7094 -0.1225
   72MOL0     C 9641   7.001   1.515   9.120 -0.0920  0.3402 -0.6023
   72MOL0     C 9642   7.102   1.545   9.210  0.4620 -0.0711  0.1689
   72MOL0     O 9643   7.231   1.545   9.168 -0.0941  0.0565 -0.6932
   72MOL0     C 9644   7.324   1.469   9.243 -1.1648 -0.3130 -0.1479
   72MOL0     C 9645   7.466   1.550   9.260 -0.5069 -0.7592  1.4969
   72MOL0     C 9646   7.544   1.504   9.390 -0.3567 -0.5404 -0.0909
   72MOL0     C 9647   7.666   1.581   9.438 -0.4065  0.0634  0.5571
   72MOL0     C 9648   7.749   1.615   9.323 -1.2043 -0.4042  0.2146
   72MOL0     C 9649   7.805   1.619   9.213  0.1252 -0.5166  0.8590
   72MOL0     C 9650   7.070   1.579   9.345 -0.9697 -0.5231 -0.8839
   72MOL0     C 9651   6.940   1.590   9.389 -0.3584 -1.1624  0.1437
   72MOL0     C 9652   6.927   1.631   9.529  0.0114  0.9447 -0.0758
   72MOL0     H 9653   6.478   1.332   9.422  0.1565  1.6847  0.0380
   72MOL0     H 9654   6.229   1.319   9.446  0.0383 -0.0446 -0.5546
   72MOL0     H 9655   6.016   1.660   9.349  1.2230  0.5196 -1.4565
   72MOL0     H 9656   5.958   1.605   9.188 -1.0563  1.1982  0.0399
   72MOL0     H 9657   5.840   1.489   9.445  1.0198 -2.8564 -1.9088
   72MOL0     H 9658   5.784   1.465   9.288 -0.8268  1.9712 -1.5653
   72MOL0     H 9659   5.747   1.707   9.250  1.6716 -3.1012 -1.4058
   72MOL0     H 9660   5.795   1.747   9.414  3.3119 -3.0098 -0.1351
   72MOL0     H 9661   5.545   1.600   9.317  1.3689  0.3943 -1.3415
   72MOL0     H 9662   5.598   1.602   9.493  1.6785  0.7393 -0.2405
   72MOL0     H 9663   5.602   1.846   9.479  1.3370  1.5904 -1.6055
   72MOL0     H 9664   5.554   1.831   9.306  1.2157  2.0959  0.7538
   72MOL0     H 9665   5.335   1.747   9.354  0.3467  0.0182  0.2851
   72MOL0     H 9666   5.390   1.704   9.523  0.7209  2.2671  1.9192
   72MOL0     H 9667   5.418   1.942   9.572 -0.0428 -2.5336  1.7214
   72MOL0     H 9668   5.257   1.883   9.585  1.7571 -1.4827  2.2505
   72MOL0     H 9669   5.362   2.007   9.321  0.6488 -1.5709 -0.2618
   72MOL0     H 9670   5.197   1.971   9.345  0.3498  1.5568 -0.3876
   72MOL0     H 9671   5.055   2.111   9.534  0.3395  1.7132 -0.7226
   72MOL0     H 9672   5.148   2.463   9.663  1.1300  0.2163 -0.5342
   72MOL0     H 9673   5.079   2.501   9.511  0.7632 -0.2606 -0.1640
   72MOL0     H 9674   4.946   2.292   9.682  1.1958  1.2846  2.8586
   72MOL0     H 9675   4.902   2.455   9.708 -1.4395 -0.9042  0.2588
   72MOL0     H 9676   4.862   2.306   9.433  0.7203 -0.5538  1.1528
   72MOL0     H 9677   4.830   2.479   9.466  0.9434  2.6955  4.7336
   72MOL0     H 9678   4.711   2.232   9.608  2.3094 -0.3294  0.3793
   72MOL0     H 9679   4.637   2.323   9.478 -0.7298  2.1315  1.8936
   72MOL0     H 9680   4.461   2.237   9.605 -2.8925 -3.0247  1.3098
   72MOL0     H 9681   4.248   2.229   9.682  2.4926 -0.1969 -2.2852
   72MOL0     H 9682   4.111   2.227  10.161 -1.6315 -1.6688  1.1699
   72MOL0     H 9683   3.924   2.161  10.308  1.2997 -1.3591 -1.3197
   72MOL0     H 9684   3.744   2.216  10.495 -1.9885 -0.6940  1.4074
   72MOL0     H 9685   3.751   2.396  10.462  1.3139 -0.2611  0.1411
   72MOL0     H 9686   3.492   2.256  10.500 -1.5742  2.3990 -2.9777
   72MOL0     H 9687   3.584   2.303  10.641 -0.5766 -1.4412 -0.7913
   72MOL0     H 9688   3.565   2.550  10.545  0.4780 -0.3068 -0.9005
   72MOL0     H 9689   3.463   2.484  10.417  1.3150 -0.9186 -0.1526
   72MOL0     H 9690   3.421   2.448  10.715  3.1389 -3.8160 -2.1962
   72MOL0     H 9691   3.329   2.380  10.576  1.4842 -0.2080 -2.2362
   72MOL0     H 9692   3.336   2.664  10.576 -0.2068  0.1952 -0.1857
   72MOL0     H 9693   3.228   2.601  10.694  0.1902  3.4829 -0.6606
   72MOL0     H 9694   3.241   2.506  10.402  1.1610 -0.0433 -0.2814
   72MOL0     H 9695   3.117   2.462  10.512 -0.2196  2.0195  2.8112
   72MOL0     H 9696   3.067   2.725  10.530 -0.0669  0.1762 -0.4460
   72MOL0     H 9697   3.012   2.630  10.391  0.5615  0.5198 -2.3168
   72MOL0     H 9698   3.259   2.795  10.399 -1.2611  3.2259 -1.9696
   72MOL0     H 9699   3.199   2.714  10.254  0.8784 -1.2125  0.8355
   72MOL0     H 9700   3.679   2.460  10.122  1.1572  0.7955 -1.4057
   72MOL0     H 9701   3.881   2.548   9.997 -1.9431 -1.2670 -1.1745
   72MOL0     H 9702   4.317   2.582   9.928 -0.0718 -0.9671  1.2675
   72MOL0     H 9703   4.551   2.581   9.821  1.8353 -3.3349  1.7028
   72MOL0     H 9704   6.187   1.611   9.136 -0.7451 -0.1653  1.0566
   72MOL0     H 9705   6.435   1.649   9.135 -0.2711  0.9151  1.7343
   72MOL0     H 9706   6.793   1.451   9.115 -1.8026  1.0351  0.6761
   72MOL0     H 9707   7.024   1.486   9.018  1.6312 -1.2057  0.1569
   72MOL0     H 9708   7.348   1.372   9.199  1.7639  0.0716  0.3911
   72MOL0     H 9709   7.285   1.455   9.344 -1.3293  1.1974  0.0203
   72MOL0     H 9710   7.448   1.657   9.269 -0.7621 -0.6798  0.2170
   72MOL0     H 9711   7.533   1.552   9.174  0.4238  1.0495  2.2175
   72MOL0     H 9712   7.561   1.396   9.387 -2.5334 -1.0236  1.9030
   72MOL0     H 9713   7.472   1.513   9.472 -0.6605  0.3723 -0.4457
   72MOL0     H 9714   7.634   1.676   9.483 -1.3827  0.3809 -0.7375
   72MOL0     H 9715   7.728   1.525   9.509 -0.1836  1.2592  1.3430
   72MOL0     H 9716   7.849   1.631   9.116  1.6637  1.5646  1.7343
   72MOL0     H 9717   7.147   1.597   9.419  0.8358  1.1538 -3.0275
   72MOL0     H 9718   6.852   1.707   9.552 -2.5420 -1.4913  0.3368
   72MOL0     H 9719   6.884   1.551   9.591 -0.5131  0.6384 -0.8237
   72MOL0     H 9720   7.012   1.666   9.588 -1.7219  1.8314  2.0691
   73MOL0     O 9721   4.410  10.179   2.281  0.2696 -0.8265 -0.5201
   73MOL0     C 9722   4.406  10.274   2.358 -0.3275  0.1971  0.1983
   73MOL0     O 9723   4.503  10.366   2.362 -0.7381 -0.0890  0.4792
   73MOL0     C 9724   4.610  10.359   2.277 -0.8594  0.2783 -0.2945
   73MOL0     C 9725   4.739  10.325   2.324  0.5273 -0.5334 -0.6473
   73MOL0     C 9726   4.850  10.365   2.251  0.1286 -0.4788  0.6606
   73MOL0     C 9727   4.832  10.427   2.124 -0.2100  0.9274  0.1972
   73MOL0     O 9728   4.946  10.465   2.065 -0.1564 -0.0589 -0.4761
   73MOL0     C 9729   4.941  10.491   1.920  0.2554  0.7952  0.1013
   73MOL0     C 9730   5.087  10.490   1.864  0.1434  0.0684  0.1785
   73MOL0     C 9731   5.144  10.623   1.869  0.2503 -0.4414 -0.1425
   73MOL0     C 9732   5.283  10.621   1.785  0.7932 -0.1986 -0.5980
   73MOL0     C 9733   5.363  10.753   1.774  0.3452 -0.8128 -0.9054
   73MOL0     C 9734   5.506  10.731   1.718 -0.5840 -0.4788  0.8460
   73MOL0     C 9735   5.587  10.865   1.718  0.1655 -0.7710  0.0237
   73MOL0     C 9736   5.538  10.963   1.620 -0.5683  0.3911  0.0026
   73MOL0     N 9737   5.592  11.101   1.642  0.3589 -0.3523 -0.2888
   73MOL0     C 9738   5.722  11.127   1.679  0.1351 -0.0406  0.1800
   73MOL0     C 9739   5.745  11.256   1.639 -0.4507 -0.0212 -0.4400
   73MOL0     C 9740   5.877  11.310   1.662 -0.4396  0.3691  0.9761
   73MOL0     C 9741   5.996  11.252   1.572  0.5402  0.9786  0.2071
   73MOL0     C 9742   5.986  11.278   1.421 -0.1269 -0.4154  0.9954
   73MOL0     C 9743   6.105  11.263   1.335 -0.2149 -0.5283 -0.0694
   73MOL0     O 9744   6.198  11.367   1.368 -0.3898  0.6167 -0.0202
   73MOL0     C 9745   6.319  11.318   1.409 -0.8193 -0.2796  0.5897
   73MOL0     C 9746   6.425  11.399   1.383  0.6957 -1.2879  0.1198
   73MOL0     C 9747   6.550  11.369   1.430 -0.3976 -0.3747 -0.3058
   73MOL0     C 9748   6.568  11.254   1.513  1.2462  0.7377 -0.4493
   73MOL0     C 9749   6.696  11.214   1.563 -0.2291 -0.8433 -0.3189
   73MOL0     O 9750   6.795  11.297   1.512  0.1208 -0.3074  0.0636
   73MOL0     C 9751   6.933  11.269   1.525 -0.3098 -0.2109 -0.2290
   73MOL0     C 9752   7.020  11.341   1.438 -0.0348  0.2323  0.0065
   73MOL0     C 9753   7.154  11.316   1.429  0.3512 -0.4489 -0.4947
   73MOL0     C 9754   7.217  11.229   1.522  0.1223 -0.4005 -0.1501
   73MOL0     O 9755   7.350  11.201   1.514  0.2812  0.0795 -0.0670
   73MOL0     C 9756   7.423  11.230   1.635 -0.7478 -0.2052  0.2159
   73MOL0     C 9757   7.568  11.272   1.585  0.2252  0.8102 -0.2896
   73MOL0     C 9758   7.631  11.315   1.711  0.1637 -0.3447 -0.2606
   73MOL0     C 9759   7.747  11.399   1.680  0.4658 -0.6281 -0.6993
   73MOL0     C 9760   7.829  11.438   1.807  0.3656  0.5086  0.6061
   73MOL0     C 9761   7.953  11.524   1.768  0.4722  0.9912  0.1354
   73MOL0     C 9762   8.054  11.529   1.876  1.2233  0.2272 -0.0626
   73MOL0     C 9763   8.175  11.606   1.841 -0.2128  0.5816  0.7416
   73MOL0    Cl 9764   8.282  11.494   1.727  0.3461 -0.3347  0.1389
   73MOL0     C 9765   7.132  11.177   1.622  1.5244 -0.3558  0.5726
   73MOL0     C 9766   6.997  11.195   1.628  0.4956 -0.3820 -0.0262
   73MOL0     O 9767   6.715  11.109   1.623  0.1470 -0.0893 -0.2485
   73MOL0     C 9768   6.459  11.178   1.544  0.6495  0.9581  0.4970
   73MOL0     C 9769   6.337  11.209   1.485 -0.5303  1.1042 -0.8039
   73MOL0     N 9770   5.629  11.303   1.589 -0.6807  0.2221  0.1883
   73MOL0     N 9771   5.542  11.213   1.590  0.5904 -0.1578 -0.2041
   73MOL0     C 9772   4.702  10.455   2.082  0.0344  0.7893 -0.2875
   73MOL0     C 9773   4.588  10.411   2.148 -0.6867 -0.3709 -0.1760
   73MOL0     C 9774   4.289  10.296   2.444  0.1129  0.2245 -0.0184
   73MOL0     C 9775   4.291  10.242   2.571 -0.6811  0.0932  0.0597
   73MOL0     C 9776   4.189  10.272   2.656  0.7485  0.2033  0.0088
   73MOL0     C 9777   4.070  10.328   2.603 -0.1501  0.6598 -0.2379
   73MOL0     O 9778   3.961  10.332   2.685 -0.3637  0.4621 -0.3317
   73MOL0     C 9779   3.896  10.452   2.696  0.3066 -0.7164  0.1772
   73MOL0     C 9780   3.970  10.554   2.786  0.9043  0.1181 -0.4628
   73MOL0     C 9781   3.925  10.536   2.933 -0.4686 -0.4795 -0.4468
   73MOL0     C 9782   3.989  10.632   3.029 -0.2796 -0.3135 -0.5740
   73MOL0     C 9783   3.958  10.772   2.984 -0.3835 -0.3340 -0.3562
   73MOL0     C 9784   3.932  10.891   2.950 -0.3564 -0.0415 -0.0880
   73MOL0     C 9785   4.071  10.370   2.473  0.3199 -0.1216 -0.4459
   73MOL0     C 9786   4.180  10.357   2.397 -0.1956  0.1046 -0.0733
   73MOL0     C 9787   4.170  10.413   2.257  0.8394 -0.4384  0.6142
   73MOL0     H 9788   4.760  10.292   2.426 -1.8912  0.1593  0.1527
   73MOL0     H 9789   4.943  10.346   2.304 -0.1191 -1.4054  0.7878
   73MOL0     H 9790   4.880  10.412   1.875 -0.4600  1.9553 -0.9917
   73MOL0     H 9791   4.883  10.579   1.890 -0.8717 -0.7790 -2.6978
   73MOL0     H 9792   5.070  10.467   1.759 -3.3578  0.7126  0.4782
   73MOL0     H 9793   5.150  10.413   1.910  1.1512 -0.1575 -1.4826
   73MOL0     H 9794   5.157  10.649   1.975  0.3951  0.5018 -0.3845
   73MOL0     H 9795   5.078  10.697   1.824 -0.1945  0.1946  1.4698
   73MOL0     H 9796   5.348  10.555   1.842 -0.6081  0.7623  2.2993
   73MOL0     H 9797   5.255  10.586   1.685 -1.7197  0.0140 -0.0496
   73MOL0     H 9798   5.304  10.819   1.710 -2.8528 -2.5804 -0.0168
   73MOL0     H 9799   5.378  10.796   1.874  1.1117  2.8711 -2.4581
   73MOL0     H 9800   5.560  10.656   1.777  0.3587 -2.2407 -2.0746
   73MOL0     H 9801   5.491  10.686   1.619  0.7814  3.0066 -1.1039
   73MOL0     H 9802   5.687  10.831   1.692  1.6353  2.2317  1.1794
   73MOL0     H 9803   5.587  10.917   1.815  2.9155  1.4369 -1.0198
   73MOL0     H 9804   5.575  10.925   1.524  1.6604  3.4232 -0.4531
   73MOL0     H 9805   5.429  10.965   1.617 -0.6145  1.3714  1.3821
   73MOL0     H 9806   5.791  11.054   1.721  0.7970  0.8778  0.7435
   73MOL0     H 9807   5.859  11.414   1.633  2.2218  0.5289 -0.3740
   73MOL0     H 9808   5.900  11.294   1.768  0.5211 -0.7431  0.6119
   73MOL0     H 9809   6.098  11.275   1.603  1.9949 -1.4977 -2.2181
   73MOL0     H 9810   5.991  11.143   1.582  2.5083  0.8879  0.6909
   73MOL0     H 9811   5.952  11.382   1.415 -0.4613 -0.5527  0.4519
   73MOL0     H 9812   5.912  11.212   1.375 -0.1757  0.1764  0.2001
   73MOL0     H 9813   6.069  11.273   1.232  1.5369 -2.7918 -0.9879
   73MOL0     H 9814   6.138  11.159   1.340 -2.2115 -1.2897 -1.4216
   73MOL0     H 9815   6.419  11.490   1.324  2.8893  0.1340  1.8751
   73MOL0     H 9816   6.628  11.435   1.393 -0.5518 -0.1873 -0.2962
   73MOL0     H 9817   6.986  11.420   1.372 -0.0218 -0.2033 -0.5332
   73MOL0     H 9818   7.217  11.371   1.359  0.3748 -0.0264 -0.1469
   73MOL0     H 9819   7.373  11.306   1.696 -0.0027 -0.5922  1.3395
   73MOL0     H 9820   7.432  11.142   1.699 -3.0206  0.3131  1.3494
   73MOL0     H 9821   7.622  11.187   1.542  1.6280  0.4860  2.0092
   73MOL0     H 9822   7.569  11.354   1.513 -0.3611  0.1742 -1.0480
   73MOL0     H 9823   7.558  11.379   1.763 -0.5317 -2.2329  1.2051
   73MOL0     H 9824   7.666  11.235   1.777  0.1116  0.1975  0.4366
   73MOL0     H 9825   7.699  11.488   1.637 -0.9460 -1.5524 -1.0935
   73MOL0     H 9826   7.810  11.354   1.603  0.2350 -1.1018 -0.6137
   73MOL0     H 9827   7.853  11.343   1.856 -2.8843  0.0545  1.5688
   73MOL0     H 9828   7.754  11.478   1.875 -1.5224 -2.4775  0.4842
   73MOL0     H 9829   7.993  11.502   1.668 -2.1983  1.1802 -1.0614
   73MOL0     H 9830   7.917  11.624   1.743  0.4394  0.8685 -0.3390
   73MOL0     H 9831   8.088  11.430   1.907  0.7733  0.2657  0.5574
   73MOL0     H 9832   8.008  11.573   1.964  2.2114 -1.2669  1.2466
   73MOL0     H 9833   8.149  11.696   1.786  0.0470 -0.7274 -1.6276
   73MOL0     H 9834   8.235  11.622   1.932  1.2085 -1.6889  0.3102
   73MOL0     H 9835   7.195  11.126   1.695  2.0954  1.3399  1.3080
   73MOL0     H 9836   6.957  11.148   1.718  0.6021  1.0609  0.7979
   73MOL0     H 9837   6.470  11.094   1.613  2.9755  0.9947  0.2242
   73MOL0     H 9838   6.247  11.156   1.514 -1.1165  2.8352  0.7279
   73MOL0     H 9839   4.675  10.512   1.994 -2.4291 -0.9293 -0.7558
   73MOL0     H 9840   4.494  10.448   2.109  0.6979  2.4542 -1.0458
   73MOL0     H 9841   4.372  10.173   2.592  1.7590  1.4896 -3.8298
   73MOL0     H 9842   4.207  10.225   2.752  1.3966 -1.9529 -1.0828
   73MOL0     H 9843   3.791  10.450   2.728  0.2688 -0.7942  0.0508
   73MOL0     H 9844   3.879  10.500   2.599  1.7172  2.3851  1.3242
   73MOL0     H 9845   3.954  10.655   2.750 -0.0160  0.3616  0.5739
   73MOL0     H 9846   4.075  10.528   2.765  0.5094  0.7114 -3.6533
   73MOL0     H 9847   3.954  10.433   2.951  0.5432  0.2080  2.4113
   73MOL0     H 9848   3.816  10.534   2.942 -0.5648  0.3310 -1.2927
   73MOL0     H 9849   3.959  10.609   3.132  2.0261 -0.7921  0.0610
   73MOL0     H 9850   4.098  10.625   3.027 -0.3189 -0.6626 -2.3339
   73MOL0     H 9851   3.912  10.993   2.926  0.5154  0.4305  1.0539
   73MOL0     H 9852   3.969  10.368   2.437  0.6485  0.9104 -1.5181
   73MOL0     H 9853   4.142  10.517   2.240 -2.4268 -1.5492 -1.8473
   73MOL0     H 9854   4.261  10.384   2.203 -0.3208 -1.2830 -0.9422
   73MOL0     H 9855   4.086  10.362   2.210  1.9740 -0.7150 -1.2016
   74MOL0     O 9856  10.967   0.442   3.432 -0.2501  0.0681  0.2590
   74MOL0     C 9857  10.893   0.355   3.473  0.0668  0.1170  0.4080
   74MOL0     O 9858  10.936   0.252   3.556  0.4538 -0.1648 -0.0835
   74MOL0     C 9859  11.072   0.242   3.573 -0.5944 -0.6745  0.2309
   74MOL0     C 9860  11.139   0.325   3.658  0.0979 -0.2594  1.0726
   74MOL0     C 9861  11.281   0.318   3.667 -0.2514  0.0825 -0.1414
   74MOL0     C 9862  11.356   0.233   3.583 -0.0595 -0.1179 -0.1620
   74MOL0     O 9863  11.495   0.245   3.588  0.1381 -0.7371 -0.6867
   74MOL0     C 9864  11.588   0.145   3.546 -0.6776  0.2048 -0.0970
   74MOL0     C 9865  11.734   0.212   3.559  0.0420 -0.2411  0.0355
   74MOL0     C 9866  11.856   0.121   3.530  0.6901  0.7879 -0.2749
   74MOL0     C 9867  11.983   0.200   3.568 -0.4845 -0.6259  0.0821
   74MOL0     C 9868  12.099   0.125   3.507  0.5705 -0.0228  0.0070
   74MOL0     C 9869  12.234   0.193   3.516  0.2050 -1.2972  0.5506
   74MOL0     C 9870  12.351   0.099   3.521  1.0480 -0.1595  0.8540
   74MOL0     C 9871  12.476   0.177   3.560  0.3294 -0.9838 -0.4387
   74MOL0     N 9872  12.593   0.097   3.524 -0.0646 -0.0748 -0.2128
   74MOL0     C 9873  12.653   0.020   3.618  0.1520 -0.1772  0.2925
   74MOL0     C 9874  12.769  -0.027   3.559  0.1658  0.0313 -0.2027
   74MOL0     C 9875  12.868  -0.110   3.633  0.2380  0.0615  0.1007
   74MOL0     C 9876  12.967  -0.031   3.715  0.2072  0.2574 -0.1242
   74MOL0     C 9877  13.086  -0.128   3.762 -0.0334 -0.0480 -0.0154
   74MOL0     C 9878  13.168  -0.073   3.876  0.0344  0.4818 -0.4570
   74MOL0     O 9879  13.260  -0.175   3.918  0.0133  0.2963 -0.8418
   74MOL0     C 9880  13.379  -0.198   3.853 -0.1231 -0.1768 -0.0866
   74MOL0     C 9881  13.452  -0.302   3.891 -0.2765 -0.4180 -1.3452
   74MOL0     C 9882  13.576  -0.338   3.835  0.0690 -0.0446 -1.0672
   74MOL0     C 9883  13.614  -0.269   3.723  0.7788  0.0942  0.3261
   74MOL0     C 9884  13.736  -0.310   3.653  0.0766 -1.2242 -1.0025
   74MOL0     O 9885  13.825  -0.404   3.710 -0.0187 -0.9710 -0.3418
   74MOL0     C 9886  13.928  -0.439   3.635 -0.8631 -0.3121  0.2600
   74MOL0     C 9887  13.957  -0.563   3.585  0.9618 -0.2353  0.1712
   74MOL0     C 9888  14.076  -0.595   3.524  0.2726  0.2576  0.2926
   74MOL0     C 9889  14.162  -0.499   3.495 -0.5346  0.2827 -0.2823
   74MOL0     O 9890  14.279  -0.523   3.426  0.1312  0.3065  0.9296
   74MOL0     C 9891  14.307  -0.435   3.318  0.7112 -0.5896 -0.3923
   74MOL0     C 9892  14.434  -0.472   3.236 -0.2696  0.2031  0.1762
   74MOL0     C 9893  14.455  -0.413   3.098 -0.5890  0.4604  0.8164
   74MOL0     C 9894  14.409  -0.278   3.076 -1.0740 -0.8118  0.0879
   74MOL0     C 9895  14.461  -0.212   2.946  0.4361 -0.1313  0.3031
   74MOL0     C 9896  14.441  -0.061   2.951  0.0958  0.3186  0.2432
   74MOL0     C 9897  14.481   0.023   2.823 -0.2357 -0.2083  0.0377
   74MOL0     C 9898  14.394  -0.003   2.701 -0.2633 -0.5931  0.4522
   74MOL0    Cl 9899  14.251   0.103   2.689  0.1722  0.1329  0.0228
   74MOL0     C 9900  14.141  -0.371   3.549  0.6858 -0.8529  0.0611
   74MOL0     C 9901  14.029  -0.347   3.619  0.4844 -0.0863 -0.5636
   74MOL0     O 9902  13.743  -0.268   3.542  0.6013 -0.0936  0.1167
   74MOL0     C 9903  13.541  -0.161   3.675 -1.0396 -0.2918  0.5242
   74MOL0     C 9904  13.423  -0.121   3.740  0.1059 -0.5541  0.2587
   74MOL0     N 9905  12.776   0.027   3.430  0.0753 -0.0070  0.5284
   74MOL0     N 9906  12.676   0.108   3.415  0.0810 -0.2461  0.2521
   74MOL0     C 9907  11.284   0.139   3.504  0.0370 -1.0386  0.3100
   74MOL0     C 9908  11.149   0.155   3.488 -0.1794  0.8166 -1.1876
   74MOL0     C 9909  10.749   0.361   3.436 -0.8295 -0.3998 -0.5212
   74MOL0     C 9910  10.672   0.241   3.431 -0.0385  1.0183 -0.4565
   74MOL0     C 9911  10.538   0.240   3.408  0.1138  0.1349 -0.0289
   74MOL0     C 9912  10.466   0.364   3.401  0.6479  0.2754 -0.6900
   74MOL0     O 9913  10.332   0.348   3.383 -0.2652 -0.2868  0.4937
   74MOL0     C 9914  10.244   0.457   3.368 -0.0427 -0.0725  0.3154
   74MOL0     C 9915  10.245   0.505   3.223  0.0403  0.5701  1.1564
   74MOL0     C 9916  10.174   0.414   3.124  0.4729 -0.4059 -0.5509
   74MOL0     C 9917  10.023   0.426   3.133 -0.6453 -0.1037  0.1175
   74MOL0     C 9918   9.986   0.564   3.119  0.6818  0.0283  0.3335
   74MOL0     C 9919   9.951   0.676   3.097 -0.3300 -0.0301  0.2792
   74MOL0     C 9920  10.542   0.482   3.424  0.7095 -0.4135  0.2575
   74MOL0     C 9921  10.675   0.481   3.445 -0.0273 -0.0788 -0.7533
   74MOL0     C 9922  10.732   0.623   3.459  0.6860 -0.4906 -0.0026
   74MOL0     H 9923  11.081   0.403   3.707  0.3656 -0.4673  1.7382
   74MOL0     H 9924  11.337   0.397   3.715 -0.5368 -0.9631  2.0296
   74MOL0     H 9925  11.587   0.063   3.618  0.7347  1.2860  1.2360
   74MOL0     H 9926  11.561   0.113   3.445  1.8368 -3.3487  0.1673
   74MOL0     H 9927  11.745   0.253   3.660  0.3573  1.7973 -0.7913
   74MOL0     H 9928  11.750   0.300   3.497  0.4569 -0.3398  0.0006
   74MOL0     H 9929  11.849   0.078   3.430  0.5682 -1.3754  0.6147
   74MOL0     H 9930  11.850   0.037   3.600  2.3679  2.2328  1.7661
   74MOL0     H 9931  11.971   0.298   3.522  0.9721  0.0727  1.1156
   74MOL0     H 9932  11.984   0.218   3.676 -1.3925  0.5332 -0.0847
   74MOL0     H 9933  12.101   0.024   3.550  1.8065 -1.1073 -2.4122
   74MOL0     H 9934  12.066   0.112   3.404 -0.5095  1.2611  0.1733
   74MOL0     H 9935  12.239   0.247   3.420  0.3819  0.3669  1.4516
   74MOL0     H 9936  12.240   0.267   3.596 -0.2783 -2.7027  1.9167
   74MOL0     H 9937  12.359   0.050   3.424 -0.4723  0.6944  0.2579
   74MOL0     H 9938  12.328   0.027   3.600 -0.7946  0.7791  1.2411
   74MOL0     H 9939  12.484   0.260   3.488 -0.3282 -0.5696 -0.0456
   74MOL0     H 9940  12.466   0.219   3.660  0.6168  1.1949 -1.2638
   74MOL0     H 9941  12.621  -0.009   3.718  3.0495  0.9618  1.6735
   74MOL0     H 9942  12.823  -0.190   3.693  5.3816 -2.3566  1.3374
   74MOL0     H 9943  12.928  -0.169   3.562  0.6012 -1.1908  1.4051
   74MOL0     H 9944  13.004   0.057   3.661 -1.9642  0.1651 -1.9149
   74MOL0     H 9945  12.911   0.011   3.800  1.2509  0.7800  0.3249
   74MOL0     H 9946  13.152  -0.147   3.676  0.1211 -5.6659  0.9723
   74MOL0     H 9947  13.040  -0.225   3.780 -2.5540  0.8686 -1.0666
   74MOL0     H 9948  13.109  -0.054   3.967  1.7653  0.1258  0.7893
   74MOL0     H 9949  13.221   0.016   3.842  2.5714 -0.4397  0.8434
   74MOL0     H 9950  13.407  -0.363   3.969 -0.1824 -0.9279 -1.6915
   74MOL0     H 9951  13.635  -0.422   3.870 -1.1009  0.3887  2.2538
   74MOL0     H 9952  13.886  -0.641   3.610  1.1670 -0.8141 -0.9930
   74MOL0     H 9953  14.094  -0.697   3.490  1.7161 -0.5679  3.2263
   74MOL0     H 9954  14.216  -0.435   3.257  0.5891 -1.1413 -0.2203
   74MOL0     H 9955  14.323  -0.337   3.363 -2.2118 -0.7932  1.3386
   74MOL0     H 9956  14.521  -0.438   3.293 -0.4648  0.7490  0.1473
   74MOL0     H 9957  14.449  -0.580   3.222  0.0394  0.3307 -0.5714
   74MOL0     H 9958  14.562  -0.411   3.073 -0.8765  0.8294 -0.4629
   74MOL0     H 9959  14.419  -0.493   3.033  1.4564 -0.8919  1.2418
   74MOL0     H 9960  14.452  -0.220   3.158 -0.0555  1.3341 -1.8574
   74MOL0     H 9961  14.301  -0.266   3.061 -0.8061  0.7653 -0.8153
   74MOL0     H 9962  14.413  -0.250   2.855 -0.3124  2.1723 -0.3401
   74MOL0     H 9963  14.566  -0.240   2.935  0.3291  0.1150 -1.6641
   74MOL0     H 9964  14.335  -0.043   2.974 -0.4488 -1.9825 -0.1672
   74MOL0     H 9965  14.508  -0.021   3.028  0.2852 -0.0868  0.2923
   74MOL0     H 9966  14.583   0.000   2.792 -1.3431 -3.0194 -1.9365
   74MOL0     H 9967  14.475   0.130   2.847 -0.2198  0.2998 -2.0288
   74MOL0     H 9968  14.459  -0.003   2.614 -3.3930 -1.6412 -2.1027
   74MOL0     H 9969  14.357  -0.106   2.704  0.5927 -0.8991  0.9512
   74MOL0     H 9970  14.206  -0.285   3.539  0.2778 -0.4324  0.9894
   74MOL0     H 9971  14.013  -0.248   3.660 -2.3771 -0.6186 -0.1455
   74MOL0     H 9972  13.571  -0.095   3.594 -0.7317  1.0001  1.6603
   74MOL0     H 9973  13.370  -0.038   3.696  0.8995  0.2109  0.7075
   74MOL0     H 9974  11.339   0.069   3.441  3.1852  2.6736 -1.4468
   74MOL0     H 9975  11.101   0.092   3.413  1.9373  0.3232 -2.1857
   74MOL0     H 9976  10.711   0.140   3.426  0.3421  1.2142 -1.5452
   74MOL0     H 9977  10.490   0.146   3.386 -0.1063  0.2799 -0.1746
   74MOL0     H 9978  10.271   0.545   3.427  2.3309  0.6183 -1.6202
   74MOL0     H 9979  10.142   0.426   3.391 -0.7390 -1.4584 -3.7145
   74MOL0     H 9980  10.350   0.497   3.192  0.2252 -2.2033  2.2514
   74MOL0     H 9981  10.203   0.606   3.220 -2.6013 -0.4594 -0.5675
   74MOL0     H 9982  10.209   0.314   3.151 -0.5438 -0.2102  1.6645
   74MOL0     H 9983  10.202   0.436   3.020  3.0454  3.0564  0.6852
   74MOL0     H 9984   9.974   0.371   3.052 -0.7722 -0.2622  0.2994
   74MOL0     H 9985   9.984   0.380   3.224 -0.3088  0.7937  0.7201
   74MOL0     H 9986   9.930   0.779   3.074 -0.1306 -0.0309  0.0879
   74MOL0     H 9987  10.483   0.573   3.416  1.0174 -0.1039  1.3618
   74MOL0     H 9988  10.660   0.703   3.444  0.2135 -0.7489  0.8024
   74MOL0     H 9989  10.775   0.637   3.559  0.7181 -1.0770  0.0731
   74MOL0     H 9990  10.807   0.640   3.382 -0.7260  0.8158 -1.1278
   75MOL0     O 9991   5.640   8.379   9.890  0.2819  0.1587 -0.5254
   75MOL0     C 9992   5.618   8.485   9.831 -1.0495  0.0479  0.5486
   75MOL0     O 9993   5.711   8.556   9.765 -0.6472 -0.0645  0.5069
   75MOL0     C 9994   5.837   8.515   9.755  0.4902 -0.4588  0.2006
   75MOL0     C 9995   5.876   8.397   9.681  0.0023 -0.1231  0.0166
   75MOL0     C 9996   6.003   8.354   9.681  0.4497  0.1731 -0.2886
   75MOL0     C 9997   6.105   8.435   9.733 -0.0572  0.3884 -0.5469
   75MOL0     O 9998   6.223   8.387   9.738 -0.0630 -0.1953  0.5652
   75MOL0     C 9999   6.336   8.473   9.779 -0.8216 -0.7484  0.5879
   75MOL0     C10000   6.471   8.427   9.715 -0.4255 -0.0617 -0.5630
   75MOL0     C10001   6.494   8.279   9.706 -0.4290 -0.4198  0.0479
   75MOL0     C10002   6.512   8.208   9.842 -0.6715 -0.4979 -0.0243
   75MOL0     C10003   6.550   8.059   9.821 -0.1575 -0.6267 -0.0880
   75MOL0     C10004   6.695   8.040   9.805  0.6210 -0.1322 -0.1127
   75MOL0     C10005   6.765   8.044   9.943 -0.2546 -0.2688 -0.5562
   75MOL0     C10006   6.903   8.106   9.952 -0.5308 -0.3149 -0.1883
   75MOL0     N10007   7.014   8.040   9.879  0.4565  0.7916  1.0579
   75MOL0     C10008   7.044   8.074   9.749  0.1933  0.6133 -0.5970
   75MOL0     C10009   7.170   8.024   9.736 -1.1029  0.6946  0.0943
   75MOL0     C10010   7.264   8.020   9.615  0.9252 -0.7868  0.4304
   75MOL0     C10011   7.265   7.893   9.520 -0.5351  0.0066 -0.2294
   75MOL0     C10012   7.333   7.777   9.588  0.0293 -0.4519 -0.2576
   75MOL0     C10013   7.478   7.800   9.616  0.3087  0.5491 -0.1102
   75MOL0     O10014   7.545   7.680   9.656  0.3552  0.5562  0.1456
   75MOL0     C10015   7.671   7.687   9.694  0.8144 -0.1484  0.2104
   75MOL0     C10016   7.770   7.732   9.611  0.4139 -0.2212 -0.0834
   75MOL0     C10017   7.901   7.711   9.641  0.4741  0.0616  0.2243
   75MOL0     C10018   7.946   7.648   9.758  0.0992  0.5709 -0.0954
   75MOL0     C10019   8.090   7.632   9.785  1.0415 -0.6904 -0.1674
   75MOL0     O10020   8.169   7.642   9.677  0.1531 -0.4373  0.2581
   75MOL0     C10021   8.305   7.652   9.699  0.0101  0.0742  0.4277
   75MOL0     C10022   8.395   7.622   9.596  0.4009  0.5650  1.2047
   75MOL0     C10023   8.532   7.657   9.602 -0.5242  0.1996  0.5719
   75MOL0     C10024   8.581   7.724   9.710 -0.2568 -0.4668 -0.2003
   75MOL0     O10025   8.713   7.763   9.701 -0.2262 -0.1502 -0.6009
   75MOL0     C10026   8.773   7.844   9.793 -0.9985 -0.1528 -0.6379
   75MOL0     C10027   8.927   7.848   9.765 -0.2529 -0.3121 -0.2077
   75MOL0     C10028   8.976   7.946   9.656  0.5543 -0.0730  0.0627
   75MOL0     C10029   8.976   8.090   9.711 -0.3039  0.2234 -0.4888
   75MOL0     C10030   9.027   8.200   9.613  0.0397 -0.3022 -0.8333
   75MOL0     C10031   9.175   8.181   9.558  0.3115 -0.2980  0.2517
   75MOL0     C10032   9.207   8.271   9.442  0.0182 -0.0848  0.2994
   75MOL0     C10033   9.352   8.258   9.395  0.0783  0.5576  0.3646
   75MOL0    Cl10034   9.399   8.360   9.248 -0.5415 -0.2575  0.1095
   75MOL0     C10035   8.494   7.766   9.810  0.6076 -0.5125  0.2160
   75MOL0     C10036   8.366   7.715   9.813  0.2119 -0.9618 -0.3045
   75MOL0     O10037   8.127   7.583   9.890  0.4806  0.6447 -0.1794
   75MOL0     C10038   7.847   7.620   9.852 -0.0863 -0.1576 -0.5196
   75MOL0     C10039   7.708   7.642   9.819 -0.5315 -1.1820 -0.3974
   75MOL0     N10040   7.193   7.943   9.848  0.1243 -0.3675  0.7986
   75MOL0     N10041   7.107   7.955   9.937 -0.0795 -0.2981 -0.6757
   75MOL0     C10042   6.071   8.552   9.803 -1.0273 -0.2349  0.6213
   75MOL0     C10043   5.935   8.596   9.817 -0.0311 -0.4180 -0.2766
   75MOL0     C10044   5.482   8.535   9.853  0.3103 -0.3554  0.2124
   75MOL0     C10045   5.438   8.632   9.755  0.8619  0.0759  0.1674
   75MOL0     C10046   5.327   8.698   9.764 -0.1790 -0.0042 -0.2885
   75MOL0     C10047   5.238   8.673   9.867 -0.0699  0.5619 -0.3126
   75MOL0     O10048   5.112   8.726   9.861  0.0229  0.2023  0.3215
   75MOL0     C10049   5.082   8.854   9.793  0.7255 -0.4465 -0.2554
   75MOL0     C10050   4.931   8.891   9.819 -0.4040 -0.4689 -0.4626
   75MOL0     C10051   4.877   8.872   9.965 -0.3966 -0.2171 -0.6709
   75MOL0     C10052   4.909   9.004  10.045  0.0227 -0.1285 -0.5504
   75MOL0     C10053   4.796   9.099  10.038 -0.0817  0.4607  0.6904
   75MOL0     C10054   4.695   9.169  10.026  0.2036  0.6267  0.2168
   75MOL0     C10055   5.269   8.572   9.964 -0.1129  0.0792  0.8561
   75MOL0     C10056   5.388   8.496   9.955 -0.3346 -0.0428  0.4582
   75MOL0     C10057   5.421   8.397  10.068 -0.1382  0.4492  0.6369
   75MOL0     H10058   5.802   8.334   9.633  1.0171  1.8083 -4.5767
   75MOL0     H10059   6.023   8.261   9.629 -1.4447 -1.8856  2.3801
   75MOL0     H10060   6.329   8.578   9.749 -3.0883 -1.0651 -0.2007
   75MOL0     H10061   6.357   8.470   9.886  1.2728  2.8768  0.4639
   75MOL0     H10062   6.554   8.477   9.765 -2.3269 -0.9262  4.0457
   75MOL0     H10063   6.465   8.459   9.611  0.7364 -1.6367 -1.1487
   75MOL0     H10064   6.583   8.259   9.646 -0.4088  0.1603 -0.1207
   75MOL0     H10065   6.407   8.234   9.657 -0.3632  1.1886 -1.6462
   75MOL0     H10066   6.586   8.253   9.909  1.9347 -1.2001 -2.2459
   75MOL0     H10067   6.414   8.205   9.891 -0.2348  0.5239  0.9576
   75MOL0     H10068   6.529   8.010   9.917 -0.4743  0.6853  0.5280
   75MOL0     H10069   6.493   8.019   9.737 -2.0929  2.9729 -0.6483
   75MOL0     H10070   6.710   7.938   9.768  1.6736  0.1147 -0.4153
   75MOL0     H10071   6.747   8.109   9.738 -2.9473  0.2477 -2.7893
   75MOL0     H10072   6.767   7.945   9.990 -1.7015  0.4411  1.1330
   75MOL0     H10073   6.694   8.097  10.008 -0.9343 -2.4524  0.6024
   75MOL0     H10074   6.889   8.212   9.930 -2.6874  0.1594  2.9055
   75MOL0     H10075   6.932   8.093  10.057  0.0744  1.5000 -0.0882
   75MOL0     H10076   6.989   8.144   9.687  0.9180  1.2729 -0.5157
   75MOL0     H10077   7.233   8.109   9.561  2.5863  1.1572  2.4743
   75MOL0     H10078   7.358   8.041   9.668 -0.2036  2.0282  1.4707
   75MOL0     H10079   7.165   7.863   9.487 -0.7620  2.2995 -1.9491
   75MOL0     H10080   7.319   7.924   9.430 -0.1149 -0.7095 -0.2293
   75MOL0     H10081   7.323   7.688   9.526  4.0532 -2.0383  1.0179
   75MOL0     H10082   7.280   7.760   9.682 -1.9957  3.4677 -0.4628
   75MOL0     H10083   7.491   7.878   9.692 -0.9956  3.0918 -2.3446
   75MOL0     H10084   7.521   7.834   9.522  1.1184 -2.3128 -0.8921
   75MOL0     H10085   7.747   7.780   9.516  3.5912 -0.4640 -1.1062
   75MOL0     H10086   7.977   7.749   9.574  2.0561 -2.8403  0.2358
   75MOL0     H10087   8.358   7.592   9.498 -0.1214  2.0049  0.9297
   75MOL0     H10088   8.607   7.647   9.524 -0.2902 -0.9536  0.9183
   75MOL0     H10089   8.731   7.945   9.786 -0.9053  0.0521  1.3031
   75MOL0     H10090   8.759   7.813   9.897 -1.9512 -0.4153 -0.8340
   75MOL0     H10091   8.971   7.883   9.859 -0.3380 -0.6793 -0.0292
   75MOL0     H10092   8.966   7.747   9.753  2.6043  0.6558  0.0014
   75MOL0     H10093   9.075   7.920   9.615  0.3151  0.8462 -1.1505
   75MOL0     H10094   8.912   7.937   9.568  2.3176  1.4116 -1.4639
   75MOL0     H10095   9.055   8.088   9.787  1.0819  1.5498 -1.8329
   75MOL0     H10096   8.882   8.122   9.757  0.0196  2.3822 -1.2170
   75MOL0     H10097   9.023   8.298   9.662  0.6936 -0.1480 -1.0758
   75MOL0     H10098   8.961   8.210   9.527 -0.0472  0.5274 -0.6710
   75MOL0     H10099   9.238   8.205   9.644  0.6961  1.7166 -0.5377
   75MOL0     H10100   9.196   8.080   9.521  2.9035  0.8915 -1.8200
   75MOL0     H10101   9.178   8.376   9.455 -1.2422  0.1121 -3.1546
   75MOL0     H10102   9.143   8.248   9.356  0.1305  1.4598 -0.2241
   75MOL0     H10103   9.423   8.286   9.473 -0.2129  0.2806  0.7241
   75MOL0     H10104   9.364   8.154   9.364 -1.4732  0.4594  0.0244
   75MOL0     H10105   8.527   7.823   9.896 -0.2105 -3.4323  2.6618
   75MOL0     H10106   8.305   7.760   9.891  1.4120 -2.8722  1.8255
   75MOL0     H10107   7.873   7.567   9.944  0.8133 -0.1011 -0.7314
   75MOL0     H10108   7.626   7.622   9.887 -0.3798  2.0449  0.8988
   75MOL0     H10109   6.143   8.606   9.863  0.2945 -1.7510  0.4449
   75MOL0     H10110   5.898   8.674   9.883  0.2089  0.7470 -1.4787
   75MOL0     H10111   5.516   8.661   9.685  2.3284 -1.5741  1.0472
   75MOL0     H10112   5.309   8.769   9.685  2.7398 -0.1148 -1.1801
   75MOL0     H10113   5.108   8.857   9.687  1.7577  0.5681 -0.0024
   75MOL0     H10114   5.140   8.937   9.835 -1.4906  2.8203 -3.1420
   75MOL0     H10115   4.880   8.822   9.750  0.1830  1.1490 -2.6087
   75MOL0     H10116   4.914   8.995   9.792  1.7970  1.0266  3.2639
   75MOL0     H10117   4.936   8.802  10.025  0.0585  2.3742  2.1078
   75MOL0     H10118   4.770   8.857   9.982 -0.2147  0.2628  1.0564
   75MOL0     H10119   4.922   8.982  10.151  1.5416 -0.3748 -0.7644
   75MOL0     H10120   5.005   9.047  10.014  1.8497 -1.8137  2.3105
   75MOL0     H10121   4.613   9.234  10.004 -0.5326 -0.1585  0.5931
   75MOL0     H10122   5.193   8.556  10.040  0.9417 -1.2040  1.6774
   75MOL0     H10123   5.506   8.428  10.130 -0.6094 -0.1996  1.6308
   75MOL0     H10124   5.332   8.382  10.130 -0.7842  0.1964 -0.3334
   75MOL0     H10125   5.453   8.301  10.027  0.0845  0.6280  0.3860
   76MOL0     O10126   8.211   8.452   3.663  0.7174 -0.0648  0.7429
   76MOL0     C10127   8.191   8.352   3.738  1.2004  0.6243  0.2657
   76MOL0     O10128   8.278   8.246   3.757 -0.5262 -0.4050 -0.4774
   76MOL0     C10129   8.406   8.255   3.703  0.5500  0.9365  0.0521
   76MOL0     C10130   8.484   8.365   3.751 -0.8142 -0.2633 -0.3310
   76MOL0     C10131   8.610   8.379   3.695 -0.8811  1.3046  0.6731
   76MOL0     C10132   8.659   8.291   3.600  0.0633 -0.4260 -0.3148
   76MOL0     O10133   8.794   8.302   3.575  0.6544  0.8036  0.5876
   76MOL0     C10134   8.863   8.185   3.529  0.2812 -0.3085  0.3678
   76MOL0     C10135   8.889   8.091   3.643  0.4480  1.4011 -0.3559
   76MOL0     C10136   8.959   7.954   3.599  0.7144 -0.3718  0.0416
   76MOL0     C10137   9.065   7.978   3.497 -0.5422 -0.1055 -0.2333
   76MOL0     C10138   9.195   8.044   3.551  0.4719  0.4646  0.2599
   76MOL0     C10139   9.303   8.050   3.447 -1.0664 -1.5812 -0.2037
   76MOL0     C10140   9.436   8.108   3.506 -0.2497  0.0132  0.3885
   76MOL0     C10141   9.554   8.082   3.408  0.8675 -0.4170 -0.6236
   76MOL0     N10142   9.685   8.137   3.461  0.1165 -0.6688 -0.5028
   76MOL0     C10143   9.747   8.243   3.405 -0.1141  0.4900  1.0975
   76MOL0     C10144   9.870   8.257   3.466  0.8894  0.0577 -0.2715
   76MOL0     C10145   9.965   8.370   3.446  0.3107  0.1310 -0.1984
   76MOL0     C10146  10.063   8.335   3.341 -0.4006  0.0545  0.5584
   76MOL0     C10147  10.145   8.463   3.300 -0.5179  0.3722 -0.0197
   76MOL0     C10148  10.221   8.433   3.165  0.1170 -0.0245 -0.1999
   76MOL0     O10149  10.307   8.319   3.192 -0.2092 -0.2928 -0.4379
   76MOL0     C10150  10.439   8.316   3.136  0.2889  0.0420 -0.2602
   76MOL0     C10151  10.546   8.352   3.214  0.3487  0.0876  0.6855
   76MOL0     C10152  10.680   8.340   3.180 -0.5469  0.0805  0.1374
   76MOL0     C10153  10.698   8.303   3.046  0.1059 -0.1234 -0.3972
   76MOL0     C10154  10.839   8.298   2.987 -0.1141 -0.6022  0.1919
   76MOL0     O10155  10.933   8.303   3.086 -0.0733  0.2391 -0.0468
   76MOL0     C10156  11.072   8.297   3.062 -1.3367  0.4424  0.1505
   76MOL0     C10157  11.148   8.353   3.169  0.8416  0.8532 -0.1486
   76MOL0     C10158  11.287   8.343   3.168 -0.1177 -0.0976 -0.6290
   76MOL0     C10159  11.355   8.293   3.056 -0.2055 -0.1535 -0.1684
   76MOL0     O10160  11.487   8.310   3.035 -0.3981  0.1667  0.3579
   76MOL0     C10161  11.561   8.253   3.139 -0.8754  0.3458  0.8753
   76MOL0     C10162  11.640   8.357   3.215 -0.0829 -0.3039  0.8489
   76MOL0     C10163  11.657   8.491   3.141  0.3827 -0.7894  0.2374
   76MOL0     C10164  11.751   8.579   3.211  0.2714  0.6302 -0.1454
   76MOL0     C10165  11.768   8.721   3.153  0.1471 -0.5718 -0.3594
   76MOL0     C10166  11.639   8.811   3.166 -0.2269 -0.0203 -0.3667
   76MOL0     C10167  11.666   8.957   3.146  0.1094 -0.2636 -0.0012
   76MOL0     C10168  11.533   9.042   3.140 -0.2652 -0.6703  0.1315
   76MOL0    Cl10169  11.454   9.010   3.301  0.2209 -0.2001 -0.2721
   76MOL0     C10170  11.276   8.246   2.949 -0.1690 -0.9443  0.5060
   76MOL0     C10171  11.140   8.240   2.955  0.0410  0.1324  0.0298
   76MOL0     O10172  10.869   8.274   2.867 -0.1953  0.2555  0.2004
   76MOL0     C10173  10.591   8.269   2.964 -0.4280 -0.9831 -0.2519
   76MOL0     C10174  10.457   8.268   3.004  0.4321 -0.2868 -0.5907
   76MOL0     N10175   9.875   8.154   3.558 -0.1814 -0.9786  0.2366
   76MOL0     N10176   9.763   8.091   3.554 -0.5165  0.7108 -0.2538
   76MOL0     C10177   8.567   8.199   3.549  0.2092 -0.0945 -0.2455
   76MOL0     C10178   8.448   8.176   3.597  0.1791  0.0984  0.4316
   76MOL0     C10179   8.061   8.351   3.816 -0.9487 -0.1835  0.3067
   76MOL0     C10180   8.070   8.311   3.942  0.1422  0.9795 -0.0457
   76MOL0     C10181   7.962   8.317   4.036  0.7667  0.0585  0.2260
   76MOL0     C10182   7.845   8.376   3.990  0.2827 -0.0991  0.0559
   76MOL0     O10183   7.736   8.387   4.070  0.0389 -0.2268  0.9696
   76MOL0     C10184   7.747   8.374   4.211  0.3631 -0.0197 -0.1706
   76MOL0     C10185   7.648   8.434   4.300  0.2923  0.0741 -0.0261
   76MOL0     C10186   7.508   8.392   4.253 -0.0837 -0.3890 -0.3726
   76MOL0     C10187   7.401   8.463   4.340  0.6207  0.2474 -0.2429
   76MOL0     C10188   7.270   8.462   4.261  0.0530 -0.3766 -0.1011
   76MOL0     C10189   7.169   8.460   4.185  0.0395 -0.1846 -0.0141
   76MOL0     C10190   7.834   8.405   3.857 -0.1468 -0.5302 -0.1052
   76MOL0     C10191   7.941   8.396   3.764  0.3669  0.0041  0.6864
   76MOL0     C10192   7.916   8.437   3.624  0.0966  0.7245  0.0417
   76MOL0     H10193   8.446   8.420   3.837  2.8914  0.4852  1.0414
   76MOL0     H10194   8.684   8.449   3.732  1.3506 -0.3267 -0.4690
   76MOL0     H10195   8.808   8.130   3.453  0.4688  2.3427 -1.8275
   76MOL0     H10196   8.956   8.229   3.492  1.1122  0.6403  3.2909
   76MOL0     H10197   8.806   8.077   3.713  0.3346  1.7268 -0.4257
   76MOL0     H10198   8.965   8.144   3.701  2.1836  1.1517 -2.2992
   76MOL0     H10199   8.875   7.895   3.561 -0.9403  2.9008 -1.8336
   76MOL0     H10200   8.998   7.899   3.685 -0.0396 -0.7523  0.1460
   76MOL0     H10201   9.091   7.875   3.470  2.6465  0.5838 -0.2332
   76MOL0     H10202   9.029   8.023   3.404  4.3958  2.4652 -1.2449
   76MOL0     H10203   9.173   8.142   3.592  1.9867  0.5534  0.9185
   76MOL0     H10204   9.231   7.987   3.637  0.3938 -0.3203 -0.2094
   76MOL0     H10205   9.317   7.946   3.415 -3.4815 -2.7279  2.1623
   76MOL0     H10206   9.270   8.119   3.369 -0.4817 -0.2924  0.6575
   76MOL0     H10207   9.464   8.061   3.601  0.2291 -2.9379 -1.0941
   76MOL0     H10208   9.409   8.212   3.525 -3.7799 -1.0808  2.3301
   76MOL0     H10209   9.553   7.974   3.391 -0.0738 -1.2203  3.4344
   76MOL0     H10210   9.535   8.135   3.314  0.5744  2.2395  0.8211
   76MOL0     H10211   9.700   8.302   3.327 -0.8621 -0.9655  0.4283
   76MOL0     H10212   9.912   8.462   3.420 -1.6749 -0.1772  2.3554
   76MOL0     H10213  10.015   8.394   3.541  0.0765  0.0867 -0.0643
   76MOL0     H10214  10.124   8.250   3.372  1.0506  0.5658 -0.7687
   76MOL0     H10215   9.998   8.310   3.257 -1.5843  1.2278  1.0900
   76MOL0     H10216  10.214   8.473   3.383 -1.8895  0.0687  1.1969
   76MOL0     H10217  10.083   8.553   3.305 -0.5816  0.2806  1.0238
   76MOL0     H10218  10.277   8.523   3.137 -0.6249  0.7431  0.7106
   76MOL0     H10219  10.154   8.421   3.079  0.9304  3.8371 -1.6078
   76MOL0     H10220  10.528   8.395   3.312  2.6923 -1.0694  1.7211
   76MOL0     H10221  10.760   8.359   3.251 -2.2853 -2.0306  2.8410
   76MOL0     H10222  11.093   8.396   3.253 -1.1019  1.2186 -1.5196
   76MOL0     H10223  11.350   8.374   3.251  0.3248  2.9350 -1.9464
   76MOL0     H10224  11.507   8.183   3.204  0.4889 -1.5081  0.0891
   76MOL0     H10225  11.637   8.192   3.090 -1.1781  1.2698 -0.8303
   76MOL0     H10226  11.591   8.388   3.307 -0.7037  1.3768 -0.0009
   76MOL0     H10227  11.739   8.314   3.235  0.5705  1.3407  1.2909
   76MOL0     H10228  11.698   8.479   3.040 -2.3051  1.6348 -1.3013
   76MOL0     H10229  11.556   8.532   3.134  1.3623  1.8458  0.6022
   76MOL0     H10230  11.847   8.529   3.227  0.9443  1.3639 -1.6429
   76MOL0     H10231  11.697   8.587   3.306  0.1515  0.6567 -0.2157
   76MOL0     H10232  11.808   8.714   3.051  2.5245  1.2195  0.3772
   76MOL0     H10233  11.838   8.776   3.216  1.0944 -0.7473 -1.2282
   76MOL0     H10234  11.563   8.765   3.103 -2.5314 -0.3284  2.4256
   76MOL0     H10235  11.603   8.797   3.269 -0.6826 -0.1105 -0.5380
   76MOL0     H10236  11.705   8.978   3.047 -2.2845  0.7678 -0.8013
   76MOL0     H10237  11.715   8.992   3.238 -1.5168 -0.5305  1.0116
   76MOL0     H10238  11.551   9.150   3.136  0.7682 -0.7292  1.9796
   76MOL0     H10239  11.477   9.006   3.054 -1.1791  1.6762 -0.3383
   76MOL0     H10240  11.343   8.228   2.866  0.0307  1.0647  0.1668
   76MOL0     H10241  11.070   8.205   2.879  1.8877 -0.0422 -1.6888
   76MOL0     H10242  10.621   8.254   2.861  0.6569  1.2424 -0.3147
   76MOL0     H10243  10.374   8.241   2.939 -1.5276 -0.8125  1.9855
   76MOL0     H10244   8.602   8.125   3.478  1.9498  1.3789 -0.9925
   76MOL0     H10245   8.390   8.099   3.549  1.5312 -1.1588  0.7454
   76MOL0     H10246   8.167   8.300   3.990  1.7313  0.3859 -3.1845
   76MOL0     H10247   7.973   8.283   4.138 -2.2701  1.4514  1.1308
   76MOL0     H10248   7.839   8.425   4.243 -0.8815  0.8764  2.2934
   76MOL0     H10249   7.772   8.269   4.227  1.0186  0.3028  1.0396
   76MOL0     H10250   7.649   8.543   4.308  1.1550  0.2046 -1.4871
   76MOL0     H10251   7.681   8.400   4.398  1.5831 -2.1580 -1.1757
   76MOL0     H10252   7.478   8.287   4.260  1.5627 -0.9278 -1.0606
   76MOL0     H10253   7.496   8.422   4.149  1.0768  1.7567  0.0594
   76MOL0     H10254   7.398   8.402   4.431  1.4887  2.9802  1.7397
   76MOL0     H10255   7.432   8.565   4.362 -1.2472  1.6161 -3.2180
   76MOL0     H10256   7.089   8.421   4.125 -1.4699 -2.5228  3.2083
   76MOL0     H10257   7.733   8.435   3.832 -0.2246 -0.0333  0.7608
   76MOL0     H10258   7.962   8.532   3.594 -1.4663  0.6108 -3.1486
   76MOL0     H10259   7.955   8.354   3.565  0.7265  0.6601  0.5398
   76MOL0     H10260   7.807   8.441   3.609  0.0676 -1.0349 -0.4706
   77MOL0     O10261   0.043  10.733   2.344  0.3666 -0.4603 -0.3362
   77MOL0     C10262  -0.044  10.665   2.283 -0.1953  0.6933 -0.6514
   77MOL0     O10263  -0.016  10.551   2.218  0.3041  0.4535 -0.7796
   77MOL0     C10264   0.116  10.527   2.187  0.8749  0.1509  0.3557
   77MOL0     C10265   0.190  10.576   2.079 -0.1005 -0.3432 -0.2418
   77MOL0     C10266   0.321  10.533   2.049 -0.3268 -0.8222  0.0456
   77MOL0     C10267   0.374  10.431   2.129  0.1664 -0.5056 -0.7573
   77MOL0     O10268   0.498  10.384   2.108  0.4266 -0.2075  0.0180
   77MOL0     C10269   0.524  10.359   1.964 -0.1184 -0.3792 -0.0535
   77MOL0     C10270   0.638  10.258   1.959 -0.3056  0.6993  0.1420
   77MOL0     C10271   0.608  10.109   1.988  0.5240 -0.4050 -0.2834
   77MOL0     C10272   0.743  10.026   2.009  1.0240  0.1393 -0.0728
   77MOL0     C10273   0.720   9.885   2.061 -0.3656 -0.4394 -0.4548
   77MOL0     C10274   0.841   9.794   2.050 -0.1755  0.1092  0.0895
   77MOL0     C10275   0.974   9.849   2.121 -0.1401 -0.9440 -0.0324
   77MOL0     C10276   1.084   9.747   2.122  0.0878  0.1770  0.7605
   77MOL0     N10277   1.168   9.745   1.997 -0.0495 -0.5262  0.1403
   77MOL0     C10278   1.277   9.831   1.982 -0.5757  0.4499 -0.1604
   77MOL0     C10279   1.326   9.805   1.856 -0.3076 -0.4008 -0.0460
   77MOL0     C10280   1.433   9.870   1.777  0.8173  0.7880 -0.3251
   77MOL0     C10281   1.399  10.014   1.757 -0.5807  1.2666  0.0666
   77MOL0     C10282   1.532  10.085   1.701  0.1679 -0.1270 -0.1980
   77MOL0     C10283   1.518  10.239   1.690  0.5402 -0.3283  0.2046
   77MOL0     O10284   1.615  10.310   1.598 -0.3600  0.2187 -0.0487
   77MOL0     C10285   1.749  10.326   1.630 -0.3973  0.7757 -0.1429
   77MOL0     C10286   1.838  10.383   1.543  0.2416 -0.6291 -0.2871
   77MOL0     C10287   1.971  10.407   1.580  0.7190 -0.4230 -0.0904
   77MOL0     C10288   2.020  10.367   1.710  0.8755 -0.1077  0.5804
   77MOL0     C10289   2.159  10.374   1.744  0.0689  0.9946  0.3587
   77MOL0     O10290   2.200  10.341   1.868 -0.3158  0.4850 -0.0454
   77MOL0     C10291   2.333  10.354   1.891 -0.4433  0.3370 -0.1158
   77MOL0     C10292   2.419  10.275   1.822  0.1381  0.3943 -0.3643
   77MOL0     C10293   2.558  10.284   1.848 -0.1087  0.6544 -0.1782
   77MOL0     C10294   2.600  10.360   1.958 -0.0201 -0.6514 -0.0771
   77MOL0     O10295   2.724  10.371   2.010 -0.3750 -0.4424 -0.1314
   77MOL0     C10296   2.837  10.301   1.959  0.6969  0.0382  0.5520
   77MOL0     C10297   2.950  10.318   2.064  0.4706  0.2789 -0.1989
   77MOL0     C10298   3.087  10.265   2.012  0.5321  0.0455  0.2720
   77MOL0     C10299   3.196  10.290   2.115 -1.0142 -0.4969 -0.1714
   77MOL0     C10300   3.341  10.267   2.064  0.9951  0.6230  0.8599
   77MOL0     C10301   3.449  10.269   2.166 -0.9106 -0.2624 -0.7954
   77MOL0     C10302   3.472  10.406   2.225 -0.1260 -0.2019 -0.3273
   77MOL0     C10303   3.569  10.414   2.339  0.0543 -0.1292  0.2132
   77MOL0    Cl10304   3.702  10.529   2.291  0.6084  0.0490 -0.0336
   77MOL0     C10305   2.515  10.445   2.021  0.6078 -0.1775 -0.6429
   77MOL0     C10306   2.378  10.442   1.985  0.2243  0.6168 -1.2713
   77MOL0     O10307   2.234  10.423   1.658  0.6006 -0.0384  0.4814
   77MOL0     C10308   1.932  10.302   1.798  0.4759  0.0848 -0.0078
   77MOL0     C10309   1.802  10.294   1.758 -0.3224  0.6148 -0.0113
   77MOL0     N10310   1.257   9.695   1.805  0.4864  0.2512  0.4719
   77MOL0     N10311   1.158   9.664   1.887  0.2053 -0.8488  0.7024
   77MOL0     C10312   0.297  10.369   2.236  0.0628 -0.2933  0.3583
   77MOL0     C10313   0.172  10.419   2.261  0.5677 -0.3821 -0.5799
   77MOL0     C10314  -0.187  10.699   2.299 -0.7976 -0.0163  0.5450
   77MOL0     C10315  -0.279  10.628   2.214 -1.0829 -0.0389 -0.4148
   77MOL0     C10316  -0.414  10.663   2.225  0.6884  0.2724 -0.0134
   77MOL0     C10317  -0.470  10.763   2.308  0.4572 -1.0197  0.5404
   77MOL0     O10318  -0.607  10.782   2.309  0.0001 -0.4560 -0.2705
   77MOL0     C10319  -0.656  10.907   2.373  0.2901  0.2165 -0.2129
   77MOL0     C10320  -0.800  10.942   2.348  0.7232  0.2651 -0.3915
   77MOL0     C10321  -0.890  10.818   2.391 -0.5402 -0.9918 -0.1045
   77MOL0     C10322  -1.025  10.868   2.453 -0.5382  1.0431 -0.2079
   77MOL0     C10323  -1.099  10.751   2.491 -0.4188  0.3965  0.1491
   77MOL0     C10324  -1.169  10.651   2.523 -1.0377  0.4965 -0.3500
   77MOL0     C10325  -0.380  10.822   2.399 -0.0645  0.0803  0.3367
   77MOL0     C10326  -0.247  10.785   2.398 -0.4788 -0.4004 -0.8681
   77MOL0     C10327  -0.170  10.835   2.529 -0.2568 -0.2378  0.5211
   77MOL0     H10328   0.139  10.655   2.024  1.4609  1.1717  0.3970
   77MOL0     H10329   0.385  10.569   1.969  1.2810 -3.5291  0.0089
   77MOL0     H10330   0.439  10.318   1.910  0.6799 -2.8560  0.4485
   77MOL0     H10331   0.562  10.454   1.924  0.1129  0.0305  1.0924
   77MOL0     H10332   0.701  10.286   2.044 -0.7907 -0.4924  0.9222
   77MOL0     H10333   0.697  10.255   1.867 -0.3017 -1.8880  0.1715
   77MOL0     H10334   0.554  10.064   1.904 -1.1481  0.6332  0.2125
   77MOL0     H10335   0.548  10.096   2.078 -0.9034  0.1529 -1.1237
   77MOL0     H10336   0.788  10.009   1.910 -1.9169 -0.0001 -1.5043
   77MOL0     H10337   0.815  10.082   2.070  0.0887  0.3337  0.8833
   77MOL0     H10338   0.689   9.898   2.165  1.0395 -3.8279  0.5311
   77MOL0     H10339   0.636   9.848   2.000  0.3465  2.2034 -3.3018
   77MOL0     H10340   0.820   9.699   2.101  0.7191  0.0088  0.3051
   77MOL0     H10341   0.860   9.757   1.949  0.8881 -0.8978  0.6265
   77MOL0     H10342   0.954   9.875   2.226  0.7408  0.1077 -0.1134
   77MOL0     H10343   1.022   9.937   2.078  0.8835 -0.1041  2.6136
   77MOL0     H10344   1.148   9.780   2.204  2.5647  0.3802 -1.1497
   77MOL0     H10345   1.053   9.646   2.150  2.3170 -0.4436  1.1613
   77MOL0     H10346   1.308   9.911   2.048  2.1071 -0.3601 -0.3143
   77MOL0     H10347   1.525   9.864   1.837  1.1342  1.2693 -0.7538
   77MOL0     H10348   1.450   9.805   1.691  2.3553 -2.0504  1.9417
   77MOL0     H10349   1.322  10.024   1.679  1.2182  0.4145 -1.9212
   77MOL0     H10350   1.375  10.068   1.849 -1.7578 -3.8815  3.1770
   77MOL0     H10351   1.537  10.059   1.594  2.8332  1.0995 -0.4528
   77MOL0     H10352   1.621  10.055   1.757  1.6146  0.2664 -2.1437
   77MOL0     H10353   1.525  10.279   1.791  0.3699  0.1007  0.0505
   77MOL0     H10354   1.416  10.260   1.654  0.4971 -1.0868 -0.1469
   77MOL0     H10355   1.806  10.415   1.445  1.1788  0.8116 -0.1450
   77MOL0     H10356   2.046  10.448   1.513  1.7671 -0.0319  1.2625
   77MOL0     H10357   2.382  10.212   1.742  1.2882 -1.6510  0.6457
   77MOL0     H10358   2.626  10.218   1.796 -0.1880 -1.1192  1.8709
   77MOL0     H10359   2.819  10.194   1.945  0.0889 -0.0906  2.1694
   77MOL0     H10360   2.870  10.341   1.863  1.3507 -0.0135  0.7530
   77MOL0     H10361   2.960  10.423   2.093 -4.0830 -0.0040  3.2932
   77MOL0     H10362   2.933  10.270   2.160 -0.5553  1.3025  0.1453
   77MOL0     H10363   3.076  10.158   1.988  0.3464  0.1380 -0.0708
   77MOL0     H10364   3.128  10.320   1.926  1.5380 -2.4274 -0.9395
   77MOL0     H10365   3.184  10.217   2.195 -0.2907 -2.2991 -1.6323
   77MOL0     H10366   3.184  10.393   2.150  1.2050 -0.2468  0.0550
   77MOL0     H10367   3.360  10.344   1.989 -0.4839 -0.6691 -0.9306
   77MOL0     H10368   3.355  10.175   2.006  2.2309  1.1003  0.3580
   77MOL0     H10369   3.423  10.198   2.245  2.1041  0.3087  0.8493
   77MOL0     H10370   3.542  10.241   2.116  0.1718  1.6340  0.0379
   77MOL0     H10371   3.375  10.443   2.258 -0.0922 -1.6375  1.5402
   77MOL0     H10372   3.493  10.478   2.145 -1.2946  0.0234 -0.4407
   77MOL0     H10373   3.516  10.436   2.431  0.8074  0.6926  0.4603
   77MOL0     H10374   3.615  10.315   2.354  1.1262 -0.0977 -2.2116
   77MOL0     H10375   2.548  10.510   2.102  3.1191 -0.1672 -1.6040
   77MOL0     H10376   2.304  10.504   2.035  1.4817  1.1516 -0.0159
   77MOL0     H10377   1.977  10.263   1.889 -2.3446 -0.4190  1.2839
   77MOL0     H10378   1.738  10.253   1.836 -0.1578 -0.0075 -0.2001
   77MOL0     H10379   0.339  10.282   2.286  1.8956  0.8663  0.9533
   77MOL0     H10380   0.109  10.369   2.334  0.0309  0.4006 -0.4954
   77MOL0     H10381  -0.245  10.553   2.143 -0.4305  2.1657 -2.5889
   77MOL0     H10382  -0.489  10.610   2.166  1.7096 -0.4361 -0.7302
   77MOL0     H10383  -0.597  10.995   2.344 -0.9906  1.4798  0.8687
   77MOL0     H10384  -0.641  10.897   2.481 -0.1357 -2.5383 -0.3281
   77MOL0     H10385  -0.822  10.957   2.242 -3.9519  0.0078  0.3161
   77MOL0     H10386  -0.831  11.032   2.402  0.7781 -0.1830  0.4010
   77MOL0     H10387  -0.828  10.753   2.454  0.6190 -0.4074 -0.6158
   77MOL0     H10388  -0.916  10.764   2.300 -1.6924  0.9374 -0.9833
   77MOL0     H10389  -1.009  10.924   2.545 -1.8877  0.7956  0.2005
   77MOL0     H10390  -1.079  10.921   2.373  1.5839  0.9471 -1.7840
   77MOL0     H10391  -1.204  10.556   2.556  0.7183 -0.5457 -1.3794
   77MOL0     H10392  -0.415  10.885   2.480  0.0879 -1.5309  1.7271
   77MOL0     H10393  -0.096  10.912   2.501 -2.7653  3.0850  2.3454
   77MOL0     H10394  -0.226  10.876   2.614  0.0851  1.6862 -0.1234
   77MOL0     H10395  -0.114  10.749   2.567  0.9145 -1.2219 -3.0704
   78MOL0     O10396   7.142   7.257   9.404 -0.3352 -0.5267 -0.2649
   78MOL0     C10397   7.193   7.341   9.328  0.1879 -0.4601 -0.0611
   78MOL0     O10398   7.311   7.409   9.345  0.5775  0.0268  0.1334
   78MOL0     C10399   7.419   7.343   9.396  0.4429  0.5156  0.2643
   78MOL0     C10400   7.516   7.424   9.445 -0.7306  0.4064 -0.2264
   78MOL0     C10401   7.634   7.376   9.498 -1.6550  0.6697 -0.5386
   78MOL0     C10402   7.657   7.234   9.494  0.8034  0.0299 -0.8085
   78MOL0     O10403   7.768   7.173   9.546  0.0664  0.0204 -0.7102
   78MOL0     C10404   7.872   7.254   9.614 -0.2726 -0.2871 -0.3692
   78MOL0     C10405   7.998   7.175   9.643 -0.2577  0.9108 -0.7443
   78MOL0     C10406   8.110   7.266   9.705  0.0676 -0.2602 -0.5554
   78MOL0     C10407   8.224   7.182   9.759  0.3249  0.8872  0.1996
   78MOL0     C10408   8.343   7.265   9.799  0.2048 -0.2595  0.1690
   78MOL0     C10409   8.459   7.170   9.845  0.1597  0.6757 -0.8111
   78MOL0     C10410   8.566   7.250   9.918  0.2746 -0.4449 -0.4461
   78MOL0     C10411   8.634   7.354   9.827  0.4716  0.1641  0.3098
   78MOL0     N10412   8.745   7.431   9.888  0.0126 -0.4023 -1.2471
   78MOL0     C10413   8.740   7.541   9.969 -0.1525  0.3379  0.2321
   78MOL0     C10414   8.866   7.546  10.019 -0.1014 -0.3369 -0.1083
   78MOL0     C10415   8.879   7.640  10.132 -0.1254  0.3649  0.1352
   78MOL0     C10416   9.029   7.690  10.136 -0.6995 -0.0506 -0.4339
   78MOL0     C10417   9.059   7.787  10.243 -0.2043 -0.1427  0.4267
   78MOL0     C10418   9.215   7.799  10.243  0.0473  0.4031 -0.3260
   78MOL0     O10419   9.266   7.848  10.369  0.8734 -0.0855 -0.9693
   78MOL0     C10420   9.393   7.833  10.396 -0.5265  0.5187 -0.0875
   78MOL0     C10421   9.432   7.860  10.527  0.3142 -0.3553 -0.5540
   78MOL0     C10422   9.567   7.858  10.562 -0.7175  0.2893 -1.0332
   78MOL0     C10423   9.663   7.844  10.464  0.4611  0.0620 -0.3701
   78MOL0     C10424   9.811   7.866  10.504  0.4694  0.8591 -0.5694
   78MOL0     O10425   9.851   7.868  10.637 -0.0804 -0.2390 -0.7345
   78MOL0     C10426   9.977   7.902  10.681 -0.6706 -0.5559 -0.2586
   78MOL0     C10427   9.990   7.899  10.817  0.5885  0.1410  0.0954
   78MOL0     C10428  10.114   7.909  10.890 -0.8693 -0.5331  0.6954
   78MOL0     C10429  10.234   7.921  10.811 -0.4269  0.1491  0.3788
   78MOL0     O10430  10.351   7.914  10.876 -0.7904  0.2189 -0.4844
   78MOL0     C10431  10.469   7.964  10.815 -1.0702  0.2890  0.3835
   78MOL0     C10432  10.594   7.962  10.912 -0.2528  0.2247 -0.4272
   78MOL0     C10433  10.578   8.077  11.023  0.5663  0.0215  0.4610
   78MOL0     C10434  10.629   8.211  10.973  0.3531  0.5237 -0.8129
   78MOL0     C10435  10.617   8.309  11.096  0.2812  0.3350  0.6773
   78MOL0     C10436  10.744   8.307  11.180 -0.4015 -1.0614  0.8664
   78MOL0     C10437  10.751   8.406  11.300 -0.0086  0.7584 -0.4643
   78MOL0     C10438  10.886   8.406  11.370 -0.3013  0.4766  0.2077
   78MOL0    Cl10439  10.875   8.524  11.500 -0.2679 -0.3053  0.5173
   78MOL0     C10440  10.220   7.934  10.664 -0.2632  0.3838 -0.7019
   78MOL0     C10441  10.097   7.929  10.603  0.6744  0.9936 -0.2797
   78MOL0     O10442   9.885   7.875  10.412 -0.2791  1.2525 -0.8175
   78MOL0     C10443   9.630   7.827  10.332  1.0469  0.0126  0.1695
   78MOL0     C10444   9.494   7.809  10.295  0.1613  0.5320 -0.2988
   78MOL0     N10445   8.950   7.451   9.958  0.9421 -0.4162 -0.9103
   78MOL0     N10446   8.872   7.384   9.884 -0.3417  0.6688 -0.1993
   78MOL0     C10447   7.557   7.148   9.443  1.2113  0.5419 -1.0976
   78MOL0     C10448   7.433   7.201   9.398 -0.5268 -0.0176 -0.4194
   78MOL0     C10449   7.097   7.384   9.216  0.2086 -0.6500  0.5277
   78MOL0     C10450   6.976   7.313   9.201 -0.5134  0.1572 -0.4056
   78MOL0     C10451   6.882   7.344   9.102  0.5049 -0.7035  0.0307
   78MOL0     C10452   6.904   7.463   9.021  0.0413  0.6052 -0.1897
   78MOL0     O10453   6.814   7.507   8.930  0.8514  0.6861  0.1879
   78MOL0     C10454   6.671   7.482   8.949  0.0307 -0.1156 -0.4785
   78MOL0     C10455   6.596   7.514   9.081 -0.0363  0.0003  0.0281
   78MOL0     C10456   6.577   7.662   9.106 -0.2404 -0.5914  0.1294
   78MOL0     C10457   6.485   7.743   9.008 -0.5331  0.1507 -0.5454
   78MOL0     C10458   6.462   7.878   9.052  0.2851 -0.1252 -0.1901
   78MOL0     C10459   6.430   7.991   9.092  0.8773  1.0399  0.7445
   78MOL0     C10460   7.020   7.532   9.034  0.0831  0.0786 -0.8779
   78MOL0     C10461   7.119   7.494   9.126  0.6346 -0.0196 -0.8475
   78MOL0     C10462   7.239   7.581   9.117  0.2980 -0.0872  0.2697
   78MOL0     H10463   7.491   7.530   9.445 -0.4760  0.5989 -3.6418
   78MOL0     H10464   7.708   7.447   9.534  0.2948 -0.7146 -1.6661
   78MOL0     H10465   7.918   7.322   9.542  2.1400 -0.9940  0.4024
   78MOL0     H10466   7.831   7.298   9.706 -0.4878 -3.3288  1.1058
   78MOL0     H10467   8.027   7.125   9.550 -1.4741  0.3955 -0.8709
   78MOL0     H10468   7.964   7.101   9.716 -3.0086  3.2085  0.5119
   78MOL0     H10469   8.057   7.313   9.788 -3.1023  1.1597 -3.1356
   78MOL0     H10470   8.134   7.344   9.633  0.4886  1.7712  1.6800
   78MOL0     H10471   8.194   7.121   9.844  0.7063  0.7229  0.2180
   78MOL0     H10472   8.257   7.113   9.681 -0.3787 -0.3983  1.0205
   78MOL0     H10473   8.381   7.331   9.720  0.5980  0.6924  1.1180
   78MOL0     H10474   8.303   7.325   9.881 -2.8941  0.8550 -1.9815
   78MOL0     H10475   8.412   7.099   9.914  0.1667  0.8714 -0.6022
   78MOL0     H10476   8.501   7.115   9.761 -0.1512 -2.2802  0.8323
   78MOL0     H10477   8.641   7.180   9.955 -0.6052  0.3703  3.2374
   78MOL0     H10478   8.522   7.291  10.010  1.8611 -3.4515  1.8001
   78MOL0     H10479   8.666   7.314   9.731  0.0407  2.1003 -0.6899
   78MOL0     H10480   8.551   7.420   9.800 -0.8163 -1.8963 -0.9896
   78MOL0     H10481   8.647   7.591   9.994  0.7624  3.1971 -1.5724
   78MOL0     H10482   8.817   7.726  10.108 -2.2093 -1.5758 -1.8404
   78MOL0     H10483   8.851   7.591  10.226 -0.0699 -1.6790 -0.8518
   78MOL0     H10484   9.099   7.606  10.138 -1.1464 -0.4175  0.2470
   78MOL0     H10485   9.055   7.741  10.043  0.7610 -1.9436 -1.1364
   78MOL0     H10486   9.016   7.753  10.337 -1.0559 -0.5471 -0.0989
   78MOL0     H10487   9.022   7.885  10.213  1.1395 -0.4766 -2.7717
   78MOL0     H10488   9.236   7.868  10.161 -0.1871 -0.7307 -1.3655
   78MOL0     H10489   9.257   7.701  10.221 -0.1731  0.7372 -2.4378
   78MOL0     H10490   9.359   7.895  10.599  1.8762  0.2218  0.7949
   78MOL0     H10491   9.598   7.882  10.663  3.5439 -1.6326 -1.6754
   78MOL0     H10492   9.908   7.875  10.884 -0.1501 -0.6636 -1.0576
   78MOL0     H10493  10.121   7.915  10.998 -0.5878  1.9086  0.6054
   78MOL0     H10494  10.491   7.891  10.736  2.7985 -1.8402  3.1197
   78MOL0     H10495  10.457   8.062  10.769  2.9794  0.5866 -0.3632
   78MOL0     H10496  10.600   7.868  10.966  4.0921  0.8972  0.6357
   78MOL0     H10497  10.684   7.975  10.851  1.2193 -1.0790  1.3775
   78MOL0     H10498  10.471   8.082  11.044  0.0041  1.0014 -2.1780
   78MOL0     H10499  10.630   8.029  11.107 -1.7763 -0.9237  1.4622
   78MOL0     H10500  10.565   8.236  10.887 -0.3250  1.5890 -0.0292
   78MOL0     H10501  10.733   8.197  10.942  0.8735  2.1292  0.1186
   78MOL0     H10502  10.530   8.275  11.152 -1.2374  0.7482 -1.2925
   78MOL0     H10503  10.600   8.406  11.047 -3.0367 -0.6040 -0.3360
   78MOL0     H10504  10.778   8.207  11.208 -1.2654 -1.3227  1.0087
   78MOL0     H10505  10.828   8.344  11.120 -0.6618 -2.2340 -0.2505
   78MOL0     H10506  10.680   8.376  11.378  0.5159 -0.3131 -0.3766
   78MOL0     H10507  10.719   8.506  11.269 -1.7260  0.2047 -0.5874
   78MOL0     H10508  10.906   8.304  11.406  0.7841  0.8789  0.7811
   78MOL0     H10509  10.954   8.432  11.288  1.0580 -1.5589  0.6020
   78MOL0     H10510  10.311   7.949  10.607 -2.2690  1.1613 -3.9765
   78MOL0     H10511  10.090   7.936  10.495  3.1541  2.5152 -0.4149
   78MOL0     H10512   9.706   7.829  10.254  0.8333  0.3897 -0.0286
   78MOL0     H10513   9.484   7.799  10.187  1.1493 -1.2716 -0.2661
   78MOL0     H10514   7.560   7.041   9.460 -1.9564  0.7806  2.1716
   78MOL0     H10515   7.359   7.129   9.365 -2.2755  0.7759  1.5138
   78MOL0     H10516   6.959   7.218   9.251  0.7559  0.8243  1.4210
   78MOL0     H10517   6.800   7.274   9.087 -1.7767  1.8871 -0.5169
   78MOL0     H10518   6.651   7.375   8.939 -2.1264  0.2622 -0.6600
   78MOL0     H10519   6.617   7.542   8.875 -0.6118  1.8547  1.4983
   78MOL0     H10520   6.644   7.480   9.173  0.3430 -0.3137 -0.2840
   78MOL0     H10521   6.500   7.462   9.081  0.0624 -0.2224 -1.1448
   78MOL0     H10522   6.682   7.693   9.106  0.0061 -1.3443  1.3465
   78MOL0     H10523   6.537   7.669   9.208  0.8214 -1.8203  0.6511
   78MOL0     H10524   6.528   7.738   8.907  2.4548  0.6171  0.6061
   78MOL0     H10525   6.390   7.690   9.002  0.0659 -1.1990  1.0655
   78MOL0     H10526   6.403   8.089   9.126  0.1022  0.1513  2.7994
   78MOL0     H10527   7.028   7.625   8.980 -0.8654 -0.0007 -1.1601
   78MOL0     H10528   7.256   7.635   9.211  1.7041  0.5071 -0.3038
   78MOL0     H10529   7.329   7.522   9.100 -0.7414 -0.9365 -3.1096
   78MOL0     H10530   7.235   7.649   9.031  3.2235  1.8557  1.4889
   79MOL0     O10531   4.964   7.943   6.240  0.0694 -1.1235 -0.5959
   79MOL0     C10532   4.946   8.062   6.214  1.1068  0.1122 -0.3263
   79MOL0     O10533   5.046   8.160   6.221  0.3669  0.7523 -0.0819
   79MOL0     C10534   5.176   8.139   6.252 -0.2862  0.0809 -1.0743
   79MOL0     C10535   5.230   8.018   6.320  0.3355 -0.6997 -0.2754
   79MOL0     C10536   5.361   8.013   6.363 -1.2678  0.0499 -1.2992
   79MOL0     C10537   5.451   8.114   6.344 -0.4827 -0.1669  0.6588
   79MOL0     O10538   5.577   8.110   6.396 -0.5547 -0.5286 -0.7398
   79MOL0     C10539   5.680   8.204   6.360 -0.2993  0.7581  0.0175
   79MOL0     C10540   5.807   8.157   6.422 -0.1689 -0.1692  0.4230
   79MOL0     C10541   5.809   8.162   6.571  0.0807 -0.5036 -0.3362
   79MOL0     C10542   5.925   8.087   6.639 -0.0594 -0.7095  0.5010
   79MOL0     C10543   5.918   7.928   6.651 -0.2390 -0.3956 -0.0986
   79MOL0     C10544   6.049   7.871   6.701 -0.5433  0.4126 -0.3207
   79MOL0     C10545   6.044   7.722   6.734 -0.7152 -0.0246  0.7841
   79MOL0     C10546   6.183   7.655   6.724 -0.4761  0.6533  0.6520
   79MOL0     N10547   6.290   7.711   6.808 -0.2408 -0.8097 -0.4196
   79MOL0     C10548   6.378   7.811   6.775 -0.3690 -0.1605 -0.5292
   79MOL0     C10549   6.465   7.808   6.873 -0.4159 -0.1020 -0.1411
   79MOL0     C10550   6.575   7.904   6.894 -0.3494 -0.2922  0.2476
   79MOL0     C10551   6.680   7.884   6.791  0.1024 -0.6079  0.2313
   79MOL0     C10552   6.753   7.752   6.802 -0.7410  0.3986  0.2673
   79MOL0     C10553   6.890   7.755   6.723 -0.3814  0.4791  0.1532
   79MOL0     O10554   6.959   7.874   6.752 -0.8487  0.2819  0.3167
   79MOL0     C10555   7.092   7.897   6.707  1.6470  0.5079  0.2436
   79MOL0     C10556   7.150   8.011   6.768 -0.3413 -0.3636 -0.2655
   79MOL0     C10557   7.286   8.029   6.750 -0.2199 -0.4045  0.0719
   79MOL0     C10558   7.362   7.952   6.660 -0.5104 -0.6219  0.1112
   79MOL0     C10559   7.503   7.975   6.645 -0.3880  0.5328 -0.9026
   79MOL0     O10560   7.569   7.881   6.588 -0.4622  0.4317 -0.4376
   79MOL0     C10561   7.707   7.878   6.576 -0.5749 -0.3700 -0.2224
   79MOL0     C10562   7.794   7.988   6.582 -0.5428 -0.1394  0.5645
   79MOL0     C10563   7.931   7.969   6.582 -0.9987 -0.6079  0.0609
   79MOL0     C10564   7.978   7.835   6.592 -0.7853  0.4812 -0.5129
   79MOL0     O10565   8.115   7.825   6.608 -0.2477 -0.1512 -1.1063
   79MOL0     C10566   8.154   7.725   6.707 -0.7311 -0.1254  0.2256
   79MOL0     C10567   8.309   7.733   6.730  0.2777 -0.2703  0.4675
   79MOL0     C10568   8.362   7.615   6.817  1.3247 -0.6832  1.2600
   79MOL0     C10569   8.508   7.594   6.800 -0.2724  0.1145  0.2009
   79MOL0     C10570   8.554   7.482   6.898 -0.0186  1.1161 -0.6048
   79MOL0     C10571   8.692   7.532   6.958  0.2773  0.7040  0.7137
   79MOL0     C10572   8.754   7.414   7.033  0.1779  0.2774  0.9542
   79MOL0     C10573   8.901   7.432   7.044 -0.2877 -0.2115 -0.1560
   79MOL0    Cl10574   8.979   7.281   7.081 -0.4034 -0.5077 -0.0368
   79MOL0     C10575   7.889   7.725   6.594 -0.1961  0.2081  0.2118
   79MOL0     C10576   7.751   7.745   6.580  0.3403 -0.0568 -0.8107
   79MOL0     O10577   7.555   8.074   6.700 -0.1789 -0.4814  0.5232
   79MOL0     C10578   7.306   7.834   6.611 -0.0650  0.3022  0.2711
   79MOL0     C10579   7.168   7.817   6.631 -0.6294 -0.6614  0.0466
   79MOL0     N10580   6.428   7.718   6.964 -0.4571  0.2540 -0.4155
   79MOL0     N10581   6.314   7.671   6.928  0.0128  0.1979  0.1834
   79MOL0     C10582   5.407   8.222   6.264  1.3664  0.3939 -0.2588
   79MOL0     C10583   5.269   8.236   6.227  1.2868 -0.8417  0.5554
   79MOL0     C10584   4.811   8.119   6.158 -1.0891  0.0506 -1.1672
   79MOL0     C10585   4.806   8.263   6.141 -0.4090  0.2479 -0.1354
   79MOL0     C10586   4.691   8.325   6.094  0.5376  1.2324 -0.1077
   79MOL0     C10587   4.578   8.245   6.057  0.6211  0.0157 -0.1543
   79MOL0     O10588   4.485   8.317   5.992  0.3206 -0.0081  0.2790
   79MOL0     C10589   4.354   8.270   6.006 -0.0039 -0.8209  0.5185
   79MOL0     C10590   4.265   8.372   5.932  0.2960  0.3617 -0.7579
   79MOL0     C10591   4.134   8.298   5.939 -0.6681 -0.0936 -0.4073
   79MOL0     C10592   4.029   8.340   5.837  0.5824  0.3376  0.1208
   79MOL0     C10593   4.004   8.486   5.842 -0.9027 -1.3146  0.1957
   79MOL0     C10594   3.981   8.607   5.841 -0.3886  0.1333 -0.1483
   79MOL0     C10595   4.577   8.108   6.077 -0.1215 -1.2436 -0.9559
   79MOL0     C10596   4.696   8.048   6.126  1.0348  0.0115 -0.7212
   79MOL0     C10597   4.688   7.900   6.146  0.1911 -0.4447  0.1826
   79MOL0     H10598   5.169   7.931   6.338 -0.3859  0.1657  1.7099
   79MOL0     H10599   5.396   7.927   6.419 -0.1727 -0.7044 -3.0388
   79MOL0     H10600   5.683   8.209   6.250 -2.2513 -0.9839 -0.1868
   79MOL0     H10601   5.654   8.302   6.399  0.1326  1.0890 -0.5142
   79MOL0     H10602   5.882   8.227   6.385 -1.1250  0.4136 -0.4554
   79MOL0     H10603   5.823   8.055   6.385 -0.9794  0.1417 -0.8336
   79MOL0     H10604   5.716   8.118   6.607 -1.4590 -0.3466 -3.7414
   79MOL0     H10605   5.818   8.269   6.592 -2.4117  0.4464 -3.3929
   79MOL0     H10606   6.015   8.113   6.583 -1.1113  1.2029 -0.3862
   79MOL0     H10607   5.934   8.138   6.736 -1.3562  0.3642  0.0785
   79MOL0     H10608   5.832   7.888   6.705 -0.8614  1.0865  0.0620
   79MOL0     H10609   5.902   7.884   6.552  0.3972 -1.2309  0.1619
   79MOL0     H10610   6.118   7.904   6.623 -1.9479  0.0190 -1.7895
   79MOL0     H10611   6.085   7.915   6.795  2.2838 -1.4497 -0.4212
   79MOL0     H10612   5.993   7.674   6.650 -0.6501 -0.4280  0.9772
   79MOL0     H10613   5.993   7.695   6.826 -1.7402 -0.9070 -0.0183
   79MOL0     H10614   6.180   7.548   6.748 -4.3900  0.2569 -0.9377
   79MOL0     H10615   6.203   7.682   6.619 -1.2948  1.2884  0.6515
   79MOL0     H10616   6.371   7.871   6.685 -1.3461 -0.1649 -0.4675
   79MOL0     H10617   6.537   8.006   6.899  1.1415  0.2319  3.9196
   79MOL0     H10618   6.622   7.891   6.991  0.5809 -1.7555 -0.3587
   79MOL0     H10619   6.641   7.901   6.690  3.4513 -3.2637 -1.7189
   79MOL0     H10620   6.754   7.965   6.803  0.3338 -0.7639 -0.1153
   79MOL0     H10621   6.678   7.680   6.767  0.0337 -0.3350  0.0837
   79MOL0     H10622   6.771   7.740   6.909 -2.0769  0.5008  0.5149
   79MOL0     H10623   6.862   7.765   6.617 -3.3479  1.8521  0.9792
   79MOL0     H10624   6.955   7.666   6.731  0.1937  0.6321 -2.0416
   79MOL0     H10625   7.093   8.061   6.846  0.0378 -1.3976  0.6916
   79MOL0     H10626   7.328   8.116   6.800 -0.1800  0.2849 -1.1269
   79MOL0     H10627   7.745   8.085   6.576 -0.8378 -0.3617 -1.6719
   79MOL0     H10628   7.986   8.062   6.586 -3.8101  1.1962 -0.7104
   79MOL0     H10629   8.100   7.736   6.802  0.0536 -0.6400  0.7424
   79MOL0     H10630   8.145   7.620   6.678 -1.8775  0.5523 -2.1529
   79MOL0     H10631   8.359   7.722   6.634 -1.7614  0.7638 -0.7792
   79MOL0     H10632   8.335   7.830   6.775 -0.7760  0.9266 -1.3505
   79MOL0     H10633   8.321   7.627   6.917  0.1089 -2.5196  1.0241
   79MOL0     H10634   8.313   7.526   6.774 -1.2029  0.8996  0.6789
   79MOL0     H10635   8.556   7.691   6.819 -1.5086  0.6872  0.5587
   79MOL0     H10636   8.533   7.571   6.697 -3.0133 -0.9973 -0.2895
   79MOL0     H10637   8.550   7.390   6.839 -4.2455  0.9953 -0.4306
   79MOL0     H10638   8.488   7.467   6.984 -2.3069 -0.3483 -2.4770
   79MOL0     H10639   8.771   7.548   6.883  2.0228 -3.2818  1.3880
   79MOL0     H10640   8.678   7.620   7.020  0.4550  1.1040  0.1989
   79MOL0     H10641   8.753   7.320   6.977  0.8213 -1.6972  3.9712
   79MOL0     H10642   8.716   7.395   7.134 -0.5762 -0.7228  0.4988
   79MOL0     H10643   8.948   7.463   6.951 -1.2398  1.3344 -0.1535
   79MOL0     H10644   8.924   7.507   7.120  2.4843 -2.0334  0.9751
   79MOL0     H10645   7.909   7.619   6.609 -1.6618 -0.2030 -0.6007
   79MOL0     H10646   7.680   7.665   6.596 -1.9662  2.0514  0.1676
   79MOL0     H10647   7.360   7.764   6.547  0.2487 -0.2624  1.1282
   79MOL0     H10648   7.119   7.730   6.588 -0.8505  0.2557 -1.6677
   79MOL0     H10649   5.477   8.298   6.231  1.7036 -0.7633 -2.4549
   79MOL0     H10650   5.248   8.335   6.187  1.3435 -0.5284  1.2835
   79MOL0     H10651   4.898   8.320   6.153  1.0411 -1.7030 -1.2661
   79MOL0     H10652   4.697   8.434   6.090  1.6605  1.2062  0.4893
   79MOL0     H10653   4.317   8.233   6.102 -0.6550 -0.6740  0.3271
   79MOL0     H10654   4.347   8.179   5.946  0.2885 -0.5160  0.0185
   79MOL0     H10655   4.297   8.393   5.829 -0.1276  0.6264 -0.8393
   79MOL0     H10656   4.264   8.461   5.996  2.7967 -0.9011  1.2378
   79MOL0     H10657   4.096   8.293   6.041  0.2247  0.6848 -0.0240
   79MOL0     H10658   4.154   8.194   5.913 -3.4793 -1.6954  3.0191
   79MOL0     H10659   4.064   8.302   5.741  0.2918 -2.3297  0.9915
   79MOL0     H10660   3.933   8.296   5.864  0.8212  1.7003  3.7709
   79MOL0     H10661   3.938   8.702   5.817 -0.3203 -0.3370 -2.4137
   79MOL0     H10662   4.482   8.054   6.070 -0.4747 -0.8229  0.3069
   79MOL0     H10663   4.593   7.854   6.117  0.3110 -1.1490  0.8505
   79MOL0     H10664   4.764   7.858   6.079 -0.4622  0.2420 -1.0168
   79MOL0     H10665   4.700   7.870   6.251  0.8483 -0.9979 -0.0444
   80MOL0     O10666   7.953   1.119   6.747 -0.8241 -0.5733 -0.4289
   80MOL0     C10667   7.847   1.081   6.792 -0.2182 -0.9095 -0.4438
   80MOL0     O10668   7.836   0.986   6.895 -0.1270  0.0319  0.5007
   80MOL0     C10669   7.939   0.974   6.984  0.0790  0.2168 -0.1160
   80MOL0     C10670   8.009   0.855   6.976 -1.0548 -0.3991 -0.1719
   80MOL0     C10671   8.123   0.829   7.065  0.3584 -0.3405  0.3909
   80MOL0     C10672   8.164   0.938   7.149 -0.1897  0.6505  0.2001
   80MOL0     O10673   8.266   0.926   7.238 -0.7122 -1.1873 -0.2170
   80MOL0     C10674   8.396   0.914   7.172 -0.1881  0.6520 -0.0459
   80MOL0     C10675   8.501   0.993   7.253  0.5604  0.2220  0.6375
   80MOL0     C10676   8.613   1.033   7.154  0.2681  0.8544 -0.5689
   80MOL0     C10677   8.732   1.092   7.230 -0.3598  0.3181  0.4635
   80MOL0     C10678   8.817   1.160   7.125  0.6952  0.0807 -0.4384
   80MOL0     C10679   8.873   1.061   7.018  0.4266 -0.2525 -0.1133
   80MOL0     C10680   9.018   1.105   6.982  0.1414 -0.0345 -0.8275
   80MOL0     C10681   9.081   0.999   6.888 -0.1951 -0.2644  0.5048
   80MOL0     N10682   9.211   1.049   6.839  0.2258 -0.2785  0.0370
   80MOL0     C10683   9.224   1.152   6.746 -0.2971  0.1376  0.4787
   80MOL0     C10684   9.356   1.159   6.721  0.2528 -0.0469 -0.2089
   80MOL0     C10685   9.416   1.287   6.660  0.0219 -0.2338 -0.4367
   80MOL0     C10686   9.411   1.407   6.759 -0.9462 -0.5530 -0.2892
   80MOL0     C10687   9.400   1.544   6.685  0.0785  0.1425 -0.0043
   80MOL0     C10688   9.542   1.600   6.673  0.1007  0.4037  0.1112
   80MOL0     O10689   9.590   1.654   6.796  0.3235 -0.3711 -0.3760
   80MOL0     C10690   9.723   1.646   6.821  0.2059 -0.4747  0.0380
   80MOL0     C10691   9.822   1.631   6.728 -0.0471 -0.9786  0.0078
   80MOL0     C10692   9.961   1.654   6.755  0.3307  0.6304 -1.0800
   80MOL0     C10693  10.003   1.683   6.883 -0.0417 -0.2613  0.2792
   80MOL0     C10694  10.143   1.699   6.924 -0.9032  0.1512  0.4105
   80MOL0     O10695  10.238   1.698   6.816 -0.8020  1.1127  0.6039
   80MOL0     C10696  10.378   1.703   6.835  0.2177  0.2110  0.4685
   80MOL0     C10697  10.455   1.790   6.918  0.6393 -0.5676 -0.2156
   80MOL0     C10698  10.595   1.804   6.903 -0.7538  0.0777 -0.7503
   80MOL0     C10699  10.652   1.758   6.782 -0.7316 -0.6826  0.6924
   80MOL0     O10700  10.782   1.779   6.743 -0.0915  1.4326  0.1873
   80MOL0     C10701  10.874   1.828   6.829 -0.5421 -0.0300 -0.0728
   80MOL0     C10702  10.906   1.712   6.930  0.1823 -0.3659  0.3145
   80MOL0     C10703  10.990   1.772   7.047  0.0688  0.9914  0.2645
   80MOL0     C10704  11.032   1.661   7.139 -0.2926 -0.6470  0.1323
   80MOL0     C10705  11.092   1.717   7.277 -0.0692 -0.5130 -0.7392
   80MOL0     C10706  11.193   1.609   7.334  0.4113  0.7659  0.2477
   80MOL0     C10707  11.249   1.655   7.473 -0.5992  0.2780 -0.2563
   80MOL0     C10708  11.162   1.612   7.585  0.7833  0.3426 -0.4089
   80MOL0    Cl10709  11.146   1.441   7.619  0.3594 -0.1001 -0.1957
   80MOL0     C10710  10.582   1.672   6.701  0.0262 -0.0668  0.4603
   80MOL0     C10711  10.447   1.639   6.724  0.2357  0.2091  0.3936
   80MOL0     O10712  10.177   1.702   7.041  0.0479  0.6965  0.0504
   80MOL0     C10713   9.900   1.696   6.982 -0.7962  0.8984  0.1682
   80MOL0     C10714   9.765   1.680   6.956  0.6059 -0.1854 -0.5372
   80MOL0     N10715   9.419   1.051   6.782 -0.9418 -0.4558  0.4660
   80MOL0     N10716   9.333   0.985   6.848 -0.0402  0.8517  0.2377
   80MOL0     C10717   8.097   1.061   7.149  0.4550  0.4019  0.3301
   80MOL0     C10718   7.983   1.076   7.069 -0.4751  0.0350 -0.2850
   80MOL0     C10719   7.729   1.170   6.766 -0.2056  0.4922  0.9076
   80MOL0     C10720   7.632   1.186   6.870  0.6061 -0.2709 -1.3268
   80MOL0     C10721   7.523   1.271   6.863  0.1181 -0.3419  0.6378
   80MOL0     C10722   7.513   1.352   6.752 -0.5293  0.2460  0.6037
   80MOL0     O10723   7.406   1.438   6.744  0.3873 -0.0237 -0.1716
   80MOL0     C10724   7.270   1.379   6.754 -0.1810  0.1088  0.3612
   80MOL0     C10725   7.181   1.480   6.684  0.2627  1.0342 -0.8151
   80MOL0     C10726   7.047   1.466   6.741  0.6562 -0.3561  0.1555
   80MOL0     C10727   7.034   1.531   6.883  0.1858  0.8967 -0.1660
   80MOL0     C10728   7.018   1.676   6.860  1.8492  0.0126 -0.4391
   80MOL0     C10729   6.992   1.792   6.849 -0.7532 -0.0735  0.3366
   80MOL0     C10730   7.610   1.342   6.651  0.6130  0.1069 -0.3244
   80MOL0     C10731   7.719   1.254   6.651 -0.4168 -0.3953 -0.3315
   80MOL0     C10732   7.820   1.273   6.540  0.6017 -0.5526  0.5367
   80MOL0     H10733   7.971   0.779   6.908  0.5965 -1.3508 -0.0788
   80MOL0     H10734   8.171   0.732   7.074 -2.1640 -1.4341  3.6915
   80MOL0     H10735   8.425   0.808   7.174  0.5490  0.8628  0.9945
   80MOL0     H10736   8.392   0.945   7.067 -1.9725  2.2053  0.4343
   80MOL0     H10737   8.536   0.931   7.336  2.2608  0.0763 -0.1411
   80MOL0     H10738   8.449   1.081   7.292 -2.7079  0.0368 -2.6379
   80MOL0     H10739   8.567   1.104   7.085  1.7776  0.9454 -1.5220
   80MOL0     H10740   8.649   0.947   7.099 -0.9573 -0.4626  0.5918
   80MOL0     H10741   8.708   1.166   7.307 -1.7778  2.0833 -1.5284
   80MOL0     H10742   8.786   1.015   7.285  2.4961  0.3152 -2.0343
   80MOL0     H10743   8.764   1.234   7.065  0.2727 -1.4390 -2.0122
   80MOL0     H10744   8.899   1.208   7.179 -0.6651  0.3470  1.5343
   80MOL0     H10745   8.873   0.959   7.057  0.3413  1.1137  3.8603
   80MOL0     H10746   8.818   1.061   6.923  2.1910 -0.8660 -1.1819
   80MOL0     H10747   9.085   1.119   7.068  0.7846  0.2673 -1.3720
   80MOL0     H10748   9.016   1.201   6.930  0.3898  0.5422  0.1870
   80MOL0     H10749   9.095   0.901   6.934 -0.0392  0.6342  2.4637
   80MOL0     H10750   9.006   0.986   6.809  1.9002 -3.7815 -1.1577
   80MOL0     H10751   9.142   1.218   6.725 -0.7173  0.4459  2.7880
   80MOL0     H10752   9.518   1.273   6.623 -0.2308  2.0144 -2.2246
   80MOL0     H10753   9.351   1.319   6.578 -0.7953  2.5373  1.1642
   80MOL0     H10754   9.329   1.401   6.831 -0.7274 -1.3341 -0.1026
   80MOL0     H10755   9.505   1.407   6.814  0.4951  4.2010 -2.2695
   80MOL0     H10756   9.334   1.610   6.742  0.4607 -1.7490  2.8324
   80MOL0     H10757   9.356   1.530   6.585 -2.1411  2.3204  0.5593
   80MOL0     H10758   9.536   1.674   6.592  0.5606 -3.9234 -4.3602
   80MOL0     H10759   9.607   1.519   6.639 -0.0908  0.4923 -0.4842
   80MOL0     H10760   9.811   1.591   6.628  3.6403  0.8700 -1.3388
   80MOL0     H10761  10.022   1.647   6.665  1.9278 -0.6897  0.0346
   80MOL0     H10762  10.401   1.820   7.007  0.9749 -1.0296  0.1503
   80MOL0     H10763  10.644   1.869   6.975  2.0699  2.8356 -4.7185
   80MOL0     H10764  10.964   1.848   6.770  0.0876 -2.3412 -0.0091
   80MOL0     H10765  10.838   1.914   6.886  1.5059 -0.0925  1.4518
   80MOL0     H10766  10.820   1.663   6.975 -1.8424  1.5942 -1.2002
   80MOL0     H10767  10.962   1.639   6.870 -1.7545 -1.7211  0.0881
   80MOL0     H10768  11.074   1.825   7.001  1.6107 -3.2139 -2.2879
   80MOL0     H10769  10.933   1.842   7.110  2.2048  1.8774  1.3155
   80MOL0     H10770  11.093   1.586   7.088  0.0410  0.2444 -0.8059
   80MOL0     H10771  10.942   1.612   7.177 -1.1628  3.2688  3.7728
   80MOL0     H10772  11.019   1.729   7.357 -0.1802 -0.2971 -0.8738
   80MOL0     H10773  11.130   1.815   7.248 -1.6013 -0.7014 -3.7851
   80MOL0     H10774  11.141   1.513   7.339  2.0483 -0.2030 -0.5457
   80MOL0     H10775  11.274   1.605   7.261  0.3426  1.4553  0.1242
   80MOL0     H10776  11.265   1.762   7.488 -0.5619  0.1301  0.8708
   80MOL0     H10777  11.349   1.613   7.484  0.8991  4.0001  2.7494
   80MOL0     H10778  11.194   1.654   7.681  0.6780 -1.6988  0.5737
   80MOL0     H10779  11.064   1.656   7.563 -0.4762 -1.8025  0.5615
   80MOL0     H10780  10.631   1.627   6.615  0.6868  2.2973 -0.4961
   80MOL0     H10781  10.383   1.570   6.671  2.2391 -0.9779 -0.5755
   80MOL0     H10782   9.924   1.727   7.084 -1.1042  1.4498  0.0763
   80MOL0     H10783   9.692   1.686   7.036  2.0337  1.9688  0.7086
   80MOL0     H10784   8.119   1.150   7.207 -2.1250  1.9508 -0.8996
   80MOL0     H10785   7.926   1.168   7.063 -1.7045 -0.7880 -2.8580
   80MOL0     H10786   7.649   1.120   6.955 -0.3807  0.4119 -0.5872
   80MOL0     H10787   7.461   1.274   6.952  0.1233  0.6836  0.6248
   80MOL0     H10788   7.259   1.379   6.862  1.7785  0.9507  0.6103
   80MOL0     H10789   7.266   1.282   6.703 -2.5960  0.2759  0.1242
   80MOL0     H10790   7.190   1.462   6.576 -2.9848 -2.2684 -0.7098
   80MOL0     H10791   7.206   1.587   6.691 -0.4524  1.1428  0.3099
   80MOL0     H10792   7.013   1.364   6.756  1.3099 -0.5186  0.5522
   80MOL0     H10793   6.979   1.514   6.670  1.9333  1.8388  0.3094
   80MOL0     H10794   6.943   1.500   6.935  0.6154 -0.7300 -0.3181
   80MOL0     H10795   7.124   1.522   6.944 -0.7409  0.3123  1.1665
   80MOL0     H10796   6.976   1.895   6.827 -0.8121 -0.2004 -0.2286
   80MOL0     H10797   7.602   1.404   6.563 -0.1426 -0.0269 -0.3543
   80MOL0     H10798   7.763   1.287   6.448  1.0536 -3.9019 -0.3943
   80MOL0     H10799   7.893   1.354   6.551 -0.2876  0.2074  0.9294
   80MOL0     H10800   7.897   1.197   6.523  2.8074  1.4576  0.9551
   81MOL0     O10801   8.225   9.724  10.488  0.3900 -0.3281 -0.6849
   81MOL0     C10802   8.124   9.797  10.480  0.4930 -0.0050 -1.2678
   81MOL0     O10803   8.120   9.927  10.438 -0.3706  0.2264 -0.0890
   81MOL0     C10804   8.242   9.967  10.405 -0.0822 -0.4869 -1.5024
   81MOL0     C10805   8.320  10.020  10.510  0.9883 -0.1377 -0.3271
   81MOL0     C10806   8.452  10.063  10.486  0.0977  0.4968 -0.8411
   81MOL0     C10807   8.506  10.057  10.355  0.9538  0.0493  0.5801
   81MOL0     O10808   8.640  10.097  10.334  0.6567  1.1739 -0.6482
   81MOL0     C10809   8.673  10.229  10.369 -0.4018  1.2811 -0.8967
   81MOL0     C10810   8.795  10.267  10.285 -0.2401 -0.4017 -0.2852
   81MOL0     C10811   8.917  10.220  10.363 -0.9716  0.3493 -0.0228
   81MOL0     C10812   9.042  10.303  10.325  0.2149 -0.0981 -0.5610
   81MOL0     C10813   9.170  10.244  10.369  0.2833  1.2966 -0.5274
   81MOL0     C10814   9.291  10.337  10.343  0.7643 -0.6796 -0.1054
   81MOL0     C10815   9.422  10.283  10.398 -0.8613  0.3528 -0.6905
   81MOL0     C10816   9.475  10.174  10.305  1.3591 -0.1480  0.8004
   81MOL0     N10817   9.622  10.154  10.323 -0.0764 -0.2468  0.2519
   81MOL0     C10818   9.712  10.244  10.290 -0.4101 -0.3350 -0.7995
   81MOL0     C10819   9.826  10.173  10.302 -0.0959 -0.1499 -0.5756
   81MOL0     C10820   9.962  10.221  10.259  0.5081 -0.0685 -0.3970
   81MOL0     C10821   9.971  10.208  10.101  0.7916 -0.4060 -0.0552
   81MOL0     C10822  10.100  10.280  10.047 -0.1669 -0.6965  0.6507
   81MOL0     C10823  10.099  10.293   9.898  0.2688  0.0381  1.2517
   81MOL0     O10824  10.220  10.360   9.848  0.0452  0.4356  0.1960
   81MOL0     C10825  10.334  10.295   9.833 -0.2859 -0.1612  0.2923
   81MOL0     C10826  10.363  10.161   9.881  0.0383 -0.6326  0.6541
   81MOL0     C10827  10.483  10.106   9.848 -0.4632 -0.2373 -0.5293
   81MOL0     C10828  10.578  10.171   9.769 -0.1345 -0.4284 -0.7720
   81MOL0     C10829  10.719  10.119   9.747 -0.7561  0.7918  0.3095
   81MOL0     O10830  10.801  10.186   9.662 -0.1128  0.0805  0.2490
   81MOL0     C10831  10.925  10.136   9.619  0.4624 -0.4875 -0.4846
   81MOL0     C10832  11.018  10.087   9.711  0.1311  1.0093 -0.3812
   81MOL0     C10833  11.140  10.034   9.657 -0.5631  0.1796  0.0267
   81MOL0     C10834  11.190  10.066   9.527 -0.2710  0.1177  0.1569
   81MOL0     O10835  11.319  10.043   9.474  0.2545  0.0680 -0.2079
   81MOL0     C10836  11.406   9.963   9.552  0.1106  0.4921  0.2693
   81MOL0     C10837  11.523   9.930   9.462 -0.4216 -0.2856 -0.2778
   81MOL0     C10838  11.649   9.894   9.553 -0.2029 -1.1078 -0.1626
   81MOL0     C10839  11.778   9.841   9.482  0.1125  0.5804  0.4819
   81MOL0     C10840  11.897   9.813   9.580  0.6652 -0.9943  0.3830
   81MOL0     C10841  11.989   9.710   9.531 -0.1514  0.0348  0.4275
   81MOL0     C10842  12.126   9.706   9.610 -0.4890 -0.0077 -0.1264
   81MOL0     C10843  12.225   9.623   9.529  0.0125 -0.0944 -0.2085
   81MOL0    Cl10844  12.281   9.703   9.386 -0.1907  0.2279  0.4763
   81MOL0     C10845  11.100  10.132   9.445  0.1290  1.2978 -0.0930
   81MOL0     C10846  10.971  10.169   9.488 -0.3799 -0.3335 -0.3018
   81MOL0     O10847  10.745  10.005   9.784  0.7072 -0.1031 -0.1004
   81MOL0     C10848  10.552  10.290   9.710  0.6455  0.1986 -0.8226
   81MOL0     C10849  10.425  10.352   9.733 -0.4137  0.4994  0.4539
   81MOL0     N10850   9.805  10.041  10.328 -0.1282 -0.6602 -0.3043
   81MOL0     N10851   9.679  10.036  10.354  0.3435 -0.0127 -0.5429
   81MOL0     C10852   8.425  10.003  10.254 -0.2149  0.0556  0.3401
   81MOL0     C10853   8.294   9.968  10.276 -0.2839 -0.4751  0.5749
   81MOL0     C10854   7.992   9.747  10.525 -0.0774 -0.2527 -0.3780
   81MOL0     C10855   7.887   9.775  10.442  0.5608  1.1233  0.8743
   81MOL0     C10856   7.758   9.729  10.474 -0.5983 -0.3871 -0.0218
   81MOL0     C10857   7.736   9.660  10.593 -0.3095  0.4058  0.3034
   81MOL0     O10858   7.604   9.622  10.611  0.9458  0.4516  0.1572
   81MOL0     C10859   7.564   9.638  10.748 -0.0028  0.0394 -0.3970
   81MOL0     C10860   7.477   9.520  10.782 -0.7821  0.4418  0.2164
   81MOL0     C10861   7.459   9.480  10.928 -0.0636  0.4928  0.1298
   81MOL0     C10862   7.365   9.361  10.956  0.1823  0.1844  0.2708
   81MOL0     C10863   7.424   9.239  10.892  0.0469 -0.1313  0.1907
   81MOL0     C10864   7.482   9.145  10.840 -0.2622  0.0731  0.5011
   81MOL0     C10865   7.848   9.631  10.676  0.3024  0.1685 -1.1054
   81MOL0     C10866   7.977   9.682  10.650 -0.5669  0.1947 -0.1195
   81MOL0     C10867   8.091   9.654  10.745  0.1422 -0.2098  0.7431
   81MOL0     H10868   8.283   9.998  10.609 -0.6172 -1.3328 -1.1501
   81MOL0     H10869   8.509  10.100  10.571 -0.6871  0.5880 -0.3416
   81MOL0     H10870   8.582  10.282  10.342 -1.5774  0.1271  0.6370
   81MOL0     H10871   8.692  10.239  10.476 -1.3547  0.3876 -0.6291
   81MOL0     H10872   8.802  10.375  10.267  0.5794 -0.0947  1.6218
   81MOL0     H10873   8.792  10.213  10.190 -3.4967 -3.4697  1.3171
   81MOL0     H10874   8.939  10.117  10.336  3.3387  0.5427  1.9322
   81MOL0     H10875   8.894  10.217  10.470 -0.4692  1.7349  0.1458
   81MOL0     H10876   9.047  10.300  10.215 -1.6103  1.1255 -0.7255
   81MOL0     H10877   9.033  10.408  10.355  2.5254  0.3757 -1.2807
   81MOL0     H10878   9.160  10.215  10.474  0.8672  1.8109 -0.3246
   81MOL0     H10879   9.176  10.151  10.312 -0.8217 -0.4590  2.0299
   81MOL0     H10880   9.301  10.357  10.236 -2.8680  0.3095 -0.3795
   81MOL0     H10881   9.266  10.432  10.391 -1.9547 -1.1757 -0.3832
   81MOL0     H10882   9.396  10.244  10.497 -2.0718 -0.3811 -1.2787
   81MOL0     H10883   9.501  10.358  10.397 -0.3076 -0.1993  0.2645
   81MOL0     H10884   9.419  10.081  10.320 -4.9734  2.8948 -0.5959
   81MOL0     H10885   9.464  10.198  10.200  0.1219  1.4558  1.2683
   81MOL0     H10886   9.701  10.347  10.260 -0.4996  0.2431  1.0649
   81MOL0     H10887   9.963  10.327  10.286 -1.8521  0.2565 -1.3371
   81MOL0     H10888  10.046  10.170  10.306  1.2699 -0.4086 -2.0329
   81MOL0     H10889   9.974  10.101  10.077 -1.2150 -0.9220  1.6624
   81MOL0     H10890   9.881  10.251  10.056  0.7781 -0.6348 -0.2510
   81MOL0     H10891  10.186  10.225  10.086  0.9728  1.4844  1.4267
   81MOL0     H10892  10.118  10.379  10.090  0.6675 -0.3899 -0.3737
   81MOL0     H10893  10.013  10.351   9.865  0.5915 -0.1140  0.1171
   81MOL0     H10894  10.081  10.194   9.855 -1.7499 -0.1769  2.5052
   81MOL0     H10895  10.285  10.111   9.937 -1.8252  1.5678  0.1686
   81MOL0     H10896  10.516  10.003   9.864 -1.5423 -0.6718 -1.0139
   81MOL0     H10897  10.986  10.079   9.815  1.8191 -0.2597  0.0787
   81MOL0     H10898  11.214   9.987   9.721 -1.2756 -0.0420  0.6970
   81MOL0     H10899  11.445  10.018   9.638 -0.0759  0.2556  0.5102
   81MOL0     H10900  11.362   9.870   9.592 -1.8849  2.1266  2.1754
   81MOL0     H10901  11.504   9.852   9.388 -1.6740 -0.9951  0.7556
   81MOL0     H10902  11.548  10.012   9.395 -2.5437 -1.5432 -2.7684
   81MOL0     H10903  11.686   9.991   9.586  1.0279 -1.9733  1.0969
   81MOL0     H10904  11.628   9.827   9.637 -2.8391  0.7886  0.8271
   81MOL0     H10905  11.810   9.920   9.414  0.9230  0.1163  0.3118
   81MOL0     H10906  11.753   9.744   9.438 -0.1327  1.2143 -0.8369
   81MOL0     H10907  11.850   9.783   9.674 -0.6990 -0.8789 -0.2517
   81MOL0     H10908  11.955   9.905   9.593  0.0356 -0.2958 -1.4306
   81MOL0     H10909  11.941   9.612   9.523  0.4436 -0.2429  0.2030
   81MOL0     H10910  12.007   9.723   9.424 -3.0285 -3.5140 -0.6975
   81MOL0     H10911  12.112   9.660   9.708 -2.7683  1.5046  0.3432
   81MOL0     H10912  12.167   9.806   9.627 -0.2876  0.4691 -2.9358
   81MOL0     H10913  12.315   9.595   9.585  0.9594  0.9514 -1.1715
   81MOL0     H10914  12.168   9.541   9.485 -0.1233  0.6034 -1.3646
   81MOL0     H10915  11.138  10.140   9.343 -0.7841  0.9221 -0.4758
   81MOL0     H10916  10.896  10.220   9.428 -0.8059  0.8241  1.1665
   81MOL0     H10917  10.623  10.341   9.646  0.0761  1.0742 -0.7863
   81MOL0     H10918  10.397  10.440   9.675  0.4710  1.7827  1.9164
   81MOL0     H10919   8.464   9.987  10.153  0.5945  3.2887  0.0500
   81MOL0     H10920   8.224   9.947  10.196 -1.1198  3.3336  0.1417
   81MOL0     H10921   7.892   9.814  10.340  0.5300 -1.5978 -0.2611
   81MOL0     H10922   7.675   9.756  10.409 -2.7496  2.0096  3.3597
   81MOL0     H10923   7.502   9.729  10.755  1.6518  1.1250  0.9837
   81MOL0     H10924   7.638   9.634  10.828 -1.4931 -0.5942  1.0205
   81MOL0     H10925   7.520   9.433  10.731 -0.1308  0.1377  1.2621
   81MOL0     H10926   7.375   9.542  10.749 -0.3970  1.9475 -0.0505
   81MOL0     H10927   7.400   9.559  10.976 -0.3710  1.1831 -1.3446
   81MOL0     H10928   7.556   9.461  10.976  0.3871 -1.2668 -1.3697
   81MOL0     H10929   7.347   9.344  11.063 -1.6103  1.2500  0.1751
   81MOL0     H10930   7.269   9.376  10.907 -0.5091 -0.3257  1.4140
   81MOL0     H10931   7.530   9.066  10.785 -2.5162  1.0257 -3.2160
   81MOL0     H10932   7.836   9.575  10.768 -5.5276 -0.3326 -1.8163
   81MOL0     H10933   8.181   9.617  10.695 -0.2128 -1.5139  1.0194
   81MOL0     H10934   8.137   9.743  10.790 -0.3823  2.1909 -3.0583
   81MOL0     H10935   8.066   9.573  10.815 -2.3041 -0.8179 -0.7345
   82MOL0     O10936  10.606   4.379   0.191  0.4695  0.1694  0.6430
   82MOL0     C10937  10.506   4.421   0.137 -0.0323 -0.7861 -0.6459
   82MOL0     O10938  10.509   4.526   0.052  0.0601 -0.3014  0.5071
   82MOL0     C10939  10.631   4.594   0.052 -0.1387 -0.1792  0.7582
   82MOL0     C10940  10.654   4.718   0.107  0.8971 -0.0904  0.0526
   82MOL0     C10941  10.770   4.790   0.085  0.1569 -0.6155 -0.5543
   82MOL0     C10942  10.875   4.726   0.021 -0.3214 -0.8135 -0.7319
   82MOL0     O10943  10.983   4.814  -0.002  0.2736 -0.1935  0.4813
   82MOL0     C10944  11.107   4.770  -0.050  0.4002 -0.5751 -0.5267
   82MOL0     C10945  11.197   4.710   0.064  0.8771 -0.1910  0.5965
   82MOL0     C10946  11.346   4.674   0.023  0.7814  0.7882  0.2975
   82MOL0     C10947  11.345   4.544  -0.056 -0.3774 -0.0500 -0.2214
   82MOL0     C10948  11.490   4.504  -0.095 -0.2195 -0.2895 -0.0177
   82MOL0     C10949  11.493   4.368  -0.161 -0.8741  0.3873 -0.7401
   82MOL0     C10950  11.632   4.308  -0.172  0.8604 -0.7719 -0.5060
   82MOL0     C10951  11.699   4.272  -0.031  0.6994  0.0625 -0.3821
   82MOL0     N10952  11.844   4.237  -0.054  0.5278  0.1838 -0.3996
   82MOL0     C10953  11.886   4.166  -0.176 -0.1866 -0.2592 -0.4963
   82MOL0     C10954  12.026   4.174  -0.173  0.2295  0.1773 -0.1872
   82MOL0     C10955  12.107   4.133  -0.284 -0.5887  1.0154  0.2220
   82MOL0     C10956  12.252   4.104  -0.244 -0.6916  0.1525  0.6059
   82MOL0     C10957  12.335   4.037  -0.359  0.0723 -0.7304  0.6105
   82MOL0     C10958  12.368   4.143  -0.469  0.7438 -0.0922 -0.1338
   82MOL0     O10959  12.433   4.269  -0.410  0.4625 -0.4258 -0.4120
   82MOL0     C10960  12.568   4.274  -0.381 -0.2071 -0.4774 -0.3818
   82MOL0     C10961  12.658   4.226  -0.474 -0.4172 -0.2865  1.0887
   82MOL0     C10962  12.789   4.199  -0.449  0.0482 -0.0575 -0.1834
   82MOL0     C10963  12.847   4.238  -0.326  0.0757  0.4046 -0.1186
   82MOL0     C10964  12.999   4.240  -0.304 -0.2599 -1.3181  0.0285
   82MOL0     O10965  13.083   4.156  -0.370 -0.0064  0.6051 -0.6038
   82MOL0     C10966  13.221   4.158  -0.346 -0.4004  0.6315 -0.6705
   82MOL0     C10967  13.291   4.279  -0.327 -1.1273  0.6550 -0.3103
   82MOL0     C10968  13.429   4.272  -0.302  0.1738  0.0839  0.2898
   82MOL0     C10969  13.499   4.155  -0.297  0.6068  0.4669  0.7000
   82MOL0     O10970  13.633   4.138  -0.277 -0.0844  0.7474 -0.4641
   82MOL0     C10971  13.715   4.232  -0.330  0.8787 -0.1505 -0.2358
   82MOL0     C10972  13.863   4.196  -0.346 -0.6833 -0.0636 -0.0606
   82MOL0     C10973  13.941   4.294  -0.426 -0.3066  0.2839 -0.3266
   82MOL0     C10974  14.088   4.246  -0.445  0.5295  0.0918  0.2671
   82MOL0     C10975  14.153   4.324  -0.557 -0.4359 -0.5821 -0.8791
   82MOL0     C10976  14.250   4.239  -0.633 -0.7225 -0.4541 -0.2769
   82MOL0     C10977  14.372   4.193  -0.546 -0.2665 -0.1001  0.2717
   82MOL0     C10978  14.507   4.208  -0.619  0.1011 -0.4836  0.2494
   82MOL0    Cl10979  14.639   4.119  -0.549  0.1929  0.1927 -0.2509
   82MOL0     C10980  13.426   4.035  -0.317 -0.0762 -0.1255  0.4025
   82MOL0     C10981  13.293   4.037  -0.346  0.7776  0.1026 -0.1300
   82MOL0     O10982  13.038   4.307  -0.212 -0.0116 -0.1509 -0.0385
   82MOL0     C10983  12.759   4.284  -0.223  0.2911 -0.7201  0.2056
   82MOL0     C10984  12.625   4.304  -0.254  0.0260  0.4314  0.8713
   82MOL0     N10985  12.057   4.225  -0.052 -0.0216  0.1005 -0.6743
   82MOL0     N10986  11.953   4.265   0.017 -0.3205  0.5731 -0.3915
   82MOL0     C10987  10.861   4.599  -0.035  0.1266  1.1290  0.1646
   82MOL0     C10988  10.734   4.539  -0.025  0.0878 -0.4238  0.5117
   82MOL0     C10989  10.375   4.358   0.150  0.1736 -0.2758  0.1640
   82MOL0     C10990  10.357   4.219   0.171  0.0030 -0.3136 -0.8852
   82MOL0     C10991  10.234   4.156   0.199 -0.7662  0.0435  0.1676
   82MOL0     C10992  10.115   4.227   0.190  0.0466 -0.9947 -0.8014
   82MOL0     O10993   9.991   4.175   0.221 -0.0082  0.7953 -0.5738
   82MOL0     C10994   9.968   4.030   0.237 -0.1760  0.7335 -0.1397
   82MOL0     C10995   9.957   3.941   0.113 -0.2955 -0.7622 -0.2266
   82MOL0     C10996   9.892   4.020  -0.007  0.6340  0.0312 -0.1897
   82MOL0     C10997   9.751   4.089   0.028 -0.6918 -0.4897 -1.2537
   82MOL0     C10998   9.625   4.035  -0.018 -0.1870 -0.3402  0.2918
   82MOL0     C10999   9.517   3.979  -0.048 -1.1732  0.2742  0.3950
   82MOL0     C11000  10.124   4.368   0.171 -0.2651  0.0484 -0.0715
   82MOL0     C11001  10.249   4.435   0.151 -0.8090  0.2020  0.2190
   82MOL0     C11002  10.245   4.584   0.151 -0.2734 -0.5122  0.3824
   82MOL0     H11003  10.575   4.764   0.165 -0.0441  0.0895 -1.3237
   82MOL0     H11004  10.796   4.890   0.118  0.5224 -0.1384 -2.2212
   82MOL0     H11005  11.096   4.699  -0.132  0.4383  2.1071 -3.0006
   82MOL0     H11006  11.153   4.864  -0.082 -1.4421  0.6015  0.0691
   82MOL0     H11007  11.152   4.620   0.107  0.0920  0.5109  1.2788
   82MOL0     H11008  11.188   4.779   0.149 -4.7109  1.6890 -1.0834
   82MOL0     H11009  11.412   4.667   0.110  1.2916 -3.3759 -0.2218
   82MOL0     H11010  11.393   4.748  -0.043  2.9641  0.4851  1.4192
   82MOL0     H11011  11.295   4.464  -0.001  0.7780 -0.3971  0.3573
   82MOL0     H11012  11.295   4.553  -0.154  0.3939  0.2321 -0.5980
   82MOL0     H11013  11.551   4.576  -0.151  2.2031 -0.3067  2.4088
   82MOL0     H11014  11.537   4.499   0.004 -0.4853  0.2373  0.1412
   82MOL0     H11015  11.418   4.307  -0.109 -0.1720  0.0725 -0.0838
   82MOL0     H11016  11.443   4.367  -0.259 -0.5927 -0.6000 -0.8799
   82MOL0     H11017  11.696   4.376  -0.227 -1.8251  1.1289 -1.4955
   82MOL0     H11018  11.623   4.214  -0.227  1.9846 -3.2552  3.1937
   82MOL0     H11019  11.683   4.351   0.043 -5.3247 -0.1096 -0.9926
   82MOL0     H11020  11.645   4.185   0.007 -0.5617  1.9319  2.4269
   82MOL0     H11021  11.821   4.129  -0.254 -2.8337  1.7565  0.6177
   82MOL0     H11022  12.065   4.040  -0.325 -1.5571  0.3199  2.6370
   82MOL0     H11023  12.104   4.210  -0.362  0.0064  0.3161 -0.5125
   82MOL0     H11024  12.306   4.197  -0.225 -2.4484  2.2267 -3.3348
   82MOL0     H11025  12.262   4.033  -0.161  1.7230 -2.3737 -1.6624
   82MOL0     H11026  12.286   3.948  -0.398 -2.5369 -0.7730  3.5298
   82MOL0     H11027  12.430   4.005  -0.317  0.5951  0.8404  0.7069
   82MOL0     H11028  12.278   4.165  -0.526  1.4228 -2.4782 -2.2848
   82MOL0     H11029  12.437   4.095  -0.539  1.6895 -1.2256  1.5014
   82MOL0     H11030  12.619   4.196  -0.570 -3.0964 -0.7442  2.2158
   82MOL0     H11031  12.861   4.164  -0.523  2.2756  1.7735  0.9816
   82MOL0     H11032  13.257   4.382  -0.334  2.6497  2.0153 -0.7872
   82MOL0     H11033  13.492   4.359  -0.286  2.2288 -1.6784  2.5764
   82MOL0     H11034  13.677   4.267  -0.427 -0.8048  2.3668  1.2262
   82MOL0     H11035  13.721   4.313  -0.257 -0.0274  2.5312 -2.9042
   82MOL0     H11036  13.900   4.170  -0.247 -0.5852 -1.0874 -0.3560
   82MOL0     H11037  13.866   4.105  -0.407 -1.4507  0.0989 -0.3469
   82MOL0     H11038  13.893   4.307  -0.523 -3.2477 -2.1847  0.6272
   82MOL0     H11039  13.944   4.387  -0.369  0.8358  0.0881 -0.0449
   82MOL0     H11040  14.083   4.142  -0.476  2.4439  0.6698 -2.3300
   82MOL0     H11041  14.136   4.259  -0.348 -0.8485  0.1405  0.9774
   82MOL0     H11042  14.203   4.411  -0.513 -0.2435 -0.4954 -1.2612
   82MOL0     H11043  14.080   4.358  -0.631  1.0213  1.2279 -1.5655
   82MOL0     H11044  14.205   4.151  -0.679 -0.3595  0.3720 -2.3342
   82MOL0     H11045  14.272   4.302  -0.720 -0.2680  0.1024  0.2346
   82MOL0     H11046  14.353   4.088  -0.521 -1.8357 -0.2440 -1.2805
   82MOL0     H11047  14.371   4.250  -0.452  1.1512  1.3971 -0.5741
   82MOL0     H11048  14.500   4.184  -0.726  1.2886 -1.0490  0.2829
   82MOL0     H11049  14.537   4.314  -0.615  0.5465 -0.3205 -3.5789
   82MOL0     H11050  13.476   3.939  -0.317  2.4247  1.1130  0.5944
   82MOL0     H11051  13.230   3.951  -0.368  0.2768  0.3812  0.1839
   82MOL0     H11052  12.785   4.310  -0.121 -0.5770  2.1384 -0.2076
   82MOL0     H11053  12.560   4.334  -0.172  0.6417 -0.7907  1.8335
   82MOL0     H11054  10.944   4.550  -0.086 -0.7713  1.2435 -1.4841
   82MOL0     H11055  10.721   4.442  -0.073  0.3089  0.1760 -0.8120
   82MOL0     H11056  10.451   4.166   0.159  0.0724 -0.8090  1.4130
   82MOL0     H11057  10.225   4.048   0.208 -0.2113  0.1745  3.4492
   82MOL0     H11058   9.879   4.014   0.298  0.6830  0.0644  0.9548
   82MOL0     H11059  10.050   3.994   0.300 -0.2050  1.5320  0.3668
   82MOL0     H11060   9.884   3.861   0.127 -0.8729 -0.2981 -0.5309
   82MOL0     H11061  10.056   3.908   0.083 -0.7482 -1.1274 -1.3703
   82MOL0     H11062   9.866   3.953  -0.091 -0.0372 -0.8388  0.6858
   82MOL0     H11063   9.971   4.088  -0.039 -0.3107 -0.3446 -3.8316
   82MOL0     H11064   9.739   4.104   0.136  1.8431 -0.8117 -0.8876
   82MOL0     H11065   9.760   4.187  -0.020 -0.1684 -1.1015 -2.4178
   82MOL0     H11066   9.424   3.933  -0.075 -1.1557 -0.1855  1.0989
   82MOL0     H11067  10.027   4.416   0.159  0.1993  0.9222 -0.4166
   82MOL0     H11068  10.284   4.623   0.057  1.0074  0.6985  1.3854
   82MOL0     H11069  10.139   4.613   0.142  0.5644  2.2634 -2.0073
   82MOL0     H11070  10.299   4.619   0.240  0.1517 -0.3135  0.0462
   83MOL0     O11071   9.542   9.089   6.586  0.4452 -0.0044  0.8552
   83MOL0     C11072   9.538   8.969   6.566 -0.3932 -0.3088  0.6036
   83MOL0     O11073   9.649   8.907   6.528  0.5385 -0.3141 -0.1208
   83MOL0     C11074   9.757   8.974   6.475  0.9548 -0.7108 -0.4206
   83MOL0     C11075   9.857   9.040   6.550  0.1975 -0.3028 -0.6814
   83MOL0     C11076   9.965   9.106   6.494  0.3234  0.3190 -0.6865
   83MOL0     C11077   9.974   9.109   6.359  0.5798 -1.0500 -0.6473
   83MOL0     O11078  10.084   9.178   6.319  0.2554  0.4763  0.5204
   83MOL0     C11079  10.114   9.210   6.181 -0.4177 -0.6506 -0.4675
   83MOL0     C11080  10.242   9.296   6.172 -0.9035 -0.2242 -0.3556
   83MOL0     C11081  10.269   9.337   6.027 -0.6575  0.0736 -0.1056
   83MOL0     C11082  10.354   9.459   6.004 -0.7205 -0.5527 -0.7299
   83MOL0     C11083  10.351   9.512   5.860 -1.1948  0.3267  0.3683
   83MOL0     C11084  10.438   9.410   5.787  0.6564 -0.7552  0.5921
   83MOL0     C11085  10.450   9.450   5.638 -0.1961  0.4222  0.0457
   83MOL0     C11086  10.587   9.426   5.575  0.5859  0.4296 -0.6610
   83MOL0     N11087  10.571   9.445   5.436  0.2875  0.1415  0.0957
   83MOL0     C11088  10.572   9.348   5.345  0.1719 -0.4884  0.6747
   83MOL0     C11089  10.544   9.426   5.230  0.1511  0.2934  1.3035
   83MOL0     C11090  10.544   9.380   5.095  0.1134  0.2193  0.9480
   83MOL0     C11091  10.412   9.347   5.022 -0.2866  0.4123  0.0820
   83MOL0     C11092  10.355   9.474   4.972 -0.3871  0.1126 -0.0014
   83MOL0     C11093  10.211   9.447   4.931 -0.6818  0.0665 -0.5119
   83MOL0     O11094  10.131   9.432   5.053  0.7780  0.0701  0.5731
   83MOL0     C11095  10.042   9.327   5.050 -0.1436  0.0999  0.2836
   83MOL0     C11096  10.012   9.261   5.171  0.3654  0.9638 -0.0796
   83MOL0     C11097   9.908   9.165   5.187 -0.3423  0.2508 -0.3270
   83MOL0     C11098   9.839   9.119   5.076 -0.0416 -0.5480  0.8451
   83MOL0     C11099   9.729   9.025   5.092 -0.6563 -0.9989  0.7437
   83MOL0     O11100   9.714   8.974   5.214 -0.6540 -0.2743  0.1445
   83MOL0     C11101   9.609   8.885   5.232  0.6571 -0.5529  0.5087
   83MOL0     C11102   9.634   8.746   5.219  0.0760 -0.4407  0.1318
   83MOL0     C11103   9.527   8.655   5.226  1.4304 -0.5688  0.1170
   83MOL0     C11104   9.402   8.704   5.266 -0.5302 -0.1629  0.3761
   83MOL0     O11105   9.283   8.633   5.255  0.2203 -0.2850  0.1743
   83MOL0     C11106   9.282   8.501   5.194  0.0544 -0.4011 -0.2601
   83MOL0     C11107   9.137   8.467   5.196  0.4543 -0.0945 -0.8748
   83MOL0     C11108   9.085   8.452   5.340 -0.0748 -0.7140  0.2099
   83MOL0     C11109   8.936   8.425   5.332  0.9960  0.3943  0.4621
   83MOL0     C11110   8.874   8.375   5.459  0.3643  0.3676 -0.1328
   83MOL0     C11111   8.882   8.488   5.563 -0.1821  0.0828 -1.1978
   83MOL0     C11112   8.790   8.607   5.541  0.4697 -0.3389  0.4155
   83MOL0     C11113   8.761   8.693   5.668  0.1351 -0.5997  0.2604
   83MOL0    Cl11114   8.915   8.775   5.711  0.6818 -0.3426 -0.4732
   83MOL0     C11115   9.390   8.835   5.311 -0.1834  0.4232  0.0163
   83MOL0     C11116   9.490   8.928   5.283 -0.3970  1.0317 -0.6826
   83MOL0     O11117   9.663   8.991   4.991 -0.2127 -0.0021  0.0929
   83MOL0     C11118   9.863   9.188   4.952 -0.1569  0.6106  0.7174
   83MOL0     C11119   9.964   9.293   4.936 -0.4480 -0.0490  0.0016
   83MOL0     N11120  10.512   9.556   5.266 -0.0733  0.4461  0.5510
   83MOL0     N11121  10.538   9.564   5.391 -0.2675 -0.2507 -0.3258
   83MOL0     C11122   9.882   9.040   6.277 -0.4539 -0.4430 -0.3239
   83MOL0     C11123   9.775   8.973   6.334  1.0594 -0.4799  0.8791
   83MOL0     C11124   9.416   8.896   6.603 -1.1620 -0.4704  0.1142
   83MOL0     C11125   9.424   8.765   6.640 -0.8871  0.1494 -0.0870
   83MOL0     C11126   9.309   8.690   6.666 -0.2388  0.1416 -0.4670
   83MOL0     C11127   9.175   8.737   6.654  0.3256 -0.3480  0.4964
   83MOL0     O11128   9.064   8.661   6.696  0.5808 -0.1454  0.4611
   83MOL0     C11129   8.934   8.700   6.640 -0.3509  0.5284 -1.4404
   83MOL0     C11130   8.847   8.576   6.632  0.5867 -0.2323  0.2682
   83MOL0     C11131   8.724   8.609   6.537  0.4055 -0.5244  0.0297
   83MOL0     C11132   8.628   8.488   6.504  0.2883 -0.9906 -0.5446
   83MOL0     C11133   8.494   8.528   6.450  0.4404  0.5155  0.4579
   83MOL0     C11134   8.391   8.547   6.388 -0.2201  0.4176 -0.0509
   83MOL0     C11135   9.165   8.876   6.619 -0.5954  0.4009 -0.5156
   83MOL0     C11136   9.283   8.953   6.591 -0.3660  0.3909  0.4567
   83MOL0     C11137   9.249   9.094   6.564 -1.0229 -0.6904  0.7118
   83MOL0     H11138   9.848   9.039   6.658  3.0133  1.6287 -0.3148
   83MOL0     H11139  10.033   9.151   6.565  1.0970 -0.9233 -0.6138
   83MOL0     H11140  10.116   9.116   6.124 -2.5561  0.4970 -2.6113
   83MOL0     H11141  10.034   9.281   6.158  0.1278 -0.2304 -1.0944
   83MOL0     H11142  10.322   9.229   6.204 -1.5395 -0.7310  0.2181
   83MOL0     H11143  10.236   9.378   6.244 -0.0026 -2.5273  2.5302
   83MOL0     H11144  10.174   9.355   5.977  0.5217  0.0600 -2.4916
   83MOL0     H11145  10.308   9.247   5.977 -0.9655 -0.9359  1.3833
   83MOL0     H11146  10.300   9.526   6.072  2.5378  0.6680  0.9121
   83MOL0     H11147  10.454   9.441   6.046 -1.9781  0.0470  2.9175
   83MOL0     H11148  10.250   9.523   5.819 -0.7864 -2.0713 -1.5438
   83MOL0     H11149  10.392   9.613   5.850 -0.8618  0.0292 -1.6325
   83MOL0     H11150  10.542   9.414   5.822  0.9081  1.4482 -0.2362
   83MOL0     H11151  10.402   9.308   5.798 -3.8697  0.7127  1.3050
   83MOL0     H11152  10.430   9.556   5.621  1.3772  0.9541  1.2383
   83MOL0     H11153  10.370   9.401   5.582  1.0716 -2.5398  0.6522
   83MOL0     H11154  10.662   9.489   5.624  2.4276 -3.2094  1.6474
   83MOL0     H11155  10.626   9.324   5.588 -0.5319  0.1628  0.8890
   83MOL0     H11156  10.602   9.244   5.356  1.6273 -0.3520 -1.4069
   83MOL0     H11157  10.597   9.463   5.048 -2.4613  0.5105 -1.7384
   83MOL0     H11158  10.620   9.302   5.080  0.1562  0.4651 -0.1837
   83MOL0     H11159  10.432   9.284   4.935 -1.5083  1.3483 -0.9105
   83MOL0     H11160  10.345   9.298   5.092  0.8619 -0.3124  0.6946
   83MOL0     H11161  10.418   9.519   4.895 -2.5553  1.9314 -0.8100
   83MOL0     H11162  10.355   9.555   5.046  0.7268  0.3252 -0.2137
   83MOL0     H11163  10.209   9.355   4.871  2.9192 -0.2306 -0.4368
   83MOL0     H11164  10.186   9.533   4.869 -2.3352  2.0011  2.5928
   83MOL0     H11165  10.062   9.291   5.262 -1.6391  0.6525  1.1964
   83MOL0     H11166   9.882   9.133   5.287 -1.8260  4.5556  0.8823
   83MOL0     H11167   9.732   8.714   5.185 -0.3230 -0.1646 -1.3591
   83MOL0     H11168   9.530   8.559   5.176 -0.4401 -0.2685 -0.6743
   83MOL0     H11169   9.326   8.513   5.095 -0.6907  0.5716 -0.4858
   83MOL0     H11170   9.347   8.432   5.249 -0.5298  0.4467  1.5856
   83MOL0     H11171   9.085   8.546   5.142  1.6084  0.6330 -0.9512
   83MOL0     H11172   9.123   8.372   5.145  2.4712 -0.2607 -1.1884
   83MOL0     H11173   9.135   8.381   5.407  0.9728 -1.1393 -0.9958
   83MOL0     H11174   9.106   8.546   5.392  1.0836 -1.2453  0.7565
   83MOL0     H11175   8.918   8.339   5.266 -0.3107  1.3984 -0.5432
   83MOL0     H11176   8.881   8.510   5.292  0.7091 -0.1476 -0.3123
   83MOL0     H11177   8.911   8.275   5.485 -2.3729 -0.6727  0.0338
   83MOL0     H11178   8.768   8.349   5.453  0.3528 -0.1007  1.5147
   83MOL0     H11179   8.858   8.436   5.656  4.9969  0.6839  0.7714
   83MOL0     H11180   8.979   8.535   5.576 -0.6355  0.0580  3.9281
   83MOL0     H11181   8.699   8.561   5.500  0.4040 -1.9518  2.2168
   83MOL0     H11182   8.843   8.679   5.479  0.0197 -2.0019 -2.0472
   83MOL0     H11183   8.688   8.772   5.649  0.4433 -0.8521 -2.3164
   83MOL0     H11184   8.734   8.631   5.754  2.5022 -0.6169  1.0788
   83MOL0     H11185   9.298   8.872   5.355 -0.3987  0.2910 -0.3129
   83MOL0     H11186   9.483   9.034   5.303 -0.5868  0.8030  0.5809
   83MOL0     H11187   9.813   9.171   4.858  3.6394  0.0970 -1.4172
   83MOL0     H11188   9.966   9.335   4.836 -1.7901  2.2076  0.8470
   83MOL0     H11189   9.902   9.041   6.170 -0.1437  1.6612 -0.2973
   83MOL0     H11190   9.695   8.931   6.274  1.9790  0.1945 -0.8890
   83MOL0     H11191   9.525   8.728   6.654  1.3798  5.3577 -0.2582
   83MOL0     H11192   9.322   8.586   6.696  0.0463 -0.3433 -2.1249
   83MOL0     H11193   8.950   8.736   6.538  3.5736  2.3984 -0.3791
   83MOL0     H11194   8.884   8.781   6.695  1.0176 -0.8021  2.0431
   83MOL0     H11195   8.818   8.541   6.732  1.6615 -0.6811  0.4368
   83MOL0     H11196   8.903   8.497   6.580  0.5201 -0.7956  1.0378
   83MOL0     H11197   8.748   8.655   6.441 -2.4745 -2.4334 -1.7987
   83MOL0     H11198   8.671   8.688   6.591  0.0848 -1.0049  0.4342
   83MOL0     H11199   8.675   8.411   6.442  0.0644 -1.2916 -0.3447
   83MOL0     H11200   8.611   8.442   6.602  3.0775 -0.8018  0.0991
   83MOL0     H11201   8.296   8.564   6.343  0.0604 -0.1612 -0.8981
   83MOL0     H11202   9.065   8.918   6.613 -1.1842 -0.6603  1.0476
   83MOL0     H11203   9.276   9.138   6.661 -0.9461  1.0257 -0.0685
   83MOL0     H11204   9.300   9.147   6.484 -1.0023 -0.4224  0.8994
   83MOL0     H11205   9.147   9.132   6.554 -0.4274  1.8110  2.9356
   84MOL0     O11206   8.955   7.471   1.286 -0.1334 -0.4666 -0.4006
   84MOL0     C11207   8.896   7.557   1.344 -0.2000  0.1627  0.6411
   84MOL0     O11208   8.958   7.662   1.400 -0.5253 -0.0470 -0.1792
   84MOL0     C11209   9.094   7.668   1.392  0.3012  0.1632  0.6091
   84MOL0     C11210   9.154   7.754   1.295 -0.2922 -0.5708 -0.1381
   84MOL0     C11211   9.293   7.771   1.293 -0.1395 -0.3213 -0.0473
   84MOL0     C11212   9.375   7.700   1.383  0.1293 -0.5208 -0.1942
   84MOL0     O11213   9.509   7.718   1.375 -0.9018  0.6076  0.3228
   84MOL0     C11214   9.581   7.737   1.494  0.0190 -0.1094  0.6242
   84MOL0     C11215   9.721   7.777   1.446 -0.3121 -0.7961  0.3499
   84MOL0     C11216   9.799   7.667   1.369 -0.8605 -0.3095 -0.2069
   84MOL0     C11217   9.886   7.580   1.463  0.0108  0.3523  0.0158
   84MOL0     C11218   9.983   7.489   1.383  0.4644 -0.3337  1.7581
   84MOL0     C11219  10.095   7.422   1.479  0.3451  0.1334  0.2414
   84MOL0     C11220  10.197   7.323   1.404  0.2739 -0.2158 -0.2689
   84MOL0     C11221  10.308   7.256   1.485 -0.2854 -0.5796 -0.5330
   84MOL0     N11222  10.376   7.353   1.566  0.7221  0.3055 -0.8093
   84MOL0     C11223  10.421   7.476   1.515  0.4249 -0.3648 -0.0776
   84MOL0     C11224  10.474   7.540   1.621 -0.6422 -0.1668 -0.1241
   84MOL0     C11225  10.516   7.689   1.622 -0.7884 -0.6888 -0.1989
   84MOL0     C11226  10.670   7.718   1.581  0.4642  0.0073  0.1618
   84MOL0     C11227  10.716   7.853   1.626 -0.1646 -1.0934  0.4331
   84MOL0     C11228  10.868   7.844   1.645 -0.4809  0.1398 -0.4420
   84MOL0     O11229  10.915   7.958   1.721  0.0203 -0.1931  0.4643
   84MOL0     C11230  11.041   8.003   1.684  1.0985  0.0166 -0.3117
   84MOL0     C11231  11.065   8.147   1.681 -0.9599  0.4808 -0.3050
   84MOL0     C11232  11.195   8.193   1.661 -1.0677 -0.6743 -0.2701
   84MOL0     C11233  11.307   8.113   1.652 -1.5382 -0.5451 -0.2943
   84MOL0     C11234  11.453   8.174   1.645 -0.1582  0.2851 -0.1117
   84MOL0     O11235  11.551   8.097   1.677 -0.2557 -0.4393 -0.3248
   84MOL0     C11236  11.675   8.152   1.652 -0.1134  0.0246 -0.4691
   84MOL0     C11237  11.741   8.150   1.528 -0.2381 -0.5315  0.1283
   84MOL0     C11238  11.862   8.212   1.498 -0.8713 -0.6310 -0.5669
   84MOL0     C11239  11.912   8.299   1.594 -0.6564 -0.3222  0.1849
   84MOL0     O11240  12.026   8.373   1.572 -0.3699  0.2885  0.4155
   84MOL0     C11241  12.140   8.294   1.526  0.0618 -1.2680  0.4602
   84MOL0     C11242  12.250   8.392   1.489  0.3901 -0.0654 -0.7311
   84MOL0     C11243  12.361   8.320   1.399 -0.3627 -0.2364 -0.0557
   84MOL0     C11244  12.465   8.426   1.354 -0.7987 -0.4663 -0.4691
   84MOL0     C11245  12.577   8.353   1.269 -0.0859 -0.7306 -0.0949
   84MOL0     C11246  12.716   8.367   1.335  0.1246  0.2028  0.1786
   84MOL0     C11247  12.813   8.271   1.266  0.3675 -0.7246 -0.1654
   84MOL0     C11248  12.960   8.263   1.322 -0.4971 -0.1896  0.2332
   84MOL0    Cl11249  13.040   8.418   1.277  0.3081  0.1415 -0.1776
   84MOL0     C11250  11.846   8.308   1.714  0.3583  0.2332 -0.3925
   84MOL0     C11251  11.735   8.237   1.751  0.0429  0.4974  1.0443
   84MOL0     O11252  11.457   8.290   1.615  0.3700 -0.2196  0.5871
   84MOL0     C11253  11.276   7.977   1.658 -0.3396  0.4356 -0.6538
   84MOL0     C11254  11.142   7.920   1.662 -0.1685 -0.8837 -0.1824
   84MOL0     N11255  10.489   7.436   1.718  0.5225  0.5604 -0.0801
   84MOL0     N11256  10.437   7.328   1.686  0.4646 -0.0731 -0.4455
   84MOL0     C11257   9.309   7.613   1.472  0.0315 -0.3425 -0.8109
   84MOL0     C11258   9.167   7.592   1.473 -0.6198  0.7825 -1.0906
   84MOL0     C11259   8.749   7.542   1.374 -0.1966 -0.2372 -0.7958
   84MOL0     C11260   8.696   7.636   1.468 -0.5244  0.2350  0.8407
   84MOL0     C11261   8.559   7.642   1.497 -0.2115  0.5834 -0.7192
   84MOL0     C11262   8.474   7.552   1.434 -0.0447  0.7987  0.6812
   84MOL0     O11263   8.333   7.553   1.440 -0.2083 -0.0352  0.9013
   84MOL0     C11264   8.256   7.620   1.539 -0.1696  0.3214 -0.0625
   84MOL0     C11265   8.106   7.599   1.515 -0.3773  0.7814  0.0407
   84MOL0     C11266   8.053   7.678   1.394 -0.3034 -0.9687  0.1761
   84MOL0     C11267   7.907   7.639   1.384  0.2288  0.5666 -0.9150
   84MOL0     C11268   7.849   7.674   1.255  0.9695  0.4282  1.4396
   84MOL0     C11269   7.809   7.708   1.147 -1.4392 -0.2531 -0.1776
   84MOL0     C11270   8.523   7.463   1.334  0.5097  0.0403  0.3415
   84MOL0     C11271   8.657   7.457   1.306 -1.7256  0.0902  0.3244
   84MOL0     C11272   8.696   7.357   1.202 -0.4281  0.0176  0.4436
   84MOL0     H11273   9.082   7.804   1.232 -0.2260  0.5120  0.6004
   84MOL0     H11274   9.323   7.827   1.205  1.4325 -1.5648 -0.3505
   84MOL0     H11275   9.529   7.812   1.554  0.2991  1.8984 -1.5126
   84MOL0     H11276   9.575   7.642   1.548 -1.2330 -0.4606 -0.0835
   84MOL0     H11277   9.779   7.813   1.532 -0.7613 -0.5870  0.5660
   84MOL0     H11278   9.715   7.859   1.374  1.1397 -3.1135 -2.6334
   84MOL0     H11279   9.871   7.711   1.299 -0.7016  0.9830  0.7245
   84MOL0     H11280   9.730   7.595   1.324  1.0357 -1.8487 -0.7908
   84MOL0     H11281   9.941   7.646   1.531  1.4629  1.3724 -2.0153
   84MOL0     H11282   9.829   7.519   1.533  0.2946  1.4260  1.2112
   84MOL0     H11283   9.922   7.410   1.339  2.2171 -1.7155  1.6912
   84MOL0     H11284  10.028   7.546   1.300 -2.8381 -0.9577 -0.6484
   84MOL0     H11285  10.149   7.501   1.532 -0.2910  0.4756  0.3907
   84MOL0     H11286  10.040   7.366   1.555 -0.8686  1.7247  0.5948
   84MOL0     H11287  10.242   7.385   1.326  1.6109  1.4927  1.7683
   84MOL0     H11288  10.140   7.243   1.356  0.1670  1.3485 -2.9540
   84MOL0     H11289  10.257   7.183   1.548  0.4134 -0.6374 -0.0307
   84MOL0     H11290  10.368   7.190   1.423 -3.9246 -3.8156 -0.9618
   84MOL0     H11291  10.407   7.508   1.413 -0.8342 -0.3924  0.0721
   84MOL0     H11292  10.449   7.740   1.553  0.1901  1.3667  0.3018
   84MOL0     H11293  10.494   7.719   1.725  3.1664  4.6806 -0.4917
   84MOL0     H11294  10.734   7.640   1.624 -0.1502 -1.0779 -0.8189
   84MOL0     H11295  10.677   7.699   1.474 -2.0987  1.0794 -0.2720
   84MOL0     H11296  10.678   7.880   1.724 -0.0472 -2.0624  0.7602
   84MOL0     H11297  10.703   7.932   1.551  0.4883 -0.9192  0.4964
   84MOL0     H11298  10.912   7.845   1.544 -2.1902  3.0669 -1.2937
   84MOL0     H11299  10.892   7.749   1.692 -2.8202 -0.9735 -1.3268
   84MOL0     H11300  10.986   8.220   1.701 -1.7509 -0.7262  1.1892
   84MOL0     H11301  11.212   8.300   1.657 -1.1904 -0.6613 -0.4325
   84MOL0     H11302  11.684   8.105   1.448 -1.3893  2.0093 -0.5990
   84MOL0     H11303  11.921   8.196   1.408  3.2639  3.1930  1.0367
   84MOL0     H11304  12.181   8.233   1.608  3.4232 -3.0390 -2.2528
   84MOL0     H11305  12.125   8.216   1.451  1.9865 -0.6437 -0.6578
   84MOL0     H11306  12.206   8.475   1.433 -0.1625 -1.1907 -2.0419
   84MOL0     H11307  12.297   8.432   1.579  0.7194  0.5745 -1.1790
   84MOL0     H11308  12.409   8.236   1.450  0.6620 -1.4552 -2.8294
   84MOL0     H11309  12.310   8.279   1.311 -1.4199 -2.2736  1.4443
   84MOL0     H11310  12.509   8.475   1.441  1.1875  2.7901 -3.0844
   84MOL0     H11311  12.411   8.503   1.299  0.3131  0.6519 -0.0325
   84MOL0     H11312  12.579   8.397   1.169 -1.3758 -0.8592 -0.1978
   84MOL0     H11313  12.547   8.250   1.251  2.6319 -1.1669 -3.0148
   84MOL0     H11314  12.742   8.473   1.338 -0.2164  0.2808  0.4726
   84MOL0     H11315  12.710   8.321   1.435  0.3935 -0.5646 -0.1509
   84MOL0     H11316  12.826   8.316   1.167  0.3975  0.3153  0.2987
   84MOL0     H11317  12.767   8.172   1.266 -2.6903  0.5757 -0.5839
   84MOL0     H11318  12.958   8.268   1.432  0.9809  1.9995  0.2043
   84MOL0     H11319  13.019   8.174   1.297 -0.2645 -0.3531  1.3070
   84MOL0     H11320  11.886   8.370   1.793  1.1922 -0.8026  0.0095
   84MOL0     H11321  11.676   8.250   1.841  0.8189 -0.2977  1.6948
   84MOL0     H11322  11.364   7.918   1.635 -0.1250  1.3225 -2.2765
   84MOL0     H11323  11.144   7.811   1.655 -2.2426 -0.9220 -0.7035
   84MOL0     H11324   9.369   7.554   1.541 -0.3845  0.7177  0.5075
   84MOL0     H11325   9.127   7.517   1.541  1.3808 -0.7808 -1.5351
   84MOL0     H11326   8.760   7.706   1.521  1.1717  1.5750 -2.6923
   84MOL0     H11327   8.516   7.717   1.562  0.7011  0.1397  0.4298
   84MOL0     H11328   8.283   7.725   1.554 -0.2698  0.0393  2.4815
   84MOL0     H11329   8.276   7.567   1.633  1.7056 -1.2987 -1.2735
   84MOL0     H11330   8.059   7.638   1.606  3.1045 -0.5700  2.6560
   84MOL0     H11331   8.086   7.494   1.493 -0.3121  0.7212  0.2723
   84MOL0     H11332   8.117   7.659   1.307  0.1499  1.8482 -0.2105
   84MOL0     H11333   8.050   7.786   1.410  2.3669 -0.7575 -0.3574
   84MOL0     H11334   7.887   7.532   1.397  0.1097  0.3615 -2.5906
   84MOL0     H11335   7.858   7.700   1.461  0.4635 -1.4315  0.9255
   84MOL0     H11336   7.773   7.721   1.047  1.5326 -0.2098 -1.3525
   84MOL0     H11337   8.445   7.412   1.280  1.3066  0.3353 -1.1332
   84MOL0     H11338   8.612   7.287   1.190  0.5162 -1.2362  0.9885
   84MOL0     H11339   8.719   7.413   1.111 -1.4410 -0.9867 -0.4680
   84MOL0     H11340   8.784   7.302   1.234  0.4061  0.0989 -1.5525
   85MOL0     O11341   2.640   3.142   9.534 -0.7419 -0.6407  0.0709
   85MOL0     C11342   2.599   3.251   9.489 -0.2576 -0.3834 -0.2520
   85MOL0     O11343   2.472   3.289   9.493 -0.0283 -0.0797 -0.5084
   85MOL0     C11344   2.371   3.191   9.504 -1.0491 -1.2030  0.3043
   85MOL0     C11345   2.331   3.148   9.630  0.1246  0.6422  0.2201
   85MOL0     C11346   2.239   3.042   9.653  0.3335  0.0140  0.5381
   85MOL0     C11347   2.198   2.963   9.546  0.0731  0.0202 -0.2654
   85MOL0     O11348   2.111   2.861   9.580 -0.2781  0.5523 -0.5709
   85MOL0     C11349   2.071   2.762   9.477  0.2675  0.9438 -0.0374
   85MOL0     C11350   1.970   2.669   9.535 -0.7377 -0.0580 -0.2672
   85MOL0     C11351   1.857   2.748   9.613 -0.3078 -0.6318  0.7343
   85MOL0     C11352   1.720   2.683   9.618  1.0687  0.6526  0.0199
   85MOL0     C11353   1.618   2.783   9.667  0.8809  0.6308  0.2843
   85MOL0     C11354   1.478   2.711   9.668 -0.4700 -1.1852  1.2879
   85MOL0     C11355   1.466   2.583   9.747 -1.0278 -0.0035  0.2228
   85MOL0     C11356   1.324   2.517   9.731 -0.3131  0.6045 -0.6199
   85MOL0     N11357   1.316   2.376   9.778 -0.7805 -0.3555 -0.4292
   85MOL0     C11358   1.204   2.298   9.792 -0.6265 -0.1316 -0.3929
   85MOL0     C11359   1.236   2.206   9.884 -0.6023 -0.6025 -0.2582
   85MOL0     C11360   1.136   2.113   9.929 -1.3577 -0.1454  0.6680
   85MOL0     C11361   1.087   2.170  10.068  0.1358  0.2632  0.9044
   85MOL0     C11362   0.966   2.084  10.125  0.7556  0.4356 -0.0752
   85MOL0     C11363   0.844   2.089  10.042  0.7839 -0.5069  0.4596
   85MOL0     O11364   0.724   2.034  10.103  0.0891 -0.5188 -0.5427
   85MOL0     C11365   0.598   2.059  10.052 -0.7549  0.4761  0.0344
   85MOL0     C11366   0.576   2.103   9.921  0.1578  0.6239  0.3933
   85MOL0     C11367   0.442   2.149   9.882 -0.5876 -0.6406 -0.6634
   85MOL0     C11368   0.338   2.141   9.972 -0.4061  0.6785 -0.3743
   85MOL0     C11369   0.208   2.193   9.942 -0.4628  0.3295  0.1793
   85MOL0     O11370   0.104   2.183  10.030  0.0836  0.2215  0.1909
   85MOL0     C11371  -0.000   2.272  10.019  0.2255  0.0812 -0.1461
   85MOL0     C11372  -0.115   2.241   9.939 -1.0062  0.7276 -0.4385
   85MOL0     C11373  -0.234   2.303   9.941 -0.4051 -0.3799  0.2105
   85MOL0     C11374  -0.247   2.415  10.030 -0.6068 -0.1807  0.4155
   85MOL0     O11375  -0.368   2.484  10.050 -1.0583 -0.4158 -0.6958
   85MOL0     C11376  -0.472   2.408  10.102 -0.2037 -0.4787 -0.0159
   85MOL0     C11377  -0.586   2.510  10.132 -0.2393 -0.2012  0.0859
   85MOL0     C11378  -0.660   2.557  10.012 -0.4638 -0.2301 -0.6936
   85MOL0     C11379  -0.763   2.448   9.968 -0.4529 -1.0199  0.8598
   85MOL0     C11380  -0.831   2.467   9.832 -0.5492 -0.3689 -0.2930
   85MOL0     C11381  -0.746   2.475   9.697 -0.3554 -0.0995  0.2043
   85MOL0     C11382  -0.823   2.396   9.583 -0.3348  0.5661 -0.8950
   85MOL0     C11383  -0.777   2.427   9.443 -0.9883 -0.9597  0.8421
   85MOL0    Cl11384  -0.823   2.597   9.415 -0.0503 -0.2973 -0.1586
   85MOL0     C11385  -0.136   2.452  10.108 -0.3516  0.2680  0.8380
   85MOL0     C11386  -0.016   2.380  10.109  0.1499 -0.4410 -0.8699
   85MOL0     O11387   0.201   2.237   9.827  0.4356 -0.5979 -0.3370
   85MOL0     C11388   0.364   2.071  10.095 -0.2152  0.1123  0.5678
   85MOL0     C11389   0.492   2.045  10.139  0.1197  0.9987  1.0131
   85MOL0     N11390   1.371   2.228   9.916 -1.0705 -0.2097 -0.3605
   85MOL0     N11391   1.419   2.331   9.861  0.3054 -0.5533  0.1328
   85MOL0     C11392   2.243   3.007   9.418  0.6535 -0.7337 -0.9047
   85MOL0     C11393   2.316   3.125   9.397 -0.1247  1.1606 -0.0227
   85MOL0     C11394   2.692   3.358   9.436  0.4505  0.5528  1.0294
   85MOL0     C11395   2.636   3.477   9.376  0.1194  0.6126 -0.3726
   85MOL0     C11396   2.719   3.579   9.329  0.1382  0.3302 -0.3477
   85MOL0     C11397   2.854   3.561   9.325 -0.3633 -0.1580 -0.6649
   85MOL0     O11398   2.944   3.648   9.291 -0.4729 -0.3064  0.3722
   85MOL0     C11399   2.904   3.778   9.250  0.5427 -0.9689  0.0511
   85MOL0     C11400   3.024   3.872   9.267  0.7640 -0.7149 -0.1634
   85MOL0     C11401   3.079   3.957   9.147  0.2746 -0.1880 -0.3893
   85MOL0     C11402   2.967   4.041   9.079 -0.2073  0.3513 -0.2687
   85MOL0     C11403   2.985   4.044   8.939 -0.3311  0.2161  0.0934
   85MOL0     C11404   3.018   4.050   8.823 -0.9669  0.4036  0.1163
   85MOL0     C11405   2.911   3.443   9.381  0.4187  0.0733  0.4510
   85MOL0     C11406   2.832   3.340   9.437 -0.0083 -0.0682 -0.0944
   85MOL0     C11407   2.901   3.212   9.483 -0.5399  0.2718 -0.1912
   85MOL0     H11408   2.380   3.200   9.711  0.2102  0.0841  0.5294
   85MOL0     H11409   2.217   3.022   9.757  2.3813 -0.5732  0.9117
   85MOL0     H11410   2.036   2.809   9.385 -0.2890  2.4304  0.9018
   85MOL0     H11411   2.162   2.707   9.451 -1.1078 -0.8067 -1.3782
   85MOL0     H11412   2.012   2.596   9.605 -2.2071 -0.5376  0.1561
   85MOL0     H11413   1.928   2.617   9.449  0.5585  2.5332 -2.6359
   85MOL0     H11414   1.829   2.839   9.560 -0.6626 -2.0188 -1.6499
   85MOL0     H11415   1.903   2.779   9.707  3.8230  2.9739 -2.0849
   85MOL0     H11416   1.685   2.641   9.524 -0.5526  1.0226  0.4181
   85MOL0     H11417   1.722   2.594   9.682  0.1573  0.3041 -0.4163
   85MOL0     H11418   1.627   2.827   9.766  3.5280  0.2644  0.2854
   85MOL0     H11419   1.612   2.864   9.594  1.3186 -0.5896 -1.1649
   85MOL0     H11420   1.400   2.784   9.690  0.4625 -0.0403  0.8924
   85MOL0     H11421   1.449   2.686   9.566 -0.3865 -0.1715  1.0085
   85MOL0     H11422   1.496   2.598   9.851  3.0546  0.0088 -0.7588
   85MOL0     H11423   1.534   2.508   9.705 -2.4365 -0.2713 -1.7403
   85MOL0     H11424   1.246   2.575   9.783  1.1397  0.4272  1.9250
   85MOL0     H11425   1.311   2.511   9.623 -0.7881 -1.9368 -0.4686
   85MOL0     H11426   1.105   2.311   9.750  0.3162  1.6518 -2.2507
   85MOL0     H11427   1.055   2.100   9.856  1.2538  0.0502 -2.4953
   85MOL0     H11428   1.184   2.017   9.952  0.7279  1.0989  1.8579
   85MOL0     H11429   1.163   2.179  10.146  0.2046 -3.6332  1.4606
   85MOL0     H11430   1.044   2.267  10.041 -1.2970 -0.4654  0.4349
   85MOL0     H11431   0.934   2.124  10.221 -0.4454 -1.4436  0.3589
   85MOL0     H11432   0.996   1.980  10.139 -3.5432 -1.2129 -1.5913
   85MOL0     H11433   0.860   2.031   9.951  1.5582  1.6063 -0.8388
   85MOL0     H11434   0.831   2.194  10.013 -3.7000 -1.2149 -0.8205
   85MOL0     H11435   0.643   2.098   9.835 -1.1080 -0.3454 -0.5779
   85MOL0     H11436   0.438   2.207   9.791  1.3542 -0.6280 -0.7892
   85MOL0     H11437  -0.101   2.150   9.881 -0.0088 -0.4039  1.4643
   85MOL0     H11438  -0.317   2.275   9.878 -0.7379 -0.6910  0.7784
   85MOL0     H11439  -0.507   2.328  10.036 -2.0375  2.1613 -2.5405
   85MOL0     H11440  -0.447   2.368  10.200  5.1697 -0.6754 -1.1436
   85MOL0     H11441  -0.657   2.468  10.205 -0.4364 -0.0997 -0.0450
   85MOL0     H11442  -0.549   2.597  10.187 -2.1479  0.0095  1.1373
   85MOL0     H11443  -0.712   2.652  10.027 -2.0292 -1.2199  0.5344
   85MOL0     H11444  -0.594   2.566   9.925  2.4613  0.5983  1.4689
   85MOL0     H11445  -0.845   2.447  10.040  0.2067 -2.7793  1.6573
   85MOL0     H11446  -0.723   2.346   9.979 -0.9662 -1.0437  2.7535
   85MOL0     H11447  -0.888   2.560   9.834  2.4068  1.5824  1.3727
   85MOL0     H11448  -0.901   2.385   9.821 -1.7362  0.7117 -1.0293
   85MOL0     H11449  -0.732   2.581   9.674  0.8133 -0.2327  0.2622
   85MOL0     H11450  -0.642   2.440   9.706  0.1389  1.7033  2.3358
   85MOL0     H11451  -0.928   2.426   9.572 -0.6656 -0.0188  0.4185
   85MOL0     H11452  -0.827   2.290   9.612  0.4382  1.2016  1.8475
   85MOL0     H11453  -0.668   2.415   9.438 -1.0182 -1.4875  1.4239
   85MOL0     H11454  -0.823   2.357   9.372 -0.7117 -0.9493  0.6502
   85MOL0     H11455  -0.147   2.539  10.173 -0.3067 -0.5659  1.9937
   85MOL0     H11456   0.059   2.409  10.182 -0.6081 -0.6655  0.0193
   85MOL0     H11457   0.291   2.067  10.176 -0.7810  1.8233  0.1956
   85MOL0     H11458   0.502   1.998  10.236 -0.8504 -1.3163  0.0413
   85MOL0     H11459   2.207   2.957   9.329 -2.2332  0.9649 -0.8062
   85MOL0     H11460   2.340   3.144   9.293  0.2480 -1.7754 -0.5808
   85MOL0     H11461   2.529   3.493   9.374  0.2915  1.9400 -0.1709
   85MOL0     H11462   2.658   3.663   9.298  0.1104  0.6865  0.6299
   85MOL0     H11463   2.812   3.805   9.304 -0.3408 -2.2472 -0.7504
   85MOL0     H11464   2.876   3.781   9.145 -0.6898 -0.1502  0.3803
   85MOL0     H11465   3.106   3.815   9.311  0.4643 -0.4234  0.7955
   85MOL0     H11466   3.006   3.941   9.350 -0.5629 -0.7061 -0.4397
   85MOL0     H11467   3.126   3.887   9.078 -0.0260 -2.3342  1.4494
   85MOL0     H11468   3.153   4.033   9.177 -2.0343  2.9266 -2.0940
   85MOL0     H11469   2.865   3.999   9.084  0.3061 -1.1411 -1.5477
   85MOL0     H11470   2.961   4.140   9.124 -2.9578  0.8469 -1.4781
   85MOL0     H11471   3.036   4.031   8.719 -2.5119 -0.1320 -0.0820
   85MOL0     H11472   3.019   3.437   9.379  0.4260  0.2720  0.2102
   85MOL0     H11473   2.862   3.185   9.582  0.4625  2.6064  0.9232
   85MOL0     H11474   2.896   3.132   9.409 -3.1235  1.3799 -1.3618
   85MOL0     H11475   3.006   3.231   9.506  0.4914 -3.0889 -1.5808
   86MOL0     O11476   3.610   6.402   8.768  0.4044  0.0002 -0.1008
   86MOL0     C11477   3.719   6.438   8.815 -1.1202  0.2515 -0.4512
   86MOL0     O11478   3.764   6.418   8.948 -0.2905 -0.1564  0.1772
   86MOL0     C11479   3.676   6.350   9.028 -0.7829  0.0055  0.1493
   86MOL0     C11480   3.725   6.231   9.071 -0.2860  0.4525 -0.5815
   86MOL0     C11481   3.644   6.158   9.160 -0.9681  0.1955  0.3799
   86MOL0     C11482   3.523   6.206   9.201  0.0512 -0.2588  0.4787
   86MOL0     O11483   3.460   6.117   9.287  0.6114 -0.4244 -0.1882
   86MOL0     C11484   3.343   6.163   9.354  0.1794  0.3924  0.2311
   86MOL0     C11485   3.270   6.040   9.411 -0.1778 -1.0165 -0.2638
   86MOL0     C11486   3.352   5.970   9.523 -0.5103  0.4396  0.1764
   86MOL0     C11487   3.251   5.852   9.570 -0.4002 -0.3975 -0.0699
   86MOL0     C11488   3.292   5.800   9.700 -0.4962 -0.4080 -0.9170
   86MOL0     C11489   3.209   5.686   9.768  0.4544 -1.1295 -0.3986
   86MOL0     C11490   3.271   5.649   9.902 -1.1079  0.3916  0.3438
   86MOL0     C11491   3.196   5.534   9.972 -0.2738 -0.8378 -0.0852
   86MOL0     N11492   3.267   5.501  10.102  0.3183 -0.2490  0.0969
   86MOL0     C11493   3.376   5.423  10.138  0.7016  0.2862  0.5436
   86MOL0     C11494   3.410   5.464  10.258 -0.7436 -0.4240  0.4740
   86MOL0     C11495   3.504   5.397  10.347 -0.6166 -0.9228  1.5213
   86MOL0     C11496   3.627   5.348  10.267 -0.3052 -0.3384 -0.0069
   86MOL0     C11497   3.715   5.456  10.197  0.3851 -0.8212 -0.4761
   86MOL0     C11498   3.850   5.416  10.143 -0.3231 -0.7183 -0.4389
   86MOL0     O11499   3.828   5.291  10.069  0.0264  0.0011 -0.0697
   86MOL0     C11500   3.943   5.243  10.011 -0.1488  0.5937  0.0283
   86MOL0     C11501   4.073   5.268  10.060  0.9199 -0.5246 -0.2290
   86MOL0     C11502   4.175   5.195  10.015 -0.3230  0.3880 -0.5702
   86MOL0     C11503   4.155   5.092   9.910  0.7209 -0.5016 -1.0842
   86MOL0     C11504   4.261   5.007   9.865  0.8555 -0.1633 -0.2355
   86MOL0     O11505   4.376   5.009   9.933  0.0470  0.1233 -0.1035
   86MOL0     C11506   4.487   4.941   9.897  0.3347  0.8084  0.0631
   86MOL0     C11507   4.487   4.809   9.839 -0.1448 -0.4662  0.1763
   86MOL0     C11508   4.609   4.754   9.798  0.1288  0.1687 -0.3982
   86MOL0     C11509   4.728   4.823   9.813  0.1788 -1.2494 -0.9022
   86MOL0     O11510   4.844   4.754   9.795 -0.1088  0.1484  0.2159
   86MOL0     C11511   4.886   4.750   9.666  0.4646  0.2142  0.8563
   86MOL0     C11512   5.011   4.667   9.652 -0.1782  1.1250 -0.0165
   86MOL0     C11513   5.128   4.719   9.729 -0.8785  0.3393 -0.0113
   86MOL0     C11514   5.251   4.652   9.665  0.5783 -1.0885  0.4420
   86MOL0     C11515   5.379   4.675   9.744 -0.7456  1.0933  0.3716
   86MOL0     C11516   5.499   4.625   9.654 -0.6845  0.1774  0.1241
   86MOL0     C11517   5.509   4.484   9.606 -0.3952 -0.4888  0.9370
   86MOL0     C11518   5.643   4.440   9.552  0.4009 -0.0130  0.9356
   86MOL0    Cl11519   5.657   4.469   9.379 -0.4275 -0.1876  0.0921
   86MOL0     C11520   4.725   4.961   9.864 -0.4405  0.4913  0.4462
   86MOL0     C11521   4.601   5.018   9.903  0.5198  0.1086 -1.0565
   86MOL0     O11522   4.241   4.954   9.759 -0.0440  0.4903  0.3255
   86MOL0     C11523   4.019   5.076   9.861  0.0500 -0.8102 -0.4745
   86MOL0     C11524   3.917   5.156   9.901 -0.1447  1.3519  0.5347
   86MOL0     N11525   3.335   5.575  10.301  1.1353 -0.4622 -0.1203
   86MOL0     N11526   3.243   5.582  10.207 -0.6465  0.2609 -0.1268
   86MOL0     C11527   3.484   6.338   9.172  0.4191  0.2568  0.0561
   86MOL0     C11528   3.569   6.418   9.098  0.0841  0.8405  0.5185
   86MOL0     C11529   3.816   6.512   8.726 -0.5047  0.9376  0.0581
   86MOL0     C11530   3.929   6.573   8.778 -0.4623 -0.2196 -0.1407
   86MOL0     C11531   4.007   6.658   8.702  0.7874  1.2166  1.0188
   86MOL0     C11532   3.989   6.674   8.562  0.2957 -0.1359 -0.1016
   86MOL0     O11533   4.066   6.748   8.470 -0.1867  0.7123  0.3996
   86MOL0     C11534   4.124   6.860   8.528 -0.1894 -0.5767  0.4216
   86MOL0     C11535   4.117   6.992   8.449 -0.8961 -0.5151 -0.4920
   86MOL0     C11536   3.980   7.023   8.406 -0.1872  0.4315 -0.6265
   86MOL0     C11537   3.934   7.166   8.423  0.4743  0.4451 -0.8584
   86MOL0     C11538   4.045   7.250   8.383  0.5091  0.0158 -0.6319
   86MOL0     C11539   4.132   7.321   8.344 -0.3522 -0.8631 -0.4168
   86MOL0     C11540   3.884   6.601   8.509  1.1945  0.7758 -0.6520
   86MOL0     C11541   3.799   6.516   8.583 -0.1373 -0.2649 -0.1890
   86MOL0     C11542   3.699   6.442   8.505 -0.4424 -0.0427  1.4198
   86MOL0     H11543   3.808   6.179   9.024 -0.7407  0.5184 -1.4780
   86MOL0     H11544   3.675   6.054   9.168 -1.3521 -0.0073 -0.5910
   86MOL0     H11545   3.366   6.222   9.443 -2.5216  1.4769  0.3048
   86MOL0     H11546   3.279   6.236   9.303 -0.1974 -0.1283 -0.0489
   86MOL0     H11547   3.234   5.981   9.326 -0.4481  0.1071 -0.9483
   86MOL0     H11548   3.180   6.076   9.462 -1.4249 -4.0520 -0.0945
   86MOL0     H11549   3.373   6.041   9.604 -1.3685  0.4233  0.4204
   86MOL0     H11550   3.444   5.922   9.489 -1.0785 -0.8245  0.3552
   86MOL0     H11551   3.146   5.882   9.576 -0.6642 -0.8052 -1.8871
   86MOL0     H11552   3.259   5.770   9.498 -0.9766  0.0665 -0.6772
   86MOL0     H11553   3.395   5.764   9.695 -0.1943  0.4454 -0.9817
   86MOL0     H11554   3.292   5.891   9.760 -0.5500  2.4638 -4.8516
   86MOL0     H11555   3.107   5.723   9.772 -0.0968 -2.6312  0.5455
   86MOL0     H11556   3.199   5.604   9.696 -0.9533  0.4163 -2.0290
   86MOL0     H11557   3.265   5.736   9.967  1.5820 -0.4613  1.9028
   86MOL0     H11558   3.375   5.616   9.892 -2.4967 -5.0468  0.5535
   86MOL0     H11559   3.093   5.567   9.987 -0.3389 -1.0626 -0.0359
   86MOL0     H11560   3.209   5.443   9.912  0.5122  1.1997 -3.2043
   86MOL0     H11561   3.401   5.335  10.079  0.2525  0.6418 -0.1963
   86MOL0     H11562   3.539   5.469  10.422  1.1394 -0.0809 -0.0332
   86MOL0     H11563   3.451   5.312  10.391 -0.2691 -1.3759  1.0643
   86MOL0     H11564   3.695   5.299  10.338 -0.3275  0.2160  0.4005
   86MOL0     H11565   3.593   5.282  10.186  2.5892  0.1284 -1.7381
   86MOL0     H11566   3.737   5.527  10.278 -2.4696 -0.7915  0.4004
   86MOL0     H11567   3.660   5.523  10.130 -1.6064 -1.0585  0.8088
   86MOL0     H11568   3.911   5.400  10.232 -0.8732  0.5680  0.2044
   86MOL0     H11569   3.904   5.489  10.083  1.8403 -0.0665  2.1122
   86MOL0     H11570   4.094   5.331  10.146 -1.5485 -2.0298  1.6210
   86MOL0     H11571   4.271   5.211  10.063 -0.6195 -2.4591  1.1662
   86MOL0     H11572   4.391   4.759   9.833 -2.3039  3.4246 -0.9393
   86MOL0     H11573   4.608   4.653   9.758 -1.3536  0.0850 -0.2219
   86MOL0     H11574   4.811   4.706   9.600  0.6775 -0.1631  0.8604
   86MOL0     H11575   4.908   4.847   9.620 -0.7832 -0.9273 -2.4425
   86MOL0     H11576   4.990   4.562   9.673  2.8929  0.2318 -0.8151
   86MOL0     H11577   5.033   4.655   9.546 -2.0542 -0.8379 -0.2523
   86MOL0     H11578   5.134   4.828   9.732 -1.0244  0.3255  1.1924
   86MOL0     H11579   5.136   4.684   9.832  1.7680  2.2537  0.5615
   86MOL0     H11580   5.262   4.698   9.566 -2.5647 -1.9899 -0.4612
   86MOL0     H11581   5.227   4.545   9.656 -4.3167 -0.1903 -0.4123
   86MOL0     H11582   5.377   4.614   9.835  0.8824  2.5457  1.4374
   86MOL0     H11583   5.389   4.779   9.774  0.7823  0.5294  2.0029
   86MOL0     H11584   5.504   4.688   9.564 -0.0309  1.5924  1.1019
   86MOL0     H11585   5.593   4.646   9.705 -0.9607  1.0446  0.3055
   86MOL0     H11586   5.431   4.454   9.535  0.7512  0.5450 -0.8175
   86MOL0     H11587   5.497   4.430   9.701  2.1540 -3.0803 -0.0822
   86MOL0     H11588   5.719   4.499   9.605 -0.0567  1.7939 -0.3100
   86MOL0     H11589   5.662   4.337   9.582 -0.5751 -0.3544  0.4336
   86MOL0     H11590   4.818   5.011   9.888 -0.1890 -0.2187  1.0008
   86MOL0     H11591   4.579   5.119   9.936  2.1904  0.1595  0.0088
   86MOL0     H11592   3.999   5.009   9.777 -1.0833  0.1755 -1.0259
   86MOL0     H11593   3.813   5.135   9.877  0.5856 -0.3118 -1.4259
   86MOL0     H11594   3.395   6.379   9.220 -1.7666 -1.0601 -2.5393
   86MOL0     H11595   3.540   6.520   9.075  0.0824  0.8126  0.3944
   86MOL0     H11596   3.959   6.564   8.882 -1.9989  1.5845  0.5168
   86MOL0     H11597   4.087   6.712   8.751  2.7879 -0.5079 -0.2113
   86MOL0     H11598   4.230   6.832   8.525  0.0972  0.5587 -1.8609
   86MOL0     H11599   4.086   6.881   8.629 -0.2793 -1.4738  0.5836
   86MOL0     H11600   4.182   6.993   8.361 -1.1037  0.6278 -0.6472
   86MOL0     H11601   4.151   7.073   8.515  1.3900 -0.0694 -2.0831
   86MOL0     H11602   3.908   6.954   8.451 -0.6097  0.1662 -1.6679
   86MOL0     H11603   3.973   6.999   8.299  2.6829 -0.8745 -0.6089
   86MOL0     H11604   3.844   7.187   8.364  0.8923  2.2002 -0.9130
   86MOL0     H11605   3.911   7.175   8.529  5.1109  1.5734  0.2600
   86MOL0     H11606   4.206   7.382   8.296 -2.6934  0.1415 -3.0713
   86MOL0     H11607   3.877   6.599   8.401 -4.4461  0.9499 -0.5592
   86MOL0     H11608   3.716   6.456   8.398  1.2817 -1.6182  1.4228
   86MOL0     H11609   3.716   6.336   8.529  1.3646  0.1252  0.9959
   86MOL0     H11610   3.601   6.478   8.536 -0.2819 -1.5700  3.9960
   87MOL0     O11611   6.638   0.294   9.135  0.3062  0.1574 -0.3087
   87MOL0     C11612   6.538   0.347   9.183 -0.2317 -0.1649 -0.6957
   87MOL0     O11613   6.529   0.383   9.311  0.2613 -0.4384 -0.3279
   87MOL0     C11614   6.647   0.398   9.385 -0.5801 -1.0098  0.1185
   87MOL0     C11615   6.750   0.498   9.362 -0.4151  0.6026 -0.2985
   87MOL0     C11616   6.861   0.498   9.444 -0.2012  0.3078  0.1503
   87MOL0     C11617   6.891   0.391   9.525 -0.7001 -0.0117  0.2772
   87MOL0     O11618   7.016   0.399   9.577 -0.9684  0.3255 -0.2824
   87MOL0     C11619   7.084   0.280   9.620 -0.2674  0.0892 -1.8099
   87MOL0     C11620   7.239   0.286   9.613  0.0843 -0.6126 -1.1533
   87MOL0     C11621   7.281   0.314   9.471 -0.9062  0.1236  0.0623
   87MOL0     C11622   7.437   0.344   9.439  1.3403  1.0271 -0.9820
   87MOL0     C11623   7.524   0.216   9.455 -0.7636 -0.0104  0.2235
   87MOL0     C11624   7.679   0.236   9.440 -0.1989 -0.1049 -0.2646
   87MOL0     C11625   7.772   0.110   9.447  1.0952  0.1111  0.2923
   87MOL0     C11626   7.915   0.158   9.444 -0.7414  0.4971 -0.2700
   87MOL0     N11627   8.013   0.049   9.446  0.3269 -0.0065 -0.5130
   87MOL0     C11628   8.037  -0.038   9.546  0.0077 -0.2399 -0.4281
   87MOL0     C11629   8.132  -0.121   9.507  0.9229 -0.1791 -0.3404
   87MOL0     C11630   8.178  -0.243   9.586 -0.5302  0.1016 -0.4274
   87MOL0     C11631   8.105  -0.379   9.565 -0.9425 -0.2318 -0.5758
   87MOL0     C11632   8.064  -0.440   9.702 -0.5515  0.3109 -0.1601
   87MOL0     C11633   8.187  -0.487   9.782 -0.8179 -0.5596  0.3162
   87MOL0     O11634   8.253  -0.388   9.866 -0.5065  0.2714  0.0710
   87MOL0     C11635   8.376  -0.407   9.920  0.7070 -0.3077 -0.4957
   87MOL0     C11636   8.452  -0.292   9.950 -0.1892  0.4540  0.6174
   87MOL0     C11637   8.579  -0.299   9.998  0.4486  0.4137  0.1535
   87MOL0     C11638   8.632  -0.427  10.022  0.2162 -0.1987  0.2540
   87MOL0     C11639   8.781  -0.439  10.067  0.1962 -0.1622 -0.3032
   87MOL0     O11640   8.852  -0.333  10.033  0.7335 -0.8206 -0.3630
   87MOL0     C11641   8.976  -0.301  10.084 -0.6799  0.2834 -0.0808
   87MOL0     C11642   9.036  -0.182  10.040  1.1689  0.2779  0.2104
   87MOL0     C11643   9.166  -0.149  10.076  0.3650  0.0783 -0.3585
   87MOL0     C11644   9.240  -0.229  10.167  1.0399  0.3787 -0.2947
   87MOL0     O11645   9.368  -0.208  10.198 -0.7871  1.1963 -0.2773
   87MOL0     C11646   9.427  -0.078  10.191  0.2688  0.2882 -0.4881
   87MOL0     C11647   9.546  -0.083  10.285 -0.8265  0.4406 -0.1889
   87MOL0     C11648   9.665   0.014  10.261  0.0205  0.5923 -0.5533
   87MOL0     C11649   9.781   0.015  10.366 -0.6142  0.1799 -0.3916
   87MOL0     C11650   9.893   0.097  10.311 -0.6335 -0.8357 -0.4716
   87MOL0     C11651   9.858   0.247  10.317 -0.3276 -0.2804  0.5002
   87MOL0     C11652   9.962   0.345  10.254  0.6062  0.4273  0.1412
   87MOL0     C11653  10.083   0.337  10.337 -0.7888  0.4390  0.0133
   87MOL0    Cl11654  10.065   0.383  10.499 -0.2944 -0.0123  0.2582
   87MOL0     C11655   9.169  -0.342  10.233  0.4565 -0.4061 -0.3075
   87MOL0     C11656   9.041  -0.369  10.191 -0.2235 -0.1386  0.1667
   87MOL0     O11657   8.832  -0.543  10.100  0.5545  0.5925 -0.4183
   87MOL0     C11658   8.555  -0.540  10.005 -0.1714 -0.2423 -0.6739
   87MOL0     C11659   8.424  -0.533   9.960 -0.8245 -0.4587  0.1495
   87MOL0     N11660   8.165  -0.085   9.375  0.2950 -0.3838  0.1586
   87MOL0     N11661   8.095   0.019   9.342 -0.6892 -0.3277  0.0214
   87MOL0     C11662   6.800   0.290   9.553 -0.1852 -0.1186 -0.1988
   87MOL0     C11663   6.673   0.302   9.485  0.0883 -0.3935 -1.4133
   87MOL0     C11664   6.415   0.371   9.092 -0.6572  0.4630 -0.4657
   87MOL0     C11665   6.300   0.422   9.147 -0.3866 -0.3456 -0.0816
   87MOL0     C11666   6.179   0.436   9.068 -1.0940  0.1994 -0.9447
   87MOL0     C11667   6.173   0.386   8.946 -0.1385  0.5969 -0.8869
   87MOL0     O11668   6.056   0.386   8.877 -0.5192 -0.1134  0.3792
   87MOL0     C11669   5.984   0.507   8.870  0.1006 -0.2212  0.0764
   87MOL0     C11670   5.848   0.519   8.942  0.1109 -0.3836  0.4270
   87MOL0     C11671   5.755   0.408   8.896 -0.7595  0.1934  0.6555
   87MOL0     C11672   5.632   0.391   8.981  0.1310 -0.8435 -0.4932
   87MOL0     C11673   5.549   0.509   8.985 -0.0244  0.0865  0.9327
   87MOL0     C11674   5.477   0.605   8.999  0.2710  0.0822 -0.1202
   87MOL0     C11675   6.286   0.315   8.899 -0.3505  0.4432  0.1867
   87MOL0     C11676   6.411   0.320   8.961 -0.2997  0.2198  0.3518
   87MOL0     C11677   6.521   0.246   8.891 -0.2687 -0.3329 -0.9068
   87MOL0     H11678   6.721   0.565   9.282 -0.5024 -2.1749 -2.7283
   87MOL0     H11679   6.930   0.579   9.426  0.3200  1.2393  4.9551
   87MOL0     H11680   7.055   0.258   9.723 -0.1195  0.9786 -1.5717
   87MOL0     H11681   7.056   0.189   9.566  0.5062 -2.2637  1.4880
   87MOL0     H11682   7.289   0.197   9.653  1.6317  1.8678  3.1079
   87MOL0     H11683   7.257   0.375   9.673 -0.1395 -2.3763  1.7207
   87MOL0     H11684   7.226   0.401   9.435 -2.5509  0.2737  2.6699
   87MOL0     H11685   7.255   0.226   9.411  0.2880 -0.0953 -0.1652
   87MOL0     H11686   7.453   0.376   9.336 -0.4245  0.7355 -1.3698
   87MOL0     H11687   7.477   0.415   9.512  2.7588  0.2818 -0.9999
   87MOL0     H11688   7.503   0.167   9.551  3.6047 -0.4794  1.1213
   87MOL0     H11689   7.489   0.153   9.372  0.2501  3.0225 -2.7115
   87MOL0     H11690   7.693   0.294   9.349 -3.4390 -1.7352 -1.9793
   87MOL0     H11691   7.701   0.303   9.524 -0.3092  2.1339 -1.9385
   87MOL0     H11692   7.759   0.048   9.359  1.3959  1.1538 -0.5108
   87MOL0     H11693   7.756   0.065   9.546 -0.3926  2.3247  1.1529
   87MOL0     H11694   7.935   0.231   9.364 -1.0515  1.9772  0.9650
   87MOL0     H11695   7.936   0.209   9.538  0.0303  1.7634 -1.1092
   87MOL0     H11696   7.985  -0.046   9.640  0.4454  0.0274 -0.1596
   87MOL0     H11697   8.285  -0.255   9.568 -0.3643  0.0225  0.5578
   87MOL0     H11698   8.172  -0.213   9.691 -2.1553 -1.3150 -0.0781
   87MOL0     H11699   8.021  -0.362   9.497 -2.0679 -0.2339  0.7758
   87MOL0     H11700   8.184  -0.446   9.529  1.0672  1.1213  1.1124
   87MOL0     H11701   7.997  -0.521   9.671 -0.3422  0.1494 -0.1956
   87MOL0     H11702   8.001  -0.370   9.756 -0.4502 -0.8919  1.6244
   87MOL0     H11703   8.264  -0.517   9.709 -0.3304 -1.0518  1.0207
   87MOL0     H11704   8.157  -0.570   9.847 -2.5098  0.6139  1.1066
   87MOL0     H11705   8.406  -0.194   9.933 -0.6708  0.4738  1.9500
   87MOL0     H11706   8.642  -0.211  10.004  1.7496 -0.3460 -1.5739
   87MOL0     H11707   8.990  -0.122   9.962  1.6835  3.2455  2.0320
   87MOL0     H11708   9.212  -0.061  10.030  0.9940 -0.4148 -0.7024
   87MOL0     H11709   9.460  -0.060  10.088 -3.9976 -0.7267 -2.2891
   87MOL0     H11710   9.360  -0.002  10.231  0.3768  0.6698 -1.0227
   87MOL0     H11711   9.508  -0.082  10.387 -2.0414 -2.5243 -0.5324
   87MOL0     H11712   9.592  -0.182  10.279  1.3187  1.4340 -2.0952
   87MOL0     H11713   9.709  -0.007  10.164  4.3848  0.6655  1.1815
   87MOL0     H11714   9.627   0.117  10.254  1.4055  1.0959 -0.9490
   87MOL0     H11715   9.803  -0.089  10.393 -2.2991  0.7658  4.0899
   87MOL0     H11716   9.746   0.054  10.462 -2.5359 -0.4187 -0.7951
   87MOL0     H11717   9.905   0.062  10.208 -2.6551 -1.2692 -0.6052
   87MOL0     H11718   9.977   0.066  10.374 -1.4152  0.1563  1.1224
   87MOL0     H11719   9.768   0.257  10.255  0.3497 -0.1014 -0.4807
   87MOL0     H11720   9.830   0.275  10.419 -0.4847 -0.8768  0.6246
   87MOL0     H11721   9.916   0.444  10.244 -1.6533 -0.5707  0.0184
   87MOL0     H11722   9.975   0.304  10.154 -0.8302 -2.9396  1.1641
   87MOL0     H11723  10.112   0.232  10.331 -3.3241 -0.3422  0.2740
   87MOL0     H11724  10.160   0.398  10.287 -2.6762  0.4005 -3.2252
   87MOL0     H11725   9.213  -0.415  10.300  0.6774  0.9532  1.1009
   87MOL0     H11726   8.979  -0.445  10.239  0.0370  0.3620  1.3395
   87MOL0     H11727   8.590  -0.641  10.026  1.1846  0.7055  2.1939
   87MOL0     H11728   8.364  -0.622   9.941 -1.2493  0.0029 -0.7577
   87MOL0     H11729   6.813   0.209   9.624  2.2451  0.9391  0.6643
   87MOL0     H11730   6.595   0.231   9.512 -0.0908  0.2955 -0.0284
   87MOL0     H11731   6.305   0.462   9.248  1.8099 -0.2718 -0.1590
   87MOL0     H11732   6.101   0.498   9.111 -1.6579 -2.2160  1.8007
   87MOL0     H11733   5.983   0.532   8.764 -2.7869 -1.3778 -0.2498
   87MOL0     H11734   6.040   0.580   8.930 -2.2078 -1.0329  3.4909
   87MOL0     H11735   5.806   0.616   8.916  0.7056  0.6236  2.9809
   87MOL0     H11736   5.858   0.513   9.050  0.1104 -3.6848  0.3430
   87MOL0     H11737   5.808   0.313   8.888 -1.8564 -0.2790 -2.6902
   87MOL0     H11738   5.724   0.425   8.792  0.6375  0.6980  0.2962
   87MOL0     H11739   5.575   0.306   8.943 -2.9588 -0.0882  2.0490
   87MOL0     H11740   5.660   0.351   9.079 -0.7297 -1.5298 -0.5125
   87MOL0     H11741   5.409   0.686   9.012  2.9148  2.1533  2.3183
   87MOL0     H11742   6.283   0.261   8.804  3.3837 -3.2578  1.8506
   87MOL0     H11743   6.559   0.165   8.953  0.7015  0.2792 -0.6796
   87MOL0     H11744   6.486   0.205   8.795 -1.1273  0.2552 -0.8584
   87MOL0     H11745   6.599   0.321   8.877 -3.0678  3.3311  1.3056
   88MOL0     O11746   5.470   0.138   6.255 -0.0552  0.6067 -0.6472
   88MOL0     C11747   5.562   0.221   6.247  0.1730  0.2845  0.2564
   88MOL0     O11748   5.550   0.350   6.284  0.1167 -0.2309 -0.1208
   88MOL0     C11749   5.413   0.396   6.299 -0.2400  0.1654 -0.4041
   88MOL0     C11750   5.366   0.448   6.419 -0.5000  0.4713 -0.2110
   88MOL0     C11751   5.238   0.502   6.432 -0.5569 -0.3753 -0.6470
   88MOL0     C11752   5.148   0.502   6.332 -0.3676  0.4604 -0.6304
   88MOL0     O11753   5.031   0.567   6.363  0.1022 -0.4525  0.0797
   88MOL0     C11754   4.924   0.556   6.273  1.0357 -0.1290  0.1904
   88MOL0     C11755   4.935   0.664   6.166 -0.1336  1.1256  0.2686
   88MOL0     C11756   4.802   0.720   6.127  0.1107  0.0854 -0.2167
   88MOL0     C11757   4.771   0.859   6.185 -0.7766 -0.0057  0.3682
   88MOL0     C11758   4.633   0.907   6.130  0.6187  0.9235  1.0437
   88MOL0     C11759   4.510   0.817   6.155 -0.8252 -0.6229 -0.1952
   88MOL0     C11760   4.377   0.882   6.113 -0.5900 -0.4703 -0.3000
   88MOL0     C11761   4.251   0.817   6.178  0.5013  0.2996  0.7499
   88MOL0     N11762   4.236   0.829   6.325  0.2694 -0.5256  0.4981
   88MOL0     C11763   4.117   0.858   6.381 -0.3790 -0.2682 -0.2945
   88MOL0     C11764   4.134   0.928   6.493 -0.1283 -0.0981 -0.1647
   88MOL0     C11765   4.025   0.993   6.575 -0.5834  0.5949 -0.6815
   88MOL0     C11766   3.919   1.080   6.494  0.2323 -0.4725  0.5075
   88MOL0     C11767   3.996   1.195   6.423 -0.0402 -0.3471  0.1218
   88MOL0     C11768   3.915   1.224   6.290 -0.4733 -0.7545 -1.1213
   88MOL0     O11769   3.997   1.315   6.204  0.5026 -1.1070  0.2036
   88MOL0     C11770   3.939   1.365   6.090  0.7203  0.0115 -0.5669
   88MOL0     C11771   3.803   1.352   6.061  1.0194  1.0368  0.2758
   88MOL0     C11772   3.756   1.392   5.937 -0.6625  0.0008  0.1916
   88MOL0     C11773   3.844   1.444   5.840  0.7348 -0.6023  0.4654
   88MOL0     C11774   3.795   1.508   5.713 -0.4757 -0.5092  0.1963
   88MOL0     O11775   3.884   1.571   5.633 -0.6566 -0.0957  0.3784
   88MOL0     C11776   3.830   1.609   5.513 -0.3022 -0.9101 -0.4192
   88MOL0     C11777   3.734   1.711   5.516  0.5728 -1.3364  0.5145
   88MOL0     C11778   3.683   1.755   5.390 -0.0884 -0.2373 -0.7045
   88MOL0     C11779   3.723   1.701   5.274  0.1125 -0.0632  0.0104
   88MOL0     O11780   3.686   1.741   5.142 -0.5288  0.9641  0.3605
   88MOL0     C11781   3.628   1.868   5.116  0.3287  0.7832  0.0862
   88MOL0     C11782   3.545   1.864   4.989 -0.7161 -0.4309  0.6897
   88MOL0     C11783   3.456   1.992   4.982 -0.0561  0.6414  0.1866
   88MOL0     C11784   3.393   2.028   4.841  0.7122  0.5665 -0.2315
   88MOL0     C11785   3.328   1.913   4.769  0.2210  0.2874 -0.9278
   88MOL0     C11786   3.298   1.950   4.621  0.1669 -0.3452  0.3689
   88MOL0     C11787   3.425   1.957   4.547  0.7411 -0.1633 -0.1325
   88MOL0     C11788   3.416   1.912   4.399 -0.2991  0.9165 -0.4372
   88MOL0    Cl11789   3.261   1.971   4.322  0.0946 -0.1995 -0.0519
   88MOL0     C11790   3.801   1.589   5.270 -0.7270 -0.5855 -1.0193
   88MOL0     C11791   3.865   1.548   5.392 -0.1221 -0.6359 -0.8304
   88MOL0     O11792   3.672   1.494   5.691  0.4317 -0.7730 -0.6173
   88MOL0     C11793   3.980   1.459   5.875  0.2791  0.8265  0.2059
   88MOL0     C11794   4.023   1.413   5.993 -0.0376  0.4252  0.0724
   88MOL0     N11795   4.273   0.946   6.507 -0.6745  0.0806 -0.0057
   88MOL0     N11796   4.335   0.881   6.415 -0.5335  0.3071  0.6004
   88MOL0     C11797   5.198   0.456   6.211  0.1431 -0.4585 -0.5319
   88MOL0     C11798   5.328   0.398   6.188  0.3283  0.1865 -0.6292
   88MOL0     C11799   5.690   0.166   6.180  0.1699 -0.1724 -0.2048
   88MOL0     C11800   5.692   0.036   6.119 -0.9768 -0.1796 -0.2955
   88MOL0     C11801   5.807  -0.011   6.045  0.1782  0.1725 -0.4658
   88MOL0     C11802   5.911   0.074   6.029  0.6869  0.4353 -0.1481
   88MOL0     O11803   6.013   0.013   5.968 -0.4697 -0.2003  0.1545
   88MOL0     C11804   6.122   0.090   5.917 -0.3837  0.2529 -0.4894
   88MOL0     C11805   6.231   0.110   6.029  0.7471  0.2461  0.0375
   88MOL0     C11806   6.343   0.200   5.984 -0.4643  0.2626 -0.4444
   88MOL0     C11807   6.449   0.240   6.100  0.3706  0.7200  0.6992
   88MOL0     C11808   6.547   0.136   6.127  0.4201  0.6170  0.6251
   88MOL0     C11809   6.635   0.056   6.153  0.2380 -0.1715  0.3364
   88MOL0     C11810   5.913   0.193   6.095  0.0685  0.6952 -0.2583
   88MOL0     C11811   5.809   0.243   6.167  0.4635  0.5458 -0.3258
   88MOL0     C11812   5.816   0.392   6.196 -0.9842 -0.3708 -0.2681
   88MOL0     H11813   5.425   0.454   6.509 -1.6965 -2.0366  0.8472
   88MOL0     H11814   5.221   0.548   6.528  2.7815 -1.1937  0.4792
   88MOL0     H11815   4.932   0.453   6.239 -1.4596 -0.8078  1.4027
   88MOL0     H11816   4.829   0.564   6.327  2.3182  0.7283  2.4924
   88MOL0     H11817   4.979   0.626   6.073  0.4398 -2.0683  1.7060
   88MOL0     H11818   5.006   0.734   6.211  0.0255 -0.1742  2.1784
   88MOL0     H11819   4.720   0.652   6.152 -0.4198 -0.3702 -2.9363
   88MOL0     H11820   4.807   0.727   6.018 -2.8518 -1.6018 -0.5461
   88MOL0     H11821   4.764   0.865   6.294 -1.5056  1.2243  0.2630
   88MOL0     H11822   4.839   0.932   6.142  1.3636 -1.6633  0.7416
   88MOL0     H11823   4.615   1.004   6.179 -0.1370 -0.5694  3.9459
   88MOL0     H11824   4.634   0.922   6.022 -0.1131  3.6732  1.3462
   88MOL0     H11825   4.518   0.733   6.086 -1.7397 -1.1550  0.3341
   88MOL0     H11826   4.500   0.783   6.259  3.3821  4.7157  2.4978
   88MOL0     H11827   4.371   0.881   6.004 -1.0278  1.4548 -0.3397
   88MOL0     H11828   4.388   0.987   6.145  0.7696  0.2633 -2.9060
   88MOL0     H11829   4.171   0.869   6.124  0.0750 -0.4486  0.6448
   88MOL0     H11830   4.250   0.711   6.152 -0.4394  0.6779 -0.8926
   88MOL0     H11831   4.021   0.835   6.335 -1.5342  1.4626  1.0853
   88MOL0     H11832   3.967   0.914   6.624  0.0193  0.7893  0.3808
   88MOL0     H11833   4.071   1.052   6.655 -3.2762 -0.2658  1.6604
   88MOL0     H11834   3.862   1.013   6.428  0.1277 -0.0444  0.1545
   88MOL0     H11835   3.852   1.113   6.573  0.0098  0.0171  0.1192
   88MOL0     H11836   4.092   1.162   6.383 -0.4999 -0.8412 -0.6104
   88MOL0     H11837   4.008   1.281   6.489  3.5279 -1.6675  1.3937
   88MOL0     H11838   3.826   1.283   6.313  0.1381  1.0059 -3.0083
   88MOL0     H11839   3.893   1.134   6.231  1.1913 -2.1546  0.2727
   88MOL0     H11840   3.739   1.305   6.135  1.7793 -1.1162 -0.3500
   88MOL0     H11841   3.650   1.381   5.915 -1.4761  1.3762  3.0858
   88MOL0     H11842   3.705   1.753   5.612  0.8250 -0.0955  0.0546
   88MOL0     H11843   3.615   1.840   5.387 -2.5205 -1.9964  0.9482
   88MOL0     H11844   3.581   1.922   5.198 -1.0476 -0.6252  0.2662
   88MOL0     H11845   3.710   1.934   5.086  1.3462  0.1042  1.2619
   88MOL0     H11846   3.601   1.863   4.895  0.6549  1.0127  1.4535
   88MOL0     H11847   3.473   1.781   4.993 -0.0226 -1.1240 -0.4666
   88MOL0     H11848   3.375   1.987   5.054 -0.1818 -2.0782 -0.0669
   88MOL0     H11849   3.519   2.075   5.017  1.5901 -1.4987  2.6551
   88MOL0     H11850   3.471   2.071   4.777 -0.3000  3.0133  0.0545
   88MOL0     H11851   3.314   2.104   4.848  1.2208  1.3903 -2.4176
   88MOL0     H11852   3.233   1.882   4.812 -0.5564  1.9726 -1.3439
   88MOL0     H11853   3.393   1.826   4.778  1.9174  1.7364  3.9190
   88MOL0     H11854   3.234   1.876   4.571  1.9582 -0.2297 -2.3301
   88MOL0     H11855   3.245   2.045   4.610  0.6417 -0.0893  0.2772
   88MOL0     H11856   3.488   1.893   4.610 -0.2773 -2.0997 -1.0057
   88MOL0     H11857   3.476   2.054   4.550  1.2833 -0.4465  0.1418
   88MOL0     H11858   3.503   1.941   4.340 -0.3917 -0.0537 -1.0630
   88MOL0     H11859   3.417   1.803   4.396 -2.6711  0.8716 -1.3288
   88MOL0     H11860   3.835   1.543   5.177  1.6672 -0.0610 -0.4837
   88MOL0     H11861   3.933   1.463   5.383  1.3991  0.5497 -0.8741
   88MOL0     H11862   4.063   1.492   5.813  0.7283 -0.6748 -0.0315
   88MOL0     H11863   4.127   1.416   6.024 -0.2167  0.6563  0.6543
   88MOL0     H11864   5.132   0.444   6.126 -1.1409 -2.9602  0.7141
   88MOL0     H11865   5.358   0.369   6.088  2.1882  1.6844 -0.5698
   88MOL0     H11866   5.601  -0.022   6.127 -0.1065 -1.4740  0.5452
   88MOL0     H11867   5.792  -0.106   5.994 -1.3110 -0.7278  1.5308
   88MOL0     H11868   6.096   0.187   5.872 -3.2216 -0.1055  0.1966
   88MOL0     H11869   6.170   0.035   5.836 -1.3262 -2.4768  0.7061
   88MOL0     H11870   6.260   0.009   6.058  2.1706  0.3005 -1.0613
   88MOL0     H11871   6.180   0.151   6.117 -1.9377 -2.5736 -0.0458
   88MOL0     H11872   6.303   0.295   5.948  0.0697 -0.2267 -2.4618
   88MOL0     H11873   6.388   0.156   5.894 -2.4298  0.4802 -1.5906
   88MOL0     H11874   6.510   0.326   6.071  0.5806  0.1368 -0.6516
   88MOL0     H11875   6.387   0.265   6.187 -3.1512 -3.1175 -0.4021
   88MOL0     H11876   6.715  -0.008   6.182  1.4424  0.8271 -0.6483
   88MOL0     H11877   6.006   0.249   6.095  0.4262  0.1177  0.4675
   88MOL0     H11878   5.923   0.417   6.188 -0.4746 -2.6302 -1.3209
   88MOL0     H11879   5.755   0.449   6.124  1.2385  1.5811 -0.7409
   88MOL0     H11880   5.783   0.419   6.296 -1.4061  0.5240 -0.6344
   89MOL0     O11881   3.437   1.624  10.933  0.4663  0.0564  0.0959
   89MOL0     C11882   3.406   1.578  10.820  0.2125 -0.0276 -0.3317
   89MOL0     O11883   3.481   1.485  10.747 -0.8078 -0.0438 -0.0845
   89MOL0     C11884   3.609   1.456  10.777 -0.2661 -0.7613 -0.8165
   89MOL0     C11885   3.702   1.541  10.844  0.2403 -0.4288 -0.7763
   89MOL0     C11886   3.830   1.499  10.883  0.1491  0.1056 -0.2892
   89MOL0     C11887   3.873   1.370  10.846  0.0496  0.2879 -0.3942
   89MOL0     O11888   3.995   1.318  10.883 -0.0265  0.4534 -0.1179
   89MOL0     C11889   4.031   1.323  11.017 -0.4245 -0.8361 -0.4386
   89MOL0     C11890   4.167   1.272  11.047 -0.6060  0.4073 -0.1026
   89MOL0     C11891   4.280   1.335  10.968 -0.0177 -0.8030  1.2384
   89MOL0     C11892   4.414   1.309  11.030 -0.5738 -1.3942 -0.2563
   89MOL0     C11893   4.525   1.396  10.963  0.0188  0.3311 -0.2361
   89MOL0     C11894   4.660   1.344  11.020  0.3179  0.5375 -0.4250
   89MOL0     C11895   4.772   1.438  10.969 -0.0204 -0.5068  0.1872
   89MOL0     C11896   4.907   1.360  10.987 -0.5018  0.1047  0.0169
   89MOL0     N11897   5.023   1.451  11.032  0.2584  0.9088  0.7483
   89MOL0     C11898   5.062   1.484  11.155 -0.2704 -0.0546  0.0745
   89MOL0     C11899   5.158   1.576  11.143  0.9017  0.1706 -0.2114
   89MOL0     C11900   5.233   1.627  11.262 -0.4459 -0.3563  0.2111
   89MOL0     C11901   5.391   1.621  11.253 -0.2083  1.1933  0.2844
   89MOL0     C11902   5.452   1.479  11.258 -0.7563 -0.8797  0.7895
   89MOL0     C11903   5.464   1.421  11.395 -0.1236  0.4219 -0.6211
   89MOL0     O11904   5.449   1.279  11.385  0.4929  0.1265  0.6020
   89MOL0     C11905   5.327   1.222  11.356  0.5746  0.3553 -0.3635
   89MOL0     C11906   5.331   1.112  11.259  0.0330 -1.1614  0.3972
   89MOL0     C11907   5.209   1.052  11.218  0.6682 -0.1906 -1.0980
   89MOL0     C11908   5.084   1.093  11.267 -0.8388  0.1063  0.4132
   89MOL0     C11909   4.957   1.044  11.211 -0.0699 -0.3172  0.0655
   89MOL0     O11910   4.972   0.978  11.089 -0.2228  0.2309  0.7807
   89MOL0     C11911   4.870   0.923  11.018 -0.3174  0.3820  0.1116
   89MOL0     C11912   4.781   0.841  11.087 -0.4369  0.0223  0.3329
   89MOL0     C11913   4.696   0.757  11.019  1.1945 -1.1111  0.2872
   89MOL0     C11914   4.705   0.748  10.882 -0.0537  0.5280  0.4011
   89MOL0     O11915   4.637   0.652  10.799  0.0520 -0.0177 -0.3300
   89MOL0     C11916   4.504   0.626  10.841  0.7859  0.1907  0.0566
   89MOL0     C11917   4.450   0.525  10.733 -0.5819 -0.3863 -0.4326
   89MOL0     C11918   4.308   0.505  10.756  0.0754  0.4569  0.6358
   89MOL0     C11919   4.266   0.364  10.708  0.0553  0.2548 -0.4123
   89MOL0     C11920   4.119   0.328  10.713 -0.7810 -0.7273 -0.3840
   89MOL0     C11921   4.037   0.431  10.627  0.3383 -0.3036 -0.1708
   89MOL0     C11922   3.894   0.379  10.622  0.0056 -0.1108  0.5965
   89MOL0     C11923   3.829   0.434  10.499 -0.0230 -0.7141 -0.5708
   89MOL0    Cl11924   3.656   0.374  10.497  0.4089  0.0008  0.3516
   89MOL0     C11925   4.788   0.849  10.818  0.0045 -0.6515  0.1122
   89MOL0     C11926   4.877   0.927  10.878  0.1713 -0.2590  0.9243
   89MOL0     O11927   4.851   1.079  11.261  0.3112 -0.2990  0.2210
   89MOL0     C11928   5.087   1.208  11.361  0.3855 -0.0658  0.9557
   89MOL0     C11929   5.200   1.271  11.402 -0.8837  0.1439 -0.3593
   89MOL0     N11930   5.156   1.616  11.009 -0.0037  0.3432 -0.3595
   89MOL0     N11931   5.076   1.536  10.942 -0.3532 -0.2640 -0.0134
   89MOL0     C11932   3.786   1.284  10.783 -0.4604  0.1675 -0.1548
   89MOL0     C11933   3.663   1.334  10.728 -0.5713  0.8478 -0.4574
   89MOL0     C11934   3.275   1.619  10.773 -0.4601  0.6091  0.5440
   89MOL0     C11935   3.210   1.725  10.836  0.2961  1.5157 -1.1589
   89MOL0     C11936   3.087   1.776  10.794 -0.3600  0.1152  0.6067
   89MOL0     C11937   3.015   1.712  10.694  0.0509  0.2204  0.5361
   89MOL0     O11938   2.890   1.767  10.669 -0.0030  0.5464  0.4711
   89MOL0     C11939   2.834   1.750  10.536  0.6946  0.5236 -0.0144
   89MOL0     C11940   2.691   1.808  10.528  0.1420  0.5713 -0.1704
   89MOL0     C11941   2.622   1.764  10.403 -0.0317 -0.0594  0.0234
   89MOL0     C11942   2.472   1.824  10.409  0.0326 -0.3801 -0.1790
   89MOL0     C11943   2.413   1.787  10.279  0.0355  0.4306  0.4620
   89MOL0     C11944   2.351   1.762  10.179  0.4060  0.3877  0.6722
   89MOL0     C11945   3.078   1.609  10.628  0.3382 -0.0301  0.1890
   89MOL0     C11946   3.212   1.563  10.656  0.5649  0.8106  0.4775
   89MOL0     C11947   3.264   1.457  10.568  0.2686  1.1089 -0.3200
   89MOL0     H11948   3.672   1.643  10.868  0.8330  0.0295 -1.9503
   89MOL0     H11949   3.895   1.567  10.936 -1.7997  0.2747  2.0633
   89MOL0     H11950   4.028   1.427  11.051  2.6324 -0.6821 -0.3958
   89MOL0     H11951   3.964   1.254  11.070 -1.6578  0.5094 -0.1604
   89MOL0     H11952   4.178   1.165  11.026  1.2240  0.6690 -0.6374
   89MOL0     H11953   4.186   1.292  11.153  2.0743  1.5013 -0.7112
   89MOL0     H11954   4.270   1.444  10.960  0.6133 -0.7665  0.8821
   89MOL0     H11955   4.282   1.305  10.863 -1.5704 -1.4737  1.3738
   89MOL0     H11956   4.402   1.344  11.133  0.5632  0.2942 -0.6554
   89MOL0     H11957   4.446   1.205  11.030  1.7396 -0.7425 -0.7100
   89MOL0     H11958   4.519   1.377  10.855 -3.0414  0.0503 -0.1125
   89MOL0     H11959   4.523   1.504  10.977  0.7477  0.9215 -3.6568
   89MOL0     H11960   4.665   1.349  11.129  2.0137  1.5594 -0.5135
   89MOL0     H11961   4.674   1.241  10.987 -1.5974 -0.6866  2.2728
   89MOL0     H11962   4.766   1.534  11.022  0.6354 -0.8056  0.8282
   89MOL0     H11963   4.760   1.462  10.863  0.6877  2.0363  0.6075
   89MOL0     H11964   4.891   1.279  11.059 -1.2191  0.8475  0.7041
   89MOL0     H11965   4.939   1.318  10.891  0.7905 -0.5620  0.7184
   89MOL0     H11966   5.032   1.440  11.250 -1.8292  1.2861  0.2488
   89MOL0     H11967   5.211   1.734  11.267  0.1937 -0.2414  0.6793
   89MOL0     H11968   5.196   1.591  11.358  2.1492  0.0346  1.4459
   89MOL0     H11969   5.429   1.674  11.165  0.5914  0.7649  0.3629
   89MOL0     H11970   5.431   1.680  11.336 -0.5559  2.3257 -0.3319
   89MOL0     H11971   5.550   1.497  11.214 -1.3045 -2.5670 -1.2860
   89MOL0     H11972   5.405   1.418  11.181  3.4564 -1.2584 -1.7842
   89MOL0     H11973   5.388   1.467  11.459  0.3568  1.1259 -0.5307
   89MOL0     H11974   5.561   1.438  11.444 -1.3947  1.4508  1.7016
   89MOL0     H11975   5.428   1.085  11.219  0.4153 -0.4089  0.7992
   89MOL0     H11976   5.223   0.973  11.144  0.1267  1.2347 -2.7806
   89MOL0     H11977   4.763   0.859  11.192 -1.1349 -1.9295  0.5952
   89MOL0     H11978   4.631   0.699  11.084 -0.4524 -0.2510 -0.5336
   89MOL0     H11979   4.499   0.574  10.937  1.0988 -0.0577 -0.0579
   89MOL0     H11980   4.444   0.717  10.842  2.1213  1.0822  1.0987
   89MOL0     H11981   4.462   0.560  10.630  0.3232  4.5722  1.0991
   89MOL0     H11982   4.501   0.430  10.751 -1.0529 -0.9196 -1.7844
   89MOL0     H11983   4.292   0.509  10.864  0.9910 -5.0802  1.2768
   89MOL0     H11984   4.245   0.577  10.703 -0.2002 -0.4372 -0.2884
   89MOL0     H11985   4.311   0.287  10.772 -0.5790  1.8422  2.0913
   89MOL0     H11986   4.304   0.353  10.606  1.1150 -0.6721  0.0533
   89MOL0     H11987   4.085   0.332  10.817 -1.9886  1.7465 -0.8016
   89MOL0     H11988   4.108   0.224  10.679  0.4728 -1.8088  2.2419
   89MOL0     H11989   4.036   0.529  10.677 -0.2564 -1.0792  1.4118
   89MOL0     H11990   4.081   0.438  10.528  0.5298 -1.1328 -0.1446
   89MOL0     H11991   3.836   0.401  10.713  0.9082  0.1432  1.1204
   89MOL0     H11992   3.898   0.270  10.614  1.5408  0.0703 -4.0571
   89MOL0     H11993   3.835   0.543  10.505 -3.7854 -0.4586  1.2977
   89MOL0     H11994   3.869   0.406  10.401  1.3673  1.6973 -0.7649
   89MOL0     H11995   4.791   0.845  10.709  0.7956  3.7070 -0.1753
   89MOL0     H11996   4.958   0.985  10.835 -1.1487  0.9217 -0.0521
   89MOL0     H11997   4.990   1.245  11.393  0.5390 -0.1787  1.5645
   89MOL0     H11998   5.201   1.362  11.461  2.1888 -0.5718  0.9075
   89MOL0     H11999   3.821   1.184  10.755  3.3273  0.5304  2.5007
   89MOL0     H12000   3.587   1.281  10.670 -3.0693  0.8398  2.5621
   89MOL0     H12001   3.263   1.772  10.919  0.7877 -1.6511  0.4489
   89MOL0     H12002   3.045   1.856  10.854 -4.5482 -1.4548  0.1446
   89MOL0     H12003   2.834   1.650  10.491  1.7710  1.4108 -2.1643
   89MOL0     H12004   2.885   1.808  10.458 -0.0750  1.1401 -0.0737
   89MOL0     H12005   2.679   1.915  10.543 -0.3336  0.8451 -2.1947
   89MOL0     H12006   2.629   1.752  10.599  1.9239  0.3656  1.2865
   89MOL0     H12007   2.615   1.655  10.399  1.1361 -0.1813  0.7804
   89MOL0     H12008   2.675   1.807  10.318 -0.5612 -0.5226 -0.5579
   89MOL0     H12009   2.415   1.784  10.494 -1.8635  3.4936  0.5779
   89MOL0     H12010   2.482   1.933  10.406  1.5668 -0.5164 -0.4717
   89MOL0     H12011   2.293   1.741  10.091  0.7214 -2.8430  1.1011
   89MOL0     H12012   3.038   1.568  10.536 -0.0614 -1.0578  0.7986
   89MOL0     H12013   3.203   1.430  10.482 -0.9575 -1.4259  1.2330
   89MOL0     H12014   3.365   1.483  10.534 -0.2648  1.8106 -1.4207
   89MOL0     H12015   3.276   1.367  10.629  3.7945  1.9121  0.4293
   90MOL0     O12016   9.080   7.265   7.493 -0.2612  0.4081  0.0626
   90MOL0     C12017   8.996   7.352   7.466 -0.5109  0.0908 -0.8244
   90MOL0     O12018   9.031   7.475   7.421 -0.3387  0.1683  0.3946
   90MOL0     C12019   9.171   7.502   7.411 -0.1769 -0.1820  0.5424
   90MOL0     C12020   9.252   7.438   7.307 -0.2019 -0.6164 -0.7472
   90MOL0     C12021   9.397   7.449   7.319 -0.6189 -0.5724  0.0250
   90MOL0     C12022   9.464   7.526   7.422  0.4302  0.1350 -0.7849
   90MOL0     O12023   9.602   7.534   7.427 -0.0212  0.4788 -0.3508
   90MOL0     C12024   9.667   7.415   7.368  0.3215 -0.2792 -0.2433
   90MOL0     C12025   9.807   7.414   7.421  0.6815  0.1356 -0.4651
   90MOL0     C12026   9.901   7.517   7.356  0.6050  0.2427  0.4846
   90MOL0     C12027   9.954   7.470   7.219  0.4068  0.2356 -0.3326
   90MOL0     C12028  10.053   7.571   7.144  0.0196  0.1433 -1.4371
   90MOL0     C12029  10.177   7.600   7.235  0.0768 -0.8718  0.6744
   90MOL0     C12030  10.257   7.473   7.281 -0.5866 -0.0249 -0.3185
   90MOL0     C12031  10.366   7.499   7.376 -0.9823  0.2942 -0.1103
   90MOL0     N12032  10.487   7.557   7.305  0.1414 -0.1661 -0.1093
   90MOL0     C12033  10.605   7.486   7.267 -0.4553 -0.0844  0.0029
   90MOL0     C12034  10.685   7.588   7.232 -0.7234 -0.0460 -0.7310
   90MOL0     C12035  10.818   7.556   7.169 -1.1191  0.7458  0.2902
   90MOL0     C12036  10.911   7.684   7.152  0.6621 -0.2315  0.4096
   90MOL0     C12037  11.038   7.652   7.074  0.2284  0.6759 -0.9767
   90MOL0     C12038  11.127   7.776   7.053 -0.0653  0.3479  0.5053
   90MOL0     O12039  11.185   7.793   7.185  0.0067 -0.3675  0.4577
   90MOL0     C12040  11.296   7.878   7.201  0.1230 -0.0480 -0.4164
   90MOL0     C12041  11.338   7.962   7.098 -0.1570  0.3850  0.1046
   90MOL0     C12042  11.441   8.055   7.122  0.2090 -0.1038  0.9928
   90MOL0     C12043  11.510   8.053   7.247 -0.2786 -0.1278  0.7513
   90MOL0     C12044  11.623   8.147   7.268  0.0005 -0.4741 -0.7471
   90MOL0     O12045  11.694   8.124   7.388 -0.3267 -0.2710  0.8808
   90MOL0     C12046  11.798   8.212   7.421  0.3136 -0.0364  0.3603
   90MOL0     C12047  11.902   8.141   7.494  0.0070 -0.5513  0.0870
   90MOL0     C12048  12.003   8.225   7.548 -0.0181  0.9125 -0.0554
   90MOL0     C12049  12.005   8.363   7.520 -0.9563  0.0870  0.7034
   90MOL0     O12050  12.102   8.451   7.567 -0.2580  0.1559  0.6162
   90MOL0     C12051  12.064   8.498   7.700 -0.6581  0.0849  0.2456
   90MOL0     C12052  12.167   8.575   7.782 -0.0000 -0.3642 -0.7322
   90MOL0     C12053  12.307   8.521   7.773 -0.5080  0.7613  0.0574
   90MOL0     C12054  12.411   8.577   7.873  0.4727 -0.4830 -0.4227
   90MOL0     C12055  12.387   8.553   8.019 -0.0719  0.5533 -0.0678
   90MOL0     C12056  12.365   8.401   8.047 -0.4206 -0.4671  0.2757
   90MOL0     C12057  12.352   8.369   8.195 -0.1322  0.1055  0.3458
   90MOL0     C12058  12.331   8.221   8.232 -0.4224 -0.1042  0.1350
   90MOL0    Cl12059  12.295   8.207   8.407  0.4625  0.0600 -0.0437
   90MOL0     C12060  11.900   8.423   7.447 -0.2543  0.2814  0.0731
   90MOL0     C12061  11.797   8.348   7.410 -0.0162  0.1069 -0.2320
   90MOL0     O12062  11.655   8.233   7.189  0.9255 -0.8410  1.1498
   90MOL0     C12063  11.475   7.965   7.342 -0.1096  0.7935 -0.3906
   90MOL0     C12064  11.356   7.876   7.326  0.0986 -0.0908 -0.8331
   90MOL0     N12065  10.625   7.712   7.240 -0.1398  1.1125 -0.2331
   90MOL0     N12066  10.510   7.690   7.295  0.0719  0.2357 -0.4529
   90MOL0     C12067   9.373   7.585   7.516  0.4476  0.4777  0.4226
   90MOL0     C12068   9.231   7.581   7.511  0.4397 -0.7109 -0.0509
   90MOL0     C12069   8.850   7.341   7.442 -0.3941  0.1363  0.9864
   90MOL0     C12070   8.767   7.463   7.454 -0.0724  0.5327 -0.1774
   90MOL0     C12071   8.629   7.452   7.449 -0.8619 -0.1907 -0.2097
   90MOL0     C12072   8.574   7.335   7.406 -0.1357  0.6917 -0.5511
   90MOL0     O12073   8.445   7.346   7.387  0.1682 -0.7914  0.0669
   90MOL0     C12074   8.380   7.279   7.282 -0.6927  0.3834  0.4147
   90MOL0     C12075   8.242   7.340   7.268  0.1842  0.5941 -0.6032
   90MOL0     C12076   8.239   7.479   7.209  0.2425  0.5435 -1.0428
   90MOL0     C12077   8.087   7.521   7.223  0.0741  0.4356 -0.4970
   90MOL0     C12078   8.069   7.648   7.157  0.5938 -0.0595 -1.2560
   90MOL0     C12079   8.057   7.765   7.119 -0.6910 -0.1134  0.3053
   90MOL0     C12080   8.653   7.219   7.398  0.5213  0.7286  0.8677
   90MOL0     C12081   8.789   7.214   7.418  0.2136 -0.3733  0.0369
   90MOL0     C12082   8.859   7.068   7.411 -0.4357 -0.7299  0.1540
   90MOL0     H12083   9.206   7.368   7.238 -1.3748  1.5439 -2.2571
   90MOL0     H12084   9.452   7.389   7.247  0.7630 -1.8827  2.0357
   90MOL0     H12085   9.622   7.322   7.403 -1.1703  0.2648 -0.6167
   90MOL0     H12086   9.661   7.422   7.259 -0.5675  3.1207 -0.0990
   90MOL0     H12087   9.856   7.318   7.402 -0.0860 -0.3595  0.0101
   90MOL0     H12088   9.806   7.430   7.529 -3.7774  2.4067 -0.5868
   90MOL0     H12089   9.987   7.542   7.418  0.6682  0.6686  0.2227
   90MOL0     H12090   9.855   7.616   7.349  0.9849  0.4982  1.4333
   90MOL0     H12091   9.996   7.370   7.231  0.4819  0.0385 -2.0111
   90MOL0     H12092   9.872   7.456   7.147 -1.0459 -2.5066  1.6672
   90MOL0     H12093  10.080   7.515   7.054 -1.9858 -1.1183 -1.2992
   90MOL0     H12094  10.000   7.663   7.117 -2.4200 -2.0240 -4.8092
   90MOL0     H12095  10.242   7.670   7.181 -1.5084  0.6783  0.6613
   90MOL0     H12096  10.142   7.654   7.324  1.1021  1.8918 -0.4799
   90MOL0     H12097  10.304   7.433   7.191  0.6346  0.0168  0.2788
   90MOL0     H12098  10.186   7.398   7.314  0.5244 -0.1745  1.9093
   90MOL0     H12099  10.328   7.570   7.450  0.2480 -1.1632  2.0358
   90MOL0     H12100  10.388   7.413   7.440 -0.1671  0.5619 -0.0243
   90MOL0     H12101  10.631   7.381   7.273 -2.2703 -0.4898  1.6305
   90MOL0     H12102  10.875   7.481   7.224 -1.6115  1.5298  1.9242
   90MOL0     H12103  10.787   7.540   7.066 -0.5812  0.6205  0.1416
   90MOL0     H12104  10.852   7.763   7.104  0.8553 -0.6460 -0.5213
   90MOL0     H12105  10.934   7.710   7.256  0.6090 -1.7142  0.8151
   90MOL0     H12106  11.017   7.602   6.979  1.1261 -0.2681 -0.7032
   90MOL0     H12107  11.093   7.581   7.137 -1.3839  1.3037  1.2932
   90MOL0     H12108  11.077   7.869   7.026 -0.0191 -0.8637 -5.0215
   90MOL0     H12109  11.201   7.757   6.975 -0.0757 -0.3847  0.6621
   90MOL0     H12110  11.296   7.973   6.998 -2.3252  1.0186  1.0239
   90MOL0     H12111  11.479   8.110   7.036 -0.9806 -0.6050  0.1255
   90MOL0     H12112  11.888   8.034   7.495  0.6627 -0.8023 -3.7632
   90MOL0     H12113  12.090   8.179   7.593 -0.2324  0.1509 -0.4019
   90MOL0     H12114  11.972   8.557   7.707 -1.2887 -1.0230  1.9851
   90MOL0     H12115  12.039   8.411   7.761  0.9517 -0.3902  0.2726
   90MOL0     H12116  12.170   8.682   7.756 -0.3249  0.6659  2.8895
   90MOL0     H12117  12.132   8.562   7.885 -1.4635 -0.7910 -1.2610
   90MOL0     H12118  12.293   8.413   7.784 -1.1863  0.8542  0.1576
   90MOL0     H12119  12.339   8.524   7.668  1.1494 -2.5755  0.3181
   90MOL0     H12120  12.423   8.683   7.853 -1.2995 -0.6025 -2.6229
   90MOL0     H12121  12.503   8.520   7.855  0.2156 -2.0642  2.6719
   90MOL0     H12122  12.305   8.613   8.060 -0.2697 -0.7456  1.5253
   90MOL0     H12123  12.485   8.580   8.059  0.5881 -1.1867 -0.4212
   90MOL0     H12124  12.272   8.373   7.996 -0.4527 -0.0728  0.1108
   90MOL0     H12125  12.448   8.345   8.004 -1.0593  0.4403 -2.2808
   90MOL0     H12126  12.281   8.432   8.248  1.1128  1.4948  0.4348
   90MOL0     H12127  12.449   8.396   8.238 -1.1679  5.2991  0.0055
   90MOL0     H12128  12.248   8.163   8.191  0.3484 -2.3213  1.5580
   90MOL0     H12129  12.422   8.167   8.206  0.5675  0.9304  1.3206
   90MOL0     H12130  11.905   8.531   7.446 -0.4126  0.2885 -0.1392
   90MOL0     H12131  11.712   8.410   7.385  1.0268  2.3822  1.5596
   90MOL0     H12132  11.534   7.949   7.432 -0.9498 -3.2290 -0.3367
   90MOL0     H12133  11.316   7.820   7.410 -0.5558  1.8824  0.2224
   90MOL0     H12134   9.430   7.631   7.597  2.2412 -0.6341 -0.1512
   90MOL0     H12135   9.171   7.634   7.584 -0.7063 -0.5456 -1.0827
   90MOL0     H12136   8.818   7.558   7.464  0.2338  0.3334  0.1931
   90MOL0     H12137   8.579   7.548   7.442 -1.8822 -0.6227  0.8799
   90MOL0     H12138   8.383   7.172   7.306  1.1974  0.2500 -0.3201
   90MOL0     H12139   8.431   7.291   7.186  4.0759 -0.1509  2.6004
   90MOL0     H12140   8.190   7.329   7.364 -0.8752  0.2952 -1.1906
   90MOL0     H12141   8.184   7.280   7.198  0.6385 -0.3137 -0.2244
   90MOL0     H12142   8.278   7.477   7.106  1.9791 -2.5978 -0.4234
   90MOL0     H12143   8.298   7.554   7.262  0.5206  0.3829 -1.1266
   90MOL0     H12144   8.028   7.437   7.185 -1.6998  2.2325 -1.9320
   90MOL0     H12145   8.060   7.529   7.328 -3.2623  2.5757 -1.3843
   90MOL0     H12146   8.061   7.861   7.071 -3.6689  1.3977  2.7298
   90MOL0     H12147   8.606   7.125   7.369  0.5032  1.3063 -1.1611
   90MOL0     H12148   8.949   7.063   7.350 -0.5410 -0.4411 -0.0309
   90MOL0     H12149   8.884   7.039   7.513 -1.6408  0.7866  0.9470
   90MOL0     H12150   8.792   6.991   7.372  0.5685 -0.5670 -2.0018
   91MOL0     O12151   9.035   0.167  10.797 -0.2802  0.1342 -0.3601
   91MOL0     C12152   9.032   0.251  10.710 -0.3053 -0.7757 -0.3103
   91MOL0     O12153   9.122   0.360  10.698  0.7541 -0.4793 -0.4043
   91MOL0     C12154   9.250   0.339  10.723  0.0803  0.6588  0.2247
   91MOL0     C12155   9.330   0.455  10.771  0.4171  0.2432  0.2896
   91MOL0     C12156   9.463   0.447  10.783  0.7194  0.3582 -0.4701
   91MOL0     C12157   9.531   0.327  10.749 -0.2712 -0.2628 -0.1773
   91MOL0     O12158   9.669   0.325  10.768  0.1323  0.8505  0.7924
   91MOL0     C12159   9.739   0.205  10.795  0.2011 -0.5712  0.2105
   91MOL0     C12160   9.885   0.235  10.816  0.7084  0.1569 -0.4956
   91MOL0     C12161   9.962   0.104  10.831  0.3114  0.5913 -0.4911
   91MOL0     C12162  10.116   0.122  10.856  0.1106  1.0168  0.0974
   91MOL0     C12163  10.185  -0.013  10.865 -0.7615  0.7480  0.2843
   91MOL0     C12164  10.335   0.007  10.891 -0.0449  0.1858  0.2229
   91MOL0     C12165  10.412  -0.128  10.913  0.9207 -0.1434  0.0733
   91MOL0     C12166  10.443  -0.192  10.773  0.5689 -0.3369  0.4222
   91MOL0     N12167  10.517  -0.318  10.791 -0.2050  0.1422  0.0413
   91MOL0     C12168  10.647  -0.312  10.834 -0.1094 -0.2975 -0.2061
   91MOL0     C12169  10.676  -0.443  10.858 -0.0211  0.5512  0.2164
   91MOL0     C12170  10.804  -0.504  10.883  0.2748  0.1320 -0.0131
   91MOL0     C12171  10.914  -0.449  10.800  0.7788  0.5374 -0.3091
   91MOL0     C12172  11.049  -0.538  10.814  0.0216  0.3510  0.4561
   91MOL0     C12173  11.187  -0.474  10.774  0.0873 -0.1932  0.0119
   91MOL0     O12174  11.286  -0.573  10.831 -0.6054  0.1407 -0.0879
   91MOL0     C12175  11.414  -0.570  10.781 -0.2168 -0.0484  0.9318
   91MOL0     C12176  11.459  -0.506  10.669 -0.4338  0.1462 -0.2573
   91MOL0     C12177  11.595  -0.510  10.625  0.8133  0.7305 -0.0847
   91MOL0     C12178  11.692  -0.587  10.689 -0.8937  0.0827  0.5309
   91MOL0     C12179  11.836  -0.594  10.635 -0.4244 -0.2260  0.4684
   91MOL0     O12180  11.935  -0.619  10.731 -0.4418  0.1459  0.1294
   91MOL0     C12181  12.067  -0.573  10.718  0.4624  0.4050 -0.2602
   91MOL0     C12182  12.102  -0.442  10.678  0.6962  0.4801  0.2774
   91MOL0     C12183  12.224  -0.385  10.693  0.1326 -0.8249 -0.4795
   91MOL0     C12184  12.336  -0.466  10.741  0.1613 -0.2363 -0.5493
   91MOL0     O12185  12.465  -0.422  10.769 -0.1231  1.0436 -0.0549
   91MOL0     C12186  12.508  -0.312  10.686 -0.7940  0.7977  0.0877
   91MOL0     C12187  12.662  -0.299  10.701 -0.3743 -0.6012  0.1663
   91MOL0     C12188  12.746  -0.424  10.651 -0.3173  0.3557  0.9512
   91MOL0     C12189  12.891  -0.400  10.675  0.8092  0.4258 -0.0189
   91MOL0     C12190  12.980  -0.527  10.670 -0.5857 -0.4957 -0.0957
   91MOL0     C12191  13.114  -0.478  10.724  0.7602 -0.1814 -0.4557
   91MOL0     C12192  13.219  -0.582  10.717 -0.7413  0.8023  0.4595
   91MOL0     C12193  13.361  -0.548  10.788  0.0461  0.1982 -0.4831
   91MOL0    Cl12194  13.413  -0.394  10.741 -0.3438  0.2087  0.1881
   91MOL0     C12195  12.303  -0.597  10.793  0.1416  0.2973 -0.5650
   91MOL0     C12196  12.173  -0.649  10.786 -0.4010  0.4718  0.9219
   91MOL0     O12197  11.853  -0.562  10.519 -0.2971  0.5145  0.6469
   91MOL0     C12198  11.649  -0.645  10.806  0.7517 -0.6529  0.3514
   91MOL0     C12199  11.514  -0.635  10.853 -0.5918  0.2543  0.1854
   91MOL0     N12200  10.557  -0.513  10.859  0.2450  0.1715  0.0815
   91MOL0     N12201  10.464  -0.432  10.811  0.0510 -0.4492  0.1947
   91MOL0     C12202   9.456   0.220  10.699  0.7485 -0.3768  0.3899
   91MOL0     C12203   9.320   0.228  10.679  0.6340 -0.8415 -0.9208
   91MOL0     C12204   8.903   0.246  10.624 -0.6751  1.1102 -0.6070
   91MOL0     C12205   8.900   0.348  10.528  0.2089  0.1680  1.0039
   91MOL0     C12206   8.797   0.366  10.440 -0.2422 -0.7177 -0.0016
   91MOL0     C12207   8.693   0.270  10.439 -0.2546 -0.2501 -0.0034
   91MOL0     O12208   8.574   0.274  10.367 -0.9069 -0.2341 -0.4328
   91MOL0     C12209   8.560   0.368  10.257 -0.1822 -0.8012 -0.6967
   91MOL0     C12210   8.508   0.507  10.303  0.2451  0.1557  0.0195
   91MOL0     C12211   8.481   0.620  10.199  0.5811  0.0607  0.6306
   91MOL0     C12212   8.572   0.612  10.082 -0.5475  0.7835  0.7153
   91MOL0     C12213   8.703   0.651  10.125  0.2162 -0.0650  0.4096
   91MOL0     C12214   8.820   0.662  10.158  0.8420 -0.2132 -0.0889
   91MOL0     C12215   8.691   0.177  10.542  0.1327 -0.0707 -1.1378
   91MOL0     C12216   8.797   0.158  10.641  0.4528  0.8174 -1.2754
   91MOL0     C12217   8.773   0.059  10.754  0.0340  0.1887 -0.4982
   91MOL0     H12218   9.278   0.550  10.774 -1.2329 -0.5991 -0.7131
   91MOL0     H12219   9.515   0.536  10.817 -1.5747  1.8009 -0.4783
   91MOL0     H12220   9.691   0.165  10.884  0.1079 -0.1045  0.3742
   91MOL0     H12221   9.732   0.127  10.718  4.2460  1.6606 -2.8512
   91MOL0     H12222   9.914   0.283  10.910 -0.9843 -2.6043  1.5859
   91MOL0     H12223   9.917   0.289  10.727 -2.0203  1.7554 -0.6411
   91MOL0     H12224   9.938   0.032  10.752  3.7477  0.0247 -1.1733
   91MOL0     H12225   9.924   0.052  10.920  1.3201 -1.1035 -0.9979
   91MOL0     H12226  10.152   0.178  10.769 -3.7582  1.7472 -1.2028
   91MOL0     H12227  10.139   0.185  10.942  1.6801 -1.0539  1.2884
   91MOL0     H12228  10.150  -0.076  10.948 -0.8868 -1.1528 -1.1303
   91MOL0     H12229  10.155  -0.073  10.778  0.0920 -1.8123  1.6394
   91MOL0     H12230  10.376   0.060  10.804 -0.9091 -0.9509 -0.8971
   91MOL0     H12231  10.347   0.073  10.978  0.4968  0.4557 -0.0472
   91MOL0     H12232  10.357  -0.204  10.970 -0.3543  0.4789 -0.2854
   91MOL0     H12233  10.509  -0.102  10.957  0.1371  1.3528  1.0195
   91MOL0     H12234  10.349  -0.203  10.719  1.4766  0.9513 -1.5017
   91MOL0     H12235  10.512  -0.129  10.718  0.6822 -0.4641  0.4192
   91MOL0     H12236  10.719  -0.232  10.840 -0.3843  0.0462 -1.3461
   91MOL0     H12237  10.830  -0.499  10.989  0.2047  2.2494 -0.0644
   91MOL0     H12238  10.794  -0.611  10.859 -0.4206 -0.2887  1.9692
   91MOL0     H12239  10.883  -0.454  10.696  0.2615  0.1191 -0.1403
   91MOL0     H12240  10.936  -0.349  10.839  1.7300 -0.3205  1.4724
   91MOL0     H12241  11.043  -0.637  10.768  2.5232  1.4039 -2.4607
   91MOL0     H12242  11.070  -0.548  10.921  3.6264 -0.3185 -0.1772
   91MOL0     H12243  11.185  -0.378  10.827 -0.6629 -0.1468 -0.0908
   91MOL0     H12244  11.204  -0.455  10.667 -4.0940 -1.5883 -1.1112
   91MOL0     H12245  11.400  -0.431  10.617  0.6406  0.6383 -0.8100
   91MOL0     H12246  11.623  -0.453  10.537  2.0044 -0.3463 -0.4246
   91MOL0     H12247  12.027  -0.384  10.626 -1.9747 -3.1613 -0.3123
   91MOL0     H12248  12.233  -0.283  10.658  0.0838 -0.8082 -0.4430
   91MOL0     H12249  12.487  -0.329  10.580  0.8117 -0.1388 -0.1227
   91MOL0     H12250  12.455  -0.219  10.708 -2.4441  0.3911 -1.8847
   91MOL0     H12251  12.706  -0.222  10.637 -0.6093 -1.4207 -1.0036
   91MOL0     H12252  12.671  -0.273  10.807 -0.6505 -0.1555  0.0838
   91MOL0     H12253  12.702  -0.497  10.719 -2.5037 -0.6304 -1.3472
   91MOL0     H12254  12.732  -0.441  10.544  1.4762 -1.9590  0.9968
   91MOL0     H12255  12.897  -0.364  10.778 -0.1893 -1.9791  0.9858
   91MOL0     H12256  12.927  -0.327  10.602 -3.2658  1.3539 -1.3679
   91MOL0     H12257  12.984  -0.568  10.568  0.4009 -0.5828 -0.0364
   91MOL0     H12258  12.936  -0.609  10.727 -0.1480 -0.7661 -0.1365
   91MOL0     H12259  13.156  -0.393  10.671  1.6344 -1.6397 -2.2231
   91MOL0     H12260  13.094  -0.449  10.828 -1.9049 -0.2473 -0.8588
   91MOL0     H12261  13.241  -0.592  10.610  0.6054 -0.8248  0.8367
   91MOL0     H12262  13.181  -0.677  10.755  1.0792  0.5752  1.8865
   91MOL0     H12263  13.353  -0.548  10.897 -0.2803  0.3079 -0.5041
   91MOL0     H12264  13.445  -0.613  10.762  0.0672  0.5911 -1.4428
   91MOL0     H12265  12.387  -0.644  10.844  0.6634  2.1373  0.3383
   91MOL0     H12266  12.146  -0.736  10.845  0.5802  0.1650  0.9414
   91MOL0     H12267  11.703  -0.724  10.857  1.2967 -1.2055 -1.0214
   91MOL0     H12268  11.494  -0.683  10.948 -0.3028  1.8299  1.0686
   91MOL0     H12269   9.504   0.123  10.689  0.8378 -0.1560 -1.6184
   91MOL0     H12270   9.257   0.143  10.656 -0.5129 -0.0564 -0.7564
   91MOL0     H12271   8.966   0.433  10.523 -2.8427  2.6585 -2.0914
   91MOL0     H12272   8.802   0.453  10.375 -3.7127 -0.7019 -0.4400
   91MOL0     H12273   8.482   0.325  10.193  1.0333 -2.5967 -1.0333
   91MOL0     H12274   8.647   0.365  10.191  0.3168  0.9788 -0.1846
   91MOL0     H12275   8.571   0.549  10.381 -1.1532  1.0111  0.7303
   91MOL0     H12276   8.417   0.488  10.360  1.0839  1.8242  2.0234
   91MOL0     H12277   8.492   0.719  10.244  2.0269 -0.0394  0.5637
   91MOL0     H12278   8.379   0.614  10.162  1.8169 -1.8201 -3.0697
   91MOL0     H12279   8.579   0.514  10.032 -2.2166 -0.7617  3.2844
   91MOL0     H12280   8.525   0.676  10.007 -1.1915 -1.0251 -0.5145
   91MOL0     H12281   8.926   0.671  10.166  1.2241  0.2975 -3.8832
   91MOL0     H12282   8.605   0.113  10.562 -0.3249  1.5497  3.3273
   91MOL0     H12283   8.696  -0.014  10.730 -2.5838  1.6692  2.5909
   91MOL0     H12284   8.865   0.007  10.782  0.1212  1.9275  3.0784
   91MOL0     H12285   8.735   0.112  10.842 -2.5086  0.5201 -1.7163
   92MOL0     O12286   2.338   2.331   2.097  0.0296  0.3664 -0.0787
   92MOL0     C12287   2.217   2.361   2.088 -1.1466  0.2251  0.3088
   92MOL0     O12288   2.115   2.271   2.052 -0.2170 -0.2364  0.1615
   92MOL0     C12289   2.155   2.140   2.039 -0.5637 -0.0176  0.2455
   92MOL0     C12290   2.231   2.114   1.926 -0.9655  0.1738  0.3567
   92MOL0     C12291   2.295   1.977   1.917 -1.0047 -1.6536  0.8688
   92MOL0     C12292   2.264   1.879   2.016  0.2127 -0.2254 -0.2187
   92MOL0     O12293   2.327   1.750   2.023 -0.2446 -0.3268 -0.0768
   92MOL0     C12294   2.357   1.691   1.901  0.1993 -0.3567 -0.5724
   92MOL0     C12295   2.319   1.545   1.900 -0.1018 -0.3220 -0.2104
   92MOL0     C12296   2.353   1.473   2.037  0.4552  0.8361  0.1698
   92MOL0     C12297   2.502   1.477   2.067 -0.1299 -0.3815  0.2389
   92MOL0     C12298   2.520   1.415   2.208  0.9946  1.1527  0.0343
   92MOL0     C12299   2.659   1.443   2.262 -0.2097  0.5742 -0.1223
   92MOL0     C12300   2.683   1.385   2.409  0.6841 -0.8957  0.5832
   92MOL0     C12301   2.825   1.402   2.459 -0.3074  0.0407  0.8931
   92MOL0     N12302   2.846   1.546   2.494  0.5815  0.0183  0.2820
   92MOL0     C12303   2.901   1.639   2.409  0.4792 -0.3247 -0.8339
   92MOL0     C12304   2.936   1.746   2.478  0.4986  0.2857 -0.8202
   92MOL0     C12305   3.004   1.873   2.440  0.5385  0.5862 -0.9354
   92MOL0     C12306   3.073   1.938   2.553  0.1742  0.5322  0.0453
   92MOL0     C12307   3.164   2.050   2.514  0.2506  0.7634 -0.0704
   92MOL0     C12308   3.205   2.136   2.631 -1.1616  0.4286  0.0818
   92MOL0     O12309   3.298   2.243   2.588  0.0702  0.1473  0.1115
   92MOL0     C12310   3.283   2.362   2.657 -0.4984 -0.8645  0.4002
   92MOL0     C12311   3.359   2.464   2.594 -0.3348  0.7711 -0.2228
   92MOL0     C12312   3.367   2.594   2.637 -0.2591 -0.0249 -1.2828
   92MOL0     C12313   3.287   2.630   2.756 -0.2319  0.2761  0.3634
   92MOL0     C12314   3.279   2.765   2.803 -0.3874  0.6360  0.1374
   92MOL0     O12315   3.184   2.802   2.886  0.7731 -0.3970 -0.8678
   92MOL0     C12316   3.201   2.913   2.964  0.4425  0.3856 -0.2198
   92MOL0     C12317   3.318   2.944   3.041  0.7985  0.0296 -0.1529
   92MOL0     C12318   3.328   3.066   3.100 -0.6430  0.2559  0.6427
   92MOL0     C12319   3.227   3.161   3.085  0.4158 -0.2956  0.3657
   92MOL0     O12320   3.219   3.288   3.136 -0.2739 -0.2422 -0.7154
   92MOL0     C12321   3.331   3.335   3.212  0.0894  0.2899 -0.4584
   92MOL0     C12322   3.306   3.472   3.263 -0.5665  0.3483  0.1843
   92MOL0     C12323   3.438   3.537   3.301  0.1580  1.0068  0.3968
   92MOL0     C12324   3.466   3.518   3.450  0.5421  0.5691 -0.0565
   92MOL0     C12325   3.616   3.560   3.494 -0.8098 -0.4368  0.0327
   92MOL0     C12326   3.641   3.699   3.562  0.4062 -0.7661 -0.1840
   92MOL0     C12327   3.785   3.722   3.595 -0.0208 -0.4339 -0.7687
   92MOL0     C12328   3.794   3.859   3.655 -0.4899  0.6196 -0.0612
   92MOL0    Cl12329   3.793   3.979   3.520 -0.3131 -0.1984 -0.2921
   92MOL0     C12330   3.115   3.132   3.006  0.5886  0.7320 -0.2873
   92MOL0     C12331   3.101   3.003   2.953 -0.3747  0.5732 -0.4783
   92MOL0     O12332   3.371   2.838   2.768 -0.7882 -0.5487 -0.0512
   92MOL0     C12333   3.200   2.526   2.808  0.4362 -0.7946  1.1566
   92MOL0     C12334   3.205   2.399   2.761  1.2487  0.1068 -0.1340
   92MOL0     N12335   2.891   1.725   2.616 -0.4066 -0.8367  0.2484
   92MOL0     N12336   2.839   1.604   2.621  0.2320  0.4950 -0.8124
   92MOL0     C12337   2.170   1.906   2.108  0.0235  0.3063 -0.1459
   92MOL0     C12338   2.120   2.039   2.125 -0.1342 -0.8077 -0.0843
   92MOL0     C12339   2.175   2.497   2.119 -0.6353  1.1446  0.2919
   92MOL0     C12340   2.073   2.510   2.209  0.7037 -0.1163 -0.2254
   92MOL0     C12341   2.020   2.634   2.247  0.5744  0.7670 -0.0534
   92MOL0     C12342   2.078   2.748   2.190 -0.4220 -1.0330 -0.9898
   92MOL0     O12343   2.018   2.875   2.220  0.4132 -0.3301  0.9552
   92MOL0     C12344   2.101   2.991   2.214  0.2859  0.8310 -0.6316
   92MOL0     C12345   2.013   3.118   2.241  0.5477 -0.1209 -0.3696
   92MOL0     C12346   2.103   3.231   2.295 -0.8329  0.9692  0.4143
   92MOL0     C12347   2.037   3.364   2.298  0.5283 -0.9723 -0.9006
   92MOL0     C12348   2.111   3.471   2.222  0.2007  0.0219 -0.2969
   92MOL0     C12349   2.170   3.554   2.160 -0.2274  0.1008 -0.1043
   92MOL0     C12350   2.193   2.736   2.116  0.0625  0.8032 -0.8989
   92MOL0     C12351   2.232   2.614   2.075 -0.1627  0.4206  0.1613
   92MOL0     C12352   2.348   2.602   1.979 -0.7754  0.3403  0.0869
   92MOL0     H12353   2.260   2.192   1.856 -0.9293 -1.0504 -1.0310
   92MOL0     H12354   2.365   1.947   1.840 -0.8687  1.3050 -0.3154
   92MOL0     H12355   2.303   1.738   1.818  2.3669  2.3449 -0.5879
   92MOL0     H12356   2.464   1.699   1.879 -0.0614 -0.9968 -2.2001
   92MOL0     H12357   2.367   1.499   1.813  1.1850  0.7136 -0.0929
   92MOL0     H12358   2.211   1.538   1.891 -0.2062 -0.0275  0.7486
   92MOL0     H12359   2.323   1.368   2.033 -0.5629  1.0863  0.8820
   92MOL0     H12360   2.296   1.523   2.116 -1.5291 -0.7338 -0.1698
   92MOL0     H12361   2.557   1.422   1.990 -0.4692 -1.1980  0.5650
   92MOL0     H12362   2.513   1.586   2.071 -2.1988  0.0221 -2.0865
   92MOL0     H12363   2.440   1.444   2.278 -0.8499 -0.4317 -1.3055
   92MOL0     H12364   2.505   1.306   2.209 -2.2605  1.5042  1.0789
   92MOL0     H12365   2.736   1.399   2.197 -0.1536  0.9530 -0.3144
   92MOL0     H12366   2.676   1.551   2.251 -0.8961  0.7698  0.7035
   92MOL0     H12367   2.658   1.280   2.393  1.0776 -0.7763 -0.9888
   92MOL0     H12368   2.620   1.429   2.487 -0.4964 -1.2258 -0.1543
   92MOL0     H12369   2.836   1.340   2.548  0.6563 -1.0271  0.0493
   92MOL0     H12370   2.907   1.385   2.389 -0.0956  2.1785  0.5480
   92MOL0     H12371   2.911   1.625   2.302 -1.9462  1.0478 -1.3070
   92MOL0     H12372   3.071   1.857   2.356  1.5003  0.8609 -0.2386
   92MOL0     H12373   2.918   1.929   2.402 -1.0696 -0.0630  1.4944
   92MOL0     H12374   2.988   1.973   2.612 -1.5086  2.9305 -3.4526
   92MOL0     H12375   3.128   1.868   2.616  1.9478  1.0510 -0.8702
   92MOL0     H12376   3.099   2.115   2.454 -1.6599 -0.1396  0.9536
   92MOL0     H12377   3.256   2.016   2.465 -0.4173  0.4081 -1.1158
   92MOL0     H12378   3.248   2.068   2.705 -3.6161  1.7824  2.9586
   92MOL0     H12379   3.121   2.181   2.685 -0.2140  0.7180  1.3423
   92MOL0     H12380   3.428   2.446   2.512  1.7996  2.8833  1.0148
   92MOL0     H12381   3.427   2.668   2.585  1.0473  0.7527  1.1840
   92MOL0     H12382   3.400   2.873   3.049  1.7000  1.2271  2.3439
   92MOL0     H12383   3.416   3.095   3.156 -0.5314  1.6184 -0.1950
   92MOL0     H12384   3.359   3.267   3.292  2.1880  1.4022 -0.1807
   92MOL0     H12385   3.417   3.342   3.145  1.3202  2.0873  1.2119
   92MOL0     H12386   3.259   3.522   3.178  1.7189 -0.7148 -1.8162
   92MOL0     H12387   3.235   3.463   3.345  0.3213 -1.0725  0.8323
   92MOL0     H12388   3.520   3.497   3.241 -0.1926 -1.1688  1.2735
   92MOL0     H12389   3.431   3.644   3.277 -1.5860  1.3459  2.1259
   92MOL0     H12390   3.465   3.410   3.462  1.9446  0.3900 -1.2127
   92MOL0     H12391   3.389   3.573   3.505 -2.0829 -1.4351 -1.5141
   92MOL0     H12392   3.684   3.561   3.409 -1.8128  5.2588 -1.0562
   92MOL0     H12393   3.661   3.496   3.571 -0.6849  2.1665  2.2626
   92MOL0     H12394   3.598   3.784   3.507  2.0475 -0.0356 -0.3978
   92MOL0     H12395   3.599   3.708   3.663  2.1417 -2.4720  0.7444
   92MOL0     H12396   3.856   3.703   3.514  2.7740  2.3576  0.8186
   92MOL0     H12397   3.802   3.660   3.684 -0.9237  1.7592  0.9955
   92MOL0     H12398   3.708   3.880   3.719 -0.1970  2.1257 -0.1112
   92MOL0     H12399   3.889   3.860   3.710  0.3027 -2.7671 -1.1099
   92MOL0     H12400   3.026   3.194   3.006 -0.7299 -1.0690  0.3989
   92MOL0     H12401   3.013   2.971   2.899 -0.0698 -1.1647 -0.0117
   92MOL0     H12402   3.130   2.537   2.890 -0.7116 -1.0463  0.2359
   92MOL0     H12403   3.139   2.333   2.818 -0.3259  1.8694  0.1960
   92MOL0     H12404   2.144   1.830   2.182  2.9122 -0.4246  0.2380
   92MOL0     H12405   2.047   2.072   2.198  0.8528  1.1128  0.0997
   92MOL0     H12406   2.030   2.423   2.258 -0.0666  0.0642 -0.5604
   92MOL0     H12407   1.936   2.644   2.316 -2.5416 -3.4180 -2.7558
   92MOL0     H12408   2.150   2.987   2.116 -1.9640 -1.3010 -1.7738
   92MOL0     H12409   2.171   2.981   2.297 -0.0641  1.6344 -0.2208
   92MOL0     H12410   1.933   3.086   2.308  1.7420 -0.9044  0.7386
   92MOL0     H12411   1.963   3.148   2.149 -1.0400  0.7383  0.7424
   92MOL0     H12412   2.192   3.240   2.232  0.9842  0.9651  2.8627
   92MOL0     H12413   2.137   3.213   2.397  3.1599 -0.5476 -0.9981
   92MOL0     H12414   1.941   3.347   2.250  0.5466 -2.3137 -0.5146
   92MOL0     H12415   2.022   3.401   2.400 -1.7282 -1.1238 -1.1367
   92MOL0     H12416   2.210   3.619   2.085  1.6552 -1.9215 -0.9773
   92MOL0     H12417   2.246   2.816   2.066 -1.3176  1.6357 -1.0806
   92MOL0     H12418   2.448   2.617   2.022 -1.8588  2.3387  2.0897
   92MOL0     H12419   2.331   2.511   1.921 -3.1754  1.6603 -1.4268
   92MOL0     H12420   2.336   2.682   1.905 -0.4690  2.8056  2.5468
   93MOL0     O12421   5.255   6.479   6.239  0.0330  0.8810 -0.0398
   93MOL0     C12422   5.191   6.577   6.282 -0.4374 -0.3536 -1.0412
   93MOL0     O12423   5.221   6.652   6.396  0.4063  0.4373 -0.7905
   93MOL0     C12424   5.344   6.643   6.457 -0.5746 -0.9029  0.0342
   93MOL0     C12425   5.466   6.616   6.390  0.2970  0.9930  1.2504
   93MOL0     C12426   5.586   6.621   6.458  0.1192  0.7745 -0.4352
   93MOL0     C12427   5.597   6.650   6.593 -0.2501 -0.6759 -0.3111
   93MOL0     O12428   5.712   6.661   6.668  0.4087 -0.9998 -0.2319
   93MOL0     C12429   5.810   6.748   6.613 -0.3208 -0.1092  0.2559
   93MOL0     C12430   5.919   6.800   6.710  0.4877 -0.1518 -0.1036
   93MOL0     C12431   6.006   6.681   6.773  0.8530 -0.7421  0.0130
   93MOL0     C12432   6.143   6.728   6.828 -0.1324 -0.1555  0.6504
   93MOL0     C12433   6.234   6.607   6.854 -0.3698  0.4419 -0.0035
   93MOL0     C12434   6.339   6.640   6.948  0.4695  0.8728 -0.2240
   93MOL0     C12435   6.461   6.717   6.897  0.1122 -0.0865  0.4685
   93MOL0     C12436   6.566   6.723   7.007 -0.7878 -0.0153 -0.5702
   93MOL0     N12437   6.649   6.605   7.030  0.2581 -0.4146 -0.3800
   93MOL0     C12438   6.761   6.576   6.957  0.7368  0.8951  0.4421
   93MOL0     C12439   6.814   6.466   7.006  0.4365 -0.6533  0.4836
   93MOL0     C12440   6.944   6.412   6.956 -0.8409 -0.5745 -0.4108
   93MOL0     C12441   6.974   6.288   7.043 -1.7238  1.0214  0.5421
   93MOL0     C12442   6.896   6.163   7.004 -0.1105 -0.1045  0.1298
   93MOL0     C12443   6.931   6.054   7.099 -0.2223  0.2889  0.1775
   93MOL0     O12444   6.849   5.935   7.085 -0.0532 -0.0880  1.0257
   93MOL0     C12445   6.722   5.925   7.124  0.4426 -0.0049  0.0512
   93MOL0     C12446   6.648   5.815   7.078  0.3484  0.5954 -0.1748
   93MOL0     C12447   6.513   5.806   7.116  0.8104 -0.5374  0.4925
   93MOL0     C12448   6.442   5.896   7.191  0.1149 -0.1085 -0.2010
   93MOL0     C12449   6.297   5.864   7.234 -0.0477  0.7537  0.3137
   93MOL0     O12450   6.220   5.796   7.143  0.2583 -0.6615  0.2738
   93MOL0     C12451   6.080   5.800   7.166 -0.3621  0.1354 -0.1881
   93MOL0     C12452   6.013   5.681   7.200  0.0187  0.4458 -1.0117
   93MOL0     C12453   5.876   5.682   7.234 -0.7033 -0.1937  0.5136
   93MOL0     C12454   5.798   5.797   7.242 -0.3143 -0.0386 -0.4583
   93MOL0     O12455   5.672   5.806   7.297  0.4852  0.4758  0.1458
   93MOL0     C12456   5.627   5.709   7.389  1.1275 -0.5503 -0.3487
   93MOL0     C12457   5.527   5.784   7.489 -0.0223 -0.5426 -0.7485
   93MOL0     C12458   5.384   5.781   7.433  0.5559 -0.2883  0.5196
   93MOL0     C12459   5.280   5.859   7.531 -0.5844 -0.7345  0.6972
   93MOL0     C12460   5.143   5.866   7.472  0.3149 -0.0832 -0.2254
   93MOL0     C12461   5.043   5.935   7.559 -0.3161  0.4500 -0.7318
   93MOL0     C12462   4.923   5.957   7.479 -0.4290  0.0150 -0.8522
   93MOL0     C12463   4.810   6.037   7.548  0.3072 -0.2842  1.1387
   93MOL0    Cl12464   4.733   5.935   7.677 -0.0811 -0.4501  0.0987
   93MOL0     C12465   5.868   5.920   7.195 -0.2324  0.6252  0.1597
   93MOL0     C12466   6.009   5.914   7.152 -0.1610  0.7694 -0.0833
   93MOL0     O12467   6.256   5.903   7.341 -0.1653 -1.2973  0.0241
   93MOL0     C12468   6.515   6.008   7.238  0.2172  1.2029 -0.3824
   93MOL0     C12469   6.654   6.023   7.212 -0.7127  0.1286  0.0332
   93MOL0     N12470   6.736   6.431   7.114  0.0699  0.7460  0.2761
   93MOL0     N12471   6.638   6.521   7.131  0.5289 -0.1605  0.4041
   93MOL0     C12472   5.482   6.689   6.657 -0.0152  0.1063  0.2431
   93MOL0     C12473   5.357   6.676   6.592 -0.5905 -0.2920  0.1147
   93MOL0     C12474   5.076   6.604   6.213  1.0644 -0.6899  0.1359
   93MOL0     C12475   4.981   6.701   6.270  0.2256  0.7406 -0.0107
   93MOL0     C12476   4.865   6.729   6.206  0.3921 -0.4663 -0.4096
   93MOL0     C12477   4.830   6.677   6.082 -0.8954 -0.2289  0.8897
   93MOL0     O12478   4.727   6.726   6.010  0.1366  0.3789 -0.0807
   93MOL0     C12479   4.597   6.674   6.056 -1.0048  0.1374  0.0001
   93MOL0     C12480   4.498   6.690   5.937 -0.4057  0.1291 -0.4733
   93MOL0     C12481   4.362   6.632   5.973 -0.3017  0.2770 -0.2186
   93MOL0     C12482   4.254   6.665   5.878  0.1847  0.8435  0.6381
   93MOL0     C12483   4.237   6.564   5.775 -0.0852 -0.3756  0.9411
   93MOL0     C12484   4.206   6.476   5.692  0.2285  0.3714  0.9743
   93MOL0     C12485   4.918   6.582   6.023 -0.5170 -0.1841 -0.0338
   93MOL0     C12486   5.035   6.538   6.087 -0.0586  0.1622 -0.1159
   93MOL0     C12487   5.122   6.441   6.005 -0.1557  0.1939 -0.2510
   93MOL0     H12488   5.467   6.586   6.286  1.0006  0.6261  1.3530
   93MOL0     H12489   5.682   6.611   6.408  0.4773  0.4695  0.3068
   93MOL0     H12490   5.868   6.690   6.541  0.6303  1.1889 -0.0577
   93MOL0     H12491   5.756   6.835   6.575 -2.3254 -0.5702  1.8675
   93MOL0     H12492   5.867   6.845   6.795 -0.8900  1.4546 -1.7164
   93MOL0     H12493   5.978   6.878   6.662 -3.0085  1.7709 -1.6709
   93MOL0     H12494   6.042   6.617   6.692  1.6670 -1.6238  1.0529
   93MOL0     H12495   5.948   6.621   6.844 -1.8914  0.7371 -0.8024
   93MOL0     H12496   6.192   6.790   6.753  1.3905  0.1053  1.8061
   93MOL0     H12497   6.134   6.785   6.921 -0.2108  0.0483  0.5191
   93MOL0     H12498   6.172   6.527   6.895  0.7587 -1.0599 -1.1127
   93MOL0     H12499   6.276   6.574   6.758  0.3151 -0.3367  0.5552
   93MOL0     H12500   6.302   6.686   7.040  1.1246 -1.6127  1.3982
   93MOL0     H12501   6.379   6.543   6.980 -2.0676  0.7775  3.1902
   93MOL0     H12502   6.435   6.823   6.882 -2.7471 -0.9606 -1.6026
   93MOL0     H12503   6.498   6.678   6.802  1.0224  1.8116 -0.0038
   93MOL0     H12504   6.633   6.805   6.979  0.6043 -0.8800  0.0950
   93MOL0     H12505   6.517   6.742   7.103 -0.9976 -1.0214 -0.4712
   93MOL0     H12506   6.794   6.636   6.872 -0.6151 -0.7929 -1.3737
   93MOL0     H12507   6.943   6.381   6.851 -2.2895 -1.1861 -0.2435
   93MOL0     H12508   7.030   6.477   6.973 -0.5079 -1.2082  0.3963
   93MOL0     H12509   7.080   6.260   7.035 -2.5291 -2.7836  1.1079
   93MOL0     H12510   6.959   6.312   7.148 -0.1855 -1.7972  1.5267
   93MOL0     H12511   6.914   6.132   6.901  1.9371 -2.0619  0.9702
   93MOL0     H12512   6.790   6.187   7.001 -0.6569 -2.4294 -1.3598
   93MOL0     H12513   6.919   6.097   7.199  3.5598 -2.1079  1.8869
   93MOL0     H12514   7.037   6.026   7.100 -1.0601 -3.5476 -1.6718
   93MOL0     H12515   6.688   5.740   7.011  2.3626  1.2067  0.2668
   93MOL0     H12516   6.461   5.714   7.089 -1.5941  1.4160 -2.1797
   93MOL0     H12517   6.080   5.596   7.210 -0.1270  0.5677  2.1011
   93MOL0     H12518   5.835   5.587   7.265 -1.8061  0.3235  0.6957
   93MOL0     H12519   5.571   5.631   7.337  1.0665  0.0103 -1.1543
   93MOL0     H12520   5.701   5.667   7.457 -0.5392 -1.4267  1.0109
   93MOL0     H12521   5.518   5.731   7.584  0.8466 -0.2799 -0.5093
   93MOL0     H12522   5.556   5.887   7.508 -0.3960 -0.4587 -0.6420
   93MOL0     H12523   5.394   5.831   7.337 -0.1060 -1.1636 -0.0186
   93MOL0     H12524   5.353   5.680   7.404  1.3484 -0.5618  0.6084
   93MOL0     H12525   5.322   5.957   7.555 -3.0087  0.9357 -1.3129
   93MOL0     H12526   5.273   5.806   7.626  0.4365  0.3923  1.4240
   93MOL0     H12527   5.106   5.767   7.444  0.8635 -0.4003  0.1664
   93MOL0     H12528   5.149   5.918   7.376 -0.1548 -2.9211 -1.9255
   93MOL0     H12529   5.021   5.878   7.649  0.0397 -0.2069 -1.0615
   93MOL0     H12530   5.080   6.032   7.595 -0.7502 -0.0859  1.2958
   93MOL0     H12531   4.893   5.863   7.433 -1.9933  0.3519 -0.5950
   93MOL0     H12532   4.951   6.017   7.391 -1.4045 -0.0862 -1.2422
   93MOL0     H12533   4.859   6.122   7.596 -0.8220  0.0841  1.6851
   93MOL0     H12534   4.736   6.083   7.481  0.4579  1.4911  2.1141
   93MOL0     H12535   5.830   6.021   7.196  3.2404  2.1115 -1.1461
   93MOL0     H12536   6.054   6.004   7.113  2.5902 -1.0542 -1.4271
   93MOL0     H12537   6.455   6.073   7.301 -0.2464  1.2961 -0.9141
   93MOL0     H12538   6.708   6.108   7.254 -0.3824 -0.5849  1.0991
   93MOL0     H12539   5.486   6.740   6.753 -3.3255  3.6708 -1.2195
   93MOL0     H12540   5.273   6.699   6.656 -0.6858 -0.5961  0.0971
   93MOL0     H12541   4.991   6.757   6.362 -3.4211 -0.2960  1.1875
   93MOL0     H12542   4.791   6.796   6.248 -0.0788  0.0074 -1.9137
   93MOL0     H12543   4.567   6.734   6.142  3.4042  3.9165 -0.7422
   93MOL0     H12544   4.608   6.568   6.081 -0.2436 -0.2408 -1.7904
   93MOL0     H12545   4.532   6.640   5.846 -0.0215  2.1321 -1.4952
   93MOL0     H12546   4.478   6.792   5.902  1.5969 -0.4912 -3.9051
   93MOL0     H12547   4.332   6.683   6.065  3.9865  0.8579  1.0782
   93MOL0     H12548   4.354   6.523   5.986 -1.3326 -0.2803 -4.1092
   93MOL0     H12549   4.152   6.673   5.915 -0.1510 -2.3716  0.6878
   93MOL0     H12550   4.270   6.764   5.835 -3.6180  1.0730 -0.6305
   93MOL0     H12551   4.188   6.410   5.609  2.0339  0.7345  0.2293
   93MOL0     H12552   4.888   6.560   5.921 -3.1071  2.3342  0.0519
   93MOL0     H12553   5.158   6.357   6.064  1.7011 -0.5250 -2.2942
   93MOL0     H12554   5.064   6.396   5.923  1.2937 -2.4300  0.0672
   93MOL0     H12555   5.210   6.487   5.960  0.5525 -1.2750 -0.4290
   94MOL0     O12556   9.933   2.943   2.035 -0.0222 -0.1518 -0.1079
   94MOL0     C12557   9.938   2.817   2.047  0.2587 -1.0445 -0.6443
   94MOL0     O12558   9.842   2.739   2.115 -0.2646 -0.1936  0.7002
   94MOL0     C12559   9.730   2.788   2.172 -0.1803  0.7535  0.2601
   94MOL0     C12560   9.682   2.713   2.276  0.6883  0.5472  0.0409
   94MOL0     C12561   9.570   2.749   2.347  0.1899 -0.0501 -0.1095
   94MOL0     C12562   9.494   2.861   2.299 -0.9315 -0.8765  0.0830
   94MOL0     O12563   9.379   2.911   2.345  0.2408  0.3689  0.3839
   94MOL0     C12564   9.334   2.873   2.479  0.7250  0.3013 -0.0192
   94MOL0     C12565   9.180   2.912   2.467 -1.3481  0.0797  1.2854
   94MOL0     C12566   9.111   2.896   2.596  0.4131 -0.0547  0.1881
   94MOL0     C12567   8.970   2.925   2.568 -0.4772  0.4429  0.7951
   94MOL0     C12568   8.881   2.921   2.696 -0.1588  0.6389  0.0372
   94MOL0     C12569   8.883   3.049   2.773 -0.1851 -0.2210  0.0854
   94MOL0     C12570   8.795   3.044   2.896  0.3170 -0.1147  0.1315
   94MOL0     C12571   8.886   3.063   3.015  0.2683 -0.3877 -0.8636
   94MOL0     N12572   8.951   2.942   3.054  0.5471  0.6724  0.1290
   94MOL0     C12573   8.934   2.892   3.175  0.1380  0.0359 -0.0226
   94MOL0     C12574   9.028   2.795   3.193 -0.1465  0.2915 -0.5084
   94MOL0     C12575   9.044   2.703   3.322 -0.7388  0.0813  0.6024
   94MOL0     C12576   8.933   2.602   3.349 -0.0939 -0.2654 -0.3196
   94MOL0     C12577   8.897   2.520   3.225 -1.0374 -0.0990 -0.8583
   94MOL0     C12578   8.752   2.463   3.228 -0.1612  0.2247 -0.0716
   94MOL0     O12579   8.713   2.384   3.337 -0.2341 -1.3187  0.6034
   94MOL0     C12580   8.574   2.354   3.346  0.2556  0.7436  0.2411
   94MOL0     C12581   8.468   2.408   3.267 -0.6126 -1.0150 -0.3974
   94MOL0     C12582   8.341   2.368   3.285 -0.1415 -0.0249 -0.0355
   94MOL0     C12583   8.312   2.263   3.377 -0.1831  0.1226  0.1485
   94MOL0     C12584   8.180   2.211   3.402 -0.0985 -0.1900  0.9007
   94MOL0     O12585   8.168   2.128   3.512  1.1201  0.8412  0.0525
   94MOL0     C12586   8.034   2.103   3.554 -0.1540 -0.2484  0.5592
   94MOL0     C12587   7.942   2.063   3.457 -1.0591 -0.0036  0.1665
   94MOL0     C12588   7.809   2.047   3.493 -0.7498  0.7651 -0.7597
   94MOL0     C12589   7.761   2.064   3.627  0.1062  0.2580  0.6185
   94MOL0     O12590   7.631   2.061   3.661 -0.0792  0.1936  0.1202
   94MOL0     C12591   7.533   2.025   3.559  0.7136 -0.0809 -0.0660
   94MOL0     C12592   7.392   2.060   3.619 -0.1872 -0.1053  0.5031
   94MOL0     C12593   7.272   1.997   3.553 -0.5239  0.6156  0.3305
   94MOL0     C12594   7.152   2.002   3.638  0.7638 -0.4497  0.1307
   94MOL0     C12595   7.107   2.146   3.684 -0.8447 -0.1144  0.0392
   94MOL0     C12596   7.087   2.255   3.582  0.1633 -1.4030  0.6312
   94MOL0     C12597   7.058   2.394   3.641 -0.1216  0.9667  0.0048
   94MOL0     C12598   7.184   2.473   3.678  0.4456 -0.2579  0.0795
   94MOL0    Cl12599   7.321   2.485   3.560  0.1255  0.4901 -0.4547
   94MOL0     C12600   7.864   2.104   3.724 -0.0754 -0.2003  0.2886
   94MOL0     C12601   8.001   2.112   3.687  0.8937  0.4812 -0.8364
   94MOL0     O12602   8.092   2.266   3.336 -0.5171 -0.0460 -0.1682
   94MOL0     C12603   8.411   2.209   3.454  1.0123  0.0460  0.2412
   94MOL0     C12604   8.541   2.258   3.440  0.1364 -0.0368  0.2521
   94MOL0     N12605   9.102   2.791   3.071 -0.2628 -0.1040  0.4070
   94MOL0     N12606   9.061   2.883   2.997 -0.2129 -0.1103  0.2374
   94MOL0     C12607   9.546   2.941   2.193  0.4367  0.0298  0.5854
   94MOL0     C12608   9.666   2.904   2.135 -0.3043 -0.2608  0.1014
   94MOL0     C12609  10.050   2.749   1.986 -0.6335  0.0792 -0.2367
   94MOL0     C12610  10.044   2.615   1.961  0.0846 -0.0499  0.1977
   94MOL0     C12611  10.136   2.536   1.894  0.4619  0.3507 -0.3995
   94MOL0     C12612  10.255   2.598   1.848  0.0720  0.1323  0.3737
   94MOL0     O12613  10.330   2.521   1.769  0.9294  0.9775  0.2480
   94MOL0     C12614  10.380   2.583   1.643 -0.2183 -1.1744  0.4229
   94MOL0     C12615  10.391   2.488   1.524  0.1318  0.0272  0.0734
   94MOL0     C12616  10.476   2.359   1.540  0.4948 -0.0067 -0.0047
   94MOL0     C12617  10.614   2.394   1.587 -0.0242 -0.6322  0.7480
   94MOL0     C12618  10.701   2.466   1.491 -0.0256 -0.1868 -0.7518
   94MOL0     C12619  10.777   2.504   1.413  1.0296 -0.4559  0.9016
   94MOL0     C12620  10.276   2.730   1.897  0.0829 -0.0593 -0.1829
   94MOL0     C12621  10.178   2.801   1.964  0.7706 -0.3103  0.5235
   94MOL0     C12622  10.213   2.940   2.005 -0.2069  0.4085  0.0430
   94MOL0     H12623   9.739   2.623   2.293  2.4558  1.5540 -0.2768
   94MOL0     H12624   9.542   2.686   2.431 -1.6655 -0.8162 -1.2506
   94MOL0     H12625   9.350   2.765   2.487 -1.4113 -0.1784 -1.1712
   94MOL0     H12626   9.385   2.930   2.556 -1.1817  0.7413  0.9799
   94MOL0     H12627   9.136   2.850   2.388  2.3522 -1.6434  0.3815
   94MOL0     H12628   9.185   3.018   2.438  0.9949 -0.6895 -1.6320
   94MOL0     H12629   9.157   2.966   2.666 -4.4953  5.1151 -0.9737
   94MOL0     H12630   9.119   2.791   2.626 -0.7002 -0.3393 -0.4502
   94MOL0     H12631   8.952   3.019   2.515  1.5385  1.0042  1.0181
   94MOL0     H12632   8.946   2.854   2.488  0.3889 -0.0149  0.9283
   94MOL0     H12633   8.778   2.899   2.664  0.6679 -0.3189 -2.1882
   94MOL0     H12634   8.905   2.836   2.759 -1.6683  0.3616  0.2647
   94MOL0     H12635   8.987   3.080   2.787 -0.2496  1.0682 -1.9164
   94MOL0     H12636   8.839   3.122   2.705  0.0110  2.3051  2.4773
   94MOL0     H12637   8.733   2.953   2.897 -2.2186  1.4796  2.1281
   94MOL0     H12638   8.718   3.122   2.895 -0.3729 -0.7724  0.3714
   94MOL0     H12639   8.960   3.141   2.996 -0.6946 -0.2486 -4.9958
   94MOL0     H12640   8.820   3.094   3.097 -2.5447 -1.1056 -2.7263
   94MOL0     H12641   8.860   2.922   3.248 -2.1132 -3.2217 -0.7302
   94MOL0     H12642   9.145   2.662   3.330 -1.5416 -2.2583 -0.5954
   94MOL0     H12643   9.034   2.777   3.403 -2.2021  1.3902 -0.6918
   94MOL0     H12644   8.964   2.536   3.430 -0.2434 -1.5343 -1.2567
   94MOL0     H12645   8.841   2.652   3.381 -0.2444 -0.1341 -0.9379
   94MOL0     H12646   8.960   2.431   3.216  1.2849  1.4846 -1.1762
   94MOL0     H12647   8.913   2.577   3.133 -2.2564 -1.2919 -1.8543
   94MOL0     H12648   8.744   2.404   3.136  2.1756 -1.4872  0.7095
   94MOL0     H12649   8.695   2.556   3.217 -1.3955 -0.5722 -0.5625
   94MOL0     H12650   8.479   2.484   3.189  0.4730 -0.4374  0.2874
   94MOL0     H12651   8.258   2.414   3.232  0.4100 -1.1437 -1.9731
   94MOL0     H12652   7.971   2.060   3.353 -4.3739 -1.9036 -0.8736
   94MOL0     H12653   7.750   2.011   3.410  0.3742  0.1927 -1.3249
   94MOL0     H12654   7.547   2.083   3.468  2.2408 -0.9311 -0.4072
   94MOL0     H12655   7.530   1.918   3.535 -1.8792  0.0071 -0.4957
   94MOL0     H12656   7.387   2.027   3.723  0.7274 -0.5783  0.4083
   94MOL0     H12657   7.388   2.169   3.620  0.1377 -0.0036 -2.2610
   94MOL0     H12658   7.257   2.058   3.464  1.0824 -0.3730 -0.6658
   94MOL0     H12659   7.294   1.890   3.539 -1.0319  0.3605  1.3122
   94MOL0     H12660   7.181   1.942   3.726  0.0092  0.5940  1.1118
   94MOL0     H12661   7.073   1.951   3.583  0.1884  0.7742 -0.1997
   94MOL0     H12662   7.170   2.178   3.767 -1.4270 -0.9694  0.8310
   94MOL0     H12663   7.003   2.138   3.720 -2.1409  2.1772 -2.7552
   94MOL0     H12664   7.167   2.268   3.508  0.6164 -1.9047  1.0252
   94MOL0     H12665   6.992   2.238   3.530 -0.6896  3.1186  0.2400
   94MOL0     H12666   6.990   2.376   3.726  0.3195 -1.5741 -0.0973
   94MOL0     H12667   7.006   2.452   3.565 -0.4422  0.6051 -0.0545
   94MOL0     H12668   7.148   2.572   3.708 -0.4075 -0.5579  0.0646
   94MOL0     H12669   7.230   2.430   3.767  0.7523 -0.3909 -0.1406
   94MOL0     H12670   7.838   2.124   3.827  2.6223  0.7976  0.8739
   94MOL0     H12671   8.068   2.139   3.768  1.2091 -3.3295  0.3902
   94MOL0     H12672   8.392   2.134   3.530  0.9578 -1.2991 -1.0574
   94MOL0     H12673   8.627   2.212   3.487 -1.4717 -2.4963  0.9578
   94MOL0     H12674   9.496   3.029   2.153 -0.7489 -2.2563 -3.6270
   94MOL0     H12675   9.704   2.957   2.048  0.4085  0.9653  1.1447
   94MOL0     H12676   9.944   2.577   1.981 -0.6401  1.5238 -0.2330
   94MOL0     H12677  10.120   2.431   1.873  1.6163  0.1983 -0.5524
   94MOL0     H12678  10.483   2.609   1.670 -0.3668 -0.6302  0.4793
   94MOL0     H12679  10.333   2.680   1.624  0.9896 -0.8480 -1.0590
   94MOL0     H12680  10.429   2.555   1.447 -0.5213  0.8829  0.4730
   94MOL0     H12681  10.296   2.441   1.498  1.2334 -0.4135 -3.6769
   94MOL0     H12682  10.461   2.305   1.447 -2.7389 -1.8660  1.4267
   94MOL0     H12683  10.433   2.302   1.623  1.5194 -0.6760  0.0814
   94MOL0     H12684  10.618   2.445   1.684 -1.0081  2.4492 -0.7036
   94MOL0     H12685  10.664   2.299   1.608  0.9324  0.0218  1.5073
   94MOL0     H12686  10.841   2.543   1.337  0.5700 -2.8174 -0.7865
   94MOL0     H12687  10.373   2.773   1.877 -0.0712  0.3459 -0.0717
   94MOL0     H12688  10.318   2.925   2.032 -0.3252  0.1563  0.3639
   94MOL0     H12689  10.207   3.020   1.930  2.4979 -0.4591 -1.1980
   94MOL0     H12690  10.169   2.965   2.102  0.0119 -0.7049  0.4420
   95MOL0     O12691   9.011  11.140  11.112 -0.0674  0.4041 -0.0856
   95MOL0     C12692   9.008  11.177  11.229 -0.5437  0.9099  0.3201
   95MOL0     O12693   8.899  11.221  11.296 -0.1305 -0.7053 -0.0136
   95MOL0     C12694   8.769  11.213  11.261 -0.4783 -0.0049 -0.2098
   95MOL0     C12695   8.721  11.192  11.135 -0.1211  0.2635  0.8423
   95MOL0     C12696   8.584  11.165  11.119  0.6437  0.2865  0.0932
   95MOL0     C12697   8.491  11.170  11.227  0.2804  0.7453  0.3454
   95MOL0     O12698   8.355  11.158  11.214 -0.2160  0.7204  0.1284
   95MOL0     C12699   8.293  11.168  11.088 -0.2508 -0.2026 -0.1743
   95MOL0     C12700   8.141  11.170  11.095 -0.1284  0.0349 -1.0095
   95MOL0     C12701   8.100  11.039  11.148 -1.9536  1.0085  1.2502
   95MOL0     C12702   7.959  11.031  11.176  0.0527 -0.6648 -0.5151
   95MOL0     C12703   7.930  10.880  11.210  0.0618  0.5177  0.5246
   95MOL0     C12704   7.926  10.802  11.080 -0.7581  0.8798 -0.2112
   95MOL0     C12705   7.878  10.658  11.087  0.7483  0.4582 -0.3971
   95MOL0     C12706   7.911  10.575  10.959  0.0942  0.4561 -0.0603
   95MOL0     N12707   7.844  10.631  10.839 -0.4335  0.2182  0.8261
   95MOL0     C12708   7.714  10.609  10.808  1.1072 -0.0252 -0.0399
   95MOL0     C12709   7.684  10.703  10.712 -0.2775 -0.6774 -0.4385
   95MOL0     C12710   7.549  10.722  10.650  0.3911  0.2588 -0.1119
   95MOL0     C12711   7.445  10.614  10.676  0.0538  0.2225  0.1036
   95MOL0     C12712   7.301  10.623  10.605 -0.1144 -0.5037 -0.1629
   95MOL0     C12713   7.312  10.625  10.450 -0.2612  0.0626  0.2484
   95MOL0     O12714   7.289  10.761  10.411 -0.5176 -0.4426 -0.3518
   95MOL0     C12715   7.282  10.811  10.285  0.2094 -1.1153  0.1602
   95MOL0     C12716   7.215  10.932  10.270 -0.6912  0.3704  0.1898
   95MOL0     C12717   7.185  10.979  10.140 -0.8018  0.2105 -0.4686
   95MOL0     C12718   7.220  10.910  10.027 -0.8034  0.2130 -0.0621
   95MOL0     C12719   7.174  10.949   9.893 -0.4649  0.5346 -0.3309
   95MOL0     O12720   7.087  11.052   9.884 -0.4646 -0.4027 -1.1622
   95MOL0     C12721   7.028  11.088   9.775 -0.8767 -0.8171  0.2304
   95MOL0     C12722   6.973  11.217   9.784  0.5902 -0.0691  0.9331
   95MOL0     C12723   6.915  11.277   9.670  0.6634  0.2842  0.4165
   95MOL0     C12724   6.914  11.216   9.546 -0.3595 -1.4035  0.0763
   95MOL0     O12725   6.863  11.289   9.435 -0.2605  0.0728 -0.8028
   95MOL0     C12726   6.733  11.344   9.448  0.6917  0.0974  0.1520
   95MOL0     C12727   6.624  11.246   9.401 -0.7912  1.0458  0.0909
   95MOL0     C12728   6.483  11.305   9.386  0.6899 -0.0988 -0.4227
   95MOL0     C12729   6.461  11.388   9.259  0.1378  0.0208 -0.8673
   95MOL0     C12730   6.319  11.463   9.255 -0.0586 -0.3425  0.0090
   95MOL0     C12731   6.201  11.363   9.252 -0.3073 -0.0385  1.0944
   95MOL0     C12732   6.111  11.395   9.136  0.2087 -0.1697  0.1752
   95MOL0     C12733   6.008  11.506   9.170 -0.7216 -0.3143 -0.6636
   95MOL0    Cl12734   5.871  11.515   9.058 -0.2300 -0.5056 -0.3512
   95MOL0     C12735   6.965  11.094   9.536 -0.3478  0.0586  0.1785
   95MOL0     C12736   7.016  11.020   9.646  0.0712  0.2352 -0.0206
   95MOL0     O12737   7.210  10.864   9.806  0.3011 -1.2432  1.2283
   95MOL0     C12738   7.295  10.796  10.047  0.1068  0.0038 -0.4612
   95MOL0     C12739   7.322  10.742  10.172  0.2666 -0.0837 -0.0626
   95MOL0     N12740   7.798  10.774  10.682  0.8290 -0.3997 -0.9054
   95MOL0     N12741   7.889  10.727  10.761 -0.0310 -0.2289 -0.1794
   95MOL0     C12742   8.533  11.196  11.350  0.4649 -0.5590 -0.0280
   95MOL0     C12743   8.674  11.210  11.366 -0.1178  0.2202 -0.4977
   95MOL0     C12744   9.150  11.174  11.282  0.0179 -0.2257 -0.9729
   95MOL0     C12745   9.250  11.106  11.206  0.2738  1.0852 -0.4905
   95MOL0     C12746   9.381  11.109  11.250 -0.3071 -0.0423  0.1893
   95MOL0     C12747   9.419  11.179  11.363  0.0832 -0.1653 -1.1491
   95MOL0     O12748   9.553  11.186  11.402 -0.3696 -0.0621 -0.1471
   95MOL0     C12749   9.601  11.315  11.447 -0.4510  0.6783 -0.6050
   95MOL0     C12750   9.743  11.293  11.529  0.9684  1.0283  1.1011
   95MOL0     C12751   9.851  11.221  11.447  0.2545 -1.1304  0.5390
   95MOL0     C12752   9.827  11.068  11.440 -1.3493 -0.5004  0.3937
   95MOL0     C12753   9.945  11.005  11.379 -0.3254  0.7308  0.0612
   95MOL0     C12754  10.040  10.955  11.326  0.3610 -0.2411 -0.4383
   95MOL0     C12755   9.320  11.257  11.434  0.1828 -0.2677  0.1498
   95MOL0     C12756   9.184  11.258  11.389  0.5933 -0.1877 -0.2563
   95MOL0     C12757   9.087  11.357  11.450  0.0315 -0.2944 -0.4526
   95MOL0     H12758   8.783  11.211  11.047  0.7772  2.8136  1.9320
   95MOL0     H12759   8.547  11.160  11.017 -1.0014  2.2390  0.5207
   95MOL0     H12760   8.337  11.252  11.034  0.5558 -1.7012 -1.9754
   95MOL0     H12761   8.322  11.079  11.031 -1.1494  0.5502 -1.8762
   95MOL0     H12762   8.087  11.181  11.001 -3.5471  0.2687  0.8388
   95MOL0     H12763   8.114  11.239  11.176 -0.1417 -3.5333  2.3490
   95MOL0     H12764   8.156  11.014  11.239 -0.4013 -1.3453 -0.2292
   95MOL0     H12765   8.133  10.966  11.073 -0.0758  0.5600  2.4584
   95MOL0     H12766   7.946  11.084  11.271  2.5444  1.1465 -1.0594
   95MOL0     H12767   7.896  11.073  11.098  0.9528  1.6104 -0.0958
   95MOL0     H12768   7.991  10.854  11.297  0.1635  2.1137  0.9619
   95MOL0     H12769   7.828  10.861  11.246 -0.1242 -5.1799 -2.0553
   95MOL0     H12770   7.874  10.851  10.997 -2.4580 -1.6831 -0.7885
   95MOL0     H12771   8.031  10.779  11.062 -0.9422  1.1079 -1.6879
   95MOL0     H12772   7.773  10.662  11.117  1.0502 -0.8726  0.9536
   95MOL0     H12773   7.925  10.610  11.173  1.4009  0.5150 -0.7167
   95MOL0     H12774   8.019  10.581  10.949  0.0049  3.3950 -0.1257
   95MOL0     H12775   7.879  10.472  10.977 -1.9251  1.0482  0.0057
   95MOL0     H12776   7.655  10.532  10.857  0.0264 -0.5363 -2.0584
   95MOL0     H12777   7.509  10.820  10.679  1.6072  1.6672 -2.8003
   95MOL0     H12778   7.575  10.736  10.545  2.8933 -0.7710  0.3030
   95MOL0     H12779   7.485  10.526  10.626 -3.3133 -0.3424 -1.8904
   95MOL0     H12780   7.416  10.597  10.781 -2.9255 -2.5701 -0.9970
   95MOL0     H12781   7.239  10.710  10.631  0.0532 -0.2075 -0.7277
   95MOL0     H12782   7.252  10.536  10.649  3.0615 -1.0136  2.7900
   95MOL0     H12783   7.224  10.573  10.412 -2.2570  1.8288  2.1342
   95MOL0     H12784   7.403  10.580  10.410 -1.1637 -1.7793  0.1634
   95MOL0     H12785   7.189  10.993  10.357  0.4726 -2.0813  2.4156
   95MOL0     H12786   7.129  11.072  10.143 -1.1932  0.1391  5.2360
   95MOL0     H12787   6.966  11.265   9.881 -1.9598  0.9882  0.2910
   95MOL0     H12788   6.872  11.376   9.677  1.5370  0.5562  2.5382
   95MOL0     H12789   6.709  11.377   9.549  2.7304 -1.4220  1.1914
   95MOL0     H12790   6.718  11.434   9.388 -1.1220 -0.8744 -0.9392
   95MOL0     H12791   6.655  11.210   9.302  0.1131 -0.4111  0.8625
   95MOL0     H12792   6.628  11.168   9.478  2.3675  3.4308  2.6323
   95MOL0     H12793   6.407  11.228   9.377 -0.8725  1.2896  0.2465
   95MOL0     H12794   6.453  11.373   9.467 -1.5457 -1.8016  0.2785
   95MOL0     H12795   6.474  11.322   9.173  0.7479  0.1904 -0.9098
   95MOL0     H12796   6.540  11.463   9.246 -0.5969  0.5151 -2.6927
   95MOL0     H12797   6.313  11.532   9.171 -1.8677  2.8743  2.5431
   95MOL0     H12798   6.289  11.530   9.337 -0.7204  1.3301 -1.5457
   95MOL0     H12799   6.238  11.262   9.232 -0.2740  0.4078 -1.3475
   95MOL0     H12800   6.152  11.355   9.350  1.1848 -0.1372  1.8629
   95MOL0     H12801   6.058  11.306   9.100  0.2983 -0.5061  0.8679
   95MOL0     H12802   6.179  11.422   9.054  0.8744  3.1959  1.6869
   95MOL0     H12803   5.973  11.493   9.273 -0.3876 -1.9192 -0.7215
   95MOL0     H12804   6.055  11.604   9.157  2.1722 -1.1478  2.1789
   95MOL0     H12805   6.947  11.038   9.445 -3.1378 -1.8041  1.7079
   95MOL0     H12806   7.069  10.927   9.633 -0.0955 -0.4015  3.1472
   95MOL0     H12807   7.315  10.721   9.970 -1.5195 -0.3910 -0.5434
   95MOL0     H12808   7.365  10.642  10.170 -1.1400 -0.7343  0.8037
   95MOL0     H12809   8.468  11.194  11.436  1.6527 -0.8130  0.8895
   95MOL0     H12810   8.715  11.224  11.466  2.0246  3.6682 -1.6598
   95MOL0     H12811   9.217  11.047  11.121 -3.1853  0.7536  0.8915
   95MOL0     H12812   9.445  11.043  11.193 -3.6859  0.2134 -4.4319
   95MOL0     H12813   9.548  11.370  11.525 -0.9657 -0.8914  0.2013
   95MOL0     H12814   9.627  11.368  11.355  1.1733 -1.6871 -1.6291
   95MOL0     H12815   9.713  11.236  11.617  1.9504  0.8217  1.3076
   95MOL0     H12816   9.783  11.389  11.563  2.2489  1.0014 -0.2331
   95MOL0     H12817   9.944  11.243  11.500 -0.0233 -2.8187  1.7837
   95MOL0     H12818   9.841  11.255  11.343  0.0586 -1.8893  0.3068
   95MOL0     H12819   9.796  11.016  11.532 -0.0583  1.1084  1.8023
   95MOL0     H12820   9.748  11.045  11.368 -0.7141 -1.6029  0.0303
   95MOL0     H12821  10.134  10.919  11.290  0.9290 -1.1945  1.7875
   95MOL0     H12822   9.355  11.315  11.519 -3.2456  1.6651  0.4408
   95MOL0     H12823   9.023  11.304  11.521  1.0821  0.5900  1.1988
   95MOL0     H12824   9.140  11.436  11.503 -1.3999 -0.1441  0.8133
   95MOL0     H12825   9.016  11.394  11.375 -3.2528 -0.7209  2.2204
   96MOL0     O12826  10.021   6.260   4.005  0.0196 -0.1735 -0.5791
   96MOL0     C12827  10.031   6.355   4.087  1.5352 -1.0906  0.5210
   96MOL0     O12828  10.140   6.445   4.089  0.0926  0.3593 -0.0409
   96MOL0     C12829  10.266   6.413   4.041 -0.2130  0.2000 -0.2931
   96MOL0     C12830  10.306   6.276   4.029 -0.4520  0.0664 -0.1543
   96MOL0     C12831  10.440   6.239   3.996  0.9698 -1.3468 -1.4267
   96MOL0     C12832  10.530   6.342   3.978 -1.2049 -0.0492  0.4815
   96MOL0     O12833  10.655   6.307   3.928  0.2435  0.5940 -0.5777
   96MOL0     C12834  10.766   6.384   3.967  0.7011 -0.8910  1.3465
   96MOL0     C12835  10.892   6.298   3.980 -0.3798 -0.3228 -0.9335
   96MOL0     C12836  10.955   6.258   3.850 -0.3083  0.2043 -1.5700
   96MOL0     C12837  11.091   6.187   3.857 -0.0875  0.7761 -0.4059
   96MOL0     C12838  11.142   6.130   3.722  0.4576 -0.3061 -0.0682
   96MOL0     C12839  11.266   6.047   3.750 -0.1395  0.1637  0.2898
   96MOL0     C12840  11.329   5.987   3.623 -0.0679  0.1568 -0.2934
   96MOL0     C12841  11.454   5.905   3.659  0.0604  0.1782 -0.3486
   96MOL0     N12842  11.548   5.885   3.542  0.7933 -0.8298 -0.3430
   96MOL0     C12843  11.643   5.981   3.511  0.8579  0.5334 -0.1592
   96MOL0     C12844  11.727   5.921   3.426 -0.1719  0.6303  0.1578
   96MOL0     C12845  11.845   5.992   3.372 -0.1569  0.2439  0.5612
   96MOL0     C12846  11.960   5.889   3.351 -0.1315 -0.4320  0.0613
   96MOL0     C12847  12.085   5.956   3.309 -0.1594 -0.2346 -0.3797
   96MOL0     C12848  12.196   5.855   3.260 -0.1065 -0.6690 -0.4448
   96MOL0     O12849  12.314   5.921   3.201  0.5270  0.0575  0.8319
   96MOL0     C12850  12.445   5.867   3.199  0.7312 -0.0559  0.3227
   96MOL0     C12851  12.537   5.954   3.139 -0.4262  0.5687 -0.1109
   96MOL0     C12852  12.671   5.912   3.126  0.7164 -0.5907 -0.0299
   96MOL0     C12853  12.720   5.787   3.168  0.6246  0.0409  0.9769
   96MOL0     C12854  12.861   5.756   3.176 -0.0982  0.5010 -0.4226
   96MOL0     O12855  12.935   5.843   3.110  0.9512  0.4556  0.1738
   96MOL0     C12856  13.059   5.807   3.063  1.4672 -0.1722 -0.2883
   96MOL0     C12857  13.092   5.677   3.021 -0.1591  0.5157  0.2115
   96MOL0     C12858  13.223   5.653   2.967  1.1515  0.7983  0.5434
   96MOL0     C12859  13.307   5.760   2.961  0.1251 -0.6257 -0.0015
   96MOL0     O12860  13.439   5.733   2.933  0.1285  0.5273  0.2395
   96MOL0     C12861  13.533   5.768   3.032 -0.3395 -0.1965  0.1046
   96MOL0     C12862  13.603   5.902   2.989  0.4859 -0.5055  0.6000
   96MOL0     C12863  13.742   5.892   2.928  0.2738  0.4295  0.2549
   96MOL0     C12864  13.856   5.837   3.017  0.3715 -0.9256  0.5584
   96MOL0     C12865  14.007   5.867   2.980  0.1947  0.3632 -0.4455
   96MOL0     C12866  14.035   6.013   2.976  0.5746 -0.3783  0.2669
   96MOL0     C12867  14.191   6.041   2.961 -0.1188  1.3761 -0.2278
   96MOL0     C12868  14.233   6.179   2.909 -0.1857  0.4700 -0.0774
   96MOL0    Cl12869  14.413   6.202   2.912  0.3517 -0.0332  0.7413
   96MOL0     C12870  13.272   5.889   2.993  0.2549  0.7251 -0.5101
   96MOL0     C12871  13.140   5.913   3.047 -0.0073  0.1030 -0.3042
   96MOL0     O12872  12.899   5.669   3.251 -0.3912 -0.1054 -0.8902
   96MOL0     C12873  12.621   5.703   3.231  0.0886  0.2936  0.9242
   96MOL0     C12874  12.482   5.742   3.239 -0.2027 -0.2464  0.2046
   96MOL0     N12875  11.689   5.790   3.407  0.2521  0.9965  0.3718
   96MOL0     N12876  11.579   5.771   3.480 -0.2572 -0.0822 -0.0448
   96MOL0     C12877  10.491   6.479   3.984 -0.1131  0.2091 -0.0310
   96MOL0     C12878  10.365   6.505   4.013  0.6729 -0.5146 -1.3352
   96MOL0     C12879   9.913   6.394   4.182  0.6891 -0.5942  0.0066
   96MOL0     C12880   9.907   6.527   4.234 -0.5567 -0.9260  0.0095
   96MOL0     C12881   9.810   6.584   4.318  0.3937  0.4301  0.9280
   96MOL0     C12882   9.695   6.499   4.345  0.1990  1.0642  0.3624
   96MOL0     O12883   9.587   6.518   4.426 -0.0865 -0.4000  1.2159
   96MOL0     C12884   9.603   6.614   4.527 -0.3855 -1.0741 -0.3567
   96MOL0     C12885   9.535   6.743   4.496  0.4572  1.0121 -0.3408
   96MOL0     C12886   9.382   6.747   4.498  0.2957 -0.5361 -0.8115
   96MOL0     C12887   9.312   6.691   4.622 -0.5179 -0.7231 -1.0804
   96MOL0     C12888   9.233   6.794   4.695  0.0284 -0.2237  0.6914
   96MOL0     C12889   9.153   6.872   4.741  0.4768  0.7162  0.6419
   96MOL0     C12890   9.702   6.358   4.297 -0.2438 -0.4211 -0.7735
   96MOL0     C12891   9.801   6.307   4.213 -0.1527 -0.3264 -0.0765
   96MOL0     C12892   9.788   6.166   4.167  0.8558  0.3105  0.6273
   96MOL0     H12893  10.250   6.190   4.065 -0.3138  0.1669  0.3031
   96MOL0     H12894  10.471   6.139   3.968  2.2374 -1.1957 -0.6382
   96MOL0     H12895  10.784   6.468   3.899  1.1669  0.7922  3.4402
   96MOL0     H12896  10.749   6.435   4.062 -0.1353 -0.6719  1.0829
   96MOL0     H12897  10.860   6.206   4.029  2.0736 -0.9246 -0.3255
   96MOL0     H12898  10.965   6.357   4.037 -1.4223  2.1002 -1.9578
   96MOL0     H12899  10.968   6.358   3.807 -0.1169  0.9136  0.0319
   96MOL0     H12900  10.885   6.200   3.789  0.2596 -2.4390  0.1556
   96MOL0     H12901  11.157   6.262   3.902 -1.9787  3.1551 -1.3198
   96MOL0     H12902  11.080   6.106   3.929  0.7403  1.3923  0.4406
   96MOL0     H12903  11.072   6.065   3.669  1.3274 -0.9594 -0.4382
   96MOL0     H12904  11.167   6.216   3.659  0.5078 -0.0940  0.2354
   96MOL0     H12905  11.335   6.119   3.795  0.3347 -1.0281  1.5531
   96MOL0     H12906  11.241   5.974   3.827 -2.2123  0.8985  0.3601
   96MOL0     H12907  11.342   6.066   3.549  0.6364  0.0552 -0.2938
   96MOL0     H12908  11.257   5.918   3.578 -0.4234 -0.3748  1.0329
   96MOL0     H12909  11.514   5.937   3.744  0.3974 -2.2415  0.3886
   96MOL0     H12910  11.429   5.803   3.688  2.3585 -0.8398 -1.6645
   96MOL0     H12911  11.637   6.088   3.530  0.3104  0.7342 -1.3663
   96MOL0     H12912  11.823   6.037   3.275 -1.5334 -0.7810  0.3601
   96MOL0     H12913  11.863   6.071   3.445 -4.0687 -0.8134  2.9922
   96MOL0     H12914  11.971   5.819   3.435 -0.7138  0.2531  0.7305
   96MOL0     H12915  11.923   5.828   3.268 -4.3269  2.3010 -0.4014
   96MOL0     H12916  12.115   6.019   3.394 -1.9366  2.0631 -1.3389
   96MOL0     H12917  12.067   6.025   3.226 -2.2979  0.0694  0.2733
   96MOL0     H12918  12.143   5.787   3.192 -1.1190 -0.0554 -0.2922
   96MOL0     H12919  12.239   5.809   3.349 -1.3861  0.6517  0.9113
   96MOL0     H12920  12.504   6.052   3.107  0.2675  0.6446 -0.6239
   96MOL0     H12921  12.744   5.982   3.086 -1.5197  3.5235  2.3290
   96MOL0     H12922  13.020   5.596   3.017  1.1015 -0.8010  2.1866
   96MOL0     H12923  13.253   5.555   2.931 -2.9278  0.8015 -3.8413
   96MOL0     H12924  13.478   5.788   3.125  0.7896  5.0798 -0.0978
   96MOL0     H12925  13.609   5.691   3.048 -1.7163 -1.9882 -1.3905
   96MOL0     H12926  13.541   5.956   2.918 -1.4561 -0.6131  2.1057
   96MOL0     H12927  13.610   5.970   3.075 -0.0960  0.2253  0.0773
   96MOL0     H12928  13.736   5.827   2.840  0.3569 -2.1873  2.0349
   96MOL0     H12929  13.773   5.995   2.908  1.2417 -0.2904 -2.3148
   96MOL0     H12930  13.852   5.729   3.036  1.3521 -0.5298  3.7695
   96MOL0     H12931  13.852   5.864   3.123  2.5506 -0.9671  0.7043
   96MOL0     H12932  14.037   5.810   2.891  1.8979 -1.1172  1.0055
   96MOL0     H12933  14.066   5.826   3.063 -0.2421 -0.3294 -0.4700
   96MOL0     H12934  13.977   6.068   2.901 -2.1941 -4.0272 -0.5435
   96MOL0     H12935  13.989   6.049   3.069 -0.4136  0.7479 -0.6283
   96MOL0     H12936  14.229   5.964   2.894 -2.1082 -0.9301  1.1392
   96MOL0     H12937  14.231   6.020   3.061 -0.1670  3.0835  0.1863
   96MOL0     H12938  14.195   6.183   2.806 -4.3626 -1.2920  1.1975
   96MOL0     H12939  14.185   6.260   2.965  1.0853 -0.3266  2.2886
   96MOL0     H12940  13.326   5.979   2.966 -0.9860  1.7228  0.1892
   96MOL0     H12941  13.099   6.007   3.081  1.0312  0.6729 -0.5656
   96MOL0     H12942  12.647   5.608   3.277 -0.8965  0.0333  0.9559
   96MOL0     H12943  12.407   5.674   3.278 -1.3683 -1.0368 -3.0944
   96MOL0     H12944  10.556   6.565   3.975 -1.7740  1.4670 -0.2800
   96MOL0     H12945  10.333   6.606   4.036  1.5777 -0.6219  0.6071
   96MOL0     H12946   9.993   6.591   4.218  0.4084 -1.2395  3.2088
   96MOL0     H12947   9.806   6.683   4.362 -0.9203 -0.3133  2.6299
   96MOL0     H12948   9.709   6.638   4.543  0.0211 -0.9524 -2.8301
   96MOL0     H12949   9.554   6.572   4.615 -2.3078  3.7836  1.2258
   96MOL0     H12950   9.574   6.776   4.400 -0.3681  2.5651 -0.1808
   96MOL0     H12951   9.563   6.817   4.572 -3.6309  0.3429  2.1662
   96MOL0     H12952   9.358   6.683   4.413  0.4406  0.6414 -1.7556
   96MOL0     H12953   9.344   6.845   4.470  0.8631 -0.7140 -2.2941
   96MOL0     H12954   9.241   6.611   4.598 -2.2932  1.0343 -2.0401
   96MOL0     H12955   9.395   6.661   4.686  1.4126  0.5563 -2.8361
   96MOL0     H12956   9.083   6.952   4.757 -0.4130  1.0619 -3.6352
   96MOL0     H12957   9.625   6.292   4.335  1.4587 -2.7774 -1.2212
   96MOL0     H12958   9.765   6.172   4.060 -1.6261 -0.6859  1.0323
   96MOL0     H12959   9.884   6.112   4.167  1.1604  0.7807 -1.1954
   96MOL0     H12960   9.710   6.108   4.217 -0.5005 -0.5139 -2.2310
   97MOL0     O12961   5.977   7.068   7.015  0.8809 -0.2201 -0.1882
   97MOL0     C12962   6.021   7.182   7.009  0.2964  0.1872  1.0235
   97MOL0     O12963   5.976   7.280   6.931  0.5247 -0.0524  0.0188
   97MOL0     C12964   5.888   7.243   6.828 -0.1347 -0.7780 -0.2135
   97MOL0     C12965   5.934   7.168   6.716 -0.2747 -0.0941 -0.0802
   97MOL0     C12966   5.857   7.140   6.606  0.6508  0.2042 -0.5256
   97MOL0     C12967   5.722   7.169   6.606 -0.7847  0.1926 -0.3750
   97MOL0     O12968   5.663   7.118   6.497 -0.3460 -0.5325 -0.1223
   97MOL0     C12969   5.553   7.192   6.450  0.1355 -0.2112  0.7172
   97MOL0     C12970   5.511   7.166   6.309 -0.3605 -0.3045 -0.4771
   97MOL0     C12971   5.392   7.255   6.276  0.2444 -0.2635  0.6432
   97MOL0     C12972   5.345   7.225   6.127  0.0906 -0.0933  0.1599
   97MOL0     C12973   5.209   7.301   6.094 -0.2799 -0.3824 -0.7334
   97MOL0     C12974   5.145   7.255   5.968  0.3519  0.5761  0.2779
   97MOL0     C12975   5.007   7.321   5.935 -0.4112 -0.4939  0.0106
   97MOL0     C12976   4.956   7.265   5.804 -0.5098  0.2291  0.8203
   97MOL0     N12977   5.012   7.329   5.689  0.6676  0.0226 -0.0821
   97MOL0     C12978   5.098   7.269   5.609 -0.3849 -0.0983  0.2590
   97MOL0     C12979   5.124   7.363   5.519  0.3378 -0.3089  0.9132
   97MOL0     C12980   5.221   7.346   5.411 -0.2793  0.4550 -0.9544
   97MOL0     C12981   5.376   7.328   5.462  1.1098  0.2685  0.4188
   97MOL0     C12982   5.410   7.398   5.594  0.1266  0.1665  0.3255
   97MOL0     C12983   5.526   7.339   5.659  0.3254 -0.1165 -0.2022
   97MOL0     O12984   5.543   7.388   5.791 -0.3458 -0.3823  0.2611
   97MOL0     C12985   5.674   7.378   5.838  1.1570 -0.6361  0.3450
   97MOL0     C12986   5.762   7.476   5.822 -0.1635 -0.6333  0.1605
   97MOL0     C12987   5.895   7.460   5.870  0.1055 -0.0053 -0.4010
   97MOL0     C12988   5.941   7.345   5.920  0.2065  0.2008 -1.5062
   97MOL0     C12989   6.078   7.331   5.973 -0.6236  0.5364 -0.0286
   97MOL0     O12990   6.129   7.205   5.949 -0.3910  0.2776 -0.1462
   97MOL0     C12991   6.241   7.151   6.016  0.1126  0.9178 -0.3498
   97MOL0     C12992   6.306   7.036   5.965 -0.0985 -0.8713 -0.3259
   97MOL0     C12993   6.410   6.976   6.040 -0.2156  0.8311 -0.2856
   97MOL0     C12994   6.458   7.032   6.152 -0.0462  0.9244 -0.4358
   97MOL0     O12995   6.561   6.962   6.211  0.2789  0.4478  0.1656
   97MOL0     C12996   6.591   6.986   6.348  0.2777  0.7456  0.1835
   97MOL0     C12997   6.714   6.900   6.395 -0.0078  0.4612 -0.7193
   97MOL0     C12998   6.676   6.760   6.442  0.3136  0.0605 -0.0893
   97MOL0     C12999   6.797   6.674   6.456 -0.7492  0.3758  1.0156
   97MOL0     C13000   6.761   6.553   6.543  0.4753 -0.5164  0.7638
   97MOL0     C13001   6.882   6.465   6.572  0.6768  1.6978  0.1543
   97MOL0     C13002   6.959   6.409   6.450  0.0010 -0.4860 -0.2319
   97MOL0     C13003   6.915   6.269   6.442  0.8980  0.1388  0.3055
   97MOL0    Cl13004   7.018   6.184   6.322 -0.1727 -0.3209 -0.1607
   97MOL0     C13005   6.398   7.144   6.199 -0.3247  0.5584  0.5043
   97MOL0     C13006   6.297   7.205   6.137  0.1059  0.8459 -0.0479
   97MOL0     O13007   6.143   7.421   6.028 -0.1371 -0.3301  0.4071
   97MOL0     C13008   5.853   7.237   5.930 -0.5304 -0.4561 -0.3775
   97MOL0     C13009   5.717   7.260   5.891 -0.8696  0.0702  0.3732
   97MOL0     N13010   5.062   7.482   5.552 -0.1355 -0.6317  0.0142
   97MOL0     N13011   4.992   7.459   5.651  0.4713 -0.5795 -0.1290
   97MOL0     C13012   5.672   7.252   6.714 -0.1118  0.1272  0.1231
   97MOL0     C13013   5.754   7.288   6.823 -0.2084 -0.0554  0.3133
   97MOL0     C13014   6.129   7.223   7.110 -0.7725  0.1171 -0.4286
   97MOL0     C13015   6.176   7.359   7.094  0.1555  0.3690  0.5729
   97MOL0     C13016   6.255   7.416   7.189 -0.3921  0.0686  0.1024
   97MOL0     C13017   6.306   7.335   7.294 -0.0359 -0.8736 -0.2960
   97MOL0     O13018   6.395   7.377   7.387  0.2457 -0.8316  0.6900
   97MOL0     C13019   6.505   7.459   7.340 -0.0854  0.2018 -0.3583
   97MOL0     C13020   6.484   7.609   7.382 -0.4695 -0.3270 -0.0483
   97MOL0     C13021   6.617   7.675   7.420  0.2364 -0.7318  0.4678
   97MOL0     C13022   6.678   7.757   7.302 -0.0720 -0.3503  0.0507
   97MOL0     C13023   6.732   7.669   7.197 -0.7726 -1.6622 -0.1476
   97MOL0     C13024   6.779   7.594   7.119 -0.3387 -0.0466 -0.5648
   97MOL0     C13025   6.279   7.196   7.302 -0.6508 -0.5066  0.1790
   97MOL0     C13026   6.189   7.140   7.213 -1.0676 -1.2247  0.5334
   97MOL0     C13027   6.154   7.007   7.241 -0.0479 -1.2348 -0.3114
   97MOL0     H13028   6.039   7.140   6.721 -0.7831 -2.0566  0.3763
   97MOL0     H13029   5.893   7.085   6.520  1.7050  1.2123 -0.7580
   97MOL0     H13030   5.470   7.187   6.522 -2.3221  2.0492 -1.7408
   97MOL0     H13031   5.569   7.299   6.462 -4.1604  0.5732  1.3096
   97MOL0     H13032   5.493   7.058   6.302 -1.3903 -0.1004 -1.1417
   97MOL0     H13033   5.591   7.184   6.237 -0.1737 -1.0242 -0.4550
   97MOL0     H13034   5.412   7.362   6.279 -0.7380  0.2822 -4.3572
   97MOL0     H13035   5.306   7.230   6.340 -0.6113 -0.0416 -0.3938
   97MOL0     H13036   5.414   7.263   6.051 -0.7095  1.0844 -0.0102
   97MOL0     H13037   5.332   7.118   6.108  1.1635  0.0976 -2.0318
   97MOL0     H13038   5.135   7.286   6.173 -1.9792 -0.1698 -2.2419
   97MOL0     H13039   5.238   7.407   6.097  1.9050 -0.9403  1.1233
   97MOL0     H13040   5.207   7.274   5.880 -0.6590  1.4141 -0.2734
   97MOL0     H13041   5.122   7.148   5.973 -3.6416  1.2203 -0.8341
   97MOL0     H13042   5.020   7.430   5.933  2.9901 -0.7869  1.2698
   97MOL0     H13043   4.931   7.293   6.009 -0.2914 -1.1051 -0.0925
   97MOL0     H13044   4.991   7.161   5.800  0.5612  0.6126 -0.3163
   97MOL0     H13045   4.847   7.259   5.802 -0.4693 -3.6207 -1.1692
   97MOL0     H13046   5.150   7.174   5.618  1.3857  0.7906  0.0048
   97MOL0     H13047   5.181   7.260   5.357  0.5729  0.9214 -2.4015
   97MOL0     H13048   5.219   7.429   5.340 -1.2676  1.2054 -0.0640
   97MOL0     H13049   5.366   7.219   5.471 -0.8452  0.3429 -0.3205
   97MOL0     H13050   5.448   7.353   5.383 -2.2905  0.4942 -2.8943
   97MOL0     H13051   5.338   7.383   5.675 -1.6483 -0.4588 -1.2898
   97MOL0     H13052   5.434   7.502   5.570  1.6127 -0.5679 -1.6679
   97MOL0     H13053   5.611   7.374   5.599 -0.1490  0.9174 -0.2973
   97MOL0     H13054   5.520   7.230   5.656 -1.6717 -0.1221  1.5500
   97MOL0     H13055   5.738   7.566   5.767 -0.2173 -3.0769 -4.2565
   97MOL0     H13056   5.971   7.535   5.856 -0.1051  0.6523  1.6817
   97MOL0     H13057   6.283   6.991   5.869  0.2322 -1.4027 -0.1622
   97MOL0     H13058   6.470   6.899   5.994  2.0877  1.5662  1.3089
   97MOL0     H13059   6.599   7.094   6.361 -4.3335  1.6071 -1.8500
   97MOL0     H13060   6.498   6.955   6.397 -2.0771  0.2807 -4.1322
   97MOL0     H13061   6.779   6.879   6.309 -0.8747 -1.3032 -0.9802
   97MOL0     H13062   6.768   6.950   6.477  1.5393 -0.5798 -1.0513
   97MOL0     H13063   6.612   6.769   6.530 -2.4862 -1.1161 -1.8908
   97MOL0     H13064   6.608   6.712   6.371  1.3994  0.6277 -1.5805
   97MOL0     H13065   6.866   6.734   6.517  0.3266 -0.4042  0.5920
   97MOL0     H13066   6.848   6.658   6.361 -0.3271 -0.5139  1.3799
   97MOL0     H13067   6.671   6.506   6.503 -1.4252  3.1373  0.3220
   97MOL0     H13068   6.717   6.599   6.632 -1.8994  0.9516 -1.0538
   97MOL0     H13069   6.948   6.526   6.633  1.0339 -0.1648  1.7463
   97MOL0     H13070   6.859   6.392   6.651  3.4323 -0.2343 -0.6843
   97MOL0     H13071   7.066   6.423   6.471 -0.3122  1.1980  0.3709
   97MOL0     H13072   6.922   6.456   6.358 -4.9520 -2.4577  0.4508
   97MOL0     H13073   6.928   6.212   6.535  0.2123 -0.7189 -0.1063
   97MOL0     H13074   6.812   6.263   6.406  1.1373  2.6858 -0.9707
   97MOL0     H13075   6.435   7.194   6.287 -1.1775  4.3820 -1.0939
   97MOL0     H13076   6.260   7.298   6.181  1.1983  1.6093 -0.6782
   97MOL0     H13077   5.876   7.139   5.970 -0.5657 -0.2805  0.0806
   97MOL0     H13078   5.651   7.175   5.905  0.2267 -1.0315 -0.8648
   97MOL0     H13079   5.568   7.281   6.727 -1.3834 -3.8167  0.1825
   97MOL0     H13080   5.726   7.347   6.910  1.0535 -0.2583  0.8653
   97MOL0     H13081   6.139   7.423   7.015  1.0152 -1.2524 -1.2334
   97MOL0     H13082   6.287   7.516   7.164  2.0370  0.6324  4.4114
   97MOL0     H13083   6.529   7.452   7.234  1.7328  2.4801 -0.1721
   97MOL0     H13084   6.597   7.433   7.393 -0.9765  0.7178  1.5691
   97MOL0     H13085   6.415   7.619   7.466  0.6644  3.5506  0.6260
   97MOL0     H13086   6.439   7.661   7.297  0.9357 -1.0986 -1.3284
   97MOL0     H13087   6.690   7.602   7.457  1.6450 -0.8354 -2.2243
   97MOL0     H13088   6.599   7.742   7.505 -1.0441 -1.3796  0.7290
   97MOL0     H13089   6.610   7.815   7.238  1.0733 -0.2833 -1.1496
   97MOL0     H13090   6.755   7.818   7.349  0.6597 -1.4718  0.3278
   97MOL0     H13091   6.813   7.514   7.057 -0.7109 -0.4643 -0.2355
   97MOL0     H13092   6.317   7.148   7.391 -1.6113 -0.3924  0.6636
   97MOL0     H13093   6.191   6.948   7.157 -2.2000 -0.1489 -2.1433
   97MOL0     H13094   6.208   6.969   7.328  3.6925 -2.8913 -3.0797
   97MOL0     H13095   6.045   6.995   7.251 -0.0803 -1.5039 -0.9285
   98MOL0     O13096  10.351   4.658   2.426  0.0208 -0.6755  0.7519
   98MOL0     C13097  10.383   4.697   2.533 -0.0084  0.4899  0.4038
   98MOL0     O13098  10.460   4.808   2.557  0.2382  0.0666 -0.2098
   98MOL0     C13099  10.534   4.877   2.471 -0.3804  0.4484 -0.5974
   98MOL0     C13100  10.589   4.828   2.359  0.8254  0.7481  0.3596
   98MOL0     C13101  10.657   4.908   2.263 -0.7935 -1.1200 -0.4610
   98MOL0     C13102  10.668   5.044   2.289 -0.6308 -0.3171 -0.5472
   98MOL0     O13103  10.753   5.113   2.216 -0.2851 -0.4026  0.7808
   98MOL0     C13104  10.680   5.205   2.134  0.5591  0.4851 -0.0753
   98MOL0     C13105  10.753   5.231   2.000 -0.4041  0.4964  1.4879
   98MOL0     C13106  10.740   5.109   1.917 -0.3192  0.8694  0.0989
   98MOL0     C13107  10.830   5.114   1.787 -0.8978 -0.8771 -0.5332
   98MOL0     C13108  10.825   4.977   1.716 -0.0497  0.0265 -0.0216
   98MOL0     C13109  10.888   4.978   1.578 -0.0553 -0.4076 -0.2577
   98MOL0     C13110  10.837   4.870   1.494 -0.4953  0.7413  1.4472
   98MOL0     C13111  10.843   4.732   1.544 -0.5531  0.2313 -0.6377
   98MOL0     N13112  10.971   4.683   1.589 -0.1042 -0.2925 -0.1189
   98MOL0     C13113  11.012   4.687   1.715  0.0177 -0.0626 -0.3443
   98MOL0     C13114  11.143   4.639   1.719 -0.0742 -0.1459  0.4973
   98MOL0     C13115  11.229   4.643   1.845  0.0737  0.2336  0.1247
   98MOL0     C13116  11.378   4.630   1.818 -0.2098 -0.5673 -0.1689
   98MOL0     C13117  11.423   4.751   1.737  0.2023 -0.2220  1.0193
   98MOL0     C13118  11.554   4.716   1.658 -0.6632  0.1200 -0.2710
   98MOL0     O13119  11.663   4.686   1.753 -0.3360 -0.4853  0.2902
   98MOL0     C13120  11.783   4.680   1.690 -0.7202  0.4866  0.2530
   98MOL0     C13121  11.830   4.780   1.601 -0.2466  0.2480 -0.6466
   98MOL0     C13122  11.965   4.775   1.560  0.0179  0.7262  0.8907
   98MOL0     C13123  12.051   4.667   1.591  0.4205  0.1396 -0.4718
   98MOL0     C13124  12.185   4.679   1.542 -0.1748 -0.0207  0.3957
   98MOL0     O13125  12.268   4.596   1.607  0.4775  0.6905  0.3428
   98MOL0     C13126  12.386   4.567   1.548 -0.3813 -0.4536  0.8866
   98MOL0     C13127  12.396   4.507   1.416  0.7646  0.5631  0.0698
   98MOL0     C13128  12.521   4.454   1.371  0.3414  0.6691 -0.2755
   98MOL0     C13129  12.633   4.462   1.450  0.6886  1.1556 -0.9370
   98MOL0     O13130  12.749   4.388   1.417 -0.1271 -0.8067 -0.4198
   98MOL0     C13131  12.779   4.359   1.280  0.7637  0.4853 -0.0682
   98MOL0     C13132  12.909   4.281   1.296 -1.3868 -0.4263  0.5155
   98MOL0     C13133  12.999   4.301   1.175 -0.4332 -0.1981 -0.2413
   98MOL0     C13134  13.123   4.205   1.186 -0.8076  0.2639 -0.2340
   98MOL0     C13135  13.228   4.272   1.098  0.5574 -0.0222 -0.4464
   98MOL0     C13136  13.351   4.176   1.083 -0.2770 -0.0891  0.1942
   98MOL0     C13137  13.444   4.221   0.969 -0.7351  0.7038 -0.4346
   98MOL0     C13138  13.556   4.123   0.945  0.4466 -0.4371  0.1150
   98MOL0    Cl13139  13.516   3.957   0.915  0.2064  0.4496 -0.2582
   98MOL0     C13140  12.621   4.528   1.578 -0.6928  0.1142  0.5167
   98MOL0     C13141  12.495   4.564   1.632 -0.4457 -0.2412 -0.5243
   98MOL0     O13142  12.203   4.744   1.443 -0.2308 -0.4861  0.2311
   98MOL0     C13143  12.004   4.564   1.676 -0.2030  0.9328 -0.2967
   98MOL0     C13144  11.870   4.574   1.730  0.2063  0.2182  0.3359
   98MOL0     N13145  11.164   4.592   1.590 -0.6720  0.1754 -0.6568
   98MOL0     N13146  11.067   4.632   1.520  0.5321  0.1066 -0.6204
   98MOL0     C13147  10.604   5.101   2.398  0.1739  0.6045 -0.6741
   98MOL0     C13148  10.540   5.013   2.485 -0.2832 -0.2137 -0.2924
   98MOL0     C13149  10.338   4.607   2.638 -0.5446 -0.1182 -0.1636
   98MOL0     C13150  10.420   4.590   2.747  1.0995  0.5312 -0.3903
   98MOL0     C13151  10.383   4.507   2.854  0.2448  0.5229  0.6657
   98MOL0     C13152  10.270   4.417   2.840  0.3708 -0.8990  0.3003
   98MOL0     O13153  10.229   4.314   2.919 -0.2245  0.2406 -0.4969
   98MOL0     C13154  10.203   4.349   3.052  0.1112  0.3520  0.2229
   98MOL0     C13155  10.286   4.270   3.153  0.1400 -0.7478 -0.1222
   98MOL0     C13156  10.262   4.118   3.150  0.3279 -0.3193  0.5300
   98MOL0     C13157  10.376   4.041   3.221  0.5676  0.2725  0.7284
   98MOL0     C13158  10.508   4.037   3.161  0.1383 -0.0709 -0.4674
   98MOL0     C13159  10.623   4.035   3.124 -0.3547 -0.2750 -0.3705
   98MOL0     C13160  10.189   4.436   2.727 -0.2743  0.3164  0.2311
   98MOL0     C13161  10.219   4.528   2.626  0.4821 -0.1599 -0.1409
   98MOL0     C13162  10.108   4.539   2.525 -0.1612  0.5617 -0.5767
   98MOL0     H13163  10.589   4.722   2.339 -2.7652  0.4397  1.3783
   98MOL0     H13164  10.717   4.871   2.181  3.7716  0.8091  1.6740
   98MOL0     H13165  10.578   5.175   2.108  1.2337 -3.2654  0.9369
   98MOL0     H13166  10.677   5.296   2.195  2.1187  0.6838 -0.2513
   98MOL0     H13167  10.861   5.247   2.012 -0.3931  2.6169 -0.7298
   98MOL0     H13168  10.723   5.321   1.946  1.2288  0.5857  0.6731
   98MOL0     H13169  10.638   5.089   1.881 -0.2578  1.7823 -0.6139
   98MOL0     H13170  10.766   5.023   1.979 -3.6352  0.3996  1.0499
   98MOL0     H13171  10.785   5.191   1.724 -0.8390  0.7205  1.2935
   98MOL0     H13172  10.932   5.137   1.820 -2.0604  0.7729  2.3059
   98MOL0     H13173  10.870   4.905   1.784  1.1903  1.7210  1.0318
   98MOL0     H13174  10.719   4.956   1.699 -0.4832  2.8293 -1.3095
   98MOL0     H13175  10.872   5.072   1.525  3.8260 -0.7694 -2.3706
   98MOL0     H13176  10.995   4.961   1.593  0.0070 -1.9419 -2.1083
   98MOL0     H13177  10.901   4.867   1.405 -4.4976 -0.7221 -1.7223
   98MOL0     H13178  10.737   4.890   1.455  0.0451  2.8264  1.0145
   98MOL0     H13179  10.777   4.708   1.628  0.3544 -0.1181 -0.0018
   98MOL0     H13180  10.816   4.666   1.462  2.4977 -1.6848 -0.2924
   98MOL0     H13181  10.968   4.730   1.805 -2.5413  0.0762 -1.5654
   98MOL0     H13182  11.197   4.728   1.905 -1.6699 -0.7934  0.7398
   98MOL0     H13183  11.191   4.562   1.908  0.3224 -1.1967 -1.4979
   98MOL0     H13184  11.428   4.625   1.915  1.3780 -0.2684 -0.9373
   98MOL0     H13185  11.403   4.538   1.764 -0.6436  0.1015 -1.5862
   98MOL0     H13186  11.447   4.842   1.793 -0.6890  1.1532 -0.7097
   98MOL0     H13187  11.353   4.783   1.659  0.0939  1.0300  1.5968
   98MOL0     H13188  11.574   4.802   1.594 -2.5797 -1.4725 -3.2581
   98MOL0     H13189  11.538   4.629   1.593 -0.4585  1.0601 -1.6266
   98MOL0     H13190  11.759   4.854   1.568 -2.6380 -0.7755  1.7157
   98MOL0     H13191  11.998   4.850   1.489  2.1836  0.2287  1.3001
   98MOL0     H13192  12.304   4.499   1.359  0.6468 -0.3880  0.3871
   98MOL0     H13193  12.525   4.401   1.276  2.4736  0.6263 -0.2130
   98MOL0     H13194  12.703   4.300   1.228 -0.9115  2.0365  0.5014
   98MOL0     H13195  12.782   4.451   1.221  1.4115 -0.1380 -1.0340
   98MOL0     H13196  12.959   4.308   1.389  0.4363  0.4573 -0.6835
   98MOL0     H13197  12.892   4.175   1.318  3.2855 -0.7135  4.4313
   98MOL0     H13198  12.952   4.273   1.080  1.1258 -0.0969 -1.0951
   98MOL0     H13199  13.018   4.408   1.166 -1.3974 -0.0685 -0.8783
   98MOL0     H13200  13.094   4.110   1.141  0.0046 -0.5260  0.8458
   98MOL0     H13201  13.158   4.190   1.289  1.0171 -4.9912 -1.3216
   98MOL0     H13202  13.266   4.369   1.132 -1.1517  1.5520 -2.7218
   98MOL0     H13203  13.181   4.283   1.000 -0.4330  1.5517  0.1681
   98MOL0     H13204  13.403   4.147   1.174  0.0902 -4.6119 -1.2281
   98MOL0     H13205  13.296   4.083   1.068 -3.1569  1.4005  0.6100
   98MOL0     H13206  13.488   4.319   0.990 -0.8474  0.8633 -0.9300
   98MOL0     H13207  13.391   4.213   0.873  1.9847 -1.4676 -1.9117
   98MOL0     H13208  13.608   4.148   0.852  2.2578  0.1227  1.2317
   98MOL0     H13209  13.623   4.135   1.031 -1.4034  0.2949  1.5269
   98MOL0     H13210  12.701   4.537   1.650 -0.3473  4.2749 -0.0954
   98MOL0     H13211  12.483   4.582   1.738 -0.0216  4.0645 -1.0287
   98MOL0     H13212  12.073   4.488   1.712 -0.4311  1.9020  2.4297
   98MOL0     H13213  11.833   4.501   1.801 -1.7393 -1.8215 -2.5816
   98MOL0     H13214  10.598   5.210   2.404 -0.5109  0.5017  1.3616
   98MOL0     H13215  10.476   5.055   2.562 -1.5522 -0.5219 -1.1528
   98MOL0     H13216  10.501   4.661   2.759 -0.0780  1.6919  1.2434
   98MOL0     H13217  10.446   4.498   2.941  2.0052 -3.8080 -0.7539
   98MOL0     H13218  10.097   4.325   3.065 -0.2715  0.7571 -1.7861
   98MOL0     H13219  10.205   4.457   3.067 -2.4902  0.1773  2.7324
   98MOL0     H13220  10.268   4.297   3.257  0.5983  0.5539 -0.3639
   98MOL0     H13221  10.391   4.283   3.123 -0.3994  0.4376 -1.5675
   98MOL0     H13222  10.242   4.091   3.046 -1.0393  0.1902  0.6381
   98MOL0     H13223  10.168   4.101   3.203  0.5668 -1.8444  0.4902
   98MOL0     H13224  10.385   4.070   3.326 -1.5952  1.0924  0.7483
   98MOL0     H13225  10.339   3.939   3.236  0.8477  0.4238  2.5890
   98MOL0     H13226  10.727   4.036   3.099 -0.8614 -0.2080 -2.6299
   98MOL0     H13227  10.096   4.381   2.717  0.4138 -0.6459 -1.3247
   98MOL0     H13228  10.163   4.498   2.440  0.8221 -0.0613  0.3234
   98MOL0     H13229  10.021   4.476   2.544 -0.5124  1.0797 -0.4740
   98MOL0     H13230  10.074   4.641   2.504 -2.6307 -0.3805 -1.4931
   99MOL0     O13231   4.045   0.622   9.339 -0.0962  0.1004 -0.1199
   99MOL0     C13232   4.070   0.549   9.239 -0.6079 -0.2847 -0.1130
   99MOL0     O13233   4.202   0.510   9.214  0.2798 -0.3574  0.5940
   99MOL0     C13234   4.301   0.505   9.312  1.3235  0.3350 -0.0431
   99MOL0     C13235   4.439   0.524   9.277  0.3744  0.9542 -0.2142
   99MOL0     C13236   4.548   0.493   9.362 -0.5681  0.1354  0.8610
   99MOL0     C13237   4.522   0.427   9.481 -0.2235  0.1436 -0.9725
   99MOL0     O13238   4.624   0.389   9.568  0.3192  0.0197 -0.0013
   99MOL0     C13239   4.649   0.481   9.673 -0.2643 -0.4147 -0.7934
   99MOL0     C13240   4.748   0.422   9.779  0.8004  0.0537  0.7926
   99MOL0     C13241   4.801   0.520   9.873 -0.2580 -0.3779  0.0890
   99MOL0     C13242   4.901   0.456   9.967 -0.3094 -0.6286  0.3954
   99MOL0     C13243   4.941   0.552  10.080  0.6655 -1.1747  0.7048
   99MOL0     C13244   5.060   0.492  10.159 -0.1482  0.0789  0.8538
   99MOL0     C13245   5.050   0.346  10.198  0.4902 -0.7232 -0.6226
   99MOL0     C13246   5.153   0.309  10.310 -0.1947  0.3280  0.3970
   99MOL0     N13247   5.157   0.160  10.349  0.8838  1.0928 -0.0186
   99MOL0     C13248   5.211   0.047  10.284  0.0230  1.0229  0.4526
   99MOL0     C13249   5.192  -0.052  10.369  0.3457  0.5193  0.0745
   99MOL0     C13250   5.211  -0.210  10.379  0.1615  0.1751  0.6022
   99MOL0     C13251   5.354  -0.259  10.375 -0.6249 -0.5947  0.0928
   99MOL0     C13252   5.427  -0.232  10.244  0.1708  0.3487 -0.3215
   99MOL0     C13253   5.559  -0.308  10.228  0.7276  1.0306 -0.2339
   99MOL0     O13254   5.631  -0.316  10.347  0.9968  0.2666  0.1171
   99MOL0     C13255   5.718  -0.208  10.372 -1.2485  0.7114  0.0215
   99MOL0     C13256   5.744  -0.093  10.288 -1.3306 -0.4287 -0.5515
   99MOL0     C13257   5.833   0.009  10.334 -0.4544  0.5953  0.8790
   99MOL0     C13258   5.908  -0.010  10.448  0.0731  0.4874 -0.1313
   99MOL0     C13259   6.014   0.088  10.474  0.0595  0.4894  0.6888
   99MOL0     O13260   6.015   0.204  10.410  0.8456  0.3101  0.0883
   99MOL0     C13261   6.083   0.307  10.474  0.3601  0.9207 -0.6368
   99MOL0     C13262   6.190   0.369  10.410 -0.5765 -0.0568 -0.0968
   99MOL0     C13263   6.261   0.467  10.484 -0.1664 -0.2564  0.0539
   99MOL0     C13264   6.222   0.507  10.618 -0.4100 -0.1863  1.0710
   99MOL0     O13265   6.269   0.608  10.696 -0.2590  0.2826  0.3619
   99MOL0     C13266   6.402   0.660  10.671  0.0352 -0.0881 -0.6521
   99MOL0     C13267   6.424   0.785  10.746  0.2742  0.1453  0.0493
   99MOL0     C13268   6.569   0.832  10.727  0.3533 -0.6986  0.0234
   99MOL0     C13269   6.585   0.943  10.831 -0.0701 -0.1477  0.1531
   99MOL0     C13270   6.738   0.968  10.840 -0.7650  0.6395 -0.5455
   99MOL0     C13271   6.786   1.076  10.753 -0.1005 -0.6416  0.0163
   99MOL0     C13272   6.941   1.080  10.768  0.6113 -0.0797 -0.6417
   99MOL0     C13273   7.010   1.180  10.689  0.4959  0.1524  0.5040
   99MOL0    Cl13274   7.183   1.158  10.662  0.0719  0.0115  0.0020
   99MOL0     C13275   6.124   0.436  10.683  0.1450 -0.5003  0.9994
   99MOL0     C13276   6.050   0.340  10.609  1.0050 -0.4320  0.0911
   99MOL0     O13277   6.089   0.056  10.564  0.3434  0.7756  0.3651
   99MOL0     C13278   5.877  -0.118  10.534  0.9914  0.6166 -1.3086
   99MOL0     C13279   5.789  -0.214  10.490  0.5740  0.0563 -0.4021
   99MOL0     N13280   5.125   0.006  10.481 -0.3414 -0.0581  0.3946
   99MOL0     N13281   5.104   0.130  10.467  0.1943 -0.5547  0.4598
   99MOL0     C13282   4.394   0.409   9.521  0.7512  0.0937  0.5856
   99MOL0     C13283   4.285   0.445   9.436  0.2956 -0.3596 -0.8325
   99MOL0     C13284   3.968   0.501   9.152  0.3470  0.4022 -0.3718
   99MOL0     C13285   4.012   0.437   9.035  0.1322  0.3611 -0.9933
   99MOL0     C13286   3.920   0.386   8.941  0.1943  1.0811 -0.5983
   99MOL0     C13287   3.781   0.390   8.968 -0.7812  0.2625 -0.6961
   99MOL0     O13288   3.699   0.325   8.883 -0.1710  0.4837 -0.7790
   99MOL0     C13289   3.558   0.355   8.883  0.5579  0.4317  0.3851
   99MOL0     C13290   3.483   0.269   8.798 -0.1160 -0.9039  0.4727
   99MOL0     C13291   3.331   0.280   8.799 -0.0287  0.4596 -0.7567
   99MOL0     C13292   3.278   0.417   8.765  0.3591 -0.8308 -0.0198
   99MOL0     C13293   3.131   0.419   8.788 -0.8834  0.2840  0.3089
   99MOL0     C13294   3.013   0.419   8.809 -1.2003  0.4861  0.2004
   99MOL0     C13295   3.742   0.449   9.092  0.2038 -0.1822 -0.2536
   99MOL0     C13296   3.830   0.515   9.177 -0.1898 -0.0105 -0.3653
   99MOL0     C13297   3.759   0.581   9.293 -0.1510 -0.0484 -0.4337
   99MOL0     H13298   4.463   0.571   9.183 -0.8929  1.2118 -0.4262
   99MOL0     H13299   4.653   0.509   9.339  0.0770 -2.6985  1.4951
   99MOL0     H13300   4.696   0.567   9.625  0.8841 -1.0333 -0.8133
   99MOL0     H13301   4.557   0.517   9.718 -0.3767 -0.9894 -0.5543
   99MOL0     H13302   4.823   0.361   9.727 -1.4426 -3.8946  1.7369
   99MOL0     H13303   4.701   0.340   9.835 -1.6403  0.1621 -0.9403
   99MOL0     H13304   4.710   0.563   9.916 -2.6974 -2.1411 -2.8400
   99MOL0     H13305   4.850   0.602   9.819  1.0242 -2.1666 -1.6274
   99MOL0     H13306   4.863   0.364  10.012  1.2449 -1.8031 -0.5812
   99MOL0     H13307   4.985   0.440   9.899 -0.8920  1.9607 -1.0353
   99MOL0     H13308   4.962   0.654  10.045  3.5010 -1.1187  2.2717
   99MOL0     H13309   4.854   0.563  10.146  0.3295 -0.3380  0.1463
   99MOL0     H13310   5.152   0.490  10.100 -2.8622 -1.7906 -3.8572
   99MOL0     H13311   5.092   0.556  10.242  0.0205  0.9337  0.1431
   99MOL0     H13312   5.066   0.285  10.109  2.0914  0.8468 -1.4636
   99MOL0     H13313   4.945   0.331  10.228  0.1269  1.0924 -0.8698
   99MOL0     H13314   5.252   0.336  10.272 -1.0006 -0.0499 -2.1772
   99MOL0     H13315   5.136   0.374  10.396  0.1498  3.2422 -1.5961
   99MOL0     H13316   5.269   0.034  10.193  0.7874  1.4675  0.8695
   99MOL0     H13317   5.172  -0.257  10.469 -0.4341 -2.1075 -0.7677
   99MOL0     H13318   5.147  -0.255  10.302  0.7025 -0.0778  0.2898
   99MOL0     H13319   5.410  -0.216  10.458  1.8657  4.5727 -3.6992
   99MOL0     H13320   5.350  -0.366  10.396 -0.4730 -0.3630  1.3242
   99MOL0     H13321   5.444  -0.126  10.220 -0.0085 -0.0759 -2.5545
   99MOL0     H13322   5.363  -0.262  10.161 -2.8672  3.9173  0.4478
   99MOL0     H13323   5.619  -0.279  10.142 -0.0074 -1.0156 -1.5143
   99MOL0     H13324   5.533  -0.411  10.201  4.3226  0.1807 -0.9458
   99MOL0     H13325   5.691  -0.073  10.196 -2.2558  0.6547  0.1855
   99MOL0     H13326   5.849   0.101  10.279  0.8378 -0.5578 -0.7800
   99MOL0     H13327   6.230   0.328  10.318  3.1749 -2.0961  2.2051
   99MOL0     H13328   6.354   0.507  10.445  1.4024 -0.9875  2.7679
   99MOL0     H13329   6.482   0.589  10.694 -0.4885 -0.6794 -0.6254
   99MOL0     H13330   6.416   0.681  10.565  3.1355  0.9571 -0.1506
   99MOL0     H13331   6.354   0.856  10.701 -1.4157 -1.8526 -0.6172
   99MOL0     H13332   6.388   0.771  10.848  1.2875 -0.1251  0.3764
   99MOL0     H13333   6.642   0.752  10.747  0.8494 -0.5299 -1.0388
   99MOL0     H13334   6.579   0.852  10.620 -1.6690 -0.9638 -0.2500
   99MOL0     H13335   6.546   0.903  10.925 -0.6806  2.6595  1.1847
   99MOL0     H13336   6.526   1.034  10.816  2.7110  1.8971  0.8090
   99MOL0     H13337   6.799   0.878  10.833 -2.0971 -0.3103 -0.2500
   99MOL0     H13338   6.763   1.001  10.942  0.5224  2.4191 -1.3802
   99MOL0     H13339   6.755   1.051  10.651 -3.0082 -0.5748  0.8128
   99MOL0     H13340   6.747   1.173  10.785  0.6059  0.3021 -1.7955
   99MOL0     H13341   6.980   0.984  10.735  1.2391 -0.2223  0.4567
   99MOL0     H13342   6.981   1.091  10.869  4.3669  2.7993 -2.1955
   99MOL0     H13343   6.974   1.188  10.586  0.1150 -2.2861  0.3893
   99MOL0     H13344   6.982   1.279  10.725  0.1463  2.0858 -4.3027
   99MOL0     H13345   6.091   0.467  10.781  1.7460  0.2906  1.3284
   99MOL0     H13346   5.978   0.284  10.668  0.1697  1.4946  0.9966
   99MOL0     H13347   5.931  -0.133  10.628  0.8869 -2.1958 -1.6081
   99MOL0     H13348   5.762  -0.291  10.562  1.8712 -0.2150 -0.1722
   99MOL0     H13349   4.367   0.354   9.610 -0.8299 -4.6877 -2.4240
   99MOL0     H13350   4.194   0.418   9.487 -0.5149  0.0039 -2.0441
   99MOL0     H13351   4.117   0.438   9.006  0.5409  0.1849  0.3721
   99MOL0     H13352   3.959   0.344   8.849 -0.8619 -0.6871 -0.2891
   99MOL0     H13353   3.549   0.461   8.856 -2.5836  0.5102  1.3822
   99MOL0     H13354   3.516   0.349   8.984  0.4034 -0.4093  0.2789
   99MOL0     H13355   3.513   0.165   8.810  0.7065 -1.0020 -1.9185
   99MOL0     H13356   3.516   0.292   8.696 -1.5241  2.8767  0.6994
   99MOL0     H13357   3.304   0.253   8.902 -0.5953 -0.8682 -1.2463
   99MOL0     H13358   3.288   0.204   8.734 -1.9767 -0.7392  1.7395
   99MOL0     H13359   3.328   0.491   8.829 -1.4456  0.1966  0.2451
   99MOL0     H13360   3.297   0.441   8.659  0.2797 -2.2572 -0.3772
   99MOL0     H13361   2.907   0.424   8.828 -1.1361 -1.1807  1.1449
   99MOL0     H13362   3.638   0.448   9.123  0.9624 -0.5578  2.4826
   99MOL0     H13363   3.653   0.589   9.271 -0.3790 -0.8020  0.3331
   99MOL0     H13364   3.784   0.526   9.384  2.9077  1.7745 -0.0290
   99MOL0     H13365   3.802   0.681   9.310  1.5141 -1.0074  1.4926
  100MOL0     O13366   4.852   0.807   7.981 -0.3437 -0.1689  0.0295
  100MOL0     C13367   4.867   0.842   7.866  0.5275 -0.0861 -0.1472
  100MOL0     O13368   4.976   0.831   7.789  0.3883  0.3365 -0.0436
  100MOL0     C13369   5.089   0.787   7.853  0.7105  0.4936  0.1073
  100MOL0     C13370   5.144   0.850   7.974 -0.0010  0.2283  0.4905
  100MOL0     C13371   5.268   0.800   8.023 -0.3697 -0.0554  0.4803
  100MOL0     C13372   5.320   0.681   7.968  0.2257  0.4405 -0.5084
  100MOL0     O13373   5.430   0.626   8.025  0.0728  0.6147 -1.2417
  100MOL0     C13374   5.495   0.512   7.960  0.4858 -0.3291 -0.3772
  100MOL0     C13375   5.596   0.425   8.029  0.3971 -0.0382 -0.5150
  100MOL0     C13376   5.720   0.510   8.076  0.1294  0.6718 -0.2985
  100MOL0     C13377   5.812   0.432   8.174 -0.2861  0.0503  0.0246
  100MOL0     C13378   5.946   0.526   8.173 -0.7308 -0.4824  0.0537
  100MOL0     C13379   6.056   0.481   8.269 -0.3896 -0.5928  0.0197
  100MOL0     C13380   6.001   0.473   8.415 -0.4339  0.3407  0.3315
  100MOL0     C13381   6.092   0.449   8.529 -0.9393 -0.4160 -0.4009
  100MOL0     N13382   6.235   0.405   8.511  1.2569  0.6774  0.2097
  100MOL0     C13383   6.338   0.487   8.489 -0.6889 -0.9027 -0.2855
  100MOL0     C13384   6.442   0.404   8.465  0.4912  0.2316  0.2308
  100MOL0     C13385   6.587   0.456   8.446 -0.2462  0.5153 -0.3557
  100MOL0     C13386   6.675   0.443   8.569 -0.6193 -0.3879  0.0618
  100MOL0     C13387   6.712   0.290   8.576  1.2879  0.3803  0.3675
  100MOL0     C13388   6.832   0.243   8.658  0.3694 -0.5272 -0.0337
  100MOL0     O13389   6.942   0.321   8.624 -0.3041  0.5032 -0.4045
  100MOL0     C13390   7.064   0.279   8.670  0.4260  0.5944 -0.2128
  100MOL0     C13391   7.172   0.365   8.635 -0.6225 -0.7238  1.1940
  100MOL0     C13392   7.300   0.328   8.666 -0.6940  0.1777  0.4532
  100MOL0     C13393   7.324   0.221   8.741  0.8614  1.3466 -0.5608
  100MOL0     C13394   7.465   0.188   8.782  0.6383  0.6785  0.5420
  100MOL0     O13395   7.495   0.056   8.836  0.4864 -0.1538  0.2746
  100MOL0     C13396   7.625   0.055   8.888  0.2031 -1.1456  1.0110
  100MOL0     C13397   7.743   0.027   8.814  0.1207 -0.8229  0.4244
  100MOL0     C13398   7.867   0.032   8.867 -0.3247 -0.5842  0.4764
  100MOL0     C13399   7.902   0.090   8.990 -0.3220  0.9727  0.2102
  100MOL0     O13400   8.030   0.108   9.040 -0.2925 -0.4772  0.0620
  100MOL0     C13401   8.124   0.132   8.937  1.0535 -0.0841 -0.0595
  100MOL0     C13402   8.237   0.210   9.012 -0.0369 -0.2057  0.4266
  100MOL0     C13403   8.211   0.361   9.035 -0.6456 -0.5834 -0.1078
  100MOL0     C13404   8.087   0.374   9.114 -0.5405  0.9364 -0.0901
  100MOL0     C13405   8.068   0.520   9.164 -0.6362  0.7744  0.6704
  100MOL0     C13406   7.939   0.552   9.234 -0.3045  0.0333  0.7244
  100MOL0     C13407   7.929   0.696   9.277  0.4781 -0.3614 -0.3311
  100MOL0     C13408   7.793   0.747   9.313  0.2286 -0.1824  0.4089
  100MOL0    Cl13409   7.684   0.633   9.404  0.1429  0.0336 -0.6202
  100MOL0     C13410   7.791   0.120   9.064  0.0125  0.3647 -0.4327
  100MOL0     C13411   7.663   0.102   9.018  0.9671 -0.3662  0.3828
  100MOL0     O13412   7.542   0.281   8.775  0.1728  0.7270 -0.4147
  100MOL0     C13413   7.221   0.136   8.785 -0.3572  0.7988 -0.5193
  100MOL0     C13414   7.092   0.161   8.742 -0.4687  0.8017 -0.8391
  100MOL0     N13415   6.410   0.269   8.480 -0.2938 -0.6257 -0.4610
  100MOL0     N13416   6.288   0.278   8.517 -0.2494 -0.4100  0.2603
  100MOL0     C13417   5.265   0.635   7.851 -0.0885  0.9806 -0.4979
  100MOL0     C13418   5.152   0.689   7.792  0.1757  0.1879 -0.6329
  100MOL0     C13419   4.745   0.875   7.791 -0.9735 -0.2250  0.8983
  100MOL0     C13420   4.745   0.856   7.652  0.5921 -0.4026 -0.2589
  100MOL0     C13421   4.631   0.882   7.570  0.6385  0.1855  0.2429
  100MOL0     C13422   4.511   0.922   7.627  0.5600 -0.0714 -0.5835
  100MOL0     O13423   4.385   0.944   7.573 -0.0642 -0.0167 -0.1615
  100MOL0     C13424   4.349   0.873   7.456  0.9811 -0.3707  0.3492
  100MOL0     C13425   4.233   0.953   7.404  0.9206  0.3841 -1.2786
  100MOL0     C13426   4.147   0.872   7.304 -0.3487 -1.0254 -0.1341
  100MOL0     C13427   4.013   0.951   7.284  0.2858  1.1825 -0.4412
  100MOL0     C13428   3.921   0.931   7.391 -0.9713  0.3506 -0.1858
  100MOL0     C13429   3.839   0.917   7.480  0.7969 -0.4668  0.3398
  100MOL0     C13430   4.511   0.936   7.769  0.1345 -0.4574 -0.2707
  100MOL0     C13431   4.623   0.923   7.849 -0.5637  0.7771  0.0552
  100MOL0     C13432   4.601   0.945   7.994  0.4439  0.6377 -0.6807
  100MOL0     H13433   5.108   0.932   8.035 -0.5498 -1.4020  2.4967
  100MOL0     H13434   5.318   0.856   8.101 -0.2987  0.7218 -0.1087
  100MOL0     H13435   5.413   0.448   7.927 -0.9089 -1.3284  4.2595
  100MOL0     H13436   5.555   0.551   7.877  1.9477  0.3046  0.9309
  100MOL0     H13437   5.633   0.349   7.960  3.9039 -0.6031  1.7368
  100MOL0     H13438   5.542   0.367   8.104  1.6833  0.2528  0.6925
  100MOL0     H13439   5.681   0.596   8.130 -2.7347 -1.3295  1.0462
  100MOL0     H13440   5.777   0.518   7.982 -0.2303  3.1585 -0.3659
  100MOL0     H13441   5.769   0.421   8.275  1.3803  2.5872  1.1112
  100MOL0     H13442   5.842   0.331   8.143  1.7640 -0.1169  2.1985
  100MOL0     H13443   5.991   0.501   8.076  1.7820 -0.3855  1.1016
  100MOL0     H13444   5.925   0.632   8.191  2.8016  0.3308  0.2186
  100MOL0     H13445   6.101   0.382   8.258 -0.8377 -1.2089  2.8462
  100MOL0     H13446   6.137   0.553   8.257 -1.2605  1.1524  3.4330
  100MOL0     H13447   5.933   0.388   8.413  1.3338 -1.1031 -0.9957
  100MOL0     H13448   5.946   0.567   8.426 -0.4975  0.5442 -1.5190
  100MOL0     H13449   6.109   0.544   8.580 -1.6324 -1.5924  2.1363
  100MOL0     H13450   6.048   0.377   8.599 -2.3774  0.9660  0.1807
  100MOL0     H13451   6.344   0.596   8.490 -1.6713 -0.8337  1.5025
  100MOL0     H13452   6.628   0.406   8.358  0.4424  0.5172 -0.0407
  100MOL0     H13453   6.570   0.563   8.431 -1.1013  0.1616 -2.2149
  100MOL0     H13454   6.760   0.509   8.546 -1.4570 -0.5521 -4.3895
  100MOL0     H13455   6.616   0.484   8.651  0.4876  0.8629  0.2623
  100MOL0     H13456   6.739   0.256   8.475  0.7150  3.5349 -0.9765
  100MOL0     H13457   6.617   0.244   8.605  0.9670  1.0743  0.4374
  100MOL0     H13458   6.860   0.143   8.626  4.3152  0.2109  0.5822
  100MOL0     H13459   6.797   0.245   8.762 -1.1185 -0.5274 -0.5040
  100MOL0     H13460   7.147   0.456   8.580  1.1287  0.5685  2.4281
  100MOL0     H13461   7.383   0.387   8.628 -0.2476  0.5193  1.9071
  100MOL0     H13462   7.731  -0.022   8.718 -1.0080 -0.3302  0.3020
  100MOL0     H13463   7.937  -0.016   8.799 -0.0424  1.6650 -0.9080
  100MOL0     H13464   8.158   0.036   8.896 -2.1444 -1.0818 -0.6232
  100MOL0     H13465   8.079   0.189   8.855  1.5203  0.8186  0.2960
  100MOL0     H13466   8.254   0.161   9.108  0.6827  0.7104  0.7966
  100MOL0     H13467   8.329   0.192   8.956 -1.9232  1.0762 -3.3788
  100MOL0     H13468   8.280   0.418   9.098 -1.7792  2.0109 -1.0472
  100MOL0     H13469   8.198   0.408   8.937  1.7786 -1.3457 -0.8534
  100MOL0     H13470   8.097   0.318   9.207 -1.1501  0.7685 -0.1237
  100MOL0     H13471   7.995   0.343   9.063 -0.9456  0.7998  0.7088
  100MOL0     H13472   8.077   0.589   9.080  0.0459  1.4574  1.2969
  100MOL0     H13473   8.148   0.541   9.235  0.1570  0.4034 -0.0833
  100MOL0     H13474   7.856   0.518   9.172  1.2258 -2.8584  0.0963
  100MOL0     H13475   7.929   0.493   9.325  0.0880 -1.6473 -0.2926
  100MOL0     H13476   7.967   0.766   9.202 -0.3852 -0.7563 -1.1588
  100MOL0     H13477   7.991   0.711   9.366 -2.6059  1.5862  1.6872
  100MOL0     H13478   7.812   0.833   9.379 -3.4016  1.8888 -0.9531
  100MOL0     H13479   7.740   0.785   9.226 -1.1026 -0.2646  1.1471
  100MOL0     H13480   7.826   0.161   9.159  0.3478 -0.1069 -0.3514
  100MOL0     H13481   7.583   0.130   9.086  0.3272  0.3546 -0.6418
  100MOL0     H13482   7.235   0.052   8.852  0.4800 -0.6154 -2.3653
  100MOL0     H13483   7.019   0.087   8.772  2.1744 -0.9852  1.7442
  100MOL0     H13484   5.295   0.545   7.797 -1.3567  2.3327 -3.7456
  100MOL0     H13485   5.108   0.666   7.696  1.7268  0.4650 -1.4486
  100MOL0     H13486   4.839   0.833   7.601  0.9693  1.9835 -0.7662
  100MOL0     H13487   4.639   0.884   7.462 -1.8959  1.0438  0.0026
  100MOL0     H13488   4.317   0.770   7.474  0.7438 -0.3518  0.0496
  100MOL0     H13489   4.422   0.855   7.377  0.3767 -1.2272 -0.0422
  100MOL0     H13490   4.261   1.041   7.346  1.3621 -0.5323 -2.4826
  100MOL0     H13491   4.167   0.981   7.487 -1.4151 -3.7608 -1.4565
  100MOL0     H13492   4.122   0.768   7.322 -2.3730 -1.1074 -2.7837
  100MOL0     H13493   4.206   0.876   7.212  1.0115 -1.9702  0.6692
  100MOL0     H13494   4.029   1.057   7.264 -1.0232  1.2313 -1.2753
  100MOL0     H13495   3.965   0.907   7.196  1.0921 -0.5060 -0.0862
  100MOL0     H13496   3.766   0.910   7.559 -0.1041  1.7793 -0.2111
  100MOL0     H13497   4.416   0.961   7.815  1.0003 -0.2449  1.4717
  100MOL0     H13498   4.692   0.963   8.051  1.2369 -3.5727 -0.2522
  100MOL0     H13499   4.520   1.018   8.010  1.0772  1.1803  0.1282
  100MOL0     H13500   4.556   0.853   8.033  1.0119  0.1413 -1.1944
  101MOL0     O13501   4.801   4.307   9.573  0.5633  0.0622  0.2023
  101MOL0     C13502   4.781   4.235   9.668  0.3022  0.0778  0.7370
  101MOL0     O13503   4.855   4.134   9.713 -0.5275  0.1484 -0.1856
  101MOL0     C13504   4.977   4.101   9.658 -0.0975 -0.5827  0.4931
  101MOL0     C13505   5.079   4.049   9.734 -0.6429  0.1950  0.0007
  101MOL0     C13506   5.205   4.016   9.684 -0.0106 -1.3103  0.4527
  101MOL0     C13507   5.244   4.062   9.559 -0.2447 -0.4148  0.3686
  101MOL0     O13508   5.369   4.059   9.507 -0.2001  0.0465 -0.0365
  101MOL0     C13509   5.469   3.988   9.588 -0.1411 -0.2626 -0.3075
  101MOL0     C13510   5.595   4.022   9.520 -0.9049 -0.2807 -0.4501
  101MOL0     C13511   5.727   3.978   9.584 -0.4261  1.2542 -0.0480
  101MOL0     C13512   5.815   4.094   9.638 -0.1431 -0.6756 -0.0319
  101MOL0     C13513   5.942   4.028   9.701 -0.1609 -1.9032 -0.7275
  101MOL0     C13514   6.057   4.129   9.734  0.7299 -0.0103  0.5244
  101MOL0     C13515   6.181   4.049   9.791 -0.4551 -0.1703  0.7618
  101MOL0     C13516   6.284   4.028   9.687 -0.3046  0.1926 -0.6335
  101MOL0     N13517   6.238   3.949   9.577 -0.9896  0.3467  0.2432
  101MOL0     C13518   6.207   3.818   9.596  0.4017  0.0181  0.6696
  101MOL0     C13519   6.191   3.770   9.466 -0.0405 -0.3451  0.4313
  101MOL0     C13520   6.179   3.622   9.422 -0.0754 -0.1870 -0.0393
  101MOL0     C13521   6.300   3.564   9.349  0.8767 -0.3685  0.3788
  101MOL0     C13522   6.427   3.594   9.425 -0.5944  0.1232 -0.0518
  101MOL0     C13523   6.549   3.518   9.372 -0.0233 -0.2321 -0.1483
  101MOL0     O13524   6.578   3.564   9.236  0.5404 -0.9523  0.9711
  101MOL0     C13525   6.700   3.548   9.179 -0.7472 -0.3134  0.7540
  101MOL0     C13526   6.718   3.557   9.039  0.6598 -0.3439  0.2258
  101MOL0     C13527   6.850   3.546   8.984  0.5965 -0.5975 -1.2344
  101MOL0     C13528   6.962   3.520   9.058  0.8144  0.0557 -0.4404
  101MOL0     C13529   7.097   3.522   9.007  0.3642 -0.3217  0.1106
  101MOL0     O13530   7.116   3.489   8.874 -0.0694  0.2058  0.0844
  101MOL0     C13531   7.251   3.492   8.827 -0.8131 -0.8621 -0.9172
  101MOL0     C13532   7.355   3.407   8.870  0.5966 -1.7169  0.6157
  101MOL0     C13533   7.483   3.427   8.816 -0.0029 -0.2057  0.9833
  101MOL0     C13534   7.510   3.521   8.720  0.3305 -0.8079  0.4046
  101MOL0     O13535   7.636   3.526   8.660  0.1777  0.2230  0.4113
  101MOL0     C13536   7.685   3.629   8.577  0.1977 -0.2195 -0.0671
  101MOL0     C13537   7.828   3.608   8.535 -0.4018  0.3869  0.8584
  101MOL0     C13538   7.929   3.633   8.651  0.1057  0.2397  0.5533
  101MOL0     C13539   7.972   3.774   8.683 -0.1583 -0.1310 -1.1464
  101MOL0     C13540   8.101   3.759   8.772 -1.0539  0.3287 -0.7789
  101MOL0     C13541   8.136   3.887   8.848 -0.5640 -0.3459 -0.2708
  101MOL0     C13542   8.264   3.855   8.925  0.6278 -0.4378 -0.4569
  101MOL0     C13543   8.384   3.857   8.840 -0.0270 -0.5145  0.0948
  101MOL0    Cl13544   8.511   3.914   8.942 -0.2382 -0.2212  0.1074
  101MOL0     C13545   7.406   3.609   8.681  0.1255 -0.1088  0.3362
  101MOL0     C13546   7.280   3.600   8.740  0.8272  0.4754  0.7820
  101MOL0     O13547   7.182   3.565   9.086 -0.3745  0.3760  0.0871
  101MOL0     C13548   6.944   3.505   9.194  0.2535  0.0057 -0.4076
  101MOL0     C13549   6.820   3.525   9.255 -0.2264 -0.6073  0.3108
  101MOL0     N13550   6.218   3.878   9.379  0.4089  1.0811 -0.5245
  101MOL0     N13551   6.233   3.985   9.447 -0.2871  0.3800  0.9085
  101MOL0     C13552   5.143   4.111   9.470  0.0539  0.2062 -1.4012
  101MOL0     C13553   5.010   4.115   9.522  0.1047  0.5716  0.2983
  101MOL0     C13554   4.658   4.271   9.736 -0.2301  0.1015 -1.1808
  101MOL0     C13555   4.682   4.315   9.872  0.3613  0.1380 -0.0291
  101MOL0     C13556   4.575   4.348   9.958 -0.0914 -0.4215  0.4728
  101MOL0     C13557   4.439   4.337   9.919 -0.3382 -0.2677  0.4286
  101MOL0     O13558   4.340   4.369  10.011 -0.0344 -0.3484 -0.3953
  101MOL0     C13559   4.205   4.354   9.978  0.0722 -0.8157  1.0819
  101MOL0     C13560   4.118   4.433  10.073  0.7434  0.8221 -0.1720
  101MOL0     C13561   4.144   4.588  10.077 -0.3913 -0.1755  0.0765
  101MOL0     C13562   4.136   4.657  10.208  0.2292  0.0983  0.9663
  101MOL0     C13563   4.069   4.783  10.190 -0.1150 -0.3362 -1.1911
  101MOL0     C13564   4.007   4.891  10.190 -0.3678  0.2390 -0.2605
  101MOL0     C13565   4.414   4.288   9.785 -0.8603 -0.4465  0.2947
  101MOL0     C13566   4.521   4.245   9.698  1.5944  0.7207 -0.3624
  101MOL0     C13567   4.498   4.192   9.563  0.2926  0.8809  0.0783
  101MOL0     H13568   5.062   4.034   9.840 -0.9970 -0.5180 -0.1540
  101MOL0     H13569   5.272   3.972   9.757  0.6253 -0.7400  0.2213
  101MOL0     H13570   5.480   4.036   9.686  0.4754  0.9206 -0.9292
  101MOL0     H13571   5.461   3.879   9.593  0.9508 -0.4499 -1.8160
  101MOL0     H13572   5.596   4.131   9.511  0.4825 -0.3796 -1.7979
  101MOL0     H13573   5.587   3.982   9.419 -1.2495  1.0546 -0.9734
  101MOL0     H13574   5.781   3.923   9.506  0.8209  1.7530  0.4285
  101MOL0     H13575   5.710   3.913   9.670 -0.8873  3.2773  1.4546
  101MOL0     H13576   5.864   4.148   9.556  1.9342 -1.1435  0.8274
  101MOL0     H13577   5.770   4.150   9.720  1.8876 -0.0024  0.6936
  101MOL0     H13578   5.907   3.975   9.791 -2.8334  0.3373 -0.2973
  101MOL0     H13579   5.982   3.960   9.626  3.8433 -1.5097  0.7940
  101MOL0     H13580   6.092   4.184   9.647 -0.1426  1.1013  0.8500
  101MOL0     H13581   6.016   4.197   9.809  0.6092  0.4805  0.0196
  101MOL0     H13582   6.149   3.954   9.835  2.3409 -1.2263  0.7526
  101MOL0     H13583   6.224   4.100   9.878 -0.8399  0.0890  0.8021
  101MOL0     H13584   6.319   4.123   9.647  2.2671 -1.3334 -2.3888
  101MOL0     H13585   6.372   3.986   9.737 -0.2349  1.9239  0.7543
  101MOL0     H13586   6.197   3.753   9.682 -1.6291 -2.5593 -1.3544
  101MOL0     H13587   6.148   3.553   9.501 -2.3141  1.7062  0.8681
  101MOL0     H13588   6.094   3.624   9.353  0.1282  0.0486 -0.2853
  101MOL0     H13589   6.279   3.458   9.331 -0.2572  0.1572 -1.8446
  101MOL0     H13590   6.305   3.601   9.246  0.5774 -0.6181  0.2726
  101MOL0     H13591   6.413   3.561   9.528 -0.4497 -2.1698 -0.7112
  101MOL0     H13592   6.456   3.699   9.429  0.1873 -0.0823 -0.1509
  101MOL0     H13593   6.529   3.411   9.381 -2.3501  0.0808 -0.9734
  101MOL0     H13594   6.633   3.545   9.438 -1.6943 -0.6547  2.2732
  101MOL0     H13595   6.630   3.557   8.975  0.4756 -0.7329  0.4845
  101MOL0     H13596   6.863   3.567   8.878 -2.5830 -0.9828 -1.7861
  101MOL0     H13597   7.318   3.326   8.931 -3.1416 -0.6133  0.0644
  101MOL0     H13598   7.564   3.355   8.820 -1.0160 -1.6026 -1.3300
  101MOL0     H13599   7.634   3.638   8.480  1.2056  0.3731 -0.5616
  101MOL0     H13600   7.681   3.729   8.619  1.5930 -0.7593  1.4529
  101MOL0     H13601   7.855   3.512   8.491  0.3136  0.5111  1.0028
  101MOL0     H13602   7.851   3.676   8.452 -5.3955  1.5735  0.1261
  101MOL0     H13603   7.875   3.595   8.738 -0.2289  1.2723  0.8096
  101MOL0     H13604   8.025   3.584   8.629  0.0541  0.7062 -0.8456
  101MOL0     H13605   7.898   3.841   8.727  1.3272  0.0356  1.2614
  101MOL0     H13606   8.007   3.815   8.588  0.5365 -0.2667 -0.9542
  101MOL0     H13607   8.191   3.747   8.710  1.4495  0.2001  2.5773
  101MOL0     H13608   8.093   3.670   8.834  0.5156 -1.1190 -2.5382
  101MOL0     H13609   8.138   3.979   8.788 -0.5036 -0.2508 -0.1255
  101MOL0     H13610   8.056   3.903   8.921  1.9772  1.5973  2.3237
  101MOL0     H13611   8.260   3.763   8.984  0.7526 -0.8702 -1.1186
  101MOL0     H13612   8.264   3.945   8.987  0.0114  0.8496 -2.2408
  101MOL0     H13613   8.400   3.755   8.804 -1.7389 -0.6133 -0.4722
  101MOL0     H13614   8.376   3.921   8.752  2.5109  1.6079  1.2683
  101MOL0     H13615   7.419   3.676   8.598 -1.1941 -0.2358  0.0060
  101MOL0     H13616   7.197   3.664   8.713 -1.3165 -1.2315  2.8876
  101MOL0     H13617   7.026   3.480   9.260 -0.3654  0.9524  0.7706
  101MOL0     H13618   6.825   3.514   9.363 -0.1904 -1.1697  0.2570
  101MOL0     H13619   5.184   4.138   9.373  0.7541  0.5809 -1.0158
  101MOL0     H13620   4.937   4.153   9.450 -1.1785 -0.8532  0.7919
  101MOL0     H13621   4.783   4.332   9.907  0.6334  2.6363 -1.7728
  101MOL0     H13622   4.607   4.382  10.056  2.3529 -0.8345 -0.0987
  101MOL0     H13623   4.180   4.247   9.985  0.6503 -0.9842  0.7197
  101MOL0     H13624   4.175   4.382   9.876 -1.4072 -1.1321  1.4021
  101MOL0     H13625   4.115   4.382  10.170 -0.3333  1.5369  0.1829
  101MOL0     H13626   4.016   4.416  10.037  0.9468 -0.5796 -0.1650
  101MOL0     H13627   4.064   4.627  10.014 -0.8102  1.2158  1.4262
  101MOL0     H13628   4.238   4.611  10.026  0.8793 -2.3174  1.2953
  101MOL0     H13629   4.067   4.593  10.263  0.5244 -2.0631 -1.0119
  101MOL0     H13630   4.231   4.658  10.263  1.0874  2.1566 -0.4063
  101MOL0     H13631   3.957   4.985  10.180  2.4774  1.8854  0.0098
  101MOL0     H13632   4.311   4.274   9.753 -1.3665 -0.4273  1.8556
  101MOL0     H13633   4.390   4.184   9.551 -0.1549  2.4182  2.3966
  101MOL0     H13634   4.535   4.261   9.486 -0.5225  2.5505  1.1208
  101MOL0     H13635   4.543   4.092   9.561 -2.4178 -0.4308 -0.3110
  102MOL0     O13636  11.266   9.028  10.283  0.4177  0.0788  0.2898
  102MOL0     C13637  11.233   9.120  10.204 -0.3512  0.3780 -0.7215
  102MOL0     O13638  11.300   9.172  10.103  0.3584  0.2627  0.5857
  102MOL0     C13639  11.438   9.179  10.093  0.0027 -0.3690 -0.3835
  102MOL0     C13640  11.527   9.140  10.192 -0.2992 -0.1255 -0.3756
  102MOL0     C13641  11.662   9.125  10.174 -0.5237  1.0099 -0.9581
  102MOL0     C13642  11.725   9.155  10.051 -0.5814  0.6473 -0.5449
  102MOL0     O13643  11.854   9.128  10.019  0.2193  0.4479 -0.6611
  102MOL0     C13644  11.959   9.176  10.101 -1.0911 -0.3251  0.0075
  102MOL0     C13645  12.099   9.127  10.048  0.4920 -0.0961  0.4025
  102MOL0     C13646  12.130   8.975  10.070 -0.0240  0.0381  0.0944
  102MOL0     C13647  12.273   8.937  10.006  0.6442 -0.5077 -0.5708
  102MOL0     C13648  12.333   8.800  10.044  0.5793  0.8171 -0.5851
  102MOL0     C13649  12.482   8.782   9.990 -0.0452  0.0757  0.4404
  102MOL0     C13650  12.536   8.662  10.048  0.1745 -0.4556  0.6849
  102MOL0     C13651  12.689   8.665  10.070  0.5535  0.3992 -0.4549
  102MOL0     N13652  12.763   8.760  10.148  0.0131 -0.4232  0.0508
  102MOL0     C13653  12.847   8.734  10.255  0.5194 -0.1239  0.5379
  102MOL0     C13654  12.913   8.846  10.280 -0.2899  0.1755 -0.0134
  102MOL0     C13655  12.987   8.879  10.403  0.2880 -0.3997 -0.6229
  102MOL0     C13656  13.081   9.000  10.392  0.6616 -0.2096  0.2316
  102MOL0     C13657  13.213   8.968  10.307 -0.4079  0.1029 -0.4081
  102MOL0     C13658  13.274   9.099  10.246  0.0996  0.3428  0.5223
  102MOL0     O13659  13.291   9.203  10.344  0.3892 -0.1058  0.6356
  102MOL0     C13660  13.410   9.223  10.403  0.2376 -1.1624 -0.9936
  102MOL0     C13661  13.439   9.338  10.474 -0.8057  1.4221  0.2301
  102MOL0     C13662  13.567   9.347  10.536  0.1048  0.6223 -0.5315
  102MOL0     C13663  13.670   9.247  10.512 -0.0438 -0.0254 -0.4880
  102MOL0     C13664  13.816   9.271  10.540  0.5792  0.1509  0.9155
  102MOL0     O13665  13.906   9.174  10.510  0.2455  0.2929  0.2128
  102MOL0     C13666  14.043   9.182  10.535 -0.5516  0.7327  0.4222
  102MOL0     C13667  14.123   9.294  10.489  0.5855 -0.5341 -1.0302
  102MOL0     C13668  14.260   9.294  10.510  1.0792  0.6980 -0.2208
  102MOL0     C13669  14.315   9.185  10.571 -0.5010  0.2533  0.2052
  102MOL0     O13670  14.450   9.170  10.579 -0.2861  0.4551  0.1000
  102MOL0     C13671  14.532   9.286  10.604  0.1773  0.1622  0.3024
  102MOL0     C13672  14.674   9.255  10.580 -1.1145  0.3102  0.3030
  102MOL0     C13673  14.694   9.222  10.428 -0.5760  0.5460  0.4113
  102MOL0     C13674  14.835   9.185  10.386 -0.2311  0.2686  0.2763
  102MOL0     C13675  14.930   9.302  10.402 -0.6100  0.3684  0.3399
  102MOL0     C13676  15.062   9.259  10.340 -0.2979  0.0855  0.6385
  102MOL0     C13677  15.171   9.361  10.362 -0.3926 -0.8418  0.4744
  102MOL0     C13678  15.287   9.333  10.264 -0.3181 -0.3764  0.9397
  102MOL0    Cl13679  15.411   9.462  10.292 -0.1092  0.1401  0.0291
  102MOL0     C13680  14.238   9.073  10.613 -0.4168  0.3359 -0.8097
  102MOL0     C13681  14.106   9.071  10.589  0.7547  0.1739 -0.0706
  102MOL0     O13682  13.842   9.384  10.576 -0.3750  0.4598  0.0714
  102MOL0     C13683  13.640   9.129  10.447 -0.2974 -1.0489 -0.4806
  102MOL0     C13684  13.510   9.118  10.398 -0.1726 -0.2261  0.1488
  102MOL0     N13685  12.866   8.950  10.188 -1.1636  0.4390  0.3727
  102MOL0     N13686  12.779   8.894  10.113 -0.0425 -0.2263 -0.1475
  102MOL0     C13687  11.637   9.206   9.952  0.9391  0.4489 -0.9490
  102MOL0     C13688  11.497   9.214   9.968 -0.8463  0.1055 -0.9260
  102MOL0     C13689  11.081   9.138  10.202 -0.0025  0.4096  0.1238
  102MOL0     C13690  11.008   9.063  10.296 -0.0990 -0.4749 -0.5962
  102MOL0     C13691  10.866   9.092  10.311 -1.3534  0.4994  0.4830
  102MOL0     C13692  10.800   9.173  10.221  0.3273 -0.3280  0.1933
  102MOL0     O13693  10.660   9.195  10.231  0.2454  0.0439 -0.5142
  102MOL0     C13694  10.574   9.138  10.331 -0.4473 -0.8288  0.5371
  102MOL0     C13695  10.435   9.190  10.293 -0.1419  0.2637 -0.0752
  102MOL0     C13696  10.342   9.155  10.413 -0.3608 -0.3052  0.2076
  102MOL0     C13697  10.293   9.019  10.442 -0.1961 -1.3326 -0.4738
  102MOL0     C13698  10.206   8.977  10.339  0.0731  0.4355 -0.6394
  102MOL0     C13699  10.130   8.945  10.243  0.6230 -0.3537 -0.6959
  102MOL0     C13700  10.871   9.243  10.129  0.1296 -0.8038  0.0902
  102MOL0     C13701  11.011   9.230  10.111  1.4620 -0.0096  0.5452
  102MOL0     C13702  11.069   9.311   9.997  1.2714 -0.1269 -0.1405
  102MOL0     H13703  11.478   9.118  10.287 -1.8600 -0.1992 -1.1661
  102MOL0     H13704  11.716   9.077  10.255 -2.3225  0.6553  0.0877
  102MOL0     H13705  11.967   9.285  10.105 -4.3571  0.1515 -2.3868
  102MOL0     H13706  11.940   9.134  10.200 -1.1343  0.7955  0.4911
  102MOL0     H13707  12.175   9.173  10.111  0.5780 -1.6915  1.5288
  102MOL0     H13708  12.113   9.151   9.942  3.5118 -2.4557  0.1153
  102MOL0     H13709  12.055   8.910  10.024  0.8807 -0.3348 -0.8833
  102MOL0     H13710  12.126   8.939  10.174 -1.2091  1.1658  0.4613
  102MOL0     H13711  12.268   8.951   9.898  0.2177  1.2704 -0.3540
  102MOL0     H13712  12.342   9.017  10.035  1.7240 -2.1920  1.8811
  102MOL0     H13713  12.325   8.777  10.151  0.7311 -1.8734 -1.0906
  102MOL0     H13714  12.278   8.716  10.000  2.5090 -0.7406 -0.1380
  102MOL0     H13715  12.477   8.778   9.880 -0.1485  0.0135  0.4482
  102MOL0     H13716  12.547   8.866  10.017  2.3873 -1.0896 -1.3838
  102MOL0     H13717  12.507   8.576   9.988  2.1641 -0.6062 -0.1313
  102MOL0     H13718  12.497   8.641  10.148  1.4140 -1.1541  1.0527
  102MOL0     H13719  12.715   8.570  10.116 -0.3653 -0.2237 -1.1850
  102MOL0     H13720  12.724   8.658   9.967  0.7131 -1.9340 -0.2966
  102MOL0     H13721  12.838   8.645  10.316 -1.4850  0.4726  1.1738
  102MOL0     H13722  12.907   8.904  10.473  0.0874 -0.3678 -0.8650
  102MOL0     H13723  13.042   8.791  10.438  0.3311  1.0250  3.4627
  102MOL0     H13724  13.030   9.079  10.335  3.7578  0.0113 -2.5582
  102MOL0     H13725  13.103   9.048  10.487  0.9331  3.9072 -1.7086
  102MOL0     H13726  13.178   8.895  10.233 -2.0039 -2.6321  2.7702
  102MOL0     H13727  13.279   8.919  10.379 -2.7553 -2.5466  0.1088
  102MOL0     H13728  13.198   9.130  10.174  0.0418 -0.1558  0.3596
  102MOL0     H13729  13.367   9.092  10.189  1.5110  1.8202  2.5223
  102MOL0     H13730  13.361   9.414  10.482 -0.0150  2.9411 -3.7691
  102MOL0     H13731  13.588   9.429  10.604 -1.9438 -0.2139  1.2499
  102MOL0     H13732  14.068   9.377  10.446 -0.9758  0.0429  1.8119
  102MOL0     H13733  14.310   9.379  10.464  0.0432  1.6547  0.3439
  102MOL0     H13734  14.500   9.354  10.525  0.0100 -1.6957 -1.2914
  102MOL0     H13735  14.522   9.324  10.706 -1.0781 -0.6448  0.5026
  102MOL0     H13736  14.744   9.334  10.606  0.8597 -1.3991  0.4520
  102MOL0     H13737  14.705   9.163  10.631  1.8052 -0.6466 -2.8063
  102MOL0     H13738  14.625   9.139  10.408  0.8849 -0.7414  0.5767
  102MOL0     H13739  14.668   9.305  10.361 -1.7164 -0.0101  0.1294
  102MOL0     H13740  14.820   9.146  10.285 -2.1647 -1.6053  1.1886
  102MOL0     H13741  14.871   9.095  10.436 -1.9133 -0.8966 -0.4997
  102MOL0     H13742  14.942   9.309  10.510 -4.5694  0.9458  0.8738
  102MOL0     H13743  14.892   9.398  10.366  0.2210  1.8245  3.0731
  102MOL0     H13744  15.091   9.158  10.370  2.2343 -0.3232 -2.6132
  102MOL0     H13745  15.043   9.252  10.233 -2.2054 -1.3497  1.0157
  102MOL0     H13746  15.202   9.365  10.467  1.0281  0.1698  0.0388
  102MOL0     H13747  15.126   9.457  10.336 -2.4836 -1.6226  1.0139
  102MOL0     H13748  15.347   9.246  10.290 -1.5570 -0.6987  2.8780
  102MOL0     H13749  15.253   9.328  10.160 -1.5631 -3.5134  1.4046
  102MOL0     H13750  14.293   8.992  10.661  0.0788  0.9353 -0.3508
  102MOL0     H13751  14.038   8.991  10.617  0.7168 -0.9037 -2.9106
  102MOL0     H13752  13.714   9.053  10.423  1.2535  0.4865 -0.7566
  102MOL0     H13753  13.489   9.021  10.356  1.2556  1.4580 -5.2331
  102MOL0     H13754  11.673   9.240   9.856 -0.2804 -0.2923 -1.6861
  102MOL0     H13755  11.442   9.245   9.880 -2.6326 -0.3771 -0.0401
  102MOL0     H13756  11.055   8.990  10.361  1.9076  1.9056  0.7725
  102MOL0     H13757  10.808   9.042  10.388 -2.0933 -1.2080 -1.0994
  102MOL0     H13758  10.598   9.168  10.433 -1.0150 -1.1051  0.7612
  102MOL0     H13759  10.575   9.031  10.309  2.6161 -1.0174  1.2206
  102MOL0     H13760  10.408   9.157  10.192  1.4129  2.1901 -1.1817
  102MOL0     H13761  10.442   9.299  10.291  3.9199  0.1510  0.3490
  102MOL0     H13762  10.252   9.214  10.393  0.3146  1.1949  1.3162
  102MOL0     H13763  10.402   9.191  10.498 -0.3361  3.7836 -1.2789
  102MOL0     H13764  10.381   8.954  10.454  0.6623  0.1501  1.9804
  102MOL0     H13765  10.226   9.014  10.528 -0.5390 -0.8526 -0.7113
  102MOL0     H13766  10.055   8.915  10.173  0.1340  0.7273 -0.6588
  102MOL0     H13767  10.809   9.293  10.056  0.8247  0.4280  0.3054
  102MOL0     H13768  11.105   9.405  10.038 -0.2837  0.6733 -0.5664
  102MOL0     H13769  11.147   9.260   9.939  0.3146 -1.7195 -0.1108
  102MOL0     H13770  10.995   9.325   9.917 -2.5164 -0.7548  2.9612
  103MOL0     O13771   5.169   2.163   2.050 -0.6225  0.9360  0.0951
  103MOL0     C13772   5.064   2.206   2.005  0.2206 -0.6087 -0.6977
  103MOL0     O13773   4.961   2.244   2.084  0.1032 -0.7417 -0.1488
  103MOL0     C13774   4.993   2.283   2.216 -0.1955  0.4947  0.1919
  103MOL0     C13775   5.085   2.388   2.251  0.6595 -0.1831  0.0500
  103MOL0     C13776   5.129   2.397   2.382 -0.4194 -0.4150 -0.8575
  103MOL0     C13777   5.058   2.331   2.487 -0.3320  0.5005 -0.4131
  103MOL0     O13778   5.093   2.343   2.619  0.3754  0.3169 -0.0976
  103MOL0     C13779   5.220   2.428   2.653  1.3015 -0.0351 -0.4464
  103MOL0     C13780   5.279   2.382   2.785  0.3122  0.5776  0.0063
  103MOL0     C13781   5.399   2.459   2.829 -0.4806 -0.0181 -0.3873
  103MOL0     C13782   5.499   2.383   2.918  0.2127 -0.9838  0.5757
  103MOL0     C13783   5.602   2.490   2.975 -0.3934 -0.0606 -0.9425
  103MOL0     C13784   5.697   2.421   3.072  0.3773 -0.1240  0.1917
  103MOL0     C13785   5.827   2.502   3.094 -0.7747  0.0921 -0.8255
  103MOL0     C13786   5.882   2.505   3.240  0.1025  0.3421  0.5334
  103MOL0     N13787   6.010   2.572   3.258  0.9680 -0.4507 -1.4600
  103MOL0     C13788   6.023   2.708   3.261 -0.6080  0.7122 -0.2403
  103MOL0     C13789   6.143   2.724   3.322 -0.6959 -0.4030 -0.4513
  103MOL0     C13790   6.200   2.862   3.341 -0.3606  0.6472  0.5099
  103MOL0     C13791   6.135   2.923   3.466  0.1444 -0.9638 -0.4082
  103MOL0     C13792   6.186   3.060   3.495  0.2053  0.2054 -0.3002
  103MOL0     C13793   6.334   3.056   3.539 -1.0125  0.6287  0.5706
  103MOL0     O13794   6.381   3.196   3.527 -0.3075  0.8173  0.4891
  103MOL0     C13795   6.513   3.218   3.552  0.6832 -1.2161  0.6670
  103MOL0     C13796   6.619   3.129   3.547  0.0875  0.7843 -0.5118
  103MOL0     C13797   6.747   3.161   3.592 -0.3590  0.1938  0.0125
  103MOL0     C13798   6.781   3.294   3.630  0.2066 -0.4569  0.0183
  103MOL0     C13799   6.917   3.332   3.660 -0.0007 -0.0021  0.0704
  103MOL0     O13800   6.937   3.447   3.730  0.1089 -0.7116  0.7164
  103MOL0     C13801   7.062   3.499   3.761 -0.8800 -0.3214  0.0807
  103MOL0     C13802   7.189   3.462   3.711 -0.6824 -0.0250  0.0352
  103MOL0     C13803   7.312   3.520   3.759  0.2445 -0.8682  0.7122
  103MOL0     C13804   7.305   3.613   3.862 -0.4934  0.0816 -0.3442
  103MOL0     O13805   7.416   3.682   3.916  0.9637 -0.2801  0.1852
  103MOL0     C13806   7.479   3.617   4.029  0.6854  0.4906 -0.1267
  103MOL0     C13807   7.575   3.711   4.101 -0.2329  0.7154  0.0464
  103MOL0     C13808   7.597   3.664   4.248  0.1941  0.1860  0.5421
  103MOL0     C13809   7.645   3.518   4.264 -0.2811 -0.1625  0.6182
  103MOL0     C13810   7.792   3.494   4.234  0.8306  0.1557 -0.3008
  103MOL0     C13811   7.902   3.559   4.320 -0.1116 -0.9431  0.2523
  103MOL0     C13812   8.047   3.532   4.260  0.2939 -0.6571  0.2218
  103MOL0     C13813   8.065   3.561   4.107 -0.6061  0.5648 -0.0264
  103MOL0    Cl13814   8.241   3.561   4.083 -0.1118  0.0196  0.1869
  103MOL0     C13815   7.181   3.656   3.909  0.0233  0.7707  0.2430
  103MOL0     C13816   7.061   3.601   3.857  0.7674  0.1406  0.3552
  103MOL0     O13817   7.006   3.252   3.624 -0.0346 -0.6051 -0.1656
  103MOL0     C13818   6.676   3.378   3.633  0.1907 -0.5446  0.8232
  103MOL0     C13819   6.546   3.348   3.590 -0.3637  0.4159  0.7084
  103MOL0     N13820   6.189   2.600   3.369 -0.1062 -0.6371  0.0789
  103MOL0     N13821   6.106   2.511   3.330  0.7259  0.6532 -0.3635
  103MOL0     C13822   4.957   2.247   2.451 -0.6621 -0.3074 -0.6390
  103MOL0     C13823   4.929   2.214   2.319 -0.6645  0.5295  0.7545
  103MOL0     C13824   5.051   2.207   1.863  0.1609 -0.0092 -0.1069
  103MOL0     C13825   5.164   2.192   1.778 -0.2684  0.4341 -0.3335
  103MOL0     C13826   5.154   2.198   1.641 -0.5612 -0.7519 -0.0781
  103MOL0     C13827   5.039   2.225   1.580  0.5831  0.1060  0.3115
  103MOL0     O13828   5.025   2.255   1.445 -0.9903  0.0593 -0.1803
  103MOL0     C13829   5.132   2.350   1.398 -0.3969 -0.0521 -1.0128
  103MOL0     C13830   5.088   2.461   1.289  0.2388 -0.1581  0.2659
  103MOL0     C13831   5.055   2.592   1.365 -0.2056 -0.0797  0.3619
  103MOL0     C13832   5.015   2.713   1.272 -0.0060  0.4753 -0.8785
  103MOL0     C13833   5.140   2.765   1.209  0.3297  1.2754 -0.3496
  103MOL0     C13834   5.249   2.801   1.175  0.4901  0.2517 -0.0051
  103MOL0     C13835   4.923   2.224   1.655 -0.6869 -0.3932  0.6718
  103MOL0     C13836   4.925   2.208   1.797  0.0147  0.0179  0.9364
  103MOL0     C13837   4.787   2.212   1.875  0.9802  0.4228  0.0484
  103MOL0     H13838   5.129   2.437   2.165 -0.8012 -0.0114 -0.6417
  103MOL0     H13839   5.197   2.479   2.403 -0.3661 -0.5683 -0.4104
  103MOL0     H13840   5.306   2.418   2.586  1.0464  0.9141 -0.9320
  103MOL0     H13841   5.183   2.531   2.652 -0.7556 -0.6461 -3.8346
  103MOL0     H13842   5.302   2.276   2.772 -0.7614  0.4501 -1.1063
  103MOL0     H13843   5.214   2.393   2.872  1.6860 -0.0043  1.1312
  103MOL0     H13844   5.359   2.545   2.884 -0.8108 -0.9540  0.8837
  103MOL0     H13845   5.467   2.495   2.751 -0.1402  2.4603  0.9195
  103MOL0     H13846   5.444   2.338   3.002  0.7381  0.3501  1.6686
  103MOL0     H13847   5.557   2.310   2.861  1.1436 -0.2476  0.5503
  103MOL0     H13848   5.657   2.528   2.889  2.5668 -2.7225 -0.4024
  103MOL0     H13849   5.555   2.571   3.031  2.2711  0.8468  0.1526
  103MOL0     H13850   5.642   2.433   3.166 -2.1575  0.8054 -1.3166
  103MOL0     H13851   5.708   2.319   3.034 -1.3923  0.3041 -1.6573
  103MOL0     H13852   5.805   2.605   3.067 -0.5098  1.0356  2.1248
  103MOL0     H13853   5.905   2.470   3.025  1.3643 -0.1874  1.5446
  103MOL0     H13854   5.814   2.556   3.309 -2.4484 -1.7155 -0.2873
  103MOL0     H13855   5.888   2.404   3.281  0.3367 -1.0190 -2.5276
  103MOL0     H13856   5.959   2.782   3.214 -0.8660  1.1301  0.7517
  103MOL0     H13857   6.310   2.857   3.342 -0.1389  2.6068 -2.5423
  103MOL0     H13858   6.175   2.928   3.258  1.0107  0.3088 -0.2134
  103MOL0     H13859   6.030   2.941   3.441  0.1777 -2.5329 -1.8777
  103MOL0     H13860   6.146   2.854   3.550  1.8468  0.4230  0.5735
  103MOL0     H13861   6.138   3.104   3.583  1.2389 -1.9741  1.4669
  103MOL0     H13862   6.161   3.124   3.410 -0.1181 -1.3217 -1.3994
  103MOL0     H13863   6.394   2.985   3.480  1.8175 -1.8613  5.8048
  103MOL0     H13864   6.354   3.029   3.643  0.9521 -1.3529 -0.2248
  103MOL0     H13865   6.604   3.021   3.544  1.7480  0.5272 -0.5034
  103MOL0     H13866   6.818   3.079   3.589  2.0538  2.0998  0.6404
  103MOL0     H13867   7.205   3.377   3.646 -2.6139 -2.1352  2.1230
  103MOL0     H13868   7.408   3.479   3.729  0.6735 -0.8698  2.0456
  103MOL0     H13869   7.399   3.585   4.095 -0.5980  1.8416 -0.9587
  103MOL0     H13870   7.538   3.535   3.988  0.3532  0.6622 -0.9867
  103MOL0     H13871   7.668   3.708   4.044 -1.3009 -0.9035 -1.7392
  103MOL0     H13872   7.527   3.809   4.098 -1.0563  0.4025  1.6387
  103MOL0     H13873   7.659   3.733   4.307  0.5242  3.7828 -3.4499
  103MOL0     H13874   7.495   3.670   4.287  0.2518  1.1966  0.5623
  103MOL0     H13875   7.577   3.449   4.211 -0.5486 -0.3814  1.2304
  103MOL0     H13876   7.630   3.493   4.370  0.0521  0.7055  0.8764
  103MOL0     H13877   7.809   3.522   4.130  0.8084 -0.8047 -0.5715
  103MOL0     H13878   7.805   3.385   4.232  0.0479 -0.0645  2.4855
  103MOL0     H13879   7.881   3.666   4.330 -1.0098 -1.0873 -0.0150
  103MOL0     H13880   7.904   3.511   4.419 -0.6441 -0.7302  0.3702
  103MOL0     H13881   8.065   3.430   4.295 -2.7739 -0.9436  1.2612
  103MOL0     H13882   8.111   3.602   4.314  1.3281 -0.4816 -1.1623
  103MOL0     H13883   8.004   3.499   4.041 -0.9585  0.7824  0.0896
  103MOL0     H13884   8.037   3.667   4.096  2.8501  1.6520  0.3205
  103MOL0     H13885   7.173   3.730   3.988 -3.0730  2.6521 -1.6251
  103MOL0     H13886   6.967   3.632   3.900  1.8642 -1.1508  4.1167
  103MOL0     H13887   6.695   3.480   3.664 -0.2123 -0.3203  0.3382
  103MOL0     H13888   6.474   3.429   3.598 -0.0174  0.7516  0.4808
  103MOL0     H13889   4.916   2.201   2.540  0.2088 -0.1531 -0.1481
  103MOL0     H13890   4.842   2.157   2.288 -1.1457  1.5481  0.1408
  103MOL0     H13891   5.265   2.189   1.818 -0.0505  0.9726 -0.8395
  103MOL0     H13892   5.249   2.199   1.589  0.1371 -0.7864  1.1527
  103MOL0     H13893   5.216   2.300   1.349 -0.3809  0.2760 -1.3308
  103MOL0     H13894   5.170   2.405   1.484  1.0874 -5.0243  1.8555
  103MOL0     H13895   4.996   2.435   1.237  0.1067 -0.5508  0.6785
  103MOL0     H13896   5.175   2.477   1.225  0.1689 -2.5953 -0.5469
  103MOL0     H13897   5.144   2.620   1.422  0.2440  0.6937 -0.6807
  103MOL0     H13898   4.969   2.582   1.432 -2.2580  1.7004 -1.8243
  103MOL0     H13899   4.947   2.687   1.190 -0.9391 -0.2932  0.1229
  103MOL0     H13900   4.967   2.787   1.336 -0.7646 -2.2006  1.8523
  103MOL0     H13901   5.347   2.837   1.153  0.0186  0.9005 -1.1346
  103MOL0     H13902   4.830   2.230   1.600 -1.1557 -2.5472  1.1664
  103MOL0     H13903   4.772   2.125   1.940  3.4346 -2.6041 -3.0405
  103MOL0     H13904   4.780   2.307   1.929 -0.4594 -0.1282  0.8727
  103MOL0     H13905   4.706   2.191   1.805 -0.1717 -3.9958  2.3959
  104MOL0     O13906   1.682   3.369  10.216 -0.2351 -0.0584 -0.6187
  104MOL0     C13907   1.563   3.398  10.195  0.3141 -0.8780 -0.3736
  104MOL0     O13908   1.526   3.508  10.133 -0.3827 -0.7391  0.3841
  104MOL0     C13909   1.635   3.582  10.075  0.2673 -0.5481  0.0536
  104MOL0     C13910   1.701   3.687  10.143 -0.2856  0.5764 -0.3763
  104MOL0     C13911   1.810   3.751  10.082 -0.2744  0.3903 -0.4701
  104MOL0     C13912   1.840   3.727   9.945 -0.2429 -1.0321 -0.6037
  104MOL0     O13913   1.933   3.816   9.893 -0.2062 -0.0618  0.0583
  104MOL0     C13914   1.957   3.800   9.755 -1.1709 -0.8890 -0.4754
  104MOL0     C13915   2.030   3.921   9.698 -0.2127 -0.4303  0.4716
  104MOL0     C13916   2.172   3.943   9.732  0.4382 -0.1250  0.0539
  104MOL0     C13917   2.205   4.085   9.765 -0.2648 -0.1842 -0.0340
  104MOL0     C13918   2.361   4.098   9.768 -0.2950 -1.1139 -0.0559
  104MOL0     C13919   2.386   4.240   9.808  0.2348  0.1812  0.0829
  104MOL0     C13920   2.533   4.288   9.828  1.0139  0.0915 -0.4018
  104MOL0     C13921   2.529   4.442   9.852  0.5312 -0.1023  0.1314
  104MOL0     N13922   2.660   4.490   9.880 -0.3504  0.2808  0.1922
  104MOL0     C13923   2.750   4.541   9.792 -0.0038 -0.8094  0.1590
  104MOL0     C13924   2.871   4.548   9.857  0.5863 -0.2703  0.5366
  104MOL0     C13925   2.987   4.614   9.795  0.5046 -0.5951 -0.2703
  104MOL0     C13926   3.114   4.523   9.807 -0.5091  0.4722 -0.5273
  104MOL0     C13927   3.151   4.492   9.945 -0.7943  0.2228 -0.3036
  104MOL0     C13928   3.299   4.448   9.951  0.3767 -0.7833  0.7045
  104MOL0     O13929   3.383   4.564   9.944 -0.4719 -0.1955 -0.8226
  104MOL0     C13930   3.512   4.534   9.906  0.1461  0.6868  0.2024
  104MOL0     C13931   3.575   4.618   9.817  0.0850 -0.1288 -0.1445
  104MOL0     C13932   3.693   4.595   9.749 -0.1552  0.2384 -0.1878
  104MOL0     C13933   3.769   4.487   9.789  0.4450  0.0696  0.0238
  104MOL0     C13934   3.904   4.468   9.719 -0.3087  0.3167  0.1822
  104MOL0     O13935   3.947   4.567   9.631  0.3564 -0.3805  0.4353
  104MOL0     C13936   4.069   4.566   9.567  0.0608  0.5608  0.3831
  104MOL0     C13937   4.062   4.557   9.424 -0.2672 -0.3797 -0.1030
  104MOL0     C13938   4.187   4.553   9.356 -0.0127 -0.1446  0.2766
  104MOL0     C13939   4.313   4.560   9.423 -0.8231 -0.1831  0.3870
  104MOL0     O13940   4.431   4.558   9.348  0.1937  0.6367  0.1439
  104MOL0     C13941   4.564   4.574   9.401 -0.4037  0.6856 -0.6146
  104MOL0     C13942   4.668   4.561   9.293  0.6920  0.2353 -0.0346
  104MOL0     C13943   4.811   4.567   9.362 -0.2917 -0.4447  0.4798
  104MOL0     C13944   4.907   4.497   9.262 -0.1011 -0.2140  0.6835
  104MOL0     C13945   5.052   4.523   9.287  0.1281 -0.0773 -0.1724
  104MOL0     C13946   5.142   4.413   9.213 -0.0484  0.5349 -0.0797
  104MOL0     C13947   5.285   4.442   9.227 -0.4967  0.5601  0.1261
  104MOL0     C13948   5.368   4.320   9.177 -0.3882 -0.7605  0.3645
  104MOL0    Cl13949   5.326   4.241   9.021  0.2890  0.3286 -0.2599
  104MOL0     C13950   4.314   4.561   9.561  0.3990 -0.1055 -0.4339
  104MOL0     C13951   4.192   4.570   9.633  0.1000  0.0036 -0.2660
  104MOL0     O13952   3.962   4.359   9.744 -0.4427 -0.5891 -0.6546
  104MOL0     C13953   3.717   4.394   9.887  0.4288  0.1239  0.0263
  104MOL0     C13954   3.590   4.417   9.944  0.0508  0.4604 -0.0515
  104MOL0     N13955   2.847   4.511   9.991 -0.2980  0.6785 -0.0598
  104MOL0     N13956   2.726   4.471   9.998  0.4201  0.6285  0.7131
  104MOL0     C13957   1.775   3.624   9.878  0.0733 -0.0218 -0.1687
  104MOL0     C13958   1.673   3.553   9.941  0.8974  0.4210  0.3590
  104MOL0     C13959   1.457   3.308  10.254 -0.0034 -0.7043 -0.1752
  104MOL0     C13960   1.507   3.202  10.333 -0.3174 -0.0543 -0.6786
  104MOL0     C13961   1.417   3.124  10.408 -0.0923 -0.1958 -0.0055
  104MOL0     C13962   1.278   3.128  10.388 -0.2618 -0.7772 -0.4744
  104MOL0     O13963   1.181   3.059  10.451 -0.9180  0.2300 -0.6283
  104MOL0     C13964   1.222   2.932  10.513 -0.2900 -0.2712  0.4220
  104MOL0     C13965   1.101   2.855  10.559  0.5879 -0.6313 -0.9379
  104MOL0     C13966   1.009   2.935  10.656 -0.4169 -0.3830  0.0146
  104MOL0     C13967   0.882   2.863  10.693 -0.5513 -0.5841  0.3830
  104MOL0     C13968   0.775   2.868  10.599  0.1432  0.6798 -0.4804
  104MOL0     C13969   0.694   2.861  10.513 -0.4619 -0.6737 -0.5934
  104MOL0     C13970   1.236   3.233  10.307 -0.2922 -0.2654  0.0701
  104MOL0     C13971   1.318   3.325  10.235 -0.7940 -0.0110  0.9555
  104MOL0     C13972   1.254   3.418  10.139 -0.7261 -0.2084  0.1901
  104MOL0     H13973   1.674   3.698  10.247  0.7844 -0.6003  0.0603
  104MOL0     H13974   1.874   3.823  10.132  1.9376 -0.4757 -1.8416
  104MOL0     H13975   2.012   3.712   9.721 -0.0517 -0.4111  0.0342
  104MOL0     H13976   1.861   3.795   9.703 -2.5919  1.5930  1.6511
  104MOL0     H13977   1.965   4.005   9.724  1.6584  2.0393 -2.2513
  104MOL0     H13978   2.029   3.914   9.589 -2.5366  1.8142  0.2335
  104MOL0     H13979   2.236   3.927   9.644  1.3423 -1.2870  0.8917
  104MOL0     H13980   2.216   3.873   9.803 -0.0984 -0.6144 -0.0961
  104MOL0     H13981   2.167   4.147   9.683  0.3519  1.6097  0.9812
  104MOL0     H13982   2.153   4.113   9.857  2.0713 -1.6096  1.8291
  104MOL0     H13983   2.408   4.027   9.836  0.2081  0.6406  1.5243
  104MOL0     H13984   2.392   4.080   9.665 -1.1360 -0.6654 -0.3960
  104MOL0     H13985   2.327   4.295   9.734 -1.0885 -0.1387  0.8589
  104MOL0     H13986   2.333   4.258   9.902 -1.1846 -2.7269 -0.0595
  104MOL0     H13987   2.595   4.272   9.740  1.3583 -0.2134 -0.1044
  104MOL0     H13988   2.572   4.235   9.916 -0.8522  1.8009  1.5852
  104MOL0     H13989   2.476   4.498   9.775 -0.9911 -0.2814  0.9929
  104MOL0     H13990   2.455   4.448   9.933 -0.0057  0.9428 -0.4177
  104MOL0     H13991   2.728   4.572   9.690 -1.0357 -3.1623 -0.4093
  104MOL0     H13992   2.977   4.644   9.690  0.1062 -1.6462 -0.5446
  104MOL0     H13993   3.016   4.700   9.857  0.4859 -1.0902  0.4409
  104MOL0     H13994   3.101   4.426   9.757  1.9928 -0.1718 -0.0439
  104MOL0     H13995   3.195   4.575   9.756 -0.3160  2.4150  1.5813
  104MOL0     H13996   3.085   4.419   9.991 -0.1208  0.4953  1.1461
  104MOL0     H13997   3.145   4.585  10.003 -1.2379  0.5397 -0.8428
  104MOL0     H13998   3.322   4.390   9.862 -0.1280 -0.9906  0.7012
  104MOL0     H13999   3.310   4.380  10.036  1.5054  0.4524  1.5849
  104MOL0     H14000   3.508   4.697   9.784  1.3363  1.7385  1.5374
  104MOL0     H14001   3.722   4.655   9.663  2.7455  1.1664  1.3001
  104MOL0     H14002   3.969   4.562   9.369  0.6288  0.1204 -1.6306
  104MOL0     H14003   4.187   4.554   9.248 -0.9144 -1.2056  0.2470
  104MOL0     H14004   4.568   4.671   9.452  0.0040 -0.2582  1.2506
  104MOL0     H14005   4.579   4.502   9.483  3.3448  1.9070 -0.0652
  104MOL0     H14006   4.658   4.461   9.250  1.6832 -1.3911  3.2390
  104MOL0     H14007   4.668   4.636   9.213 -0.1218 -0.8567 -1.1071
  104MOL0     H14008   4.852   4.668   9.368  0.6577 -0.6648 -1.5224
  104MOL0     H14009   4.813   4.534   9.467  0.9850  0.9076  0.9164
  104MOL0     H14010   4.876   4.525   9.161  0.0313  1.7000  1.1284
  104MOL0     H14011   4.880   4.392   9.276 -0.1938 -0.1835  0.7327
  104MOL0     H14012   5.069   4.510   9.394 -0.3718  0.0310 -0.0743
  104MOL0     H14013   5.080   4.624   9.253 -3.0972  0.6298 -1.0758
  104MOL0     H14014   5.117   4.321   9.267  0.8528  1.0707  1.2896
  104MOL0     H14015   5.117   4.410   9.106  2.8033  0.0491 -0.8197
  104MOL0     H14016   5.309   4.451   9.333 -0.5573 -3.4323  0.6082
  104MOL0     H14017   5.307   4.533   9.170 -2.4455  2.6215  2.4508
  104MOL0     H14018   5.472   4.353   9.175  0.5627 -3.4868  0.5719
  104MOL0     H14019   5.367   4.237   9.249 -0.8225 -2.4960 -1.5447
  104MOL0     H14020   4.406   4.559   9.618  1.3129 -1.0838 -1.8779
  104MOL0     H14021   4.193   4.584   9.741 -1.6272  1.3002 -0.3902
  104MOL0     H14022   3.777   4.309   9.919  1.5531  1.1780  0.7940
  104MOL0     H14023   3.558   4.350  10.023  1.1805  1.5998  1.4472
  104MOL0     H14024   1.805   3.604   9.775 -1.9576  3.0342 -1.4971
  104MOL0     H14025   1.624   3.468   9.895  0.0001  1.1206 -0.0150
  104MOL0     H14026   1.613   3.187  10.352 -0.3277 -0.4414 -0.9083
  104MOL0     H14027   1.458   3.059  10.484  1.1898  1.0463  0.4253
  104MOL0     H14028   1.290   2.970  10.589 -0.3810  0.7106  0.0242
  104MOL0     H14029   1.279   2.872  10.441  3.4572  1.1215  1.9860
  104MOL0     H14030   1.133   2.762  10.608  0.3659  1.2941  3.2736
  104MOL0     H14031   1.040   2.832  10.472  0.1514  1.3988 -1.2149
  104MOL0     H14032   0.980   3.030  10.612 -0.3736 -0.6642 -0.6230
  104MOL0     H14033   1.073   2.952  10.744  1.2448 -1.8313 -0.8485
  104MOL0     H14034   0.907   2.761  10.724 -0.6803 -1.6558 -2.6281
  104MOL0     H14035   0.857   2.908  10.789  0.0437 -1.9576  1.2127
  104MOL0     H14036   0.629   2.840  10.430 -1.0694  1.8915 -0.8802
  104MOL0     H14037   1.129   3.241  10.292 -0.1693 -3.7927 -7.3154
  104MOL0     H14038   1.295   3.421  10.038 -1.8229 -2.8408 -0.4088
  104MOL0     H14039   1.149   3.390  10.123 -0.7336  0.5554 -1.3368
  104MOL0     H14040   1.267   3.512  10.195  0.2395 -0.6512  0.7301
  105MOL0     O14041   5.504   3.029  10.757  0.1155 -0.2678 -0.1856
  105MOL0     C14042   5.451   2.923  10.758 -0.2772  1.1918  0.2117
  105MOL0     O14043   5.515   2.801  10.768  0.4727 -0.3738 -1.1363
  105MOL0     C14044   5.641   2.782  10.792 -0.8855 -0.1755  0.5200
  105MOL0     C14045   5.743   2.834  10.708 -0.3619 -0.0493  0.0097
  105MOL0     C14046   5.884   2.811  10.741 -0.1626 -0.7611  0.7654
  105MOL0     C14047   5.920   2.714  10.832  0.7504 -0.0440 -0.0055
  105MOL0     O14048   6.051   2.667  10.853  0.3512  0.1697 -0.3744
  105MOL0     C14049   6.135   2.680  10.742  0.1077 -0.0343  0.0701
  105MOL0     C14050   6.266   2.604  10.778  0.1972 -0.0501 -0.3805
  105MOL0     C14051   6.370   2.628  10.668  0.8939 -0.5987 -0.3062
  105MOL0     C14052   6.490   2.538  10.689 -0.6719  0.3386 -0.0472
  105MOL0     C14053   6.593   2.557  10.576  0.9726  0.2309  0.1374
  105MOL0     C14054   6.717   2.483  10.610 -0.3146  0.0673  0.2706
  105MOL0     C14055   6.814   2.483  10.491 -0.0729 -0.8104  1.0582
  105MOL0     C14056   6.883   2.619  10.473 -0.1547 -0.1694  0.5202
  105MOL0     N14057   6.985   2.605  10.367  0.6558 -0.3414 -0.8167
  105MOL0     C14058   6.970   2.653  10.241 -0.3344 -0.0318 -0.3252
  105MOL0     C14059   7.092   2.650  10.187  0.6707  1.0696  1.2540
  105MOL0     C14060   7.126   2.675  10.042  0.4254  0.6875  0.1882
  105MOL0     C14061   7.266   2.738  10.025  1.2576 -0.3934  0.7616
  105MOL0     C14062   7.292   2.865  10.114 -0.0419  0.2555  0.9830
  105MOL0     C14063   7.443   2.901  10.113 -0.4064 -0.5268  0.2689
  105MOL0     O14064   7.489   2.945   9.981 -0.8681  0.2258  0.2572
  105MOL0     C14065   7.603   2.880   9.952 -0.6449  0.9410  0.0019
  105MOL0     C14066   7.729   2.938   9.960  0.5261  0.1171  0.0928
  105MOL0     C14067   7.845   2.879   9.900  0.0752 -0.8631 -0.4665
  105MOL0     C14068   7.841   2.752   9.846  0.6743  0.8454 -0.8891
  105MOL0     C14069   7.951   2.674   9.804 -0.6476 -0.7547  0.5414
  105MOL0     O14070   8.070   2.741   9.810 -0.5720 -0.0044 -0.8120
  105MOL0     C14071   8.183   2.677   9.760  0.0385 -0.4306 -0.7672
  105MOL0     C14072   8.287   2.642   9.840  0.8116 -0.7277 -0.4484
  105MOL0     C14073   8.388   2.561   9.784 -0.2542  0.5007  0.3978
  105MOL0     C14074   8.368   2.505   9.657  0.0381  0.7741 -0.4607
  105MOL0     O14075   8.466   2.435   9.602  0.4133 -0.0407  0.5197
  105MOL0     C14076   8.435   2.306   9.556  0.9037 -0.4777 -0.2854
  105MOL0     C14077   8.488   2.283   9.413 -0.6389 -0.0594 -1.3719
  105MOL0     C14078   8.479   2.136   9.378  0.0326 -0.3543  0.1625
  105MOL0     C14079   8.575   2.044   9.435  0.6529 -0.5147  0.3462
  105MOL0     C14080   8.535   1.901   9.399 -0.6098 -0.3309 -0.0977
  105MOL0     C14081   8.606   1.798   9.493 -0.2497 -0.3189  0.4016
  105MOL0     C14082   8.567   1.654   9.459  0.7254 -1.1660  0.4093
  105MOL0     C14083   8.656   1.537   9.508 -0.6650  0.8190  0.2660
  105MOL0    Cl14084   8.830   1.576   9.481 -0.3574 -0.4830  0.0519
  105MOL0     C14085   8.269   2.547   9.577  1.0584 -0.3357 -0.5854
  105MOL0     C14086   8.171   2.634   9.630 -0.2242  0.4188 -0.1362
  105MOL0     O14087   7.937   2.555   9.778 -0.1068  0.6531  0.1605
  105MOL0     C14088   7.710   2.689   9.849 -0.1309 -0.4192  0.6162
  105MOL0     C14089   7.599   2.755   9.890 -0.3363 -0.2092 -0.0136
  105MOL0     N14090   7.182   2.601  10.285  0.7805  0.8372  0.6378
  105MOL0     N14091   7.113   2.587  10.397 -0.6919 -1.1890  0.3991
  105MOL0     C14092   5.814   2.645  10.898  0.8678  0.5769 -0.0446
  105MOL0     C14093   5.682   2.692  10.889 -0.5515  0.7439  0.0121
  105MOL0     C14094   5.307   2.921  10.712 -0.0052 -0.2781  0.1821
  105MOL0     C14095   5.245   3.039  10.673  0.3665 -0.1974 -0.1603
  105MOL0     C14096   5.111   3.046  10.632 -0.5090  0.3986 -0.0866
  105MOL0     C14097   5.023   2.934  10.630 -0.7789 -0.6451 -0.3321
  105MOL0     O14098   4.893   2.929  10.627 -0.4297 -0.0476 -0.6423
  105MOL0     C14099   4.830   3.055  10.606  0.6601  0.1471 -0.5299
  105MOL0     C14100   4.677   3.057  10.604  0.1495  0.1400 -0.5653
  105MOL0     C14101   4.628   2.946  10.699  0.4385 -0.5162 -0.0839
  105MOL0     C14102   4.483   2.983  10.751  0.0872  0.6507  0.2170
  105MOL0     C14103   4.389   3.036  10.652  0.7316  0.4087 -0.0157
  105MOL0     C14104   4.321   3.083  10.560  0.2551  0.2685  0.3303
  105MOL0     C14105   5.084   2.809  10.669  0.6418 -0.7304  0.9083
  105MOL0     C14106   5.220   2.801  10.700 -1.5263 -0.8152  0.0028
  105MOL0     C14107   5.277   2.657  10.731 -0.2390 -0.3018 -0.6447
  105MOL0     H14108   5.708   2.893  10.624 -0.8742  0.4534  0.5618
  105MOL0     H14109   5.953   2.858  10.672  0.7974 -2.4788  0.4957
  105MOL0     H14110   6.094   2.638  10.650 -0.2240  0.0168  0.1923
  105MOL0     H14111   6.158   2.786  10.726  0.8408 -0.0893  0.6764
  105MOL0     H14112   6.233   2.500  10.780 -4.1564  1.1152  0.7487
  105MOL0     H14113   6.313   2.636  10.871  1.1341 -0.0485 -0.8454
  105MOL0     H14114   6.395   2.734  10.679  0.4391 -0.2637 -2.2386
  105MOL0     H14115   6.332   2.621  10.566  1.2212  1.4284 -0.6114
  105MOL0     H14116   6.537   2.558  10.786 -0.9584  1.5711 -0.1439
  105MOL0     H14117   6.445   2.439  10.681 -2.0118  0.9510 -0.5526
  105MOL0     H14118   6.548   2.514  10.486  1.1443  2.9191 -1.3254
  105MOL0     H14119   6.609   2.665  10.568 -0.7682  0.4618 -0.8257
  105MOL0     H14120   6.769   2.530  10.694 -0.7943  3.7425 -1.3141
  105MOL0     H14121   6.690   2.381  10.637 -1.4334 -0.2555 -1.8694
  105MOL0     H14122   6.776   2.443  10.397  1.1595  2.0420 -0.7979
  105MOL0     H14123   6.890   2.411  10.521  0.7824  0.3203  1.7175
  105MOL0     H14124   6.802   2.688  10.445 -1.3826 -2.7293 -3.0366
  105MOL0     H14125   6.928   2.640  10.571 -2.9152  2.0168  1.4744
  105MOL0     H14126   6.885   2.692  10.187  0.2317 -1.2150 -2.1352
  105MOL0     H14127   7.120   2.584   9.983 -0.7434  1.0197 -0.2328
  105MOL0     H14128   7.043   2.735  10.004  0.7304 -0.2464 -2.1104
  105MOL0     H14129   7.336   2.658  10.050 -0.7359 -3.4977 -2.5874
  105MOL0     H14130   7.294   2.766   9.923  3.6477  3.1669  2.1797
  105MOL0     H14131   7.269   2.852  10.220 -2.1980  1.1338  0.6702
  105MOL0     H14132   7.240   2.957  10.085  1.6666  1.4391  1.5086
  105MOL0     H14133   7.500   2.815  10.152 -1.0386 -1.2864 -0.4489
  105MOL0     H14134   7.454   2.984  10.184  2.2144  0.3450 -1.0262
  105MOL0     H14135   7.747   3.032  10.011  3.9721 -0.4308  0.1868
  105MOL0     H14136   7.935   2.941   9.902 -0.1265 -0.5678 -0.4861
  105MOL0     H14137   8.268   2.684   9.939 -0.7628  3.2329 -2.2129
  105MOL0     H14138   8.468   2.533   9.851  0.3382  2.1838  0.4283
  105MOL0     H14139   8.491   2.237   9.619  0.7786  0.3898  0.8168
  105MOL0     H14140   8.329   2.280   9.562 -0.1489  3.1837 -0.4102
  105MOL0     H14141   8.429   2.345   9.346 -1.7208 -1.5861 -1.8827
  105MOL0     H14142   8.589   2.324   9.400 -0.5821  0.1466 -0.4005
  105MOL0     H14143   8.375   2.107   9.392 -0.3413  1.2174  0.9065
  105MOL0     H14144   8.493   2.120   9.270 -3.1996 -3.1221 -0.0059
  105MOL0     H14145   8.556   2.067   9.540 -3.9112  1.8804 -0.7536
  105MOL0     H14146   8.677   2.071   9.406  1.0994  2.2010  3.6755
  105MOL0     H14147   8.571   1.883   9.297 -0.2388 -1.6978  0.2524
  105MOL0     H14148   8.426   1.896   9.390 -0.6520  1.0660 -0.5684
  105MOL0     H14149   8.709   1.828   9.470 -1.0834  3.7166  1.2624
  105MOL0     H14150   8.584   1.810   9.599  0.7148 -0.9694  0.6906
  105MOL0     H14151   8.560   1.655   9.350  0.0400  4.3727  0.2403
  105MOL0     H14152   8.467   1.630   9.496  0.2387 -0.5537 -0.4873
  105MOL0     H14153   8.659   1.530   9.617  0.6428  0.1865  0.2008
  105MOL0     H14154   8.620   1.438   9.477 -0.1571  0.2497  1.4498
  105MOL0     H14155   8.254   2.510   9.477 -1.0085 -0.7369 -0.1781
  105MOL0     H14156   8.077   2.655   9.580 -1.3621 -0.1503  1.6570
  105MOL0     H14157   7.683   2.597   9.798 -0.0466 -0.7043  1.0816
  105MOL0     H14158   7.509   2.697   9.870  0.2034 -0.1763 -3.0460
  105MOL0     H14159   5.834   2.573  10.977 -2.4664 -2.1426 -1.4559
  105MOL0     H14160   5.622   2.646  10.967  2.6468 -0.6825  1.8786
  105MOL0     H14161   5.301   3.131  10.664 -0.5200  0.3208 -0.4744
  105MOL0     H14162   5.069   3.144  10.609 -1.5071 -0.1287 -0.5537
  105MOL0     H14163   4.854   3.095  10.507 -0.6129  0.7268 -0.6232
  105MOL0     H14164   4.856   3.118  10.692 -0.4723 -2.7524  2.1116
  105MOL0     H14165   4.638   3.041  10.503  3.5052 -1.5329 -1.7703
  105MOL0     H14166   4.659   3.156  10.647 -0.5190 -1.0364  2.0536
  105MOL0     H14167   4.700   2.920  10.777 -0.4279  0.5120  1.0892
  105MOL0     H14168   4.633   2.851  10.645 -0.7557 -0.3145 -0.5723
  105MOL0     H14169   4.446   2.891  10.796  2.2741 -0.7538 -0.7182
  105MOL0     H14170   4.505   3.049  10.836  1.8638 -2.2393  2.1642
  105MOL0     H14171   4.253   3.112  10.483  2.3908 -0.3527 -1.9089
  105MOL0     H14172   5.019   2.724  10.686  0.0457 -0.9938 -2.1369
  105MOL0     H14173   5.351   2.619  10.661  1.3699  2.3920 -0.5363
  105MOL0     H14174   5.329   2.662  10.827  3.4723 -0.4967 -2.4576
  105MOL0     H14175   5.185   2.597  10.730 -1.9966  2.2438 -1.0553
  106MOL0     O14176   8.974   7.824   3.142  0.2950  0.2663 -0.2568
  106MOL0     C14177   8.904   7.923   3.129  0.8501 -0.4652  0.2800
  106MOL0     O14178   8.944   8.046   3.066  0.8745 -0.7501 -0.0383
  106MOL0     C14179   9.062   8.044   3.000  0.0640 -0.7539  0.6094
  106MOL0     C14180   9.184   7.991   3.046  0.6607 -0.5500 -0.1014
  106MOL0     C14181   9.308   8.001   2.975  0.1813 -0.3409  0.0545
  106MOL0     C14182   9.313   8.064   2.854  0.4057 -0.3790  0.1839
  106MOL0     O14183   9.437   8.067   2.795 -0.4299  0.1838 -0.0325
  106MOL0     C14184   9.439   8.111   2.652  0.2412  1.3164 -0.2646
  106MOL0     C14185   9.576   8.071   2.608 -0.5723 -0.5248  1.1020
  106MOL0     C14186   9.655   8.186   2.540 -0.7798 -0.6589 -0.1115
  106MOL0     C14187   9.714   8.286   2.634 -0.0508  0.3153 -0.0600
  106MOL0     C14188   9.785   8.395   2.556  0.6914 -0.0627 -0.1307
  106MOL0     C14189   9.925   8.357   2.506 -0.2096  0.4002  0.0113
  106MOL0     C14190   9.994   8.480   2.459 -0.3024  0.1159  0.2620
  106MOL0     C14191  10.138   8.459   2.413 -1.2106  1.1953 -0.3955
  106MOL0     N14192  10.144   8.388   2.286 -0.1488 -1.1832 -0.0622
  106MOL0     C14193  10.132   8.250   2.267  0.7824  0.2226  0.8540
  106MOL0     C14194  10.177   8.224   2.141  0.6375  0.4577  0.2595
  106MOL0     C14195  10.155   8.099   2.073 -0.3022 -0.0106 -0.6004
  106MOL0     C14196  10.009   8.088   2.033 -0.5565 -0.0734 -0.7960
  106MOL0     C14197   9.981   8.178   1.916  0.1952 -0.3344 -0.4100
  106MOL0     C14198   9.840   8.191   1.876  0.3147 -0.0191  0.4919
  106MOL0     O14199   9.785   8.076   1.807 -0.0039 -0.8673  0.0287
  106MOL0     C14200   9.732   8.104   1.683 -0.5601 -0.4483  0.5326
  106MOL0     C14201   9.592   8.111   1.667 -0.5935  0.3957 -0.0734
  106MOL0     C14202   9.531   8.127   1.541 -0.2205 -0.3517  0.7677
  106MOL0     C14203   9.614   8.137   1.421 -0.0341 -0.5739  0.4345
  106MOL0     C14204   9.555   8.149   1.288  0.5144  0.1715  0.1682
  106MOL0     O14205   9.421   8.182   1.289 -0.3336  0.0538  0.4644
  106MOL0     C14206   9.349   8.205   1.175  0.6202 -0.5929 -0.2389
  106MOL0     C14207   9.244   8.291   1.184  0.7763 -0.3310  0.9888
  106MOL0     C14208   9.163   8.337   1.076  0.4681  0.0677 -1.0995
  106MOL0     C14209   9.189   8.284   0.955  0.2903  0.4115  0.1874
  106MOL0     O14210   9.101   8.319   0.860 -0.1068  0.1181 -0.2501
  106MOL0     C14211   9.143   8.311   0.727  0.9478 -0.1398  0.4044
  106MOL0     C14212   9.067   8.208   0.635 -0.1859 -0.2886 -0.4175
  106MOL0     C14213   8.914   8.206   0.644 -0.2474 -0.3877  1.0368
  106MOL0     C14214   8.869   8.356   0.616  0.2165  0.5938  0.5550
  106MOL0     C14215   8.717   8.357   0.612  0.4021 -0.8048  0.1109
  106MOL0     C14216   8.671   8.502   0.573 -0.1348 -0.0234  0.3181
  106MOL0     C14217   8.521   8.525   0.597 -0.3414  0.2228  0.1897
  106MOL0     C14218   8.436   8.456   0.493  0.3672  1.0112 -0.3741
  106MOL0    Cl14219   8.252   8.489   0.520  0.1841 -0.5534 -0.1065
  106MOL0     C14220   9.292   8.190   0.940  0.2406 -0.5376  0.4204
  106MOL0     C14221   9.377   8.154   1.044  1.2912 -0.2299  0.2825
  106MOL0     O14222   9.619   8.131   1.183 -0.1952 -1.3343  0.1427
  106MOL0     C14223   9.747   8.140   1.449 -0.6722  0.7704  0.0626
  106MOL0     C14224   9.811   8.126   1.572  0.4363 -0.1104  0.9482
  106MOL0     N14225  10.234   8.336   2.096 -0.5158 -0.2842  0.2925
  106MOL0     N14226  10.217   8.439   2.180 -1.0115  0.2580  0.6433
  106MOL0     C14227   9.188   8.112   2.799  0.1380  0.0009 -0.0299
  106MOL0     C14228   9.069   8.097   2.870  0.0303  0.3530 -0.5198
  106MOL0     C14229   8.759   7.916   3.172  0.4873 -0.5888 -0.4258
  106MOL0     C14230   8.674   8.026   3.128 -0.1529 -0.1803  0.0671
  106MOL0     C14231   8.536   8.023   3.157  0.7521 -0.1174 -0.1219
  106MOL0     C14232   8.478   7.923   3.233  0.5269 -0.0401 -0.2254
  106MOL0     O14233   8.344   7.918   3.240 -0.0351 -0.4630 -0.1338
  106MOL0     C14234   8.280   7.812   3.168  0.0015 -0.2094 -0.5975
  106MOL0     C14235   8.224   7.706   3.270 -0.3278  0.0524  0.2335
  106MOL0     C14236   8.165   7.767   3.397 -0.6801 -0.9305 -0.3511
  106MOL0     C14237   8.108   7.656   3.491  0.0243  0.4704 -0.1989
  106MOL0     C14238   7.996   7.582   3.436  0.0245 -0.4700  0.3715
  106MOL0     C14239   7.910   7.512   3.373  0.5178 -0.6886 -0.2776
  106MOL0     C14240   8.562   7.827   3.286 -0.3912 -0.5327 -0.0608
  106MOL0     C14241   8.699   7.823   3.260  0.1861 -0.0543 -0.4201
  106MOL0     C14242   8.786   7.736   3.344 -0.6148 -0.1135  0.4833
  106MOL0     H14243   9.184   7.957   3.149  0.9508  0.5107  0.2558
  106MOL0     H14244   9.404   7.962   3.008 -0.1660 -1.2994 -0.0405
  106MOL0     H14245   9.365   8.057   2.592  1.5445  0.4227 -1.1082
  106MOL0     H14246   9.416   8.218   2.646 -0.8028  1.2860  2.2380
  106MOL0     H14247   9.562   7.997   2.529  2.5317  0.6399 -0.7131
  106MOL0     H14248   9.644   8.022   2.678  1.4087  0.6033  0.0593
  106MOL0     H14249   9.590   8.245   2.474  1.3031  3.1705  0.9332
  106MOL0     H14250   9.741   8.140   2.491 -0.2302 -0.6965  0.8686
  106MOL0     H14251   9.631   8.340   2.679 -1.6330 -0.3917 -1.9863
  106MOL0     H14252   9.781   8.237   2.706  0.6674  0.2995 -0.7260
  106MOL0     H14253   9.716   8.440   2.484 -0.8631  0.7301  1.7667
  106MOL0     H14254   9.804   8.476   2.627  2.4766  0.0647 -0.6858
  106MOL0     H14255   9.987   8.303   2.579  2.0570  0.2422 -1.9113
  106MOL0     H14256   9.911   8.282   2.427  0.7646 -1.0241  1.1194
  106MOL0     H14257   9.977   8.557   2.535 -4.1589 -0.0175 -0.2469
  106MOL0     H14258   9.941   8.520   2.372 -0.5455  0.3707  0.5256
  106MOL0     H14259  10.185   8.556   2.395 -2.2816  1.6924 -0.6060
  106MOL0     H14260  10.198   8.400   2.482 -0.8078  0.6818 -1.1656
  106MOL0     H14261  10.070   8.191   2.334 -1.7023  2.5610  0.7493
  106MOL0     H14262  10.218   8.103   1.984  0.4785  3.5506 -0.0319
  106MOL0     H14263  10.196   8.027   2.144  0.7591  1.6927  0.5812
  106MOL0     H14264   9.977   7.986   2.011  1.8221 -0.8747 -0.8481
  106MOL0     H14265   9.946   8.128   2.113  0.6329  1.0329 -0.3643
  106MOL0     H14266  10.045   8.143   1.834 -1.5589 -0.5976 -1.7215
  106MOL0     H14267  10.022   8.274   1.948  3.6414 -2.0587  0.8833
  106MOL0     H14268   9.830   8.277   1.808 -2.1418  2.1735  3.3411
  106MOL0     H14269   9.777   8.216   1.961 -1.0639  0.4192 -0.6218
  106MOL0     H14270   9.539   8.116   1.761  2.7219  4.0446  1.9172
  106MOL0     H14271   9.423   8.135   1.541 -0.1197  2.0599  2.7685
  106MOL0     H14272   9.225   8.341   1.278  0.3553  0.7624  0.3487
  106MOL0     H14273   9.097   8.419   1.100  0.9192  0.1727 -0.1878
  106MOL0     H14274   9.138   8.412   0.686  0.8558 -0.5737 -0.6714
  106MOL0     H14275   9.249   8.287   0.714  1.5637  2.1044  0.8478
  106MOL0     H14276   9.098   8.225   0.532 -0.3168 -4.0184 -1.2110
  106MOL0     H14277   9.096   8.107   0.664  0.4005  0.0526  0.2302
  106MOL0     H14278   8.873   8.144   0.565 -0.2806  3.8062 -2.6297
  106MOL0     H14279   8.884   8.169   0.742 -0.7939 -0.1833  0.9483
  106MOL0     H14280   8.908   8.372   0.515 -2.8783 -2.5505 -1.3817
  106MOL0     H14281   8.903   8.427   0.691  0.3122  2.9569 -1.5946
  106MOL0     H14282   8.698   8.342   0.719  0.9886  3.8280  1.0755
  106MOL0     H14283   8.671   8.285   0.544 -0.7615  0.6204 -0.6680
  106MOL0     H14284   8.729   8.574   0.631  2.0259 -1.0230 -0.4820
  106MOL0     H14285   8.692   8.522   0.467  2.6008  0.6316  0.9188
  106MOL0     H14286   8.486   8.628   0.594  0.4604  0.5268 -3.2613
  106MOL0     H14287   8.502   8.487   0.698 -4.5772  1.3782  0.0265
  106MOL0     H14288   8.456   8.498   0.394  1.1421 -0.8741 -1.0703
  106MOL0     H14289   8.454   8.348   0.494 -0.0967  0.8080  3.5731
  106MOL0     H14290   9.304   8.141   0.844  1.7833  1.5480 -0.5117
  106MOL0     H14291   9.455   8.082   1.020  0.2376 -1.0896 -0.6749
  106MOL0     H14292   9.818   8.147   1.367 -0.9532 -1.5042 -0.4377
  106MOL0     H14293   9.919   8.117   1.575  0.5301  0.5066 -0.0485
  106MOL0     H14294   9.180   8.153   2.699  0.1122  2.8470  1.0508
  106MOL0     H14295   8.986   8.151   2.823 -0.1359  0.3250 -0.2587
  106MOL0     H14296   8.701   8.115   3.072 -3.3700  0.8162 -0.1266
  106MOL0     H14297   8.477   8.100   3.109  2.1167 -0.1148 -1.8735
  106MOL0     H14298   8.353   7.768   3.100  4.2733  3.2968  1.2010
  106MOL0     H14299   8.197   7.852   3.109 -0.3142  1.8042  1.0679
  106MOL0     H14300   8.310   7.641   3.290  0.2524  0.6113 -0.3932
  106MOL0     H14301   8.143   7.652   3.220 -1.0578 -1.0742  2.4744
  106MOL0     H14302   8.098   7.852   3.377 -0.1469 -0.6337 -0.9242
  106MOL0     H14303   8.248   7.816   3.448  0.6728  1.0544 -4.0371
  106MOL0     H14304   8.184   7.580   3.509 -2.4562 -2.2730 -0.5161
  106MOL0     H14305   8.072   7.713   3.577  0.5395  0.0073  0.3332
  106MOL0     H14306   7.830   7.455   3.331  1.4829 -0.6745 -2.2601
  106MOL0     H14307   8.509   7.759   3.352  0.1768  1.9642  3.2199
  106MOL0     H14308   8.827   7.653   3.287 -1.1073  0.4937 -0.7961
  106MOL0     H14309   8.873   7.793   3.377  1.2655 -1.0198 -2.5959
  106MOL0     H14310   8.737   7.689   3.430 -0.2562  0.6841  1.1444
  107MOL0     O14311   3.448  10.478   3.429  0.6546  0.4082  0.4261
  107MOL0     C14312   3.427  10.424   3.532 -0.1316 -0.2725 -0.3415
  107MOL0     O14313   3.527  10.385   3.618  0.3887 -0.3014 -0.2000
  107MOL0     C14314   3.660  10.425   3.605  0.4171  0.1225 -0.6018
  107MOL0     C14315   3.714  10.539   3.537 -0.5232  0.8199  0.6178
  107MOL0     C14316   3.846  10.571   3.562  0.3377  1.3551  0.0321
  107MOL0     C14317   3.943  10.482   3.631  0.0463 -0.3911  0.5119
  107MOL0     O14318   4.076  10.516   3.640  0.2352 -0.0351  0.4615
  107MOL0     C14319   4.170  10.483   3.532 -0.3797 -0.0667 -0.3013
  107MOL0     C14320   4.151  10.583   3.418  0.6635  0.0405  1.7585
  107MOL0     C14321   4.161  10.736   3.463  0.0045 -0.5645 -0.0823
  107MOL0     C14322   4.145  10.832   3.343 -0.1956 -0.4595  0.0890
  107MOL0     C14323   4.298  10.865   3.303  0.8958 -0.0218 -0.5700
  107MOL0     C14324   4.303  10.915   3.159  0.8372  0.8748 -0.1269
  107MOL0     C14325   4.438  10.961   3.126 -0.0531  0.0782  0.2154
  107MOL0     C14326   4.473  11.107   3.155  0.0560 -0.1212 -0.4897
  107MOL0     N14327   4.580  11.162   3.076 -0.3890  0.5430 -0.0955
  107MOL0     C14328   4.713  11.118   3.055 -0.8611  1.1500 -0.0701
  107MOL0     C14329   4.768  11.223   3.001 -0.7201 -0.4937  0.2870
  107MOL0     C14330   4.917  11.227   2.979 -0.2564  1.1215  0.9563
  107MOL0     C14331   5.003  11.287   3.101  0.2833  0.5700  0.7091
  107MOL0     C14332   5.151  11.244   3.094  0.1561  0.0324 -0.0839
  107MOL0     C14333   5.221  11.275   3.224  0.3728 -0.4060 -0.4223
  107MOL0     O14334   5.321  11.376   3.225  0.1746  0.4661  0.1180
  107MOL0     C14335   5.391  11.419   3.333 -0.8698  0.1407 -0.0257
  107MOL0     C14336   5.502  11.497   3.294  0.1011  0.0857 -0.0876
  107MOL0     C14337   5.601  11.540   3.383 -0.1802 -1.3449 -0.2118
  107MOL0     C14338   5.577  11.517   3.521 -0.2761 -0.7246  0.4289
  107MOL0     C14339   5.673  11.572   3.624  0.5567 -0.3388 -0.0100
  107MOL0     O14340   5.772  11.657   3.590 -0.1117  0.7149 -0.0722
  107MOL0     C14341   5.868  11.699   3.685 -0.3515 -0.2330  0.8278
  107MOL0     C14342   5.894  11.653   3.815  0.3025 -0.1318  1.3118
  107MOL0     C14343   6.002  11.696   3.889 -0.4050 -0.8687 -0.0144
  107MOL0     C14344   6.094  11.793   3.843  0.4113 -0.9268 -0.1417
  107MOL0     O14345   6.203  11.835   3.918 -0.0695  0.0826 -0.3800
  107MOL0     C14346   6.197  11.795   4.057  1.0502 -0.6135  0.2704
  107MOL0     C14347   6.309  11.863   4.135  0.8093 -0.5602 -0.6214
  107MOL0     C14348   6.443  11.774   4.154  0.0747 -0.6969 -0.1972
  107MOL0     C14349   6.506  11.743   4.021 -0.2869  0.0017 -0.4453
  107MOL0     C14350   6.623  11.653   4.037 -0.2436 -0.3115 -0.0746
  107MOL0     C14351   6.725  11.721   4.127 -0.1077 -0.9797 -0.0208
  107MOL0     C14352   6.765  11.866   4.082  0.0403 -0.6036  0.6190
  107MOL0     C14353   6.847  11.864   3.951  0.5952  0.0620 -0.1366
  107MOL0    Cl14354   6.933  12.026   3.927 -0.5563 -0.4703  0.0613
  107MOL0     C14355   6.067  11.845   3.715 -0.0564  0.1433 -0.0073
  107MOL0     C14356   5.947  11.811   3.646  0.3609  0.3969  0.2409
  107MOL0     O14357   5.664  11.518   3.734 -0.6836  0.5371 -0.6182
  107MOL0     C14358   5.463  11.450   3.564  0.6126 -0.7741 -0.2637
  107MOL0     C14359   5.375  11.397   3.468  1.3517  0.9205  0.9113
  107MOL0     N14360   4.688  11.329   2.976 -0.2568  0.6286  0.0602
  107MOL0     N14361   4.570  11.287   3.016 -0.1627 -0.6369  0.0041
  107MOL0     C14362   3.886  10.380   3.693  0.1014  0.4284  0.0200
  107MOL0     C14363   3.751  10.344   3.672 -0.9450 -0.4562 -0.0550
  107MOL0     C14364   3.286  10.397   3.567 -0.7002  0.8447  0.5257
  107MOL0     C14365   3.263  10.286   3.646  0.1006 -0.7402 -0.0085
  107MOL0     C14366   3.139  10.254   3.689  0.9758  0.2959  0.7148
  107MOL0     C14367   3.028  10.326   3.648  0.1209 -0.2688 -0.3144
  107MOL0     O14368   2.905  10.299   3.700 -0.5956  0.1145 -0.8421
  107MOL0     C14369   2.792  10.382   3.660  0.5085 -0.6880  0.1647
  107MOL0     C14370   2.738  10.331   3.520  0.1577 -0.5615 -0.1741
  107MOL0     C14371   2.580  10.363   3.510 -0.1640  0.4521  0.3374
  107MOL0     C14372   2.549  10.322   3.370 -0.0691 -0.8996  0.1910
  107MOL0     C14373   2.410  10.328   3.343 -0.6630  0.6939 -0.9889
  107MOL0     C14374   2.293  10.334   3.313 -0.0119 -0.1945  0.3384
  107MOL0     C14375   3.049  10.438   3.571 -0.6007  0.5098  0.2774
  107MOL0     C14376   3.177  10.476   3.529 -0.1423  0.2024 -0.1011
  107MOL0     C14377   3.180  10.598   3.438  0.2544  0.0513 -0.1802
  107MOL0     H14378   3.653  10.616   3.491  3.0225  4.6933  1.8049
  107MOL0     H14379   3.882  10.660   3.512 -0.6375  0.1347 -3.1389
  107MOL0     H14380   4.272  10.492   3.569 -1.2429 -0.8146  2.5137
  107MOL0     H14381   4.151  10.381   3.496  3.4660 -0.5929 -1.2670
  107MOL0     H14382   4.047  10.567   3.387  0.5786  1.3985  1.2593
  107MOL0     H14383   4.209  10.563   3.328 -2.3483  0.3871 -0.4025
  107MOL0     H14384   4.260  10.742   3.510  0.4754  0.5360 -1.1844
  107MOL0     H14385   4.091  10.765   3.542  4.2090  1.1145  3.4929
  107MOL0     H14386   4.096  10.788   3.256 -1.9917 -0.3003  0.9697
  107MOL0     H14387   4.093  10.921   3.381  0.3991  0.9730 -2.2478
  107MOL0     H14388   4.341  10.946   3.361  1.4634 -1.4103  1.0483
  107MOL0     H14389   4.355  10.773   3.319  0.2942 -0.9355 -3.1363
  107MOL0     H14390   4.264  10.835   3.094 -0.8356  0.9865  0.6712
  107MOL0     H14391   4.235  10.999   3.142 -2.1633 -1.0921  1.2964
  107MOL0     H14392   4.457  10.935   3.022  1.1612  0.0234  0.4277
  107MOL0     H14393   4.509  10.896   3.180 -0.6517  0.6110  1.7110
  107MOL0     H14394   4.383  11.170   3.147  1.9460  2.9539  0.7719
  107MOL0     H14395   4.512  11.114   3.257  1.2733  1.4047 -1.0239
  107MOL0     H14396   4.754  11.027   3.097 -0.1150  2.2510  1.7217
  107MOL0     H14397   4.954  11.124   2.980  0.0410  1.2343  1.5478
  107MOL0     H14398   4.936  11.271   2.880 -2.9239  0.9238  0.2847
  107MOL0     H14399   4.993  11.396   3.105  0.2393  0.5825  0.3546
  107MOL0     H14400   4.949  11.248   3.188  0.7330  0.2960  0.8694
  107MOL0     H14401   5.202  11.290   3.010  2.9719  2.4557  2.6840
  107MOL0     H14402   5.162  11.136   3.083 -3.4234 -0.3148 -1.5068
  107MOL0     H14403   5.274  11.185   3.254 -0.4826 -1.1550 -1.0903
  107MOL0     H14404   5.139  11.293   3.294  3.3126  0.0019  3.2118
  107MOL0     H14405   5.521  11.511   3.188 -0.7830  1.9020 -0.0381
  107MOL0     H14406   5.688  11.603   3.364  1.6910 -2.7075  2.9590
  107MOL0     H14407   5.847  11.574   3.873  0.2122 -1.0913 -0.0148
  107MOL0     H14408   6.007  11.644   3.984 -1.7548  1.8992  1.7063
  107MOL0     H14409   6.106  11.814   4.115 -0.2970  2.8932 -2.6501
  107MOL0     H14410   6.214  11.687   4.065 -0.3159 -1.1158 -2.5669
  107MOL0     H14411   6.326  11.960   4.086 -0.8545 -0.2689 -0.6660
  107MOL0     H14412   6.285  11.878   4.241  1.3717  4.2639 -0.9516
  107MOL0     H14413   6.517  11.835   4.207  1.6139 -0.5145 -2.4117
  107MOL0     H14414   6.410  11.680   4.200  1.2270 -1.9186 -1.7728
  107MOL0     H14415   6.532  11.844   3.987 -1.1812  1.3069  2.4210
  107MOL0     H14416   6.424  11.709   3.957  0.3484 -0.2975 -1.1063
  107MOL0     H14417   6.658  11.637   3.935  0.8044 -0.0007  0.2274
  107MOL0     H14418   6.594  11.557   4.081 -1.0317 -1.3840 -2.7392
  107MOL0     H14419   6.694  11.719   4.232 -0.0897 -1.0775 -0.0168
  107MOL0     H14420   6.813  11.656   4.122 -0.3598 -1.8044  3.4973
  107MOL0     H14421   6.828  11.915   4.156 -0.7221 -0.5481  1.2459
  107MOL0     H14422   6.686  11.938   4.057  0.0348 -0.7294  0.2569
  107MOL0     H14423   6.925  11.788   3.955  0.9063  0.3606 -0.4191
  107MOL0     H14424   6.789  11.844   3.860 -1.4068 -1.1018  1.3173
  107MOL0     H14425   6.132  11.916   3.666 -0.7766 -0.5808 -2.1385
  107MOL0     H14426   5.934  11.847   3.545  0.8372 -0.2409 -0.0529
  107MOL0     H14427   5.435  11.433   3.668 -0.3389  2.0733  0.0555
  107MOL0     H14428   5.289  11.336   3.493 -0.5006  2.5267 -1.2040
  107MOL0     H14429   3.947  10.306   3.744  0.4004  0.4289 -0.3290
  107MOL0     H14430   3.717  10.255   3.725  2.0848 -0.2596  2.5542
  107MOL0     H14431   3.346  10.221   3.670 -0.5891 -1.8002 -0.4671
  107MOL0     H14432   3.132  10.160   3.744 -1.4871 -1.6135 -2.5130
  107MOL0     H14433   2.805  10.490   3.662  0.7188 -0.6716  3.5620
  107MOL0     H14434   2.713  10.376   3.735 -0.2328 -1.5194 -0.6571
  107MOL0     H14435   2.736  10.222   3.528  0.7080 -0.4394  3.5095
  107MOL0     H14436   2.797  10.365   3.435 -0.9366 -1.2739 -1.2452
  107MOL0     H14437   2.554  10.466   3.535 -1.1302  0.7205 -1.5571
  107MOL0     H14438   2.524  10.307   3.585 -0.7764  1.4070  0.5955
  107MOL0     H14439   2.603  10.388   3.302  1.7239 -2.6288 -0.1620
  107MOL0     H14440   2.584  10.221   3.348 -1.0003 -0.7423 -2.4569
  107MOL0     H14441   2.190  10.358   3.298  0.5404  3.1988  0.9327
  107MOL0     H14442   2.972  10.502   3.529  1.4993  0.8151 -3.6041
  107MOL0     H14443   3.256  10.581   3.360  2.2111 -1.6548  1.9564
  107MOL0     H14444   3.089  10.626   3.385  2.4876  3.3137 -2.7273
  107MOL0     H14445   3.213  10.692   3.483  0.1657  0.5912 -1.2038
  108MOL0     O14446   7.144   7.711   5.150 -0.4987  0.2348 -0.3036
  108MOL0     C14447   7.064   7.738   5.063  0.5466 -0.9557 -0.2705
  108MOL0     O14448   7.098   7.805   4.952 -0.2192  0.6964  0.4377
  108MOL0     C14449   7.229   7.791   4.909  0.1439  0.3016 -0.1047
  108MOL0     C14450   7.331   7.876   4.959  0.2126  0.0840 -1.3328
  108MOL0     C14451   7.465   7.864   4.921 -0.1344 -0.5647 -0.1339
  108MOL0     C14452   7.492   7.763   4.821  0.5235 -0.9619  0.5324
  108MOL0     O14453   7.618   7.724   4.779  0.0652  0.3641  0.1642
  108MOL0     C14454   7.740   7.769   4.850  0.1841 -0.3170 -0.2199
  108MOL0     C14455   7.853   7.667   4.821 -0.7480 -0.8618  0.5468
  108MOL0     C14456   7.899   7.715   4.680 -0.2127 -0.5664  0.6303
  108MOL0     C14457   8.009   7.636   4.616 -0.8726  0.0731  0.4678
  108MOL0     C14458   8.050   7.696   4.480 -0.3411  0.5415 -0.0694
  108MOL0     C14459   7.959   7.672   4.357  0.8793  0.4622  0.3994
  108MOL0     C14460   7.916   7.530   4.343 -0.3220 -0.0340 -0.4214
  108MOL0     C14461   7.855   7.485   4.214 -0.0078 -1.3288  0.3186
  108MOL0     N14462   7.799   7.349   4.226  1.0394  0.0378 -0.2928
  108MOL0     C14463   7.860   7.245   4.287  0.0685 -0.3129  0.1296
  108MOL0     C14464   7.787   7.140   4.258  0.7331 -0.2099  0.3745
  108MOL0     C14465   7.821   7.002   4.311  0.5022  0.2665 -0.1355
  108MOL0     C14466   7.911   6.926   4.227 -0.7335  0.0970  0.5887
  108MOL0     C14467   7.864   6.923   4.082 -0.1053 -0.8426  0.2129
  108MOL0     C14468   7.966   6.862   3.982  0.7021 -1.0619 -0.6303
  108MOL0     O14469   7.964   6.724   3.978  0.3442  0.3303  0.1461
  108MOL0     C14470   8.053   6.649   3.899  0.7520  0.6804  0.5271
  108MOL0     C14471   8.154   6.708   3.830 -0.0088  0.1050  0.0896
  108MOL0     C14472   8.230   6.638   3.737 -0.1835  0.2579  0.1687
  108MOL0     C14473   8.224   6.500   3.718  0.4766 -0.6198 -1.5733
  108MOL0     C14474   8.292   6.431   3.615  0.8514 -0.0032 -0.0043
  108MOL0     O14475   8.388   6.499   3.554 -0.5951 -0.0437  0.1657
  108MOL0     C14476   8.475   6.444   3.463  0.1474 -0.1858  0.6234
  108MOL0     C14477   8.533   6.321   3.480 -0.2716 -0.0036 -0.4832
  108MOL0     C14478   8.621   6.267   3.378 -0.6580  1.1949 -0.9668
  108MOL0     C14479   8.654   6.336   3.263 -0.5286  0.4279  0.1063
  108MOL0     O14480   8.750   6.285   3.170 -0.4095  0.2667  0.2146
  108MOL0     C14481   8.801   6.375   3.064 -0.6840 -1.0691  0.1455
  108MOL0     C14482   8.925   6.307   3.004 -0.1212  0.4067 -0.3781
  108MOL0     C14483   8.968   6.391   2.888 -1.0161  0.5394  0.2272
  108MOL0     C14484   9.067   6.299   2.802  0.0770 -0.3355 -0.6022
  108MOL0     C14485   9.158   6.357   2.700  0.7101  0.8986 -0.4276
  108MOL0     C14486   9.261   6.260   2.649  1.0409  0.4032  0.4684
  108MOL0     C14487   9.362   6.308   2.540 -0.2225  0.3328  0.1335
  108MOL0     C14488   9.465   6.401   2.609  0.1044  0.5847  0.1438
  108MOL0    Cl14489   9.607   6.386   2.493  0.1465 -0.4890  0.1447
  108MOL0     C14490   8.592   6.459   3.247  0.3043 -0.1721  0.2839
  108MOL0     C14491   8.510   6.510   3.350  0.2927  0.2043  0.4291
  108MOL0     O14492   8.258   6.316   3.590 -0.3181 -0.2100 -0.2247
  108MOL0     C14493   8.119   6.438   3.797 -0.4823  0.4894 -0.4231
  108MOL0     C14494   8.042   6.511   3.888 -0.2932 -0.6435 -0.2781
  108MOL0     N14495   7.680   7.179   4.178  0.7302 -0.0493  0.5108
  108MOL0     N14496   7.686   7.306   4.158 -0.6258  0.7674  0.3723
  108MOL0     C14497   7.385   7.686   4.765  0.4221 -0.9120  0.1695
  108MOL0     C14498   7.255   7.696   4.813  1.0367 -0.3408  0.0490
  108MOL0     C14499   6.925   7.706   5.064  0.8856 -1.0675 -0.7400
  108MOL0     C14500   6.838   7.781   4.979 -0.1870 -0.4715  1.1481
  108MOL0     C14501   6.699   7.768   4.974  0.5424  0.8401  0.3808
  108MOL0     C14502   6.625   7.677   5.062  1.0248 -0.3464  1.0631
  108MOL0     O14503   6.483   7.676   5.061 -0.6406 -0.4637 -0.4341
  108MOL0     C14504   6.420   7.649   5.183  0.0106  0.4747 -0.0242
  108MOL0     C14505   6.374   7.508   5.208  0.3496  1.2919 -0.4516
  108MOL0     C14506   6.266   7.460   5.103 -0.0756 -0.3194  0.2259
  108MOL0     C14507   6.154   7.370   5.144  0.5721  0.6389 -0.1559
  108MOL0     C14508   6.207   7.252   5.208 -0.7680 -0.8251 -0.2579
  108MOL0     C14509   6.246   7.148   5.262 -0.4143 -1.0304  0.5523
  108MOL0     C14510   6.708   7.611   5.142 -0.5334  0.3219 -0.0535
  108MOL0     C14511   6.849   7.626   5.154  0.7271  0.4934  0.3398
  108MOL0     C14512   6.919   7.566   5.268 -0.0090 -0.0701 -0.1171
  108MOL0     H14513   7.319   7.961   5.026 -1.1457 -0.0308 -1.4167
  108MOL0     H14514   7.540   7.931   4.961 -0.4786  0.2990 -0.8833
  108MOL0     H14515   7.766   7.874   4.834  0.7111 -0.5141 -0.6859
  108MOL0     H14516   7.729   7.754   4.958  2.0512  2.2065  0.4362
  108MOL0     H14517   7.838   7.559   4.828  1.4660 -1.2336  0.3869
  108MOL0     H14518   7.939   7.693   4.884  0.7848  3.1776 -2.7893
  108MOL0     H14519   7.937   7.818   4.683 -0.3029 -0.5076 -0.1595
  108MOL0     H14520   7.814   7.723   4.612  0.9806  1.9199 -0.6848
  108MOL0     H14521   8.098   7.665   4.674  0.1644  0.7550 -1.3977
  108MOL0     H14522   7.992   7.528   4.622 -0.8205  0.0396  0.0325
  108MOL0     H14523   8.070   7.803   4.490  2.2761 -0.0970  2.9114
  108MOL0     H14524   8.147   7.649   4.460 -1.1753 -2.4546  2.2460
  108MOL0     H14525   7.869   7.734   4.351 -0.1333 -1.0701 -1.0444
  108MOL0     H14526   8.013   7.694   4.264 -1.1227  0.1201 -0.9009
  108MOL0     H14527   7.839   7.517   4.419 -0.5711 -2.1584 -0.9768
  108MOL0     H14528   8.001   7.465   4.365  1.4647  2.7364  1.7314
  108MOL0     H14529   7.773   7.554   4.193  1.3931  1.0734  2.3462
  108MOL0     H14530   7.924   7.494   4.130 -0.6760 -1.2324 -0.2329
  108MOL0     H14531   7.949   7.234   4.348  0.2184  2.1869  0.4365
  108MOL0     H14532   7.871   7.015   4.407 -0.6948  1.4831  0.3591
  108MOL0     H14533   7.735   6.944   4.346  1.9893  0.2391  3.9589
  108MOL0     H14534   8.005   6.982   4.225 -0.1236 -0.8981  0.7230
  108MOL0     H14535   7.917   6.821   4.257  1.4669  0.4951  1.7236
  108MOL0     H14536   7.842   7.021   4.039  1.0842 -0.9905 -0.7885
  108MOL0     H14537   7.766   6.873   4.087 -2.2024  2.9187 -0.0341
  108MOL0     H14538   8.064   6.888   4.022 -0.2307 -0.1004  1.1400
  108MOL0     H14539   7.958   6.914   3.886  1.2228  0.8558  0.3074
  108MOL0     H14540   8.163   6.815   3.815  0.6975 -0.2416 -2.3290
  108MOL0     H14541   8.312   6.691   3.690 -0.4747 -0.0273 -0.6838
  108MOL0     H14542   8.518   6.261   3.570 -1.8620  0.2894 -0.5099
  108MOL0     H14543   8.675   6.174   3.393  0.2107  1.8556  0.2442
  108MOL0     H14544   8.727   6.398   2.987 -0.2455  2.2617  0.5684
  108MOL0     H14545   8.814   6.477   3.101 -2.0696 -0.7721 -0.1183
  108MOL0     H14546   9.012   6.302   3.069  1.8908  0.4240 -2.9070
  108MOL0     H14547   8.902   6.206   2.969 -1.8129  0.0795  1.4767
  108MOL0     H14548   8.888   6.432   2.825 -0.1264  2.7241  0.4416
  108MOL0     H14549   9.010   6.484   2.927 -2.4657  0.4033  2.2903
  108MOL0     H14550   9.004   6.223   2.756  0.9713 -2.4869  1.5123
  108MOL0     H14551   9.144   6.253   2.865  0.6279  2.3896  0.8622
  108MOL0     H14552   9.212   6.441   2.744  1.3683  1.3772 -2.0466
  108MOL0     H14553   9.095   6.397   2.619 -0.1434 -0.2845 -0.3616
  108MOL0     H14554   9.317   6.240   2.742  0.7616  3.4674  1.4282
  108MOL0     H14555   9.218   6.167   2.612 -1.0070  1.8322 -0.9320
  108MOL0     H14556   9.306   6.361   2.463  0.2659  0.7446  0.0555
  108MOL0     H14557   9.414   6.219   2.502  0.4612  1.6681 -2.2346
  108MOL0     H14558   9.446   6.509   2.602  0.2252  0.7380  1.7746
  108MOL0     H14559   9.491   6.371   2.710 -0.3654 -0.0939  0.0696
  108MOL0     H14560   8.609   6.518   3.157  1.2554  0.8097  1.0799
  108MOL0     H14561   8.456   6.602   3.326 -1.6754 -0.9234  0.2784
  108MOL0     H14562   8.103   6.331   3.794  1.0702  0.2028  0.3743
  108MOL0     H14563   7.962   6.468   3.948 -0.8761  1.2991  0.4045
  108MOL0     H14564   7.417   7.626   4.681  0.6761  0.8964 -1.0810
  108MOL0     H14565   7.183   7.627   4.769  0.4284  0.7119 -0.6508
  108MOL0     H14566   6.871   7.858   4.910 -0.4057 -0.2037  1.3370
  108MOL0     H14567   6.644   7.823   4.899  0.9369  0.3758 -0.2613
  108MOL0     H14568   6.334   7.717   5.188 -3.9638 -3.8461 -1.9073
  108MOL0     H14569   6.484   7.675   5.268 -0.7628  0.3214  0.6161
  108MOL0     H14570   6.338   7.498   5.311 -2.0343 -0.2936 -1.3530
  108MOL0     H14571   6.457   7.436   5.211 -0.9405 -0.2188  1.8886
  108MOL0     H14572   6.310   7.401   5.022 -0.4612 -2.5244  1.5196
  108MOL0     H14573   6.218   7.550   5.065  0.0883 -0.9415 -1.5854
  108MOL0     H14574   6.105   7.419   5.228  0.6146  0.1403  0.1642
  108MOL0     H14575   6.077   7.351   5.069  0.8720  2.8640 -1.1175
  108MOL0     H14576   6.276   7.056   5.307 -2.3107 -1.4909  0.9738
  108MOL0     H14577   6.650   7.545   5.206  0.6118 -0.0032  0.6665
  108MOL0     H14578   6.938   7.647   5.339  0.4992 -0.5856  0.3434
  108MOL0     H14579   6.868   7.481   5.315  1.5868 -1.2582 -0.4525
  108MOL0     H14580   7.014   7.516   5.249  0.3357 -0.6827  2.7530
  109MOL0     O14581  11.269  10.316  10.892 -0.3097  0.6487  0.3098
  109MOL0     C14582  11.307  10.389  10.984  0.3093 -0.7465  0.4850
  109MOL0     O14583  11.442  10.418  11.024  0.0694  0.0045  0.1337
  109MOL0     C14584  11.533  10.347  10.962  0.2064  0.9651  0.2323
  109MOL0     C14585  11.594  10.242  11.037  0.7585  0.7146  0.2915
  109MOL0     C14586  11.712  10.179  10.993  0.5595 -0.3084 -0.1066
  109MOL0     C14587  11.763  10.214  10.871 -0.1114 -1.0291 -0.5027
  109MOL0     O14588  11.871  10.141  10.832  0.3945  1.1253 -0.3450
  109MOL0     C14589  11.906  10.119  10.694  0.3493 -0.0671 -0.7714
  109MOL0     C14590  12.052  10.156  10.683 -0.0167  0.0274  0.7513
  109MOL0     C14591  12.163  10.114  10.774 -0.5514  0.0114  1.0920
  109MOL0     C14592  12.309  10.150  10.725 -0.4965  0.0607  0.2403
  109MOL0     C14593  12.407  10.124  10.835 -0.1698  0.3535 -1.0642
  109MOL0     C14594  12.558  10.148  10.790 -0.6222 -1.2009  0.2115
  109MOL0     C14595  12.659  10.106  10.903  0.3775  0.4925  0.7646
  109MOL0     C14596  12.769  10.225  10.912  0.3483 -0.3109  0.4579
  109MOL0     N14597  12.905  10.163  10.921  0.4773 -0.2353 -0.3130
  109MOL0     C14598  12.958  10.101  11.037  0.5629  0.0720  0.3074
  109MOL0     C14599  13.088  10.080  11.003 -0.4889 -0.1492 -0.0739
  109MOL0     C14600  13.204  10.030  11.088 -0.2106  0.0924  0.8566
  109MOL0     C14601  13.310  10.139  11.095 -0.3554  0.7954  0.1220
  109MOL0     C14602  13.455  10.103  11.046  0.2022  1.0006 -0.1281
  109MOL0     C14603  13.550  10.228  11.078  0.3583  0.3394 -0.1064
  109MOL0     O14604  13.685  10.191  11.041 -0.8181  0.4947  0.2957
  109MOL0     C14605  13.767  10.106  11.119 -0.6075  0.1101  0.9229
  109MOL0     C14606  13.734  10.044  11.232 -0.1538 -0.5346 -1.3799
  109MOL0     C14607  13.823   9.955  11.299  0.6539  0.1016 -0.2529
  109MOL0     C14608  13.951   9.930  11.252  0.2918  0.7551  0.3748
  109MOL0     C14609  14.048   9.834  11.318 -0.0915 -0.2140  1.2065
  109MOL0     O14610  14.174   9.825  11.259  0.1805  0.9702  0.8987
  109MOL0     C14611  14.263   9.731  11.315  0.2191 -0.2270  0.8940
  109MOL0     C14612  14.398   9.763  11.353 -0.7692 -0.3883  0.1713
  109MOL0     C14613  14.487   9.667  11.397 -0.2648  0.7148  0.5485
  109MOL0     C14614  14.452   9.531  11.405  1.0464 -0.2799  0.2227
  109MOL0     O14615  14.539   9.430  11.438 -0.9897 -1.1015  0.2363
  109MOL0     C14616  14.522   9.375  11.573  0.4044 -0.1220  0.7328
  109MOL0     C14617  14.566   9.490  11.668  0.1517 -0.2491  0.2303
  109MOL0     C14618  14.591   9.452  11.816  0.0589  0.2968 -0.5183
  109MOL0     C14619  14.474   9.373  11.878 -0.6681  0.0125 -1.0576
  109MOL0     C14620  14.530   9.292  11.996  0.6883  0.5879  0.7410
  109MOL0     C14621  14.631   9.360  12.093 -0.0597 -0.0321  0.0205
  109MOL0     C14622  14.654   9.281  12.220 -0.2791  0.3575  0.8287
  109MOL0     C14623  14.742   9.349  12.323  0.2395 -0.7644  0.3519
  109MOL0    Cl14624  14.677   9.500  12.373 -0.1338  0.0687  0.1426
  109MOL0     C14625  14.317   9.500  11.362  0.5186 -0.2587  0.9974
  109MOL0     C14626  14.221   9.595  11.324  0.0263 -0.1440  0.1813
  109MOL0     O14627  14.004   9.771  11.410  0.0919  0.5129  0.3178
  109MOL0     C14628  13.980   9.987  11.138 -0.6508  0.3381 -0.4971
  109MOL0     C14629  13.895  10.080  11.074  0.1570 -0.3711 -0.0695
  109MOL0     N14630  13.108  10.116  10.870 -0.3540 -0.5815  0.2633
  109MOL0     N14631  12.990  10.154  10.817  1.1943 -0.6689 -0.5423
  109MOL0     C14632  11.694  10.314  10.794 -0.1264 -0.2817  0.1131
  109MOL0     C14633  11.584  10.390  10.839 -0.4673 -0.1450  0.1364
  109MOL0     C14634  11.203  10.476  11.055  0.0483  0.1156  0.3462
  109MOL0     C14635  11.231  10.611  11.081 -0.7582  2.4702 -0.1007
  109MOL0     C14636  11.143  10.675  11.156  0.9206  0.0686  0.2878
  109MOL0     C14637  11.026  10.627  11.215  0.6755  0.7602  0.2486
  109MOL0     O14638  10.944  10.712  11.291 -0.6968  0.8699  0.2296
  109MOL0     C14639  10.802  10.711  11.261 -0.2085 -0.6239 -0.3974
  109MOL0     C14640  10.757  10.857  11.306 -0.3749 -0.7014 -0.7264
  109MOL0     C14641  10.603  10.881  11.286 -0.0677  0.3687  0.4776
  109MOL0     C14642  10.577  11.033  11.273 -0.3098  0.4200  0.0433
  109MOL0     C14643  10.434  11.068  11.273  0.1316  0.1932 -0.3809
  109MOL0     C14644  10.319  11.104  11.275  0.2065  0.1224 -0.9067
  109MOL0     C14645  10.988  10.496  11.177 -0.2662  0.3458 -0.0495
  109MOL0     C14646  11.080  10.414  11.101 -0.2434 -0.0232  0.1815
  109MOL0     C14647  11.035  10.277  11.062  0.4988 -0.7098  0.0193
  109MOL0     H14648  11.552  10.217  11.134  0.2086  0.9538  0.1197
  109MOL0     H14649  11.759  10.105  11.058 -0.7165 -1.2840 -0.2742
  109MOL0     H14650  11.901  10.012  10.669  0.3173  0.0063 -1.0864
  109MOL0     H14651  11.856  10.183  10.621  0.6302  1.6937  0.5127
  109MOL0     H14652  12.061  10.265  10.681  0.1447  0.0120  0.5593
  109MOL0     H14653  12.083  10.106  10.590  2.0321 -0.4957  1.6511
  109MOL0     H14654  12.178  10.007  10.787  3.2527  0.3162  0.3755
  109MOL0     H14655  12.146  10.159  10.872  1.5618  1.5034  0.8472
  109MOL0     H14656  12.335  10.096  10.634  1.5407  2.3140 -0.6267
  109MOL0     H14657  12.317  10.254  10.692 -1.9218 -0.4192 -1.8028
  109MOL0     H14658  12.370  10.177  10.923 -0.6409 -0.6024 -0.6677
  109MOL0     H14659  12.421  10.021  10.870  0.9028  0.5547 -0.8591
  109MOL0     H14660  12.574  10.087  10.701 -1.8842  1.7728 -2.2260
  109MOL0     H14661  12.566  10.252  10.756  2.5007 -1.0449  1.1073
  109MOL0     H14662  12.715  10.018  10.872 -0.7659 -0.2106  0.6186
  109MOL0     H14663  12.604  10.088  10.997  0.1448  0.2329  0.5806
  109MOL0     H14664  12.759  10.290  10.824  1.1303 -1.9183 -0.8760
  109MOL0     H14665  12.742  10.281  11.002 -5.3870 -0.3242 -0.8301
  109MOL0     H14666  12.908  10.092  11.133  0.7030  1.1659  0.5051
  109MOL0     H14667  13.157  10.014  11.186 -1.7686 -2.6040 -0.2375
  109MOL0     H14668  13.252   9.943  11.045  2.0918  1.1068  1.2491
  109MOL0     H14669  13.273  10.224  11.036  2.6456  1.7441 -0.5692
  109MOL0     H14670  13.325  10.177  11.197 -1.3662  2.1316 -0.1926
  109MOL0     H14671  13.464  10.098  10.937 -0.9221  0.3874 -0.2080
  109MOL0     H14672  13.486  10.013  11.100 -0.0046  0.1087 -1.4367
  109MOL0     H14673  13.539  10.247  11.185  0.0628 -1.8871  0.3175
  109MOL0     H14674  13.508  10.313  11.025 -3.3915 -1.3259 -0.0755
  109MOL0     H14675  13.637  10.062  11.277  0.8931 -1.4614  1.4480
  109MOL0     H14676  13.790   9.905  11.389  1.1398 -1.0205 -0.6832
  109MOL0     H14677  14.426   9.867  11.368  1.1392 -0.0093 -4.4548
  109MOL0     H14678  14.583   9.696  11.438  0.2726 -0.8660  0.4671
  109MOL0     H14679  14.416   9.353  11.591  0.3458 -1.1394 -0.6973
  109MOL0     H14680  14.569   9.276  11.577  0.0625 -0.5630 -2.9869
  109MOL0     H14681  14.671   9.514  11.646  0.9991 -0.5113  3.4864
  109MOL0     H14682  14.496   9.574  11.666  1.7122  1.1001  0.2063
  109MOL0     H14683  14.676   9.383  11.814 -1.5728 -1.9475  1.2875
  109MOL0     H14684  14.614   9.542  11.874 -2.9912 -0.6392  2.4767
  109MOL0     H14685  14.429   9.296  11.814 -1.8471  1.1926 -1.6952
  109MOL0     H14686  14.400   9.445  11.914  1.5096  3.0437 -2.2892
  109MOL0     H14687  14.568   9.193  11.968 -0.5182 -0.6948  3.1974
  109MOL0     H14688  14.442   9.271  12.058  1.8100  0.0737  2.2390
  109MOL0     H14689  14.728   9.375  12.044 -0.2080  0.6446 -0.0775
  109MOL0     H14690  14.613   9.466  12.113  0.9770  0.1408  0.0973
  109MOL0     H14691  14.701   9.186  12.192 -2.0906 -1.0200  2.1690
  109MOL0     H14692  14.554   9.262  12.261 -1.7063  1.0980 -2.0298
  109MOL0     H14693  14.757   9.288  12.413 -2.5540  1.1739  2.3134
  109MOL0     H14694  14.838   9.376  12.277  0.6643 -0.5904  1.3093
  109MOL0     H14695  14.280   9.398  11.359 -0.9199  0.2557  0.2346
  109MOL0     H14696  14.125   9.567  11.282  0.4044 -0.5229 -0.4310
  109MOL0     H14697  14.082   9.977  11.102 -0.9701  3.6405 -2.7518
  109MOL0     H14698  13.929  10.121  10.980 -2.6932  0.1473 -0.9584
  109MOL0     H14699  11.742  10.342  10.700 -1.0994 -0.0088 -0.3094
  109MOL0     H14700  11.561  10.489  10.802  0.6941  0.2166  0.3261
  109MOL0     H14701  11.316  10.667  11.042 -0.2401  0.7948 -1.5444
  109MOL0     H14702  11.155  10.779  11.184  0.6774  0.1312  0.1671
  109MOL0     H14703  10.750  10.643  11.329  0.3081  0.1169  0.7669
  109MOL0     H14704  10.787  10.700  11.153 -2.0312  0.5485 -0.3107
  109MOL0     H14705  10.810  10.927  11.241  1.1875  0.5080  1.7056
  109MOL0     H14706  10.789  10.869  11.409  0.4184 -1.7570 -0.8395
  109MOL0     H14707  10.551  10.845  11.375  0.2139  0.5167  0.7056
  109MOL0     H14708  10.579  10.835  11.189  2.2378  0.9576 -0.4499
  109MOL0     H14709  10.629  11.095  11.347 -1.6655 -0.0715  1.4623
  109MOL0     H14710  10.619  11.068  11.178 -0.2146 -0.7146 -0.3471
  109MOL0     H14711  10.216  11.132  11.290 -0.7283 -2.9588 -0.9656
  109MOL0     H14712  10.891  10.454  11.202  1.2088 -1.1891  3.7970
  109MOL0     H14713  11.035  10.266  10.953  1.2049 -0.2286 -0.0342
  109MOL0     H14714  11.105  10.207  11.108  1.5228 -0.9409 -1.7682
  109MOL0     H14715  10.938  10.252  11.106  1.8769 -0.0800  3.7259
  110MOL0     O14716   5.802  10.018   2.906 -1.0287 -0.2933 -0.7742
  110MOL0     C14717   5.727  10.092   2.837 -1.3357  0.0200 -0.0269
  110MOL0     O14718   5.760  10.226   2.805  0.5266 -0.4568 -0.0641
  110MOL0     C14719   5.890  10.254   2.811 -0.1967  0.6597 -0.1138
  110MOL0     C14720   5.971  10.237   2.702 -0.1729 -0.1622  0.6407
  110MOL0     C14721   6.106  10.275   2.700 -0.2725  0.1193  0.6645
  110MOL0     C14722   6.171  10.335   2.809  0.4307 -0.6025 -0.5271
  110MOL0     O14723   6.296  10.350   2.800 -0.0597  0.0847  0.6451
  110MOL0     C14724   6.360  10.430   2.903  0.5783 -0.1791 -1.0019
  110MOL0     C14725   6.506  10.443   2.870  1.1039  0.1665  0.6749
  110MOL0     C14726   6.569  10.544   2.965 -0.6476 -0.7558 -0.0645
  110MOL0     C14727   6.722  10.526   2.958 -0.5966 -0.3764 -0.4644
  110MOL0     C14728   6.793  10.631   3.042  0.0281 -0.1640  0.4522
  110MOL0     C14729   6.948  10.624   3.035  0.3235  0.5025 -0.2004
  110MOL0     C14730   7.007  10.696   3.153  0.0804 -0.0069 -0.0299
  110MOL0     C14731   7.018  10.855   3.139 -0.3290  0.8567 -0.8244
  110MOL0     N14732   7.103  10.904   3.254 -0.2775 -0.4377  0.8800
  110MOL0     C14733   7.135  10.850   3.371 -0.4197  0.3615  0.1648
  110MOL0     C14734   7.226  10.923   3.432  0.1392  0.5332 -0.1193
  110MOL0     C14735   7.299  10.891   3.568  0.9561  0.0143 -0.1327
  110MOL0     C14736   7.445  10.839   3.553 -0.6530  1.2438  0.4026
  110MOL0     C14737   7.530  10.815   3.677  0.6287 -0.3531 -0.0527
  110MOL0     C14738   7.483  10.694   3.764  0.0335  0.3876 -0.1419
  110MOL0     O14739   7.511  10.565   3.702 -0.1653 -0.4863  0.2323
  110MOL0     C14740   7.638  10.507   3.708 -0.8212  0.0567 -0.3765
  110MOL0     C14741   7.755  10.571   3.754  0.3180  0.2940 -0.3053
  110MOL0     C14742   7.869  10.494   3.764 -0.2646 -0.0547 -0.0960
  110MOL0     C14743   7.889  10.361   3.728  0.2873  0.0248  0.0778
  110MOL0     C14744   8.016  10.294   3.754 -0.1774  0.4977  0.2189
  110MOL0     O14745   8.122  10.373   3.799  0.2275 -0.4824  1.0381
  110MOL0     C14746   8.248  10.322   3.802 -0.1568 -0.6333  0.2632
  110MOL0     C14747   8.274  10.199   3.872  0.2836 -0.2517  0.3900
  110MOL0     C14748   8.397  10.148   3.883  0.2716  0.0244 -0.0763
  110MOL0     C14749   8.512  10.207   3.820  0.3351 -1.0128  0.4833
  110MOL0     O14750   8.631  10.147   3.826  0.1865 -0.1135 -0.3270
  110MOL0     C14751   8.752  10.226   3.842 -0.4854  0.0507  0.2797
  110MOL0     C14752   8.756  10.287   3.980  0.3122  0.4709 -0.6126
  110MOL0     C14753   8.736  10.197   4.103  0.0469 -0.1414  0.0852
  110MOL0     C14754   8.858  10.103   4.122 -0.7693  0.6504  0.5792
  110MOL0     C14755   8.827  10.013   4.239 -0.2002 -0.6176 -0.4513
  110MOL0     C14756   8.947   9.915   4.242 -0.3778 -0.6657 -0.0046
  110MOL0     C14757   8.951   9.823   4.369 -0.1078  0.7382  0.8253
  110MOL0     C14758   8.831   9.732   4.377 -0.3466 -0.4096 -0.1225
  110MOL0    Cl14759   8.771   9.654   4.228 -0.1304  0.3016 -0.4559
  110MOL0     C14760   8.488  10.326   3.742 -0.1728 -0.5712 -0.7045
  110MOL0     C14761   8.358  10.382   3.730  0.0809 -0.2775 -0.2139
  110MOL0     O14762   8.019  10.179   3.720 -0.3646  0.4589 -0.0197
  110MOL0     C14763   7.774  10.302   3.673 -0.3224 -0.1542  0.5458
  110MOL0     C14764   7.651  10.368   3.670  0.5259  0.3765 -0.0247
  110MOL0     N14765   7.262  11.026   3.346  0.9733  0.7526  0.2721
  110MOL0     N14766   7.186  11.016   3.243  0.4670 -0.2753  0.1414
  110MOL0     C14767   6.095  10.360   2.922  0.7289 -0.1890  0.0933
  110MOL0     C14768   5.955  10.321   2.915  0.5174 -0.5213 -0.6086
  110MOL0     C14769   5.601  10.039   2.797  0.4751  0.3074  0.4698
  110MOL0     C14770   5.519  10.006   2.908 -0.1653  0.0689  0.6263
  110MOL0     C14771   5.385   9.981   2.890 -0.2491  0.0054  0.4554
  110MOL0     C14772   5.322   9.995   2.768  0.6320  1.1379 -0.1137
  110MOL0     O14773   5.182   9.984   2.773  0.4608 -0.1504  0.0923
  110MOL0     C14774   5.113  10.022   2.656  0.5864 -0.1250 -0.2900
  110MOL0     C14775   4.959  10.015   2.674 -0.5710 -0.5400 -0.3183
  110MOL0     C14776   4.909  10.099   2.796 -0.2800  0.7200 -0.2715
  110MOL0     C14777   4.765  10.114   2.805  0.7174 -0.4273 -0.8117
  110MOL0     C14778   4.731  10.231   2.720  0.2594  0.6385  0.9457
  110MOL0     C14779   4.710  10.336   2.668  0.2042  0.6113  0.1242
  110MOL0     C14780   5.399  10.030   2.653 -0.6687  0.2750  0.2180
  110MOL0     C14781   5.536  10.047   2.671  0.0427  0.1311 -0.2156
  110MOL0     C14782   5.611  10.086   2.550 -0.0173 -0.2363 -1.3581
  110MOL0     H14783   5.928  10.175   2.624  0.4157  0.1381  0.0796
  110MOL0     H14784   6.176  10.237   2.625 -0.7222 -2.3743  1.4242
  110MOL0     H14785   6.308  10.525   2.916  1.4525 -0.1030  3.1832
  110MOL0     H14786   6.350  10.378   2.999 -2.6367 -1.2798 -1.7918
  110MOL0     H14787   6.519  10.483   2.769  2.0579  1.3587  1.2337
  110MOL0     H14788   6.557  10.346   2.865 -2.7837 -2.0516 -0.4372
  110MOL0     H14789   6.535  10.530   3.068  1.5575 -1.9158  0.5776
  110MOL0     H14790   6.551  10.649   2.938  1.5388 -0.0398  1.0397
  110MOL0     H14791   6.755  10.426   2.986  3.3325  0.3874 -1.8103
  110MOL0     H14792   6.753  10.523   2.853 -0.8488 -0.8832 -0.5310
  110MOL0     H14793   6.751  10.729   3.015 -0.3741  0.0832  1.8886
  110MOL0     H14794   6.766  10.618   3.147 -0.4737 -1.9107  0.1449
  110MOL0     H14795   6.970  10.518   3.049 -1.6915  0.2822  1.8922
  110MOL0     H14796   6.994  10.653   2.940 -0.7766 -0.3262 -1.0048
  110MOL0     H14797   7.107  10.661   3.180 -0.2301 -0.3681  0.6723
  110MOL0     H14798   6.951  10.669   3.243 -1.5367  1.2992 -0.5910
  110MOL0     H14799   7.050  10.883   3.038 -1.9087 -2.4627 -2.4101
  110MOL0     H14800   6.917  10.892   3.154 -0.0899  0.8012  1.0590
  110MOL0     H14801   7.099  10.758   3.418  3.6663 -0.4927  2.0638
  110MOL0     H14802   7.301  10.978   3.636  2.6417 -0.5266  0.5788
  110MOL0     H14803   7.233  10.819   3.617 -1.2415  1.7056 -0.4435
  110MOL0     H14804   7.449  10.749   3.491 -1.9755  0.4547  1.4195
  110MOL0     H14805   7.502  10.916   3.500  0.5553  0.7025  0.8721
  110MOL0     H14806   7.513  10.902   3.741  0.1223 -1.5752  1.5213
  110MOL0     H14807   7.633  10.804   3.641 -0.2884 -0.2842 -2.9491
  110MOL0     H14808   7.376  10.699   3.785 -0.1699 -0.5401 -0.9186
  110MOL0     H14809   7.542  10.701   3.857  2.1046 -1.1298 -1.2659
  110MOL0     H14810   7.757  10.677   3.775  0.9935  0.8586 -2.8651
  110MOL0     H14811   7.956  10.545   3.805 -1.2482  3.6844 -2.2473
  110MOL0     H14812   8.196  10.141   3.922  2.3019 -1.5504  2.2075
  110MOL0     H14813   8.414  10.054   3.934  2.0171  0.4900  0.2647
  110MOL0     H14814   8.839  10.163   3.819  0.1729  0.9989  0.1186
  110MOL0     H14815   8.752  10.298   3.760 -3.1888  1.4034  1.3560
  110MOL0     H14816   8.855  10.333   3.989 -0.0300  0.8503  3.5108
  110MOL0     H14817   8.676  10.361   3.993 -0.4674 -0.6956  2.2575
  110MOL0     H14818   8.734  10.268   4.186 -2.6634 -1.0861  0.9173
  110MOL0     H14819   8.643  10.140   4.095  0.8126 -1.2460 -1.4574
  110MOL0     H14820   8.946  10.163   4.149  0.6889 -0.1187 -2.1791
  110MOL0     H14821   8.875  10.049   4.029 -2.7796 -0.8761  1.0217
  110MOL0     H14822   8.733   9.959   4.227  0.0172 -0.9906 -0.4583
  110MOL0     H14823   8.829  10.079   4.326 -0.9984  0.1924 -1.0250
  110MOL0     H14824   8.968   9.855   4.153  4.1628  0.3504  0.1155
  110MOL0     H14825   9.036   9.978   4.258 -0.3610 -1.0768  1.6335
  110MOL0     H14826   8.961   9.890   4.454  1.1348  0.1996  1.1177
  110MOL0     H14827   9.049   9.776   4.371  1.1312  3.1130  0.2573
  110MOL0     H14828   8.848   9.666   4.463 -0.2398 -1.0274 -0.6084
  110MOL0     H14829   8.755   9.801   4.414  1.3043  0.8675  1.0922
  110MOL0     H14830   8.566  10.372   3.682  0.4596 -1.1668 -0.3481
  110MOL0     H14831   8.334  10.474   3.677 -0.0733  0.4654  1.1036
  110MOL0     H14832   7.773  10.199   3.638 -4.0082  0.1695 -0.7803
  110MOL0     H14833   7.569  10.316   3.622 -0.4887  0.4230  1.5995
  110MOL0     H14834   6.124  10.410   3.014 -0.7906  0.4906  0.2286
  110MOL0     H14835   5.885  10.344   2.994  1.7472 -3.4363  1.5174
  110MOL0     H14836   5.566  10.009   3.006  1.4883  3.2315 -0.1466
  110MOL0     H14837   5.338   9.967   2.987  1.0435 -2.1708  0.8349
  110MOL0     H14838   5.148   9.951   2.580 -1.6012 -1.5254 -0.1101
  110MOL0     H14839   5.139  10.125   2.633 -1.2336  2.3549  6.2991
  110MOL0     H14840   4.931   9.910   2.691  1.8814 -1.5914 -2.1759
  110MOL0     H14841   4.917  10.058   2.583  1.5414  1.8119 -0.2782
  110MOL0     H14842   4.953  10.198   2.797  3.0815 -0.5535  3.1999
  110MOL0     H14843   4.941  10.044   2.885  0.7864  2.8691  0.7412
  110MOL0     H14844   4.715  10.026   2.766  0.4728 -0.8409  0.3779
  110MOL0     H14845   4.717  10.140   2.900 -0.4715  1.7864 -1.9341
  110MOL0     H14846   4.695  10.427   2.614 -1.5811  1.6341  2.1760
  110MOL0     H14847   5.351  10.045   2.557 -0.3055  0.2435  0.0309
  110MOL0     H14848   5.614  10.195   2.558  1.0695 -0.2935 -0.7981
  110MOL0     H14849   5.716  10.058   2.565  0.3565  2.4609  2.3133
  110MOL0     H14850   5.573  10.049   2.454  0.3775  0.9036 -1.9806
  111MOL0     O14851   1.156   2.864   9.769  0.6166 -0.7129  0.0422
  111MOL0     C14852   1.123   2.971   9.822  0.5191  0.5716  0.2947
  111MOL0     O14853   1.179   3.027   9.922  0.5079 -0.5076 -0.1430
  111MOL0     C14854   1.304   2.981   9.966  0.7789 -0.7634  0.4883
  111MOL0     C14855   1.420   3.047   9.934 -0.7541 -0.1207 -0.3812
  111MOL0     C14856   1.543   3.005   9.996 -0.7327  0.2320  0.8494
  111MOL0     C14857   1.551   2.893  10.080  0.4447  0.0336 -0.3973
  111MOL0     O14858   1.673   2.871  10.132  0.2744 -0.0046 -0.3801
  111MOL0     C14859   1.712   2.735  10.153 -0.8160  0.1299  0.7355
  111MOL0     C14860   1.733   2.650  10.023  0.1761 -0.0478 -0.6774
  111MOL0     C14861   1.763   2.501  10.073  0.2694  0.2050  0.6230
  111MOL0     C14862   1.801   2.429   9.945  0.2102 -0.8748 -0.6003
  111MOL0     C14863   1.829   2.278   9.945  0.2188 -0.3828 -0.6018
  111MOL0     C14864   1.796   2.215   9.810  0.2756 -0.6916  0.2004
  111MOL0     C14865   1.744   2.066   9.829 -0.9582 -0.4320  0.2865
  111MOL0     C14866   1.848   1.960   9.878  0.3328  0.1312 -0.1937
  111MOL0     N14867   1.950   1.923   9.782  0.0095 -0.1028  0.4523
  111MOL0     C14868   2.055   2.005   9.751 -0.1148  0.3993 -0.0170
  111MOL0     C14869   2.138   1.929   9.672 -0.4338  0.2505  0.3846
  111MOL0     C14870   2.262   1.978   9.605  0.3507  0.0332 -0.1287
  111MOL0     C14871   2.365   2.007   9.702 -0.6384  0.3217 -0.1128
  111MOL0     C14872   2.408   1.879   9.786  1.0737  0.1740 -0.1931
  111MOL0     C14873   2.557   1.884   9.838  0.1957 -0.3831  0.4146
  111MOL0     O14874   2.564   1.773   9.920 -0.4846  0.4309  0.1042
  111MOL0     C14875   2.689   1.758   9.989 -0.2487  0.4194  0.7701
  111MOL0     C14876   2.700   1.660  10.086  0.3537  0.0662 -0.2206
  111MOL0     C14877   2.830   1.638  10.149  0.7794 -0.0350  0.3659
  111MOL0     C14878   2.936   1.722  10.123 -0.2217  0.4823 -0.4758
  111MOL0     C14879   3.071   1.692  10.186 -0.2946  0.3238  0.0152
  111MOL0     O14880   3.180   1.748  10.127  0.7639  0.7630 -0.1737
  111MOL0     C14881   3.307   1.707  10.159  0.2501  0.3533  0.7616
  111MOL0     C14882   3.400   1.696  10.055 -0.7642 -0.4063  0.2804
  111MOL0     C14883   3.534   1.657  10.079  0.7590  0.3886 -0.1002
  111MOL0     C14884   3.579   1.627  10.210  0.4372 -0.0163  0.2409
  111MOL0     O14885   3.706   1.581  10.218 -0.0875 -1.0600 -0.0236
  111MOL0     C14886   3.752   1.508  10.332  0.3795  0.2251  0.1662
  111MOL0     C14887   3.907   1.492  10.316 -0.3092  0.0523 -0.0327
  111MOL0     C14888   3.984   1.473  10.448 -0.9089  1.0034 -0.6379
  111MOL0     C14889   4.140   1.498  10.422  0.3982  0.4713  0.0793
  111MOL0     C14890   4.234   1.469  10.537 -0.0945 -0.9758  0.1562
  111MOL0     C14891   4.218   1.581  10.645  0.4486  0.3314 -0.0130
  111MOL0     C14892   4.361   1.633  10.689  0.4578 -0.4863  0.3336
  111MOL0     C14893   4.376   1.772  10.624 -0.6710  0.0559 -0.6393
  111MOL0    Cl14894   4.424   1.738  10.458  0.1949  0.1922 -0.4475
  111MOL0     C14895   3.483   1.644  10.316  0.3955 -0.6194  0.0960
  111MOL0     C14896   3.356   1.685  10.293  0.5080  0.2306 -0.1946
  111MOL0     O14897   3.079   1.619  10.284 -0.1343  0.1456  0.6673
  111MOL0     C14898   2.930   1.819  10.022  0.7257  0.9329 -0.9283
  111MOL0     C14899   2.803   1.833   9.957 -0.6176 -0.0666 -0.9186
  111MOL0     N14900   2.074   1.812   9.644  0.6622 -0.6649 -0.3157
  111MOL0     N14901   1.971   1.802   9.727 -0.4121 -0.6158 -0.5450
  111MOL0     C14902   1.430   2.829  10.114  1.6300  0.0784  0.1717
  111MOL0     C14903   1.317   2.869  10.057  0.2841  0.8294 -0.2139
  111MOL0     C14904   1.022   3.055   9.741  0.2232  0.1177 -0.2848
  111MOL0     C14905   0.961   2.995   9.631 -1.1017  0.6772 -0.0567
  111MOL0     C14906   0.863   3.055   9.562  0.4770 -0.7850  0.4281
  111MOL0     C14907   0.821   3.188   9.596  0.0376  0.5694  0.6186
  111MOL0     O14908   0.716   3.261   9.544  0.6582  0.8629 -0.5761
  111MOL0     C14909   0.656   3.225   9.417 -0.6280  0.3596 -0.2506
  111MOL0     C14910   0.727   3.278   9.294 -0.1006 -0.4925  0.3418
  111MOL0     C14911   0.674   3.431   9.273 -0.6956  0.3160 -0.0703
  111MOL0     C14912   0.754   3.490   9.161 -0.3759 -0.2782 -0.3505
  111MOL0     C14913   0.696   3.427   9.040 -0.1981  0.1775  0.0892
  111MOL0     C14914   0.652   3.366   8.945  0.0393  0.0439  1.4888
  111MOL0     C14915   0.885   3.255   9.703  0.4912  0.3889 -0.2321
  111MOL0     C14916   0.986   3.189   9.779 -0.6153 -0.6168 -0.1231
  111MOL0     C14917   1.057   3.273   9.882 -0.1483 -0.8392 -0.0348
  111MOL0     H14918   1.413   3.139   9.876  0.2035  2.3024  3.0202
  111MOL0     H14919   1.634   3.059   9.969  0.7150 -0.5332  3.7957
  111MOL0     H14920   1.813   2.748  10.194 -0.9436  0.7572  0.8704
  111MOL0     H14921   1.657   2.690  10.236  2.0478 -1.2392  2.0398
  111MOL0     H14922   1.819   2.693   9.973  1.3856 -0.1067  1.2474
  111MOL0     H14923   1.652   2.666   9.951 -0.7235  1.6188  0.6325
  111MOL0     H14924   1.680   2.448  10.121 -2.1194  1.2509 -2.0231
  111MOL0     H14925   1.853   2.498  10.134  0.1343 -0.9563  0.7771
  111MOL0     H14926   1.707   2.437   9.889  0.2170  3.5013 -0.3154
  111MOL0     H14927   1.883   2.485   9.899  0.0023 -0.5294 -0.5572
  111MOL0     H14928   1.933   2.261   9.975  0.5062  1.1754 -0.6505
  111MOL0     H14929   1.758   2.231  10.015 -0.7836 -1.1519 -2.0902
  111MOL0     H14930   1.712   2.266   9.762  0.1992  1.0460  2.0108
  111MOL0     H14931   1.887   2.233   9.753  0.2689  1.1422  0.6901
  111MOL0     H14932   1.704   2.042   9.730 -0.3257  0.6986 -0.2538
  111MOL0     H14933   1.663   2.081   9.901 -0.3242  0.1874  0.8818
  111MOL0     H14934   1.892   1.989   9.975 -0.2532 -0.9629  0.4143
  111MOL0     H14935   1.791   1.870   9.903  0.7382 -0.6393 -1.9204
  111MOL0     H14936   2.082   2.107   9.776 -1.4524  0.9454 -0.6849
  111MOL0     H14937   2.299   1.902   9.536 -1.8156 -2.3615  1.1638
  111MOL0     H14938   2.236   2.071   9.555 -0.5625  0.7458  1.5887
  111MOL0     H14939   2.446   2.042   9.638 -0.9732  0.4573 -0.4627
  111MOL0     H14940   2.341   2.081   9.780  1.9076 -0.2203  1.3156
  111MOL0     H14941   2.395   1.790   9.723 -2.6502  0.6526 -0.3185
  111MOL0     H14942   2.340   1.864   9.871 -0.2198 -0.9256 -1.3843
  111MOL0     H14943   2.581   1.979   9.885  2.4863 -1.1240  0.8838
  111MOL0     H14944   2.622   1.869   9.752 -1.0754  3.3036 -1.3674
  111MOL0     H14945   2.611   1.604  10.114  0.9726 -1.2852 -0.8745
  111MOL0     H14946   2.839   1.559  10.224 -0.1630 -1.8548 -1.3404
  111MOL0     H14947   3.359   1.720   9.958 -1.5677  0.9041  0.9181
  111MOL0     H14948   3.605   1.655   9.997  1.0625 -3.4844  0.0756
  111MOL0     H14949   3.720   1.560  10.423  1.1853  0.3564  0.3800
  111MOL0     H14950   3.707   1.408  10.328  0.7354  0.0696  0.0500
  111MOL0     H14951   3.923   1.408  10.247  0.8570  1.3456 -1.4168
  111MOL0     H14952   3.948   1.582  10.269 -0.4216  0.8806  1.4045
  111MOL0     H14953   3.951   1.536  10.531  1.5693  0.3567  0.9258
  111MOL0     H14954   3.977   1.370  10.485 -0.0132  0.2908 -2.3433
  111MOL0     H14955   4.153   1.601  10.386 -0.2670  0.7764  0.6638
  111MOL0     H14956   4.169   1.436  10.337 -1.5037  1.7633 -1.6046
  111MOL0     H14957   4.327   1.480  10.481 -1.3905 -0.8121 -2.0785
  111MOL0     H14958   4.242   1.367  10.577  0.8814 -1.6401 -1.6232
  111MOL0     H14959   4.157   1.664  10.609 -2.5869 -1.1965  1.2166
  111MOL0     H14960   4.177   1.542  10.739  0.8461  0.9650  0.4264
  111MOL0     H14961   4.446   1.573  10.657 -1.4091 -1.9233 -2.2076
  111MOL0     H14962   4.369   1.641  10.798  1.3362  2.1185  0.1560
  111MOL0     H14963   4.290   1.838  10.631  1.6223  3.1183  0.9303
  111MOL0     H14964   4.447   1.828  10.684 -1.3614 -0.8406  1.0973
  111MOL0     H14965   3.505   1.633  10.421 -3.5208 -3.9994  0.8156
  111MOL0     H14966   3.283   1.693  10.373  0.5734  0.4945 -0.1599
  111MOL0     H14967   3.018   1.867   9.981  0.8982 -1.2997 -3.3958
  111MOL0     H14968   2.808   1.906   9.876  1.0471 -0.6356 -1.3612
  111MOL0     H14969   1.424   2.733  10.165  0.4438 -0.6808 -1.3290
  111MOL0     H14970   1.233   2.803  10.076  0.1909  1.2569  0.9843
  111MOL0     H14971   0.982   2.895   9.595  0.3960  1.9789 -3.1267
  111MOL0     H14972   0.806   3.003   9.486 -0.0280  1.0561 -0.5338
  111MOL0     H14973   0.559   3.276   9.420 -1.1356 -0.2936 -2.8986
  111MOL0     H14974   0.632   3.118   9.422 -0.4016  0.2391  5.5399
  111MOL0     H14975   0.696   3.216   9.209  2.0591 -3.8354  1.7899
  111MOL0     H14976   0.834   3.260   9.304  0.1632 -0.6986 -2.2619
  111MOL0     H14977   0.703   3.498   9.355  0.8756  0.2281 -0.5232
  111MOL0     H14978   0.569   3.430   9.243  0.1426 -0.6014 -3.3129
  111MOL0     H14979   0.748   3.599   9.153 -1.3700 -0.3215 -0.3356
  111MOL0     H14980   0.859   3.460   9.170  0.7826  3.6352  1.0682
  111MOL0     H14981   0.609   3.317   8.860  1.1692  0.2453  0.7684
  111MOL0     H14982   0.855   3.358   9.722  3.2599  1.9203 -3.2049
  111MOL0     H14983   1.054   3.229   9.983  0.7160 -1.1776 -0.1524
  111MOL0     H14984   1.156   3.295   9.842 -0.6262 -0.4651 -1.0498
  111MOL0     H14985   1.017   3.375   9.886 -0.7833 -1.1122  1.2347
  112MOL0     O14986   1.626   7.947   1.060  0.2747 -0.1135 -0.5176
  112MOL0     C14987   1.616   8.059   1.019  0.1214  0.4158 -0.2592
  112MOL0     O14988   1.503   8.128   0.988  0.1273 -0.7121  0.1712
  112MOL0     C14989   1.385   8.072   0.952  0.8495  0.3072  0.0836
  112MOL0     C14990   1.272   8.152   0.947 -0.3244 -0.3337  0.3274
  112MOL0     C14991   1.142   8.110   0.920 -0.1461 -0.3884 -0.1753
  112MOL0     C14992   1.128   7.981   0.881  0.1462  1.0064 -0.6856
  112MOL0     O14993   1.020   7.909   0.849  0.3011 -1.2499 -0.3329
  112MOL0     C14994   0.891   7.975   0.856  0.7354 -0.3084  0.1176
  112MOL0     C14995   0.793   7.876   0.928 -0.1877 -0.3389  0.5507
  112MOL0     C14996   0.780   7.736   0.859 -0.4885 -0.8584  0.4781
  112MOL0     C14997   0.666   7.640   0.909  0.2494  0.5304  0.0534
  112MOL0     C14998   0.663   7.614   1.065 -0.2590  0.9361  0.0466
  112MOL0     C14999   0.746   7.494   1.107  1.3472 -0.1108 -0.2996
  112MOL0     C15000   0.851   7.528   1.211  0.4178  0.0842  0.6455
  112MOL0     C15001   0.954   7.629   1.163 -0.4125  0.6593 -0.9056
  112MOL0     N15002   1.066   7.624   1.258 -0.4079 -0.6515  0.1722
  112MOL0     C15003   1.204   7.615   1.227  1.0317 -1.0698  0.2840
  112MOL0     C15004   1.257   7.632   1.346 -1.0941  0.2689  0.0908
  112MOL0     C15005   1.405   7.634   1.384 -0.6798 -0.7116 -0.2954
  112MOL0     C15006   1.475   7.506   1.338  0.0277  0.4105  0.1946
  112MOL0     C15007   1.621   7.506   1.377 -1.2789 -0.1113 -0.8319
  112MOL0     C15008   1.710   7.596   1.277 -0.0389 -0.4540 -0.3816
  112MOL0     O15009   1.835   7.531   1.265 -0.0089 -0.0086 -0.1968
  112MOL0     C15010   1.936   7.611   1.214 -1.3235  0.2937 -1.1623
  112MOL0     C15011   1.970   7.594   1.087 -0.4202 -0.0511  0.5588
  112MOL0     C15012   2.081   7.654   1.037  0.2082 -0.3695  0.5923
  112MOL0     C15013   2.169   7.736   1.119  0.5359 -0.1639  0.4900
  112MOL0     C15014   2.290   7.795   1.052  0.1843 -0.5394  0.0271
  112MOL0     O15015   2.296   7.808   0.916  0.8986  0.6076  0.6248
  112MOL0     C15016   2.414   7.838   0.863 -0.8005 -0.4954 -1.0520
  112MOL0     C15017   2.461   7.964   0.874 -0.8583 -0.7833  1.1123
  112MOL0     C15018   2.593   8.000   0.831  0.0506 -0.4114  0.5019
  112MOL0     C15019   2.675   7.900   0.772 -0.5024  1.0387 -0.0601
  112MOL0     O15020   2.811   7.921   0.753  0.5551  0.6118 -0.3438
  112MOL0     C15021   2.888   7.938   0.877 -0.0148 -0.1371  1.0086
  112MOL0     C15022   2.898   8.085   0.913 -0.0116 -0.4984  0.4433
  112MOL0     C15023   3.031   8.124   0.984  0.1397  0.3466  0.4179
  112MOL0     C15024   3.162   8.133   0.897  0.3677 -0.0654  0.2202
  112MOL0     C15025   3.280   8.056   0.954  0.2345  0.3689  0.9765
  112MOL0     C15026   3.346   8.129   1.075 -0.2854  0.8782 -0.3095
  112MOL0     C15027   3.451   8.041   1.156  0.5170  0.5696  0.9755
  112MOL0     C15028   3.573   7.997   1.070 -0.1771 -0.1853  0.1706
  112MOL0    Cl15029   3.719   7.935   1.165 -0.6275 -0.6122  0.3426
  112MOL0     C15030   2.614   7.777   0.732 -0.0797 -0.0834 -0.2853
  112MOL0     C15031   2.486   7.754   0.781  0.3500  1.0126  0.0035
  112MOL0     O15032   2.392   7.797   1.121  0.3359 -0.0645 -0.8931
  112MOL0     C15033   2.123   7.759   1.251 -0.2272 -0.0721  0.4800
  112MOL0     C15034   2.011   7.687   1.303  0.2716 -0.2971  0.3026
  112MOL0     N15035   1.163   7.637   1.449 -0.0965  0.0773  0.2274
  112MOL0     N15036   1.050   7.634   1.397  0.5844  0.1760  0.4079
  112MOL0     C15037   1.239   7.896   0.875 -0.1636  0.6802  0.2799
  112MOL0     C15038   1.366   7.939   0.921 -0.9085  0.2253 -0.0424
  112MOL0     C15039   1.740   8.129   0.990 -0.5035  0.2871  0.6199
  112MOL0     C15040   1.731   8.269   0.988 -0.2823 -0.3710 -0.2758
  112MOL0     C15041   1.846   8.354   0.965 -0.5389  0.8968 -0.9323
  112MOL0     C15042   1.973   8.294   0.955 -0.9561 -0.2580 -0.4361
  112MOL0     O15043   2.087   8.369   0.959 -0.0872  0.2523 -0.2857
  112MOL0     C15044   2.093   8.509   0.937  0.8015 -0.3311 -1.0523
  112MOL0     C15045   2.235   8.572   0.939 -0.2893 -0.0404 -0.0567
  112MOL0     C15046   2.286   8.588   1.092 -0.2293  0.1259 -0.0244
  112MOL0     C15047   2.300   8.729   1.135 -0.6415 -0.5834  0.2666
  112MOL0     C15048   2.395   8.730   1.249 -1.2807 -0.1318 -0.4440
  112MOL0     C15049   2.472   8.723   1.340 -0.5976 -0.5259  0.2805
  112MOL0     C15050   1.981   8.156   0.957 -0.3456  0.1176  0.0204
  112MOL0     C15051   1.873   8.072   0.972  0.5460  0.2060  0.1445
  112MOL0     C15052   1.892   7.928   0.978 -0.9944 -0.0456  0.4182
  112MOL0     H15053   1.300   8.252   0.978 -3.2047  0.9447 -0.8627
  112MOL0     H15054   1.056   8.177   0.915 -0.2371 -0.5526 -0.9504
  112MOL0     H15055   0.892   8.061   0.924  0.1189 -0.3973  0.2520
  112MOL0     H15056   0.847   8.009   0.762 -2.1697  1.0627  1.7964
  112MOL0     H15057   0.692   7.919   0.931  1.4201  3.7428  1.8818
  112MOL0     H15058   0.822   7.857   1.032 -1.1940 -0.3587  0.8465
  112MOL0     H15059   0.880   7.692   0.848  1.0275  2.4229  0.0233
  112MOL0     H15060   0.761   7.751   0.753  2.2703 -0.3487 -0.0289
  112MOL0     H15061   0.571   7.692   0.896  0.4656  1.3546  1.5360
  112MOL0     H15062   0.674   7.548   0.851 -1.9704  0.8268 -0.8302
  112MOL0     H15063   0.698   7.701   1.121 -0.6161  1.5903 -0.7290
  112MOL0     H15064   0.560   7.598   1.099 -0.8316  0.0978 -1.9473
  112MOL0     H15065   0.679   7.418   1.149  1.5025  1.4770  3.2303
  112MOL0     H15066   0.781   7.447   1.015  1.0610 -0.5117 -0.2072
  112MOL0     H15067   0.893   7.433   1.246  2.5748  0.4626 -0.6930
  112MOL0     H15068   0.796   7.572   1.294  0.3992  1.1927  0.0732
  112MOL0     H15069   0.982   7.618   1.058  0.3226 -0.0887 -0.6435
  112MOL0     H15070   0.902   7.725   1.171 -0.9859  0.4525 -2.0482
  112MOL0     H15071   1.257   7.618   1.132  0.4904  1.8222 -0.0333
  112MOL0     H15072   1.453   7.713   1.324  0.4745 -2.3364 -1.6172
  112MOL0     H15073   1.431   7.658   1.488  0.3667  0.7416 -0.8585
  112MOL0     H15074   1.432   7.424   1.396  0.6079  0.2855  0.4550
  112MOL0     H15075   1.463   7.493   1.230  0.2231  2.3648 -0.0871
  112MOL0     H15076   1.664   7.407   1.396 -0.1952  0.5928  0.5330
  112MOL0     H15077   1.629   7.548   1.477  1.1831 -1.3700 -0.4317
  112MOL0     H15078   1.718   7.697   1.319 -0.0758 -2.1894  4.4075
  112MOL0     H15079   1.652   7.599   1.184 -2.5346 -2.6198  0.9653
  112MOL0     H15080   1.919   7.517   1.031  1.0915 -1.3100  0.8610
  112MOL0     H15081   2.099   7.631   0.932 -0.7158 -3.1698  0.9738
  112MOL0     H15082   2.414   8.037   0.940 -0.8620  2.2020 -1.9210
  112MOL0     H15083   2.633   8.096   0.864  1.9294 -0.4097 -1.5658
  112MOL0     H15084   2.858   7.875   0.961  1.3670 -2.1028  0.1322
  112MOL0     H15085   2.987   7.896   0.853 -0.7362 -1.5893  0.4287
  112MOL0     H15086   2.894   8.140   0.819  3.2429 -2.2956 -0.8885
  112MOL0     H15087   2.818   8.109   0.983  0.4755 -0.5201  1.0164
  112MOL0     H15088   3.020   8.223   1.029  0.3490  1.0453 -0.9813
  112MOL0     H15089   3.045   8.050   1.064 -1.9688 -0.3459  0.1946
  112MOL0     H15090   3.190   8.239   0.902  1.8646 -0.5055  2.3273
  112MOL0     H15091   3.146   8.119   0.790  0.2331  1.7960 -0.0378
  112MOL0     H15092   3.357   8.050   0.876  1.2171  1.5778  1.8022
  112MOL0     H15093   3.236   7.959   0.978  1.5299 -0.9657 -1.5491
  112MOL0     H15094   3.394   8.218   1.034  0.4137  0.6917  0.0926
  112MOL0     H15095   3.271   8.164   1.145 -0.8043  0.5065 -0.6684
  112MOL0     H15096   3.407   7.954   1.206  1.5001 -1.1264 -0.9656
  112MOL0     H15097   3.494   8.113   1.225  0.7257 -0.0603  1.5089
  112MOL0     H15098   3.534   7.920   1.002  2.0122 -0.5026 -0.8205
  112MOL0     H15099   3.605   8.077   1.002 -1.2418  2.7121  2.8507
  112MOL0     H15100   2.661   7.692   0.684 -1.7199 -1.3395  0.2092
  112MOL0     H15101   2.438   7.659   0.762  1.9960  0.1846 -0.2571
  112MOL0     H15102   2.193   7.809   1.318  1.1202 -0.2519 -0.7597
  112MOL0     H15103   1.980   7.701   1.406  0.0497  1.5698  0.0124
  112MOL0     H15104   1.228   7.794   0.840  0.8509  0.8621 -0.6130
  112MOL0     H15105   1.448   7.869   0.914  0.8326  1.7639  3.0211
  112MOL0     H15106   1.634   8.317   0.991  0.4672  1.1899  0.3944
  112MOL0     H15107   1.826   8.456   0.997  0.1280  0.5781  0.6049
  112MOL0     H15108   2.026   8.554   1.011 -0.3474  1.3412 -3.0214
  112MOL0     H15109   2.040   8.519   0.842 -1.2743 -1.2076 -0.0389
  112MOL0     H15110   2.239   8.672   0.895  1.1335 -0.0086  0.1099
  112MOL0     H15111   2.304   8.505   0.888  0.8376  1.6470 -0.8130
  112MOL0     H15112   2.383   8.537   1.094 -0.0411  0.3562 -1.6489
  112MOL0     H15113   2.232   8.528   1.166  1.4437 -0.8020  0.4811
  112MOL0     H15114   2.348   8.787   1.055 -0.7132 -1.4105 -0.3922
  112MOL0     H15115   2.201   8.768   1.162 -0.8938 -1.6067  0.8311
  112MOL0     H15116   2.538   8.729   1.424  1.4840 -1.3125 -1.2019
  112MOL0     H15117   2.086   8.128   0.960 -0.0502  0.9421 -1.6331
  112MOL0     H15118   1.826   7.882   0.904 -0.0584  3.0623 -2.6029
  112MOL0     H15119   1.996   7.906   0.950 -2.0424 -0.7284 -3.5200
  112MOL0     H15120   1.887   7.895   1.082  1.7548 -1.5004  0.1861
  113MOL0     O15121   7.914   9.531   8.293 -0.2871  0.7536  0.4099
  113MOL0     C15122   8.025   9.475   8.285  0.5687  0.3514 -0.2289
  113MOL0     O15123   8.067   9.390   8.180 -0.1268  0.4203 -0.3098
  113MOL0     C15124   8.010   9.402   8.051 -0.1239  0.7919  0.3732
  113MOL0     C15125   8.092   9.461   7.950  0.0739  0.7231  0.0671
  113MOL0     C15126   8.048   9.437   7.814  0.1939  0.0816 -0.4694
  113MOL0     C15127   7.920   9.384   7.780 -0.8434 -0.1192  0.3165
  113MOL0     O15128   7.872   9.370   7.655 -0.3349  0.2673 -0.5764
  113MOL0     C15129   7.928   9.436   7.547  0.0718 -0.7594  0.7453
  113MOL0     C15130   7.859   9.398   7.415 -0.7466 -0.1057 -0.3242
  113MOL0     C15131   7.739   9.487   7.382  0.1896 -0.6997 -0.6400
  113MOL0     C15132   7.640   9.432   7.274  0.3870 -0.9685 -0.7253
  113MOL0     C15133   7.703   9.403   7.128  0.0419 -0.2092 -0.8618
  113MOL0     C15134   7.592   9.337   7.056 -0.2523 -0.1065  0.8152
  113MOL0     C15135   7.624   9.317   6.905 -0.3696 -0.3041 -0.1287
  113MOL0     C15136   7.512   9.239   6.840 -0.0397  0.1217 -0.2858
  113MOL0     N15137   7.538   9.195   6.712  0.0315  0.2975 -0.3664
  113MOL0     C15138   7.633   9.099   6.680 -0.0767  0.1479 -0.1580
  113MOL0     C15139   7.624   9.075   6.552  0.2485 -0.2671  0.3604
  113MOL0     C15140   7.709   8.966   6.492 -0.6325 -0.5923  0.4378
  113MOL0     C15141   7.841   9.021   6.434 -0.2585  0.2438 -0.3324
  113MOL0     C15142   7.921   8.905   6.362 -0.6427  0.3098 -0.8036
  113MOL0     C15143   8.017   8.826   6.457 -0.9070  0.6568 -0.4090
  113MOL0     O15144   8.080   8.915   6.544  0.4269  0.2192 -0.0893
  113MOL0     C15145   8.193   8.887   6.619 -0.5375 -0.2656 -0.0597
  113MOL0     C15146   8.253   8.756   6.621  0.0868  0.1210 -0.3569
  113MOL0     C15147   8.363   8.734   6.705  0.3985 -0.2367 -0.3273
  113MOL0     C15148   8.408   8.835   6.792  0.0643 -0.9400  0.5597
  113MOL0     C15149   8.508   8.812   6.896  0.0053 -0.3218  0.9342
  113MOL0     O15150   8.518   8.912   6.981 -0.4659  0.0316  0.2491
  113MOL0     C15151   8.603   8.925   7.083  0.7982 -0.4720  0.2178
  113MOL0     C15152   8.555   8.984   7.203  0.1707  0.6099 -0.1219
  113MOL0     C15153   8.637   9.003   7.313 -0.5868 -1.1357 -0.5465
  113MOL0     C15154   8.775   8.959   7.308 -0.2145 -1.1785  0.0108
  113MOL0     O15155   8.861   8.995   7.403  0.4564  0.4856  0.1036
  113MOL0     C15156   8.818   9.021   7.539  0.6953  0.5299  0.1873
  113MOL0     C15157   8.924   9.024   7.646  0.5077 -0.3696 -0.6565
  113MOL0     C15158   8.843   9.069   7.765  0.1656 -1.2038  0.5034
  113MOL0     C15159   8.928   9.077   7.895  2.2697  0.4993 -0.2992
  113MOL0     C15160   8.913   9.207   7.974  0.0513  0.0122  0.0702
  113MOL0     C15161   8.977   9.214   8.114 -1.0311 -0.1443  1.0887
  113MOL0     C15162   8.923   9.329   8.194  0.2236 -0.2627 -0.8712
  113MOL0     C15163   9.012   9.380   8.294  0.5248  0.4398 -0.3371
  113MOL0    Cl15164   9.026   9.261   8.428 -0.3981  0.3212 -0.1863
  113MOL0     C15165   8.820   8.876   7.203 -0.2059  0.4844 -0.2333
  113MOL0     C15166   8.740   8.881   7.084 -0.4907  0.4544 -0.0560
  113MOL0     O15167   8.563   8.705   6.906  0.2677  0.4668  0.7107
  113MOL0     C15168   8.344   8.966   6.781 -0.5436  0.0363  0.4325
  113MOL0     C15169   8.248   8.996   6.693  0.3450  0.5482  0.4169
  113MOL0     N15170   7.524   9.154   6.500 -0.6054  0.2430 -0.6656
  113MOL0     N15171   7.481   9.229   6.595  0.4304  0.0147  0.2870
  113MOL0     C15172   7.842   9.348   7.891  0.1665  0.1975  0.4391
  113MOL0     C15173   7.886   9.341   8.023  0.4696 -1.7363  0.2068
  113MOL0     C15174   8.121   9.478   8.396  0.4289 -0.0582  0.6165
  113MOL0     C15175   8.203   9.365   8.412 -0.1909 -0.4572 -0.5504
  113MOL0     C15176   8.312   9.364   8.504  0.4835  0.1166  0.5653
  113MOL0     C15177   8.337   9.480   8.580 -0.2436  0.7464 -0.1329
  113MOL0     O15178   8.427   9.485   8.681  0.2076 -0.0849 -0.5558
  113MOL0     C15179   8.518   9.381   8.714 -0.4214 -0.1723  0.0696
  113MOL0     C15180   8.446   9.264   8.793 -0.4691  0.2255  0.4685
  113MOL0     C15181   8.392   9.318   8.928 -1.0727 -0.7822 -0.1506
  113MOL0     C15182   8.370   9.217   9.032  0.4556  0.5489  0.2476
  113MOL0     C15183   8.306   9.092   8.996  0.0569  0.4661 -0.6093
  113MOL0     C15184   8.243   8.997   8.957 -0.8253  0.0201 -0.3239
  113MOL0     C15185   8.257   9.589   8.559 -0.5558  0.6005 -0.3336
  113MOL0     C15186   8.153   9.598   8.466 -0.6366  0.0601  0.3812
  113MOL0     C15187   8.095   9.727   8.439 -0.0251 -0.7983  0.3474
  113MOL0     H15188   8.180   9.506   7.992 -0.5357  1.1840  0.8759
  113MOL0     H15189   8.115   9.440   7.729  0.8103 -2.4892 -0.1539
  113MOL0     H15190   7.913   9.544   7.555 -2.5178 -0.9510 -0.6763
  113MOL0     H15191   8.035   9.415   7.548  0.7766  2.1386 -1.0744
  113MOL0     H15192   7.829   9.293   7.423 -1.0681  0.0679  1.0934
  113MOL0     H15193   7.934   9.415   7.338  0.5911 -0.6039  0.8197
  113MOL0     H15194   7.780   9.583   7.350 -0.3853 -0.4993 -0.7997
  113MOL0     H15195   7.679   9.502   7.472 -2.7973  1.8503 -2.8148
  113MOL0     H15196   7.606   9.335   7.311 -0.4665 -0.8336 -1.1390
  113MOL0     H15197   7.549   9.491   7.263  0.3478 -0.7892  0.4417
  113MOL0     H15198   7.734   9.500   7.090  0.6577 -0.2280 -0.4169
  113MOL0     H15199   7.786   9.333   7.134 -2.0689 -3.1260 -2.6601
  113MOL0     H15200   7.575   9.241   7.105 -0.3087  0.6941  2.4677
  113MOL0     H15201   7.504   9.400   7.073  0.0767  0.7451 -0.5414
  113MOL0     H15202   7.719   9.262   6.902 -0.6651 -1.4307  4.2825
  113MOL0     H15203   7.622   9.413   6.852  0.9678 -0.8738 -1.2978
  113MOL0     H15204   7.492   9.151   6.901  0.6077 -1.6337 -2.4647
  113MOL0     H15205   7.425   9.305   6.839  0.3032  0.9610  4.1240
  113MOL0     H15206   7.709   9.059   6.747 -0.4989  0.3066  0.4177
  113MOL0     H15207   7.719   8.876   6.554 -3.0899 -0.9674  0.4180
  113MOL0     H15208   7.651   8.924   6.410  1.8589 -1.0363 -1.2023
  113MOL0     H15209   7.813   9.087   6.351 -0.7636 -1.6158 -1.7245
  113MOL0     H15210   7.898   9.074   6.510  1.2202  2.0335 -2.5413
  113MOL0     H15211   7.990   8.943   6.286 -1.9295 -0.2505 -2.3160
  113MOL0     H15212   7.853   8.836   6.311 -0.8889 -1.4264  1.7030
  113MOL0     H15213   8.073   8.744   6.412 -1.1012 -1.1004  2.2881
  113MOL0     H15214   7.938   8.777   6.514 -0.5869  0.9574  0.3049
  113MOL0     H15215   8.206   8.683   6.556  1.8564 -1.7615  0.3371
  113MOL0     H15216   8.391   8.629   6.706 -0.2309 -0.4353 -1.6615
  113MOL0     H15217   8.452   9.019   7.204 -0.7776 -1.9799 -0.5043
  113MOL0     H15218   8.586   9.054   7.393 -1.9857 -1.3677 -1.2677
  113MOL0     H15219   8.763   9.116   7.532  0.0040  0.2509  1.4887
  113MOL0     H15220   8.753   8.940   7.571  1.5733 -1.7456 -3.2185
  113MOL0     H15221   8.964   8.922   7.652 -0.9703 -1.0370 -1.4914
  113MOL0     H15222   8.994   9.105   7.624  1.3524 -0.7797  0.3993
  113MOL0     H15223   8.794   9.164   7.744  1.1037 -1.1023 -1.5073
  113MOL0     H15224   8.776   8.987   7.791 -0.9356 -0.9378 -1.3248
  113MOL0     H15225   9.035   9.057   7.880  2.6499  2.4923 -0.5186
  113MOL0     H15226   8.900   8.988   7.952  0.3133  1.1938 -0.1165
  113MOL0     H15227   8.806   9.225   7.990 -0.0131 -1.0469  0.9696
  113MOL0     H15228   8.950   9.287   7.910 -0.5916  0.8905  0.7683
  113MOL0     H15229   8.975   9.115   8.162 -0.8655 -0.6168  0.1469
  113MOL0     H15230   9.082   9.231   8.089 -0.1556 -0.3924  4.1936
  113MOL0     H15231   8.821   9.314   8.232 -0.0248  1.3491 -0.8269
  113MOL0     H15232   8.906   9.411   8.123  1.7590 -1.1212 -2.3075
  113MOL0     H15233   9.112   9.380   8.249  0.5616 -2.1357 -0.4222
  113MOL0     H15234   8.963   9.475   8.316 -5.1106 -1.9858 -0.8290
  113MOL0     H15235   8.924   8.848   7.216  0.5542  3.1719  0.0690
  113MOL0     H15236   8.776   8.839   6.991  1.5086  0.1828  0.7928
  113MOL0     H15237   8.376   9.048   6.845 -0.2718  1.2820 -1.2388
  113MOL0     H15238   8.215   9.098   6.680  0.3298  0.7475  1.8666
  113MOL0     H15239   7.749   9.294   7.879  0.2340 -0.0006  0.7791
  113MOL0     H15240   7.816   9.312   8.101  0.2697  1.1243  1.2007
  113MOL0     H15241   8.192   9.276   8.352  0.6723  0.9339 -2.8998
  113MOL0     H15242   8.368   9.272   8.516  2.0824  0.9136 -0.4401
  113MOL0     H15243   8.607   9.414   8.769 -0.2431 -1.5543  0.6489
  113MOL0     H15244   8.555   9.344   8.618 -1.5778  0.6670 -0.7294
  113MOL0     H15245   8.525   9.189   8.802  1.5901  2.2834  0.8307
  113MOL0     H15246   8.358   9.217   8.750  0.5281 -3.6839  2.2519
  113MOL0     H15247   8.298   9.372   8.914 -1.8958 -1.4068  2.4400
  113MOL0     H15248   8.462   9.388   8.975  1.4287 -2.1655 -1.5479
  113MOL0     H15249   8.469   9.195   9.074 -0.2286 -1.5845  0.9005
  113MOL0     H15250   8.318   9.252   9.122  4.5549 -0.1661  3.2287
  113MOL0     H15251   8.184   8.911   8.934  0.3093 -0.3649 -2.0222
  113MOL0     H15252   8.284   9.677   8.617 -0.0444 -0.9823  1.9604
  113MOL0     H15253   8.098   9.767   8.541  1.0598 -0.6595  0.2793
  113MOL0     H15254   8.157   9.782   8.368 -2.4427  3.4127  1.1627
  113MOL0     H15255   7.994   9.718   8.399  0.0439 -3.8722  0.6558
  114MOL0     O15256   3.568   7.815   3.729  0.0300 -0.3241 -0.3016
  114MOL0     C15257   3.565   7.867   3.614  0.0300  0.2241 -0.6460
  114MOL0     O15258   3.659   7.860   3.513 -0.6329  0.0402 -0.6358
  114MOL0     C15259   3.770   7.796   3.541 -0.1275  1.0095 -0.3127
  114MOL0     C15260   3.774   7.655   3.556 -0.0570 -0.6168 -1.0324
  114MOL0     C15261   3.896   7.592   3.563 -0.1722 -0.0828  1.4971
  114MOL0     C15262   4.017   7.666   3.565 -0.6492 -0.1230 -0.6280
  114MOL0     O15263   4.135   7.595   3.561  0.1030 -0.4740 -0.1498
  114MOL0     C15264   4.251   7.663   3.593 -0.0773  0.0547  0.0551
  114MOL0     C15265   4.361   7.562   3.619 -0.6737  0.2379  0.9065
  114MOL0     C15266   4.494   7.633   3.668 -0.2010 -0.2800  0.4320
  114MOL0     C15267   4.606   7.527   3.672  0.7163  0.5331 -0.3542
  114MOL0     C15268   4.733   7.575   3.738  1.1392 -0.8585 -0.1411
  114MOL0     C15269   4.728   7.565   3.893 -0.2367 -0.2501  0.3447
  114MOL0     C15270   4.863   7.608   3.962  0.6154 -0.3362  0.5776
  114MOL0     C15271   4.851   7.631   4.109 -0.5234 -0.1303 -1.1222
  114MOL0     N15272   4.969   7.674   4.182 -0.4439 -0.4939 -0.2276
  114MOL0     C15273   5.079   7.598   4.205 -0.2457 -0.8045  0.3458
  114MOL0     C15274   5.169   7.681   4.259 -0.1589  0.2784 -0.6054
  114MOL0     C15275   5.307   7.631   4.323 -0.4475  0.5515 -0.2303
  114MOL0     C15276   5.324   7.481   4.353 -1.1250 -0.5978  0.8414
  114MOL0     C15277   5.449   7.416   4.403  0.8088  1.0120 -0.6849
  114MOL0     C15278   5.581   7.460   4.351  0.2018  0.9719  0.5635
  114MOL0     O15279   5.682   7.388   4.424 -0.2936  0.0163 -0.3849
  114MOL0     C15280   5.816   7.395   4.381 -0.0160  0.1629 -0.5452
  114MOL0     C15281   5.906   7.302   4.445  0.2482 -0.5506 -0.0594
  114MOL0     C15282   6.041   7.316   4.415  0.0902  1.3923  0.2514
  114MOL0     C15283   6.089   7.418   4.331 -0.2119 -0.0440 -0.2313
  114MOL0     C15284   6.235   7.417   4.308 -0.5369 -0.5249 -0.4788
  114MOL0     O15285   6.316   7.346   4.390  0.0455  0.4106 -0.2978
  114MOL0     C15286   6.430   7.301   4.323  0.7044 -0.7921  0.2838
  114MOL0     C15287   6.436   7.180   4.259  0.6246 -0.2905 -0.0113
  114MOL0     C15288   6.550   7.139   4.193  0.1013 -0.5051 -0.1002
  114MOL0     C15289   6.658   7.225   4.188 -0.2988  0.4620  0.2595
  114MOL0     O15290   6.770   7.175   4.126  0.1314  0.5878 -0.2169
  114MOL0     C15291   6.838   7.070   4.197  0.3447 -0.9572  0.2378
  114MOL0     C15292   6.965   7.037   4.122 -0.4151  0.2638 -0.0635
  114MOL0     C15293   7.081   7.133   4.123 -0.4859 -0.4960 -0.5903
  114MOL0     C15294   7.195   7.073   4.038  0.8089 -0.3156  0.9893
  114MOL0     C15295   7.317   7.166   4.034  0.4489  0.9414 -0.2346
  114MOL0     C15296   7.417   7.148   3.916 -0.2043 -0.9601 -0.0656
  114MOL0     C15297   7.473   6.998   3.882 -0.0975 -0.0423 -0.3393
  114MOL0     C15298   7.602   6.995   3.807 -0.7719 -0.6133  0.0871
  114MOL0    Cl15299   7.600   7.118   3.674 -0.0630 -0.2003  0.0107
  114MOL0     C15300   6.660   7.352   4.243  0.8762  0.0472  0.2079
  114MOL0     C15301   6.545   7.389   4.316 -0.3031 -0.6639 -0.1372
  114MOL0     O15302   6.265   7.462   4.197  0.6755  0.5074  0.5420
  114MOL0     C15303   5.995   7.501   4.261  0.2551 -0.3907 -1.1075
  114MOL0     C15304   5.857   7.479   4.270 -0.3315  0.3244 -0.2003
  114MOL0     N15305   5.120   7.806   4.271  1.0678  0.0292  1.6886
  114MOL0     N15306   5.002   7.801   4.219  1.0295 -0.9337  0.5869
  114MOL0     C15307   4.012   7.808   3.549 -0.0339 -1.1357  0.2221
  114MOL0     C15308   3.890   7.870   3.529  0.1807  0.4774 -0.4383
  114MOL0     C15309   3.432   7.937   3.586 -0.9835  0.6802 -0.2022
  114MOL0     C15310   3.320   7.865   3.549 -0.4785  0.0849  0.4467
  114MOL0     C15311   3.194   7.915   3.530 -0.9483 -1.3857 -0.6485
  114MOL0     C15312   3.185   8.050   3.541  0.3065 -0.1022  0.0684
  114MOL0     O15313   3.082   8.125   3.488 -0.1809 -1.3099  0.1991
  114MOL0     C15314   2.969   8.052   3.454 -0.5468  0.5711  0.2273
  114MOL0     C15315   2.872   8.152   3.413  0.0385  0.1781  0.1199
  114MOL0     C15316   2.889   8.224   3.287 -0.9288  0.6315 -0.9438
  114MOL0     C15317   2.789   8.316   3.251  0.0028  0.5221  0.0648
  114MOL0     C15318   2.652   8.268   3.248  1.0505  0.6648  0.7332
  114MOL0     C15319   2.539   8.233   3.247 -1.4770 -0.4397  0.2026
  114MOL0     C15320   3.294   8.135   3.572 -0.4222  1.1671 -0.4878
  114MOL0     C15321   3.418   8.073   3.601 -0.2025 -1.2003 -0.0586
  114MOL0     C15322   3.535   8.166   3.649 -0.7478  0.5030  0.4279
  114MOL0     H15323   3.681   7.599   3.559 -0.4104  0.0186  0.7164
  114MOL0     H15324   3.901   7.484   3.562  5.4866 -0.1177  1.5971
  114MOL0     H15325   4.281   7.733   3.515  1.2104  0.4569  0.8643
  114MOL0     H15326   4.226   7.720   3.683  0.8337 -1.3587  1.2584
  114MOL0     H15327   4.387   7.522   3.521  2.1036 -1.1652  2.1229
  114MOL0     H15328   4.332   7.486   3.692  1.4996 -2.3660 -0.7393
  114MOL0     H15329   4.482   7.674   3.769 -0.1475 -2.0953  1.2324
  114MOL0     H15330   4.523   7.719   3.608 -1.8441  1.0039  1.3717
  114MOL0     H15331   4.570   7.432   3.714  1.8390 -0.2825 -1.1571
  114MOL0     H15332   4.633   7.513   3.566  0.2282 -3.1050 -0.1380
  114MOL0     H15333   4.816   7.520   3.692  2.0391  0.2109  0.1606
  114MOL0     H15334   4.755   7.681   3.722  0.7592 -0.4212  1.9326
  114MOL0     H15335   4.642   7.624   3.926 -0.2560 -0.8899  1.4965
  114MOL0     H15336   4.712   7.461   3.924  1.2028 -0.4266  0.5579
  114MOL0     H15337   4.902   7.704   3.929 -2.3719  1.3603  1.6653
  114MOL0     H15338   4.936   7.530   3.937  2.0686  1.2655 -0.3891
  114MOL0     H15339   4.773   7.701   4.140 -2.1024 -2.9159  1.8143
  114MOL0     H15340   4.822   7.533   4.149  0.5689 -0.1565 -0.3666
  114MOL0     H15341   5.089   7.494   4.175  2.2225  0.1674 -2.7131
  114MOL0     H15342   5.390   7.663   4.259  1.1073  3.2767  2.8347
  114MOL0     H15343   5.327   7.673   4.423 -3.5082 -0.9111  1.1324
  114MOL0     H15344   5.246   7.471   4.429 -1.3667 -1.2154  0.5171
  114MOL0     H15345   5.298   7.421   4.265  1.5245  1.9693 -1.9724
  114MOL0     H15346   5.437   7.307   4.403  0.4586  1.0409 -0.0147
  114MOL0     H15347   5.460   7.430   4.511 -2.9242  0.1183 -0.0621
  114MOL0     H15348   5.596   7.568   4.360  0.4010  0.9919  0.0183
  114MOL0     H15349   5.579   7.441   4.244  0.2271 -0.4190  0.7875
  114MOL0     H15350   5.876   7.223   4.513  1.9429 -1.2700 -0.1130
  114MOL0     H15351   6.111   7.256   4.474 -0.6239  0.7394  0.4539
  114MOL0     H15352   6.344   7.122   4.256  0.0170  0.5398  1.6170
  114MOL0     H15353   6.552   7.040   4.149 -2.1870 -0.8485  0.4085
  114MOL0     H15354   6.863   7.097   4.300 -2.3485  1.6391  0.3439
  114MOL0     H15355   6.782   6.977   4.201  0.3408 -0.9175  1.2015
  114MOL0     H15356   7.007   6.946   4.166  1.9428  0.0111 -2.6233
  114MOL0     H15357   6.938   7.018   4.018 -1.0786 -0.7841  0.2888
  114MOL0     H15358   7.054   7.230   4.081 -0.6018  0.7004  2.0269
  114MOL0     H15359   7.099   7.154   4.229  0.1364  3.5680 -1.3111
  114MOL0     H15360   7.163   7.062   3.934 -0.0900  1.0963  1.0978
  114MOL0     H15361   7.228   6.977   4.078  0.2605  0.0037  2.2523
  114MOL0     H15362   7.368   7.151   4.130 -2.2512 -2.3602  0.8686
  114MOL0     H15363   7.271   7.264   4.027 -0.5478  0.4177 -1.4465
  114MOL0     H15364   7.354   7.172   3.830 -0.9572 -1.9685  0.1902
  114MOL0     H15365   7.503   7.215   3.927 -1.0326 -0.0653  1.2487
  114MOL0     H15366   7.401   6.944   3.820 -0.2378 -0.4208  0.1415
  114MOL0     H15367   7.480   6.938   3.974 -1.8813  2.9813  1.9902
  114MOL0     H15368   7.691   7.020   3.865 -1.6842  1.3214  0.7223
  114MOL0     H15369   7.609   6.895   3.762  0.1272  0.2368 -1.7733
  114MOL0     H15370   6.746   7.416   4.225 -0.8193  2.2687 -0.4569
  114MOL0     H15371   6.545   7.488   4.359 -2.8493 -1.1110  1.0759
  114MOL0     H15372   6.017   7.563   4.175 -0.5527  0.6138 -0.6069
  114MOL0     H15373   5.790   7.540   4.211 -1.6596 -0.8306  0.0482
  114MOL0     H15374   4.109   7.858   3.541 -1.8162  2.9819  1.4741
  114MOL0     H15375   3.896   7.976   3.508  2.7053  0.0809 -2.1282
  114MOL0     H15376   3.318   7.757   3.555 -1.8778 -0.3891 -4.4438
  114MOL0     H15377   3.110   7.849   3.512 -1.3892 -0.8245 -0.6672
  114MOL0     H15378   2.929   8.017   3.550 -3.2223  1.9804 -0.2530
  114MOL0     H15379   2.984   7.969   3.384  0.9824  0.6596  0.4244
  114MOL0     H15380   2.862   8.220   3.498 -0.5917  0.1395  0.0856
  114MOL0     H15381   2.773   8.105   3.405 -0.0030  0.4847 -1.6319
  114MOL0     H15382   2.909   8.155   3.204 -0.8569 -0.1735 -0.2678
  114MOL0     H15383   2.981   8.281   3.304  0.5458 -1.9451  0.3169
  114MOL0     H15384   2.791   8.395   3.327  0.0176  0.7949 -0.2187
  114MOL0     H15385   2.820   8.356   3.155  1.4650 -2.5439 -0.8715
  114MOL0     H15386   2.434   8.216   3.235 -1.9062  2.5393 -1.1157
  114MOL0     H15387   3.302   8.244   3.569  1.1851  1.3414  3.5738
  114MOL0     H15388   3.519   8.274   3.641 -0.1672  0.6075  0.6208
  114MOL0     H15389   3.563   8.133   3.749 -0.8344  0.2786  0.3801
  114MOL0     H15390   3.633   8.140   3.607 -1.6978  1.0089 -2.3107
  115MOL0     O15391   1.353   5.452   7.781 -0.3322 -0.5418 -0.2465
  115MOL0     C15392   1.315   5.492   7.891  0.0171 -0.1949 -0.7768
  115MOL0     O15393   1.335   5.423   8.007 -0.4828 -0.0105  0.6121
  115MOL0     C15394   1.415   5.306   8.005  0.0376  0.4400 -0.2612
  115MOL0     C15395   1.530   5.280   7.927  0.6187  0.6090  0.6842
  115MOL0     C15396   1.596   5.160   7.944  0.1854  0.0761 -0.9404
  115MOL0     C15397   1.568   5.071   8.049  0.4937  0.1202  0.8587
  115MOL0     O15398   1.653   4.966   8.056  0.1518  0.1382 -0.6015
  115MOL0     C15399   1.642   4.879   8.168 -0.4779  0.0462  0.1431
  115MOL0     C15400   1.760   4.789   8.150  0.1726  0.1349  0.0761
  115MOL0     C15401   1.785   4.712   8.270 -0.3245  0.1718 -0.1051
  115MOL0     C15402   1.892   4.599   8.230 -0.1487 -0.0096  0.4024
  115MOL0     C15403   1.991   4.559   8.342  0.6305 -0.2033  0.3540
  115MOL0     C15404   2.107   4.653   8.354 -0.2889 -0.6872  1.5343
  115MOL0     C15405   2.188   4.623   8.476  0.4375 -0.2904  0.0225
  115MOL0     C15406   2.114   4.655   8.609 -0.6727  0.7318  0.0249
  115MOL0     N15407   2.218   4.636   8.711  0.3490  0.5743 -0.5556
  115MOL0     C15408   2.264   4.744   8.771 -0.1313  0.1583 -0.3422
  115MOL0     C15409   2.357   4.706   8.861 -0.1781  0.2982  0.1243
  115MOL0     C15410   2.429   4.781   8.967 -0.4647 -0.5174 -0.5945
  115MOL0     C15411   2.579   4.779   8.943  0.0721  0.6690 -0.9366
  115MOL0     C15412   2.670   4.879   9.021 -0.5051 -0.0957  0.6076
  115MOL0     C15413   2.639   5.030   9.017  0.6194  0.8718  0.6487
  115MOL0     O15414   2.741   5.094   9.109 -0.9062  0.4722  0.3021
  115MOL0     C15415   2.874   5.102   9.065  0.0320  0.0859  0.2020
  115MOL0     C15416   2.919   5.077   8.939 -0.0504  0.6355  0.5030
  115MOL0     C15417   3.047   5.103   8.904 -0.1374 -0.0199  0.5573
  115MOL0     C15418   3.149   5.134   8.988 -0.3907  0.2740 -0.5926
  115MOL0     C15419   3.284   5.184   8.946  0.7524 -0.2945  0.2673
  115MOL0     O15420   3.381   5.208   9.041  0.4889 -0.0852  0.7968
  115MOL0     C15421   3.505   5.255   9.003 -0.1889  0.3171  0.3248
  115MOL0     C15422   3.615   5.195   9.062  0.3471 -0.2067 -0.2313
  115MOL0     C15423   3.745   5.242   9.041 -0.1676  0.5098  0.2346
  115MOL0     C15424   3.761   5.360   8.966  0.8076 -0.6693 -0.0425
  115MOL0     O15425   3.886   5.418   8.937  0.0819  0.3420  0.1732
  115MOL0     C15426   4.005   5.364   8.998 -0.3850  0.1262  0.8176
  115MOL0     C15427   4.123   5.459   8.954 -0.1429 -0.6408  1.6874
  115MOL0     C15428   4.248   5.404   9.017  0.2016  0.4136 -0.0855
  115MOL0     C15429   4.370   5.477   8.989 -0.0174 -0.2159  0.5233
  115MOL0     C15430   4.495   5.421   9.051  0.7226  0.2785 -1.3944
  115MOL0     C15431   4.631   5.498   9.032 -0.7445 -0.3419 -0.0087
  115MOL0     C15432   4.738   5.432   9.123  1.5099 -1.0470  0.0951
  115MOL0     C15433   4.860   5.524   9.150  0.2669  0.1932  0.9702
  115MOL0    Cl15434   4.927   5.614   9.010 -0.0142  0.0214  0.2102
  115MOL0     C15435   3.650   5.421   8.906 -0.1102 -0.1627  0.2153
  115MOL0     C15436   3.523   5.369   8.929  0.5699  0.3126 -0.2701
  115MOL0     O15437   3.299   5.193   8.821  0.1275  0.8863 -0.6330
  115MOL0     C15438   3.109   5.142   9.125 -0.0164 -0.2068 -0.8422
  115MOL0     C15439   2.972   5.135   9.162  0.2463 -0.4660 -0.3576
  115MOL0     N15440   2.369   4.568   8.846 -0.1049  0.2271 -0.1467
  115MOL0     N15441   2.289   4.526   8.752  0.3491  0.1910 -0.1802
  115MOL0     C15442   1.463   5.098   8.132  0.2596 -0.0721 -0.2056
  115MOL0     C15443   1.390   5.217   8.108  0.1901 -1.1571 -0.1306
  115MOL0     C15444   1.238   5.619   7.893 -0.1218 -0.0397 -0.5063
  115MOL0     C15445   1.197   5.659   8.027  0.0482 -0.9240 -0.6502
  115MOL0     C15446   1.139   5.776   8.062  0.6654 -0.9204  0.3528
  115MOL0     C15447   1.107   5.861   7.951  0.0248  0.2974  0.1401
  115MOL0     O15448   1.040   5.979   7.965 -0.4498  0.5384  0.0850
  115MOL0     C15449   1.046   6.045   8.094 -0.2106  0.3239  0.4582
  115MOL0     C15450   1.011   6.192   8.073 -1.2811  0.4723  0.1544
  115MOL0     C15451   0.865   6.198   8.064  0.4859 -0.7571  0.8511
  115MOL0     C15452   0.825   6.352   8.045 -1.7256 -0.3590  0.5571
  115MOL0     C15453   0.677   6.382   8.066  0.1816  0.2062  0.2261
  115MOL0     C15454   0.563   6.417   8.080  0.0664 -0.7995  0.2546
  115MOL0     C15455   1.143   5.826   7.818  0.0687 -0.6489 -0.4855
  115MOL0     C15456   1.212   5.707   7.784  0.1285  0.8427  0.5310
  115MOL0     C15457   1.251   5.679   7.638  0.1549 -0.7587  0.6693
  115MOL0     H15458   1.557   5.349   7.848  0.7338  0.6534  0.7611
  115MOL0     H15459   1.679   5.149   7.875 -1.4249 -0.6164 -2.8534
  115MOL0     H15460   1.657   4.936   8.259 -1.9489 -1.7807  1.6156
  115MOL0     H15461   1.546   4.827   8.179  0.3647 -1.2874  1.5011
  115MOL0     H15462   1.848   4.851   8.133 -0.5042  1.7592  2.0257
  115MOL0     H15463   1.750   4.717   8.069  1.8921 -0.3461  0.2521
  115MOL0     H15464   1.700   4.673   8.327 -0.8950  2.8900  1.0790
  115MOL0     H15465   1.835   4.775   8.344 -1.0294 -0.5108  0.9771
  115MOL0     H15466   1.835   4.507   8.215  1.6282 -0.9295 -0.9114
  115MOL0     H15467   1.947   4.619   8.138  0.3131  0.1609  0.7140
  115MOL0     H15468   1.938   4.543   8.436  0.2808 -4.4768 -0.3520
  115MOL0     H15469   2.028   4.461   8.310 -0.3426 -0.3301 -0.4427
  115MOL0     H15470   2.174   4.651   8.267 -1.7932 -0.1411  0.3146
  115MOL0     H15471   2.073   4.757   8.359  0.7377 -0.1405 -1.1331
  115MOL0     H15472   2.288   4.668   8.469  0.0000  1.0182  1.5950
  115MOL0     H15473   2.207   4.516   8.467  2.3518  0.1920 -3.8701
  115MOL0     H15474   2.069   4.754   8.616 -0.8806  0.5233  2.4763
  115MOL0     H15475   2.038   4.577   8.621 -0.4764  0.3034 -1.2902
  115MOL0     H15476   2.228   4.847   8.772 -0.8484  0.0252  3.6888
  115MOL0     H15477   2.377   4.876   8.983 -0.2232 -0.4543 -0.1632
  115MOL0     H15478   2.420   4.728   9.062  2.4045 -1.9288 -0.9897
  115MOL0     H15479   2.607   4.677   8.970 -0.5944  0.9434  0.9124
  115MOL0     H15480   2.591   4.795   8.835  0.2814 -1.5896 -1.2961
  115MOL0     H15481   2.773   4.870   8.985 -0.6172 -2.7124  0.7368
  115MOL0     H15482   2.676   4.856   9.127  1.3018  1.5962  0.9442
  115MOL0     H15483   2.536   5.057   9.042 -0.1728 -1.7579  0.6288
  115MOL0     H15484   2.653   5.056   8.912  2.0506 -2.4730 -0.1407
  115MOL0     H15485   2.852   5.057   8.856  3.3655  1.8487 -2.8296
  115MOL0     H15486   3.069   5.107   8.798  1.7544  1.0832  0.9424
  115MOL0     H15487   3.597   5.106   9.121 -1.5317 -0.6922 -1.4293
  115MOL0     H15488   3.814   5.181   9.098  1.0727 -1.8191 -3.4309
  115MOL0     H15489   3.984   5.373   9.105 -2.6302  0.5521  0.4082
  115MOL0     H15490   4.020   5.260   8.969  1.2666  0.7605 -0.7949
  115MOL0     H15491   4.126   5.439   8.846  1.9513  3.2103  0.8704
  115MOL0     H15492   4.098   5.556   8.996 -0.7902  0.3390 -0.7793
  115MOL0     H15493   4.235   5.385   9.124  1.3362 -0.8212 -0.1416
  115MOL0     H15494   4.265   5.310   8.963  0.3452  0.2683  0.2061
  115MOL0     H15495   4.348   5.578   9.025  0.8868 -0.0544  0.6403
  115MOL0     H15496   4.389   5.483   8.881  1.9741  4.3760  0.8883
  115MOL0     H15497   4.514   5.321   9.011  0.9785  0.1445 -0.9499
  115MOL0     H15498   4.475   5.424   9.158 -1.7522  2.0102 -1.8255
  115MOL0     H15499   4.673   5.513   8.932  0.6958  3.3530  0.9734
  115MOL0     H15500   4.621   5.596   9.079 -2.5598 -0.6620  0.3744
  115MOL0     H15501   4.774   5.339   9.078 -0.9096 -1.8641 -0.2662
  115MOL0     H15502   4.696   5.405   9.220 -0.2192  0.2831 -0.2401
  115MOL0     H15503   4.834   5.597   9.227 -0.3994 -0.2212  1.1478
  115MOL0     H15504   4.943   5.472   9.199 -0.4602 -2.4302 -0.4250
  115MOL0     H15505   3.652   5.514   8.850 -2.1694  0.3378  0.8867
  115MOL0     H15506   3.443   5.420   8.877  1.0916  0.7451 -0.6602
  115MOL0     H15507   3.179   5.159   9.206  0.1237 -3.7523 -0.0632
  115MOL0     H15508   2.943   5.147   9.266 -2.5615  2.3152 -1.2736
  115MOL0     H15509   1.439   5.036   8.217 -4.8737  0.3515 -1.0239
  115MOL0     H15510   1.299   5.239   8.163 -0.7568 -1.5417 -1.4758
  115MOL0     H15511   1.219   5.594   8.112  0.9298 -0.9648 -0.9022
  115MOL0     H15512   1.100   5.792   8.162 -1.6905  2.2438 -0.8984
  115MOL0     H15513   1.152   6.043   8.123  0.2643  3.1180 -0.7341
  115MOL0     H15514   0.988   5.996   8.172  0.6088  0.2467  1.0316
  115MOL0     H15515   1.054   6.226   7.979 -0.2577  0.1493  0.4849
  115MOL0     H15516   1.060   6.253   8.150 -0.0681 -1.6676  1.2035
  115MOL0     H15517   0.827   6.168   8.163 -1.9209 -0.5468  0.0668
  115MOL0     H15518   0.828   6.133   7.985 -1.3035 -1.5779  2.2753
  115MOL0     H15519   0.899   6.415   8.095 -0.8696 -0.2475 -0.7772
  115MOL0     H15520   0.843   6.386   7.942  1.3725  2.4438  1.8404
  115MOL0     H15521   0.466   6.455   8.102 -0.0867  0.4974 -2.3319
  115MOL0     H15522   1.117   5.907   7.751  1.6755  0.4789  0.1827
  115MOL0     H15523   1.360   5.668   7.629  0.0790 -0.0367 -2.4715
  115MOL0     H15524   1.197   5.590   7.603 -1.4700 -0.2036  1.6513
  115MOL0     H15525   1.228   5.756   7.564  3.2329  1.3290  1.6674
  116MOL0     O15526  11.181  10.442   5.088 -0.0382  0.8136 -0.0402
  116MOL0     C15527  11.124  10.340   5.043 -0.3941 -0.3257  0.3718
  116MOL0     O15528  11.190  10.233   4.989 -0.0611 -0.6860  0.4862
  116MOL0     C15529  11.319  10.227   5.007 -0.3366 -0.9889  0.4145
  116MOL0     C15530  11.362  10.131   5.104  0.1127 -0.1983  0.8498
  116MOL0     C15531  11.496  10.114   5.134  0.5052 -0.4312  0.0516
  116MOL0     C15532  11.594  10.204   5.077 -0.1998  0.8633 -0.5128
  116MOL0     O15533  11.731  10.179   5.111 -0.0077 -0.2630 -0.0484
  116MOL0     C15534  11.818  10.292   5.106  0.2959  0.8332 -0.0610
  116MOL0     C15535  11.907  10.306   5.225 -0.3864  0.3588  0.8159
  116MOL0     C15536  12.037  10.234   5.199 -0.3620  0.3036  0.6171
  116MOL0     C15537  12.118  10.211   5.323 -0.2869 -0.5184 -0.1014
  116MOL0     C15538  12.262  10.150   5.302 -0.1899 -0.3844 -0.4442
  116MOL0     C15539  12.360  10.143   5.424 -0.7113  0.6493  0.9216
  116MOL0     C15540  12.498  10.126   5.364  0.0354  0.1535  0.0284
  116MOL0     C15541  12.561  10.258   5.325 -0.4429 -1.2438 -0.0265
  116MOL0     N15542  12.711  10.243   5.293  0.0333 -0.0242  0.7075
  116MOL0     C15543  12.756  10.193   5.173  0.6408  0.0425 -0.0087
  116MOL0     C15544  12.886  10.215   5.185 -0.4511 -0.3509 -0.0955
  116MOL0     C15545  12.983  10.191   5.073  0.7798 -0.5592 -0.0279
  116MOL0     C15546  13.126  10.164   5.131  0.2884 -1.7122  1.0524
  116MOL0     C15547  13.236  10.203   5.019 -0.0042  0.5812  0.3137
  116MOL0     C15548  13.374  10.141   5.065  0.2300 -0.2531 -0.8157
  116MOL0     O15549  13.472  10.181   4.968 -0.0068  0.1215  0.1026
  116MOL0     C15550  13.594  10.126   4.970  0.4190 -0.2651  0.4154
  116MOL0     C15551  13.680  10.170   4.872 -0.3962  0.3454 -0.7602
  116MOL0     C15552  13.814  10.126   4.862 -0.1933 -0.0895 -0.2243
  116MOL0     C15553  13.863  10.022   4.943  0.2067  0.7358 -0.8798
  116MOL0     C15554  13.996   9.963   4.931 -0.2250 -0.4941 -0.3087
  116MOL0     O15555  14.019   9.847   4.999 -0.1130  0.0601 -0.2558
  116MOL0     C15556  14.116   9.767   4.945  0.1169 -0.3519 -1.4286
  116MOL0     C15557  14.218   9.723   5.027 -0.1408 -0.1831 -0.2949
  116MOL0     C15558  14.325   9.665   4.968 -0.3543 -0.0540 -0.0177
  116MOL0     C15559  14.325   9.632   4.832  0.2173  0.0013 -0.6681
  116MOL0     O15560  14.424   9.593   4.754 -0.5383 -0.4377 -0.3826
  116MOL0     C15561  14.508   9.486   4.803  0.1946  0.8470  0.5119
  116MOL0     C15562  14.556   9.411   4.681  0.8255  0.5181 -0.0359
  116MOL0     C15563  14.667   9.309   4.712  0.0120  0.6265  0.2582
  116MOL0     C15564  14.608   9.199   4.798 -0.1859  0.1653 -0.0602
  116MOL0     C15565  14.721   9.101   4.831 -1.0559  0.0225  0.2848
  116MOL0     C15566  14.733   9.087   4.979 -0.1754 -0.4731  0.6696
  116MOL0     C15567  14.848   8.995   5.010  0.2574  0.3158 -0.2986
  116MOL0     C15568  14.826   8.851   4.957  0.9361 -0.3142 -0.2618
  116MOL0    Cl15569  14.958   8.758   5.026  0.0562  0.1268  0.2624
  116MOL0     C15570  14.212   9.665   4.754 -0.4948  0.5782 -0.5095
  116MOL0     C15571  14.107   9.726   4.817 -0.2679  0.6328  0.2022
  116MOL0     O15572  14.072  10.011   4.853 -0.3501 -0.1531 -0.9037
  116MOL0     C15573  13.773   9.977   5.042 -0.5784 -0.4589  0.3586
  116MOL0     C15574  13.648  10.043   5.058  0.7599  0.0097 -0.5614
  116MOL0     N15575  12.909  10.283   5.302  0.3636 -0.0718 -0.6709
  116MOL0     N15576  12.801  10.296   5.374  0.3407 -0.3573 -0.1324
  116MOL0     C15577  11.549  10.293   4.984  0.2204 -0.0595  0.1454
  116MOL0     C15578  11.417  10.302   4.943  0.0726  0.3048 -0.1960
  116MOL0     C15579  10.975  10.368   5.015  0.5814 -0.4527  0.4446
  116MOL0     C15580  10.924  10.504   5.019 -0.1868  0.0727 -0.6557
  116MOL0     C15581  10.798  10.535   4.982  0.2620  0.3183  0.1165
  116MOL0     C15582  10.706  10.435   4.954  0.4971  0.7292  0.0911
  116MOL0     O15583  10.580  10.484   4.929 -0.2688 -0.6328 -0.0851
  116MOL0     C15584  10.488  10.381   4.911  0.8564 -0.6149  0.1730
  116MOL0     C15585  10.351  10.447   4.902 -0.7215  0.4006 -0.3383
  116MOL0     C15586  10.244  10.340   4.935  0.4762  0.0235  0.0709
  116MOL0     C15587  10.119  10.407   4.990  0.2285 -0.4614 -0.4063
  116MOL0     C15588  10.058  10.482   4.887 -0.6567 -0.8147  0.4528
  116MOL0     C15589  10.002  10.545   4.799  0.9588 -0.2009 -0.0786
  116MOL0     C15590  10.750  10.302   4.959 -0.3176 -0.0667  0.0424
  116MOL0     C15591  10.884  10.266   4.978 -0.5055 -0.1411  0.2090
  116MOL0     C15592  10.928  10.133   4.958  0.2695 -0.6378  0.1699
  116MOL0     H15593  11.283  10.066   5.138  0.7311 -2.7708 -2.0776
  116MOL0     H15594  11.521  10.033   5.202 -3.8800 -2.2925 -0.1782
  116MOL0     H15595  11.875  10.298   5.012 -1.4687  3.0634 -1.0960
  116MOL0     H15596  11.749  10.377   5.108 -2.5886 -1.2482 -2.1966
  116MOL0     H15597  11.860  10.260   5.313  0.8194 -0.5401  1.0304
  116MOL0     H15598  11.924  10.407   5.262  0.4297  0.5109  0.0577
  116MOL0     H15599  12.095  10.302   5.136 -0.4150  1.5325  1.8414
  116MOL0     H15600  12.022  10.138   5.149 -0.4696 -0.1048  1.4165
  116MOL0     H15601  12.116  10.301   5.385  0.0758 -0.7563  0.2635
  116MOL0     H15602  12.071  10.132   5.382 -2.4346  0.9096  0.2065
  116MOL0     H15603  12.245  10.054   5.253 -0.8127  0.2905 -1.5723
  116MOL0     H15604  12.316  10.216   5.234 -0.3384  1.2686  0.9619
  116MOL0     H15605  12.349  10.227   5.493 -2.0472  1.7652 -0.5971
  116MOL0     H15606  12.347  10.044   5.470 -1.0059 -0.8464 -2.1655
  116MOL0     H15607  12.498  10.065   5.272 -0.7724 -1.9755  1.3542
  116MOL0     H15608  12.566  10.080   5.436  3.0811  0.3416 -2.4741
  116MOL0     H15609  12.510  10.303   5.240 -0.2121  4.3543  2.3838
  116MOL0     H15610  12.551  10.326   5.410  2.3363  0.6505 -1.0797
  116MOL0     H15611  12.694  10.150   5.095 -1.3405  1.0112  0.9765
  116MOL0     H15612  12.956  10.108   5.007  1.8759  0.2103 -1.5175
  116MOL0     H15613  12.992  10.280   5.010  1.5550  0.3539  1.3222
  116MOL0     H15614  13.145  10.237   5.210 -1.8438  0.5006 -0.3361
  116MOL0     H15615  13.149  10.062   5.162  0.2562 -2.0993 -0.1203
  116MOL0     H15616  13.250  10.310   5.005  0.6050  0.4287 -0.2675
  116MOL0     H15617  13.208  10.156   4.924  1.4395 -0.7560  0.5204
  116MOL0     H15618  13.366  10.032   5.068  1.9064 -0.3921  1.3925
  116MOL0     H15619  13.406  10.174   5.165 -1.2109  2.9137 -1.2840
  116MOL0     H15620  13.653  10.245   4.798 -1.6996 -0.2569 -0.9234
  116MOL0     H15621  13.891  10.171   4.799  0.5452  0.2853  0.9114
  116MOL0     H15622  14.221   9.760   5.129  2.3586  1.9362 -1.0530
  116MOL0     H15623  14.411   9.639   5.030  1.4047  1.6882 -1.5881
  116MOL0     H15624  14.589   9.518   4.869  0.4617 -3.5728  2.7229
  116MOL0     H15625  14.451   9.411   4.859 -1.5839 -0.5178 -2.7731
  116MOL0     H15626  14.469   9.358   4.641  1.0500  0.1284 -0.0078
  116MOL0     H15627  14.594   9.479   4.604  0.8492 -0.2454 -0.7127
  116MOL0     H15628  14.721   9.270   4.625  1.3227  3.3274 -0.2708
  116MOL0     H15629  14.750   9.361   4.760 -0.1473 -0.7335  2.0905
  116MOL0     H15630  14.530   9.148   4.741  1.4003  0.1471 -2.3076
  116MOL0     H15631  14.569   9.240   4.892  1.3531 -1.7712  1.4908
  116MOL0     H15632  14.815   9.131   4.783 -2.0864 -0.0283 -1.9042
  116MOL0     H15633  14.693   9.006   4.783  3.9883 -1.3288 -0.5213
  116MOL0     H15634  14.766   9.181   5.024  1.3808 -1.5087  1.7908
  116MOL0     H15635  14.632   9.066   5.016 -2.3853  0.1472 -4.2985
  116MOL0     H15636  14.861   8.988   5.118  1.1739  1.7476 -0.2834
  116MOL0     H15637  14.943   9.029   4.967  1.7519 -4.3651 -1.2676
  116MOL0     H15638  14.735   8.819   5.007  1.9040 -0.0049  1.7988
  116MOL0     H15639  14.829   8.846   4.847  3.7992 -2.2230 -0.2139
  116MOL0     H15640  14.215   9.634   4.650  1.1878 -3.1512  0.4438
  116MOL0     H15641  14.033   9.770   4.751 -1.0389 -1.9022 -0.7286
  116MOL0     H15642  13.802   9.899   5.111  2.0115  0.4266  0.3641
  116MOL0     H15643  13.595  10.002   5.143 -1.4300  1.9959 -0.8690
  116MOL0     H15644  11.630  10.349   4.940 -0.4029 -0.3764 -1.4799
  116MOL0     H15645  11.394  10.386   4.878 -1.5795  0.9787  1.1890
  116MOL0     H15646  10.998  10.582   5.029  2.6184 -2.6641  2.5887
  116MOL0     H15647  10.760  10.636   4.981 -4.0563 -1.0743  1.5414
  116MOL0     H15648  10.495  10.301   4.986  2.0563  0.0186  0.7701
  116MOL0     H15649  10.511  10.331   4.816 -0.1492 -0.8942  0.0608
  116MOL0     H15650  10.334  10.489   4.802 -1.9496 -0.4439 -0.5132
  116MOL0     H15651  10.344  10.527   4.976 -1.4533  0.4709 -0.4709
  116MOL0     H15652  10.281  10.267   5.007 -0.3955  0.5089  1.0339
  116MOL0     H15653  10.224  10.273   4.850 -2.7336 -0.9746  1.4400
  116MOL0     H15654  10.044  10.336   5.029 -2.1003  1.5604 -0.9555
  116MOL0     H15655  10.127  10.482   5.069 -2.6071 -0.6299  0.1653
  116MOL0     H15656   9.933  10.584   4.727 -0.6887 -1.3763  0.7881
  116MOL0     H15657  10.682  10.219   4.940 -2.0102  1.4889 -1.0453
  116MOL0     H15658  10.969  10.120   4.858 -1.0136  2.8980 -0.9772
  116MOL0     H15659  11.001  10.101   5.033  3.3021  0.7451 -1.9916
  116MOL0     H15660  10.844  10.063   4.965  2.3870 -3.1661  2.7925
  117MOL0     O15661   0.660   1.355   6.342  0.0245  0.2816  0.3245
  117MOL0     C15662   0.628   1.465   6.381 -0.7074  0.3683  0.0477
  117MOL0     O15663   0.716   1.549   6.448  0.2747  0.5200  0.6871
  117MOL0     C15664   0.834   1.507   6.502 -0.1754 -0.9233 -0.3624
  117MOL0     C15665   0.927   1.611   6.520 -0.0657 -1.0555  0.0675
  117MOL0     C15666   1.050   1.583   6.585 -0.2125 -0.4146  0.4383
  117MOL0     C15667   1.065   1.459   6.649 -0.5300  0.5380  0.4335
  117MOL0     O15668   1.176   1.450   6.732 -0.4013 -0.3381  0.3602
  117MOL0     C15669   1.196   1.314   6.782  0.3340 -0.7317 -0.0340
  117MOL0     C15670   1.342   1.312   6.843 -0.0248 -0.2652 -0.3520
  117MOL0     C15671   1.456   1.353   6.749  0.0082 -0.1378  0.6938
  117MOL0     C15672   1.503   1.238   6.659  0.4684  0.3822 -0.5319
  117MOL0     C15673   1.597   1.288   6.551 -0.1747  0.3752 -0.6304
  117MOL0     C15674   1.708   1.390   6.598  0.9964 -0.6841 -0.2903
  117MOL0     C15675   1.806   1.329   6.686 -1.6134  0.7647  1.1886
  117MOL0     C15676   1.868   1.205   6.622 -0.2198  0.9856  0.4150
  117MOL0     N15677   1.998   1.167   6.673  0.0859 -0.6426 -0.0666
  117MOL0     C15678   2.033   1.147   6.807  0.0739 -0.1190 -0.3055
  117MOL0     C15679   2.155   1.085   6.803 -0.5636  0.1765 -0.1122
  117MOL0     C15680   2.225   1.025   6.923  0.0078  0.4989 -0.0231
  117MOL0     C15681   2.136   0.928   6.993  0.2865  0.4285 -0.1900
  117MOL0     C15682   2.109   0.802   6.915  0.7647  0.6069 -0.4703
  117MOL0     C15683   2.044   0.699   7.008  0.4779  0.6974 -0.4454
  117MOL0     O15684   1.920   0.754   7.065  0.2429  0.1081 -0.2742
  117MOL0     C15685   1.826   0.660   7.113  0.1455 -0.0493 -0.2161
  117MOL0     C15686   1.705   0.714   7.144  0.0875 -0.0088  0.1142
  117MOL0     C15687   1.595   0.633   7.177 -1.0757 -0.0858  0.2729
  117MOL0     C15688   1.606   0.491   7.171 -0.9944 -0.5171  0.4108
  117MOL0     C15689   1.495   0.404   7.190 -0.2169  0.0033 -0.0615
  117MOL0     O15690   1.512   0.268   7.207  0.3695 -0.0185  0.0998
  117MOL0     C15691   1.400   0.197   7.198 -0.2127 -0.4366  0.7497
  117MOL0     C15692   1.334   0.156   7.309  0.3515  0.4225 -0.6520
  117MOL0     C15693   1.213   0.084   7.299  0.9857 -0.0733  0.2911
  117MOL0     C15694   1.147   0.064   7.178 -0.1180  0.4798  0.6756
  117MOL0     O15695   1.029  -0.000   7.163 -0.0809 -0.0770  0.6821
  117MOL0     C15696   0.937   0.034   7.060  0.0387 -0.1443  0.1341
  117MOL0     C15697   0.803  -0.015   7.097  0.1347 -0.6555 -0.6942
  117MOL0     C15698   0.698  -0.039   6.987  0.0199  0.7590  0.6460
  117MOL0     C15699   0.566  -0.075   7.040 -0.1400  0.3066 -0.0634
  117MOL0     C15700   0.463  -0.092   6.932  0.3975 -0.2667  0.7183
  117MOL0     C15701   0.320  -0.134   6.983 -0.5504 -0.1476 -0.7455
  117MOL0     C15702   0.311  -0.252   7.091  0.1773 -0.7769 -0.4956
  117MOL0     C15703   0.371  -0.379   7.030  0.9251  0.3966 -0.4085
  117MOL0    Cl15704   0.355  -0.532   7.122 -0.0586 -0.1998  0.1267
  117MOL0     C15705   1.226   0.101   7.064 -0.0772 -1.2922  0.3728
  117MOL0     C15706   1.352   0.161   7.078 -0.1187 -0.2975  0.7863
  117MOL0     O15707   1.388   0.461   7.189  0.3896  0.6938  0.4182
  117MOL0     C15708   1.730   0.434   7.139  0.9001  0.4219 -0.6613
  117MOL0     C15709   1.835   0.522   7.125  0.6148  1.1031  0.5163
  117MOL0     N15710   2.200   1.087   6.672  0.0505 -0.2735 -0.7925
  117MOL0     N15711   2.099   1.130   6.596  0.3661  0.0834 -0.1678
  117MOL0     C15712   0.965   1.361   6.643 -0.7207  0.0157 -0.3962
  117MOL0     C15713   0.849   1.390   6.573  0.1052  0.1865 -0.4119
  117MOL0     C15714   0.501   1.532   6.340  0.4852  0.0232  0.0372
  117MOL0     C15715   0.480   1.665   6.389  0.2532  0.2050 -0.4017
  117MOL0     C15716   0.365   1.739   6.357  0.8378 -0.1051  0.1043
  117MOL0     C15717   0.269   1.687   6.264  0.2683  0.0704  0.8399
  117MOL0     O15718   0.154   1.760   6.232 -0.2754 -0.1155  0.2640
  117MOL0     C15719   0.046   1.706   6.154  0.4808 -0.3459  0.8587
  117MOL0     C15720   0.087   1.712   6.003  0.6826 -0.4937 -0.4225
  117MOL0     C15721   0.089   1.861   5.951  0.5070 -0.0639  0.1310
  117MOL0     C15722   0.146   1.875   5.810 -0.3331 -0.4276  0.8208
  117MOL0     C15723   0.051   1.822   5.707  0.4676 -0.2236 -0.1516
  117MOL0     C15724  -0.041   1.777   5.642  0.3287 -0.1152  0.1510
  117MOL0     C15725   0.287   1.559   6.220  0.2092  0.0516 -0.2639
  117MOL0     C15726   0.394   1.475   6.256  0.6111  0.1399 -0.0138
  117MOL0     C15727   0.399   1.327   6.207  0.6546  0.0353  0.0352
  117MOL0     H15728   0.914   1.712   6.482  1.3362 -1.1716 -0.8337
  117MOL0     H15729   1.117   1.668   6.594 -0.6239 -0.0763  0.3309
  117MOL0     H15730   1.123   1.279   6.856  2.0211 -1.2982  1.4383
  117MOL0     H15731   1.198   1.235   6.706 -0.6085  0.6174 -1.5201
  117MOL0     H15732   1.365   1.210   6.877  1.3187 -0.2249 -1.0404
  117MOL0     H15733   1.337   1.380   6.928 -1.5947  0.9076 -1.3460
  117MOL0     H15734   1.541   1.383   6.810  2.0589  1.8226 -2.7751
  117MOL0     H15735   1.435   1.437   6.681 -0.1062  0.2687  1.2275
  117MOL0     H15736   1.550   1.165   6.725 -1.1228  1.9666  2.5208
  117MOL0     H15737   1.417   1.184   6.619  1.4622 -3.2993  1.8229
  117MOL0     H15738   1.643   1.211   6.487  1.7726  1.2241 -0.3397
  117MOL0     H15739   1.528   1.333   6.479  1.6993 -0.2557 -2.9909
  117MOL0     H15740   1.764   1.417   6.508 -0.7406 -2.1612 -1.9035
  117MOL0     H15741   1.670   1.474   6.657  4.2483  0.2234  0.7086
  117MOL0     H15742   1.773   1.295   6.784  0.1690 -1.3469  1.1204
  117MOL0     H15743   1.881   1.407   6.700 -1.0563  1.0773 -2.5420
  117MOL0     H15744   1.807   1.114   6.627  3.5590 -1.9169 -1.0973
  117MOL0     H15745   1.872   1.221   6.514 -0.3376 -1.7001 -0.0720
  117MOL0     H15746   1.968   1.151   6.894 -0.1388 -2.5053 -0.2742
  117MOL0     H15747   2.319   0.981   6.890  0.0732  1.9257 -1.9080
  117MOL0     H15748   2.253   1.095   7.002 -3.9896  0.8034  1.3401
  117MOL0     H15749   2.179   0.893   7.087  0.1656 -0.0716 -0.3141
  117MOL0     H15750   2.038   0.971   7.015  1.6285  2.2023  3.0050
  117MOL0     H15751   2.196   0.763   6.862 -1.0562 -4.9781  0.0029
  117MOL0     H15752   2.039   0.841   6.841 -3.3474 -0.8919  2.2946
  117MOL0     H15753   2.117   0.663   7.081 -1.0055  0.1363  0.8389
  117MOL0     H15754   2.022   0.614   6.944  0.1151  1.3099 -1.1411
  117MOL0     H15755   1.699   0.822   7.144  1.3381  0.0962  1.6880
  117MOL0     H15756   1.501   0.674   7.213 -0.3350  0.2727  1.8567
  117MOL0     H15757   1.384   0.187   7.400  0.2588 -0.3748 -0.3204
  117MOL0     H15758   1.149   0.044   7.376  1.8337  0.7848  1.4704
  117MOL0     H15759   0.925   0.136   7.023 -1.3340 -0.3661 -0.1065
  117MOL0     H15760   0.966  -0.026   6.973 -0.1053 -1.4549  0.9504
  117MOL0     H15761   0.809  -0.104   7.159 -2.0039 -1.0561 -1.0029
  117MOL0     H15762   0.750   0.062   7.154  0.0772 -1.9988  1.1315
  117MOL0     H15763   0.692   0.051   6.925 -2.5240 -1.7279 -3.1088
  117MOL0     H15764   0.729  -0.119   6.920  0.6697  0.4348  1.3177
  117MOL0     H15765   0.534   0.009   7.103  1.3310 -1.4933  3.3443
  117MOL0     H15766   0.574  -0.162   7.107  0.2433 -1.3687 -2.1845
  117MOL0     H15767   0.504  -0.177   6.877  2.0309 -1.2522  3.2874
  117MOL0     H15768   0.457  -0.017   6.853 -2.5494 -0.2686  0.8377
  117MOL0     H15769   0.275  -0.043   7.025  1.6718  0.6851 -0.0303
  117MOL0     H15770   0.261  -0.168   6.898 -2.6861 -0.6550  0.8416
  117MOL0     H15771   0.207  -0.270   7.121  0.0172 -0.4375 -0.8341
  117MOL0     H15772   0.372  -0.223   7.177  1.4318 -0.9115 -1.3287
  117MOL0     H15773   0.325  -0.381   6.931  2.3167  4.8712 -1.3879
  117MOL0     H15774   0.480  -0.371   7.025  1.0128 -0.1603  0.4845
  117MOL0     H15775   1.181   0.082   6.967 -0.5801  0.8120  0.1689
  117MOL0     H15776   1.424   0.184   7.000  0.7688 -0.6753  1.4796
  117MOL0     H15777   1.747   0.327   7.136 -2.3272 -0.1779 -1.4351
  117MOL0     H15778   1.934   0.477   7.121 -0.1766 -1.2416  3.5902
  117MOL0     H15779   0.965   1.270   6.702  2.0508  0.1358 -0.0698
  117MOL0     H15780   0.769   1.316   6.578 -0.5487  0.9697  1.6049
  117MOL0     H15781   0.546   1.704   6.466 -2.0673  0.7997  1.3949
  117MOL0     H15782   0.341   1.841   6.387  3.5026  0.7299 -0.3332
  117MOL0     H15783  -0.033   1.779   6.180  3.2398  3.5508 -0.6868
  117MOL0     H15784   0.012   1.604   6.171 -0.9352 -0.6541 -2.9851
  117MOL0     H15785   0.016   1.664   5.935 -0.8510  1.2355 -0.1266
  117MOL0     H15786   0.182   1.659   5.994  1.1195  0.3077 -0.5974
  117MOL0     H15787   0.159   1.911   6.020  1.4806 -0.0764 -0.8208
  117MOL0     H15788  -0.014   1.895   5.945  1.4951  3.2259 -0.3243
  117MOL0     H15789   0.154   1.984   5.801  1.2419 -0.6009 -0.4554
  117MOL0     H15790   0.239   1.818   5.799  0.4881  1.0397 -0.2921
  117MOL0     H15791  -0.119   1.720   5.597 -2.3226  2.7056  0.7828
  117MOL0     H15792   0.201   1.509   6.175  0.4614 -1.0793  0.4869
  117MOL0     H15793   0.409   1.259   6.292 -3.4553 -0.6041  0.2085
  117MOL0     H15794   0.305   1.304   6.154 -1.8073  0.4552  3.8191
  117MOL0     H15795   0.479   1.299   6.138 -0.8219  0.5681 -2.0139
  118MOL0     O15796   6.958   3.650  10.303  0.2334  0.9780  0.2403
  118MOL0     C15797   6.957   3.773  10.307 -0.5296 -0.4374  0.6584
  118MOL0     O15798   7.031   3.850  10.217 -0.4246  0.2782 -0.2808
  118MOL0     C15799   7.089   3.780  10.112  0.1061  0.1813  0.1335
  118MOL0     C15800   7.017   3.719  10.014  0.6784 -0.0340 -0.1518
  118MOL0     C15801   7.075   3.670   9.904  0.2369  0.7402 -0.2547
  118MOL0     C15802   7.206   3.693   9.867 -0.1666 -0.6290  0.4706
  118MOL0     O15803   7.274   3.654   9.765  0.3114  0.4919 -0.5218
  118MOL0     C15804   7.200   3.621   9.645  0.4718  0.0238 -0.7198
  118MOL0     C15805   7.293   3.581   9.534  0.7945  0.0496 -0.1766
  118MOL0     C15806   7.365   3.709   9.495  0.0326 -0.0258  0.7383
  118MOL0     C15807   7.499   3.684   9.428  0.1627 -0.1299 -0.5577
  118MOL0     C15808   7.483   3.625   9.289  0.0723  0.0702  0.7079
  118MOL0     C15809   7.606   3.653   9.207 -0.4991 -0.0006  0.5615
  118MOL0     C15810   7.608   3.565   9.080 -0.9464  0.6449  0.1112
  118MOL0     C15811   7.717   3.596   8.983  0.0763 -0.0243  0.3343
  118MOL0     N15812   7.850   3.603   9.046  0.1585  0.1596 -0.0905
  118MOL0     C15813   7.918   3.504   9.110  0.1549  0.0515  1.0861
  118MOL0     C15814   8.022   3.560   9.175 -0.0656  0.4811 -0.6615
  118MOL0     C15815   8.127   3.480   9.255  0.1431  0.1794  0.1529
  118MOL0     C15816   8.267   3.543   9.261  1.2340  0.8684  0.7531
  118MOL0     C15817   8.345   3.497   9.135 -0.3426  0.0095 -0.5508
  118MOL0     C15818   8.501   3.536   9.153  0.9204  0.5801  0.1353
  118MOL0     O15819   8.564   3.439   9.073 -0.2498  0.0587 -0.1582
  118MOL0     C15820   8.702   3.436   9.087 -0.3031  0.1385 -0.4809
  118MOL0     C15821   8.780   3.548   9.119  0.0844  0.2120  0.7587
  118MOL0     C15822   8.919   3.540   9.121 -0.1035 -0.1679 -0.6025
  118MOL0     C15823   8.979   3.419   9.096 -0.0326 -0.1948 -0.8443
  118MOL0     C15824   9.126   3.429   9.073 -0.4719  0.3544 -0.4590
  118MOL0     O15825   9.178   3.533   9.001 -0.2333  0.1891 -0.5085
  118MOL0     C15826   9.315   3.555   9.003 -0.5455  0.7372 -0.1281
  118MOL0     C15827   9.384   3.576   8.886  0.3728  0.7337 -0.3390
  118MOL0     C15828   9.516   3.625   8.892  0.6830 -0.0633  0.9649
  118MOL0     C15829   9.579   3.632   9.020  0.4618 -0.1531  0.2268
  118MOL0     O15830   9.711   3.659   9.034  0.1799  0.4579 -0.6310
  118MOL0     C15831   9.801   3.691   8.920  0.0982  1.0350  0.3101
  118MOL0     C15832   9.939   3.715   8.977 -0.3751 -0.7612 -0.8032
  118MOL0     C15833   9.945   3.844   9.053  0.5040  0.2657  0.4861
  118MOL0     C15834  10.085   3.890   9.094  0.2858 -0.5559 -1.0584
  118MOL0     C15835  10.082   4.035   9.141 -0.3091  0.3661 -0.1257
  118MOL0     C15836  10.191   4.055   9.245 -0.0622  0.4551  0.2331
  118MOL0     C15837  10.329   4.069   9.178 -0.1755  0.8030 -0.0276
  118MOL0     C15838  10.439   4.022   9.266 -0.6889  0.9090  0.9298
  118MOL0    Cl15839  10.595   4.095   9.206  0.4328  0.4834 -0.0115
  118MOL0     C15840   9.511   3.608   9.137 -0.5350  0.9260 -0.5253
  118MOL0     C15841   9.374   3.577   9.130 -0.5064  0.0543 -0.8405
  118MOL0     O15842   9.188   3.343   9.127  0.8066  0.3223 -0.0606
  118MOL0     C15843   8.902   3.302   9.080 -0.3363  0.7801  0.4162
  118MOL0     C15844   8.765   3.312   9.056 -0.3426 -0.8201  0.1214
  118MOL0     N15845   8.025   3.696   9.144 -0.4274 -0.7876 -0.8505
  118MOL0     N15846   7.920   3.719   9.069  0.8103 -0.5926  0.4504
  118MOL0     C15847   7.282   3.745   9.976 -1.5238  0.3660 -0.5653
  118MOL0     C15848   7.228   3.784  10.098  0.5017  0.3298 -0.3190
  118MOL0     C15849   6.879   3.853  10.403 -0.5303 -0.9928 -0.0487
  118MOL0     C15850   6.918   3.992  10.420  0.6669 -0.4002 -0.0920
  118MOL0     C15851   6.873   4.063  10.531 -0.8756  0.3041 -0.2596
  118MOL0     C15852   6.776   4.010  10.616  0.0368  1.0843  0.7693
  118MOL0     O15853   6.716   4.079  10.721  0.2831 -0.2389 -0.2082
  118MOL0     C15854   6.733   4.226  10.726 -0.1368  0.5186  0.2078
  118MOL0     C15855   6.693   4.255  10.872  0.3619 -0.5907  0.7992
  118MOL0     C15856   6.548   4.207  10.900 -0.8596 -0.1684  0.3552
  118MOL0     C15857   6.461   4.314  10.973  0.3037  0.6887  0.1120
  118MOL0     C15858   6.333   4.258  11.015 -1.0638 -0.2842  0.0318
  118MOL0     C15859   6.221   4.216  11.040  0.1431  0.0915 -0.5077
  118MOL0     C15860   6.722   3.881  10.592 -0.3259  0.1194  0.4746
  118MOL0     C15861   6.773   3.799  10.486 -0.9441 -0.6076 -0.1009
  118MOL0     C15862   6.723   3.658  10.480  0.5393 -0.6762 -0.6486
  118MOL0     H15863   6.909   3.722  10.030  0.9371  1.3472  1.6338
  118MOL0     H15864   7.009   3.623   9.831 -1.6315  2.2106  0.3950
  118MOL0     H15865   7.150   3.529   9.677 -0.2857  0.3713 -0.8921
  118MOL0     H15866   7.114   3.682   9.615 -0.1790  0.1102  1.1814
  118MOL0     H15867   7.230   3.540   9.455 -0.7622 -1.7082  1.8488
  118MOL0     H15868   7.366   3.509   9.573  2.2893  1.0286 -1.0621
  118MOL0     H15869   7.377   3.771   9.584 -0.0025 -0.1092  0.8002
  118MOL0     H15870   7.306   3.761   9.418  1.7984  3.1363  1.3308
  118MOL0     H15871   7.541   3.785   9.425 -3.6472  1.7547  1.3784
  118MOL0     H15872   7.560   3.619   9.492 -1.2415  0.9147  2.0368
  118MOL0     H15873   7.475   3.516   9.294 -0.1496  0.1423  2.8803
  118MOL0     H15874   7.393   3.667   9.244 -0.3330 -1.7362 -0.2396
  118MOL0     H15875   7.610   3.761   9.194 -2.9117 -0.0482 -1.2541
  118MOL0     H15876   7.691   3.631   9.273 -2.7458 -1.1239  3.2832
  118MOL0     H15877   7.511   3.589   9.034 -1.2443 -3.2584 -1.6339
  118MOL0     H15878   7.618   3.461   9.110 -0.1201  0.0629 -2.0409
  118MOL0     H15879   7.723   3.521   8.903  0.9626  1.0839 -0.6710
  118MOL0     H15880   7.693   3.694   8.940 -0.0948  0.1579  0.8332
  118MOL0     H15881   7.888   3.400   9.120  3.1316 -0.9465  0.7109
  118MOL0     H15882   8.092   3.478   9.359 -1.5936  1.5099 -0.3523
  118MOL0     H15883   8.120   3.377   9.219 -3.8967  0.5427 -0.6484
  118MOL0     H15884   8.258   3.651   9.277  2.9050  0.6448  3.9280
  118MOL0     H15885   8.316   3.507   9.352  2.5221  2.7359  0.8454
  118MOL0     H15886   8.297   3.541   9.047  2.2623  3.9579 -0.2384
  118MOL0     H15887   8.337   3.388   9.133 -1.2522  0.0705 -0.9165
  118MOL0     H15888   8.523   3.515   9.258 -1.4219  0.0481  0.5894
  118MOL0     H15889   8.523   3.642   9.136 -0.2897  0.5577 -1.8499
  118MOL0     H15890   8.744   3.650   9.118  0.6124  0.4188 -0.6255
  118MOL0     H15891   8.985   3.626   9.121  1.5390 -1.1861  3.1538
  118MOL0     H15892   9.338   3.578   8.788 -1.1632 -1.8794  0.2185
  118MOL0     H15893   9.571   3.652   8.802  0.4134  0.0930  0.8460
  118MOL0     H15894   9.799   3.606   8.852 -0.1610  2.7677 -1.9856
  118MOL0     H15895   9.767   3.774   8.857 -0.8451 -0.0430 -0.6360
  118MOL0     H15896   9.954   3.630   9.045  0.5894 -0.5393 -0.7310
  118MOL0     H15897  10.015   3.710   8.899  2.4982 -0.7113  1.7901
  118MOL0     H15898   9.906   3.920   8.985  1.6261  2.7075  2.3858
  118MOL0     H15899   9.874   3.841   9.136 -1.8604 -0.0239 -1.4452
  118MOL0     H15900  10.152   3.879   9.008  2.5890 -0.1128  0.5665
  118MOL0     H15901  10.132   3.834   9.175 -1.5204  0.5664  0.8463
  118MOL0     H15902   9.988   4.054   9.194  0.7431  0.3199  1.8480
  118MOL0     H15903  10.093   4.103   9.056  0.3416 -0.0862 -0.4097
  118MOL0     H15904  10.178   4.151   9.295 -0.0986  1.4768 -1.6705
  118MOL0     H15905  10.188   3.968   9.312 -0.4510  0.2969  0.0144
  118MOL0     H15906  10.335   4.172   9.141  0.3391  0.2941 -1.4418
  118MOL0     H15907  10.332   3.997   9.096  1.3890  1.4641 -0.6073
  118MOL0     H15908  10.416   4.071   9.361 -0.2591  2.2744  0.3614
  118MOL0     H15909  10.439   3.914   9.281  0.6809  0.8279  0.4924
  118MOL0     H15910   9.565   3.601   9.230  0.4842 -1.6620 -1.2304
  118MOL0     H15911   9.315   3.562   9.220 -0.9218 -0.2267 -1.1573
  118MOL0     H15912   8.956   3.208   9.073  3.1545  2.6483 -0.2456
  118MOL0     H15913   8.719   3.219   9.023 -0.5350 -0.3900 -0.8586
  118MOL0     H15914   7.391   3.741   9.973 -1.5475 -0.1881 -0.8004
  118MOL0     H15915   7.304   3.807  10.172 -0.4158  2.1857  0.1117
  118MOL0     H15916   6.999   4.051  10.378 -0.0553  0.8957  0.2867
  118MOL0     H15917   6.916   4.162  10.547 -2.8382  0.8361  2.4197
  118MOL0     H15918   6.654   4.269  10.663 -0.8689 -0.6370  0.2960
  118MOL0     H15919   6.828   4.276  10.710 -0.5276  1.7877  1.6418
  118MOL0     H15920   6.696   4.357  10.911  1.5042 -0.7519  1.1625
  118MOL0     H15921   6.762   4.193  10.930 -1.2846  0.1242  3.7118
  118MOL0     H15922   6.551   4.110  10.950  3.1271  0.1164  1.0278
  118MOL0     H15923   6.502   4.184  10.804 -0.7650  1.8804 -0.2434
  118MOL0     H15924   6.509   4.347  11.065 -1.9339  1.1153  1.2092
  118MOL0     H15925   6.426   4.397  10.910 -0.3719  1.3435  1.3072
  118MOL0     H15926   6.131   4.168  11.073  0.1225 -0.3349 -1.1799
  118MOL0     H15927   6.647   3.847  10.664 -2.5748 -0.0091 -1.7900
  118MOL0     H15928   6.620   3.652  10.517  0.6772 -0.3925 -0.2109
  118MOL0     H15929   6.711   3.607  10.384  1.3843 -3.1199  0.4447
  118MOL0     H15930   6.789   3.604  10.549  2.2024  0.4655 -1.3050
  119MOL0     O15931   5.331   0.866   4.226  0.2262  0.3301  0.9476
  119MOL0     C15932   5.357   0.749   4.205  0.1885  0.7694 -0.4413
  119MOL0     O15933   5.477   0.689   4.188 -0.2504  0.3588 -0.1104
  119MOL0     C15934   5.580   0.778   4.203 -0.0224 -0.0446  0.1149
  119MOL0     C15935   5.605   0.814   4.335 -0.2677 -0.4717 -0.4462
  119MOL0     C15936   5.706   0.906   4.355  0.9797 -0.0549  0.2419
  119MOL0     C15937   5.779   0.960   4.247 -0.5097 -0.0748 -1.4527
  119MOL0     O15938   5.883   1.040   4.281  0.2232 -0.2574 -0.0860
  119MOL0     C15939   5.910   1.148   4.185  0.0342  0.8210 -0.6014
  119MOL0     C15940   6.019   1.243   4.229 -0.6347 -0.2944 -0.7757
  119MOL0     C15941   6.142   1.164   4.277  1.1810 -0.3845 -0.2321
  119MOL0     C15942   6.265   1.256   4.287 -0.6391 -0.1439 -0.1493
  119MOL0     C15943   6.389   1.183   4.353 -1.0440  0.4314 -0.8453
  119MOL0     C15944   6.521   1.265   4.355 -0.8882 -0.5894  0.0857
  119MOL0     C15945   6.638   1.193   4.400 -0.1932 -1.0587  0.5866
  119MOL0     C15946   6.772   1.267   4.391 -0.0000  0.3225 -0.0112
  119MOL0     N15947   6.883   1.164   4.426  0.0635 -0.0064  0.3721
  119MOL0     C15948   6.924   1.063   4.345 -0.0858  0.6198  0.7970
  119MOL0     C15949   7.019   0.993   4.423  0.2488  0.2196 -0.1810
  119MOL0     C15950   7.111   0.878   4.383 -0.4516 -0.3120 -0.3031
  119MOL0     C15951   7.245   0.939   4.317 -0.0784 -0.0437 -0.1701
  119MOL0     C15952   7.310   0.831   4.225  0.5661  0.4303  0.9307
  119MOL0     C15953   7.446   0.862   4.176 -0.2388  0.0567 -0.7448
  119MOL0     O15954   7.517   0.741   4.162  0.0536 -0.0285 -0.6531
  119MOL0     C15955   7.657   0.750   4.172 -0.2467 -0.2027  0.4560
  119MOL0     C15956   7.737   0.859   4.207  0.0386  0.8133  0.4581
  119MOL0     C15957   7.876   0.848   4.226  0.2235  0.9442 -1.1250
  119MOL0     C15958   7.955   0.734   4.186  0.5027 -0.3213 -0.9694
  119MOL0     C15959   8.103   0.729   4.203 -0.1830 -0.7133  0.3355
  119MOL0     O15960   8.160   0.609   4.207  0.2015 -0.1521  0.0489
  119MOL0     C15961   8.284   0.599   4.241 -0.0588 -0.6064 -0.2959
  119MOL0     C15962   8.368   0.534   4.158  0.4359  0.0745  0.4562
  119MOL0     C15963   8.505   0.526   4.180  0.0527  0.2093  1.3002
  119MOL0     C15964   8.566   0.593   4.290  0.6665  0.2225  0.7237
  119MOL0     O15965   8.702   0.602   4.301 -0.0282 -0.1260 -0.4313
  119MOL0     C15966   8.759   0.711   4.370  0.3853 -0.7549 -1.3397
  119MOL0     C15967   8.910   0.716   4.377  0.1797  0.0193  0.1944
  119MOL0     C15968   8.970   0.584   4.434  1.0766  0.5292 -0.6876
  119MOL0     C15969   9.124   0.602   4.441  0.0556 -0.4224  0.5578
  119MOL0     C15970   9.199   0.469   4.431  0.1250  0.1396  0.8891
  119MOL0     C15971   9.348   0.480   4.479  0.7220 -0.0831  0.3731
  119MOL0     C15972   9.411   0.347   4.485 -1.0053 -0.6307  0.1343
  119MOL0     C15973   9.564   0.362   4.515  0.3020  0.2696  0.1003
  119MOL0    Cl15974   9.571   0.430   4.695  0.2082  0.0620  0.2466
  119MOL0     C15975   8.478   0.655   4.378  0.4293 -0.2060 -0.3024
  119MOL0     C15976   8.338   0.643   4.368 -0.7701 -0.5159 -0.0788
  119MOL0     O15977   8.155   0.841   4.213  0.3767  0.0098 -0.2804
  119MOL0     C15978   7.876   0.633   4.135  0.7606 -0.0724 -0.3763
  119MOL0     C15979   7.730   0.636   4.139 -1.0273  0.5289 -0.1895
  119MOL0     N15980   7.021   1.051   4.546  0.2780  0.2797 -0.0622
  119MOL0     N15981   6.932   1.140   4.552 -0.5243 -0.4468  0.2679
  119MOL0     C15982   5.749   0.921   4.113  0.5055  0.2904 -0.8674
  119MOL0     C15983   5.643   0.831   4.098  0.1860  0.1012 -0.3905
  119MOL0     C15984   5.234   0.659   4.189 -0.1999  0.6382  0.9032
  119MOL0     C15985   5.249   0.534   4.124  0.0652 -0.4614 -0.2221
  119MOL0     C15986   5.136   0.456   4.101  0.5923 -0.1704 -0.0619
  119MOL0     C15987   5.006   0.489   4.146  0.6205 -0.0966  0.0680
  119MOL0     O15988   4.887   0.418   4.141 -0.4775  1.4257  0.0254
  119MOL0     C15989   4.881   0.283   4.087 -0.4841 -0.3478  0.6374
  119MOL0     C15990   4.966   0.174   4.159 -0.6735  0.2058 -0.7170
  119MOL0     C15991   4.893   0.035   4.154 -0.0104  0.0871  0.1016
  119MOL0     C15992   4.982  -0.080   4.193  0.0546 -0.0112 -0.0525
  119MOL0     C15993   5.012  -0.080   4.339  0.4560  0.5591 -1.0066
  119MOL0     C15994   5.033  -0.035   4.451  0.4337  2.1119 -0.1431
  119MOL0     C15995   4.992   0.616   4.201 -0.1258  0.0002 -0.6386
  119MOL0     C15996   5.107   0.690   4.229  1.0392 -0.0907  0.0266
  119MOL0     C15997   5.074   0.812   4.316 -0.2136  0.1468 -1.5879
  119MOL0     H15998   5.543   0.765   4.410 -0.4196 -0.0401 -0.2891
  119MOL0     H15999   5.739   0.922   4.457  1.3632 -3.7931  0.8716
  119MOL0     H16000   5.962   1.103   4.099  0.2307 -0.5249  0.1947
  119MOL0     H16001   5.814   1.197   4.164 -0.9861 -0.1895  1.4310
  119MOL0     H16002   5.983   1.309   4.308  0.8280 -0.5815  0.1737
  119MOL0     H16003   6.046   1.303   4.141 -0.7966  0.4200 -0.3515
  119MOL0     H16004   6.162   1.082   4.209  0.6126 -0.1327 -0.7135
  119MOL0     H16005   6.126   1.120   4.376  0.6605 -2.0079 -1.0146
  119MOL0     H16006   6.289   1.274   4.181 -0.0520 -1.3670 -0.2432
  119MOL0     H16007   6.242   1.347   4.343 -3.3290  2.0525 -4.2630
  119MOL0     H16008   6.369   1.151   4.455  0.1125 -0.6190 -0.9169
  119MOL0     H16009   6.414   1.091   4.299  1.8894 -0.4090  1.6726
  119MOL0     H16010   6.540   1.300   4.253  2.8243  2.6272  1.6107
  119MOL0     H16011   6.487   1.354   4.409 -3.4007 -1.4626  0.0919
  119MOL0     H16012   6.638   1.103   4.338  1.3681  0.2060 -1.3633
  119MOL0     H16013   6.611   1.162   4.502  0.0095 -0.5686  0.7906
  119MOL0     H16014   6.792   1.323   4.299 -1.9401  1.7313  0.3550
  119MOL0     H16015   6.771   1.345   4.468 -1.3530 -2.0533  2.5296
  119MOL0     H16016   6.904   1.045   4.240 -0.4520  5.3183 -0.1785
  119MOL0     H16017   7.128   0.822   4.475 -1.1999  2.6108  1.7641
  119MOL0     H16018   7.065   0.817   4.305 -2.7061  1.6635 -0.6314
  119MOL0     H16019   7.216   1.025   4.256  0.4232  0.9457  0.9470
  119MOL0     H16020   7.313   0.984   4.390 -1.5659  2.2874 -0.1300
  119MOL0     H16021   7.245   0.819   4.139  0.6445 -3.0724  1.2115
  119MOL0     H16022   7.323   0.742   4.288  0.6184 -1.3633 -1.4818
  119MOL0     H16023   7.499   0.938   4.235  1.7519 -2.0299  0.2968
  119MOL0     H16024   7.434   0.918   4.083 -1.7197  2.5033  0.8074
  119MOL0     H16025   7.693   0.956   4.228  0.3402  2.0179 -3.5266
  119MOL0     H16026   7.926   0.929   4.277 -0.9021  0.9498  0.0165
  119MOL0     H16027   8.325   0.486   4.071  3.3504 -3.0351  0.4892
  119MOL0     H16028   8.563   0.461   4.115 -3.2613  1.1321 -3.0300
  119MOL0     H16029   8.723   0.804   4.325 -2.6022 -0.5128  1.1893
  119MOL0     H16030   8.718   0.716   4.472  3.7540 -2.0992  0.2324
  119MOL0     H16031   8.945   0.741   4.276  1.1975 -1.2822  0.2053
  119MOL0     H16032   8.945   0.803   4.433 -2.2447  2.3136 -1.5879
  119MOL0     H16033   8.932   0.554   4.533 -0.2819  1.1471 -0.9907
  119MOL0     H16034   8.936   0.504   4.367  1.4980  2.0128 -2.7686
  119MOL0     H16035   9.150   0.656   4.532  3.1541 -0.5975 -0.0942
  119MOL0     H16036   9.166   0.669   4.364  0.4663  0.0714  1.2051
  119MOL0     H16037   9.199   0.441   4.325  0.6780  0.4317  0.8080
  119MOL0     H16038   9.143   0.386   4.475  0.4694  0.0364  1.1319
  119MOL0     H16039   9.390   0.548   4.405  0.2916 -1.8807 -1.6105
  119MOL0     H16040   9.344   0.535   4.574 -3.4328  1.7490 -0.6542
  119MOL0     H16041   9.395   0.296   4.389 -2.7783  1.0143 -0.5148
  119MOL0     H16042   9.365   0.288   4.565 -0.6655 -1.9845 -0.6227
  119MOL0     H16043   9.607   0.262   4.504 -1.0721 -0.5617  1.7299
  119MOL0     H16044   9.614   0.426   4.442  0.0689 -0.7189 -0.9381
  119MOL0     H16045   8.510   0.698   4.472  0.5612  0.4856 -0.6598
  119MOL0     H16046   8.267   0.695   4.432  1.6123  2.7430  0.1947
  119MOL0     H16047   7.924   0.540   4.108  0.2070 -0.6857  0.6804
  119MOL0     H16048   7.674   0.547   4.111  0.2565 -0.8743  1.4860
  119MOL0     H16049   5.801   0.962   4.027 -1.3056 -1.1263 -2.7505
  119MOL0     H16050   5.632   0.792   3.997  1.1203 -2.5055  0.4204
  119MOL0     H16051   5.338   0.491   4.078  0.9387 -4.1883  4.2349
  119MOL0     H16052   5.151   0.359   4.055  0.9610 -2.2170  3.9221
  119MOL0     H16053   4.908   0.294   3.981 -0.3029 -0.0980  0.7085
  119MOL0     H16054   4.778   0.245   4.082 -1.0897  1.1477  0.9098
  119MOL0     H16055   4.964   0.198   4.266 -2.3333 -0.5090 -0.5531
  119MOL0     H16056   5.069   0.178   4.124 -0.6725 -1.4865 -0.9740
  119MOL0     H16057   4.858   0.017   4.052  1.0728  2.5907 -0.7977
  119MOL0     H16058   4.804   0.044   4.216 -1.4680 -1.0280 -1.7223
  119MOL0     H16059   4.931  -0.176   4.179 -0.5481  0.0941  1.2188
  119MOL0     H16060   5.079  -0.084   4.143  1.0036  2.9734  1.3161
  119MOL0     H16061   5.063  -0.014   4.552 -0.3598 -1.1323  0.9089
  119MOL0     H16062   4.891   0.646   4.226 -0.1319 -2.0995  2.4565
  119MOL0     H16063   4.988   0.783   4.377  0.2342  1.2033 -0.4163
  119MOL0     H16064   5.155   0.849   4.379  0.2519  2.6152 -3.4909
  119MOL0     H16065   5.039   0.896   4.256  2.1750  0.2099 -2.9856
  120MOL0     O16066   3.751   3.924   7.410  1.0810 -0.1498  0.6947
  120MOL0     C16067   3.668   4.011   7.443 -0.4676  1.2677 -0.9944
  120MOL0     O16068   3.690   4.090   7.555 -0.1784 -0.1377  0.1593
  120MOL0     C16069   3.777   4.048   7.655  0.0573 -0.6902  0.4489
  120MOL0     C16070   3.830   4.148   7.736 -0.1040 -0.9511  0.0851
  120MOL0     C16071   3.892   4.117   7.852  0.2060 -0.1056 -0.1208
  120MOL0     C16072   3.917   3.988   7.889  0.9162 -0.3151  0.1199
  120MOL0     O16073   4.000   3.949   7.983 -0.2038 -0.3592 -0.1866
  120MOL0     C16074   4.012   4.023   8.106 -0.1177 -0.3129  0.1048
  120MOL0     C16075   4.124   3.998   8.212 -0.2980  0.7708 -0.0280
  120MOL0     C16076   4.275   3.981   8.159  0.4272 -0.5347 -0.3243
  120MOL0     C16077   4.367   3.920   8.269 -0.0051  0.4042 -1.3131
  120MOL0     C16078   4.513   3.933   8.237  0.3628 -0.6310 -0.2399
  120MOL0     C16079   4.557   3.825   8.128  1.2039 -0.1379 -0.1342
  120MOL0     C16080   4.714   3.794   8.135  0.2975 -0.8925 -0.0531
  120MOL0     C16081   4.794   3.917   8.177 -0.5836  0.4869  0.9414
  120MOL0     N16082   4.929   3.932   8.113  0.6534 -0.3537 -0.5764
  120MOL0     C16083   4.959   3.985   7.987 -0.2540  0.0387 -1.0388
  120MOL0     C16084   5.097   4.002   7.975  0.6878 -0.1256 -1.0349
  120MOL0     C16085   5.180   4.079   7.872 -0.8297  0.7918 -1.3732
  120MOL0     C16086   5.221   4.227   7.883 -0.6595  0.4093 -0.3357
  120MOL0     C16087   5.345   4.229   7.977  0.0630 -0.4886 -0.4832
  120MOL0     C16088   5.469   4.290   7.921 -0.4319  0.0517 -0.1817
  120MOL0     O16089   5.507   4.243   7.802  0.2037 -0.3562 -0.2904
  120MOL0     C16090   5.636   4.179   7.798  0.1307 -0.2388 -0.0864
  120MOL0     C16091   5.694   4.178   7.671  0.4314 -0.0668 -0.3735
  120MOL0     C16092   5.819   4.125   7.644 -0.4169  0.4884  0.2574
  120MOL0     C16093   5.889   4.055   7.749 -0.4293 -0.1989  0.5495
  120MOL0     C16094   6.014   3.979   7.719  0.2829  0.7002  0.1488
  120MOL0     O16095   6.060   3.976   7.584  0.2685  0.1804  0.3707
  120MOL0     C16096   6.148   3.877   7.547  0.8100 -0.1598 -0.3431
  120MOL0     C16097   6.267   3.879   7.604 -0.0284  0.1760 -0.9990
  120MOL0     C16098   6.366   3.790   7.567 -0.2555 -0.0370  0.6654
  120MOL0     C16099   6.345   3.705   7.459  0.7301 -1.2990  0.8369
  120MOL0     O16100   6.455   3.641   7.411 -0.7673  0.3254  0.1501
  120MOL0     C16101   6.441   3.495   7.443 -0.6434  0.0988 -0.2532
  120MOL0     C16102   6.541   3.400   7.370 -0.1983 -0.1831  0.2286
  120MOL0     C16103   6.523   3.256   7.414  0.0259 -0.4091 -0.0084
  120MOL0     C16104   6.617   3.162   7.330  0.9139 -0.8346  0.2308
  120MOL0     C16105   6.605   3.022   7.373 -0.1258  0.0490 -0.0557
  120MOL0     C16106   6.689   2.938   7.285  0.6787 -0.1884 -0.0492
  120MOL0     C16107   6.729   2.803   7.351  0.4121 -0.0441  0.5106
  120MOL0     C16108   6.795   2.707   7.260  0.9957  0.3091 -0.2156
  120MOL0    Cl16109   6.957   2.766   7.203  0.2067  0.0917 -0.0068
  120MOL0     C16110   6.219   3.705   7.385 -0.2618 -0.3576  0.3350
  120MOL0     C16111   6.127   3.799   7.430 -0.3507  0.4135  0.9474
  120MOL0     O16112   6.068   3.927   7.819 -0.5069 -0.4827  0.4259
  120MOL0     C16113   5.824   4.051   7.877  0.3986 -0.1979  0.0125
  120MOL0     C16114   5.701   4.112   7.906 -0.1312 -0.8968  0.6619
  120MOL0     N16115   5.145   3.951   8.101 -0.1641 -0.6581  0.5360
  120MOL0     N16116   5.051   3.917   8.179 -0.4575  0.6644  0.1207
  120MOL0     C16117   3.870   3.884   7.803 -0.4482  0.5186 -0.7251
  120MOL0     C16118   3.796   3.914   7.693 -0.5470  0.1712 -0.2257
  120MOL0     C16119   3.537   4.031   7.368 -0.3489  0.3489  0.3776
  120MOL0     C16120   3.505   3.930   7.281 -0.1564 -0.3482  0.0957
  120MOL0     C16121   3.388   3.930   7.205 -0.0597 -0.4708  0.8440
  120MOL0     C16122   3.302   4.046   7.207 -0.3057  0.8618  0.3937
  120MOL0     O16123   3.199   4.039   7.115 -0.7731 -0.4498  0.2857
  120MOL0     C16124   3.183   4.153   7.031 -0.1740 -0.5068 -0.2906
  120MOL0     C16125   3.044   4.152   6.982  0.5305 -0.0804  0.5491
  120MOL0     C16126   3.025   4.021   6.913  0.6408  0.1916  0.6528
  120MOL0     C16127   2.907   4.038   6.813 -0.1157  0.0573  0.2197
  120MOL0     C16128   2.864   3.921   6.730  0.2745 -0.6537  0.2175
  120MOL0     C16129   2.827   3.818   6.676  0.0168 -0.6407 -0.5538
  120MOL0     C16130   3.331   4.140   7.299 -0.1217 -0.6666  0.4811
  120MOL0     C16131   3.449   4.139   7.382  0.8396 -0.3606 -0.3622
  120MOL0     C16132   3.462   4.257   7.476  0.5916  0.0291 -0.7649
  120MOL0     H16133   3.834   4.251   7.701 -3.3537  0.0627  2.2945
  120MOL0     H16134   3.924   4.200   7.914 -2.7100  0.9137  0.2031
  120MOL0     H16135   4.006   4.131   8.089 -0.0305 -0.4395 -0.7613
  120MOL0     H16136   3.925   4.010   8.172  2.8427  1.6309  4.9411
  120MOL0     H16137   4.093   3.907   8.266 -2.1734  0.6613 -1.1916
  120MOL0     H16138   4.117   4.080   8.284 -0.9085  2.6428 -2.1430
  120MOL0     H16139   4.318   4.079   8.137  0.6443 -1.0231 -2.2284
  120MOL0     H16140   4.289   3.916   8.072 -0.4323  1.0604 -1.7092
  120MOL0     H16141   4.359   3.975   8.363 -0.0758 -2.7694  0.7055
  120MOL0     H16142   4.348   3.815   8.292 -0.3653  1.0131  1.5813
  120MOL0     H16143   4.527   4.038   8.211  0.1977 -0.6466 -0.3887
  120MOL0     H16144   4.570   3.922   8.330  0.8251  1.3918 -0.2553
  120MOL0     H16145   4.489   3.739   8.124 -2.3149  2.4885 -2.1823
  120MOL0     H16146   4.544   3.869   8.029 -4.2026 -1.6258 -0.4369
  120MOL0     H16147   4.741   3.751   8.039 -2.4313 -0.3488 -1.1519
  120MOL0     H16148   4.744   3.723   8.214  0.4416  0.1321  0.8408
  120MOL0     H16149   4.740   4.009   8.154 -0.0138  1.0625  1.8339
  120MOL0     H16150   4.807   3.902   8.285 -1.8463  3.1445  1.5294
  120MOL0     H16151   4.876   4.013   7.923  0.1212  2.3463 -0.5991
  120MOL0     H16152   5.264   4.011   7.858 -1.7477 -0.3518 -1.4219
  120MOL0     H16153   5.117   4.082   7.782 -4.8710  3.1089  1.1856
  120MOL0     H16154   5.249   4.267   7.785  0.7280  2.2491  0.7327
  120MOL0     H16155   5.138   4.282   7.929  1.6285  0.0076  5.0809
  120MOL0     H16156   5.368   4.131   8.017 -0.0047  0.2866  1.5665
  120MOL0     H16157   5.323   4.290   8.065  1.9637 -1.9439  1.0960
  120MOL0     H16158   5.553   4.288   7.990 -0.9594  1.1914  0.5281
  120MOL0     H16159   5.442   4.394   7.900  0.2406  0.2522 -0.0577
  120MOL0     H16160   5.635   4.207   7.585 -0.0120 -0.9238 -0.3686
  120MOL0     H16161   5.857   4.127   7.543  1.6311 -2.3318  0.8396
  120MOL0     H16162   6.290   3.951   7.681 -3.8194  0.1158  0.4318
  120MOL0     H16163   6.467   3.781   7.606 -0.1222 -1.9310  0.0179
  120MOL0     H16164   6.459   3.484   7.550  3.1861  0.0151 -0.7792
  120MOL0     H16165   6.338   3.458   7.433 -0.2185 -1.1116 -0.3177
  120MOL0     H16166   6.517   3.395   7.264 -0.1943  1.7223  0.1032
  120MOL0     H16167   6.646   3.430   7.379  0.6952 -2.0226 -2.6167
  120MOL0     H16168   6.554   3.240   7.518  1.3261  0.1042 -0.2877
  120MOL0     H16169   6.418   3.230   7.402  0.1598 -1.2883  0.6042
  120MOL0     H16170   6.722   3.191   7.335  0.2680  2.0409 -0.8671
  120MOL0     H16171   6.596   3.176   7.224  2.3075 -1.1727 -0.1124
  120MOL0     H16172   6.503   2.981   7.381 -0.7366  1.4305 -0.5774
  120MOL0     H16173   6.641   3.006   7.475  0.3877 -1.6223 -0.4570
  120MOL0     H16174   6.620   2.916   7.203  0.7509 -0.7289  0.0366
  120MOL0     H16175   6.775   2.991   7.241 -1.9950  1.6306 -3.5401
  120MOL0     H16176   6.635   2.760   7.388 -0.7196  2.4241  0.7106
  120MOL0     H16177   6.791   2.813   7.441  0.2306 -0.0729  0.6408
  120MOL0     H16178   6.803   2.613   7.317 -0.0478  0.6730  0.5611
  120MOL0     H16179   6.722   2.686   7.182 -2.5409  0.0159  2.8799
  120MOL0     H16180   6.206   3.633   7.305 -0.9391  1.1190 -0.9332
  120MOL0     H16181   6.044   3.812   7.361  1.6261 -0.4391 -1.8090
  120MOL0     H16182   5.859   4.011   7.971 -0.5085  1.5469  1.1593
  120MOL0     H16183   5.662   4.106   8.007 -0.1959 -2.1494  0.5798
  120MOL0     H16184   3.895   3.780   7.822 -0.4398  0.7224  0.4483
  120MOL0     H16185   3.762   3.834   7.629  1.9832 -1.2679  0.1116
  120MOL0     H16186   3.570   3.851   7.247 -0.9244  0.3430 -3.4043
  120MOL0     H16187   3.359   3.854   7.134 -2.1194  0.6349  0.4210
  120MOL0     H16188   3.257   4.149   6.950  2.5107 -0.7378  2.0110
  120MOL0     H16189   3.202   4.240   7.094 -0.6661 -1.5316  1.3296
  120MOL0     H16190   3.025   4.241   6.922  0.3558 -2.0360 -2.5163
  120MOL0     H16191   2.976   4.164   7.067 -2.6968  0.6862 -1.9464
  120MOL0     H16192   3.001   3.939   6.981 -1.1174  2.3871  2.8728
  120MOL0     H16193   3.114   4.015   6.850  1.8254  3.9058  1.7156
  120MOL0     H16194   2.823   4.089   6.860 -0.0650 -1.0228  1.5418
  120MOL0     H16195   2.937   4.097   6.725  3.1804 -2.5717 -0.6177
  120MOL0     H16196   2.785   3.727   6.638  0.6663 -1.7994  1.3522
  120MOL0     H16197   3.260   4.222   7.297  0.6369  0.0086 -0.0453
  120MOL0     H16198   3.432   4.225   7.577 -1.2194  2.8187 -0.3228
  120MOL0     H16199   3.563   4.299   7.481  0.7678 -0.2695 -1.6747
  120MOL0     H16200   3.400   4.338   7.438 -1.6606 -1.9986 -1.6389
  121MOL0     O16201   1.607   2.757   9.046  0.9265 -0.5665 -0.2586
  121MOL0     C16202   1.538   2.858   9.007  0.4887  0.4852  0.0139
  121MOL0     O16203   1.521   2.973   9.076 -0.7933 -0.2294  0.1789
  121MOL0     C16204   1.587   3.012   9.190 -0.0297 -1.1220 -0.6135
  121MOL0     C16205   1.518   3.095   9.274 -0.2035  0.1162 -0.2121
  121MOL0     C16206   1.576   3.140   9.391 -1.1106 -0.6023 -0.2045
  121MOL0     C16207   1.708   3.123   9.426 -0.1394 -0.0918 -0.1611
  121MOL0     O16208   1.746   3.177   9.542  0.4568  0.5813 -0.1061
  121MOL0     C16209   1.889   3.181   9.549 -0.3126  0.0624  0.5590
  121MOL0     C16210   1.926   3.248   9.688 -0.5026  0.0690  0.3944
  121MOL0     C16211   1.911   3.142   9.805  0.3269  0.0650  0.5776
  121MOL0     C16212   1.996   3.190   9.929  0.4470 -0.9424  0.4106
  121MOL0     C16213   1.979   3.104  10.058  0.4497 -0.3178 -0.4911
  121MOL0     C16214   2.021   2.961  10.054  0.5836 -0.4540  1.1156
  121MOL0     C16215   2.170   2.936  10.055 -0.0575  0.9759 -0.1271
  121MOL0     C16216   2.235   2.975  10.186  0.1503  0.1423  0.2729
  121MOL0     N16217   2.377   2.959  10.173  0.0569 -0.9325  0.9393
  121MOL0     C16218   2.461   2.898  10.262  0.5244 -0.3381 -0.5726
  121MOL0     C16219   2.590   2.914  10.226 -0.3386  0.1650  0.4382
  121MOL0     C16220   2.707   2.865  10.294 -0.2963 -0.7235 -0.0349
  121MOL0     C16221   2.725   2.712  10.280  0.0141  0.3465 -0.0131
  121MOL0     C16222   2.780   2.668  10.144  0.5623  0.1205  0.2229
  121MOL0     C16223   2.805   2.522  10.138  0.4543 -0.2815  0.8357
  121MOL0     O16224   2.943   2.501  10.167 -0.4624 -0.2095 -0.0560
  121MOL0     C16225   3.035   2.515  10.058  0.1470 -0.3808 -0.0208
  121MOL0     C16226   3.168   2.500  10.078 -1.4397  0.2742 -0.2301
  121MOL0     C16227   3.257   2.500   9.974 -0.0081 -0.0348 -0.7291
  121MOL0     C16228   3.230   2.512   9.845  0.6044 -0.0867 -0.1798
  121MOL0     C16229   3.328   2.524   9.742 -0.1801  1.4026  0.7534
  121MOL0     O16230   3.462   2.512   9.775  0.6691  0.1906 -0.3639
  121MOL0     C16231   3.554   2.571   9.691 -0.3392  0.5678  0.5961
  121MOL0     C16232   3.526   2.674   9.595  0.0276  0.2946 -0.6158
  121MOL0     C16233   3.631   2.718   9.507  0.6876 -0.4970  0.5029
  121MOL0     C16234   3.756   2.664   9.514 -0.2767  0.9239  0.0585
  121MOL0     O16235   3.859   2.713   9.431  0.6601  0.2932  0.0368
  121MOL0     C16236   3.991   2.705   9.483 -0.0977  0.3555  0.4066
  121MOL0     C16237   4.076   2.807   9.400 -0.9077 -0.2196  0.0289
  121MOL0     C16238   4.210   2.825   9.458  0.6980 -0.1516  0.2422
  121MOL0     C16239   4.318   2.735   9.399 -0.4281 -0.1873 -0.3028
  121MOL0     C16240   4.455   2.747   9.475 -0.8638 -0.1304 -0.8334
  121MOL0     C16241   4.567   2.672   9.407  1.0656 -0.1825  0.3644
  121MOL0     C16242   4.638   2.746   9.279 -0.1273  0.1704  0.6972
  121MOL0     C16243   4.750   2.668   9.210  0.3211 -0.4812 -0.1924
  121MOL0    Cl16244   4.676   2.523   9.139  0.1339 -0.2070  0.2502
  121MOL0     C16245   3.783   2.558   9.610  0.9017 -0.3407 -0.1384
  121MOL0     C16246   3.682   2.518   9.702 -0.3724  0.7849  0.2833
  121MOL0     O16247   3.287   2.523   9.627 -0.0517  0.3159 -0.2546
  121MOL0     C16248   3.099   2.541   9.821  0.2537 -0.7191  0.1164
  121MOL0     C16249   3.001   2.547   9.926  0.0362  0.7579 -0.3451
  121MOL0     N16250   2.587   2.994  10.112  0.0752  0.1030 -0.2314
  121MOL0     N16251   2.462   3.018  10.083  0.0868  0.5812  0.3557
  121MOL0     C16252   1.782   3.042   9.337 -0.3599  0.5389 -0.0165
  121MOL0     C16253   1.723   2.979   9.226 -0.3580 -0.2235  0.1975
  121MOL0     C16254   1.469   2.838   8.877 -0.4859  0.1687 -0.8043
  121MOL0     C16255   1.379   2.938   8.841 -0.6091 -0.9343  0.4192
  121MOL0     C16256   1.307   2.922   8.725  0.4979 -0.0066  0.0803
  121MOL0     C16257   1.322   2.812   8.642 -0.3148 -0.0626 -0.4574
  121MOL0     O16258   1.273   2.797   8.514 -0.3789  0.7074 -0.4029
  121MOL0     C16259   1.176   2.895   8.466 -0.3130  0.4132  0.0413
  121MOL0     C16260   1.244   3.032   8.426  0.5975 -0.4182  0.0058
  121MOL0     C16261   1.284   3.026   8.278  0.1199  0.1207 -0.2919
  121MOL0     C16262   1.274   3.158   8.214 -0.3376 -0.0329  0.4053
  121MOL0     C16263   1.356   3.261   8.272 -0.5029  1.2059  0.4021
  121MOL0     C16264   1.412   3.350   8.329 -0.1665 -0.0500 -0.0170
  121MOL0     C16265   1.416   2.713   8.677 -0.7316  0.2545  0.3290
  121MOL0     C16266   1.483   2.723   8.794 -0.6772 -0.5188  0.2041
  121MOL0     C16267   1.575   2.591   8.824  0.0311 -0.4177 -0.3316
  121MOL0     H16268   1.413   3.114   9.255 -0.3336 -0.0582  0.3295
  121MOL0     H16269   1.529   3.211   9.457  0.4328 -0.8984  1.2824
  121MOL0     H16270   1.921   3.076   9.553 -1.5243 -0.2954  1.6895
  121MOL0     H16271   1.939   3.226   9.463  0.9317 -1.6141  0.3383
  121MOL0     H16272   1.870   3.341   9.702  1.7061  1.2613  1.9128
  121MOL0     H16273   2.031   3.278   9.678 -0.2075 -1.3414 -1.1365
  121MOL0     H16274   1.943   3.042   9.773  0.8965  0.4170  0.0060
  121MOL0     H16275   1.807   3.121   9.830  0.0465 -1.5271 -1.6014
  121MOL0     H16276   2.098   3.208   9.896  0.0952  1.7072  0.5469
  121MOL0     H16277   1.961   3.288   9.963 -0.1588 -0.2793 -1.9679
  121MOL0     H16278   2.018   3.158  10.145 -0.9810  0.0007 -0.0252
  121MOL0     H16279   1.872   3.111  10.076  0.5481  4.3384 -0.4287
  121MOL0     H16280   1.989   2.913  10.146 -0.6236  1.4479  1.7372
  121MOL0     H16281   1.985   2.914   9.962  0.8776 -1.0087  1.2779
  121MOL0     H16282   2.221   3.000   9.982 -1.4869  3.0148  0.5477
  121MOL0     H16283   2.175   2.829  10.033 -3.7666  1.1045 -2.5059
  121MOL0     H16284   2.210   3.082  10.187  1.5005  0.4716  0.4413
  121MOL0     H16285   2.187   2.918  10.266 -0.6901  0.0045 -0.3199
  121MOL0     H16286   2.416   2.843  10.345  2.3101  0.2036  0.8218
  121MOL0     H16287   2.797   2.902  10.244  1.3006 -2.3280  1.4895
  121MOL0     H16288   2.705   2.887  10.402 -1.3667  0.3580 -0.2538
  121MOL0     H16289   2.802   2.684  10.352  0.7812  1.9552 -0.1760
  121MOL0     H16290   2.626   2.668  10.295 -1.3959  1.9289 -3.5304
  121MOL0     H16291   2.863   2.725  10.102 -1.6012  0.7388 -3.6390
  121MOL0     H16292   2.693   2.679  10.078 -0.7017 -1.3992  1.5540
  121MOL0     H16293   2.779   2.479  10.041 -2.1549 -0.5766  1.5706
  121MOL0     H16294   2.741   2.462  10.203  3.5330 -2.8676  1.7400
  121MOL0     H16295   3.213   2.492  10.177  1.0816 -1.8910 -1.4461
  121MOL0     H16296   3.365   2.495   9.982 -0.0963  0.3624  1.2175
  121MOL0     H16297   3.427   2.714   9.581  0.1614  0.7973 -0.1316
  121MOL0     H16298   3.624   2.807   9.445  4.4969 -0.5694 -0.2712
  121MOL0     H16299   4.003   2.749   9.583  0.0707  3.4498 -0.8485
  121MOL0     H16300   4.029   2.603   9.482 -1.3793 -0.1755  2.0647
  121MOL0     H16301   4.080   2.784   9.293  0.8952  2.0333 -0.4902
  121MOL0     H16302   4.031   2.907   9.400 -0.3464  0.0703  2.1220
  121MOL0     H16303   4.240   2.929   9.439  1.2821 -0.2658  0.5170
  121MOL0     H16304   4.201   2.825   9.567 -1.3908 -0.0175  0.1057
  121MOL0     H16305   4.332   2.769   9.296 -1.6268  1.6733  0.0928
  121MOL0     H16306   4.290   2.630   9.396  0.8840 -0.5401 -0.6270
  121MOL0     H16307   4.433   2.689   9.565 -4.5595  2.4222  0.1329
  121MOL0     H16308   4.482   2.850   9.498  1.3282  0.0308 -3.6070
  121MOL0     H16309   4.641   2.652   9.486 -1.7818 -0.8223  3.0725
  121MOL0     H16310   4.525   2.577   9.374 -0.8275  0.7813 -0.1607
  121MOL0     H16311   4.680   2.844   9.304  0.4686  0.5301 -1.5270
  121MOL0     H16312   4.564   2.776   9.204  0.6242 -2.6781 -1.3194
  121MOL0     H16313   4.787   2.728   9.125  3.5917 -0.7734  0.8609
  121MOL0     H16314   4.830   2.650   9.283 -1.5789 -0.2092  2.0616
  121MOL0     H16315   3.867   2.490   9.619  0.4261 -0.6231  3.4849
  121MOL0     H16316   3.703   2.452   9.786  2.5356  1.7303  0.4145
  121MOL0     H16317   3.052   2.567   9.727  0.9781 -0.3612 -0.1585
  121MOL0     H16318   2.901   2.579   9.899 -0.1060 -1.2144 -2.4474
  121MOL0     H16319   1.887   3.017   9.354 -0.5687  0.0146  0.5173
  121MOL0     H16320   1.778   2.906   9.167  3.8814  0.9093  2.3477
  121MOL0     H16321   1.365   3.029   8.898 -2.2829 -1.6517  1.2159
  121MOL0     H16322   1.237   3.000   8.698  0.7916  0.1810 -0.1424
  121MOL0     H16323   1.100   2.905   8.544  0.4991 -0.1261  0.9325
  121MOL0     H16324   1.125   2.854   8.379  0.1450  0.8683 -0.4521
  121MOL0     H16325   1.338   3.051   8.478  0.0945  2.1378  0.1021
  121MOL0     H16326   1.171   3.113   8.436 -1.5602 -2.0074 -1.7148
  121MOL0     H16327   1.215   2.955   8.231 -1.2291 -1.4239  3.6034
  121MOL0     H16328   1.381   2.976   8.284 -0.5105 -0.9182  2.3182
  121MOL0     H16329   1.300   3.143   8.109 -3.0213 -4.4184  0.0934
  121MOL0     H16330   1.173   3.198   8.230  0.4025  1.5403  1.4412
  121MOL0     H16331   1.457   3.427   8.387  0.3716  0.2136 -0.7626
  121MOL0     H16332   1.434   2.620   8.624  1.4772  0.3995  0.7291
  121MOL0     H16333   1.674   2.599   8.870  0.6074 -1.1505 -1.4047
  121MOL0     H16334   1.514   2.525   8.887 -0.0855 -0.9080 -0.9417
  121MOL0     H16335   1.590   2.530   8.734 -0.0188  0.2462 -0.7954
  122MOL0     O16336   7.896   1.588  10.527  0.1279  0.2201 -0.7704
  122MOL0     C16337   7.886   1.704  10.571 -0.1301 -0.1766 -0.4775
  122MOL0     O16338   7.983   1.776  10.634  0.2928 -0.8587  0.1758
  122MOL0     C16339   8.108   1.727  10.646 -0.1777  0.1078  0.1741
  122MOL0     C16340   8.155   1.682  10.770 -0.0470 -0.7998 -0.0596
  122MOL0     C16341   8.294   1.644  10.787  0.2328 -1.2847  0.2463
  122MOL0     C16342   8.387   1.654  10.681  0.4360 -0.1532 -0.2330
  122MOL0     O16343   8.515   1.607  10.701  0.0686  0.2897  0.2253
  122MOL0     C16344   8.624   1.671  10.618  0.0451 -0.2030 -0.0454
  122MOL0     C16345   8.740   1.653  10.717 -0.7383 -0.6869  0.5490
  122MOL0     C16346   8.835   1.534  10.681  0.0666  0.7998 -0.0276
  122MOL0     C16347   8.757   1.412  10.715 -1.0264 -0.0522  0.3769
  122MOL0     C16348   8.836   1.282  10.696  0.2278  0.7743 -0.1190
  122MOL0     C16349   8.975   1.270  10.760 -0.0536  0.6845 -1.2524
  122MOL0     C16350   9.047   1.133  10.762  0.0174  0.1736  0.3832
  122MOL0     C16351   9.050   1.066  10.622  0.5197 -0.6073  0.1575
  122MOL0     N16352   9.136   1.145  10.537 -0.6910 -0.2632  0.7499
  122MOL0     C16353   9.270   1.137  10.539  0.8623  0.8120 -0.7017
  122MOL0     C16354   9.317   1.216  10.441  0.0734  0.1673 -0.0472
  122MOL0     C16355   9.463   1.239  10.395 -0.3718  1.2711  0.1329
  122MOL0     C16356   9.563   1.232  10.514 -0.2017  1.2980  0.7425
  122MOL0     C16357   9.709   1.219  10.467 -0.0126  0.4142 -0.6019
  122MOL0     C16358   9.808   1.312  10.536  0.1187  0.2119 -0.0349
  122MOL0     O16359   9.818   1.261  10.670 -0.0509 -0.5497  0.1845
  122MOL0     C16360   9.906   1.167  10.708  0.0850 -0.4679  0.4783
  122MOL0     C16361   9.983   1.098  10.618 -0.1968 -0.1934 -0.3712
  122MOL0     C16362  10.080   1.013  10.662 -0.5554  0.6844 -0.0780
  122MOL0     C16363  10.089   0.980  10.798 -0.5717  0.6974 -0.2143
  122MOL0     C16364  10.190   0.885  10.838  0.3148 -0.0363 -0.5886
  122MOL0     O16365  10.276   0.840  10.741 -0.0300 -0.1684  0.1378
  122MOL0     C16366  10.368   0.740  10.770 -0.2213  0.3849  0.2080
  122MOL0     C16367  10.334   0.618  10.822  0.0620  1.4227  0.2190
  122MOL0     C16368  10.435   0.521  10.851  0.2838 -0.3313  0.7883
  122MOL0     C16369  10.570   0.547  10.832 -0.0119  0.1232  0.3437
  122MOL0     O16370  10.668   0.455  10.873  0.0227 -0.2657  0.2542
  122MOL0     C16371  10.801   0.494  10.837 -0.6542  0.6713  0.1827
  122MOL0     C16372  10.902   0.386  10.905 -0.0306  0.4278  0.1561
  122MOL0     C16373  11.020   0.448  10.975 -0.0937  0.1165  0.5974
  122MOL0     C16374  11.122   0.356  11.044  0.7582  0.4458  0.2221
  122MOL0     C16375  11.234   0.438  11.117 -0.0924 -0.3223  0.8061
  122MOL0     C16376  11.363   0.372  11.164  0.1339  0.0966  0.2427
  122MOL0     C16377  11.333   0.247  11.242 -0.1513  0.7395 -0.3219
  122MOL0     C16378  11.471   0.213  11.318  0.1863  0.8188  0.4540
  122MOL0    Cl16379  11.613   0.221  11.205  0.2137 -0.4409 -0.1560
  122MOL0     C16380  10.596   0.676  10.771  0.3259 -0.8418 -0.4680
  122MOL0     C16381  10.495   0.769  10.741 -0.2293  0.0486 -0.2463
  122MOL0     O16382  10.200   0.851  10.957 -0.4391 -0.7336  0.2942
  122MOL0     C16383   9.998   1.042  10.886 -0.1905  0.6050 -0.1870
  122MOL0     C16384   9.904   1.129  10.839  0.2200 -0.2651  0.4362
  122MOL0     N16385   9.209   1.272  10.378  0.0414 -0.4732 -0.5363
  122MOL0     N16386   9.098   1.230  10.436 -0.0739 -0.1069  0.0661
  122MOL0     C16387   8.339   1.698  10.556  0.2595 -0.2424 -0.7819
  122MOL0     C16388   8.203   1.736  10.542 -0.4677 -0.0347 -0.1156
  122MOL0     C16389   7.755   1.774  10.562 -0.8500 -0.0577  0.8247
  122MOL0     C16390   7.756   1.919  10.569 -0.1990  0.1476 -0.1487
  122MOL0     C16391   7.641   1.991  10.559 -0.4511 -0.8205  1.0812
  122MOL0     C16392   7.519   1.926  10.534 -0.4598  0.5940  0.2585
  122MOL0     O16393   7.411   2.012  10.551 -0.5559 -0.9084 -0.1605
  122MOL0     C16394   7.277   1.971  10.518 -0.2316  0.6281 -0.2688
  122MOL0     C16395   7.186   2.083  10.582  0.9412  0.2171 -0.3507
  122MOL0     C16396   7.040   2.051  10.587 -0.0097  0.2927  0.2320
  122MOL0     C16397   6.950   2.121  10.691  0.1324  0.3338 -0.1898
  122MOL0     C16398   6.813   2.088  10.673  0.1228  0.2453 -0.5932
  122MOL0     C16399   6.694   2.058  10.672  0.6100  0.3474 -0.0907
  122MOL0     C16400   7.506   1.793  10.523  0.4697 -0.2763 -0.8163
  122MOL0     C16401   7.629   1.716  10.528 -0.3057  0.2885  0.5867
  122MOL0     C16402   7.606   1.573  10.500 -0.0804 -0.6074  0.6090
  122MOL0     H16403   8.089   1.681  10.856  1.3089  0.0894  1.0186
  122MOL0     H16404   8.333   1.613  10.884 -1.8988  0.0793  1.6304
  122MOL0     H16405   8.635   1.631  10.517 -0.7360 -0.0202 -0.2071
  122MOL0     H16406   8.600   1.778  10.613  1.1752  0.1054  0.5905
  122MOL0     H16407   8.710   1.646  10.822 -0.5376 -1.3257  0.5675
  122MOL0     H16408   8.797   1.745  10.701  0.5896 -1.5626  0.0734
  122MOL0     H16409   8.933   1.532  10.730  3.0381 -4.6584 -4.9321
  122MOL0     H16410   8.865   1.524  10.576 -0.4863 -4.3449  0.0555
  122MOL0     H16411   8.724   1.431  10.818  0.6941  3.5618  0.4376
  122MOL0     H16412   8.672   1.403  10.648 -0.3131 -1.8008 -0.3472
  122MOL0     H16413   8.773   1.204  10.739 -0.3040 -0.3967 -2.8250
  122MOL0     H16414   8.846   1.274  10.587 -0.5477  2.1023 -0.3037
  122MOL0     H16415   9.041   1.346  10.718  0.5142 -0.8742 -3.2923
  122MOL0     H16416   8.974   1.293  10.867  1.7134  0.6912 -1.2142
  122MOL0     H16417   8.985   1.066  10.823 -0.5451 -1.7044 -2.0761
  122MOL0     H16418   9.147   1.141  10.804  0.8407 -2.4538 -0.8839
  122MOL0     H16419   9.102   0.971  10.634  0.2551 -0.8414 -0.5116
  122MOL0     H16420   8.948   1.059  10.582 -1.0587  0.1146  3.6686
  122MOL0     H16421   9.331   1.087  10.614 -2.4325 -0.0139  1.6503
  122MOL0     H16422   9.498   1.168  10.320 -0.0915 -0.9621  2.2563
  122MOL0     H16423   9.472   1.335  10.343 -0.6755  0.6687 -1.0724
  122MOL0     H16424   9.537   1.303  10.594 -3.2183 -0.2819  1.3242
  122MOL0     H16425   9.545   1.140  10.570  1.6900  1.2868  1.4052
  122MOL0     H16426   9.711   1.237  10.359  0.0847 -0.6351 -0.7900
  122MOL0     H16427   9.734   1.113  10.483  0.2304  0.5054 -0.3743
  122MOL0     H16428   9.771   1.415  10.542 -1.6725 -0.4967  2.8809
  122MOL0     H16429   9.903   1.316  10.481 -1.1662  3.1050 -2.3772
  122MOL0     H16430   9.997   1.119  10.512 -0.1022 -0.5575 -0.4320
  122MOL0     H16431  10.153   0.965  10.598 -0.8418  1.1950 -0.7973
  122MOL0     H16432  10.237   0.594  10.864  0.6874 -2.6235 -0.2295
  122MOL0     H16433  10.402   0.424  10.888 -0.1443 -0.8477 -0.8098
  122MOL0     H16434  10.814   0.492  10.728  2.2002 -0.0859  0.4649
  122MOL0     H16435  10.827   0.594  10.874  3.0363 -0.1511  0.2150
  122MOL0     H16436  10.851   0.324  10.980 -1.7762  1.1552 -0.3754
  122MOL0     H16437  10.949   0.330  10.823  1.1918  0.7780  0.5971
  122MOL0     H16438  11.078   0.506  10.902 -1.4586  0.5985 -0.1424
  122MOL0     H16439  10.979   0.523  11.045 -1.1019 -1.3329  1.6234
  122MOL0     H16440  11.164   0.295  10.963 -1.3804 -1.3375  0.3641
  122MOL0     H16441  11.071   0.292  11.116 -2.6925  1.0474 -1.4498
  122MOL0     H16442  11.178   0.491  11.195 -0.2268  1.5706 -0.4961
  122MOL0     H16443  11.258   0.515  11.043 -1.8717 -2.1266 -1.8282
  122MOL0     H16444  11.422   0.336  11.079 -0.7056 -0.5403 -0.0813
  122MOL0     H16445  11.422   0.444  11.221  0.7569  0.7204 -1.1449
  122MOL0     H16446  11.294   0.173  11.172  1.0494 -0.7649  0.5154
  122MOL0     H16447  11.261   0.257  11.324  1.5204 -2.8618  1.8561
  122MOL0     H16448  11.476   0.277  11.407  2.5668  0.1544  0.8624
  122MOL0     H16449  11.460   0.115  11.364  0.2901  0.5638 -0.0627
  122MOL0     H16450  10.695   0.716  10.753  0.5231 -0.3063  1.4982
  122MOL0     H16451  10.518   0.868  10.704 -0.7513  0.3148  0.1278
  122MOL0     H16452  10.002   1.023  10.992  1.8143  0.8336 -0.1910
  122MOL0     H16453   9.829   1.179  10.900  0.3725  0.7112 -0.1500
  122MOL0     H16454   8.408   1.706  10.472  0.7654 -0.3683 -0.3817
  122MOL0     H16455   8.176   1.754  10.438 -2.8021  0.3090  0.5039
  122MOL0     H16456   7.852   1.969  10.579  0.2526 -0.7743  0.2662
  122MOL0     H16457   7.639   2.098  10.580  1.6331 -0.5578  0.1899
  122MOL0     H16458   7.247   1.871  10.551  0.3661  0.7032  0.5402
  122MOL0     H16459   7.263   1.973  10.410 -1.2116 -1.7981 -0.2371
  122MOL0     H16460   7.204   2.179  10.533  0.1383  1.4666  1.6723
  122MOL0     H16461   7.209   2.101  10.688  0.2664  3.0753 -0.6021
  122MOL0     H16462   7.022   1.944  10.577  1.8431  0.0875 -1.3053
  122MOL0     H16463   6.995   2.084  10.493  0.8404  0.1871 -0.2135
  122MOL0     H16464   6.978   2.074  10.786 -2.4350 -0.6290  0.1832
  122MOL0     H16465   6.972   2.228  10.688  3.0966 -0.2039 -0.4025
  122MOL0     H16466   6.593   2.022  10.663  1.7324 -3.0399 -0.6040
  122MOL0     H16467   7.411   1.741  10.515 -0.2336  0.7932  0.3537
  122MOL0     H16468   7.501   1.548  10.485 -0.1239 -1.1880  1.7910
  122MOL0     H16469   7.651   1.552  10.402 -4.4342  0.9876 -2.0394
  122MOL0     H16470   7.648   1.504  10.573 -1.0066 -0.3408  1.4158
  123MOL0     O16471   5.283   8.620   8.498 -0.2229  0.5080  0.6321
  123MOL0     C16472   5.303   8.583   8.381 -0.0761  0.0766 -0.2346
  123MOL0     O16473   5.398   8.631   8.293  0.9029  0.0583  0.0703
  123MOL0     C16474   5.483   8.733   8.323  0.6869  0.8043 -0.5201
  123MOL0     C16475   5.555   8.735   8.449 -0.1212 -0.1259  1.0176
  123MOL0     C16476   5.666   8.817   8.467 -0.6025 -0.2063  0.2889
  123MOL0     C16477   5.705   8.902   8.363 -0.2605  1.1242 -0.0005
  123MOL0     O16478   5.809   8.993   8.390  0.1977  0.7016  0.0686
  123MOL0     C16479   5.837   9.023   8.526  0.3273 -0.1045  0.1930
  123MOL0     C16480   5.730   9.095   8.596  0.3634 -0.3254  0.4188
  123MOL0     C16481   5.773   9.179   8.718  0.5355 -0.9517 -0.8159
  123MOL0     C16482   5.661   9.178   8.825 -0.0939 -0.1984 -0.2534
  123MOL0     C16483   5.709   9.198   8.969 -0.0207  0.2900  0.6184
  123MOL0     C16484   5.584   9.211   9.054 -0.1179  0.6123 -0.4938
  123MOL0     C16485   5.601   9.133   9.189 -0.0144 -0.1447  0.8282
  123MOL0     C16486   5.457   9.114   9.240 -0.1175  0.9561  0.1761
  123MOL0     N16487   5.454   9.053   9.373 -0.4836 -0.4375 -0.1904
  123MOL0     C16488   5.472   9.121   9.493 -0.6027 -0.5883 -0.2039
  123MOL0     C16489   5.484   9.020   9.582 -0.1455 -0.5621 -0.0451
  123MOL0     C16490   5.506   9.048   9.727 -0.0387  0.1757  0.6256
  123MOL0     C16491   5.640   8.990   9.762  0.0437  0.6712  0.0591
  123MOL0     C16492   5.761   9.055   9.685  0.1238 -0.7945  1.0067
  123MOL0     C16493   5.890   8.976   9.697 -1.0173  0.2230  0.1527
  123MOL0     O16494   5.948   8.956   9.831 -0.1405  0.1363 -0.8806
  123MOL0     C16495   6.076   8.910   9.842 -0.2414  0.2653  0.3363
  123MOL0     C16496   6.127   8.909   9.971  0.0191 -0.0746 -0.5333
  123MOL0     C16497   6.261   8.882   9.998  0.5815 -0.8352 -0.5638
  123MOL0     C16498   6.349   8.833   9.902 -0.1453  0.6953  0.7374
  123MOL0     C16499   6.486   8.791   9.935 -0.5842  1.1938  0.0777
  123MOL0     O16500   6.559   8.755   9.829 -0.4672  0.3620  0.7763
  123MOL0     C16501   6.689   8.705   9.837 -0.5379  0.5440  0.3067
  123MOL0     C16502   6.749   8.635   9.945  1.0988 -0.0169  0.6241
  123MOL0     C16503   6.880   8.598   9.930  0.2556 -1.0747  0.2727
  123MOL0     C16504   6.948   8.609   9.811  0.1433 -0.0129  0.0666
  123MOL0     O16505   7.085   8.585   9.811 -0.1016  0.3136  0.4721
  123MOL0     C16506   7.130   8.509   9.699 -0.5188 -1.1892  0.9023
  123MOL0     C16507   7.264   8.444   9.727  0.0734  0.3348  1.0920
  123MOL0     C16508   7.372   8.548   9.751 -0.0346 -0.1921 -0.5260
  123MOL0     C16509   7.496   8.478   9.809 -0.0223 -0.1755  0.3704
  123MOL0     C16510   7.600   8.586   9.826  0.3002 -0.7675 -0.2412
  123MOL0     C16511   7.728   8.524   9.880  0.7393 -0.2692 -0.7806
  123MOL0     C16512   7.844   8.624   9.906  0.0658  0.6735  0.3835
  123MOL0     C16513   7.979   8.566   9.881  0.2364  0.2692 -0.9092
  123MOL0    Cl16514   8.012   8.433   9.999 -0.3022  0.0656 -0.3427
  123MOL0     C16515   6.883   8.662   9.700 -0.8141  0.2954  0.1185
  123MOL0     C16516   6.761   8.714   9.714  0.3189  0.2824 -0.2629
  123MOL0     O16517   6.531   8.800  10.051  0.8194 -0.0740 -1.2367
  123MOL0     C16518   6.294   8.836   9.771 -0.0563  0.7822  0.3346
  123MOL0     C16519   6.167   8.873   9.738 -0.3880 -0.1150 -0.0605
  123MOL0     N16520   5.472   8.902   9.523  0.3608  0.7020  0.2987
  123MOL0     N16521   5.458   8.919   9.397  0.3140  0.1310  0.1408
  123MOL0     C16522   5.632   8.898   8.243 -0.8221  0.0490  0.0843
  123MOL0     C16523   5.518   8.821   8.220  0.1011 -0.0675 -0.2641
  123MOL0     C16524   5.214   8.475   8.335 -0.8403 -0.2680  0.7833
  123MOL0     C16525   5.249   8.414   8.212 -0.3586  0.3479  0.5374
  123MOL0     C16526   5.174   8.320   8.144 -0.8363  0.1069 -0.3741
  123MOL0     C16527   5.046   8.287   8.199 -0.7415 -0.0054 -0.4315
  123MOL0     O16528   4.961   8.216   8.119  0.0728 -0.2180 -0.6327
  123MOL0     C16529   4.911   8.097   8.174 -0.1614  0.2446  0.7267
  123MOL0     C16530   5.001   7.973   8.186  0.1226 -0.4917 -0.5382
  123MOL0     C16531   4.897   7.855   8.195  0.0354  0.1819 -0.1778
  123MOL0     C16532   4.951   7.719   8.224  0.8338  0.0637  0.2307
  123MOL0     C16533   5.041   7.682   8.105 -0.9087  0.7347 -0.1183
  123MOL0     C16534   5.108   7.634   8.029 -0.8304  0.6495 -0.3301
  123MOL0     C16535   5.014   8.336   8.325 -0.7796  0.4831 -0.2637
  123MOL0     C16536   5.093   8.433   8.386  0.0069  0.3457 -0.7915
  123MOL0     C16537   5.049   8.475   8.523  0.6520 -0.3361  0.3786
  123MOL0     H16538   5.523   8.661   8.522  1.6774  0.6305  2.6607
  123MOL0     H16539   5.719   8.810   8.562 -0.2994  1.9458  0.3172
  123MOL0     H16540   5.868   8.935   8.582 -0.5639  0.5165  1.7101
  123MOL0     H16541   5.926   9.088   8.531  1.1213 -1.2020  0.7439
  123MOL0     H16542   5.653   9.024   8.626  1.4839 -1.5794  0.4291
  123MOL0     H16543   5.694   9.177   8.533 -1.0458  1.4480  3.3275
  123MOL0     H16544   5.792   9.282   8.689 -1.7512  0.1034  1.0540
  123MOL0     H16545   5.861   9.127   8.756  1.4787  1.1069 -0.0588
  123MOL0     H16546   5.580   9.246   8.796  0.4956  0.3070 -0.7267
  123MOL0     H16547   5.609   9.085   8.800  0.6089 -0.2728 -1.5503
  123MOL0     H16548   5.778   9.118   8.998  0.3157  0.7128  1.0030
  123MOL0     H16549   5.773   9.286   8.978  0.8205  0.2955 -3.5552
  123MOL0     H16550   5.572   9.316   9.082  0.1901  1.2428 -2.5460
  123MOL0     H16551   5.492   9.173   9.009 -1.7759  0.4426  2.7658
  123MOL0     H16552   5.677   9.174   9.256  2.1144 -1.1090 -0.8830
  123MOL0     H16553   5.643   9.034   9.169  2.6323  0.7700  1.4561
  123MOL0     H16554   5.401   9.207   9.256  1.3700  1.7839  0.8170
  123MOL0     H16555   5.405   9.050   9.168 -1.1039  1.2610  0.5944
  123MOL0     H16556   5.468   9.228   9.513  1.8307  0.2751 -3.4672
  123MOL0     H16557   5.499   9.155   9.751  0.9835  0.0752  1.4590
  123MOL0     H16558   5.430   8.990   9.780 -0.4055  0.1215  0.0478
  123MOL0     H16559   5.658   9.007   9.868 -1.1898  3.2356 -0.0781
  123MOL0     H16560   5.640   8.881   9.752 -3.5942  0.4732  0.8488
  123MOL0     H16561   5.785   9.156   9.720 -1.9029 -0.8170  2.6272
  123MOL0     H16562   5.741   9.067   9.578  0.1164  0.1279  1.1028
  123MOL0     H16563   5.966   9.017   9.631 -1.0556 -0.6248 -0.4369
  123MOL0     H16564   5.858   8.881   9.653 -4.6103  0.6971  1.3344
  123MOL0     H16565   6.058   8.944  10.047  0.4515 -0.0599 -0.1471
  123MOL0     H16566   6.296   8.866  10.100  2.6370  3.2169 -0.4392
  123MOL0     H16567   6.714   8.636  10.047  2.1974  3.0618  1.0625
  123MOL0     H16568   6.938   8.575  10.019  1.4213  0.3863 -0.0570
  123MOL0     H16569   7.059   8.433   9.664 -1.5446 -0.7515  1.9282
  123MOL0     H16570   7.142   8.580   9.618  1.9800 -2.5248  0.0032
  123MOL0     H16571   7.243   8.379   9.813 -1.3286 -1.4942 -0.5375
  123MOL0     H16572   7.296   8.376   9.647 -2.9032 -0.1794  0.2381
  123MOL0     H16573   7.388   8.600   9.657  1.8869 -1.9985 -1.2684
  123MOL0     H16574   7.333   8.615   9.828 -0.2962 -0.2370 -0.6151
  123MOL0     H16575   7.543   8.415   9.733  1.6709  0.1338  1.1251
  123MOL0     H16576   7.478   8.425   9.903  0.6332  0.3443  0.7963
  123MOL0     H16577   7.573   8.664   9.898  0.5015 -0.3603 -0.5995
  123MOL0     H16578   7.623   8.624   9.726  0.2173 -0.4480 -0.1398
  123MOL0     H16579   7.700   8.478   9.976 -4.7155  5.1719  0.8826
  123MOL0     H16580   7.771   8.448   9.814 -0.2612  0.1397 -1.9348
  123MOL0     H16581   7.845   8.667  10.007  0.5893  0.2612  0.5516
  123MOL0     H16582   7.844   8.714   9.843  0.4608  2.3752  2.6745
  123MOL0     H16583   7.979   8.530   9.777 -1.5863 -2.1193 -0.1852
  123MOL0     H16584   8.053   8.646   9.891 -0.5635  1.0861 -1.3556
  123MOL0     H16585   6.934   8.681   9.606 -0.7717  3.2793  0.6517
  123MOL0     H16586   6.723   8.751   9.620  2.9945 -0.4860 -1.7540
  123MOL0     H16587   6.359   8.825   9.685  1.3732 -2.1999  1.6191
  123MOL0     H16588   6.143   8.868   9.632 -1.9277 -1.5938  0.3077
  123MOL0     H16589   5.658   8.952   8.152  0.3053  0.6621  0.7414
  123MOL0     H16590   5.476   8.833   8.120 -0.5069  4.4349  0.3361
  123MOL0     H16591   5.343   8.444   8.166 -1.3097  0.4780 -1.4220
  123MOL0     H16592   5.195   8.282   8.044  0.7072  1.0850 -0.4579
  123MOL0     H16593   4.826   8.070   8.112 -1.6802  1.4098  2.2222
  123MOL0     H16594   4.868   8.117   8.273 -1.5497 -0.5322  0.2979
  123MOL0     H16595   5.061   7.977   8.277  2.6115 -0.3323 -2.1068
  123MOL0     H16596   5.064   7.962   8.097 -0.5185  1.1048 -1.2273
  123MOL0     H16597   4.847   7.840   8.099  0.0311 -4.8611  0.3650
  123MOL0     H16598   4.818   7.884   8.265 -1.6325 -1.3652 -1.3438
  123MOL0     H16599   5.001   7.728   8.321 -0.2838 -1.9721  1.0671
  123MOL0     H16600   4.864   7.652   8.237  0.0572  1.1388  0.7135
  123MOL0     H16601   5.166   7.582   7.956 -1.5539  2.0107 -1.9402
  123MOL0     H16602   4.911   8.323   8.357 -0.0526 -2.2330  1.2992
  123MOL0     H16603   5.023   8.581   8.532  1.1414 -0.3814  3.2049
  123MOL0     H16604   4.957   8.420   8.545 -0.3539  0.9690 -0.3797
  123MOL0     H16605   5.119   8.441   8.600  0.8780  0.0714  0.3573
  124MOL0     O16606   1.023   0.214   6.692 -0.4079 -0.1542 -0.1811
  124MOL0     C16607   1.082   0.321   6.708  0.3154  0.6007  0.6506
  124MOL0     O16608   1.022   0.436   6.726 -0.2926 -0.7413  0.6377
  124MOL0     C16609   0.886   0.432   6.725 -0.7599  0.0102  0.2118
  124MOL0     C16610   0.810   0.485   6.620  0.5662  0.6640  0.1286
  124MOL0     C16611   0.670   0.479   6.626 -0.1292 -0.6960 -0.5300
  124MOL0     C16612   0.609   0.425   6.732  0.5270 -0.4829 -0.3288
  124MOL0     O16613   0.468   0.437   6.726  0.3217 -0.3453  0.4388
  124MOL0     C16614   0.373   0.364   6.801  0.0409  0.5199  0.5211
  124MOL0     C16615   0.246   0.338   6.718  1.6378 -0.4829 -0.4851
  124MOL0     C16616   0.133   0.274   6.802 -0.6579 -0.3008  0.3073
  124MOL0     C16617   0.018   0.199   6.731 -0.2765  0.1825  0.2625
  124MOL0     C16618  -0.098   0.161   6.827 -0.1105  0.6906  1.3378
  124MOL0     C16619  -0.067   0.041   6.914  0.5325 -0.1639 -0.5374
  124MOL0     C16620  -0.180  -0.005   7.010 -0.0427 -0.2025  0.1901
  124MOL0     C16621  -0.239   0.112   7.101  0.7407 -0.3503 -0.2859
  124MOL0     N16622  -0.127   0.193   7.150 -0.0880 -0.0032 -0.1924
  124MOL0     C16623  -0.011   0.161   7.223  0.2985 -0.2349 -0.0558
  124MOL0     C16624   0.060   0.271   7.229  0.0109 -0.2628 -1.3193
  124MOL0     C16625   0.193   0.302   7.300 -0.0058  0.1309  0.5962
  124MOL0     C16626   0.308   0.218   7.246  0.6340 -0.6051  0.1778
  124MOL0     C16627   0.440   0.230   7.323 -0.7117  0.4613 -0.1440
  124MOL0     C16628   0.441   0.181   7.464  0.2767  0.2631 -0.6938
  124MOL0     O16629   0.446   0.039   7.494 -0.6248 -0.2298  0.3062
  124MOL0     C16630   0.558  -0.034   7.457  0.6649 -0.0511  0.4895
  124MOL0     C16631   0.688   0.011   7.475 -0.0513  0.1806  0.6730
  124MOL0     C16632   0.794  -0.077   7.455 -0.0618  1.0599  0.1848
  124MOL0     C16633   0.771  -0.206   7.409  0.0916  0.2572  0.3842
  124MOL0     C16634   0.884  -0.298   7.392  0.6258 -0.4083 -0.0119
  124MOL0     O16635   0.861  -0.428   7.372 -0.3893 -0.1629  0.5854
  124MOL0     C16636   0.969  -0.497   7.329 -0.1503 -0.6742 -0.6327
  124MOL0     C16637   0.994  -0.625   7.388 -0.0780 -0.8612  0.9028
  124MOL0     C16638   1.099  -0.712   7.341  0.2858 -0.2174  0.1018
  124MOL0     C16639   1.183  -0.672   7.234  0.1085  0.7097  0.7009
  124MOL0     O16640   1.286  -0.744   7.174 -0.3119 -0.0255 -0.3603
  124MOL0     C16641   1.386  -0.806   7.258  0.1325 -0.2235  0.0941
  124MOL0     C16642   1.494  -0.700   7.286  0.0649 -0.0506  0.0308
  124MOL0     C16643   1.598  -0.765   7.380  0.4444 -0.3769  0.0587
  124MOL0     C16644   1.661  -0.656   7.473 -0.8022  0.8978  0.7128
  124MOL0     C16645   1.706  -0.531   7.393 -0.2007 -0.3162  0.5499
  124MOL0     C16646   1.795  -0.433   7.477 -0.1697 -0.4567  0.4997
  124MOL0     C16647   1.843  -0.307   7.399  0.5442  0.3441 -0.3488
  124MOL0     C16648   1.944  -0.341   7.291 -0.2950  0.3417  0.4044
  124MOL0    Cl16649   2.102  -0.415   7.360  0.5846  0.3177 -0.0096
  124MOL0     C16650   1.164  -0.548   7.185 -0.1716 -0.8321 -0.5530
  124MOL0     C16651   1.055  -0.461   7.226  0.0740 -0.4926  0.6540
  124MOL0     O16652   0.996  -0.249   7.424 -0.0156 -0.0655  0.3734
  124MOL0     C16653   0.644  -0.244   7.369  0.4655  0.0063 -0.8447
  124MOL0     C16654   0.544  -0.158   7.395 -0.1238  0.2015 -1.3426
  124MOL0     N16655  -0.007   0.373   7.163 -0.0964 -0.6232  0.3535
  124MOL0     N16656  -0.121   0.329   7.118 -0.0577  0.6039  0.3637
  124MOL0     C16657   0.678   0.376   6.841 -0.1197  0.2465 -0.0523
  124MOL0     C16658   0.823   0.379   6.834  0.6211 -0.9185 -0.7015
  124MOL0     C16659   1.229   0.316   6.726  0.0951  0.4606  0.2030
  124MOL0     C16660   1.292   0.410   6.811  0.8421  1.1233  0.2154
  124MOL0     C16661   1.425   0.413   6.835 -1.4199 -0.1292  0.0020
  124MOL0     C16662   1.510   0.325   6.764 -0.0620  0.1856  0.3678
  124MOL0     O16663   1.642   0.344   6.781 -0.1045 -0.4232 -0.2952
  124MOL0     C16664   1.745   0.260   6.718 -0.0799 -0.0964 -0.3797
  124MOL0     C16665   1.869   0.293   6.797  0.2923  0.1596 -0.2837
  124MOL0     C16666   1.991   0.212   6.744 -0.2505 -0.0658  1.5533
  124MOL0     C16667   2.125   0.265   6.809 -0.0088 -0.5736  0.2450
  124MOL0     C16668   2.229   0.171   6.766 -0.5182  0.2863  0.7416
  124MOL0     C16669   2.320   0.097   6.743 -0.4181  0.8668  0.2507
  124MOL0     C16670   1.450   0.232   6.677 -0.0742  0.3935  0.4492
  124MOL0     C16671   1.312   0.216   6.659  0.0485 -0.2468  0.2858
  124MOL0     C16672   1.253   0.108   6.567 -0.8459  0.3711 -0.7140
  124MOL0     H16673   0.869   0.528   6.539  1.4602  1.3548  1.1259
  124MOL0     H16674   0.602   0.507   6.546  0.7281  0.3915 -0.9046
  124MOL0     H16675   0.417   0.269   6.832  2.4832  1.2044 -0.6205
  124MOL0     H16676   0.349   0.420   6.892  0.2675 -1.9625  2.2049
  124MOL0     H16677   0.267   0.277   6.629  0.4262  0.0014 -1.1169
  124MOL0     H16678   0.209   0.429   6.670  1.9944 -0.3316 -0.4778
  124MOL0     H16679   0.092   0.352   6.867  1.5828  3.2892 -2.1856
  124MOL0     H16680   0.179   0.196   6.862 -0.1365  0.3582  0.7817
  124MOL0     H16681  -0.020   0.262   6.650 -0.1101 -1.6494 -1.3075
  124MOL0     H16682   0.055   0.103   6.693 -1.5547  0.8554 -2.9594
  124MOL0     H16683  -0.113   0.247   6.893 -0.2463  0.8249  1.1318
  124MOL0     H16684  -0.177   0.137   6.755 -0.3638  2.1575  1.0921
  124MOL0     H16685  -0.032  -0.047   6.858 -2.2443 -1.9561  0.3940
  124MOL0     H16686   0.022   0.069   6.972  0.0341  0.4416 -0.0524
  124MOL0     H16687  -0.135  -0.075   7.081  0.5719  2.1398  2.2783
  124MOL0     H16688  -0.262  -0.058   6.960 -1.5177  1.9376  0.2146
  124MOL0     H16689  -0.302   0.171   7.035  0.0754  0.7108  1.2375
  124MOL0     H16690  -0.298   0.069   7.183 -0.6208  1.6201 -0.1714
  124MOL0     H16691   0.015   0.070   7.277  1.8061 -0.0052 -0.3704
  124MOL0     H16692   0.218   0.407   7.281 -0.6808 -0.2369 -3.2139
  124MOL0     H16693   0.175   0.275   7.404 -0.2904 -1.1688  0.2241
  124MOL0     H16694   0.267   0.116   7.253  0.6111 -0.7138 -1.3295
  124MOL0     H16695   0.334   0.251   7.145  0.6914  2.3032  1.0537
  124MOL0     H16696   0.479   0.332   7.326  1.7307 -0.3466 -1.8081
  124MOL0     H16697   0.515   0.178   7.262 -1.6840  1.4166 -2.2495
  124MOL0     H16698   0.362   0.227   7.524  1.1801  1.8310 -0.6479
  124MOL0     H16699   0.531   0.224   7.510  0.8680  0.5970 -2.1006
  124MOL0     H16700   0.694   0.116   7.502 -2.2345  0.6972 -0.6050
  124MOL0     H16701   0.896  -0.044   7.472  0.7243 -0.4226 -1.2946
  124MOL0     H16702   0.937  -0.667   7.469  1.2786 -0.4215  2.1321
  124MOL0     H16703   1.110  -0.805   7.394 -1.4728  0.1255  1.1657
  124MOL0     H16704   1.336  -0.845   7.348 -0.5024  0.3281 -0.0147
  124MOL0     H16705   1.438  -0.888   7.209  1.0530 -0.7873  1.9188
  124MOL0     H16706   1.543  -0.683   7.190 -0.9041  1.8491 -0.1871
  124MOL0     H16707   1.449  -0.607   7.324  0.2723  1.3117 -2.8224
  124MOL0     H16708   1.550  -0.845   7.437 -2.2022  0.5310 -0.7514
  124MOL0     H16709   1.671  -0.798   7.306 -1.8081  0.1423 -2.5711
  124MOL0     H16710   1.743  -0.709   7.522 -1.0466 -1.6113 -1.3604
  124MOL0     H16711   1.584  -0.630   7.547 -0.1973 -1.7615  2.4094
  124MOL0     H16712   1.620  -0.477   7.354  1.0117  1.1626 -0.2024
  124MOL0     H16713   1.758  -0.561   7.301  0.6790  0.3898  0.7959
  124MOL0     H16714   1.740  -0.405   7.566 -0.5792 -3.5953  1.3503
  124MOL0     H16715   1.877  -0.495   7.515 -1.4749 -1.6175  1.4779
  124MOL0     H16716   1.895  -0.242   7.470  0.7482 -1.5965  1.4092
  124MOL0     H16717   1.751  -0.256   7.370 -1.0990 -1.8769  0.6391
  124MOL0     H16718   1.902  -0.408   7.215 -1.4103 -0.2697  1.5253
  124MOL0     H16719   1.972  -0.245   7.247  0.9775 -0.1005  0.1888
  124MOL0     H16720   1.224  -0.496   7.111 -1.3566  0.9383 -0.3362
  124MOL0     H16721   1.051  -0.361   7.183 -0.4916 -1.3600 -1.3911
  124MOL0     H16722   0.622  -0.344   7.333  0.5459 -0.8866  1.3997
  124MOL0     H16723   0.439  -0.184   7.386 -0.9085  1.6609  2.1422
  124MOL0     H16724   0.631   0.340   6.932  0.0145  0.1321 -0.0279
  124MOL0     H16725   0.880   0.332   6.913  3.1772 -0.9387 -2.4235
  124MOL0     H16726   1.234   0.481   6.869  0.6663  0.6137  0.6676
  124MOL0     H16727   1.472   0.487   6.899 -1.7678  1.2312 -1.2579
  124MOL0     H16728   1.748   0.301   6.616 -1.6748  2.3944  0.4794
  124MOL0     H16729   1.737   0.151   6.721  1.8262 -0.2719 -0.3627
  124MOL0     H16730   1.860   0.253   6.898  0.9855 -1.2887 -0.7722
  124MOL0     H16731   1.891   0.400   6.791  4.0155 -0.4554 -0.2212
  124MOL0     H16732   1.988   0.224   6.635 -1.4771  1.1658  1.6895
  124MOL0     H16733   1.973   0.106   6.764  0.3710 -0.5118 -0.0570
  124MOL0     H16734   2.148   0.364   6.767  0.8147 -2.0550 -3.1301
  124MOL0     H16735   2.113   0.276   6.917  0.8644  1.2793  0.1900
  124MOL0     H16736   2.386   0.013   6.739 -3.4884 -1.7832  0.5997
  124MOL0     H16737   1.522   0.163   6.635  0.9859  0.2285  2.4196
  124MOL0     H16738   1.188   0.156   6.493 -0.6318 -0.2044 -1.2871
  124MOL0     H16739   1.325   0.031   6.538 -2.9891 -3.9341  3.8938
  124MOL0     H16740   1.193   0.038   6.626  3.5129 -2.9476  0.3018
  125MOL0     O16741   0.671   4.994   4.650  0.0861  0.1746  0.1801
  125MOL0     C16742   0.761   5.061   4.611 -0.3793 -0.9243  0.2324
  125MOL0     O16743   0.755   5.197   4.602 -0.3922  0.0133  0.1823
  125MOL0     C16744   0.643   5.266   4.643 -0.5502  0.2718  0.6987
  125MOL0     C16745   0.662   5.374   4.721 -0.0089 -0.1380 -0.0441
  125MOL0     C16746   0.543   5.443   4.766 -0.4541 -0.2926 -1.0234
  125MOL0     C16747   0.411   5.403   4.723  0.1183  0.9786  0.0095
  125MOL0     O16748   0.295   5.466   4.766  0.8300 -0.2868 -0.5352
  125MOL0     C16749   0.315   5.604   4.808  0.4660  0.3766  0.8000
  125MOL0     C16750   0.187   5.674   4.800 -0.0881 -0.8533  0.5302
  125MOL0     C16751   0.055   5.589   4.827 -0.2653  0.9322  0.4412
  125MOL0     C16752  -0.065   5.684   4.850  0.0186 -0.2608 -0.1884
  125MOL0     C16753  -0.195   5.622   4.889  0.4690  0.4755 -0.1323
  125MOL0     C16754  -0.236   5.524   4.775 -0.6194 -1.0726 -0.3653
  125MOL0     C16755  -0.372   5.475   4.760  0.1536 -0.6122 -0.1052
  125MOL0     C16756  -0.472   5.584   4.725  0.0062 -1.0282  0.0034
  125MOL0     N16757  -0.445   5.649   4.593 -0.8205  0.4848  1.2244
  125MOL0     C16758  -0.443   5.590   4.472  0.1802  0.5114  1.1082
  125MOL0     C16759  -0.407   5.680   4.380 -0.1379  0.1280  0.5717
  125MOL0     C16760  -0.387   5.662   4.234 -0.0262  0.3675  0.6766
  125MOL0     C16761  -0.291   5.541   4.215  0.0556  0.8444 -0.2845
  125MOL0     C16762  -0.282   5.513   4.065 -0.2530 -0.0503 -0.5768
  125MOL0     C16763  -0.191   5.389   4.026  0.7389 -0.3545 -0.8161
  125MOL0     O16764  -0.066   5.409   4.085 -0.3357 -0.1390  0.4603
  125MOL0     C16765   0.045   5.397   4.007 -0.8743  0.2907 -0.8729
  125MOL0     C16766   0.097   5.504   3.930 -0.1509  0.0273  0.0022
  125MOL0     C16767   0.210   5.485   3.849  0.2175  0.1778 -0.2321
  125MOL0     C16768   0.269   5.352   3.830  0.0603  0.0313 -0.1377
  125MOL0     C16769   0.384   5.320   3.749 -0.1985 -0.1934  0.1369
  125MOL0     O16770   0.432   5.415   3.668  0.1537 -0.3993 -0.2597
  125MOL0     C16771   0.561   5.417   3.622  0.3277 -0.1111  0.8724
  125MOL0     C16772   0.584   5.502   3.513 -1.1824  0.5519  0.8926
  125MOL0     C16773   0.706   5.533   3.464 -0.8791  0.7091  0.7169
  125MOL0     C16774   0.816   5.484   3.531  0.1130 -0.2299 -0.5779
  125MOL0     O16775   0.941   5.511   3.489  0.2992  0.1907 -0.5041
  125MOL0     C16776   1.001   5.569   3.609 -0.3219 -0.4263 -0.4925
  125MOL0     C16777   1.144   5.617   3.592  0.0578 -0.1859  1.1376
  125MOL0     C16778   1.247   5.517   3.535 -0.4774 -0.6793 -0.8196
  125MOL0     C16779   1.327   5.442   3.644  0.2418  0.5347 -0.0220
  125MOL0     C16780   1.446   5.386   3.576 -0.6311  0.6142  0.6213
  125MOL0     C16781   1.541   5.302   3.680 -0.5010 -0.4295  0.1585
  125MOL0     C16782   1.637   5.213   3.596 -0.1854 -1.4375  0.7983
  125MOL0     C16783   1.565   5.096   3.525 -0.6828  0.5939  0.4013
  125MOL0    Cl16784   1.688   5.008   3.426 -0.0691 -0.1180 -0.2424
  125MOL0     C16785   0.797   5.390   3.634  0.1635  1.0305  0.3059
  125MOL0     C16786   0.666   5.354   3.680 -0.6557 -0.3709 -0.3054
  125MOL0     O16787   0.434   5.214   3.774  0.0651 -0.2114 -0.3920
  125MOL0     C16788   0.214   5.243   3.907  0.3400 -0.1144  1.0876
  125MOL0     C16789   0.111   5.273   3.995  0.4806 -0.0473  0.5697
  125MOL0     N16790  -0.382   5.797   4.451 -0.0633 -0.1426 -0.7643
  125MOL0     N16791  -0.414   5.778   4.576 -0.2668  0.3416  0.7205
  125MOL0     C16792   0.398   5.288   4.647 -0.1787 -0.1535  0.3325
  125MOL0     C16793   0.515   5.216   4.621 -0.1414  0.8706  0.1248
  125MOL0     C16794   0.888   4.984   4.593 -0.3046 -0.3716 -1.2494
  125MOL0     C16795   0.882   4.850   4.630 -0.6935  0.2360  0.0628
  125MOL0     C16796   1.005   4.782   4.638 -0.2307 -0.0318 -0.7242
  125MOL0     C16797   1.131   4.829   4.619 -0.1181 -0.9947 -0.5235
  125MOL0     O16798   1.241   4.751   4.643 -0.2536 -0.2891 -0.5086
  125MOL0     C16799   1.365   4.791   4.569 -0.8404 -0.2386  0.2316
  125MOL0     C16800   1.452   4.680   4.520  0.0362  0.3668  0.8005
  125MOL0     C16801   1.487   4.587   4.646 -0.5013 -0.8701  0.6209
  125MOL0     C16802   1.611   4.498   4.613  0.3634 -0.0359  0.1110
  125MOL0     C16803   1.595   4.428   4.483 -0.4732 -0.4489  0.9824
  125MOL0     C16804   1.596   4.380   4.370  0.3756  0.3116 -0.2560
  125MOL0     C16805   1.128   4.968   4.570  0.2836  0.5939 -0.5667
  125MOL0     C16806   1.008   5.039   4.547 -0.1923  0.7219 -0.5178
  125MOL0     C16807   1.005   5.179   4.484  0.2934 -0.8977  0.9853
  125MOL0     H16808   0.758   5.400   4.764  0.8519 -0.6216 -1.5602
  125MOL0     H16809   0.562   5.527   4.832 -0.5975 -2.9660  2.7926
  125MOL0     H16810   0.357   5.609   4.908  1.5770  1.5502  0.3034
  125MOL0     H16811   0.384   5.650   4.737 -1.3109 -0.4727 -1.6147
  125MOL0     H16812   0.192   5.723   4.702  2.8925  0.9134  1.4175
  125MOL0     H16813   0.204   5.753   4.873  0.4110  1.5138 -1.9718
  125MOL0     H16814   0.072   5.515   4.906 -1.0963 -2.9301 -2.6839
  125MOL0     H16815   0.040   5.528   4.737  0.3277 -0.4891  1.2654
  125MOL0     H16816  -0.038   5.759   4.924 -4.0251  2.6557 -1.3414
  125MOL0     H16817  -0.076   5.750   4.763 -2.5898 -0.5668 -0.1497
  125MOL0     H16818  -0.174   5.572   4.984  0.4048  0.2449 -0.2407
  125MOL0     H16819  -0.278   5.691   4.910  0.6193 -0.1388  3.0784
  125MOL0     H16820  -0.211   5.559   4.675 -2.3207 -0.8006 -0.7165
  125MOL0     H16821  -0.183   5.431   4.799 -2.7874 -2.1361  0.6025
  125MOL0     H16822  -0.400   5.432   4.857  0.9404  1.8856  1.2928
  125MOL0     H16823  -0.387   5.405   4.677 -0.2995 -0.8583  0.1808
  125MOL0     H16824  -0.572   5.540   4.725 -0.2108 -0.6099 -1.7370
  125MOL0     H16825  -0.478   5.656   4.808  0.4345  0.6371 -1.3502
  125MOL0     H16826  -0.464   5.487   4.448  2.2478  0.3745 -0.3269
  125MOL0     H16827  -0.486   5.654   4.188 -0.5738  0.0265  1.8771
  125MOL0     H16828  -0.339   5.754   4.199  1.2630 -0.3628  0.4632
  125MOL0     H16829  -0.192   5.557   4.259 -0.6559  1.7706  1.0546
  125MOL0     H16830  -0.339   5.453   4.258  1.1465 -0.5186 -1.7300
  125MOL0     H16831  -0.246   5.607   4.022 -3.0846  1.3508 -0.1092
  125MOL0     H16832  -0.377   5.505   4.011 -0.7290  0.6105  0.1363
  125MOL0     H16833  -0.186   5.380   3.917  2.9073  0.9611 -0.8826
  125MOL0     H16834  -0.232   5.298   4.069  0.9849  1.0183  2.6183
  125MOL0     H16835   0.039   5.595   3.939 -0.5676 -0.1754 -0.6522
  125MOL0     H16836   0.254   5.574   3.807  0.9431  0.2353  0.6057
  125MOL0     H16837   0.498   5.553   3.472 -2.5400 -0.4319  2.3880
  125MOL0     H16838   0.720   5.598   3.379  2.1248  1.0570  1.3801
  125MOL0     H16839   0.944   5.651   3.654 -1.0900 -0.0021 -2.1615
  125MOL0     H16840   1.009   5.491   3.685  0.9184  1.3052  1.2467
  125MOL0     H16841   1.132   5.701   3.523 -0.3051 -1.4451 -0.3960
  125MOL0     H16842   1.191   5.641   3.688 -2.1122 -0.3209  2.2843
  125MOL0     H16843   1.209   5.448   3.459  1.1571 -2.2447 -0.3025
  125MOL0     H16844   1.328   5.571   3.486  0.1505 -1.2025 -0.3894
  125MOL0     H16845   1.264   5.369   3.696  0.7373  1.0979  1.4128
  125MOL0     H16846   1.363   5.522   3.710  0.3592  1.4291 -1.1353
  125MOL0     H16847   1.508   5.464   3.531  2.6624 -1.8595  0.5151
  125MOL0     H16848   1.408   5.325   3.493 -0.4013  1.3300 -0.0121
  125MOL0     H16849   1.598   5.373   3.741 -1.5391  0.6911 -0.1391
  125MOL0     H16850   1.487   5.228   3.740  0.5925 -0.6841  0.8670
  125MOL0     H16851   1.725   5.180   3.651  1.6599 -1.1697 -1.7979
  125MOL0     H16852   1.687   5.264   3.513  1.3579 -2.1561  1.2478
  125MOL0     H16853   1.523   5.027   3.599  2.1076 -2.1926 -0.3580
  125MOL0     H16854   1.483   5.125   3.459  0.1112  0.9119 -0.4800
  125MOL0     H16855   0.886   5.335   3.664 -0.2755  0.1189  0.0012
  125MOL0     H16856   0.669   5.314   3.781  3.7091  3.2590  1.3659
  125MOL0     H16857   0.249   5.140   3.907  0.7412 -0.0289 -1.1955
  125MOL0     H16858   0.081   5.197   4.067 -0.1837  1.4936  1.9894
  125MOL0     H16859   0.304   5.239   4.626 -0.2599 -1.4760  3.2886
  125MOL0     H16860   0.506   5.126   4.560  1.6145  1.0021 -0.3847
  125MOL0     H16861   0.800   4.788   4.663  2.3572 -2.9710  2.4823
  125MOL0     H16862   1.006   4.677   4.666  0.6148  0.1359 -0.1096
  125MOL0     H16863   1.436   4.852   4.626  2.2150  0.5570 -3.9472
  125MOL0     H16864   1.344   4.864   4.490 -0.7099  1.6706  1.8763
  125MOL0     H16865   1.539   4.715   4.463 -0.4453  0.3971  0.0796
  125MOL0     H16866   1.387   4.635   4.444  0.7902  1.2973 -0.4431
  125MOL0     H16867   1.394   4.535   4.669 -1.0933  0.7693  2.1943
  125MOL0     H16868   1.512   4.638   4.740 -0.9452 -1.6333  1.1579
  125MOL0     H16869   1.699   4.561   4.598  0.9071 -1.2121 -2.0200
  125MOL0     H16870   1.613   4.422   4.692 -1.8026 -2.2391 -1.7577
  125MOL0     H16871   1.604   4.338   4.272 -3.1627  1.0962 -1.0087
  125MOL0     H16872   1.214   5.014   4.524  0.9292  0.9834  0.9824
  125MOL0     H16873   0.912   5.202   4.431  1.3714 -0.4869 -0.8030
  125MOL0     H16874   1.037   5.248   4.562 -1.4827  1.9085 -0.5765
  125MOL0     H16875   1.086   5.188   4.411 -0.0573  2.3538  0.8418
  126MOL0     O16876   1.616   1.390   2.850  0.6000 -0.2623 -0.8589
  126MOL0     C16877   1.569   1.350   2.954  0.3533  0.3947 -0.7218
  126MOL0     O16878   1.647   1.285   3.041  1.1643 -0.0493 -0.2259
  126MOL0     C16879   1.779   1.254   3.023  0.3787  0.5746 -0.0940
  126MOL0     C16880   1.832   1.132   3.073  0.2030  0.5356  0.4712
  126MOL0     C16881   1.968   1.101   3.065  0.2855 -0.0854  0.3090
  126MOL0     C16882   2.055   1.190   3.001  0.3491 -0.4551 -0.1653
  126MOL0     O16883   2.187   1.156   3.009 -0.5162  0.1761  0.3446
  126MOL0     C16884   2.285   1.206   2.914 -0.6330  0.5481  0.7615
  126MOL0     C16885   2.422   1.211   2.979 -0.7465  0.1139 -0.4176
  126MOL0     C16886   2.534   1.273   2.891 -0.1817 -0.9549 -0.6743
  126MOL0     C16887   2.548   1.202   2.755  0.0542 -0.1406 -1.1486
  126MOL0     C16888   2.606   1.058   2.776 -0.6034 -0.5367 -0.4144
  126MOL0     C16889   2.632   1.012   2.627  0.9007 -0.1763 -0.3431
  126MOL0     C16890   2.684   0.868   2.624  0.3903 -0.4000  0.1467
  126MOL0     C16891   2.799   0.835   2.705 -1.2851 -0.2659 -0.5461
  126MOL0     N16892   2.915   0.913   2.646 -0.0605 -0.4222 -0.2030
  126MOL0     C16893   2.975   1.020   2.708 -0.4254 -0.1001 -0.0115
  126MOL0     C16894   3.080   1.052   2.629 -0.5007  0.2453 -0.3320
  126MOL0     C16895   3.159   1.176   2.642 -0.2008  0.8178  0.1038
  126MOL0     C16896   3.163   1.249   2.507  0.7634  0.3684 -0.9667
  126MOL0     C16897   3.162   1.400   2.494  0.4333  0.1086  0.4224
  126MOL0     C16898   3.278   1.468   2.558  0.2879  0.9174 -0.5410
  126MOL0     O16899   3.267   1.612   2.535 -0.3870  0.4373 -0.6199
  126MOL0     C16900   3.362   1.683   2.604  0.6741 -0.4991 -0.8603
  126MOL0     C16901   3.431   1.643   2.722  0.7122 -0.1207  0.1618
  126MOL0     C16902   3.495   1.735   2.804  0.5545  0.3224 -0.0165
  126MOL0     C16903   3.517   1.865   2.747 -0.5255  0.3356 -0.4228
  126MOL0     C16904   3.588   1.971   2.826 -0.9819 -0.5395  0.3333
  126MOL0     O16905   3.607   2.095   2.756  0.0247 -0.2719 -0.6168
  126MOL0     C16906   3.637   2.212   2.822 -0.0607  0.4021  0.8175
  126MOL0     C16907   3.773   2.247   2.832 -0.6117 -0.3928  0.9567
  126MOL0     C16908   3.794   2.373   2.882 -0.0873 -1.1637 -0.7284
  126MOL0     C16909   3.691   2.456   2.936 -0.5926  0.0190 -0.4303
  126MOL0     O16910   3.727   2.584   2.963 -0.1708 -0.2061  0.0314
  126MOL0     C16911   3.622   2.684   2.933  0.8762  0.1194  0.1320
  126MOL0     C16912   3.675   2.829   2.960 -0.4050  0.1431 -0.0636
  126MOL0     C16913   3.698   2.851   3.115  0.7760 -0.6130 -0.3493
  126MOL0     C16914   3.732   2.997   3.132  0.1507 -0.6454 -1.2060
  126MOL0     C16915   3.714   3.035   3.277  0.1461 -0.5245  1.1082
  126MOL0     C16916   3.732   3.192   3.292 -0.2174  0.7063  0.1302
  126MOL0     C16917   3.883   3.229   3.263  0.5451 -0.2090 -0.5676
  126MOL0     C16918   3.909   3.377   3.310 -0.1104  0.1319  0.5507
  126MOL0    Cl16919   3.928   3.376   3.482 -0.1290  0.0691  0.0055
  126MOL0     C16920   3.561   2.399   2.947  1.0517  0.9568  0.0956
  126MOL0     C16921   3.532   2.273   2.888 -0.3016 -0.5284 -0.3903
  126MOL0     O16922   3.629   1.954   2.941 -0.0475 -0.0423  0.6868
  126MOL0     C16923   3.468   1.899   2.622  0.2180  0.0752  0.1896
  126MOL0     C16924   3.387   1.810   2.553  0.4372 -0.4427 -0.2479
  126MOL0     N16925   3.090   0.956   2.536  0.6758  0.3721 -0.1486
  126MOL0     N16926   2.978   0.878   2.535  0.0856  0.0939  0.1631
  126MOL0     C16927   2.007   1.315   2.961  0.2715  1.1163  0.3137
  126MOL0     C16928   1.875   1.345   2.968  0.0149 -0.2836  0.8942
  126MOL0     C16929   1.429   1.384   2.997 -0.0494 -0.1694  0.2823
  126MOL0     C16930   1.370   1.332   3.115 -0.0797 -0.4097  0.8368
  126MOL0     C16931   1.253   1.386   3.176 -0.7428 -0.2548  0.5506
  126MOL0     C16932   1.176   1.482   3.114 -0.1753  0.7826 -0.2401
  126MOL0     O16933   1.059   1.524   3.172  0.4229  0.2445 -1.0215
  126MOL0     C16934   1.008   1.654   3.129  0.8880 -0.7269 -0.3242
  126MOL0     C16935   0.897   1.702   3.227  0.2738  0.2191  0.9226
  126MOL0     C16936   0.937   1.760   3.357 -0.2390 -0.1718 -0.9324
  126MOL0     C16937   0.850   1.871   3.410 -0.2527  0.1289  0.1033
  126MOL0     C16938   0.738   1.812   3.488 -0.8961  0.1025  0.2694
  126MOL0     C16939   0.662   1.746   3.553  0.1051  0.8017  1.0509
  126MOL0     C16940   1.220   1.528   2.990  0.0215 -0.3339 -0.0896
  126MOL0     C16941   1.343   1.483   2.940 -0.9831  0.1006 -0.5192
  126MOL0     C16942   1.385   1.543   2.804  0.0538  0.0748  0.3483
  126MOL0     H16943   1.772   1.068   3.137  0.7879  0.1008  0.6029
  126MOL0     H16944   2.014   1.013   3.108  0.7731  0.5645  1.1398
  126MOL0     H16945   2.296   1.136   2.830  3.5427  0.9998  0.7150
  126MOL0     H16946   2.264   1.309   2.883  0.9648  0.1269 -2.1240
  126MOL0     H16947   2.442   1.107   3.008 -0.0671  0.3801  0.0691
  126MOL0     H16948   2.405   1.278   3.063 -1.3674  0.4545 -0.8088
  126MOL0     H16949   2.629   1.271   2.945 -1.0046 -3.5388  0.8167
  126MOL0     H16950   2.506   1.378   2.877  1.3841 -0.4672 -0.3603
  126MOL0     H16951   2.452   1.202   2.703 -1.0054 -3.8553  0.4010
  126MOL0     H16952   2.620   1.252   2.690  0.6578 -2.8645 -2.7541
  126MOL0     H16953   2.694   1.060   2.840 -1.3666 -0.0252  0.6639
  126MOL0     H16954   2.526   1.000   2.823 -0.1031 -1.4747 -0.7105
  126MOL0     H16955   2.534   1.014   2.579 -0.2422 -1.7332  1.7776
  126MOL0     H16956   2.701   1.071   2.566  0.7445  0.2782 -0.0791
  126MOL0     H16957   2.715   0.824   2.528  0.5495  0.1551 -0.0604
  126MOL0     H16958   2.605   0.803   2.662 -0.3337 -0.7565 -1.8213
  126MOL0     H16959   2.787   0.859   2.811  3.7855  2.9603 -0.3323
  126MOL0     H16960   2.823   0.728   2.709  0.6867  0.1651  1.7625
  126MOL0     H16961   2.929   1.084   2.782  0.6797  3.8246 -2.3924
  126MOL0     H16962   3.121   1.249   2.713  1.4098 -1.3044  3.4335
  126MOL0     H16963   3.262   1.152   2.672 -0.4693 -0.6605 -0.0844
  126MOL0     H16964   3.259   1.226   2.459  1.4967  1.8054 -0.2450
  126MOL0     H16965   3.081   1.206   2.449 -0.3460 -1.2377  1.5979
  126MOL0     H16966   3.072   1.442   2.541  0.2380  1.8755 -1.4183
  126MOL0     H16967   3.158   1.419   2.387 -1.7808 -2.6731 -0.1173
  126MOL0     H16968   3.371   1.434   2.512  0.8086 -1.1703  1.8427
  126MOL0     H16969   3.281   1.435   2.662  4.6679  0.4372 -0.6182
  126MOL0     H16970   3.408   1.544   2.760 -3.0584 -0.1710 -1.7358
  126MOL0     H16971   3.533   1.708   2.902  3.5006  1.4189 -0.7568
  126MOL0     H16972   3.850   2.178   2.799 -0.8927  0.4963 -1.7376
  126MOL0     H16973   3.899   2.399   2.897  0.3660 -2.6846 -1.0186
  126MOL0     H16974   3.600   2.696   2.827 -0.7600  1.2730  0.5657
  126MOL0     H16975   3.536   2.660   2.996  1.1563 -0.1361  0.4202
  126MOL0     H16976   3.777   2.850   2.926 -0.9928  3.6820 -0.0323
  126MOL0     H16977   3.603   2.902   2.923  0.5013  2.6562  2.6717
  126MOL0     H16978   3.605   2.847   3.172  1.7400  2.2158  1.6476
  126MOL0     H16979   3.773   2.788   3.162  0.9439  1.6618  2.7485
  126MOL0     H16980   3.660   3.055   3.074  1.6013 -0.2158 -2.6516
  126MOL0     H16981   3.829   3.025   3.089 -0.1915  2.7723 -0.0880
  126MOL0     H16982   3.780   2.977   3.343  0.1313 -0.5713  1.0821
  126MOL0     H16983   3.613   3.012   3.311 -0.2124 -3.6771 -1.5510
  126MOL0     H16984   3.672   3.245   3.218  0.4575 -2.1866 -2.6985
  126MOL0     H16985   3.721   3.215   3.399  0.5117  0.1329  0.3368
  126MOL0     H16986   3.908   3.223   3.157  1.1151  0.2344 -0.4591
  126MOL0     H16987   3.954   3.161   3.312  1.8838  1.6871  0.2375
  126MOL0     H16988   3.998   3.416   3.259 -1.3803 -0.3435 -2.1891
  126MOL0     H16989   3.827   3.442   3.279 -0.0461  0.4694  1.0855
  126MOL0     H16990   3.473   2.453   2.980 -1.7870 -3.2232  0.1758
  126MOL0     H16991   3.429   2.239   2.877 -1.0885  2.0980 -2.1559
  126MOL0     H16992   3.486   1.997   2.580  0.7746  0.0761  0.4159
  126MOL0     H16993   3.339   1.823   2.457 -2.7393 -0.4330  1.1872
  126MOL0     H16994   2.081   1.391   2.937  1.5925 -0.2551 -0.1497
  126MOL0     H16995   1.853   1.449   2.947  2.5153 -0.3132 -2.9250
  126MOL0     H16996   1.428   1.258   3.169 -0.6584 -0.5706  1.2438
  126MOL0     H16997   1.227   1.352   3.276  1.3436  0.0279  1.2600
  126MOL0     H16998   0.960   1.643   3.031  1.7969  2.9803 -1.3213
  126MOL0     H16999   1.089   1.726   3.118  0.4146 -0.4813 -2.7087
  126MOL0     H17000   0.833   1.617   3.251 -0.8173  0.7470 -0.0500
  126MOL0     H17001   0.843   1.764   3.156 -0.4375 -2.5378 -1.1019
  126MOL0     H17002   1.036   1.802   3.338  0.8134 -1.9727  0.2887
  126MOL0     H17003   0.945   1.671   3.420 -2.9164 -0.9672 -1.5787
  126MOL0     H17004   0.915   1.937   3.468  1.8877 -1.2857 -0.5519
  126MOL0     H17005   0.810   1.930   3.328 -0.2898  0.0810  0.0868
  126MOL0     H17006   0.599   1.677   3.606 -1.6931  1.7396  0.2149
  126MOL0     H17007   1.162   1.610   2.947  1.4436  1.1052  0.6072
  126MOL0     H17008   1.403   1.458   2.737  3.3552  0.4686  0.5524
  126MOL0     H17009   1.301   1.593   2.756 -0.8713 -0.4694  1.3680
  126MOL0     H17010   1.467   1.615   2.801  1.1103 -1.0911  0.3096
  127MOL0     O17011   5.851   3.787   8.081  0.2166  0.6100  0.4203
  127MOL0     C17012   5.858   3.797   8.202 -0.0954 -1.0296  0.3066
  127MOL0     O17013   5.956   3.735   8.274  0.1522  0.3449  0.3418
  127MOL0     C17014   6.071   3.678   8.226 -0.4756 -0.4087 -0.5792
  127MOL0     C17015   6.126   3.585   8.315  0.9597  0.3222 -0.3730
  127MOL0     C17016   6.243   3.524   8.290 -0.8396 -1.1714 -0.1417
  127MOL0     C17017   6.313   3.546   8.169  0.4866 -0.5388  0.0446
  127MOL0     O17018   6.412   3.455   8.140 -0.3649  0.5854 -0.1751
  127MOL0     C17019   6.532   3.495   8.062 -0.3815 -1.2541  0.3953
  127MOL0     C17020   6.632   3.390   8.075  0.8899 -0.5589 -0.3690
  127MOL0     C17021   6.778   3.430   8.041 -0.6076 -0.4171  1.1800
  127MOL0     C17022   6.810   3.414   7.886 -0.8126  0.1422 -0.5157
  127MOL0     C17023   6.789   3.542   7.810  0.5302 -0.0130 -0.5193
  127MOL0     C17024   6.894   3.566   7.695  0.4130 -0.1183 -0.1118
  127MOL0     C17025   6.847   3.499   7.562 -0.9028  0.2968  0.1571
  127MOL0     C17026   6.927   3.551   7.445  0.0353  1.0634  0.0229
  127MOL0     N17027   6.901   3.692   7.426 -0.2569  0.1336 -0.3498
  127MOL0     C17028   6.809   3.741   7.338  0.1272  1.0405  0.4692
  127MOL0     C17029   6.820   3.867   7.336 -0.6875  0.2212  0.5743
  127MOL0     C17030   6.728   3.968   7.279  0.1629  0.1833  0.3855
  127MOL0     C17031   6.617   4.000   7.378 -0.2398 -1.0264  0.2517
  127MOL0     C17032   6.548   4.134   7.343  0.1856  1.1632 -0.5504
  127MOL0     C17033   6.486   4.122   7.199 -0.3514 -0.2364 -0.3287
  127MOL0     O17034   6.422   4.249   7.176  0.4031  0.0532 -0.2328
  127MOL0     C17035   6.289   4.270   7.190 -0.4613 -0.9499 -0.5141
  127MOL0     C17036   6.229   4.382   7.144  0.4093 -0.2942  0.7007
  127MOL0     C17037   6.091   4.404   7.154 -0.2095  1.3160 -0.3905
  127MOL0     C17038   6.010   4.317   7.235  0.6489 -0.3588  0.3130
  127MOL0     C17039   5.877   4.365   7.278  0.4022 -0.0881  0.3390
  127MOL0     O17040   5.792   4.265   7.319 -0.8364  0.8183 -0.2482
  127MOL0     C17041   5.655   4.286   7.317 -0.4420  0.3027  0.1010
  127MOL0     C17042   5.595   4.399   7.376 -0.7877  0.8502 -0.1956
  127MOL0     C17043   5.455   4.401   7.398  0.3269 -0.4471 -0.3281
  127MOL0     C17044   5.381   4.294   7.349  0.5386 -1.0696  0.0698
  127MOL0     O17045   5.245   4.279   7.369 -0.2070 -0.3028  0.8093
  127MOL0     C17046   5.179   4.357   7.464 -0.0280  0.6386  0.9998
  127MOL0     C17047   5.029   4.314   7.486  0.9169  0.9764  0.3928
  127MOL0     C17048   4.966   4.399   7.591  0.2894 -0.0189 -0.5459
  127MOL0     C17049   4.820   4.376   7.621 -0.2029  0.1517 -0.6728
  127MOL0     C17050   4.773   4.448   7.755 -0.0281 -0.9050 -0.1288
  127MOL0     C17051   4.626   4.480   7.753  0.0861 -0.4443 -0.2651
  127MOL0     C17052   4.596   4.639   7.750 -0.4907  1.1238  0.1794
  127MOL0     C17053   4.449   4.679   7.772  0.5682 -1.1450  0.2212
  127MOL0    Cl17054   4.401   4.637   7.940 -0.2815  0.2938 -0.0843
  127MOL0     C17055   5.438   4.188   7.295 -0.2310  0.3552 -0.1874
  127MOL0     C17056   5.575   4.181   7.281 -0.3028 -0.2550 -0.3569
  127MOL0     O17057   5.853   4.484   7.267  0.5628  0.5961 -0.2928
  127MOL0     C17058   6.075   4.206   7.297 -0.0893  0.5776 -0.4162
  127MOL0     C17059   6.206   4.177   7.262 -0.1870 -0.2503 -0.6303
  127MOL0     N17060   6.929   3.900   7.415 -0.3834 -1.1738 -0.9797
  127MOL0     N17061   6.974   3.795   7.469 -0.2747  0.5393  0.3596
  127MOL0     C17062   6.263   3.635   8.081  0.3562 -0.2114  0.5370
  127MOL0     C17063   6.140   3.710   8.106  0.9173 -0.2567  0.1544
  127MOL0     C17064   5.769   3.889   8.276  0.5567  0.1310  0.8872
  127MOL0     C17065   5.651   3.930   8.208  0.1222 -0.1238  1.1277
  127MOL0     C17066   5.553   4.009   8.259 -0.0920 -0.3516  0.1595
  127MOL0     C17067   5.561   4.051   8.392 -0.1577  1.1019  1.3745
  127MOL0     O17068   5.461   4.120   8.453 -0.1229 -0.5334  0.3642
  127MOL0     C17069   5.337   4.138   8.385  0.5813  0.6310 -0.3118
  127MOL0     C17070   5.233   4.208   8.474  0.3581 -0.1979 -0.3672
  127MOL0     C17071   5.091   4.194   8.411 -0.8393  0.3107 -0.0019
  127MOL0     C17072   5.082   4.294   8.294 -0.1803  0.1943  1.2790
  127MOL0     C17073   4.965   4.275   8.204  0.3672 -0.3582  0.9465
  127MOL0     C17074   4.867   4.282   8.126  0.1325 -0.0068  0.4571
  127MOL0     C17075   5.680   4.013   8.454 -0.5287  0.4025 -0.6631
  127MOL0     C17076   5.779   3.929   8.407  0.1047  0.3204 -0.6854
  127MOL0     C17077   5.896   3.888   8.505 -0.5780  0.4262  0.4944
  127MOL0     H17078   6.077   3.580   8.412  1.9661  1.5501  0.2381
  127MOL0     H17079   6.267   3.438   8.352 -4.2055  1.1984  5.1989
  127MOL0     H17080   6.512   3.513   7.956  2.6272  1.6300  0.1595
  127MOL0     H17081   6.562   3.588   8.110  1.0421 -1.6202  0.2368
  127MOL0     H17082   6.599   3.295   8.031  0.1085 -1.5866  2.2238
  127MOL0     H17083   6.627   3.378   8.183 -1.6492  0.2914 -0.3159
  127MOL0     H17084   6.850   3.377   8.104  1.0775  1.3392  0.8370
  127MOL0     H17085   6.797   3.532   8.074  1.6772 -0.1467 -0.6999
  127MOL0     H17086   6.916   3.387   7.886 -0.6758  0.4961 -2.6081
  127MOL0     H17087   6.754   3.324   7.858 -0.5503 -0.5329  0.9952
  127MOL0     H17088   6.688   3.532   7.770  0.1382  1.7681 -0.0506
  127MOL0     H17089   6.794   3.631   7.874 -1.6945  0.0463 -0.3531
  127MOL0     H17090   6.897   3.674   7.674  1.3981  0.0436  0.7968
  127MOL0     H17091   6.987   3.518   7.726  0.0904 -0.5593  0.1845
  127MOL0     H17092   6.741   3.524   7.547 -0.5200  0.5146 -2.8773
  127MOL0     H17093   6.851   3.391   7.575 -1.2284  0.4180  1.3885
  127MOL0     H17094   7.035   3.546   7.465  0.0490  1.4085  0.0445
  127MOL0     H17095   6.903   3.502   7.351 -0.3477 -0.9780  1.1345
  127MOL0     H17096   6.727   3.698   7.282 -1.3838  2.6035  1.3767
  127MOL0     H17097   6.766   4.065   7.245 -1.9808  0.9544 -0.0068
  127MOL0     H17098   6.692   3.922   7.186 -0.8179 -0.8538  1.2456
  127MOL0     H17099   6.546   3.917   7.371 -1.4000 -0.0842  0.4933
  127MOL0     H17100   6.668   4.004   7.475  0.4415  1.4327 -0.1557
  127MOL0     H17101   6.616   4.217   7.358  1.4944 -0.0819  0.6501
  127MOL0     H17102   6.458   4.126   7.406  0.9776 -1.8526  0.3836
  127MOL0     H17103   6.413   4.041   7.192  0.4203 -0.8037 -4.2878
  127MOL0     H17104   6.563   4.106   7.123 -0.8695  1.6748 -1.3436
  127MOL0     H17105   6.294   4.450   7.090  2.5197 -2.0684  0.8846
  127MOL0     H17106   6.050   4.488   7.099 -3.3022  0.7023  0.7613
  127MOL0     H17107   5.659   4.478   7.413  1.9442 -2.5297  3.1691
  127MOL0     H17108   5.407   4.487   7.443  1.9135  0.7572 -0.8479
  127MOL0     H17109   5.239   4.328   7.550  3.2392  0.2316 -1.2552
  127MOL0     H17110   5.185   4.464   7.444  1.9966  0.7322  1.9304
  127MOL0     H17111   4.979   4.330   7.390  0.7170 -0.4877  0.2345
  127MOL0     H17112   5.022   4.211   7.520  0.7049  0.3992 -1.3053
  127MOL0     H17113   5.019   4.386   7.686  0.9009 -0.6095 -0.9582
  127MOL0     H17114   4.984   4.501   7.557  1.5023 -1.4686 -4.9610
  127MOL0     H17115   4.784   4.273   7.623 -1.9406  0.6109 -3.0931
  127MOL0     H17116   4.775   4.421   7.532  0.0191 -2.2923 -2.1130
  127MOL0     H17117   4.829   4.541   7.769 -2.4056  0.4810  0.6873
  127MOL0     H17118   4.800   4.395   7.847  0.0834 -0.1802  0.2684
  127MOL0     H17119   4.572   4.424   7.677 -3.5427  0.1100  1.7106
  127MOL0     H17120   4.575   4.441   7.842  2.1395  0.6401  1.5149
  127MOL0     H17121   4.627   4.686   7.656 -0.3437  2.5167  0.9017
  127MOL0     H17122   4.658   4.681   7.829 -1.1311  3.7541 -0.6106
  127MOL0     H17123   4.450   4.787   7.755  2.1106 -1.6636 -4.2545
  127MOL0     H17124   4.373   4.641   7.703 -0.2065  0.6494  0.0487
  127MOL0     H17125   5.379   4.111   7.246  1.4923 -0.2896 -1.3826
  127MOL0     H17126   5.603   4.080   7.252 -4.1432 -1.1763 -1.3605
  127MOL0     H17127   6.017   4.140   7.362 -1.4837  1.4261 -0.7502
  127MOL0     H17128   6.248   4.083   7.295  0.6030 -0.4778 -2.1972
  127MOL0     H17129   6.307   3.642   7.982 -1.7492 -1.1785 -0.5590
  127MOL0     H17130   6.095   3.768   8.026  1.2261 -1.0074 -0.5819
  127MOL0     H17131   5.634   3.903   8.104 -1.0968 -0.6167  1.4367
  127MOL0     H17132   5.473   4.037   8.191 -1.1507 -0.9073  1.1268
  127MOL0     H17133   5.288   4.042   8.365 -1.0443  1.3278  0.1398
  127MOL0     H17134   5.349   4.198   8.294 -1.5914 -1.5530 -2.1778
  127MOL0     H17135   5.260   4.313   8.487 -1.0462 -0.0364  1.6126
  127MOL0     H17136   5.236   4.164   8.575 -0.3784 -4.0607 -1.8413
  127MOL0     H17137   5.016   4.214   8.488 -0.7447 -1.0132  0.4669
  127MOL0     H17138   5.073   4.088   8.390 -1.0880  0.0544  1.4484
  127MOL0     H17139   5.071   4.395   8.332  2.6810  1.3302 -0.6005
  127MOL0     H17140   5.172   4.286   8.233  1.1226  0.3309  3.1359
  127MOL0     H17141   4.773   4.276   8.074 -1.0345 -2.9371  2.6544
  127MOL0     H17142   5.701   4.042   8.557  0.9763 -0.7827 -0.6018
  127MOL0     H17143   5.921   3.960   8.583 -0.4223  1.2934 -0.3323
  127MOL0     H17144   5.886   3.784   8.540  2.0864  0.9979  3.3917
  127MOL0     H17145   5.991   3.900   8.452  0.3825 -0.8856  1.8203
  128MOL0     O17146   9.093  10.686   2.178 -0.2326  0.0267  0.3556
  128MOL0     C17147   9.069  10.806   2.164  0.0690 -0.2514  0.8009
  128MOL0     O17148   9.133  10.912   2.220 -0.0215  0.0567 -0.1529
  128MOL0     C17149   9.254  10.886   2.276  0.3142 -0.3532  0.0077
  128MOL0     C17150   9.372  10.932   2.214 -0.2405  0.0398  0.2695
  128MOL0     C17151   9.496  10.920   2.270 -0.4509 -0.5929  0.0036
  128MOL0     C17152   9.506  10.859   2.398 -0.6074 -1.2786 -0.0503
  128MOL0     O17153   9.638  10.866   2.459  0.2845  0.8831 -0.2582
  128MOL0     C17154   9.648  10.813   2.592  0.4211  0.5737 -0.6543
  128MOL0     C17155   9.801  10.816   2.616  0.1928 -0.5634 -0.0677
  128MOL0     C17156   9.855  10.939   2.694 -0.1339  0.1647 -0.4284
  128MOL0     C17157  10.004  10.917   2.713 -0.7938 -0.4316  0.0083
  128MOL0     C17158  10.060  10.991   2.834 -0.1874 -0.1708 -0.7803
  128MOL0     C17159  10.158  11.118   2.797  1.1010 -0.2284 -0.2028
  128MOL0     C17160  10.298  11.077   2.830  0.1384 -0.6562 -0.6648
  128MOL0     C17161  10.396  11.148   2.744 -0.1479 -0.0007  0.1993
  128MOL0     N17162  10.534  11.105   2.775 -0.5121 -0.4286  0.1172
  128MOL0     C17163  10.619  11.157   2.875  0.6124  0.4041 -0.0995
  128MOL0     C17164  10.732  11.086   2.868 -0.2052 -1.0766 -0.1639
  128MOL0     C17165  10.861  11.094   2.945 -0.9610 -0.6268  0.3569
  128MOL0     C17166  10.947  10.959   2.943 -1.3285 -0.5675  1.4838
  128MOL0     C17167  11.086  10.988   3.007  1.4485  0.0084  0.5869
  128MOL0     C17168  11.182  10.877   2.996 -0.2283  0.9638 -0.1031
  128MOL0     O17169  11.317  10.931   3.021 -0.5093 -0.2563  0.4523
  128MOL0     C17170  11.431  10.851   3.007  0.0203  0.1352  0.0163
  128MOL0     C17171  11.557  10.906   3.037  0.3970 -0.4627  0.7518
  128MOL0     C17172  11.674  10.827   3.021 -0.3868  0.2221 -0.5569
  128MOL0     C17173  11.676  10.697   2.981 -0.6990  0.4067 -0.9719
  128MOL0     C17174  11.807  10.628   2.969  0.1726  0.5261 -0.5946
  128MOL0     O17175  11.800  10.487   2.947 -0.2270  0.0910  0.1571
  128MOL0     C17176  11.900  10.389   2.963 -0.5433 -0.1002 -0.4052
  128MOL0     C17177  12.034  10.418   2.981 -0.0397 -0.3070  0.2118
  128MOL0     C17178  12.130  10.324   2.976 -0.0591  0.3671  0.0689
  128MOL0     C17179  12.102  10.186   2.968  0.2166  1.1118  0.1470
  128MOL0     O17180  12.196  10.083   2.971  0.2431  0.2433  0.2557
  128MOL0     C17181  12.337  10.094   2.970  0.1240  0.1097 -0.0757
  128MOL0     C17182  12.379  10.132   3.113 -0.0208  0.0266  0.8330
  128MOL0     C17183  12.526  10.175   3.130 -0.4276 -0.3583  0.5796
  128MOL0     C17184  12.630  10.064   3.093 -0.0194  0.0263 -0.6418
  128MOL0     C17185  12.770  10.120   3.096 -0.3332  0.6983  0.0323
  128MOL0     C17186  12.834  10.157   2.962  0.2095 -0.2934  0.0426
  128MOL0     C17187  12.767  10.273   2.898  0.4312  0.6839 -0.9821
  128MOL0     C17188  12.805  10.411   2.960 -0.3678 -0.4475  0.8910
  128MOL0    Cl17189  12.694  10.541   2.907  0.1076  0.7112  0.1811
  128MOL0     C17190  11.969  10.155   2.961  1.4259  0.2075 -0.1750
  128MOL0     C17191  11.867  10.254   2.952  0.8693 -1.1359 -0.5038
  128MOL0     O17192  11.908  10.691   2.986 -0.0488 -0.7346 -0.9348
  128MOL0     C17193  11.556  10.642   2.957  0.3970  0.4887 -0.6988
  128MOL0     C17194  11.438  10.716   2.967 -0.1025 -0.8524 -0.1353
  128MOL0     N17195  10.716  10.994   2.764  0.0540 -0.6740 -0.0441
  128MOL0     N17196  10.603  11.009   2.706 -0.7796 -0.4486 -0.4855
  128MOL0     C17197   9.390  10.825   2.460  0.7830 -0.0716  0.2769
  128MOL0     C17198   9.264  10.835   2.403  0.1284 -0.4563 -0.8392
  128MOL0     C17199   8.951  10.845   2.082  0.1103 -0.6373  0.0259
  128MOL0     C17200   8.827  10.818   2.137  0.1043  0.6750 -0.0988
  128MOL0     C17201   8.712  10.834   2.070 -0.0902  0.8225 -0.2055
  128MOL0     C17202   8.703  10.886   1.948  0.1657 -0.4564 -0.9520
  128MOL0     O17203   8.578  10.895   1.881 -0.0792  0.1870 -0.3452
  128MOL0     C17204   8.572  10.903   1.734  0.2415 -0.3014  0.3833
  128MOL0     C17205   8.440  10.839   1.689 -0.1075  0.0833 -0.2201
  128MOL0     C17206   8.438  10.835   1.538  0.1085 -0.0624  0.0699
  128MOL0     C17207   8.292  10.832   1.484 -0.5149 -0.2420 -0.2952
  128MOL0     C17208   8.228  10.708   1.530 -0.5087  0.8468  0.0841
  128MOL0     C17209   8.183  10.597   1.563 -0.0272  0.5617 -0.1690
  128MOL0     C17210   8.822  10.928   1.892  0.3825  0.0950 -0.3405
  128MOL0     C17211   8.951  10.913   1.951  0.6660  1.8116 -0.0328
  128MOL0     C17212   9.068  10.945   1.875 -0.2050 -0.5804 -0.9528
  128MOL0     H17213   9.379  10.982   2.118 -2.6542 -1.6524 -0.9018
  128MOL0     H17214   9.577  10.971   2.220 -1.7190  2.3564  0.7149
  128MOL0     H17215   9.598  10.858   2.678 -0.8576 -0.6405 -0.7235
  128MOL0     H17216   9.630  10.705   2.593  1.5901  0.3578  0.4616
  128MOL0     H17217   9.849  10.803   2.519  2.3048  0.8062  0.7384
  128MOL0     H17218   9.822  10.726   2.675 -1.3739 -0.7539  0.2564
  128MOL0     H17219   9.807  10.945   2.792  1.3255  0.1261  0.3169
  128MOL0     H17220   9.827  11.031   2.641 -0.7178 -1.3951 -3.0175
  128MOL0     H17221  10.023  10.810   2.727 -1.9096 -0.4366  1.7885
  128MOL0     H17222  10.064  10.944   2.626 -1.1617  0.1327 -0.0695
  128MOL0     H17223   9.974  11.041   2.880  0.8204  1.0173 -0.1514
  128MOL0     H17224  10.107  10.927   2.909  1.5151  2.0465  0.1642
  128MOL0     H17225  10.151  11.149   2.692 -0.1476  1.1334  0.2452
  128MOL0     H17226  10.125  11.208   2.850  2.1010  2.3951 -3.6719
  128MOL0     H17227  10.319  10.971   2.809  0.8037 -0.1297 -3.0159
  128MOL0     H17228  10.317  11.108   2.933 -3.2472 -0.0801 -0.0908
  128MOL0     H17229  10.361  11.122   2.644 -1.8403 -5.2481  1.8340
  128MOL0     H17230  10.388  11.256   2.760  4.6974  0.6387 -0.1784
  128MOL0     H17231  10.595  11.223   2.957  0.1969 -1.9229  1.7438
  128MOL0     H17232  10.932  11.164   2.900  0.9142 -2.7021 -0.1429
  128MOL0     H17233  10.853  11.104   3.054  1.8882 -3.5967  1.0179
  128MOL0     H17234  10.897  10.887   3.009  0.4400 -2.5211  0.8229
  128MOL0     H17235  10.953  10.915   2.843 -1.8786 -0.1210  1.2514
  128MOL0     H17236  11.065  11.010   3.112 -1.7642 -0.9686  0.2756
  128MOL0     H17237  11.131  11.074   2.956  0.4348  0.4343  0.3895
  128MOL0     H17238  11.182  10.831   2.897  0.3154 -0.1292  0.3829
  128MOL0     H17239  11.169  10.801   3.074 -0.5016  0.5900 -0.5088
  128MOL0     H17240  11.563  11.012   3.059  1.4957 -0.4361  0.3419
  128MOL0     H17241  11.766  10.875   3.054  0.3663 -0.7555 -1.1932
  128MOL0     H17242  12.065  10.522   2.983 -3.2594  0.8008 -1.1031
  128MOL0     H17243  12.234  10.355   2.986  0.9098 -1.2222 -3.5138
  128MOL0     H17244  12.381   9.999   2.941  0.0622  0.3501 -1.0111
  128MOL0     H17245  12.365  10.172   2.899  1.0917  1.0539  1.2920
  128MOL0     H17246  12.318  10.213   3.153  1.1180  3.0765 -3.0081
  128MOL0     H17247  12.353  10.052   3.184 -3.4005 -0.2543 -0.5257
  128MOL0     H17248  12.551  10.260   3.066  0.0537 -2.1872 -1.7915
  128MOL0     H17249  12.544  10.212   3.231  1.8922 -2.1206  0.8898
  128MOL0     H17250  12.606  10.016   2.997  0.6637  0.3238 -0.9709
  128MOL0     H17251  12.627   9.986   3.170 -0.1891 -0.1940 -0.8706
  128MOL0     H17252  12.832  10.034   3.125  1.3553  1.4553 -1.1770
  128MOL0     H17253  12.784  10.205   3.163  0.1606  0.4767  0.2173
  128MOL0     H17254  12.937  10.184   2.987  0.9026 -1.4592 -1.3876
  128MOL0     H17255  12.832  10.073   2.891 -2.2515  0.3723 -0.7446
  128MOL0     H17256  12.660  10.251   2.893  0.8167 -1.2395 -1.7456
  128MOL0     H17257  12.798  10.272   2.793  1.2190 -0.2339 -0.7540
  128MOL0     H17258  12.784  10.412   3.068 -3.2150  0.8969  0.4226
  128MOL0     H17259  12.909  10.431   2.931 -1.9162  2.5089 -3.6574
  128MOL0     H17260  11.928  10.056   2.947  2.7443 -0.7969  2.4387
  128MOL0     H17261  11.763  10.223   2.955  0.5194  0.0293  0.3440
  128MOL0     H17262  11.552  10.540   2.919  1.8273 -0.3374  1.1810
  128MOL0     H17263  11.346  10.667   2.937 -0.0099 -1.4370  0.5171
  128MOL0     H17264   9.406  10.795   2.563  1.6497  1.5227  0.6373
  128MOL0     H17265   9.181  10.817   2.470 -1.5351  1.7352 -2.1883
  128MOL0     H17266   8.836  10.770   2.233  2.6503 -0.3779 -0.7747
  128MOL0     H17267   8.628  10.793   2.127  0.5291 -0.3335 -0.0866
  128MOL0     H17268   8.664  10.861   1.693  0.5499  0.7706 -0.0715
  128MOL0     H17269   8.586  11.007   1.705  0.9500 -0.7982 -1.1874
  128MOL0     H17270   8.354  10.894   1.727 -0.2636 -0.2963 -0.0261
  128MOL0     H17271   8.444  10.736   1.725  1.0569 -0.6211 -2.2045
  128MOL0     H17272   8.487  10.743   1.507  1.0152 -0.0760  1.4724
  128MOL0     H17273   8.490  10.923   1.500  0.1416  0.3545  1.0358
  128MOL0     H17274   8.234  10.919   1.516 -0.1079 -0.1881  0.2940
  128MOL0     H17275   8.287  10.828   1.374 -2.9283 -0.7714 -0.2247
  128MOL0     H17276   8.158  10.495   1.585  0.6755  0.1654 -1.1511
  128MOL0     H17277   8.814  10.974   1.794 -1.0297 -1.3105 -0.9235
  128MOL0     H17278   9.066  11.054   1.863 -1.4863 -0.4517  0.2103
  128MOL0     H17279   9.153  10.917   1.937 -1.1187  0.7623  1.0059
  128MOL0     H17280   9.069  10.900   1.775  0.6322 -6.0665  1.1968
  129MOL0     O17281   5.615   0.806  10.264  0.6445  0.1376  0.4892
  129MOL0     C17282   5.672   0.906  10.212  0.4499  0.1624  0.3729
  129MOL0     O17283   5.792   0.904  10.127 -0.3106 -0.0689 -0.1153
  129MOL0     C17284   5.837   0.775  10.106  0.8663 -0.2416 -0.1976
  129MOL0     C17285   5.900   0.696  10.210 -0.4657  0.5665  0.0570
  129MOL0     C17286   5.951   0.574  10.169 -0.5379 -0.3965 -1.2173
  129MOL0     C17287   5.946   0.523  10.037 -0.4033  0.3247  0.2998
  129MOL0     O17288   5.978   0.395   9.997  0.6021 -0.1686  0.2728
  129MOL0     C17289   6.006   0.296  10.100  0.1111 -0.4283 -0.3744
  129MOL0     C17290   6.025   0.154  10.044  0.2064  0.9497 -0.0280
  129MOL0     C17291   5.898   0.110   9.983  0.8688 -0.0783 -0.0396
  129MOL0     C17292   5.903  -0.035   9.947  0.4055 -0.3122  0.0349
  129MOL0     C17293   5.764  -0.081   9.895  0.7447 -0.1930  0.6922
  129MOL0     C17294   5.739  -0.223   9.848  0.0881  0.4605  0.2669
  129MOL0     C17295   5.624  -0.244   9.744  0.0173  0.5247  0.3397
  129MOL0     C17296   5.640  -0.384   9.664 -0.3558 -0.4452 -0.4205
  129MOL0     N17297   5.633  -0.495   9.762  0.3407 -0.3650 -0.0547
  129MOL0     C17298   5.743  -0.560   9.819  0.4418 -0.3276  0.4388
  129MOL0     C17299   5.689  -0.626   9.922  0.5733  0.0757  0.0840
  129MOL0     C17300   5.763  -0.720  10.011  1.0739 -0.0342  0.3980
  129MOL0     C17301   5.874  -0.650  10.088  0.7947 -0.2100 -0.4746
  129MOL0     C17302   5.822  -0.558  10.200  0.7304 -0.4737 -0.3477
  129MOL0     C17303   5.936  -0.477  10.272  0.0110 -0.7776 -0.1118
  129MOL0     O17304   5.982  -0.386  10.172  0.8222 -0.4658 -0.8204
  129MOL0     C17305   6.093  -0.307  10.190 -1.5787  0.4582 -0.1495
  129MOL0     C17306   6.191  -0.293  10.094 -0.5942  0.1696 -0.3114
  129MOL0     C17307   6.297  -0.203  10.106 -0.1954 -0.3111 -0.3770
  129MOL0     C17308   6.301  -0.121  10.212 -0.2818 -0.0025 -0.5209
  129MOL0     C17309   6.412  -0.025  10.241 -0.3996 -0.7378 -0.5641
  129MOL0     O17310   6.397   0.058  10.347 -0.7559  0.4615  0.0870
  129MOL0     C17311   6.481   0.172  10.345 -0.7878 -0.2628 -0.6007
  129MOL0     C17312   6.535   0.203  10.475  1.2553  0.6540  0.4303
  129MOL0     C17313   6.621   0.316  10.479 -0.0548  0.3747 -0.6576
  129MOL0     C17314   6.650   0.398  10.366  0.5325  0.2093 -1.1919
  129MOL0     O17315   6.728   0.512  10.385 -0.0462  0.2391  0.1722
  129MOL0     C17316   6.707   0.633  10.311 -0.5258 -0.7151  0.0427
  129MOL0     C17317   6.794   0.750  10.372 -0.2220  0.5528  0.6723
  129MOL0     C17318   6.773   0.873  10.289  0.2756  0.6170 -0.5677
  129MOL0     C17319   6.881   0.969  10.331  0.4603 -0.0167 -0.1781
  129MOL0     C17320   6.897   1.079  10.230 -0.2290 -0.3995  0.0679
  129MOL0     C17321   6.766   1.142  10.175 -0.3893  0.2918 -0.1496
  129MOL0     C17322   6.740   1.270  10.253  0.5522  0.8202  0.3081
  129MOL0     C17323   6.704   1.240  10.395 -0.1383 -0.5333  0.0162
  129MOL0    Cl17324   6.628   1.378  10.479  0.3115 -0.5105 -0.4083
  129MOL0     C17325   6.579   0.369  10.249  0.6122 -0.4678 -0.1043
  129MOL0     C17326   6.501   0.255  10.235  0.9821  0.0766  0.7640
  129MOL0     O17327   6.518  -0.048  10.185  0.0192  0.0993 -0.0959
  129MOL0     C17328   6.202  -0.134  10.314 -0.5410 -0.5736 -0.4772
  129MOL0     C17329   6.101  -0.230  10.302  0.1369 -0.6726 -0.1957
  129MOL0     N17330   5.550  -0.621   9.919 -0.2804  0.3498 -0.3630
  129MOL0     N17331   5.517  -0.536   9.824  0.4857 -0.6639  0.0451
  129MOL0     C17332   5.906   0.606   9.931  0.3555  0.5118 -0.4021
  129MOL0     C17333   5.836   0.723   9.968  0.7671  0.2099  0.4506
  129MOL0     C17334   5.612   1.038  10.255  0.3425 -0.3615  0.2670
  129MOL0     C17335   5.477   1.055  10.267 -0.3633  0.2027  0.3466
  129MOL0     C17336   5.417   1.179  10.273  0.0669  0.5839  0.7550
  129MOL0     C17337   5.498   1.293  10.275 -0.6158 -0.8686 -0.3923
  129MOL0     O17338   5.462   1.427  10.288  0.0262 -0.2060  0.4519
  129MOL0     C17339   5.327   1.462  10.301  0.1546  0.0796 -0.2770
  129MOL0     C17340   5.255   1.418  10.439 -0.1176  0.3777 -0.1364
  129MOL0     C17341   5.331   1.474  10.559 -0.3950  0.3369 -0.2353
  129MOL0     C17342   5.244   1.447  10.683 -0.8178  0.1232  0.2509
  129MOL0     C17343   5.240   1.300  10.719  0.4914 -0.3130 -0.5165
  129MOL0     C17344   5.239   1.193  10.775 -0.1716 -0.4064  0.4826
  129MOL0     C17345   5.636   1.275  10.278 -0.9139  0.0029  0.0984
  129MOL0     C17346   5.695   1.148  10.276 -1.0429 -0.3629 -1.0279
  129MOL0     C17347   5.834   1.130  10.315  0.0677  0.1010 -0.1618
  129MOL0     H17348   5.911   0.731  10.312 -1.0363  0.6129  0.1047
  129MOL0     H17349   5.989   0.515  10.251  1.9175  1.7006 -0.7116
  129MOL0     H17350   6.100   0.321  10.150  0.4576 -0.5545 -0.9468
  129MOL0     H17351   5.920   0.291  10.167  1.1151 -2.1504  0.8732
  129MOL0     H17352   6.055   0.083  10.122  0.6133  0.4346 -0.6444
  129MOL0     H17353   6.106   0.142   9.972 -1.5976 -0.5299 -1.9832
  129MOL0     H17354   5.870   0.176   9.900 -0.2831  0.7983  0.9988
  129MOL0     H17355   5.816   0.118  10.056 -0.1122 -1.3237 -0.9653
  129MOL0     H17356   5.987  -0.052   9.879  0.3543  0.1183 -0.1401
  129MOL0     H17357   5.920  -0.093  10.038  0.4001 -0.3932 -0.0164
  129MOL0     H17358   5.694  -0.069   9.978 -1.3438 -0.7777 -0.8971
  129MOL0     H17359   5.729  -0.007   9.822 -0.7761  0.1031  1.6659
  129MOL0     H17360   5.834  -0.237   9.794  0.3124  1.6924  0.3180
  129MOL0     H17361   5.736  -0.297   9.930 -1.4297 -1.1784 -1.1943
  129MOL0     H17362   5.635  -0.164   9.670 -0.7690  0.7798  0.4915
  129MOL0     H17363   5.525  -0.232   9.789 -0.0966 -1.7889  0.8083
  129MOL0     H17364   5.557  -0.403   9.595  0.9531  1.2546 -2.6073
  129MOL0     H17365   5.738  -0.381   9.614  1.2128  0.7396  2.4850
  129MOL0     H17366   5.846  -0.564   9.784  0.3831 -1.4446  0.3496
  129MOL0     H17367   5.681  -0.756  10.073 -1.8400  1.5351 -2.2185
  129MOL0     H17368   5.808  -0.811   9.970  0.9162 -0.3725  0.9651
  129MOL0     H17369   5.946  -0.725  10.123  1.8773  1.3944  0.8585
  129MOL0     H17370   5.935  -0.593  10.017 -0.4206  3.3191  1.1130
  129MOL0     H17371   5.785  -0.625  10.278  4.6844 -1.5751  0.8216
  129MOL0     H17372   5.743  -0.490  10.167  1.2421  0.1403 -0.3111
  129MOL0     H17373   6.013  -0.549  10.300  0.9158 -0.9695 -2.8202
  129MOL0     H17374   5.896  -0.429  10.362 -2.6783  0.0721 -1.6209
  129MOL0     H17375   6.198  -0.360  10.009  2.3037  0.6582 -0.5660
  129MOL0     H17376   6.377  -0.202  10.032  0.6682  0.2092  0.5461
  129MOL0     H17377   6.523   0.135  10.559 -1.6939  1.4613  0.7744
  129MOL0     H17378   6.682   0.338  10.566 -1.5247 -0.8805  0.7424
  129MOL0     H17379   6.735   0.618  10.207  0.7173  3.1220 -0.3054
  129MOL0     H17380   6.601   0.658  10.317  0.1127  1.9790  2.0979
  129MOL0     H17381   6.768   0.772  10.476  2.1116  2.5414  0.9225
  129MOL0     H17382   6.900   0.725  10.363  0.5777  4.0097 -1.0476
  129MOL0     H17383   6.788   0.861  10.181  0.7483 -0.6147 -0.3838
  129MOL0     H17384   6.675   0.914  10.315 -0.5511 -3.2111  3.3631
  129MOL0     H17385   6.978   0.922  10.348  0.5245  0.9902  2.9167
  129MOL0     H17386   6.858   1.017  10.427 -1.3209  1.0701 -1.0914
  129MOL0     H17387   6.951   1.047  10.140 -1.3523  1.6886 -1.4379
  129MOL0     H17388   6.971   1.150  10.269 -0.8161  1.8420 -2.6122
  129MOL0     H17389   6.778   1.170  10.070 -1.2230 -0.3007 -0.4093
  129MOL0     H17390   6.677   1.078  10.177  0.4239 -1.0769 -3.0084
  129MOL0     H17391   6.647   1.312  10.214 -0.2463 -2.6436 -1.9413
  129MOL0     H17392   6.826   1.337  10.241 -0.2557  1.4358 -2.8913
  129MOL0     H17393   6.630   1.159  10.397 -3.1787  2.0336  0.2842
  129MOL0     H17394   6.796   1.214  10.447  0.4769  1.0020 -0.2789
  129MOL0     H17395   6.586   0.440  10.167 -0.9098 -0.6669 -0.4385
  129MOL0     H17396   6.445   0.226  10.147 -2.3708  0.8263  2.4758
  129MOL0     H17397   6.181  -0.072  10.400 -3.9252 -1.2014 -0.7258
  129MOL0     H17398   6.029  -0.235  10.383 -0.4015 -2.4799 -0.7325
  129MOL0     H17399   5.925   0.561   9.834 -0.1463 -0.1149 -0.2181
  129MOL0     H17400   5.797   0.776   9.881  1.0810 -0.7395 -0.2907
  129MOL0     H17401   5.415   0.966  10.255  0.7514 -0.7297  1.2938
  129MOL0     H17402   5.309   1.190  10.265 -0.0171 -0.7952 -5.1414
  129MOL0     H17403   5.273   1.418  10.217  0.7160  0.6018 -0.9177
  129MOL0     H17404   5.327   1.571  10.291  4.3160  0.5105  2.3410
  129MOL0     H17405   5.255   1.308  10.441  0.0267  0.3743 -0.3853
  129MOL0     H17406   5.150   1.447  10.446  0.0321  1.1839 -1.1705
  129MOL0     H17407   5.341   1.582  10.542  0.7296  0.3256  0.2592
  129MOL0     H17408   5.434   1.444  10.579 -0.5715  1.5562  3.2636
  129MOL0     H17409   5.285   1.504  10.767  1.4084 -1.3654  0.2566
  129MOL0     H17410   5.148   1.497  10.667  0.5890  3.4090  1.2257
  129MOL0     H17411   5.227   1.101  10.828 -1.5380 -0.4846  0.0730
  129MOL0     H17412   5.695   1.364  10.297 -0.8352 -0.1126  0.4074
  129MOL0     H17413   5.874   1.230  10.337  0.2220  0.0429 -0.1756
  129MOL0     H17414   5.832   1.061  10.399 -0.8345 -2.4932 -2.1661
  129MOL0     H17415   5.898   1.095  10.233  1.8155  2.2262  0.1720
  130MOL0     O17416   6.766   3.881   8.908 -0.0606  0.4620  0.1173
  130MOL0     C17417   6.680   3.939   8.835 -0.1997  0.6292 -0.4576
  130MOL0     O17418   6.679   3.942   8.701 -0.2436  0.5880  0.0045
  130MOL0     C17419   6.803   3.923   8.637  0.1787  1.0101 -0.6728
  130MOL0     C17420   6.873   4.036   8.598 -0.6150  0.3049  0.3767
  130MOL0     C17421   7.001   4.013   8.544  0.6969  0.2010  0.8014
  130MOL0     C17422   7.048   3.883   8.507 -0.1417 -0.2912  0.1153
  130MOL0     O17423   7.166   3.849   8.453 -0.4028 -0.0305  0.3243
  130MOL0     C17424   7.242   3.948   8.392  0.5292  0.5615 -0.1947
  130MOL0     C17425   7.372   3.889   8.327  0.4046  0.1295  0.5324
  130MOL0     C17426   7.341   3.791   8.217  0.2919  0.4978 -0.2559
  130MOL0     C17427   7.458   3.700   8.179 -0.4481  0.6815  0.0146
  130MOL0     C17428   7.570   3.776   8.097  0.4137  0.7018 -1.1963
  130MOL0     C17429   7.675   3.684   8.052 -0.5502  0.3900  0.0795
  130MOL0     C17430   7.788   3.774   7.996 -0.1809  0.7072 -0.8648
  130MOL0     C17431   7.931   3.714   7.983 -0.1656 -1.1589 -0.2605
  130MOL0     N17432   8.024   3.773   8.090 -0.3650 -0.5660 -0.5232
  130MOL0     C17433   8.128   3.876   8.065 -0.2804  0.6009 -0.1127
  130MOL0     C17434   8.191   3.884   8.186  0.7916  0.1001 -0.1890
  130MOL0     C17435   8.299   3.987   8.208 -0.0446 -0.3271  0.4014
  130MOL0     C17436   8.375   3.965   8.336  0.0454 -0.2250 -0.3400
  130MOL0     C17437   8.491   4.072   8.352 -0.5050 -0.4836  0.0189
  130MOL0     C17438   8.600   4.067   8.255  0.5848  0.4291  0.6813
  130MOL0     O17439   8.687   4.186   8.250 -1.0230  0.1521  0.3808
  130MOL0     C17440   8.813   4.171   8.298  0.1354 -0.4097  0.0655
  130MOL0     C17441   8.857   4.109   8.421 -0.2515 -0.2306  0.6706
  130MOL0     C17442   8.986   4.125   8.470 -0.9127 -0.2079  0.3685
  130MOL0     C17443   9.077   4.203   8.393  0.6560 -0.4329  0.5569
  130MOL0     C17444   9.217   4.210   8.419  0.3255  0.6406  0.3434
  130MOL0     O17445   9.299   4.263   8.338 -0.5160  0.2376 -0.1813
  130MOL0     C17446   9.434   4.257   8.350  0.1893  0.4122  0.0877
  130MOL0     C17447   9.509   4.266   8.470 -0.4168  0.4551  0.0620
  130MOL0     C17448   9.647   4.253   8.470  0.3385  0.4215  0.8028
  130MOL0     C17449   9.714   4.254   8.345  0.1911  0.3736 -0.6305
  130MOL0     O17450   9.845   4.223   8.347  0.2654  0.0942  0.0618
  130MOL0     C17451   9.925   4.306   8.427  0.1055 -0.4845  0.3145
  130MOL0     C17452  10.072   4.263   8.406  0.8053  0.1432 -0.9034
  130MOL0     C17453  10.116   4.300   8.264  0.3859  0.7680 -0.0211
  130MOL0     C17454  10.272   4.304   8.255 -0.1215 -0.1559 -0.8955
  130MOL0     C17455  10.337   4.332   8.122  0.0319 -0.5532  0.7543
  130MOL0     C17456  10.313   4.475   8.065  0.8030 -0.4638 -0.3684
  130MOL0     C17457  10.415   4.503   7.952  0.2474 -0.2082  0.0968
  130MOL0     C17458  10.344   4.521   7.815 -0.1488 -0.3546  0.0630
  130MOL0    Cl17459  10.471   4.537   7.695  0.4328  0.0569  0.3570
  130MOL0     C17460   9.643   4.247   8.223 -0.1535  0.1080  0.3513
  130MOL0     C17461   9.502   4.242   8.226  0.2345  0.1775 -0.0537
  130MOL0     O17462   9.250   4.149   8.528  0.1774 -0.4016  0.6419
  130MOL0     C17463   9.037   4.269   8.276 -0.1697 -0.8267 -0.4836
  130MOL0     C17464   8.907   4.255   8.228  0.0861  0.9050 -0.2730
  130MOL0     N17465   8.143   3.783   8.270  0.4595 -0.2596 -0.5701
  130MOL0     N17466   8.046   3.719   8.211 -0.8496  0.4820 -0.2340
  130MOL0     C17467   6.975   3.780   8.541  0.7824  0.5764 -0.2487
  130MOL0     C17468   6.856   3.793   8.609  0.1212 -0.6350 -0.1509
  130MOL0     C17469   6.580   4.013   8.910  0.4740  0.9591  0.5425
  130MOL0     C17470   6.547   4.139   8.864 -0.7201 -0.5945 -0.4627
  130MOL0     C17471   6.472   4.233   8.933 -0.4638 -0.0115  0.7133
  130MOL0     C17472   6.416   4.204   9.055 -0.3988 -0.0737  0.3217
  130MOL0     O17473   6.334   4.289   9.117  0.1166  0.4303 -0.7960
  130MOL0     C17474   6.234   4.253   9.212  0.0930  0.1294 -0.2876
  130MOL0     C17475   6.115   4.188   9.139 -0.2599 -0.3140 -0.5170
  130MOL0     C17476   6.034   4.276   9.044 -0.1383 -0.2459  0.1839
  130MOL0     C17477   5.913   4.202   9.003 -0.8012  0.2199  0.5252
  130MOL0     C17478   5.821   4.202   9.123  0.2757  0.6679 -0.1269
  130MOL0     C17479   5.741   4.191   9.214  0.2205 -0.8597  0.5212
  130MOL0     C17480   6.440   4.072   9.108 -0.0530  0.0916 -0.4007
  130MOL0     C17481   6.520   3.976   9.036  0.1600 -0.2543  0.2761
  130MOL0     C17482   6.525   3.842   9.091 -0.3471 -0.0873  1.0151
  130MOL0     H17483   6.843   4.137   8.623 -1.1774 -0.1202  1.5217
  130MOL0     H17484   7.074   4.093   8.533  1.0616 -0.2867 -0.5094
  130MOL0     H17485   7.185   4.011   8.323 -0.7210 -2.0876 -1.7077
  130MOL0     H17486   7.286   4.022   8.461 -1.9799  2.9963 -1.0470
  130MOL0     H17487   7.431   3.843   8.406  1.5194 -1.8045 -1.3096
  130MOL0     H17488   7.440   3.969   8.295  2.6802 -0.8548  2.6378
  130MOL0     H17489   7.302   3.852   8.135  0.7786 -0.2926 -1.0975
  130MOL0     H17490   7.255   3.729   8.247 -0.0401  1.4013  0.7053
  130MOL0     H17491   7.508   3.650   8.262  1.3266 -1.7380 -2.3867
  130MOL0     H17492   7.416   3.624   8.113 -0.2861  1.2230 -0.7222
  130MOL0     H17493   7.528   3.828   8.010  1.7642  5.1869  0.5231
  130MOL0     H17494   7.594   3.857   8.167  1.2643 -1.1339  0.7173
  130MOL0     H17495   7.705   3.626   8.140 -1.8352 -1.3705 -0.5757
  130MOL0     H17496   7.638   3.619   7.972 -0.4485  0.2499  0.1464
  130MOL0     H17497   7.800   3.866   8.053  0.8671 -1.1666  2.1974
  130MOL0     H17498   7.759   3.800   7.894 -0.2235 -0.8910 -1.3019
  130MOL0     H17499   7.927   3.606   7.999  0.3040 -1.4532 -1.9922
  130MOL0     H17500   7.971   3.735   7.883  0.1891  1.9982  0.4259
  130MOL0     H17501   8.146   3.941   7.980  2.1414  0.9018  0.5760
  130MOL0     H17502   8.361   3.996   8.118 -3.4623  0.0888 -2.1160
  130MOL0     H17503   8.251   4.085   8.198 -1.8534 -1.1451  0.6539
  130MOL0     H17504   8.308   3.962   8.423 -2.2261 -1.4049 -2.0186
  130MOL0     H17505   8.414   3.862   8.333  0.8533  0.0405  0.5661
  130MOL0     H17506   8.537   4.053   8.449 -3.5280 -0.7373  1.5248
  130MOL0     H17507   8.450   4.173   8.355  0.2161 -0.1827  0.0039
  130MOL0     H17508   8.544   4.062   8.161 -0.8517 -3.1344  1.5476
  130MOL0     H17509   8.651   3.971   8.260  0.7358 -0.2956 -6.0571
  130MOL0     H17510   8.778   4.057   8.473 -1.9151 -1.1150 -2.5051
  130MOL0     H17511   9.007   4.091   8.571 -4.0985 -2.2067  0.5047
  130MOL0     H17512   9.466   4.273   8.569  0.6684 -1.2714  0.6977
  130MOL0     H17513   9.686   4.240   8.570 -1.3054  2.5807  1.8253
  130MOL0     H17514   9.908   4.414   8.427 -1.1044 -0.6460  1.6700
  130MOL0     H17515   9.903   4.272   8.529  1.5928 -3.5416 -0.2548
  130MOL0     H17516  10.139   4.303   8.483  0.0341 -2.5829  1.3589
  130MOL0     H17517  10.081   4.155   8.417 -1.3757  0.1749  5.0674
  130MOL0     H17518  10.057   4.246   8.189  1.6007 -1.1962  0.3880
  130MOL0     H17519  10.076   4.400   8.240 -0.3276  0.0288 -2.1973
  130MOL0     H17520  10.303   4.202   8.278  1.0955  0.4184  0.1245
  130MOL0     H17521  10.307   4.368   8.336 -2.0593 -0.7428  0.4679
  130MOL0     H17522  10.291   4.263   8.050  4.0369 -2.3485 -0.3277
  130MOL0     H17523  10.444   4.311   8.132  0.1834  0.3240  1.0134
  130MOL0     H17524  10.209   4.485   8.032  0.8035  0.8672 -0.0371
  130MOL0     H17525  10.320   4.539   8.153  0.1622 -2.5167  1.2731
  130MOL0     H17526  10.482   4.418   7.940 -0.1413 -0.3599 -1.0697
  130MOL0     H17527  10.467   4.596   7.978 -0.0584  0.3116 -1.0839
  130MOL0     H17528  10.268   4.444   7.798 -2.9468  2.0275  0.8532
  130MOL0     H17529  10.287   4.615   7.809 -0.5582 -0.6129 -0.1696
  130MOL0     H17530   9.704   4.238   8.134  0.3500  1.7011  0.5134
  130MOL0     H17531   9.453   4.233   8.130  1.7895  0.0309 -0.8574
  130MOL0     H17532   9.103   4.324   8.211 -0.9833  0.7607 -0.0084
  130MOL0     H17533   8.874   4.307   8.139 -0.5186 -1.3458 -1.4168
  130MOL0     H17534   6.993   3.678   8.510 -3.2291  0.0591 -1.3430
  130MOL0     H17535   6.797   3.708   8.639 -2.4381  0.9833 -0.2322
  130MOL0     H17536   6.585   4.159   8.764  1.8554 -0.5361  0.4562
  130MOL0     H17537   6.452   4.333   8.895  1.1420  0.7700  1.7645
  130MOL0     H17538   6.195   4.347   9.252  0.8370 -0.1943  1.2816
  130MOL0     H17539   6.271   4.190   9.294 -0.4606 -1.9372 -1.5547
  130MOL0     H17540   6.043   4.150   9.213 -1.6091 -1.1726 -2.1817
  130MOL0     H17541   6.147   4.097   9.087 -3.7728 -1.8139 -0.3166
  130MOL0     H17542   6.100   4.286   8.957  0.1809 -2.6754  0.0515
  130MOL0     H17543   6.005   4.372   9.088 -0.9520 -1.7237  3.1750
  130MOL0     H17544   5.856   4.237   8.917 -0.8633 -0.8264  0.1300
  130MOL0     H17545   5.943   4.103   8.968  1.5861  0.8819  0.5689
  130MOL0     H17546   5.660   4.188   9.284 -0.8044 -0.1574 -0.5932
  130MOL0     H17547   6.414   4.061   9.213  1.3537 -0.4122 -0.0810
  130MOL0     H17548   6.546   3.760   9.022  2.2576  0.0053  1.6084
  130MOL0     H17549   6.609   3.839   9.161  0.7567 -0.3523 -0.2815
  130MOL0     H17550   6.433   3.812   9.141 -1.1936 -1.5961 -1.2830
  131MOL0     O17551   1.677   9.388   9.124  0.3161 -0.0720  0.8086
  131MOL0     C17552   1.678   9.270   9.155  0.2225 -0.0377 -0.3513
  131MOL0     O17553   1.733   9.165   9.083  0.1372 -0.0097 -1.2353
  131MOL0     C17554   1.810   9.195   8.974 -0.1441 -0.1881  0.0105
  131MOL0     C17555   1.913   9.290   8.974  0.2505  0.6107  0.3259
  131MOL0     C17556   1.979   9.328   8.854 -0.4040 -0.0123 -0.9959
  131MOL0     C17557   1.961   9.253   8.746  0.3029 -1.2559  1.3888
  131MOL0     O17558   2.022   9.271   8.623  0.3329 -0.0341 -0.2302
  131MOL0     C17559   2.107   9.384   8.599  0.1749  0.6377 -1.2189
  131MOL0     C17560   2.164   9.393   8.453  0.1582 -0.2490  0.0172
  131MOL0     C17561   2.285   9.295   8.432  1.1339  0.2418  0.5172
  131MOL0     C17562   2.297   9.258   8.283 -0.0566 -0.3237  0.1310
  131MOL0     C17563   2.183   9.165   8.234  0.1481  0.4810  0.2057
  131MOL0     C17564   2.193   9.164   8.078 -0.4671 -1.0024  0.5401
  131MOL0     C17565   2.315   9.087   8.030  0.2705  0.2651 -0.2612
  131MOL0     C17566   2.305   9.065   7.881 -0.5722  0.1818 -0.0779
  131MOL0     N17567   2.174   8.991   7.853  0.1498 -1.4688 -0.4219
  131MOL0     C17568   2.142   8.862   7.899 -0.6730 -0.3334  0.1426
  131MOL0     C17569   2.018   8.845   7.850  0.0132  0.0332  0.1827
  131MOL0     C17570   1.945   8.709   7.856  0.5368  0.2468 -0.1545
  131MOL0     C17571   1.996   8.614   7.964  0.3070 -0.6559 -0.7661
  131MOL0     C17572   1.908   8.492   7.973 -0.1837  0.7166 -0.8220
  131MOL0     C17573   1.921   8.397   7.849 -0.2755 -0.8689 -0.0778
  131MOL0     O17574   2.054   8.399   7.789 -0.2439 -0.4334 -0.1326
  131MOL0     C17575   2.067   8.341   7.665  0.7473  0.1170 -0.3459
  131MOL0     C17576   2.190   8.360   7.603 -0.1180  0.5727  0.2923
  131MOL0     C17577   2.216   8.312   7.478 -0.3377  0.2065 -0.5268
  131MOL0     C17578   2.117   8.250   7.407 -0.4325  0.8635  0.3608
  131MOL0     C17579   2.130   8.219   7.262 -0.8200  0.2240  0.6962
  131MOL0     O17580   2.253   8.253   7.199  0.4427 -0.5112  0.0396
  131MOL0     C17581   2.262   8.229   7.068  0.0188 -0.1504  0.4922
  131MOL0     C17582   2.347   8.129   7.023  0.1304 -0.5857 -0.6810
  131MOL0     C17583   2.358   8.096   6.885 -1.4716 -0.1369  0.4657
  131MOL0     C17584   2.284   8.166   6.796 -0.7275  0.0584  0.2698
  131MOL0     O17585   2.263   8.136   6.667  0.4257 -0.2751  0.3638
  131MOL0     C17586   2.324   8.017   6.613 -0.4524 -0.4768 -0.0425
  131MOL0     C17587   2.273   7.989   6.474  0.4850  0.5955  0.0479
  131MOL0     C17588   2.303   8.092   6.365  0.1826  0.1552  0.4557
  131MOL0     C17589   2.450   8.072   6.318 -0.5750  0.6419 -0.3672
  131MOL0     C17590   2.495   8.148   6.199 -0.0574 -0.5289  0.3700
  131MOL0     C17591   2.648   8.176   6.187  0.0185 -0.2260 -0.4998
  131MOL0     C17592   2.732   8.058   6.148  0.1460 -0.6444  0.1950
  131MOL0     C17593   2.752   7.955   6.256 -0.0047 -0.0238  0.0074
  131MOL0    Cl17594   2.915   7.891   6.232  0.3235  0.0065 -0.6120
  131MOL0     C17595   2.204   8.268   6.841  0.3980 -0.0973  0.5243
  131MOL0     C17596   2.196   8.309   6.973  0.4213  0.4051 -0.6976
  131MOL0     O17597   2.041   8.159   7.203  0.5679  0.5991 -0.0418
  131MOL0     C17598   1.988   8.237   7.464  0.4473 -0.3465  0.0395
  131MOL0     C17599   1.964   8.272   7.595  0.6722  0.6892 -0.0968
  131MOL0     N17600   1.982   8.958   7.779  0.0348  0.1674 -0.0562
  131MOL0     N17601   2.077   9.050   7.782  0.1255  0.4127  0.7568
  131MOL0     C17602   1.876   9.146   8.746  0.4315 -0.1248  0.3401
  131MOL0     C17603   1.797   9.114   8.861 -0.0663  0.4019  0.3027
  131MOL0     C17604   1.595   9.237   9.275  0.7556 -0.3545  0.9191
  131MOL0     C17605   1.644   9.267   9.402 -0.1883  0.3098 -0.1193
  131MOL0     C17606   1.572   9.240   9.514  0.2056 -0.7789  0.2982
  131MOL0     C17607   1.453   9.163   9.506  0.4062  0.2418 -1.7827
  131MOL0     O17608   1.378   9.125   9.613 -0.3952 -0.0511  0.0580
  131MOL0     C17609   1.422   9.145   9.753 -0.0444 -0.5672 -0.4651
  131MOL0     C17610   1.337   9.095   9.858  0.0559  0.3731  0.1351
  131MOL0     C17611   1.189   9.146   9.845  0.3750 -0.0708 -0.1595
  131MOL0     C17612   1.195   9.299   9.828  0.0323  0.3275 -0.1772
  131MOL0     C17613   1.054   9.337   9.823 -0.0288  0.2148 -0.0721
  131MOL0     C17614   0.936   9.356   9.818  0.5783 -0.1830 -0.0650
  131MOL0     C17615   1.410   9.129   9.382 -0.3178  1.0768 -0.2628
  131MOL0     C17616   1.478   9.171   9.267 -0.0740  0.5174  0.3882
  131MOL0     C17617   1.406   9.126   9.141 -0.3166 -0.1038  0.4753
  131MOL0     H17618   1.925   9.350   9.063 -1.0110 -0.6101  1.3600
  131MOL0     H17619   2.052   9.407   8.845 -2.4663  1.8418 -2.5317
  131MOL0     H17620   2.056   9.478   8.621 -0.2682  0.5351 -1.7799
  131MOL0     H17621   2.188   9.380   8.672 -1.2441 -2.8009  0.3991
  131MOL0     H17622   2.200   9.493   8.430 -0.5267 -0.0975 -0.4216
  131MOL0     H17623   2.075   9.380   8.391 -1.2813 -2.4903  2.3602
  131MOL0     H17624   2.277   9.208   8.498  1.2344  0.5181  0.8897
  131MOL0     H17625   2.375   9.352   8.455  0.8740  0.1884  1.7464
  131MOL0     H17626   2.298   9.354   8.231  0.1554  1.2827  2.9106
  131MOL0     H17627   2.394   9.207   8.274  0.0118 -0.3300  0.8836
  131MOL0     H17628   2.202   9.068   8.280 -1.0976 -0.6756 -1.5871
  131MOL0     H17629   2.083   9.199   8.263 -0.0813 -1.8587  2.6088
  131MOL0     H17630   2.097   9.123   8.045  0.2994 -1.6215 -0.9911
  131MOL0     H17631   2.219   9.266   8.048 -0.8472 -0.4434  2.0182
  131MOL0     H17632   2.330   8.991   8.081 -1.7847 -0.4698 -0.9489
  131MOL0     H17633   2.402   9.150   8.048  0.0454  0.3478  0.6119
  131MOL0     H17634   2.299   9.159   7.824 -3.3186  0.3636  0.3499
  131MOL0     H17635   2.386   8.996   7.855  0.9848  0.9912  2.3399
  131MOL0     H17636   2.208   8.796   7.954  0.5963  0.3385 -0.5175
  131MOL0     H17637   1.841   8.723   7.889  0.5537 -0.1339  0.0646
  131MOL0     H17638   1.927   8.662   7.758 -1.6126 -0.8661  0.7046
  131MOL0     H17639   2.100   8.589   7.943  0.2411 -1.0462 -0.6295
  131MOL0     H17640   2.006   8.677   8.053  1.3433 -0.0840 -1.2662
  131MOL0     H17641   1.807   8.523   8.000 -0.8899 -1.4813 -0.6835
  131MOL0     H17642   1.935   8.433   8.061 -1.4586  2.6790  0.9597
  131MOL0     H17643   1.850   8.436   7.776  0.8695 -1.3051 -1.4698
  131MOL0     H17644   1.875   8.302   7.878 -3.3835  0.2841 -0.8832
  131MOL0     H17645   2.257   8.417   7.667  0.4399  0.6501 -0.3397
  131MOL0     H17646   2.307   8.346   7.429  0.1821  0.5010  0.6060
  131MOL0     H17647   2.409   8.080   7.098  0.1583  1.7639  0.9429
  131MOL0     H17648   2.427   8.014   6.869 -1.7887 -0.4639  0.7641
  131MOL0     H17649   2.433   8.022   6.623 -0.6055 -1.5766  4.3818
  131MOL0     H17650   2.290   7.934   6.677 -2.3178 -0.7498 -1.3134
  131MOL0     H17651   2.305   7.892   6.437  0.6391  2.5365 -6.0694
  131MOL0     H17652   2.167   7.967   6.485  0.5805  0.0301 -0.1120
  131MOL0     H17653   2.240   8.079   6.276  0.5630  3.0822 -0.3493
  131MOL0     H17654   2.274   8.190   6.403 -4.3302  0.1190 -2.1368
  131MOL0     H17655   2.471   7.966   6.302 -0.3858  0.4530  0.9962
  131MOL0     H17656   2.513   8.110   6.400 -0.3810 -3.5578  1.6881
  131MOL0     H17657   2.442   8.244   6.196  0.2873 -0.3408  0.2332
  131MOL0     H17658   2.475   8.106   6.100 -0.3575  0.4597 -0.0054
  131MOL0     H17659   2.663   8.248   6.107 -3.1926  0.8841 -0.2673
  131MOL0     H17660   2.694   8.222   6.275  0.2874  4.2888 -2.7123
  131MOL0     H17661   2.832   8.096   6.124 -0.8366  0.0118 -3.4280
  131MOL0     H17662   2.698   8.020   6.051  0.9320  0.5049 -0.5527
  131MOL0     H17663   2.742   7.998   6.355 -1.0785  2.9775 -1.2857
  131MOL0     H17664   2.679   7.873   6.252 -0.8521  0.6580  1.0011
  131MOL0     H17665   2.137   8.312   6.767  1.8978 -0.7506 -1.2746
  131MOL0     H17666   2.133   8.393   6.999  1.4007  0.9110  0.1599
  131MOL0     H17667   1.914   8.181   7.408  2.5609 -2.8768 -0.4070
  131MOL0     H17668   1.870   8.245   7.643  1.3462 -1.6052  0.0594
  131MOL0     H17669   1.862   9.085   8.658  2.1253 -0.1901  0.0851
  131MOL0     H17670   1.725   9.034   8.858  1.2315 -0.8805  1.5930
  131MOL0     H17671   1.731   9.330   9.415 -0.0218  0.1533 -0.4735
  131MOL0     H17672   1.606   9.266   9.613 -1.0235  1.1746  0.2502
  131MOL0     H17673   1.446   9.250   9.776 -1.3293  0.1955 -2.3072
  131MOL0     H17674   1.514   9.089   9.770 -0.4223 -0.5050  2.1846
  131MOL0     H17675   1.373   9.131   9.955  0.6991 -3.3667  1.4582
  131MOL0     H17676   1.340   8.985   9.860 -0.8674  0.3426  0.4529
  131MOL0     H17677   1.139   9.114   9.937  0.7385 -1.1400 -0.3201
  131MOL0     H17678   1.132   9.104   9.762 -1.4155  1.4720  0.2330
  131MOL0     H17679   1.254   9.346   9.908  0.3497  3.5989 -2.1297
  131MOL0     H17680   1.255   9.327   9.741  2.8290 -1.2374  1.0951
  131MOL0     H17681   0.834   9.383   9.797  0.1128 -1.1012  0.9324
  131MOL0     H17682   1.308   9.091   9.377  0.8401 -2.1341 -2.7889
  131MOL0     H17683   1.443   9.184   9.055 -2.0323  1.9414  1.0098
  131MOL0     H17684   1.425   9.019   9.133  1.2663  0.2574 -1.4660
  131MOL0     H17685   1.297   9.130   9.136 -0.2720  0.9539 -3.0053
  132MOL0     O17686   5.903   1.453  10.121 -0.5422 -0.3025 -0.0348
  132MOL0     C17687   5.987   1.538  10.160 -0.0243 -0.1346  0.1969
  132MOL0     O17688   6.123   1.512  10.184  0.7277  0.3855 -0.3141
  132MOL0     C17689   6.175   1.400  10.121  0.4327 -0.5977 -0.5546
  132MOL0     C17690   6.287   1.348  10.185  0.4301  0.5886 -0.1740
  132MOL0     C17691   6.376   1.258  10.126 -0.6099 -0.6924  1.0467
  132MOL0     C17692   6.365   1.244   9.982  0.1419 -0.5589 -0.1745
  132MOL0     O17693   6.480   1.186   9.926 -0.4350 -0.0551 -0.5805
  132MOL0     C17694   6.497   1.208   9.784  0.3437  0.0770  0.1100
  132MOL0     C17695   6.638   1.185   9.754 -0.3434 -0.0835  0.1682
  132MOL0     C17696   6.660   1.189   9.604 -0.2797  0.1849  0.6428
  132MOL0     C17697   6.782   1.117   9.552 -0.2666 -0.5913  0.0050
  132MOL0     C17698   6.798   1.163   9.407  0.2166  0.2545 -0.3619
  132MOL0     C17699   6.940   1.148   9.352 -0.1499 -0.4636  0.4218
  132MOL0     C17700   6.955   1.003   9.313  0.2389  0.2529  0.2991
  132MOL0     C17701   7.090   0.976   9.261 -0.3003 -0.5336 -0.7628
  132MOL0     N17702   7.089   1.017   9.124 -0.8408  0.0505  1.1249
  132MOL0     C17703   7.137   1.132   9.062  0.6360  0.6390 -0.7451
  132MOL0     C17704   7.112   1.114   8.925  0.8440  0.3889  0.5726
  132MOL0     C17705   7.145   1.200   8.806  0.0797 -0.1702 -0.2710
  132MOL0     C17706   7.290   1.254   8.826  0.4313 -0.8915  0.4049
  132MOL0     C17707   7.391   1.153   8.832 -0.5576  0.0102 -0.4264
  132MOL0     C17708   7.542   1.217   8.841  0.3491 -0.0314 -0.1901
  132MOL0     O17709   7.555   1.322   8.746 -0.2077 -0.3350  0.6713
  132MOL0     C17710   7.665   1.409   8.756  0.0691  0.1398 -0.8173
  132MOL0     C17711   7.756   1.398   8.860 -0.3230 -0.0527  0.0242
  132MOL0     C17712   7.865   1.484   8.856 -0.1776 -1.1341 -0.0145
  132MOL0     C17713   7.883   1.585   8.759 -1.1568  0.3157  1.0852
  132MOL0     C17714   8.009   1.666   8.757  0.1674 -0.1257 -0.3573
  132MOL0     O17715   8.062   1.692   8.881  0.0475 -0.0677 -0.2403
  132MOL0     C17716   8.171   1.770   8.893 -0.0909  0.3072 -0.1369
  132MOL0     C17717   8.186   1.831   9.018 -0.0052 -0.2395  0.3696
  132MOL0     C17718   8.294   1.890   9.061  0.2134 -0.0968 -0.8875
  132MOL0     C17719   8.399   1.912   8.973  0.5476 -0.5599  0.3735
  132MOL0     O17720   8.501   1.994   9.014 -0.3392 -0.9456  0.4869
  132MOL0     C17721   8.619   2.021   8.933  0.0364  0.1147  0.3898
  132MOL0     C17722   8.706   2.126   9.001 -0.5791 -0.5107  0.3080
  132MOL0     C17723   8.837   2.154   8.922 -0.3199 -0.6010 -0.6532
  132MOL0     C17724   8.920   2.257   8.999  0.4221 -0.3207 -1.1225
  132MOL0     C17725   9.060   2.247   8.938 -0.1896 -0.0316  0.8237
  132MOL0     C17726   9.157   2.348   8.987  0.1888 -0.3543  0.1509
  132MOL0     C17727   9.137   2.485   8.926 -0.3427 -0.8242 -0.6598
  132MOL0     C17728   9.219   2.589   9.009  0.0124  0.7286 -0.8608
  132MOL0    Cl17729   9.403   2.572   8.980 -0.1047 -0.1206  0.3789
  132MOL0     C17730   8.387   1.856   8.841 -0.0654 -0.1761 -0.1941
  132MOL0     C17731   8.274   1.775   8.798 -1.2341 -1.0201 -0.3569
  132MOL0     O17732   8.057   1.697   8.646  0.9242  0.8325 -0.3812
  132MOL0     C17733   7.792   1.593   8.661 -0.1573 -0.4655  0.3950
  132MOL0     C17734   7.683   1.510   8.664 -0.2595 -0.1293 -0.1228
  132MOL0     N17735   7.033   0.997   8.919  0.7732 -0.0407  0.0460
  132MOL0     N17736   7.028   0.940   9.028  0.0496 -0.1325  0.2794
  132MOL0     C17737   6.253   1.295   9.919  0.6665  0.0465  0.0255
  132MOL0     C17738   6.159   1.368   9.992 -0.1355 -0.0532  0.8994
  132MOL0     C17739   5.939   1.669  10.211  0.5393  0.4784  0.0340
  132MOL0     C17740   5.806   1.675  10.248  0.0731 -0.6116 -0.5813
  132MOL0     C17741   5.754   1.793  10.319 -0.2415 -0.5187 -0.8645
  132MOL0     C17742   5.825   1.913  10.332  0.0964  0.8255  0.8245
  132MOL0     O17743   5.792   2.023  10.396 -0.5584  0.2469 -0.3934
  132MOL0     C17744   5.650   2.044  10.433  0.1365  0.0409 -0.1182
  132MOL0     C17745   5.615   2.190  10.482  0.2108 -0.5964 -0.7326
  132MOL0     C17746   5.713   2.215  10.603  0.8179  0.4526  0.4127
  132MOL0     C17747   5.702   2.356  10.670  0.0471  0.2220  0.5351
  132MOL0     C17748   5.578   2.375  10.742  0.1280  0.4139  0.7944
  132MOL0     C17749   5.475   2.393  10.808 -0.7014 -1.0867 -0.1392
  132MOL0     C17750   5.959   1.907  10.276  0.1577 -0.0742 -0.5496
  132MOL0     C17751   6.016   1.793  10.222 -0.6229  0.1774  0.0023
  132MOL0     C17752   6.166   1.793  10.202  1.0693 -0.1489  0.4703
  132MOL0     H17753   6.313   1.383  10.284 -0.0610  1.7563 -0.4417
  132MOL0     H17754   6.460   1.210  10.175  0.8494 -0.2832 -0.9061
  132MOL0     H17755   6.429   1.137   9.736  0.1455  1.1674 -1.2967
  132MOL0     H17756   6.466   1.312   9.768 -2.8584 -0.5430  1.5028
  132MOL0     H17757   6.664   1.086   9.792 -2.6446 -1.5045 -1.6041
  132MOL0     H17758   6.704   1.258   9.800 -0.6561  1.3249 -1.5250
  132MOL0     H17759   6.657   1.293   9.572  1.4172  0.2439  0.5903
  132MOL0     H17760   6.572   1.143   9.558 -0.1842 -1.5794  2.0817
  132MOL0     H17761   6.870   1.157   9.602  2.4651 -1.5795 -3.5862
  132MOL0     H17762   6.788   1.010   9.576 -0.7420 -0.9566 -1.3880
  132MOL0     H17763   6.736   1.106   9.337  1.0254 -0.5822 -0.4145
  132MOL0     H17764   6.771   1.269   9.396  1.7737  0.8675  1.3246
  132MOL0     H17765   6.957   1.213   9.265  0.5616 -0.4908  0.5316
  132MOL0     H17766   7.019   1.172   9.424  2.8671 -0.7805 -2.5224
  132MOL0     H17767   6.868   0.966   9.259 -0.7533  1.3336  1.1123
  132MOL0     H17768   6.955   0.946   9.407  1.9405 -2.0802 -0.9791
  132MOL0     H17769   7.172   1.025   9.314  0.7474 -0.4475 -2.3628
  132MOL0     H17770   7.118   0.871   9.255  1.2525 -0.1631 -0.5713
  132MOL0     H17771   7.193   1.204   9.121  1.2959 -1.1668  0.9587
  132MOL0     H17772   7.165   1.137   8.719  2.2076  0.1099 -0.0323
  132MOL0     H17773   7.066   1.268   8.772 -0.1166 -0.2127  0.0852
  132MOL0     H17774   7.294   1.319   8.737 -2.6196  1.2503  1.6600
  132MOL0     H17775   7.303   1.319   8.913 -0.3570 -0.1787  0.0063
  132MOL0     H17776   7.376   1.083   8.749  0.0727  0.1622 -0.6683
  132MOL0     H17777   7.387   1.105   8.930  3.2784  2.3719  1.1273
  132MOL0     H17778   7.614   1.139   8.814  1.9218  1.6832 -1.2251
  132MOL0     H17779   7.558   1.248   8.945 -0.2987 -0.0752 -0.0731
  132MOL0     H17780   7.754   1.319   8.935 -1.5216 -0.4381 -0.3859
  132MOL0     H17781   7.942   1.488   8.933 -1.7148 -0.2518  1.5595
  132MOL0     H17782   8.097   1.819   9.079 -2.1121  3.1288 -1.7321
  132MOL0     H17783   8.289   1.934   9.160 -5.0513 -1.7883 -0.1323
  132MOL0     H17784   8.682   1.932   8.927  0.2533  0.3427 -1.0933
  132MOL0     H17785   8.577   2.059   8.839 -2.7979 -3.5656 -0.0651
  132MOL0     H17786   8.652   2.220   9.017  4.7236  2.7602  1.1053
  132MOL0     H17787   8.735   2.095   9.102  1.7998 -3.5859 -1.1404
  132MOL0     H17788   8.892   2.060   8.920 -0.7273 -0.8916  0.6365
  132MOL0     H17789   8.808   2.194   8.824 -2.1867  0.6716  0.3570
  132MOL0     H17790   8.927   2.230   9.105 -2.1072 -0.2924 -0.8885
  132MOL0     H17791   8.882   2.360   9.001  4.8071  1.5042 -0.4872
  132MOL0     H17792   9.044   2.267   8.831 -0.4704 -1.5598  0.5628
  132MOL0     H17793   9.102   2.149   8.959 -1.0268 -0.1894  1.8662
  132MOL0     H17794   9.140   2.335   9.095  1.9568  0.3026  0.5302
  132MOL0     H17795   9.261   2.316   8.977  0.0078 -1.9989  2.4886
  132MOL0     H17796   9.033   2.516   8.934 -0.5058 -1.4270 -0.3840
  132MOL0     H17797   9.169   2.492   8.822  1.8922  2.5711  0.0810
  132MOL0     H17798   9.198   2.690   8.974 -2.8039  0.0659 -1.3305
  132MOL0     H17799   9.200   2.571   9.115  2.8770 -4.6082 -0.9104
  132MOL0     H17800   8.478   1.868   8.784  0.1192  1.4632  0.3765
  132MOL0     H17801   8.278   1.715   8.708 -1.7618  0.6028 -1.5052
  132MOL0     H17802   7.809   1.671   8.588 -2.2981  1.0510  1.4184
  132MOL0     H17803   7.628   1.517   8.571 -0.5355  0.2062  0.0633
  132MOL0     H17804   6.243   1.284   9.812 -4.0978 -2.2104  0.4607
  132MOL0     H17805   6.084   1.402   9.921  2.1868  0.0925 -1.6045
  132MOL0     H17806   5.740   1.590  10.250  1.2077 -1.5023  1.2304
  132MOL0     H17807   5.653   1.789  10.359 -0.7288  1.1654 -1.7940
  132MOL0     H17808   5.626   1.966  10.506  1.4133  0.6211  0.9767
  132MOL0     H17809   5.592   2.005  10.349  0.1415  0.4757 -0.3305
  132MOL0     H17810   5.508   2.194  10.505  0.3281  2.7877 -0.3172
  132MOL0     H17811   5.621   2.265  10.403 -3.2266 -0.6345 -1.1963
  132MOL0     H17812   5.813   2.210  10.560  1.3265  1.8602  1.3463
  132MOL0     H17813   5.701   2.137  10.680 -2.3849  0.1270 -0.2690
  132MOL0     H17814   5.776   2.378  10.747  1.3376 -2.4400  0.1722
  132MOL0     H17815   5.712   2.435  10.594  0.5947 -0.9688 -0.6626
  132MOL0     H17816   5.397   2.398  10.881 -0.3446  1.6344  0.1699
  132MOL0     H17817   6.016   1.999  10.283 -0.8498  0.4893  0.8554
  132MOL0     H17818   6.197   1.724  10.123  0.3419 -1.8872  1.6230
  132MOL0     H17819   6.207   1.893  10.187  0.3686  0.0980  0.1324
  132MOL0     H17820   6.198   1.748  10.296 -0.2837 -2.6152 -0.1545
  133MOL0     O17821   5.802   1.183   5.796 -0.1556  0.2789  0.1889
  133MOL0     C17822   5.787   1.264   5.886 -0.6273  0.0405  0.5068
  133MOL0     O17823   5.882   1.295   5.982  0.0797 -0.3443 -0.1544
  133MOL0     C17824   6.013   1.250   5.984  0.0779 -0.2532 -0.1385
  133MOL0     C17825   6.071   1.255   6.108 -1.0034 -0.1292 -0.7492
  133MOL0     C17826   6.201   1.200   6.126 -0.6209  0.7535 -0.4785
  133MOL0     C17827   6.272   1.142   6.026  1.4195  0.0516  0.2305
  133MOL0     O17828   6.399   1.103   6.038 -0.0908 -1.1741 -0.1726
  133MOL0     C17829   6.422   1.013   6.143 -0.3978  0.8607  0.0824
  133MOL0     C17830   6.569   0.979   6.164 -0.4626  0.3201  0.2077
  133MOL0     C17831   6.653   0.942   6.045 -0.4386  0.7508 -0.3690
  133MOL0     C17832   6.783   0.879   6.104 -0.6371  0.4246 -0.2719
  133MOL0     C17833   6.842   0.769   6.012 -0.3168 -0.2070 -0.1063
  133MOL0     C17834   6.769   0.639   6.034 -0.5666 -0.5727  0.9806
  133MOL0     C17835   6.835   0.532   5.940  0.6032  0.4199 -0.5528
  133MOL0     C17836   6.988   0.511   5.959 -0.8007 -0.1101  0.7070
  133MOL0     N17837   7.025   0.411   5.866  1.2792 -0.2089  0.1657
  133MOL0     C17838   7.026   0.417   5.727  0.4243  1.1134  0.8245
  133MOL0     C17839   7.102   0.317   5.682 -0.6630 -1.0881 -0.2362
  133MOL0     C17840   7.127   0.284   5.533 -0.3821 -0.4032 -0.3994
  133MOL0     C17841   7.015   0.211   5.451 -0.0082 -0.2161 -0.3144
  133MOL0     C17842   7.048   0.233   5.298 -0.1698 -0.1351 -1.0971
  133MOL0     C17843   6.925   0.204   5.208 -0.0288 -0.5427 -0.0748
  133MOL0     O17844   6.887   0.060   5.225 -0.2151  0.0223 -0.3276
  133MOL0     C17845   6.788   0.011   5.137  0.2448 -0.5612  0.5152
  133MOL0     C17846   6.752   0.063   5.007  0.9360 -0.3993 -0.2879
  133MOL0     C17847   6.647  -0.001   4.939  0.5309  0.1692  0.0710
  133MOL0     C17848   6.586  -0.118   4.980 -0.2797 -0.1552 -0.1989
  133MOL0     C17849   6.482  -0.189   4.899 -0.4644  0.1048 -0.9674
  133MOL0     O17850   6.446  -0.314   4.933  0.6575 -0.0210  0.4052
  133MOL0     C17851   6.344  -0.393   4.883 -0.5008 -0.4000  1.2700
  133MOL0     C17852   6.343  -0.524   4.917 -0.0165 -0.7671  0.9878
  133MOL0     C17853   6.236  -0.607   4.876 -0.4140 -0.5044 -0.6417
  133MOL0     C17854   6.131  -0.559   4.801  0.2444 -1.1934  0.0795
  133MOL0     O17855   6.021  -0.638   4.781  0.0228 -0.0229  0.8151
  133MOL0     C17856   5.941  -0.615   4.669 -0.2460  0.0348  0.0655
  133MOL0     C17857   5.869  -0.740   4.634 -0.6548  0.0158  0.7185
  133MOL0     C17858   5.774  -0.782   4.744  0.3238  0.1058 -0.2220
  133MOL0     C17859   5.734  -0.929   4.715 -0.2031  0.6979 -0.0063
  133MOL0     C17860   5.638  -0.979   4.835  0.0182  0.8953  0.3334
  133MOL0     C17861   5.543  -0.878   4.899  0.4914  0.1942 -0.2419
  133MOL0     C17862   5.475  -0.932   5.030 -0.1890 -0.4290 -0.1277
  133MOL0     C17863   5.427  -1.075   5.001 -0.3030  0.9766  0.4035
  133MOL0    Cl17864   5.320  -1.140   5.121  0.7254 -0.1491  0.3604
  133MOL0     C17865   6.130  -0.425   4.771  0.8338  1.0925 -0.0871
  133MOL0     C17866   6.234  -0.335   4.810  0.3329  0.6087 -0.7885
  133MOL0     O17867   6.444  -0.128   4.801 -0.1463  0.3777 -0.5293
  133MOL0     C17868   6.622  -0.172   5.107  0.1396 -0.6722  0.0392
  133MOL0     C17869   6.719  -0.103   5.185  0.1097  0.1854 -0.7296
  133MOL0     N17870   7.141   0.251   5.799  0.8423  0.1666 -0.1962
  133MOL0     N17871   7.105   0.307   5.903 -0.1845 -0.1473 -0.5507
  133MOL0     C17872   6.210   1.136   5.901  0.5062 -0.4387  0.5485
  133MOL0     C17873   6.080   1.192   5.879 -0.2372  0.0612  0.2147
  133MOL0     C17874   5.667   1.352   5.878  0.2027 -1.4146  0.4740
  133MOL0     C17875   5.570   1.320   5.782 -0.0986 -0.0271 -0.2425
  133MOL0     C17876   5.466   1.404   5.744  0.1988 -1.0574 -0.2181
  133MOL0     C17877   5.446   1.526   5.818  0.0776 -0.3828 -0.2188
  133MOL0     O17878   5.345   1.622   5.787  0.2675  0.1349 -0.0820
  133MOL0     C17879   5.267   1.597   5.671 -0.0457 -0.7839 -0.1402
  133MOL0     C17880   5.148   1.511   5.699 -0.6840  1.0768  0.4539
  133MOL0     C17881   5.056   1.478   5.579 -0.4516 -0.4231 -0.4879
  133MOL0     C17882   5.007   1.606   5.512  0.7058 -0.9299 -0.0730
  133MOL0     C17883   4.883   1.574   5.447  1.0171  0.1611  1.8236
  133MOL0     C17884   4.792   1.523   5.375 -0.0461 -0.2991  0.5620
  133MOL0     C17885   5.532   1.557   5.918  0.4493 -0.4710  0.0211
  133MOL0     C17886   5.642   1.471   5.956 -0.4705 -0.4633 -0.0445
  133MOL0     C17887   5.725   1.510   6.068  0.4971 -0.1703 -0.1074
  133MOL0     H17888   6.017   1.295   6.193 -2.2985 -2.3749 -0.4471
  133MOL0     H17889   6.251   1.213   6.221 -0.8788  2.3708 -0.5314
  133MOL0     H17890   6.381   1.042   6.240  2.5138  4.5114  0.4040
  133MOL0     H17891   6.377   0.918   6.110  1.8495  0.6450 -2.6966
  133MOL0     H17892   6.565   0.895   6.234  2.0301  0.7332  0.9443
  133MOL0     H17893   6.615   1.068   6.207 -0.8385  2.4308 -3.3442
  133MOL0     H17894   6.678   1.018   5.969 -0.5242 -0.4855 -1.6766
  133MOL0     H17895   6.614   0.853   5.995  2.6887  0.5998 -2.9445
  133MOL0     H17896   6.861   0.955   6.101 -1.3898  1.1949 -1.7359
  133MOL0     H17897   6.770   0.851   6.209 -2.1908 -0.8630 -0.7566
  133MOL0     H17898   6.834   0.793   5.906 -2.4798  1.1145  0.2921
  133MOL0     H17899   6.948   0.771   6.037 -0.6604  0.9396  1.4571
  133MOL0     H17900   6.766   0.616   6.141  1.5026 -1.1364  0.9811
  133MOL0     H17901   6.669   0.651   5.994  0.6690 -1.3606 -2.7047
  133MOL0     H17902   6.808   0.543   5.834  1.0138  0.7391 -0.6298
  133MOL0     H17903   6.803   0.433   5.972  1.9339 -0.2090 -1.1035
  133MOL0     H17904   7.054   0.593   5.928  1.3227 -1.9075  0.2026
  133MOL0     H17905   7.012   0.482   6.062  0.2188  2.1940  1.1791
  133MOL0     H17906   6.977   0.495   5.669  0.7162 -0.3622 -1.5215
  133MOL0     H17907   7.148   0.377   5.480  1.2424  0.0536  0.9443
  133MOL0     H17908   7.222   0.231   5.515  1.2651  1.6588  1.6618
  133MOL0     H17909   7.011   0.106   5.479 -1.4834 -0.6878 -2.0939
  133MOL0     H17910   6.921   0.255   5.486 -1.1513 -1.8407 -1.2436
  133MOL0     H17911   7.131   0.164   5.279 -0.7231 -0.0946 -4.1814
  133MOL0     H17912   7.104   0.326   5.285  2.6113 -1.2934  1.4434
  133MOL0     H17913   6.967   0.226   5.109 -1.2685  1.8415 -0.1303
  133MOL0     H17914   6.835   0.263   5.224 -1.0357 -2.4489  1.7363
  133MOL0     H17915   6.797   0.153   4.967 -0.1200  0.3458  0.1619
  133MOL0     H17916   6.610   0.046   4.848  4.3981  0.5899 -1.4724
  133MOL0     H17917   6.435  -0.568   4.954  1.3608  0.5590 -0.7220
  133MOL0     H17918   6.229  -0.708   4.915 -2.9619 -0.4656 -0.8308
  133MOL0     H17919   5.870  -0.535   4.689 -1.6792 -0.9248 -1.0088
  133MOL0     H17920   6.005  -0.585   4.585  1.0542  1.4073  1.4685
  133MOL0     H17921   5.807  -0.718   4.546 -3.2122 -0.0656  2.3743
  133MOL0     H17922   5.946  -0.816   4.621 -0.9078 -0.3185  1.1624
  133MOL0     H17923   5.826  -0.771   4.839  0.1867 -0.7110 -0.0509
  133MOL0     H17924   5.683  -0.720   4.737 -2.5334 -3.4126  2.1804
  133MOL0     H17925   5.816  -0.997   4.689  0.7394  1.0150  1.9746
  133MOL0     H17926   5.663  -0.928   4.632 -0.1478  0.1520 -0.0624
  133MOL0     H17927   5.703  -1.024   4.909  0.2686 -0.4919 -0.6919
  133MOL0     H17928   5.590  -1.068   4.793  1.7205  0.7953 -1.5724
  133MOL0     H17929   5.599  -0.792   4.937  2.5299  1.7078 -5.8367
  133MOL0     H17930   5.474  -0.840   4.824  1.0719  1.7593 -0.0138
  133MOL0     H17931   5.392  -0.869   5.064 -0.2273  0.4792 -1.8039
  133MOL0     H17932   5.534  -0.936   5.122 -3.3490 -0.2478  2.0699
  133MOL0     H17933   5.376  -1.085   4.905 -3.0018 -0.5210  1.8840
  133MOL0     H17934   5.513  -1.143   5.004 -2.6675 -2.2493  0.6808
  133MOL0     H17935   6.046  -0.393   4.710  2.4774 -1.7627 -4.3213
  133MOL0     H17936   6.235  -0.232   4.776  1.2496  0.6956 -0.5284
  133MOL0     H17937   6.582  -0.266   5.143 -1.3582 -1.5678 -3.5553
  133MOL0     H17938   6.740  -0.144   5.283  0.4842 -0.0430 -0.9026
  133MOL0     H17939   6.263   1.111   5.809 -2.5221 -0.2372 -1.3870
  133MOL0     H17940   6.041   1.199   5.778  0.4714  2.2258  0.0415
  133MOL0     H17941   5.597   1.233   5.722  4.6627  0.7712  0.3198
  133MOL0     H17942   5.407   1.384   5.655 -0.2150  0.3732 -0.2954
  133MOL0     H17943   5.317   1.565   5.579 -1.0934  1.7885 -1.7213
  133MOL0     H17944   5.231   1.697   5.645  1.7696 -0.2295 -0.6433
  133MOL0     H17945   5.079   1.544   5.777 -0.4559 -1.1118  1.6876
  133MOL0     H17946   5.185   1.417   5.742  0.3610  1.2149 -0.1097
  133MOL0     H17947   4.979   1.405   5.606  0.1617 -0.9158 -0.0510
  133MOL0     H17948   5.112   1.418   5.506  0.5721  0.3585 -0.3581
  133MOL0     H17949   5.000   1.682   5.590  2.2397 -1.6963  0.8594
  133MOL0     H17950   5.077   1.637   5.434 -1.2287  0.2719 -1.4177
  133MOL0     H17951   4.705   1.483   5.327 -0.0481 -0.9358  1.0806
  133MOL0     H17952   5.517   1.653   5.965  2.2980 -0.1658  0.0446
  133MOL0     H17953   5.731   1.413   6.118 -2.6057 -0.4649 -0.1218
  133MOL0     H17954   5.822   1.537   6.026  0.4295 -0.6739 -0.5966
  133MOL0     H17955   5.672   1.583   6.130 -2.8807 -3.5775  1.4948
  134MOL0     O17956   4.833   0.637   7.398  0.1351 -0.4490 -0.3401
  134MOL0     C17957   4.798   0.547   7.313 -0.2185 -0.3003 -0.2667
  134MOL0     O17958   4.862   0.425   7.300  0.4611  0.7906 -1.0800
  134MOL0     C17959   4.979   0.419   7.376  0.5149  0.0226 -0.6880
  134MOL0     C17960   4.989   0.310   7.460 -0.3261 -0.0651 -0.7023
  134MOL0     C17961   5.110   0.284   7.529 -0.1608 -0.0599  0.6735
  134MOL0     C17962   5.219   0.372   7.516  0.5744  0.1461  0.1762
  134MOL0     O17963   5.336   0.344   7.567 -0.0131  0.3527 -0.1278
  134MOL0     C17964   5.443   0.300   7.480 -0.4145 -0.1346  0.3324
  134MOL0     C17965   5.581   0.332   7.539 -0.2041  0.0015 -0.4508
  134MOL0     C17966   5.616   0.256   7.671  0.2105  0.1104  0.4612
  134MOL0     C17967   5.671   0.112   7.650 -0.1360 -0.6021  0.5510
  134MOL0     C17968   5.704   0.038   7.779  0.1951 -0.8444  0.2729
  134MOL0     C17969   5.833   0.080   7.870  0.6700  0.0223 -0.7133
  134MOL0     C17970   5.974   0.038   7.816  0.0269  0.1871  0.3646
  134MOL0     C17971   6.082   0.085   7.915 -0.0689  0.8891 -0.7295
  134MOL0     N17972   6.083   0.012   8.040 -0.2007  0.4984  0.7251
  134MOL0     C17973   6.095   0.074   8.166  0.8427 -0.7612 -0.0417
  134MOL0     C17974   6.103  -0.030   8.255 -0.6257 -0.2061  0.2035
  134MOL0     C17975   6.126  -0.026   8.408 -0.9135 -0.6005  1.1825
  134MOL0     C17976   6.032   0.086   8.482  0.6102  0.4989 -0.0871
  134MOL0     C17977   6.036   0.103   8.637 -0.0769 -0.2669  0.3921
  134MOL0     C17978   5.977  -0.014   8.718  0.0412  0.3258  0.6737
  134MOL0     O17979   5.838  -0.034   8.681 -0.0303 -0.3456 -0.1483
  134MOL0     C17980   5.738  -0.095   8.755 -0.5433  0.0440 -0.4234
  134MOL0     C17981   5.744  -0.149   8.884 -0.5790  0.3853  0.5922
  134MOL0     C17982   5.629  -0.207   8.939  0.0874 -0.2937 -0.4330
  134MOL0     C17983   5.511  -0.233   8.869  0.4149  0.5422  0.2289
  134MOL0     C17984   5.395  -0.307   8.926 -0.3280 -0.9324  0.6696
  134MOL0     O17985   5.410  -0.324   9.063  0.5538 -0.4242  0.4388
  134MOL0     C17986   5.307  -0.351   9.149  0.3619  0.7156  0.8793
  134MOL0     C17987   5.181  -0.302   9.129  0.0440 -0.5623 -0.6827
  134MOL0     C17988   5.073  -0.322   9.223  0.0456 -0.1950 -0.6691
  134MOL0     C17989   5.101  -0.395   9.346 -0.2306  0.4763  0.5442
  134MOL0     O17990   5.007  -0.412   9.436 -0.4926 -0.0278 -0.4023
  134MOL0     C17991   4.890  -0.338   9.448  0.0137  0.5964  0.6297
  134MOL0     C17992   4.812  -0.362   9.587 -0.3771 -0.1037  0.1285
  134MOL0     C17993   4.676  -0.299   9.589  0.5478  0.5643 -0.2051
  134MOL0     C17994   4.661  -0.148   9.562  0.4971 -1.2445 -0.5139
  134MOL0     C17995   4.528  -0.089   9.618 -0.3581  0.4849 -0.4858
  134MOL0     C17996   4.402  -0.142   9.547  0.7956  0.1108 -0.1225
  134MOL0     C17997   4.272  -0.131   9.636 -1.0290  0.8716 -1.7142
  134MOL0     C17998   4.176  -0.245   9.592 -0.3020 -0.0693  0.8581
  134MOL0    Cl17999   4.207  -0.388   9.701 -0.1317 -0.2923 -0.5674
  134MOL0     C18000   5.231  -0.448   9.363 -0.1131 -0.3910  0.1797
  134MOL0     C18001   5.328  -0.423   9.265  0.1270 -0.2198 -0.2210
  134MOL0     O18002   5.307  -0.345   8.856 -0.2386 -0.2484  0.9818
  134MOL0     C18003   5.504  -0.166   8.747 -0.8240  0.2677  0.0160
  134MOL0     C18004   5.609  -0.097   8.697 -0.1723 -0.2781 -0.2595
  134MOL0     N18005   6.089  -0.144   8.177 -0.4284  0.3125  0.5160
  134MOL0     N18006   6.081  -0.121   8.053  0.5985 -0.5857  0.4451
  134MOL0     C18007   5.208   0.486   7.434 -0.5204  1.1062  0.9203
  134MOL0     C18008   5.084   0.506   7.364  0.0268  0.2781 -0.4223
  134MOL0     C18009   4.688   0.578   7.229 -0.1797 -0.0553 -0.1913
  134MOL0     C18010   4.563   0.596   7.290  0.1058 -0.5590  0.3693
  134MOL0     C18011   4.445   0.584   7.222 -0.9086 -0.8729 -0.8227
  134MOL0     C18012   4.459   0.604   7.080  0.4698 -0.1347 -0.8832
  134MOL0     O18013   4.352   0.599   6.996 -0.1308 -0.1267 -0.7511
  134MOL0     C18014   4.220   0.602   7.051 -0.3723 -0.5936 -0.3823
  134MOL0     C18015   4.129   0.640   6.940 -0.5568  0.4056  0.2311
  134MOL0     C18016   3.992   0.667   6.998  0.9405  0.5511  0.9614
  134MOL0     C18017   3.887   0.678   6.889 -0.8806  0.4128 -0.0328
  134MOL0     C18018   3.749   0.634   6.916 -1.0111  0.5031 -1.2209
  134MOL0     C18019   3.628   0.607   6.919 -0.7296  0.0620 -0.4896
  134MOL0     C18020   4.583   0.611   7.017 -0.7652  0.0371  0.1056
  134MOL0     C18021   4.694   0.595   7.087 -0.5608 -0.3617  0.2508
  134MOL0     C18022   4.824   0.590   7.010  0.1679 -0.9001  0.5971
  134MOL0     H18023   4.911   0.235   7.452 -0.1389 -0.5028  1.1455
  134MOL0     H18024   5.124   0.195   7.590  4.1444 -1.3939 -1.7818
  134MOL0     H18025   5.429   0.193   7.461  0.4378  0.2726 -3.2488
  134MOL0     H18026   5.440   0.349   7.383  1.4837 -1.4338 -0.4523
  134MOL0     H18027   5.587   0.438   7.564  0.3197 -0.1778  0.2327
  134MOL0     H18028   5.659   0.309   7.467  1.1118 -1.7461  1.3936
  134MOL0     H18029   5.524   0.247   7.730 -0.5605 -1.6075 -0.9131
  134MOL0     H18030   5.688   0.312   7.731 -0.2686  1.8916 -0.5466
  134MOL0     H18031   5.592   0.059   7.596  0.6640 -0.0608 -1.2312
  134MOL0     H18032   5.762   0.107   7.591  0.0726  1.4140  0.6119
  134MOL0     H18033   5.614   0.035   7.841  1.9026 -2.8406  2.8265
  134MOL0     H18034   5.720  -0.065   7.748  0.9530 -0.4561 -0.6917
  134MOL0     H18035   5.836   0.186   7.894  2.3696  0.3354 -2.0439
  134MOL0     H18036   5.813   0.026   7.963  1.1455 -1.4868 -1.4450
  134MOL0     H18037   5.986   0.082   7.717  0.5581 -1.0590 -0.1398
  134MOL0     H18038   5.980  -0.071   7.812 -1.2973  0.1318 -0.9797
  134MOL0     H18039   6.175   0.058   7.864  0.3683  1.3219 -0.1717
  134MOL0     H18040   6.095   0.192   7.932 -1.4890  0.4062  6.2580
  134MOL0     H18041   6.094   0.180   8.189  1.8732 -0.0040 -3.0857
  134MOL0     H18042   6.105  -0.121   8.459 -1.2706 -0.6625  0.9217
  134MOL0     H18043   6.234  -0.014   8.424 -0.3705 -3.9903  0.8560
  134MOL0     H18044   6.047   0.188   8.443 -0.0435  2.1409  3.5941
  134MOL0     H18045   5.924   0.071   8.467  0.0518  3.2138  0.6258
  134MOL0     H18046   5.985   0.192   8.673 -0.6721 -1.4126  2.5106
  134MOL0     H18047   6.142   0.111   8.665  0.9700 -4.8982 -1.1699
  134MOL0     H18048   6.000  -0.010   8.825  2.3070 -3.0913  0.4684
  134MOL0     H18049   6.022  -0.109   8.687 -1.7623 -0.9615  1.7473
  134MOL0     H18050   5.839  -0.155   8.936 -0.9828  1.8714  1.5333
  134MOL0     H18051   5.641  -0.245   9.040 -2.0528  2.0381  0.8289
  134MOL0     H18052   5.152  -0.241   9.045 -4.0646  2.0774  2.2648
  134MOL0     H18053   4.970  -0.295   9.204 -1.5591 -2.4431  3.5273
  134MOL0     H18054   4.910  -0.235   9.417  0.1116 -0.3003 -2.7249
  134MOL0     H18055   4.818  -0.376   9.374  3.5555 -2.3245 -1.6521
  134MOL0     H18056   4.786  -0.468   9.577 -0.6755  0.0656 -1.0802
  134MOL0     H18057   4.860  -0.337   9.682 -1.6527 -0.7137  0.9542
  134MOL0     H18058   4.610  -0.351   9.519 -0.8238 -0.6700  1.8719
  134MOL0     H18059   4.644  -0.321   9.692 -2.4525 -1.6724 -1.4668
  134MOL0     H18060   4.669  -0.126   9.455 -0.8260  1.6266 -0.1088
  134MOL0     H18061   4.731  -0.092   9.623 -2.2018  0.8141  0.9346
  134MOL0     H18062   4.540   0.020   9.623  3.3363  0.1753  1.1979
  134MOL0     H18063   4.532  -0.122   9.722  1.2018 -0.7460 -0.8883
  134MOL0     H18064   4.393  -0.094   9.449  3.5758 -1.6535 -1.3889
  134MOL0     H18065   4.411  -0.248   9.522 -1.0743 -0.7872  2.5793
  134MOL0     H18066   4.231  -0.030   9.628 -0.2529  1.6342  2.1906
  134MOL0     H18067   4.297  -0.149   9.740  0.3870  1.0064 -2.0150
  134MOL0     H18068   4.073  -0.211   9.604  0.3085  3.1934 -1.6911
  134MOL0     H18069   4.189  -0.265   9.485  4.1786  0.2341  1.1421
  134MOL0     H18070   5.257  -0.503   9.453 -0.0427  0.9648  1.0160
  134MOL0     H18071   5.429  -0.463   9.273  0.2910 -0.6021 -3.0824
  134MOL0     H18072   5.419  -0.173   8.680 -2.6642  0.1640  2.2369
  134MOL0     H18073   5.589  -0.028   8.615 -0.7839  2.0056  1.7227
  134MOL0     H18074   5.301   0.536   7.410  2.4259 -3.6664  0.9188
  134MOL0     H18075   5.072   0.582   7.288 -0.5138  1.1196  0.4906
  134MOL0     H18076   4.566   0.614   7.397  0.6370  2.0626 -0.0366
  134MOL0     H18077   4.356   0.583   7.284  0.3296  0.3292  1.0899
  134MOL0     H18078   4.227   0.675   7.133  4.2985  1.2167 -2.0562
  134MOL0     H18079   4.204   0.504   7.096  1.5001 -2.0942 -2.7447
  134MOL0     H18080   4.127   0.547   6.881  1.5751 -1.0649  2.2770
  134MOL0     H18081   4.176   0.716   6.877 -1.5832  0.0460 -1.0233
  134MOL0     H18082   3.989   0.761   7.054 -1.1799  2.5970 -2.2473
  134MOL0     H18083   3.964   0.579   7.056 -1.7789  0.6119 -0.0891
  134MOL0     H18084   3.892   0.786   6.870  3.6240  0.5611  1.0477
  134MOL0     H18085   3.923   0.628   6.799 -2.0677  0.8489 -0.7823
  134MOL0     H18086   3.526   0.576   6.908 -0.9035  0.9277 -1.4592
  134MOL0     H18087   4.590   0.621   6.909  0.6800 -4.1268 -0.3561
  134MOL0     H18088   4.904   0.581   7.084  1.2274  0.3658 -0.3482
  134MOL0     H18089   4.824   0.502   6.946  0.1537  0.8635 -1.9752
  134MOL0     H18090   4.833   0.682   6.952  0.7037 -2.2245 -1.5181
  135MOL0     O18091   4.080   9.597  10.908  0.2235 -0.1023 -0.4529
  135MOL0     C18092   4.035   9.696  10.847  0.9205  0.5969 -0.4467
  135MOL0     O18093   4.060   9.729  10.722 -0.3907 -1.0908  0.4658
  135MOL0     C18094   4.170   9.672  10.664 -0.1135 -0.2172  0.4054
  135MOL0     C18095   4.162   9.541  10.608  0.6327 -1.1118 -0.1326
  135MOL0     C18096   4.271   9.476  10.549 -0.1142 -0.4240 -0.5991
  135MOL0     C18097   4.392   9.548  10.538 -0.1389 -0.0928  0.1185
  135MOL0     O18098   4.503   9.492  10.478 -0.1690 -0.2419  0.3433
  135MOL0     C18099   4.491   9.463  10.337  0.3416 -0.8360  0.0148
  135MOL0     C18100   4.624   9.507  10.270 -0.2138  0.7480 -0.1573
  135MOL0     C18101   4.675   9.646  10.309  0.6087  0.0086  0.3680
  135MOL0     C18102   4.582   9.766  10.260  0.0902 -0.6449  0.0584
  135MOL0     C18103   4.650   9.902  10.266  0.1055  0.5829  0.4372
  135MOL0     C18104   4.667   9.950  10.409 -0.1762 -0.3255 -0.1519
  135MOL0     C18105   4.806   9.917  10.457 -0.4812  0.2646 -1.0899
  135MOL0     C18106   4.917  10.028  10.424  0.5107 -0.2086 -0.0965
  135MOL0     N18107   5.050   9.983  10.454 -0.8089  0.2493  0.6070
  135MOL0     C18108   5.137  10.027  10.551  0.8055 -0.4050 -0.2288
  135MOL0     C18109   5.251   9.955  10.541  0.4666 -0.5116 -0.1738
  135MOL0     C18110   5.377   9.962  10.624  0.0493 -0.4888 -0.9331
  135MOL0     C18111   5.390   9.827  10.701  0.7678  0.5054  0.3184
  135MOL0     C18112   5.393   9.696  10.614 -0.9737  0.6968  0.3163
  135MOL0     C18113   5.499   9.702  10.504 -0.6179  0.3512  0.5796
  135MOL0     O18114   5.524   9.565  10.461  0.7655 -0.0695  0.3158
  135MOL0     C18115   5.562   9.542  10.333 -0.2005  0.4000  0.8646
  135MOL0     C18116   5.663   9.621  10.263  0.7699 -0.4946 -0.0237
  135MOL0     C18117   5.700   9.595  10.129  0.6171 -0.6801 -0.2966
  135MOL0     C18118   5.660   9.479  10.070  0.1466  0.1642  0.1510
  135MOL0     C18119   5.715   9.426   9.941 -0.4190 -0.3391  0.3907
  135MOL0     O18120   5.803   9.514   9.881  0.5771  0.0446 -0.7549
  135MOL0     C18121   5.843   9.467   9.760  0.8056  0.0943  0.5441
  135MOL0     C18122   5.750   9.459   9.656  0.2439 -0.3836  0.5517
  135MOL0     C18123   5.768   9.367   9.552  0.0125  0.0954 -0.4539
  135MOL0     C18124   5.899   9.307   9.531 -0.0843 -0.0692 -0.1716
  135MOL0     O18125   5.914   9.248   9.408  0.2595 -0.1587  0.1604
  135MOL0     C18126   6.037   9.169   9.402  0.6922  0.1048  1.3958
  135MOL0     C18127   6.027   9.073   9.280 -0.2596 -0.4294  0.4036
  135MOL0     C18128   5.917   8.979   9.274  0.9430  0.9093 -0.5026
  135MOL0     C18129   5.959   8.848   9.342  0.3488  0.3276 -0.4423
  135MOL0     C18130   5.841   8.746   9.353 -0.1968  0.2085  0.3556
  135MOL0     C18131   5.889   8.605   9.392 -0.1049  0.9857 -0.6738
  135MOL0     C18132   5.769   8.516   9.385  0.6305  0.0413  0.1756
  135MOL0     C18133   5.726   8.485   9.242  0.3541 -0.0611 -0.0835
  135MOL0    Cl18134   5.858   8.497   9.127 -0.3435 -0.1283 -0.1805
  135MOL0     C18135   5.996   9.339   9.627  0.6099  0.0244  0.0742
  135MOL0     C18136   5.965   9.412   9.738 -0.2946  0.1341 -0.4232
  135MOL0     O18137   5.661   9.325   9.894  0.0021  0.4932  0.3364
  135MOL0     C18138   5.562   9.402  10.136  0.2299  0.5584  0.2039
  135MOL0     C18139   5.518   9.429  10.266 -0.1317  0.4952  0.2249
  135MOL0     N18140   5.241   9.878  10.426  0.1879 -0.4460 -0.3740
  135MOL0     N18141   5.121   9.889  10.381 -0.0860  0.4324  0.9011
  135MOL0     C18142   4.395   9.677  10.589  0.0433  0.2502  0.0950
  135MOL0     C18143   4.288   9.738  10.649  0.5759  0.6376  0.3117
  135MOL0     C18144   3.942   9.780  10.919 -0.4218  0.0696  0.6303
  135MOL0     C18145   3.890   9.736  11.043 -0.0702 -0.9525  0.7225
  135MOL0     C18146   3.812   9.823  11.120  0.0785 -0.7350 -0.2611
  135MOL0     C18147   3.780   9.950  11.086 -0.6624 -0.1308  0.6884
  135MOL0     O18148   3.706  10.030  11.161  0.0789 -0.4251 -0.3015
  135MOL0     C18149   3.630  10.130  11.108  0.9504  0.5962 -0.9142
  135MOL0     C18150   3.533  10.176  11.214 -0.1281  0.1829  0.2561
  135MOL0     C18151   3.417  10.073  11.212 -1.3086  0.0305 -0.9946
  135MOL0     C18152   3.299  10.123  11.115 -1.3060 -1.2975  0.0462
  135MOL0     C18153   3.188  10.030  11.106 -0.3073 -0.3682 -0.3809
  135MOL0     C18154   3.094   9.952  11.086  1.1359 -0.8149 -0.3626
  135MOL0     C18155   3.828   9.988  10.957 -1.1523  0.4255  0.1678
  135MOL0     C18156   3.905   9.911  10.872 -0.0658 -0.2564  0.2698
  135MOL0     C18157   3.940   9.971  10.737  0.1252  0.1949  0.2375
  135MOL0     H18158   4.070   9.484  10.618 -0.3189  0.7618  4.4702
  135MOL0     H18159   4.260   9.373  10.516  1.1016 -0.0483 -2.3112
  135MOL0     H18160   4.495   9.355  10.317  3.7960 -0.1487 -4.7338
  135MOL0     H18161   4.403   9.519  10.303  1.7778  1.8554  0.5049
  135MOL0     H18162   4.613   9.496  10.162 -3.1721 -1.9400  0.2869
  135MOL0     H18163   4.705   9.440  10.301  0.5712  1.7203 -0.0396
  135MOL0     H18164   4.771   9.662  10.258  1.1641 -2.7272  0.4270
  135MOL0     H18165   4.688   9.651  10.418  3.1527  0.8068  0.1097
  135MOL0     H18166   4.569   9.738  10.155  1.7086 -0.2341 -0.2792
  135MOL0     H18167   4.486   9.768  10.312 -1.1111 -0.9379 -2.0166
  135MOL0     H18168   4.739   9.887  10.204  2.2087 -0.9684  3.5682
  135MOL0     H18169   4.584   9.972  10.213 -1.7843 -2.1635 -1.1362
  135MOL0     H18170   4.651  10.058  10.407 -2.6838 -0.6250 -2.2265
  135MOL0     H18171   4.589   9.904  10.472 -0.5265  0.5669  0.0817
  135MOL0     H18172   4.841   9.816  10.432 -0.0266  0.2078 -0.2540
  135MOL0     H18173   4.805   9.921  10.566 -2.5142 -1.8121 -0.9405
  135MOL0     H18174   4.915  10.057  10.319 -3.1584 -0.4352 -0.2260
  135MOL0     H18175   4.883  10.109  10.489 -2.0827 -0.6599 -0.7953
  135MOL0     H18176   5.109  10.105  10.622  0.3069  1.0137 -1.9159
  135MOL0     H18177   5.458   9.993  10.558  0.0971  4.3776  0.9884
  135MOL0     H18178   5.370  10.040  10.701  0.1272 -1.2582 -0.1307
  135MOL0     H18179   5.475   9.832  10.770  0.3777 -1.7321  1.0486
  135MOL0     H18180   5.306   9.818  10.771  0.4616  2.0603  0.1944
  135MOL0     H18181   5.299   9.661  10.570  0.2472 -1.5836 -0.7010
  135MOL0     H18182   5.413   9.616  10.686  1.3967 -1.0300 -2.0696
  135MOL0     H18183   5.590   9.742  10.548  0.1458  0.1754 -0.7835
  135MOL0     H18184   5.470   9.763  10.418  2.5140  0.9177 -0.1708
  135MOL0     H18185   5.681   9.706  10.327 -3.2513  0.6550 -0.1357
  135MOL0     H18186   5.781   9.662  10.102 -0.3366  0.9549  0.7285
  135MOL0     H18187   5.659   9.519   9.655 -0.0300 -0.7183 -2.4812
  135MOL0     H18188   5.692   9.357   9.475  0.2352 -0.9934 -0.5567
  135MOL0     H18189   6.123   9.231   9.375  2.2378 -2.7123 -0.5851
  135MOL0     H18190   6.056   9.109   9.491 -0.9329 -0.0055  1.7072
  135MOL0     H18191   6.023   9.132   9.188 -1.1413 -0.5402  0.3650
  135MOL0     H18192   6.119   9.014   9.281 -1.3997 -2.3895 -1.7303
  135MOL0     H18193   5.830   9.027   9.321  1.1963  0.7755  0.1248
  135MOL0     H18194   5.899   8.955   9.170 -0.2999 -1.6887  0.2426
  135MOL0     H18195   6.010   8.858   9.438 -3.0872  1.6388  1.4489
  135MOL0     H18196   6.032   8.807   9.272  1.6815 -0.4097  1.2933
  135MOL0     H18197   5.786   8.738   9.258  1.4719  0.2260 -0.6510
  135MOL0     H18198   5.787   8.795   9.434  2.3080  0.9101  1.7060
  135MOL0     H18199   5.981   8.565   9.348  3.0299  3.5682  2.8735
  135MOL0     H18200   5.909   8.607   9.500  1.4618 -1.9695 -0.7965
  135MOL0     H18201   5.682   8.565   9.431  0.4139 -1.2379  1.1874
  135MOL0     H18202   5.800   8.422   9.430 -0.2563 -0.5332 -0.3707
  135MOL0     H18203   5.691   8.381   9.244  1.3065 -0.4459  3.2469
  135MOL0     H18204   5.643   8.546   9.204  1.1638  0.5216 -0.9561
  135MOL0     H18205   6.099   9.308   9.607 -0.0954 -1.7553 -1.0233
  135MOL0     H18206   6.042   9.426   9.814 -1.1302 -2.6053  1.0563
  135MOL0     H18207   5.517   9.319  10.084 -2.2404  4.2492 -4.3824
  135MOL0     H18208   5.434   9.373  10.306 -0.8410 -0.8477 -2.9203
  135MOL0     H18209   4.484   9.735  10.568  3.0172 -2.5041  3.5805
  135MOL0     H18210   4.297   9.839  10.687 -0.5854  0.0899  2.1734
  135MOL0     H18211   3.913   9.638  11.085 -0.2027 -0.5712  1.6815
  135MOL0     H18212   3.776   9.793  11.217  0.5411 -0.5229 -0.0191
  135MOL0     H18213   3.581  10.092  11.017 -1.3411 -1.5419  1.0449
  135MOL0     H18214   3.695  10.214  11.083  1.2823  1.7185  3.1124
  135MOL0     H18215   3.484  10.272  11.196 -5.0606 -1.6951  1.9341
  135MOL0     H18216   3.574  10.188  11.314 -1.2684 -0.5961  0.8480
  135MOL0     H18217   3.379  10.062  11.313 -0.2698 -2.0896 -0.7784
  135MOL0     H18218   3.439   9.972  11.175 -0.2229 -0.0640 -0.1336
  135MOL0     H18219   3.271  10.225  11.143 -1.3055 -2.2902  4.1870
  135MOL0     H18220   3.330  10.135  11.010 -0.9061  0.1889  0.3125
  135MOL0     H18221   3.005   9.897  11.065 -0.6930  2.1856 -1.2201
  135MOL0     H18222   3.808  10.087  10.917 -3.3016  0.2572  0.7059
  135MOL0     H18223   3.904   9.904  10.658  1.8169 -1.7452  1.0402
  135MOL0     H18224   3.909  10.074  10.717 -0.8157 -0.3577 -1.3228
  135MOL0     H18225   4.048   9.964  10.725  0.1500 -2.2749  1.3460
  136MOL0     O18226   4.238  10.748   5.678 -0.2984 -0.2357  0.3677
  136MOL0     C18227   4.257  10.814   5.784 -1.4046 -0.3585 -0.7449
  136MOL0     O18228   4.179  10.825   5.891  0.4637 -0.5858  0.2333
  136MOL0     C18229   4.060  10.755   5.900 -0.3300  0.4824  0.0844
  136MOL0     C18230   3.976  10.718   5.790 -0.1497  0.0875  0.0277
  136MOL0     C18231   3.858  10.646   5.815 -0.1689  0.3628 -0.0262
  136MOL0     C18232   3.838  10.594   5.943  0.7393  0.0821  0.5352
  136MOL0     O18233   3.730  10.511   5.962  0.3120 -0.6311  0.1284
  136MOL0     C18234   3.739  10.396   5.880 -0.2619  0.1256 -0.5120
  136MOL0     C18235   3.629  10.290   5.914 -1.4144 -0.2545 -0.1025
  136MOL0     C18236   3.645  10.146   5.864 -1.0907  0.6925 -0.1987
  136MOL0     C18237   3.749  10.059   5.947  0.1142  0.4590  0.1788
  136MOL0     C18238   3.689   9.996   6.068 -0.4177  0.7848 -0.2281
  136MOL0     C18239   3.615   9.869   6.048  0.1982  0.0717  0.5078
  136MOL0     C18240   3.566   9.791   6.166 -0.4567 -0.4084  0.8726
  136MOL0     C18241   3.444   9.853   6.235  0.4926 -0.4904 -0.0909
  136MOL0     N18242   3.435   9.799   6.371  0.2049 -0.0287  0.1397
  136MOL0     C18243   3.502   9.686   6.425  0.2633  0.0209 -0.0094
  136MOL0     C18244   3.498   9.704   6.555  0.2750  0.0181 -0.5234
  136MOL0     C18245   3.571   9.608   6.646 -0.3226  0.0084  0.8434
  136MOL0     C18246   3.531   9.638   6.782 -0.4108 -0.5073 -1.1628
  136MOL0     C18247   3.604   9.544   6.877 -0.0994  0.1301 -0.1053
  136MOL0     C18248   3.760   9.563   6.866  1.2213 -0.0018  0.4029
  136MOL0     O18249   3.833   9.462   6.950 -0.7902 -0.1743  0.0503
  136MOL0     C18250   3.960   9.494   6.994 -0.4871  0.1792  0.2673
  136MOL0     C18251   4.027   9.612   6.952  0.5776  0.0130 -0.6743
  136MOL0     C18252   4.144   9.645   7.001  0.1639 -0.6095  0.0156
  136MOL0     C18253   4.217   9.560   7.085 -0.6543 -0.3148  0.4046
  136MOL0     C18254   4.339   9.609   7.146  0.5692  0.5264  0.1466
  136MOL0     O18255   4.402   9.713   7.082 -1.0230  0.2647  0.1903
  136MOL0     C18256   4.513   9.757   7.147 -0.3261 -1.3729  0.6679
  136MOL0     C18257   4.529   9.900   7.153  0.4008 -0.8928  0.1729
  136MOL0     C18258   4.643   9.959   7.217 -0.3886 -0.1204 -0.1081
  136MOL0     C18259   4.744   9.869   7.268 -0.4160 -0.7555  0.1418
  136MOL0     O18260   4.851   9.937   7.326  0.5830  0.3879 -0.7345
  136MOL0     C18261   4.945   9.858   7.400  0.1991 -0.5023  0.4385
  136MOL0     C18262   5.060   9.944   7.448 -0.0308 -0.9541 -0.2958
  136MOL0     C18263   5.171   9.964   7.340 -0.5396  0.4679  0.0609
  136MOL0     C18264   5.302   9.990   7.411 -0.1253  0.4409 -0.7618
  136MOL0     C18265   5.423   9.982   7.311  0.1282 -0.4585  0.5789
  136MOL0     C18266   5.549  10.036   7.380  0.4119 -0.3032 -0.7726
  136MOL0     C18267   5.671   9.989   7.306  0.4004 -0.0024 -0.1459
  136MOL0     C18268   5.776   9.950   7.414  0.5982  0.1132 -0.4665
  136MOL0    Cl18269   5.907   9.871   7.311  0.2905  0.0190 -0.2070
  136MOL0     C18270   4.737   9.732   7.244  1.4571  0.7237 -0.3942
  136MOL0     C18271   4.626   9.671   7.178  1.5186 -0.1409  0.4968
  136MOL0     O18272   4.382   9.552   7.248 -0.2612  0.1569  0.0633
  136MOL0     C18273   4.161   9.442   7.124 -0.1262 -0.2963  0.1985
  136MOL0     C18274   4.030   9.405   7.077 -0.1319 -0.3200 -0.5084
  136MOL0     N18275   3.436   9.822   6.582  0.6357  0.4065 -0.9579
  136MOL0     N18276   3.398   9.884   6.473 -0.8619 -0.1529 -0.4761
  136MOL0     C18277   3.912  10.641   6.053  0.0911  0.2097  0.7511
  136MOL0     C18278   4.028  10.708   6.026  0.0159  0.2858 -0.3075
  136MOL0     C18279   4.376  10.905   5.782 -0.3257 -0.0901  0.1851
  136MOL0     C18280   4.487  10.876   5.865  0.4991  1.1816 -0.2404
  136MOL0     C18281   4.605  10.950   5.866 -0.3228  0.9383 -0.6383
  136MOL0     C18282   4.618  11.055   5.771  0.1521  0.2277 -0.5465
  136MOL0     O18283   4.734  11.127   5.759 -0.0390  0.2913 -0.3079
  136MOL0     C18284   4.861  11.072   5.796  0.0820 -0.5499 -0.1855
  136MOL0     C18285   4.964  11.189   5.757  0.1800  0.2165  0.2956
  136MOL0     C18286   4.987  11.197   5.606 -0.4006  0.1391  0.5482
  136MOL0     C18287   5.101  11.108   5.548 -0.1151 -0.4241 -0.6261
  136MOL0     C18288   5.130  11.139   5.408  0.2068 -0.4945  0.3038
  136MOL0     C18289   5.137  11.163   5.284 -0.0651  1.4975  0.1078
  136MOL0     C18290   4.504  11.095   5.701  0.2437  0.3839  0.3439
  136MOL0     C18291   4.377  11.025   5.696  0.5794 -0.2347  0.2480
  136MOL0     C18292   4.266  11.067   5.609  0.5255 -0.6823 -0.4527
  136MOL0     H18293   4.001  10.756   5.691 -2.2709  0.2189 -0.5089
  136MOL0     H18294   3.784  10.640   5.736  0.9614 -1.4376 -1.0009
  136MOL0     H18295   3.719  10.418   5.775  1.0477 -0.1534 -0.8386
  136MOL0     H18296   3.838  10.349   5.879 -0.3618 -0.0880 -0.5679
  136MOL0     H18297   3.539  10.342   5.879  0.7247  2.1352 -2.5036
  136MOL0     H18298   3.625  10.287   6.023  2.1962  0.8206  0.1802
  136MOL0     H18299   3.700  10.142   5.770  1.8908 -3.0669  1.4053
  136MOL0     H18300   3.546  10.103   5.847  0.0633 -2.6183  0.6766
  136MOL0     H18301   3.789   9.977   5.887 -0.0089  0.8469 -0.4452
  136MOL0     H18302   3.825  10.127   5.987  0.5732 -0.3119  0.6495
  136MOL0     H18303   3.778   9.960   6.121  0.7199  1.1818 -1.8213
  136MOL0     H18304   3.627  10.059   6.132 -3.7029 -1.5223 -0.8572
  136MOL0     H18305   3.538   9.899   5.976  1.0938 -0.7015 -0.8105
  136MOL0     H18306   3.669   9.793   5.992 -3.8404 -1.0879 -2.2477
  136MOL0     H18307   3.651   9.787   6.234  1.4064  2.7563 -1.0187
  136MOL0     H18308   3.546   9.690   6.128 -3.8041  1.0210 -1.7936
  136MOL0     H18309   3.444   9.962   6.227 -0.7785 -0.4428  0.3278
  136MOL0     H18310   3.352   9.833   6.178 -0.8770 -0.7049  2.0682
  136MOL0     H18311   3.546   9.606   6.366 -0.5755  0.6021 -1.4951
  136MOL0     H18312   3.542   9.506   6.618 -0.1526  0.4229 -0.9733
  136MOL0     H18313   3.676   9.627   6.621 -0.7193  0.0225 -0.9265
  136MOL0     H18314   3.563   9.742   6.799  2.1996 -1.5169  0.7390
  136MOL0     H18315   3.425   9.617   6.798 -0.4651  0.7616  0.4906
  136MOL0     H18316   3.582   9.439   6.855 -0.6244  0.4385 -1.1031
  136MOL0     H18317   3.582   9.567   6.982 -2.4042  2.7118 -1.0239
  136MOL0     H18318   3.780   9.667   6.897  0.2186 -0.0080  1.1347
  136MOL0     H18319   3.804   9.561   6.766  4.0436 -1.2475  1.5794
  136MOL0     H18320   3.991   9.687   6.882 -2.3565 -1.0886 -0.4682
  136MOL0     H18321   4.178   9.742   6.967  0.3888 -1.0685 -1.1284
  136MOL0     H18322   4.452   9.968   7.119  1.1791 -0.2768 -0.4205
  136MOL0     H18323   4.656  10.064   7.239  1.2056 -0.0318 -1.3464
  136MOL0     H18324   4.901   9.804   7.484  0.4081 -1.9146 -0.3449
  136MOL0     H18325   4.979   9.787   7.325 -1.3939  0.4464 -1.2569
  136MOL0     H18326   5.031  10.042   7.485  1.1934 -1.2708  1.6143
  136MOL0     H18327   5.109   9.893   7.531  0.7132  0.2201  0.0088
  136MOL0     H18328   5.181   9.867   7.290  1.6130  0.4830  0.3767
  136MOL0     H18329   5.138  10.043   7.271  2.2790  0.7296 -1.1091
  136MOL0     H18330   5.317   9.921   7.494 -1.4539  1.6017  0.5153
  136MOL0     H18331   5.288  10.086   7.461  2.0224  0.3481  0.1296
  136MOL0     H18332   5.402  10.044   7.224 -0.3440  2.4880  2.6388
  136MOL0     H18333   5.430   9.878   7.277 -1.3174 -0.6933  0.9289
  136MOL0     H18334   5.554  10.145   7.380  1.6053 -0.3366 -0.0361
  136MOL0     H18335   5.550  10.005   7.485  1.2301 -1.2748 -1.0533
  136MOL0     H18336   5.713  10.059   7.234 -2.2782  0.7128 -1.1524
  136MOL0     H18337   5.643   9.898   7.252 -1.8096  1.2647 -1.2750
  136MOL0     H18338   5.820  10.033   7.469 -0.4223 -0.6783  1.6756
  136MOL0     H18339   5.741   9.882   7.492 -2.8623 -0.4826 -2.2934
  136MOL0     H18340   4.812   9.654   7.255 -1.3401 -2.5618 -2.4654
  136MOL0     H18341   4.625   9.570   7.139  0.0459  0.8927 -2.4804
  136MOL0     H18342   4.220   9.378   7.189 -1.0068  0.7272  2.1136
  136MOL0     H18343   3.989   9.307   7.100  1.2203 -0.6348  0.7278
  136MOL0     H18344   3.890  10.607   6.154  3.8445  0.2379  1.7218
  136MOL0     H18345   4.104  10.733   6.099 -1.2657 -1.2914  1.6351
  136MOL0     H18346   4.480  10.789   5.931 -0.0024 -0.7445 -2.6804
  136MOL0     H18347   4.673  10.930   5.948 -2.5731 -1.5660  0.7838
  136MOL0     H18348   4.875  10.973   5.752  1.5218 -0.1591 -0.6861
  136MOL0     H18349   4.871  11.054   5.904 -0.3866  0.9197  0.1246
  136MOL0     H18350   5.054  11.166   5.813 -1.0318 -0.0704  2.2253
  136MOL0     H18351   4.932  11.282   5.805 -0.8441 -0.0716  0.2033
  136MOL0     H18352   5.007  11.303   5.588 -0.5651 -0.1093 -1.2442
  136MOL0     H18353   4.895  11.163   5.558 -0.7531 -1.5594  2.2712
  136MOL0     H18354   5.191  11.122   5.609 -2.3446  0.3561  2.7357
  136MOL0     H18355   5.077  11.001   5.554 -0.3768 -0.3117  0.5806
  136MOL0     H18356   5.137  11.176   5.178 -1.9022 -0.1239 -0.1564
  136MOL0     H18357   4.524  11.183   5.641 -1.8498  0.6902  0.0033
  136MOL0     H18358   4.281  11.162   5.557 -2.8845 -0.1152 -0.6074
  136MOL0     H18359   4.254  10.991   5.531  1.4631 -0.5476 -0.7383
  136MOL0     H18360   4.173  11.074   5.665 -1.3943  1.2598 -3.6112
  137MOL0     O18361   0.511   3.475   2.915 -0.6158 -0.6360  0.8218
  137MOL0     C18362   0.399   3.437   2.945  0.8931  0.0594  0.6342
  137MOL0     O18363   0.367   3.368   3.059  0.4926 -0.2258 -0.3280
  137MOL0     C18364   0.459   3.356   3.159 -0.0121 -0.3104 -0.1588
  137MOL0     C18365   0.466   3.235   3.232 -0.3643  0.0996  0.5695
  137MOL0     C18366   0.547   3.223   3.342  0.2276  0.2250  0.6667
  137MOL0     C18367   0.626   3.328   3.383  0.1945 -1.3865 -0.5443
  137MOL0     O18368   0.707   3.302   3.494 -0.6301  0.4837 -0.3401
  137MOL0     C18369   0.780   3.418   3.546  0.1215  0.0975  0.4886
  137MOL0     C18370   0.699   3.505   3.648 -1.0995 -0.4335  0.4441
  137MOL0     C18371   0.663   3.433   3.781  0.0920  0.2481 -1.0487
  137MOL0     C18372   0.568   3.522   3.868 -0.3146  0.2383 -0.7050
  137MOL0     C18373   0.530   3.448   4.008  0.5387 -0.7024  0.8259
  137MOL0     C18374   0.647   3.447   4.114  0.0767  0.6634 -0.6300
  137MOL0     C18375   0.634   3.368   4.253  0.0262 -0.1516 -0.2238
  137MOL0     C18376   0.499   3.399   4.333  0.4909 -1.0857  0.2016
  137MOL0     N18377   0.382   3.328   4.277 -0.1987  1.0012  0.0540
  137MOL0     C18378   0.378   3.188   4.271 -0.1274  0.4504  0.3588
  137MOL0     C18379   0.249   3.172   4.215  0.4932  0.3592  0.0145
  137MOL0     C18380   0.178   3.041   4.197 -0.1321  0.7754  0.2475
  137MOL0     C18381   0.135   3.046   4.044  0.2274  0.0060  0.3648
  137MOL0     C18382   0.244   3.040   3.944  0.0772  0.9690 -0.6408
  137MOL0     C18383   0.307   2.900   3.942  0.0085  0.4562  0.1588
  137MOL0     O18384   0.407   2.890   3.839  0.0844 -0.1814  0.4350
  137MOL0     C18385   0.528   2.953   3.855  0.6721 -0.9473  1.0992
  137MOL0     C18386   0.600   2.984   3.729 -0.1446 -0.6989 -0.3038
  137MOL0     C18387   0.729   3.054   3.734  0.1371 -0.0580  0.4044
  137MOL0     C18388   0.780   3.092   3.865 -0.5532 -0.2968  0.6527
  137MOL0     C18389   0.921   3.155   3.871  0.3549  0.8113  0.8871
  137MOL0     O18390   0.975   3.172   3.991 -0.0074 -0.5054 -0.2224
  137MOL0     C18391   1.112   3.176   4.007 -1.2017 -0.3819  0.4624
  137MOL0     C18392   1.191   3.260   3.931  0.1360 -0.5993  0.0582
  137MOL0     C18393   1.326   3.264   3.948  0.1825  0.0536  0.4637
  137MOL0     C18394   1.388   3.178   4.034 -1.0223 -0.5286  0.2368
  137MOL0     O18395   1.525   3.198   4.067  0.5316 -0.2671  0.7793
  137MOL0     C18396   1.611   3.080   4.081 -0.0639  0.2796 -0.7386
  137MOL0     C18397   1.749   3.106   4.115 -0.2688 -0.6263  0.3589
  137MOL0     C18398   1.838   2.980   4.092 -0.7922  1.4266  0.3921
  137MOL0     C18399   1.981   2.982   4.154  0.1798  0.3359 -0.2426
  137MOL0     C18400   2.069   2.856   4.128 -0.2460  0.4675  0.5222
  137MOL0     C18401   2.206   2.869   4.191  0.0640  0.2618 -0.1180
  137MOL0     C18402   2.287   2.750   4.140 -0.1878  0.0835 -0.3228
  137MOL0     C18403   2.420   2.752   4.218 -0.4077 -0.1056 -0.4196
  137MOL0    Cl18404   2.505   2.908   4.220 -0.3146 -0.5823 -0.2871
  137MOL0     C18405   1.317   3.082   4.095  0.1327  0.3818  0.2162
  137MOL0     C18406   1.173   3.089   4.090 -1.0977  0.8533  0.1598
  137MOL0     O18407   0.983   3.173   3.758 -0.4522 -0.0747 -0.5607
  137MOL0     C18408   0.710   3.056   3.984 -0.7468 -0.3508 -0.3790
  137MOL0     C18409   0.588   2.991   3.971  0.3144  0.5407  0.2842
  137MOL0     N18410   0.187   3.297   4.200  0.3877  0.0099 -0.9280
  137MOL0     N18411   0.265   3.385   4.234 -0.3273  0.1464  0.6338
  137MOL0     C18412   0.628   3.450   3.313  0.5208  0.3010  0.8172
  137MOL0     C18413   0.540   3.462   3.204 -0.0574 -1.1475 -0.0330
  137MOL0     C18414   0.292   3.453   2.841 -0.3008 -0.2142  0.8168
  137MOL0     C18415   0.171   3.386   2.859 -0.1707 -0.1735 -0.1493
  137MOL0     C18416   0.067   3.402   2.771  0.5083  0.6191  0.3582
  137MOL0     C18417   0.063   3.481   2.665 -0.7811  0.1833 -0.3527
  137MOL0     O18418  -0.059   3.486   2.596 -0.2143 -0.4366 -0.7585
  137MOL0     C18419  -0.091   3.607   2.523  0.0790  0.1367 -0.9567
  137MOL0     C18420  -0.220   3.570   2.447  0.1692  0.2440 -0.6818
  137MOL0     C18421  -0.342   3.553   2.541 -0.2936  0.2489  0.0064
  137MOL0     C18422  -0.460   3.494   2.467 -0.0766 -0.0506 -0.2638
  137MOL0     C18423  -0.515   3.585   2.364 -0.0184  0.0015 -0.1747
  137MOL0     C18424  -0.559   3.666   2.287  0.3576 -0.0339 -0.0412
  137MOL0     C18425   0.183   3.548   2.639 -0.4430  0.3152 -0.1705
  137MOL0     C18426   0.300   3.534   2.721 -0.2841 -0.4028 -0.2485
  137MOL0     C18427   0.426   3.601   2.683 -0.5830 -0.4698  0.2669
  137MOL0     H18428   0.401   3.155   3.200  1.5519 -1.6496  0.8527
  137MOL0     H18429   0.539   3.129   3.395  1.3899 -0.9017 -1.0409
  137MOL0     H18430   0.860   3.378   3.609  0.9681  0.0569 -0.5908
  137MOL0     H18431   0.832   3.471   3.466  0.5732  0.7343  1.1929
  137MOL0     H18432   0.616   3.559   3.603  2.0387  2.4919 -2.4921
  137MOL0     H18433   0.771   3.580   3.683  1.2224 -2.9931  1.5868
  137MOL0     H18434   0.747   3.407   3.846 -0.4482  1.6207  0.2736
  137MOL0     H18435   0.623   3.334   3.760 -0.1609 -0.5383  2.4844
  137MOL0     H18436   0.607   3.624   3.877  0.9764 -0.4304  2.1120
  137MOL0     H18437   0.479   3.541   3.807  0.4150 -1.3366 -2.3471
  137MOL0     H18438   0.450   3.513   4.046  0.7718  0.4399 -0.5599
  137MOL0     H18439   0.490   3.346   3.997 -0.6934 -0.1582  0.0170
  137MOL0     H18440   0.734   3.392   4.077  0.8629 -0.6555  2.7943
  137MOL0     H18441   0.676   3.551   4.133  1.0425  0.4888 -1.0778
  137MOL0     H18442   0.718   3.409   4.309  0.6119 -0.7834 -0.6244
  137MOL0     H18443   0.648   3.260   4.243 -1.9433 -0.5466  0.6545
  137MOL0     H18444   0.520   3.362   4.434 -3.2950  2.0536  2.4101
  137MOL0     H18445   0.484   3.507   4.338  0.5894 -0.9676 -1.5782
  137MOL0     H18446   0.465   3.129   4.298  1.0598  1.2101 -1.5637
  137MOL0     H18447   0.239   2.953   4.215 -1.3479 -0.4185 -1.2019
  137MOL0     H18448   0.089   3.042   4.260  0.6198 -0.9026  1.4182
  137MOL0     H18449   0.062   2.966   4.033 -2.8084  2.5440  0.6226
  137MOL0     H18450   0.078   3.138   4.026 -2.3271 -1.3811  0.9569
  137MOL0     H18451   0.318   3.117   3.967  0.3751  0.5267 -0.0886
  137MOL0     H18452   0.203   3.070   3.847 -0.2144 -2.0660 -1.5647
  137MOL0     H18453   0.236   2.822   3.913  1.2256 -0.0726 -1.5494
  137MOL0     H18454   0.343   2.869   4.040 -0.9642  0.7110  0.6039
  137MOL0     H18455   0.549   2.968   3.635  1.2920 -1.4743 -0.9874
  137MOL0     H18456   0.787   3.079   3.646  1.5892  0.0508  1.3584
  137MOL0     H18457   1.146   3.335   3.867  0.1502  1.7822  2.6252
  137MOL0     H18458   1.384   3.334   3.889  0.8001  0.4594  1.5269
  137MOL0     H18459   1.568   3.020   4.162  1.1241  0.1101 -0.2243
  137MOL0     H18460   1.609   3.019   3.990 -0.2200 -1.6084  0.4709
  137MOL0     H18461   1.787   3.192   4.059 -2.3561  0.4283  0.4503
  137MOL0     H18462   1.748   3.138   4.219  0.1086  2.1123 -0.4058
  137MOL0     H18463   1.787   2.897   4.143  1.9523 -0.7158 -0.1673
  137MOL0     H18464   1.840   2.961   3.985  0.7612  1.5399  0.3796
  137MOL0     H18465   1.977   3.005   4.260  1.2845 -0.0758 -0.0949
  137MOL0     H18466   2.032   3.061   4.098  1.4938 -0.5983 -0.4366
  137MOL0     H18467   2.078   2.845   4.019 -0.4306  0.8646  0.4658
  137MOL0     H18468   2.019   2.765   4.161  0.1827  0.3908  0.9730
  137MOL0     H18469   2.251   2.963   4.156 -1.2740 -0.2270 -3.5945
  137MOL0     H18470   2.195   2.858   4.299 -1.2600 -4.6037 -0.5413
  137MOL0     H18471   2.296   2.758   4.031 -2.4965  1.0227 -0.5009
  137MOL0     H18472   2.235   2.662   4.177 -0.9851  0.8929  0.5347
  137MOL0     H18473   2.401   2.707   4.316 -0.6374  0.2920 -0.2816
  137MOL0     H18474   2.482   2.674   4.172  0.4596  1.2329 -1.5923
  137MOL0     H18475   1.350   3.008   4.167  1.4587  2.0629  1.4283
  137MOL0     H18476   1.107   3.015   4.135  1.8701 -2.5797 -0.6923
  137MOL0     H18477   0.761   3.073   4.078 -2.1821  2.1287  0.0289
  137MOL0     H18478   0.530   2.960   4.058  0.1783 -1.7400 -0.5653
  137MOL0     H18479   0.700   3.532   3.323  3.7015 -2.1183 -0.4528
  137MOL0     H18480   0.534   3.564   3.167  0.4448 -0.1103  2.5740
  137MOL0     H18481   0.169   3.307   2.933 -3.0408 -0.1164 -0.0376
  137MOL0     H18482  -0.017   3.337   2.792  0.9317 -0.0894 -0.1135
  137MOL0     H18483  -0.019   3.627   2.443  0.3760 -0.3107 -0.8103
  137MOL0     H18484  -0.105   3.698   2.582  0.9880  0.4595 -1.2163
  137MOL0     H18485  -0.205   3.475   2.396 -0.5215  1.7928 -4.0923
  137MOL0     H18486  -0.238   3.645   2.369  1.6499  1.4108  0.0309
  137MOL0     H18487  -0.368   3.651   2.582  1.2237  1.2411 -1.2555
  137MOL0     H18488  -0.316   3.481   2.619  0.6408  0.5861  0.0105
  137MOL0     H18489  -0.421   3.405   2.417  0.9994 -1.4720  2.8775
  137MOL0     H18490  -0.547   3.471   2.529 -1.6957  1.9642 -1.6622
  137MOL0     H18491  -0.611   3.722   2.212 -0.6788  0.5920  1.1197
  137MOL0     H18492   0.190   3.605   2.547 -2.5309  1.4438  0.3010
  137MOL0     H18493   0.421   3.622   2.576 -2.3106 -2.4218 -0.0873
  137MOL0     H18494   0.423   3.698   2.734  0.9065  1.5734 -3.1358
  137MOL0     H18495   0.522   3.551   2.701 -0.7104 -0.5565  0.7351
  138MOL0     O18496   9.046   0.742   5.229 -0.3038  0.0255  0.1203
  138MOL0     C18497   8.948   0.806   5.191  0.0610  0.7241  0.7797
  138MOL0     O18498   8.939   0.939   5.165 -0.2315 -0.4371 -0.3186
  138MOL0     C18499   9.063   0.996   5.166 -0.3542 -0.0735  0.6236
  138MOL0     C18500   9.146   0.977   5.054  0.1129  0.2178  0.5533
  138MOL0     C18501   9.278   1.026   5.052  1.2523 -0.3708  0.6952
  138MOL0     C18502   9.332   1.098   5.164  0.3520 -0.2937  0.6798
  138MOL0     O18503   9.457   1.154   5.172 -0.3491  0.0533 -0.0209
  138MOL0     C18504   9.517   1.184   5.050 -0.1522 -0.0541  0.1227
  138MOL0     C18505   9.636   1.283   5.072  0.4108  0.2500  0.9225
  138MOL0     C18506   9.764   1.227   5.129 -0.0277 -0.2808  0.2933
  138MOL0     C18507   9.856   1.184   5.008 -0.3205 -0.1556 -0.2865
  138MOL0     C18508   9.993   1.125   5.064 -0.5082 -0.6070  0.2444
  138MOL0     C18509  10.118   1.170   4.977  0.7028 -0.3936 -0.2785
  138MOL0     C18510  10.244   1.105   5.040 -0.3560 -1.3390 -0.5709
  138MOL0     C18511  10.292   1.189   5.166 -0.4075  0.6963 -0.0292
  138MOL0     N18512  10.406   1.283   5.137  0.2500  0.2018 -0.6349
  138MOL0     C18513  10.544   1.254   5.127  0.0139 -0.3146  0.9884
  138MOL0     C18514  10.604   1.373   5.095 -0.3138  0.4119 -0.4218
  138MOL0     C18515  10.749   1.395   5.080 -0.2463 -0.5118 -0.9804
  138MOL0     C18516  10.795   1.495   5.198 -0.3852  1.0290 -0.3040
  138MOL0     C18517  10.947   1.508   5.202 -0.6133  0.6665 -0.9277
  138MOL0     C18518  11.003   1.602   5.319 -0.3051 -0.1150  0.2561
  138MOL0     O18519  11.141   1.586   5.337  0.5722 -0.6232  0.4824
  138MOL0     C18520  11.244   1.653   5.266  0.5444 -0.4975 -0.4225
  138MOL0     C18521  11.220   1.741   5.168 -0.5807 -0.1813 -0.3990
  138MOL0     C18522  11.331   1.806   5.103  0.6216  0.1066 -0.0094
  138MOL0     C18523  11.460   1.778   5.135 -0.0318  0.5693 -0.0413
  138MOL0     C18524  11.580   1.820   5.063  0.1286 -0.8803 -0.7587
  138MOL0     O18525  11.679   1.728   5.064 -0.4080 -0.8726 -0.4760
  138MOL0     C18526  11.801   1.764   5.018  0.7916 -0.7640  0.5041
  138MOL0     C18527  11.812   1.774   4.878  0.5960 -0.9067 -0.2146
  138MOL0     C18528  11.935   1.804   4.825 -0.1800 -1.2522  0.4177
  138MOL0     C18529  12.050   1.811   4.902 -0.5916 -0.0805  0.4534
  138MOL0     O18530  12.171   1.833   4.838  1.0538 -0.1402 -0.3601
  138MOL0     C18531  12.289   1.758   4.871  0.0783  0.1044 -0.0223
  138MOL0     C18532  12.376   1.841   4.961  0.3935  0.2489  0.2680
  138MOL0     C18533  12.504   1.763   4.992 -0.2250  0.4474 -0.9846
  138MOL0     C18534  12.591   1.855   5.073 -0.2628 -0.5891 -0.1228
  138MOL0     C18535  12.720   1.777   5.113 -0.3715 -0.3350 -0.5000
  138MOL0     C18536  12.825   1.859   5.198 -0.1026  1.1644 -0.4883
  138MOL0     C18537  12.949   1.764   5.227  0.1553  0.5423 -0.9787
  138MOL0     C18538  13.036   1.843   5.314 -0.2246 -0.4727  0.4280
  138MOL0    Cl18539  13.191   1.746   5.325  0.3996 -0.1990  0.4391
  138MOL0     C18540  12.038   1.783   5.038  0.3844  0.3927 -0.0100
  138MOL0     C18541  11.916   1.758   5.098  0.8088 -0.0013  0.2017
  138MOL0     O18542  11.588   1.933   5.023 -0.3298  0.0053  0.0175
  138MOL0     C18543  11.479   1.690   5.241 -0.5265  0.3777 -0.0509
  138MOL0     C18544  11.366   1.632   5.306 -0.0705  0.0170 -0.8246
  138MOL0     N18545  10.506   1.468   5.096  0.2316  0.2696 -0.2561
  138MOL0     N18546  10.386   1.420   5.125  0.3473 -0.1626  0.2350
  138MOL0     C18547   9.252   1.122   5.272  0.1201  0.1227  0.6599
  138MOL0     C18548   9.117   1.073   5.273 -1.4159  0.5541  0.2280
  138MOL0     C18549   8.810   0.744   5.171 -0.3875 -0.1845 -0.2958
  138MOL0     C18550   8.698   0.827   5.143  0.3650  0.0581  0.5803
  138MOL0     C18551   8.573   0.780   5.124  1.1269  0.7449  0.3827
  138MOL0     C18552   8.546   0.640   5.124 -0.2560 -0.9474  0.1783
  138MOL0     O18553   8.436   0.575   5.081 -0.4433  0.0207 -0.4923
  138MOL0     C18554   8.317   0.642   5.050 -0.6095  0.0894 -1.4452
  138MOL0     C18555   8.224   0.531   5.010  1.0633 -0.3080 -0.3983
  138MOL0     C18556   8.075   0.591   4.995  0.7711  0.4887  0.3107
  138MOL0     C18557   8.013   0.528   4.874  1.1690  0.4269  0.2341
  138MOL0     C18558   7.889   0.604   4.838 -0.6174  0.4891 -1.0312
  138MOL0     C18559   7.786   0.673   4.838 -0.1529 -0.3279  0.0069
  138MOL0     C18560   8.647   0.560   5.157  0.5800  0.6656  0.1534
  138MOL0     C18561   8.775   0.605   5.181  1.0816  0.7773  0.1851
  138MOL0     C18562   8.872   0.489   5.213  0.0716  0.6767  0.8276
  138MOL0     H18563   9.092   0.930   4.972 -3.6744 -0.0592  2.9695
  138MOL0     H18564   9.333   0.998   4.963 -1.4566  0.6459 -1.4466
  138MOL0     H18565   9.555   1.086   5.019 -1.8274 -0.8121  0.3910
  138MOL0     H18566   9.452   1.220   4.971  2.2043 -1.4777 -2.6945
  138MOL0     H18567   9.609   1.355   5.150 -0.7790  0.1142  0.6597
  138MOL0     H18568   9.659   1.331   4.976 -0.6167 -0.7675  0.1368
  138MOL0     H18569   9.748   1.154   5.209  0.7114 -0.6251  0.1358
  138MOL0     H18570   9.821   1.310   5.172  1.2629 -0.8636 -0.2291
  138MOL0     H18571   9.796   1.114   4.948 -2.0403 -0.5566  1.7861
  138MOL0     H18572   9.878   1.275   4.951  1.8234 -0.4087  0.0689
  138MOL0     H18573  10.012   1.170   5.162 -0.3167  0.9732 -0.4871
  138MOL0     H18574   9.998   1.018   5.082  0.2525 -0.4510  1.0399
  138MOL0     H18575  10.110   1.137   4.873 -0.4062 -2.8306  0.5189
  138MOL0     H18576  10.128   1.279   4.978  2.4088 -0.4962  2.0639
  138MOL0     H18577  10.330   1.112   4.973 -0.1412  0.1596 -0.1773
  138MOL0     H18578  10.226   1.000   5.064  1.5644 -1.4045  0.7317
  138MOL0     H18579  10.206   1.247   5.202 -1.1935 -0.7253  0.4651
  138MOL0     H18580  10.319   1.117   5.244  0.2966 -0.6380 -1.4690
  138MOL0     H18581  10.592   1.158   5.140  1.0256 -0.1134 -0.9021
  138MOL0     H18582  10.809   1.304   5.092  0.0844  0.0569  2.5112
  138MOL0     H18583  10.768   1.444   4.984 -1.0319  1.4817 -0.1703
  138MOL0     H18584  10.749   1.594   5.199 -1.9957  0.3103  1.3680
  138MOL0     H18585  10.762   1.457   5.295 -1.1042 -1.2332 -1.3455
  138MOL0     H18586  10.994   1.547   5.112  0.8993  0.3093 -0.3303
  138MOL0     H18587  10.983   1.406   5.223 -0.8313  0.6832 -0.4636
  138MOL0     H18588  10.943   1.582   5.407 -1.9680  0.3760 -0.7306
  138MOL0     H18589  10.976   1.701   5.283  0.6355 -0.0843 -0.4210
  138MOL0     H18590  11.122   1.769   5.131 -2.0917 -3.9487  0.2889
  138MOL0     H18591  11.322   1.878   5.022  0.8360  1.8591  1.4493
  138MOL0     H18592  11.716   1.778   4.827 -0.5810  0.2140  1.9142
  138MOL0     H18593  11.932   1.809   4.716 -1.7974  2.2859  0.4962
  138MOL0     H18594  12.260   1.659   4.907  1.9588 -1.1629 -1.7797
  138MOL0     H18595  12.333   1.747   4.771 -1.4175 -2.6275 -0.4606
  138MOL0     H18596  12.411   1.936   4.919  1.0024 -0.6055 -1.2108
  138MOL0     H18597  12.323   1.859   5.055 -1.0195  0.5548 -0.5699
  138MOL0     H18598  12.481   1.678   5.057  2.2048  0.1874 -0.3889
  138MOL0     H18599  12.550   1.715   4.905 -0.9878  0.3633 -1.3530
  138MOL0     H18600  12.542   1.889   5.164  2.9374 -0.8489  1.8660
  138MOL0     H18601  12.621   1.933   5.003 -1.1133  1.2131  1.4403
  138MOL0     H18602  12.768   1.731   5.025  0.0041 -1.1307  0.1043
  138MOL0     H18603  12.673   1.695   5.167 -1.9476 -0.2779 -1.7174
  138MOL0     H18604  12.864   1.951   5.154  3.6938 -0.5459 -1.0479
  138MOL0     H18605  12.782   1.890   5.294 -2.5080 -0.5481 -0.9085
  138MOL0     H18606  13.006   1.744   5.135 -0.5174 -0.8243 -1.1232
  138MOL0     H18607  12.924   1.672   5.281 -0.9133  3.7081  4.7311
  138MOL0     H18608  13.060   1.942   5.273  1.9867 -1.7350 -1.6039
  138MOL0     H18609  12.992   1.855   5.414 -1.6404  3.0359 -0.4582
  138MOL0     H18610  12.123   1.767   5.104 -0.4479 -0.6611  0.8523
  138MOL0     H18611  11.919   1.726   5.202  2.8902 -1.1030 -0.1438
  138MOL0     H18612  11.576   1.665   5.284 -0.0019  0.7887 -0.9791
  138MOL0     H18613  11.388   1.585   5.401  0.5877  2.7726  0.4812
  138MOL0     H18614   9.290   1.160   5.366 -0.6137 -1.6682  1.7547
  138MOL0     H18615   9.054   1.088   5.359 -0.5657 -1.5753  1.3058
  138MOL0     H18616   8.696   0.935   5.137 -1.3455  0.0470  0.5969
  138MOL0     H18617   8.513   0.867   5.097  3.5366  1.8780 -1.7706
  138MOL0     H18618   8.335   0.717   4.972  3.2283 -0.4662 -1.2782
  138MOL0     H18619   8.280   0.684   5.144  0.3135  3.2795 -2.3740
  138MOL0     H18620   8.215   0.444   5.076 -1.0434 -1.0154 -1.4923
  138MOL0     H18621   8.255   0.500   4.910  1.0626  0.5773 -0.6853
  138MOL0     H18622   8.082   0.700   4.991  2.5061  0.3812 -2.1396
  138MOL0     H18623   8.013   0.569   5.082  0.0508 -0.0804 -0.3288
  138MOL0     H18624   8.071   0.527   4.781 -0.7827 -4.2001 -1.2478
  138MOL0     H18625   7.979   0.427   4.898 -1.8056  1.3390  0.2562
  138MOL0     H18626   7.696   0.727   4.860  0.0092  0.7213 -1.7420
  138MOL0     H18627   8.609   0.461   5.178  1.9067  0.1700  0.2569
  138MOL0     H18628   8.833   0.387   5.204 -0.5310  0.9999 -0.4063
  138MOL0     H18629   8.956   0.492   5.144  1.0977  0.0130  1.9999
  138MOL0     H18630   8.908   0.503   5.316  2.2100 -1.1786  0.4165
  139MOL0     O18631   4.107  10.502   7.907  0.5464  0.2952 -1.1171
  139MOL0     C18632   4.042  10.460   7.812  0.2848 -0.3021 -0.1304
  139MOL0     O18633   4.089  10.441   7.689 -0.2514  0.8592 -0.0956
  139MOL0     C18634   4.208  10.494   7.657  1.4046 -0.0690  0.6015
  139MOL0     C18635   4.308  10.406   7.634  0.3862  0.0331  0.1418
  139MOL0     C18636   4.440  10.456   7.610 -0.0977  0.4184  0.2244
  139MOL0     C18637   4.467  10.588   7.622 -0.4279 -0.5911  0.1071
  139MOL0     O18638   4.602  10.634   7.610 -0.0834  0.7451 -0.3537
  139MOL0     C18639   4.648  10.735   7.701 -0.0526  0.4807 -0.3156
  139MOL0     C18640   4.695  10.659   7.830 -0.8919 -0.7188 -0.8673
  139MOL0     C18641   4.808  10.732   7.893 -0.2686 -0.8565 -0.2953
  139MOL0     C18642   4.875  10.660   8.008 -0.0396 -0.1072 -0.2500
  139MOL0     C18643   4.985  10.748   8.069 -0.5475 -0.4850 -0.0527
  139MOL0     C18644   5.050  10.665   8.182  0.5419 -0.4897  0.6160
  139MOL0     C18645   5.172  10.724   8.243  0.7644  0.1857  0.0921
  139MOL0     C18646   5.263  10.609   8.314 -0.3105  0.1452  0.0604
  139MOL0     N18647   5.392  10.668   8.359 -0.2536 -1.0197  0.0775
  139MOL0     C18648   5.399  10.726   8.481 -0.3684 -0.5679  0.6486
  139MOL0     C18649   5.528  10.770   8.489 -0.9410  0.3228  0.5244
  139MOL0     C18650   5.590  10.840   8.601  0.6730 -0.0774 -0.0081
  139MOL0     C18651   5.742  10.849   8.583 -0.4324  0.0338 -0.1416
  139MOL0     C18652   5.806  10.925   8.702 -0.6324  0.4071 -0.4073
  139MOL0     C18653   5.960  10.906   8.727 -0.2279 -1.1889 -0.4992
  139MOL0     O18654   5.986  10.996   8.834  0.5569 -0.4082 -0.1977
  139MOL0     C18655   6.110  10.988   8.896 -0.9005 -0.3319 -0.6457
  139MOL0     C18656   6.135  11.017   9.036 -0.2078 -0.6360 -0.6749
  139MOL0     C18657   6.260  10.980   9.091 -0.2893  1.0076 -0.1204
  139MOL0     C18658   6.367  10.937   9.018  0.5815  0.6620 -0.5555
  139MOL0     C18659   6.498  10.938   9.081  0.3217  0.6073 -1.0357
  139MOL0     O18660   6.589  10.846   9.026  0.2960 -0.9948 -0.9485
  139MOL0     C18661   6.705  10.823   9.089  0.2450 -0.6297 -1.3450
  139MOL0     C18662   6.798  10.924   9.093  0.0618  0.0110  0.3386
  139MOL0     C18663   6.911  10.918   9.166  0.3427  0.2611 -0.0980
  139MOL0     C18664   6.945  10.787   9.217  0.5342  0.3533 -0.6240
  139MOL0     O18665   7.046  10.751   9.303 -0.3359 -0.4763  1.0412
  139MOL0     C18666   7.162  10.840   9.291  0.1776  0.4817  0.2454
  139MOL0     C18667   7.293  10.777   9.341 -0.6425  0.3986 -0.1332
  139MOL0     C18668   7.284  10.705   9.470  0.0009 -0.2299 -0.4478
  139MOL0     C18669   7.420  10.647   9.506 -0.1539  0.4172  0.2849
  139MOL0     C18670   7.420  10.598   9.659  0.3347 -0.2134  0.5384
  139MOL0     C18671   7.523  10.480   9.654  0.5758 -0.3923 -0.2462
  139MOL0     C18672   7.531  10.415   9.795  0.4357 -0.1602  0.2470
  139MOL0     C18673   7.492  10.266   9.795 -0.1839  0.0154  0.2252
  139MOL0    Cl18674   7.317  10.232   9.755 -0.5110 -0.3065 -0.2412
  139MOL0     C18675   6.851  10.678   9.198 -0.0973 -0.8912 -0.1563
  139MOL0     C18676   6.728  10.698   9.137 -1.1149  0.2542  0.2109
  139MOL0     O18677   6.505  10.983   9.190 -0.7226 -0.5885 -0.3484
  139MOL0     C18678   6.351  10.927   8.882 -0.0894 -0.6199 -0.5065
  139MOL0     C18679   6.227  10.944   8.820  0.3081 -0.6856  0.4211
  139MOL0     N18680   5.589  10.746   8.366  0.5400 -0.4797 -0.4559
  139MOL0     N18681   5.508  10.686   8.287  0.0923  0.5632  0.0483
  139MOL0     C18682   4.359  10.675   7.651 -0.6207 -0.4191  0.5592
  139MOL0     C18683   4.228  10.633   7.673  0.4474  0.5945  0.3734
  139MOL0     C18684   3.890  10.449   7.828 -0.3055  0.3678 -0.0228
  139MOL0     C18685   3.837  10.431   7.958 -0.5446 -0.5134 -0.0652
  139MOL0     C18686   3.701  10.457   7.979  0.9832  0.1923 -0.4511
  139MOL0     C18687   3.614  10.485   7.871  0.0113 -0.2010 -0.3613
  139MOL0     O18688   3.481  10.484   7.895  0.1180 -0.3686  0.4661
  139MOL0     C18689   3.424  10.607   7.920 -0.1045 -0.5794  0.1930
  139MOL0     C18690   3.293  10.599   7.997 -0.7744  0.3626 -0.0045
  139MOL0     C18691   3.189  10.498   7.949  0.8353  0.5353 -0.6395
  139MOL0     C18692   3.059  10.507   8.035  1.1771  0.5291 -0.7439
  139MOL0     C18693   3.087  10.449   8.167  0.5006 -0.4108 -0.5486
  139MOL0     C18694   3.124  10.396   8.266  0.1423 -0.1708 -0.1257
  139MOL0     C18695   3.663  10.500   7.741  0.1753  0.9054  0.0572
  139MOL0     C18696   3.800  10.481   7.716 -0.7151  0.3538  0.6247
  139MOL0     C18697   3.842  10.509   7.575 -0.0637  0.1542 -0.0268
  139MOL0     H18698   4.286  10.299   7.638  0.1821  0.1064  1.7897
  139MOL0     H18699   4.524  10.391   7.590  0.2542  0.3307  1.8473
  139MOL0     H18700   4.739  10.768   7.649  2.0444 -4.1841 -0.1986
  139MOL0     H18701   4.587  10.824   7.718 -0.9843 -0.4560  1.4778
  139MOL0     H18702   4.727  10.557   7.809  0.9537  0.1493 -2.6102
  139MOL0     H18703   4.609  10.668   7.897 -0.2162  3.7284 -0.2299
  139MOL0     H18704   4.765  10.830   7.919 -0.5283 -1.0612  0.0697
  139MOL0     H18705   4.890  10.741   7.822 -0.1271  0.1826 -0.0167
  139MOL0     H18706   4.793  10.652   8.080 -1.9075  1.2715 -2.1193
  139MOL0     H18707   4.899  10.558   7.978 -3.5648 -2.0580  2.6821
  139MOL0     H18708   5.058  10.766   7.989 -2.3571  4.2334 -0.9721
  139MOL0     H18709   4.939  10.836   8.116 -2.3509 -1.7621  0.6986
  139MOL0     H18710   4.976  10.657   8.262  0.0234 -0.2097  0.1731
  139MOL0     H18711   5.086  10.567   8.149  0.1736 -0.2227 -0.6612
  139MOL0     H18712   5.131  10.792   8.319 -1.2681 -0.0448 -0.7476
  139MOL0     H18713   5.232  10.778   8.169  1.0933  0.3174  0.4508
  139MOL0     H18714   5.212  10.548   8.390 -0.0692 -1.0120 -0.6748
  139MOL0     H18715   5.300  10.535   8.243  1.1505 -0.0643  1.0113
  139MOL0     H18716   5.317  10.754   8.546 -0.8810  0.7143 -0.5099
  139MOL0     H18717   5.545  10.940   8.602 -0.0753 -0.4037 -0.1632
  139MOL0     H18718   5.575  10.794   8.699 -1.0510  0.0892 -0.1606
  139MOL0     H18719   5.778  10.746   8.589  0.9418  0.3328 -2.1555
  139MOL0     H18720   5.778  10.900   8.492  0.0811 -0.2131 -0.0798
  139MOL0     H18721   5.758  10.893   8.794 -2.4904  1.1548 -1.0644
  139MOL0     H18722   5.781  11.030   8.687 -0.6116  0.1677 -2.3944
  139MOL0     H18723   6.018  10.935   8.639  1.9975  0.0955  1.2702
  139MOL0     H18724   5.985  10.806   8.762  0.2714 -0.1118  2.5399
  139MOL0     H18725   6.057  11.051   9.103  1.4895  2.4979 -0.0669
  139MOL0     H18726   6.265  10.997   9.198  0.4827 -1.7402  0.3448
  139MOL0     H18727   6.770  11.018   9.046 -0.2674 -0.8787 -1.3472
  139MOL0     H18728   6.971  11.007   9.178  0.3820 -0.0579  2.6704
  139MOL0     H18729   7.181  10.857   9.185  0.1902  0.1039  0.1825
  139MOL0     H18730   7.145  10.931   9.348 -0.0956  0.3959  0.3021
  139MOL0     H18731   7.322  10.700   9.269  1.7473  1.8903 -0.8704
  139MOL0     H18732   7.373  10.851   9.346  0.7881 -1.0577 -0.5275
  139MOL0     H18733   7.255  10.780   9.544  0.7152  2.8626 -3.0367
  139MOL0     H18734   7.221  10.618   9.453  0.8820 -0.2158 -5.6401
  139MOL0     H18735   7.497  10.725   9.495 -2.2386  2.4326 -0.8032
  139MOL0     H18736   7.439  10.566   9.435  1.5005  1.3703 -0.4223
  139MOL0     H18737   7.321  10.558   9.680  0.7786 -2.2276 -0.9039
  139MOL0     H18738   7.463  10.675   9.724  2.7074 -0.9481 -0.0424
  139MOL0     H18739   7.480  10.409   9.583 -0.1470 -3.3068  2.8994
  139MOL0     H18740   7.624  10.503   9.618  0.1797  1.0069 -0.5576
  139MOL0     H18741   7.463  10.468   9.861  1.0394  3.8174 -2.0064
  139MOL0     H18742   7.633  10.436   9.829  0.0383  4.1706 -0.5688
  139MOL0     H18743   7.557  10.195   9.741 -2.1998 -2.8137  1.2562
  139MOL0     H18744   7.505  10.242   9.901 -1.4297  1.2110  0.6715
  139MOL0     H18745   6.864  10.580   9.243 -3.7161 -1.3792  0.1277
  139MOL0     H18746   6.666  10.609   9.134 -1.8443  0.7258  1.0113
  139MOL0     H18747   6.434  10.886   8.825 -0.0119 -0.2591 -0.6584
  139MOL0     H18748   6.217  10.927   8.714  2.8826  0.3257 -0.0609
  139MOL0     H18749   4.381  10.780   7.639  1.9544 -0.8899  0.6244
  139MOL0     H18750   4.144  10.695   7.703 -0.9180 -0.6496 -0.7211
  139MOL0     H18751   3.900  10.391   8.037  1.0994 -1.8972 -1.9662
  139MOL0     H18752   3.663  10.444   8.080  4.0262  2.6213  1.1845
  139MOL0     H18753   3.396  10.653   7.824  0.1521 -1.5652 -0.3687
  139MOL0     H18754   3.478  10.685   7.974 -3.1821  0.5319  1.9250
  139MOL0     H18755   3.250  10.698   8.015  0.5066  0.9381  0.0311
  139MOL0     H18756   3.332  10.574   8.097  0.1809 -1.6226 -0.8238
  139MOL0     H18757   3.236  10.399   7.950  1.3564  0.7710  0.0351
  139MOL0     H18758   3.175  10.527   7.845  0.6552  2.5821 -0.0983
  139MOL0     H18759   3.011  10.603   8.057 -0.2691 -0.6450  1.6649
  139MOL0     H18760   2.992  10.430   7.995  0.6510  1.1743 -1.1254
  139MOL0     H18761   3.157  10.344   8.353 -0.2084  2.1199  1.4780
  139MOL0     H18762   3.588  10.526   7.667  0.4414  0.8606 -0.2319
  139MOL0     H18763   3.867  10.409   7.538  4.5326 -0.3349  3.5890
  139MOL0     H18764   3.759  10.554   7.519 -1.1282 -2.0208 -0.3034
  139MOL0     H18765   3.925  10.577   7.592 -1.1103  1.5063 -0.1191
  140MOL0     O18766   3.676   4.546   0.664  0.6895 -0.0305  0.1378
  140MOL0     C18767   3.630   4.615   0.756 -0.8365  0.8124 -0.0041
  140MOL0     O18768   3.690   4.614   0.878 -0.9161 -0.0423 -0.8906
  140MOL0     C18769   3.633   4.660   0.993 -0.2008 -0.0326 -0.0212
  140MOL0     C18770   3.512   4.605   1.030  0.1850 -0.0359  0.4097
  140MOL0     C18771   3.453   4.637   1.145  0.5244 -0.8575 -0.6509
  140MOL0     C18772   3.515   4.737   1.230  0.0949  0.0967 -0.1186
  140MOL0     O18773   3.461   4.786   1.341 -0.4330 -0.3999  0.0467
  140MOL0     C18774   3.328   4.750   1.382 -0.5517  0.0517 -0.3038
  140MOL0     C18775   3.265   4.857   1.479 -0.6754  0.7916  0.6904
  140MOL0     C18776   3.322   4.826   1.624 -1.1629  0.0521  0.2079
  140MOL0     C18777   3.289   4.944   1.716  0.7788  0.2139 -0.5709
  140MOL0     C18778   3.342   4.929   1.858 -0.3034 -0.7698  0.0925
  140MOL0     C18779   3.274   4.827   1.950 -0.9484 -0.2175  0.4911
  140MOL0     C18780   3.131   4.843   1.986 -0.9959  0.8724  0.0031
  140MOL0     C18781   3.087   4.972   2.059  0.0080 -0.0166  0.4964
  140MOL0     N18782   2.942   4.979   2.055 -0.8172 -0.3130  0.5586
  140MOL0     C18783   2.852   4.912   2.135 -0.6236  0.8590 -1.2347
  140MOL0     C18784   2.736   4.967   2.107  0.4088 -0.5961 -0.6806
  140MOL0     C18785   2.602   4.935   2.169  0.1396  0.3154  0.0665
  140MOL0     C18786   2.592   4.985   2.316  1.5070  0.3323  0.8561
  140MOL0     C18787   2.599   5.136   2.330 -0.4650  0.0360  0.9791
  140MOL0     C18788   2.582   5.178   2.474  0.4590  0.7679 -0.8677
  140MOL0     O18789   2.677   5.120   2.557 -0.2197  0.4711 -0.4543
  140MOL0     C18790   2.800   5.169   2.534 -0.2129 -0.6168  0.6774
  140MOL0     C18791   2.850   5.281   2.603 -0.4663 -0.2036 -0.1397
  140MOL0     C18792   2.977   5.331   2.577  1.0136  0.0677 -0.7850
  140MOL0     C18793   3.064   5.264   2.494 -0.3859 -0.2275 -0.1215
  140MOL0     C18794   3.194   5.330   2.466  0.1147 -0.4861  0.0629
  140MOL0     O18795   3.213   5.466   2.514  0.1443 -0.2460  0.1819
  140MOL0     C18796   3.315   5.537   2.461  0.4884 -0.1246  0.4646
  140MOL0     C18797   3.305   5.590   2.337  0.3960 -0.0598  0.1786
  140MOL0     C18798   3.404   5.670   2.279  0.8549  0.5858  0.0341
  140MOL0     C18799   3.523   5.681   2.344 -0.8358  0.9015  0.1653
  140MOL0     O18800   3.618   5.754   2.283  0.3152 -0.2358  0.0966
  140MOL0     C18801   3.722   5.654   2.252  0.6507 -0.8307  0.0240
  140MOL0     C18802   3.834   5.711   2.158  0.4492 -0.2452  0.0307
  140MOL0     C18803   3.945   5.607   2.131  0.1433  0.3840 -0.4476
  140MOL0     C18804   4.041   5.674   2.037 -0.2512 -0.5309  0.1371
  140MOL0     C18805   4.145   5.573   1.985  0.7758  0.3502 -0.2095
  140MOL0     C18806   4.239   5.633   1.889  0.3596 -0.7099  0.0704
  140MOL0     C18807   4.331   5.535   1.831  0.4025  0.2121 -0.1697
  140MOL0     C18808   4.424   5.601   1.734 -0.5322 -0.1181 -0.3683
  140MOL0    Cl18809   4.574   5.500   1.710 -0.1047 -0.1233 -0.2074
  140MOL0     C18810   3.544   5.616   2.467  0.2451  0.7558 -0.3914
  140MOL0     C18811   3.436   5.548   2.530 -0.4001 -0.6163 -0.3809
  140MOL0     O18812   3.278   5.276   2.396 -0.0738 -0.2117 -0.2010
  140MOL0     C18813   3.022   5.138   2.440  0.2164  0.6213  0.3628
  140MOL0     C18814   2.891   5.092   2.459  0.8471 -0.2059  0.1867
  140MOL0     N18815   2.759   5.080   2.023 -0.3547  0.1465 -0.4141
  140MOL0     N18816   2.883   5.084   1.996 -0.5369 -0.1948  0.1159
  140MOL0     C18817   3.639   4.792   1.190  0.6367 -0.5063 -0.0718
  140MOL0     C18818   3.701   4.751   1.076 -1.0574  0.0520  0.8429
  140MOL0     C18819   3.511   4.697   0.730  0.4398  0.4114 -0.4971
  140MOL0     C18820   3.510   4.828   0.765 -0.0293 -0.6548  0.8768
  140MOL0     C18821   3.399   4.914   0.734 -1.1967  0.0282  0.5997
  140MOL0     C18822   3.283   4.864   0.679 -1.2531  1.1051  1.1453
  140MOL0     O18823   3.179   4.942   0.657  0.0562 -0.7934 -1.1848
  140MOL0     C18824   3.048   4.898   0.602 -0.3536 -0.3475  0.7917
  140MOL0     C18825   2.961   4.867   0.729  0.1411  1.2757 -0.1147
  140MOL0     C18826   2.936   4.992   0.818  1.3974  0.5547  0.5459
  140MOL0     C18827   2.895   4.944   0.957  0.3010  0.0909 -0.8576
  140MOL0     C18828   2.756   4.892   0.958  0.0662 -0.9874  0.3744
  140MOL0     C18829   2.638   4.862   0.974 -0.7947  0.3426 -0.5631
  140MOL0     C18830   3.284   4.722   0.642  0.2432 -0.0779 -1.2727
  140MOL0     C18831   3.392   4.640   0.661  0.5336 -0.1438 -0.1810
  140MOL0     C18832   3.391   4.490   0.629  0.9730  0.1084  0.4918
  140MOL0     H18833   3.478   4.524   0.966 -1.9350  0.6764  0.5797
  140MOL0     H18834   3.370   4.574   1.174  1.3283 -1.3605  0.6469
  140MOL0     H18835   3.262   4.729   1.297 -1.3407  0.0817  0.2856
  140MOL0     H18836   3.329   4.653   1.433 -2.3851 -0.9311 -1.9684
  140MOL0     H18837   3.157   4.845   1.483 -0.7696 -1.3475 -3.4686
  140MOL0     H18838   3.289   4.951   1.429  0.1215  0.1690 -0.1313
  140MOL0     H18839   3.431   4.819   1.618 -0.9586  2.2625  0.5222
  140MOL0     H18840   3.279   4.733   1.664  2.3874 -1.1117  1.6934
  140MOL0     H18841   3.322   5.033   1.661 -0.5385  0.5028 -0.9292
  140MOL0     H18842   3.180   4.946   1.714  0.7442  2.2688  0.5976
  140MOL0     H18843   3.445   4.892   1.847 -0.8995 -3.2114  1.8512
  140MOL0     H18844   3.345   5.024   1.912  2.1959 -1.1741  0.7897
  140MOL0     H18845   3.295   4.729   1.907  3.4936  0.8777 -0.3613
  140MOL0     H18846   3.337   4.822   2.039 -0.4348 -0.6680  0.1065
  140MOL0     H18847   3.111   4.751   2.041  2.5219 -0.0798 -0.0887
  140MOL0     H18848   3.086   4.842   1.886  1.4165  2.8343 -1.2109
  140MOL0     H18849   3.123   4.965   2.162  0.6221  2.5319  0.5085
  140MOL0     H18850   3.133   5.058   2.010  1.0802 -0.3173  0.9309
  140MOL0     H18851   2.868   4.823   2.195  0.3062  3.5811  3.0501
  140MOL0     H18852   2.529   4.992   2.111 -1.0960  0.7326  1.9299
  140MOL0     H18853   2.593   4.827   2.157 -1.6081  0.2834  1.2767
  140MOL0     H18854   2.496   4.956   2.359  1.1923  1.2575  0.7894
  140MOL0     H18855   2.668   4.928   2.371  1.6009 -0.7813 -0.3741
  140MOL0     H18856   2.521   5.188   2.274  2.3097  1.3400 -2.0051
  140MOL0     H18857   2.695   5.163   2.285  2.0412 -4.9992  2.5187
  140MOL0     H18858   2.484   5.147   2.512 -0.5751  4.0360 -0.5941
  140MOL0     H18859   2.581   5.287   2.481  0.2615  0.8806 -2.3496
  140MOL0     H18860   2.796   5.338   2.678 -1.2933 -1.8773  0.5712
  140MOL0     H18861   2.996   5.425   2.627  1.7754  0.4502 -1.7601
  140MOL0     H18862   3.219   5.592   2.271  1.0513 -0.9530 -0.7267
  140MOL0     H18863   3.382   5.724   2.187 -1.1603  0.4898  0.4018
  140MOL0     H18864   3.765   5.627   2.349  2.4267  2.2933  0.2285
  140MOL0     H18865   3.679   5.565   2.206 -1.3700 -0.1241  0.4229
  140MOL0     H18866   3.777   5.736   2.068  1.5376 -1.2783 -0.9747
  140MOL0     H18867   3.880   5.799   2.204 -4.8079  2.4703  0.7936
  140MOL0     H18868   3.986   5.576   2.228  0.4082 -4.7934 -1.9539
  140MOL0     H18869   3.905   5.513   2.091  0.9866 -1.4571  2.7200
  140MOL0     H18870   4.099   5.754   2.082  0.2917 -0.7568 -0.1542
  140MOL0     H18871   3.987   5.717   1.952  0.4363  1.8502  0.8305
  140MOL0     H18872   4.092   5.488   1.940  0.0731  1.0007 -0.6281
  140MOL0     H18873   4.201   5.534   2.071  0.2077 -2.1638 -0.9011
  140MOL0     H18874   4.172   5.681   1.817  0.9873  1.8243  1.0836
  140MOL0     H18875   4.291   5.710   1.947  2.1852 -1.9782  0.1822
  140MOL0     H18876   4.287   5.447   1.784  0.1229 -0.2177  0.8589
  140MOL0     H18877   4.391   5.504   1.917  1.5363  0.3908 -0.8670
  140MOL0     H18878   4.374   5.609   1.637  2.6214  0.8411 -2.0513
  140MOL0     H18879   4.453   5.703   1.764 -2.2639  0.0305  0.9706
  140MOL0     H18880   3.636   5.632   2.523  0.5662  3.1772 -1.4944
  140MOL0     H18881   3.442   5.510   2.632  0.7260 -0.4094 -0.3612
  140MOL0     H18882   3.093   5.067   2.398 -1.8805 -0.9501 -0.6744
  140MOL0     H18883   2.858   4.995   2.425  1.5012 -0.3773  0.0267
  140MOL0     H18884   3.688   4.874   1.243  0.4826  1.7700 -3.1751
  140MOL0     H18885   3.801   4.780   1.044 -1.5088  0.2939 -0.3985
  140MOL0     H18886   3.597   4.877   0.808 -0.5637  2.4985 -1.2907
  140MOL0     H18887   3.413   5.021   0.743 -1.3697  0.0813  0.2516
  140MOL0     H18888   3.067   4.810   0.540  1.8743 -0.0042  0.8992
  140MOL0     H18889   3.009   4.974   0.533  2.0162  1.4194  1.2638
  140MOL0     H18890   3.014   4.792   0.788 -0.2889  2.8401  2.3804
  140MOL0     H18891   2.870   4.819   0.693  0.3656  1.1006 -0.4631
  140MOL0     H18892   2.855   5.056   0.782 -2.1892 -2.7565  2.0048
  140MOL0     H18893   3.023   5.057   0.815  0.3392  1.9731 -0.7035
  140MOL0     H18894   2.970   4.879   1.003 -1.6148 -0.1925  2.1224
  140MOL0     H18895   2.894   5.034   1.019 -0.8617 -0.9699  0.7398
  140MOL0     H18896   2.539   4.827   0.995 -0.8141  1.6940  1.9325
  140MOL0     H18897   3.199   4.669   0.600  0.7611 -2.3998  0.3452
  140MOL0     H18898   3.296   4.455   0.670  0.8480 -3.8014 -2.5293
  140MOL0     H18899   3.405   4.460   0.525 -2.2915 -4.1760  1.0457
  140MOL0     H18900   3.456   4.439   0.701  0.4858 -0.1807  0.7295
  141MOL0     O18901   2.864  10.547   5.006 -0.2519  0.5953  0.3188
  141MOL0     C18902   2.840  10.527   4.886  0.4981 -0.5257  0.4279
  141MOL0     O18903   2.718  10.535   4.824  0.3462  0.1781  0.0295
  141MOL0     C18904   2.615  10.533   4.914  0.3786 -0.0244 -0.1579
  141MOL0     C18905   2.536  10.645   4.937  0.2373 -0.0084  1.0369
  141MOL0     C18906   2.429  10.648   5.029 -0.0170  0.2751 -0.0240
  141MOL0     C18907   2.390  10.533   5.091 -0.0504 -0.4119 -0.4580
  141MOL0     O18908   2.276  10.537   5.168 -0.1000 -0.3520 -0.0428
  141MOL0     C18909   2.264  10.433   5.270  0.0216  0.6270  0.0070
  141MOL0     C18910   2.153  10.454   5.370  0.0113  0.2121 -0.2546
  141MOL0     C18911   2.017  10.510   5.324  0.1990  0.2376  0.5862
  141MOL0     C18912   1.919  10.515   5.445  0.7185 -0.3111 -0.0063
  141MOL0     C18913   1.765  10.540   5.421 -0.4202  0.2808 -0.0643
  141MOL0     C18914   1.681  10.522   5.544 -0.5829 -0.3539 -0.3663
  141MOL0     C18915   1.536  10.569   5.511 -0.2010 -0.1511 -0.7184
  141MOL0     C18916   1.455  10.577   5.638  0.2835  0.1155 -0.5495
  141MOL0     N18917   1.371  10.455   5.669 -0.1166  0.2829 -0.5096
  141MOL0     C18918   1.418  10.327   5.689  0.2780 -0.5104 -0.3329
  141MOL0     C18919   1.316  10.250   5.720 -0.2407  0.6779  1.3675
  141MOL0     C18920   1.332  10.094   5.730  0.4057 -0.3800  0.1566
  141MOL0     C18921   1.380  10.026   5.859 -0.3835  0.3250 -0.6693
  141MOL0     C18922   1.498  10.104   5.938  0.5606  0.2857  0.1394
  141MOL0     C18923   1.641  10.073   5.888 -0.5136  0.7695  0.5507
  141MOL0     O18924   1.676  10.120   5.755 -0.0504  0.8409  0.2428
  141MOL0     C18925   1.793  10.081   5.699 -0.1075  0.5638  0.1031
  141MOL0     C18926   1.906  10.042   5.769 -0.1663  0.3931 -0.2003
  141MOL0     C18927   2.022  10.005   5.703  0.4596 -0.2929 -0.2026
  141MOL0     C18928   2.042  10.016   5.566  0.0919  0.4036  0.2614
  141MOL0     C18929   2.165   9.988   5.494 -0.7958  0.1768 -0.4895
  141MOL0     O18930   2.267   9.933   5.580 -0.1238  0.1302  0.1743
  141MOL0     C18931   2.394   9.933   5.523  0.5671  0.5046 -0.2360
  141MOL0     C18932   2.454  10.052   5.546 -1.0694 -1.1337 -0.0476
  141MOL0     C18933   2.583  10.075   5.498 -0.0745 -0.7736  0.6609
  141MOL0     C18934   2.652   9.981   5.415  0.3936  0.2999  0.3461
  141MOL0     O18935   2.773  10.015   5.373 -0.1000 -0.1969  0.3978
  141MOL0     C18936   2.774  10.107   5.267 -0.8576 -0.0700  0.1736
  141MOL0     C18937   2.907  10.169   5.240  0.0459 -0.5149 -0.5724
  141MOL0     C18938   3.008  10.074   5.167 -0.0571 -0.0860 -0.3585
  141MOL0     C18939   2.991  10.088   5.017  0.1267  0.3234  0.4172
  141MOL0     C18940   3.112  10.033   4.933 -0.1711  0.6020  0.0734
  141MOL0     C18941   3.071   9.965   4.801  0.2282 -0.0874  0.1782
  141MOL0     C18942   3.197   9.909   4.739 -0.2449  0.0532 -0.2141
  141MOL0     C18943   3.296  10.014   4.695 -0.0714  0.4443  0.3385
  141MOL0    Cl18944   3.453   9.938   4.645 -0.2193 -0.0702 -0.4099
  141MOL0     C18945   2.586   9.859   5.389 -0.7600  0.3345  0.1720
  141MOL0     C18946   2.460   9.835   5.450  0.2422 -0.8347 -0.0955
  141MOL0     O18947   2.176  10.028   5.379 -0.0363 -0.2079 -0.7651
  141MOL0     C18948   1.921  10.054   5.492 -0.5786  0.1437 -0.1697
  141MOL0     C18949   1.805  10.090   5.552 -0.4251 -0.2357  0.2933
  141MOL0     N18950   1.202  10.324   5.710 -0.0328 -0.2340 -0.1926
  141MOL0     N18951   1.237  10.449   5.690 -0.7054 -0.9528 -0.3421
  141MOL0     C18952   2.466  10.414   5.065 -0.5419 -0.7234  0.0882
  141MOL0     C18953   2.575  10.419   4.976  1.1771  0.1528 -0.9620
  141MOL0     C18954   2.950  10.502   4.790  0.2851 -0.1724 -0.4356
  141MOL0     C18955   3.056  10.595   4.787  0.3943 -1.2998  0.1435
  141MOL0     C18956   3.153  10.578   4.680 -0.0242  0.2623 -0.1222
  141MOL0     C18957   3.133  10.466   4.587  0.7320 -0.0228 -0.1065
  141MOL0     O18958   3.226  10.433   4.485 -0.0427  0.3091  0.0354
  141MOL0     C18959   3.335  10.519   4.460 -0.6875 -0.6922 -0.6104
  141MOL0     C18960   3.383  10.490   4.319  0.0480 -0.0644 -0.7661
  141MOL0     C18961   3.448  10.348   4.313 -0.1758 -0.2247 -0.4202
  141MOL0     C18962   3.532  10.305   4.431 -0.1361  0.0714  0.3162
  141MOL0     C18963   3.645  10.395   4.450  0.0470 -0.2238 -0.4266
  141MOL0     C18964   3.739  10.453   4.483  0.0587 -0.1990  0.4423
  141MOL0     C18965   3.023  10.378   4.594  0.0404 -0.1028  0.0740
  141MOL0     C18966   2.941  10.387   4.706  0.7811 -0.7413  0.3922
  141MOL0     C18967   2.842  10.279   4.724  0.1589 -0.1284  0.3249
  141MOL0     H18968   2.568  10.740   4.896 -0.9916  0.7228  1.7104
  141MOL0     H18969   2.365  10.736   5.032 -1.0709 -0.4926  1.0607
  141MOL0     H18970   2.249  10.337   5.220  0.7322  0.8741 -0.7068
  141MOL0     H18971   2.359  10.421   5.324  1.5960  3.3816 -1.9007
  141MOL0     H18972   2.195  10.519   5.447 -1.1549  1.9267 -0.9981
  141MOL0     H18973   2.133  10.356   5.413 -1.2057  0.9332  0.9123
  141MOL0     H18974   1.971  10.441   5.252 -3.3431  1.7873  1.1547
  141MOL0     H18975   2.029  10.606   5.273 -1.9134 -0.9855 -2.5402
  141MOL0     H18976   1.942  10.419   5.494  0.7206 -0.4736 -0.3184
  141MOL0     H18977   1.956  10.592   5.512 -0.2715 -0.0797  0.2794
  141MOL0     H18978   1.747  10.640   5.379 -1.6698 -0.1761 -0.6716
  141MOL0     H18979   1.721  10.473   5.347 -1.6678  0.3134  0.6213
  141MOL0     H18980   1.684  10.417   5.575  1.3318  0.0566  0.9942
  141MOL0     H18981   1.725  10.585   5.621  2.2326  0.0211 -2.1273
  141MOL0     H18982   1.482  10.507   5.438 -3.0434  1.5767 -0.2536
  141MOL0     H18983   1.544  10.670   5.471  0.0730 -0.4255 -1.3814
  141MOL0     H18984   1.514  10.594   5.728 -1.4674 -2.7727  1.3345
  141MOL0     H18985   1.389  10.663   5.623  0.1579  0.0591 -0.3263
  141MOL0     H18986   1.520  10.289   5.695 -0.1969 -1.7156  0.9251
  141MOL0     H18987   1.235  10.054   5.696 -1.0202  3.7545 -1.3413
  141MOL0     H18988   1.404  10.063   5.654 -0.8492  0.2502 -1.3682
  141MOL0     H18989   1.290  10.035   5.922  0.6540  0.4159  0.8491
  141MOL0     H18990   1.411   9.923   5.840 -0.7860  0.4280 -1.9352
  141MOL0     H18991   1.484  10.073   6.042  2.2807  1.2411  0.7021
  141MOL0     H18992   1.474  10.210   5.927 -2.5753 -0.4919 -1.6855
  141MOL0     H18993   1.667   9.967   5.887 -1.0351  0.5209 -3.8041
  141MOL0     H18994   1.707  10.126   5.958  0.4898 -2.1846  1.9846
  141MOL0     H18995   1.909  10.026   5.877 -0.3145 -0.4958 -0.3211
  141MOL0     H18996   2.106   9.977   5.765  1.4517  1.6867 -0.5542
  141MOL0     H18997   2.415  10.136   5.602  0.5462 -0.3133 -0.0726
  141MOL0     H18998   2.638  10.164   5.529  0.7247 -0.0747 -2.4264
  141MOL0     H18999   2.735  10.061   5.176 -3.0201 -0.3696  1.1920
  141MOL0     H19000   2.702  10.189   5.282 -2.2211 -1.2294  0.1409
  141MOL0     H19001   2.892  10.266   5.193 -2.6068 -0.0999  0.9303
  141MOL0     H19002   2.949  10.203   5.335  0.9027 -1.8797 -0.4323
  141MOL0     H19003   3.105  10.118   5.192 -0.8786  1.2674  0.5989
  141MOL0     H19004   2.992   9.972   5.205 -2.7407  0.9384  1.6043
  141MOL0     H19005   2.977  10.193   4.988 -1.8249  0.1368  0.5797
  141MOL0     H19006   2.900  10.031   4.999 -0.1861  1.2849 -1.2630
  141MOL0     H19007   3.149   9.951   4.996 -0.4973  0.1963 -0.2548
  141MOL0     H19008   3.189  10.111   4.929 -1.5685  2.0113 -0.3641
  141MOL0     H19009   2.986   9.895   4.805 -1.0292  0.9570 -3.8134
  141MOL0     H19010   3.035  10.048   4.740 -0.1785  0.9899  1.8317
  141MOL0     H19011   3.169   9.853   4.649 -2.5278  0.2775  0.2887
  141MOL0     H19012   3.252   9.835   4.797  0.7014 -0.0071 -1.1527
  141MOL0     H19013   3.250  10.082   4.624  0.2701  0.2187 -0.1013
  141MOL0     H19014   3.315  10.091   4.771 -1.5247 -0.2603  1.4858
  141MOL0     H19015   2.620   9.786   5.317  2.7220  1.3407  0.6384
  141MOL0     H19016   2.426   9.733   5.437 -0.1665 -0.5480 -1.5357
  141MOL0     H19017   1.932  10.055   5.384 -0.6580 -1.5689 -0.2262
  141MOL0     H19018   1.721  10.121   5.492  0.7995  2.0556 -0.3649
  141MOL0     H19019   2.439  10.312   5.088 -0.8810 -0.8068 -0.6521
  141MOL0     H19020   2.629  10.325   4.975  0.2338 -0.4539  0.8232
  141MOL0     H19021   3.073  10.673   4.861  2.0430  0.0657 -1.5666
  141MOL0     H19022   3.238  10.643   4.660 -0.7558  0.5474 -2.6850
  141MOL0     H19023   3.404  10.505   4.543  1.4575 -0.4333 -2.2482
  141MOL0     H19024   3.308  10.625   4.453  0.6089 -0.3756 -1.0456
  141MOL0     H19025   3.458  10.567   4.295 -2.1091  2.3473 -0.1472
  141MOL0     H19026   3.295  10.488   4.254 -0.0043 -0.6522 -0.6781
  141MOL0     H19027   3.506  10.345   4.220  0.6069 -0.6514  0.0671
  141MOL0     H19028   3.368  10.276   4.298  0.9627 -2.0179  1.5455
  141MOL0     H19029   3.480  10.287   4.526 -0.1037 -2.1854 -0.0489
  141MOL0     H19030   3.572  10.208   4.402 -0.5803  0.2684 -1.0237
  141MOL0     H19031   3.812  10.517   4.529 -0.8763  0.4258  1.0938
  141MOL0     H19032   3.017  10.301   4.517  3.3002  0.1577 -0.5890
  141MOL0     H19033   2.850  10.245   4.827 -3.0287  0.1062  0.7591
  141MOL0     H19034   2.740  10.316   4.706  1.2444  3.2333  0.3585
  141MOL0     H19035   2.857  10.196   4.654 -1.3900 -1.0571  1.0243
  142MOL0     O19036   2.262   8.382   8.124  0.3837 -0.3226 -0.4203
  142MOL0     C19037   2.237   8.494   8.173  0.1475 -1.1165 -0.0361
  142MOL0     O19038   2.283   8.614   8.131 -0.7464 -0.3081  0.2298
  142MOL0     C19039   2.377   8.627   8.023  0.9741  0.7844  0.0835
  142MOL0     C19040   2.379   8.545   7.916  0.2824  0.5876 -0.3534
  142MOL0     C19041   2.459   8.573   7.805  0.3649 -0.2536  0.0404
  142MOL0     C19042   2.542   8.675   7.805 -0.3856 -0.3968 -0.9695
  142MOL0     O19043   2.627   8.696   7.697  0.3170  0.0053 -0.6083
  142MOL0     C19044   2.758   8.758   7.730  0.1401  0.0637  0.1214
  142MOL0     C19045   2.810   8.820   7.604  0.3449 -0.5746  0.2569
  142MOL0     C19046   2.946   8.890   7.614  0.1348  0.7762  0.1153
  142MOL0     C19047   3.069   8.799   7.582 -0.2809  0.2084  0.2317
  142MOL0     C19048   3.200   8.879   7.583 -0.9307 -0.5010  0.0544
  142MOL0     C19049   3.340   8.803   7.601  0.7280 -0.0129  0.5477
  142MOL0     C19050   3.374   8.744   7.741 -0.0349  0.1256 -0.5108
  142MOL0     C19051   3.483   8.831   7.805  0.3470  0.0805  1.0477
  142MOL0     N19052   3.620   8.800   7.750  0.2854 -0.2816  0.1665
  142MOL0     C19053   3.694   8.686   7.773  0.5547 -0.8605 -0.4454
  142MOL0     C19054   3.799   8.687   7.690  1.1306  0.9179 -1.2780
  142MOL0     C19055   3.893   8.570   7.674  0.7352 -0.4636 -0.4629
  142MOL0     C19056   3.829   8.433   7.638 -0.6044  0.1470 -0.6251
  142MOL0     C19057   3.785   8.428   7.493 -0.1931  0.0280  0.7844
  142MOL0     C19058   3.717   8.306   7.448  0.2226  0.0786  0.8547
  142MOL0     O19059   3.597   8.296   7.529  0.2920 -1.3286 -0.4550
  142MOL0     C19060   3.474   8.258   7.480  1.0177 -0.4170  0.1620
  142MOL0     C19061   3.471   8.197   7.359  0.2401 -0.8785  0.7612
  142MOL0     C19062   3.353   8.161   7.299 -0.5428 -0.7815 -0.4510
  142MOL0     C19063   3.227   8.179   7.376 -0.5089  0.3671  0.0120
  142MOL0     C19064   3.104   8.117   7.320 -0.0589 -0.4720 -0.7561
  142MOL0     O19065   3.100   8.083   7.185  0.2993 -0.0372 -0.2689
  142MOL0     C19066   2.988   8.025   7.135 -0.9226  0.2548 -0.1646
  142MOL0     C19067   3.009   7.895   7.095  0.3593  0.7385 -1.5799
  142MOL0     C19068   2.906   7.820   7.039 -0.5517  0.9128 -1.1072
  142MOL0     C19069   2.784   7.874   7.014  0.1044  0.4026 -0.3290
  142MOL0     O19070   2.689   7.797   6.951 -0.1716 -0.0577 -0.3737
  142MOL0     C19071   2.650   7.849   6.818 -0.6679 -0.4288 -0.3989
  142MOL0     C19072   2.739   7.803   6.702  0.0665  0.1672  0.2553
  142MOL0     C19073   2.775   7.655   6.717  0.1658  0.1246 -1.3647
  142MOL0     C19074   2.829   7.595   6.581 -0.2126 -0.0082 -0.2124
  142MOL0     C19075   2.968   7.634   6.531 -0.2770 -0.7512 -0.4446
  142MOL0     C19076   3.068   7.656   6.653  0.3876  1.4214 -0.7867
  142MOL0     C19077   3.214   7.665   6.609  1.2619 -0.6572  0.3747
  142MOL0     C19078   3.230   7.756   6.493  0.4970  1.1553 -0.3043
  142MOL0    Cl19079   3.404   7.779   6.469 -0.1677 -0.3907  0.4781
  142MOL0     C19080   2.765   8.002   7.055  0.5755 -0.9123 -1.7360
  142MOL0     C19081   2.865   8.080   7.121  0.1158 -0.3310 -0.2889
  142MOL0     O19082   3.014   8.090   7.403  0.1129  0.6475  0.9185
  142MOL0     C19083   3.232   8.229   7.501  0.3155 -0.3928 -0.9650
  142MOL0     C19084   3.354   8.267   7.552 -0.2783  0.8652 -0.0963
  142MOL0     N19085   3.774   8.794   7.614  1.0224 -0.1052 -0.3013
  142MOL0     N19086   3.675   8.865   7.649 -0.5570 -0.3381  0.2769
  142MOL0     C19087   2.531   8.772   7.918 -1.1778  0.1796  0.9929
  142MOL0     C19088   2.446   8.745   8.023 -0.4400  0.0908 -0.0905
  142MOL0     C19089   2.169   8.500   8.310  0.6576 -0.4674 -0.1861
  142MOL0     C19090   2.190   8.618   8.392 -0.3191 -0.4520 -1.6922
  142MOL0     C19091   2.130   8.633   8.521  0.2546 -0.2326  0.1577
  142MOL0     C19092   2.041   8.538   8.569 -0.2826  0.4097  0.3554
  142MOL0     O19093   1.985   8.537   8.697  0.0371  0.4844  0.2170
  142MOL0     C19094   2.018   8.642   8.797 -0.9470  0.7086  0.2245
  142MOL0     C19095   1.926   8.762   8.787 -0.1134  0.1816 -0.0238
  142MOL0     C19096   1.782   8.725   8.767 -0.8282 -0.1775 -0.3604
  142MOL0     C19097   1.722   8.660   8.895  0.1256  0.1341 -0.7477
  142MOL0     C19098   1.699   8.757   9.005 -0.3938  0.4613  0.3529
  142MOL0     C19099   1.672   8.850   9.079  0.9175 -0.0363  0.0572
  142MOL0     C19100   2.017   8.422   8.489 -0.2113 -1.3636 -0.3907
  142MOL0     C19101   2.079   8.404   8.368  0.4820  0.6672  0.8746
  142MOL0     C19102   2.043   8.274   8.303 -0.2303 -0.4959  0.2396
  142MOL0     H19103   2.309   8.463   7.904  1.5678 -0.4724 -0.8561
  142MOL0     H19104   2.458   8.509   7.717 -1.1349 -1.3447  0.8195
  142MOL0     H19105   2.743   8.832   7.808 -0.0138 -0.5755  0.7062
  142MOL0     H19106   2.829   8.685   7.770 -1.2046 -0.5355  1.4736
  142MOL0     H19107   2.736   8.898   7.585  1.2150  0.1315 -0.3382
  142MOL0     H19108   2.813   8.749   7.520  0.7836  1.3867 -1.4591
  142MOL0     H19109   2.951   8.939   7.712 -2.6148  0.4578  0.4770
  142MOL0     H19110   2.935   8.976   7.547 -2.3490 -0.2697 -0.9224
  142MOL0     H19111   3.084   8.720   7.656  0.9329  0.5309  0.3463
  142MOL0     H19112   3.058   8.764   7.479  0.0363 -0.7659  0.5122
  142MOL0     H19113   3.212   8.945   7.497  1.5429  0.1080  0.7843
  142MOL0     H19114   3.197   8.941   7.674  3.5704 -0.2547  0.2403
  142MOL0     H19115   3.337   8.715   7.537  1.4420  0.8727 -0.7475
  142MOL0     H19116   3.417   8.868   7.559  0.4284 -0.3623 -0.5676
  142MOL0     H19117   3.413   8.642   7.737  1.9142  0.7508  1.1752
  142MOL0     H19118   3.285   8.747   7.805  0.2551 -0.2750 -0.0867
  142MOL0     H19119   3.455   8.937   7.812 -0.4743 -0.0644  0.1592
  142MOL0     H19120   3.474   8.787   7.905 -0.4655  1.1911  1.4904
  142MOL0     H19121   3.669   8.606   7.843 -0.4004  1.0973  1.5497
  142MOL0     H19122   3.967   8.599   7.599 -1.6113  0.7892 -2.4194
  142MOL0     H19123   3.948   8.547   7.766  0.8647 -0.8332 -0.6336
  142MOL0     H19124   3.897   8.348   7.647  0.0913  0.6501 -1.0236
  142MOL0     H19125   3.746   8.408   7.705 -0.1151  1.8423  0.6812
  142MOL0     H19126   3.871   8.446   7.428 -1.6906  0.6636 -1.0978
  142MOL0     H19127   3.706   8.501   7.479  1.1479  1.4378  0.2982
  142MOL0     H19128   3.781   8.217   7.453  1.1217  0.5927 -0.6664
  142MOL0     H19129   3.703   8.314   7.340  2.7636 -1.0303  0.3656
  142MOL0     H19130   3.556   8.172   7.297  0.5027  0.1973  0.6675
  142MOL0     H19131   3.357   8.123   7.198  0.6507 -1.1148 -0.2890
  142MOL0     H19132   3.109   7.858   7.114 -0.5271 -0.7874  0.4694
  142MOL0     H19133   2.917   7.718   7.005  1.5675  1.6671 -2.9532
  142MOL0     H19134   2.553   7.805   6.790 -1.9842  3.1276 -1.9990
  142MOL0     H19135   2.637   7.957   6.821  0.5655 -0.2788  0.3142
  142MOL0     H19136   2.673   7.809   6.614 -1.1465 -0.0580  1.1261
  142MOL0     H19137   2.830   7.863   6.689 -1.6807  2.8686 -0.4168
  142MOL0     H19138   2.854   7.655   6.792 -1.1034  3.3298  0.1396
  142MOL0     H19139   2.687   7.604   6.759 -0.9053  4.6995  2.9725
  142MOL0     H19140   2.762   7.623   6.498 -2.5008  0.0777  1.5779
  142MOL0     H19141   2.821   7.487   6.595 -5.2109 -0.0054 -1.1982
  142MOL0     H19142   2.970   7.729   6.476  2.4969  0.2209  1.1187
  142MOL0     H19143   3.009   7.555   6.467  0.6126 -0.6376 -0.0311
  142MOL0     H19144   3.041   7.744   6.711  1.0412 -0.2999  2.3388
  142MOL0     H19145   3.067   7.576   6.727  1.0216  2.7249  0.6721
  142MOL0     H19146   3.253   7.564   6.591 -1.6465 -2.0360  1.2205
  142MOL0     H19147   3.271   7.717   6.687 -0.4645  1.9265  0.0298
  142MOL0     H19148   3.183   7.713   6.404  2.3114  0.3785 -0.9276
  142MOL0     H19149   3.186   7.853   6.518 -0.8000  0.2060  1.2780
  142MOL0     H19150   2.667   8.047   7.045  0.5916 -0.2853  0.4832
  142MOL0     H19151   2.834   8.181   7.145 -2.0393 -0.6900 -1.3123
  142MOL0     H19152   3.137   8.239   7.554  0.9776  2.9559 -0.1773
  142MOL0     H19153   3.353   8.306   7.653  0.7670  2.0384 -0.4975
  142MOL0     H19154   2.586   8.864   7.938  0.6113 -0.1303 -1.8929
  142MOL0     H19155   2.433   8.813   8.107 -2.3619  0.4669 -0.6447
  142MOL0     H19156   2.255   8.702   8.368  1.2233 -0.7105  1.0563
  142MOL0     H19157   2.147   8.728   8.570 -2.6089  1.8404 -2.4221
  142MOL0     H19158   2.122   8.674   8.782 -0.5314 -0.4113  0.6666
  142MOL0     H19159   2.004   8.614   8.902  0.5759  1.4748  0.6695
  142MOL0     H19160   1.952   8.828   8.704  0.9811 -0.3006 -0.0859
  142MOL0     H19161   1.941   8.824   8.876 -3.0659  2.9453 -1.2685
  142MOL0     H19162   1.777   8.654   8.684  3.0601 -0.2934 -0.6575
  142MOL0     H19163   1.723   8.815   8.744 -1.1830  0.7963  3.6610
  142MOL0     H19164   1.627   8.622   8.854 -0.1094 -0.2892  0.1524
  142MOL0     H19165   1.782   8.576   8.932  0.3661  1.8831  3.3211
  142MOL0     H19166   1.651   8.931   9.146 -0.8883  2.2202 -2.9557
  142MOL0     H19167   1.952   8.353   8.542  1.3673 -3.1179 -0.6323
  142MOL0     H19168   2.016   8.202   8.380  0.3125 -3.1144 -1.8762
  142MOL0     H19169   1.968   8.283   8.224  0.6370  0.9261 -0.4760
  142MOL0     H19170   2.135   8.233   8.261 -0.2604 -1.1200  0.7682
  143MOL0     O19171   7.372   5.704   3.228 -0.3889 -0.0295 -1.3551
  143MOL0     C19172   7.398   5.767   3.332 -1.0178 -0.7249 -0.1594
  143MOL0     O19173   7.528   5.799   3.376  0.1595  0.1132 -0.0157
  143MOL0     C19174   7.627   5.732   3.310  0.1507 -0.3492 -0.7566
  143MOL0     C19175   7.673   5.808   3.203  0.4954  0.0691 -0.2628
  143MOL0     C19176   7.785   5.767   3.131  0.2985  0.0971 -0.5077
  143MOL0     C19177   7.843   5.644   3.165 -0.7865  0.2979 -0.1413
  143MOL0     O19178   7.945   5.587   3.089  0.3530 -0.5877 -0.4834
  143MOL0     C19179   7.966   5.648   2.958 -0.0098 -0.2242 -0.8342
  143MOL0     C19180   8.037   5.550   2.855  0.1733  0.5227  0.0083
  143MOL0     C19181   8.177   5.521   2.917 -0.0652  0.0853  0.2612
  143MOL0     C19182   8.214   5.376   2.865 -0.5668  0.4144  0.1255
  143MOL0     C19183   8.363   5.343   2.893  0.3759 -0.9370  0.8907
  143MOL0     C19184   8.473   5.451   2.860  0.7189  0.8966 -0.0255
  143MOL0     C19185   8.616   5.389   2.838  0.9764 -0.5378 -0.5194
  143MOL0     C19186   8.707   5.498   2.817 -0.1557 -0.4317 -0.9130
  143MOL0     N19187   8.847   5.450   2.784  1.0372 -0.4409 -0.2421
  143MOL0     C19188   8.880   5.420   2.653 -0.3740  0.6284 -0.0331
  143MOL0     C19189   9.006   5.384   2.666 -0.2340 -0.5238 -0.0586
  143MOL0     C19190   9.098   5.343   2.553  0.0043 -0.1169 -0.1784
  143MOL0     C19191   9.243   5.357   2.588 -0.6401  0.3765 -0.6534
  143MOL0     C19192   9.320   5.348   2.460  0.1310  0.1084  0.0212
  143MOL0     C19193   9.466   5.386   2.484 -0.0124 -0.5920  0.9577
  143MOL0     O19194   9.554   5.334   2.380  0.4151  0.3576 -0.3402
  143MOL0     C19195   9.672   5.395   2.352  0.2337  0.0447  0.0803
  143MOL0     C19196   9.716   5.511   2.415 -0.3049  0.0511 -0.2924
  143MOL0     C19197   9.824   5.583   2.362 -0.2475 -0.8886  0.4482
  143MOL0     C19198   9.909   5.523   2.261 -0.0688  0.4415 -0.2627
  143MOL0     C19199  10.029   5.592   2.216 -1.1537 -1.2421 -0.3036
  143MOL0     O19200  10.056   5.726   2.244  1.4113  0.0284  0.3131
  143MOL0     C19201  10.157   5.784   2.181  0.4204  0.3626  0.6595
  143MOL0     C19202  10.140   5.839   2.054 -0.0577  0.4097  0.7660
  143MOL0     C19203  10.240   5.907   1.984  0.2957  0.6913  0.4318
  143MOL0     C19204  10.364   5.933   2.047  0.0106 -0.5599  0.1029
  143MOL0     O19205  10.457   6.007   1.981  0.3147 -0.0466  0.8092
  143MOL0     C19206  10.587   6.005   2.028  0.8379  0.1332 -0.3840
  143MOL0     C19207  10.627   6.133   2.098 -0.0542 -0.4672 -0.9284
  143MOL0     C19208  10.769   6.168   2.087  0.7166  0.1702  1.2912
  143MOL0     C19209  10.806   6.219   1.946  0.0384 -0.3339  0.6779
  143MOL0     C19210  10.956   6.208   1.925  0.7007 -0.0324 -0.7992
  143MOL0     C19211  10.995   6.258   1.782  0.6274  0.3944  0.2114
  143MOL0     C19212  11.143   6.223   1.747 -0.0425  0.0574  0.4881
  143MOL0     C19213  11.169   6.305   1.616  0.2245  0.4447  0.0766
  143MOL0    Cl19214  11.312   6.236   1.535  0.3917  0.1573 -0.2760
  143MOL0     C19215  10.386   5.885   2.183  0.9619  0.0730 -0.0045
  143MOL0     C19216  10.285   5.805   2.239 -0.1104 -0.1484  0.2208
  143MOL0     O19217  10.093   5.530   2.130 -0.2411 -0.4348  0.1377
  143MOL0     C19218   9.875   5.397   2.213  0.0120 -1.0719  0.3061
  143MOL0     C19219   9.759   5.336   2.253 -0.3786  0.3336  0.2293
  143MOL0     N19220   9.052   5.408   2.802 -0.8505  0.4766  0.3169
  143MOL0     N19221   8.956   5.439   2.866 -0.5388 -0.0475 -0.8962
  143MOL0     C19222   7.794   5.571   3.276  0.2575  0.8036 -0.2023
  143MOL0     C19223   7.679   5.609   3.344  0.0253  0.3990  0.0212
  143MOL0     C19224   7.290   5.846   3.399  0.7168  0.0606 -0.4350
  143MOL0     C19225   7.330   5.948   3.496  0.7262  0.3925  0.2105
  143MOL0     C19226   7.236   6.029   3.559 -0.2706  0.3560 -0.8992
  143MOL0     C19227   7.101   6.014   3.540  0.1174 -0.1181 -0.0164
  143MOL0     O19228   6.995   6.086   3.596 -0.2998 -0.3898  0.4301
  143MOL0     C19229   7.011   6.150   3.726 -0.4323 -0.8223 -0.0335
  143MOL0     C19230   7.073   6.293   3.708  0.2486 -0.0177  0.2803
  143MOL0     C19231   7.013   6.383   3.593  0.5555  0.0528  0.1425
  143MOL0     C19232   7.072   6.525   3.580  0.2776  1.0772  0.0132
  143MOL0     C19233   7.043   6.597   3.703  0.8695  1.3978  0.1106
  143MOL0     C19234   7.040   6.663   3.802  0.1861  0.3998  0.2477
  143MOL0     C19235   7.060   5.924   3.440 -0.4831 -0.0119 -0.4836
  143MOL0     C19236   7.152   5.833   3.378  0.6534  0.0144  0.5034
  143MOL0     C19237   7.089   5.723   3.280 -0.8258  0.1196  0.8509
  143MOL0     H19238   7.619   5.899   3.182 -1.7820 -0.7722  1.4154
  143MOL0     H19239   7.829   5.825   3.050 -2.7284  0.5625 -1.9857
  143MOL0     H19240   7.865   5.658   2.917 -0.6550 -0.2848  0.6795
  143MOL0     H19241   8.011   5.747   2.971  1.1324 -0.8262 -0.0325
  143MOL0     H19242   8.042   5.594   2.755 -0.3598  0.2136 -0.1564
  143MOL0     H19243   7.974   5.463   2.838 -2.7443  2.2526  1.1189
  143MOL0     H19244   8.173   5.512   3.026  1.5738 -0.8959  0.2794
  143MOL0     H19245   8.242   5.600   2.879  0.0011 -0.4087 -0.7096
  143MOL0     H19246   8.157   5.297   2.916  0.3171 -2.1510 -2.5988
  143MOL0     H19247   8.196   5.364   2.758 -2.3857  1.5817  0.2548
  143MOL0     H19248   8.364   5.325   3.001  1.4024  1.3546  1.3051
  143MOL0     H19249   8.378   5.248   2.841 -1.8142 -0.3331 -1.0148
  143MOL0     H19250   8.450   5.498   2.763 -0.8643  1.7852  0.7302
  143MOL0     H19251   8.478   5.518   2.946 -0.2672  1.0116 -0.0434
  143MOL0     H19252   8.620   5.321   2.752  3.1823 -0.0380 -0.8678
  143MOL0     H19253   8.644   5.329   2.925  0.3582 -0.2410 -0.1066
  143MOL0     H19254   8.667   5.556   2.732  0.1191  0.6043 -0.3523
  143MOL0     H19255   8.708   5.558   2.908  2.6436  0.1642 -1.2452
  143MOL0     H19256   8.830   5.413   2.557 -2.8591 -3.3199  1.3014
  143MOL0     H19257   9.077   5.244   2.512 -1.8488  0.3454 -0.4222
  143MOL0     H19258   9.082   5.419   2.476  1.1629  0.4828  0.1443
  143MOL0     H19259   9.262   5.451   2.639  1.6381 -1.2355  1.7351
  143MOL0     H19260   9.272   5.279   2.659 -3.5509  0.8033  1.1929
  143MOL0     H19261   9.294   5.416   2.377  0.2146 -2.0761 -1.8857
  143MOL0     H19262   9.312   5.245   2.426 -3.9706 -0.3571  1.8072
  143MOL0     H19263   9.506   5.332   2.571  1.8380  1.1581  1.2773
  143MOL0     H19264   9.472   5.493   2.504 -2.2184 -0.4148  0.9092
  143MOL0     H19265   9.664   5.572   2.488  0.3983 -0.7602  0.9267
  143MOL0     H19266   9.849   5.680   2.402  1.1671 -1.3889  0.8439
  143MOL0     H19267  10.042   5.820   2.012 -0.6734  1.0800  1.8632
  143MOL0     H19268  10.225   5.961   1.891  2.4087  0.2691 -0.2168
  143MOL0     H19269  10.619   5.913   2.077  1.5811 -0.2502 -1.5604
  143MOL0     H19270  10.649   6.000   1.938  1.2776 -0.8178 -0.0348
  143MOL0     H19271  10.569   6.223   2.074  1.2929  2.0119  3.8221
  143MOL0     H19272  10.621   6.116   2.206 -0.4502 -0.3179 -0.9241
  143MOL0     H19273  10.800   6.236   2.166  3.3547 -0.5358  0.9509
  143MOL0     H19274  10.829   6.082   2.118 -1.2970 -1.2218  1.5329
  143MOL0     H19275  10.783   6.326   1.948  0.4401 -0.1137 -1.9839
  143MOL0     H19276  10.746   6.168   1.870 -1.7333  2.5017 -0.0109
  143MOL0     H19277  10.987   6.105   1.944  3.2947  0.6812 -0.8419
  143MOL0     H19278  11.001   6.258   2.011  1.9361 -2.0942 -0.1921
  143MOL0     H19279  10.924   6.225   1.706  0.6906  2.0666 -0.6141
  143MOL0     H19280  10.989   6.367   1.782 -0.8082  0.3369 -0.8118
  143MOL0     H19281  11.142   6.116   1.724 -1.9010  0.3607 -1.0675
  143MOL0     H19282  11.223   6.247   1.818 -0.0269  3.9165 -0.6099
  143MOL0     H19283  11.078   6.299   1.556  0.3248  1.4963 -0.1954
  143MOL0     H19284  11.188   6.407   1.652  0.1183 -0.0741  1.6835
  143MOL0     H19285  10.486   5.897   2.222  2.0002  2.4658 -2.9781
  143MOL0     H19286  10.300   5.769   2.340 -0.9065  1.9622  1.1452
  143MOL0     H19287   9.921   5.341   2.131 -1.5643 -1.3164 -0.4426
  143MOL0     H19288   9.736   5.239   2.210 -0.0661 -0.3389  1.5130
  143MOL0     H19289   7.829   5.476   3.315  1.1157  0.7772 -0.9805
  143MOL0     H19290   7.629   5.548   3.419 -0.3558 -1.5733 -1.7519
  143MOL0     H19291   7.436   5.966   3.506  0.6019  1.2377  0.0477
  143MOL0     H19292   7.266   6.096   3.639 -1.1456  0.0033 -0.2455
  143MOL0     H19293   7.071   6.086   3.792  1.2754  0.7058 -0.0298
  143MOL0     H19294   6.908   6.165   3.761 -0.6239 -0.7610 -0.6249
  143MOL0     H19295   7.178   6.278   3.679  0.9824  2.3710  1.3692
  143MOL0     H19296   7.050   6.348   3.799  0.3012 -0.4455  0.5541
  143MOL0     H19297   6.906   6.399   3.613  0.1726 -0.3333 -1.4621
  143MOL0     H19298   7.017   6.320   3.504 -1.1094 -1.0133  0.7502
  143MOL0     H19299   7.179   6.533   3.561 -0.3335  3.4669 -3.4074
  143MOL0     H19300   7.037   6.576   3.489  6.8179 -1.1504 -4.4690
  143MOL0     H19301   7.037   6.710   3.898  1.4472 -0.7391  0.8895
  143MOL0     H19302   6.953   5.912   3.429 -1.2389  0.0289  4.4506
  143MOL0     H19303   7.111   5.762   3.181  0.2766  0.9910  1.4101
  143MOL0     H19304   7.141   5.626   3.284  0.8110  0.8665 -0.9174
  143MOL0     H19305   6.983   5.705   3.298 -0.9104 -1.6739 -1.0785
  144MOL0     O19306   4.535  11.268   3.508  0.0406  0.5486 -0.8163
  144MOL0     C19307   4.464  11.365   3.483 -0.4140  0.0535  0.1271
  144MOL0     O19308   4.492  11.504   3.483 -1.4008  0.8591 -0.2012
  144MOL0     C19309   4.623  11.540   3.447  0.3461  0.0714 -0.4591
  144MOL0     C19310   4.678  11.639   3.529 -0.7063  0.7649 -0.3058
  144MOL0     C19311   4.797  11.705   3.493  0.5263  0.1179 -0.4298
  144MOL0     C19312   4.878  11.647   3.391  0.4536  0.1786  0.4891
  144MOL0     O19313   4.994  11.708   3.385  0.3891 -0.0806  0.4974
  144MOL0     C19314   5.097  11.661   3.299 -0.6404 -1.1561  0.9864
  144MOL0     C19315   5.197  11.779   3.290  0.6465  1.1484 -0.2440
  144MOL0     C19316   5.294  11.765   3.174 -0.1500  0.4975 -0.2433
  144MOL0     C19317   5.401  11.869   3.166  0.2176 -0.4942 -0.0931
  144MOL0     C19318   5.501  11.823   3.058  0.7798  0.2982  0.5609
  144MOL0     C19319   5.622  11.902   3.083 -1.1522 -0.0389  0.1003
  144MOL0     C19320   5.720  11.857   2.970  0.0566  0.4978  0.2807
  144MOL0     C19321   5.857  11.930   2.989  0.3606 -0.7147  0.4973
  144MOL0     N19322   5.955  11.893   2.885  1.2086  0.6512 -0.9981
  144MOL0     C19323   6.050  11.800   2.904 -0.1391  0.0134  0.5728
  144MOL0     C19324   6.130  11.806   2.799  0.6825 -0.3036  0.5252
  144MOL0     C19325   6.248  11.724   2.769 -0.0657  0.1898  0.9971
  144MOL0     C19326   6.389  11.781   2.773 -0.3960 -0.0930  1.0374
  144MOL0     C19327   6.491  11.704   2.699 -0.2369  0.0098 -1.0273
  144MOL0     C19328   6.635  11.740   2.752 -0.0511 -0.1424  0.9423
  144MOL0     O19329   6.732  11.672   2.664 -0.5375  0.0906 -0.0815
  144MOL0     C19330   6.859  11.714   2.678  0.3352 -0.3145  0.4937
  144MOL0     C19331   6.911  11.793   2.783  0.5024 -0.4176  0.6862
  144MOL0     C19332   7.047  11.828   2.796 -0.1570 -1.1250  0.4955
  144MOL0     C19333   7.140  11.786   2.697  0.5377  0.1345 -1.8785
  144MOL0     C19334   7.282  11.811   2.703 -0.8707 -0.3520 -0.0985
  144MOL0     O19335   7.366  11.743   2.607  0.0700  0.7348  0.2489
  144MOL0     C19336   7.497  11.742   2.639  1.6049 -0.1222  0.2194
  144MOL0     C19337   7.581  11.853   2.643 -0.1872  0.6022  0.3502
  144MOL0     C19338   7.709  11.824   2.698 -0.1863  0.2972  0.3089
  144MOL0     C19339   7.757  11.698   2.720  0.0796  1.3686  0.9908
  144MOL0     O19340   7.889  11.676   2.752 -0.0256  0.4259  0.1684
  144MOL0     C19341   7.936  11.544   2.767  0.4732 -0.0200  0.2842
  144MOL0     C19342   7.900  11.477   2.904 -0.6039 -0.3497  0.6499
  144MOL0     C19343   7.946  11.536   3.033  0.2425 -0.6535  0.6122
  144MOL0     C19344   7.909  11.448   3.156 -0.3433  0.1767  0.5333
  144MOL0     C19345   7.906  11.529   3.283 -0.7280  0.0048 -0.1864
  144MOL0     C19346   8.048  11.556   3.346 -0.0800  0.0699 -0.0901
  144MOL0     C19347   8.055  11.599   3.490 -0.4534  0.0107 -0.2192
  144MOL0     C19348   8.204  11.623   3.533  0.9016 -0.0227  0.9384
  144MOL0    Cl19349   8.262  11.485   3.616 -0.2040 -0.2343  0.2253
  144MOL0     C19350   7.670  11.593   2.700 -0.8498 -0.8621  0.2518
  144MOL0     C19351   7.542  11.612   2.659  0.0734 -0.1995 -0.3173
  144MOL0     O19352   7.326  11.886   2.794 -0.0299 -0.2436 -0.5447
  144MOL0     C19353   7.083  11.722   2.586 -0.2649  0.1479 -0.3547
  144MOL0     C19354   6.948  11.677   2.576 -0.6101  0.0879 -0.1090
  144MOL0     N19355   6.084  11.904   2.718 -0.1045  0.4022 -0.3434
  144MOL0     N19356   5.982  11.964   2.779  0.2529  0.4913 -0.4849
  144MOL0     C19357   4.830  11.527   3.324 -0.2604  0.6233  0.0989
  144MOL0     C19358   4.699  11.484   3.345  0.1510  0.8554  0.6502
  144MOL0     C19359   4.330  11.328   3.448  0.3303 -0.0068 -0.4383
  144MOL0     C19360   4.270  11.225   3.522  0.3920 -0.5280  0.2181
  144MOL0     C19361   4.131  11.194   3.505 -0.0284 -0.2553  0.4744
  144MOL0     C19362   4.060  11.258   3.405  0.5856  0.2599  0.3911
  144MOL0     O19363   3.938  11.210   3.380 -0.4975  0.4284 -0.3220
  144MOL0     C19364   3.845  11.262   3.461  0.3668 -0.4823  0.0814
  144MOL0     C19365   3.705  11.194   3.437 -0.1770  0.2733  0.1191
  144MOL0     C19366   3.705  11.041   3.483  0.1796 -0.8152 -0.0428
  144MOL0     C19367   3.727  10.943   3.366 -0.1674  1.1009  0.0593
  144MOL0     C19368   3.606  10.939   3.282  0.9435 -0.5003  0.4515
  144MOL0     C19369   3.499  10.951   3.214 -0.0713  0.0421  0.4697
  144MOL0     C19370   4.123  11.348   3.317  0.2393 -0.5349  0.0518
  144MOL0     C19371   4.258  11.380   3.340  0.1146  0.2837  0.0695
  144MOL0     C19372   4.314  11.477   3.244  0.2314 -0.2210 -0.1544
  144MOL0     H19373   4.630  11.672   3.620 -2.1450 -2.6251  0.3557
  144MOL0     H19374   4.837  11.789   3.548 -0.3521  1.0982 -1.2328
  144MOL0     H19375   5.157  11.584   3.348 -1.5308 -1.4207  1.6878
  144MOL0     H19376   5.050  11.638   3.203 -0.0101 -3.9580  1.2654
  144MOL0     H19377   5.251  11.784   3.385  0.4462  0.7130 -0.1059
  144MOL0     H19378   5.149  11.875   3.272  0.1221  0.8682 -0.3672
  144MOL0     H19379   5.245  11.756   3.076  1.4299 -1.2878 -0.9401
  144MOL0     H19380   5.340  11.666   3.179  1.7224  1.2954 -0.9074
  144MOL0     H19381   5.362  11.969   3.144 -1.1166 -1.1178 -0.6528
  144MOL0     H19382   5.459  11.870   3.259  1.2727 -0.5807 -0.7480
  144MOL0     H19383   5.530  11.718   3.071 -0.2510 -0.1089 -0.2858
  144MOL0     H19384   5.460  11.826   2.956 -2.8020 -2.4817  1.7192
  144MOL0     H19385   5.595  12.007   3.067  1.8061  0.7365 -0.4295
  144MOL0     H19386   5.672  11.883   3.178  1.7840 -1.4235 -1.5502
  144MOL0     H19387   5.683  11.890   2.872  2.4297  0.9192 -0.5328
  144MOL0     H19388   5.740  11.750   2.975 -2.7108 -0.0407  2.5122
  144MOL0     H19389   5.830  12.034   2.969 -2.0446 -1.5964 -1.2794
  144MOL0     H19390   5.898  11.923   3.090  0.0261  2.2704  0.9310
  144MOL0     H19391   6.070  11.749   2.998 -0.9499 -1.4586 -0.0206
  144MOL0     H19392   6.261  11.633   2.827  2.2197 -1.5187 -1.8707
  144MOL0     H19393   6.223  11.679   2.672 -1.0434 -1.6696  2.0675
  144MOL0     H19394   6.390  11.885   2.742  1.6703  0.3932  2.4965
  144MOL0     H19395   6.422  11.775   2.877  1.9387 -2.3989  0.2985
  144MOL0     H19396   6.488  11.728   2.592  2.5423  0.1024 -1.1692
  144MOL0     H19397   6.487  11.599   2.729 -0.5055  0.3813  0.3235
  144MOL0     H19398   6.652  11.716   2.858 -1.6006  0.8715  1.4551
  144MOL0     H19399   6.646  11.848   2.737 -1.4200  0.9261  5.7038
  144MOL0     H19400   6.860  11.823   2.874  2.3026 -2.5367  2.5020
  144MOL0     H19401   7.097  11.874   2.880  0.4868 -0.5779 -0.1791
  144MOL0     H19402   7.560  11.958   2.625 -0.3332  0.7348  1.2487
  144MOL0     H19403   7.771  11.911   2.718 -1.8474  2.7132 -3.7241
  144MOL0     H19404   7.910  11.482   2.681 -0.1830 -1.4904  1.4834
  144MOL0     H19405   8.045  11.541   2.765  0.6094 -2.6195  3.2411
  144MOL0     H19406   7.793  11.494   2.915 -0.3646  4.0071 -1.6913
  144MOL0     H19407   7.936  11.373   2.904  0.7376  0.0991  0.8021
  144MOL0     H19408   8.055  11.545   3.029  0.2928  0.2565  2.6590
  144MOL0     H19409   7.901  11.636   3.039  0.6168 -0.4059 -0.4880
  144MOL0     H19410   7.986  11.371   3.160 -2.1832 -1.7806  0.1984
  144MOL0     H19411   7.812  11.402   3.135  0.4558  0.3418 -5.0443
  144MOL0     H19412   7.843  11.471   3.351  0.0601 -2.5534 -1.5158
  144MOL0     H19413   7.853  11.622   3.260  1.9950  0.8938 -3.6397
  144MOL0     H19414   8.111  11.468   3.333 -0.1556 -0.0236  0.1833
  144MOL0     H19415   8.098  11.632   3.286 -0.4147  0.4025  0.0453
  144MOL0     H19416   8.013  11.516   3.548  1.7918 -2.7842 -2.3403
  144MOL0     H19417   7.998  11.689   3.514  1.0927  0.6540  1.2714
  144MOL0     H19418   8.251  11.642   3.436  0.9112 -1.0687  0.7230
  144MOL0     H19419   8.209  11.712   3.596 -0.2389  0.3010  0.5928
  144MOL0     H19420   7.688  11.487   2.713 -1.8872 -1.2727 -1.4902
  144MOL0     H19421   7.466  11.536   2.644 -1.7604  1.1124  1.8196
  144MOL0     H19422   7.137  11.696   2.496 -0.2835 -1.2343  0.0075
  144MOL0     H19423   6.924  11.622   2.485 -1.8359 -1.6733  1.2048
  144MOL0     H19424   4.901  11.480   3.257 -1.6746  1.4941 -2.0882
  144MOL0     H19425   4.650  11.406   3.287 -1.2572 -0.0244  2.9052
  144MOL0     H19426   4.327  11.169   3.595 -0.2972 -3.8285 -1.5346
  144MOL0     H19427   4.078  11.129   3.574 -0.1036 -0.4303  0.2529
  144MOL0     H19428   3.830  11.370   3.458 -3.2462 -0.8906 -1.8387
  144MOL0     H19429   3.873  11.242   3.565  1.9792 -0.2977 -0.2914
  144MOL0     H19430   3.685  11.201   3.330  2.3834 -0.0461 -0.4523
  144MOL0     H19431   3.624  11.248   3.487 -0.1353 -1.4539  2.1882
  144MOL0     H19432   3.611  11.027   3.537  1.0691 -1.7260  1.3212
  144MOL0     H19433   3.781  11.024   3.560  0.1578  1.5170  0.5693
  144MOL0     H19434   3.821  10.951   3.311  0.2593  2.1274  0.9195
  144MOL0     H19435   3.730  10.846   3.417 -2.1095  1.4333  0.8843
  144MOL0     H19436   3.409  10.956   3.157  0.3323  2.1909 -0.0802
  144MOL0     H19437   4.074  11.383   3.227 -1.4095 -3.0299 -0.1412
  144MOL0     H19438   4.265  11.470   3.146  0.3104  2.4495 -0.4635
  144MOL0     H19439   4.303  11.581   3.278 -1.2469 -0.6177  0.6744
  144MOL0     H19440   4.419  11.453   3.227  0.9074  2.3054 -0.0067
  145MOL0     O19441   2.693  11.001   9.626 -0.0473 -0.3609 -0.0153
  145MOL0     C19442   2.589  10.938   9.645 -0.6207 -0.0875 -0.4195
  145MOL0     O19443   2.547  10.877   9.770 -0.0746  0.2223 -0.3664
  145MOL0     C19444   2.623  10.907   9.880 -0.0086  0.4432  0.6755
  145MOL0     C19445   2.590  11.003   9.978  0.0678 -0.2055 -0.2152
  145MOL0     C19446   2.674  11.017  10.088  0.0631 -0.0773  0.0726
  145MOL0     C19447   2.786  10.931  10.111  0.2695  0.1320  0.3175
  145MOL0     O19448   2.871  10.941  10.217  0.2669 -0.0023  0.5124
  145MOL0     C19449   2.849  11.043  10.314  0.6102 -0.7329 -0.1670
  145MOL0     C19450   2.971  11.064  10.404 -1.0186 -0.1242 -0.2697
  145MOL0     C19451   2.978  10.949  10.507 -0.1775 -0.1148  0.2864
  145MOL0     C19452   2.871  10.951  10.629 -0.6181 -0.1777  0.0307
  145MOL0     C19453   2.901  10.836  10.731  0.0143  0.6687  0.0687
  145MOL0     C19454   2.855  10.857  10.873 -0.6190  0.3482  0.2735
  145MOL0     C19455   2.847  10.738  10.969 -0.0587 -0.0933  0.1615
  145MOL0     C19456   2.776  10.779  11.096  0.1143  0.7171 -0.4051
  145MOL0     N19457   2.860  10.861  11.175 -0.5780 -0.0570 -1.0074
  145MOL0     C19458   2.989  10.837  11.221 -0.6620  0.1132  0.4596
  145MOL0     C19459   3.041  10.949  11.257 -0.0128 -0.7532  0.7308
  145MOL0     C19460   3.187  10.971  11.265 -0.4823 -0.3531  0.6942
  145MOL0     C19461   3.221  10.934  11.406 -0.2875 -0.5855 -0.7250
  145MOL0     C19462   3.375  10.946  11.435 -0.1990 -0.3466  0.0278
  145MOL0     C19463   3.417  11.092  11.409 -0.7111 -0.1639  0.5103
  145MOL0     O19464   3.549  11.093  11.454 -0.5704 -0.2510 -0.5865
  145MOL0     C19465   3.619  11.212  11.435 -0.6488  0.7148 -0.0386
  145MOL0     C19466   3.553  11.338  11.398  0.4883  0.8963 -0.2985
  145MOL0     C19467   3.626  11.456  11.413  0.1539  0.2065  0.4367
  145MOL0     C19468   3.765  11.460  11.444 -0.5234  0.4769 -0.8853
  145MOL0     C19469   3.849  11.580  11.452 -0.5286  0.0089  0.3215
  145MOL0     O19470   3.974  11.568  11.491 -0.2692 -0.3952  0.2106
  145MOL0     C19471   4.073  11.657  11.492 -0.5394  0.1549 -0.0840
  145MOL0     C19472   4.197  11.620  11.459  0.1865 -0.2384  0.8332
  145MOL0     C19473   4.299  11.715  11.447 -0.0815  0.8220  1.0035
  145MOL0     C19474   4.281  11.850  11.481 -0.2499 -1.0385  0.3297
  145MOL0     O19475   4.369  11.954  11.480  0.1965  0.2846 -0.0856
  145MOL0     C19476   4.487  11.948  11.390  0.6801  0.1403 -1.0319
  145MOL0     C19477   4.537  12.088  11.411  1.0394 -0.2866 -0.4097
  145MOL0     C19478   4.616  12.112  11.543  0.3682 -0.6078 -0.1750
  145MOL0     C19479   4.696  12.242  11.533  0.5762  0.5279  0.4500
  145MOL0     C19480   4.775  12.274  11.668  0.4245 -0.6389 -0.1103
  145MOL0     C19481   4.843  12.417  11.674 -0.6237  0.3421  0.0483
  145MOL0     C19482   4.968  12.430  11.752 -0.7735 -1.2402  0.1374
  145MOL0     C19483   4.936  12.387  11.897  0.0540  0.0747 -0.0698
  145MOL0    Cl19484   5.068  12.410  12.012  0.3113  0.0113  0.1984
  145MOL0     C19485   4.152  11.894  11.505  0.0852  0.2894 -0.6597
  145MOL0     C19486   4.050  11.793  11.512 -0.1844 -0.5778 -0.3470
  145MOL0     O19487   3.797  11.681  11.414  0.0698  0.1729 -0.1171
  145MOL0     C19488   3.814  11.333  11.489 -0.1750 -0.7377  0.4514
  145MOL0     C19489   3.744  11.215  11.489  0.7087 -0.8925 -0.0654
  145MOL0     N19490   2.938  11.039  11.249 -0.4800  0.1497  0.3906
  145MOL0     N19491   2.828  10.986  11.210  0.7711 -0.3482  0.9430
  145MOL0     C19492   2.809  10.829  10.021 -0.6762  0.6756  0.6174
  145MOL0     C19493   2.730  10.814   9.906 -0.0595 -0.1301  0.8343
  145MOL0     C19494   2.490  10.946   9.530 -0.8398  0.3477  0.1589
  145MOL0     C19495   2.481  11.061   9.444 -0.4320  0.7256 -0.8045
  145MOL0     C19496   2.384  11.084   9.349  0.1181  0.6873  0.2232
  145MOL0     C19497   2.290  10.980   9.331 -0.2638 -0.3017  0.0914
  145MOL0     O19498   2.186  11.021   9.255  0.1944  0.4103 -0.1435
  145MOL0     C19499   2.123  10.923   9.177 -0.5978  0.5812  0.2907
  145MOL0     C19500   2.162  10.947   9.035 -0.3683  0.5862 -0.4192
  145MOL0     C19501   2.106  10.837   8.943  0.9412 -1.2902 -0.5818
  145MOL0     C19502   1.956  10.826   8.946  0.4650  0.2203 -0.7547
  145MOL0     C19503   1.885  10.951   8.912  0.5743  0.3668  1.1704
  145MOL0     C19504   1.822  11.045   8.867 -0.0082 -0.2943 -0.6979
  145MOL0     C19505   2.290  10.866   9.416  0.5563 -0.5460  0.0163
  145MOL0     C19506   2.394  10.846   9.511 -0.6629 -0.3854  0.0528
  145MOL0     C19507   2.387  10.712   9.590  0.0079  0.2504 -0.0940
  145MOL0     H19508   2.506  11.072   9.967  1.1908  1.1079 -0.8552
  145MOL0     H19509   2.644  11.090  10.163 -0.3149  0.3167 -0.4531
  145MOL0     H19510   2.812  11.141  10.280 -0.9891 -1.7251 -1.4283
  145MOL0     H19511   2.763  11.005  10.370  0.6151 -0.2287  0.1838
  145MOL0     H19512   2.966  11.164  10.447 -2.8329  0.2515 -1.2461
  145MOL0     H19513   3.056  11.070  10.335  1.9208 -0.3893  3.0013
  145MOL0     H19514   3.082  10.939  10.540  0.0900 -2.9513 -1.0867
  145MOL0     H19515   2.951  10.859  10.450  0.4257 -0.5002  0.5906
  145MOL0     H19516   2.854  11.049  10.674  0.5294 -0.5531  1.3554
  145MOL0     H19517   2.773  10.919  10.592 -0.7112  2.0007 -1.7890
  145MOL0     H19518   2.848  10.752  10.686 -0.5529  0.4348  1.1410
  145MOL0     H19519   3.007  10.820  10.750  0.7147  0.8272 -3.0942
  145MOL0     H19520   2.923  10.933  10.912 -0.0433  0.5957 -1.1832
  145MOL0     H19521   2.757  10.905  10.862  0.3932  2.0419 -2.2813
  145MOL0     H19522   2.940  10.690  10.997 -0.9675 -0.5648  2.6520
  145MOL0     H19523   2.791  10.657  10.921 -0.1286  0.6544 -1.0571
  145MOL0     H19524   2.676  10.819  11.077 -0.7210 -1.2223 -0.3409
  145MOL0     H19525   2.752  10.694  11.161  0.1593 -0.4670 -1.8635
  145MOL0     H19526   3.044  10.745  11.203 -0.2108  0.0413  2.1203
  145MOL0     H19527   3.235  10.914  11.185 -2.2135 -0.6216 -0.2014
  145MOL0     H19528   3.201  11.079  11.260 -0.4568 -0.3845 -0.1093
  145MOL0     H19529   3.174  11.007  11.473  3.2988  1.6897 -0.4240
  145MOL0     H19530   3.198  10.828  11.422  3.5887 -1.6462 -1.2517
  145MOL0     H19531   3.430  10.885  11.363 -0.5810 -1.7255  0.8503
  145MOL0     H19532   3.410  10.917  11.535  0.9336 -1.0823 -0.5580
  145MOL0     H19533   3.352  11.163  11.462  1.2861  2.8035 -0.7485
  145MOL0     H19534   3.425  11.111  11.302  1.7152 -2.8801  0.0897
  145MOL0     H19535   3.447  11.331  11.375  0.1625 -3.6338  1.4088
  145MOL0     H19536   3.569  11.546  11.395 -3.1572 -1.8175 -0.0893
  145MOL0     H19537   4.209  11.514  11.434  1.3354  0.5162 -2.3476
  145MOL0     H19538   4.400  11.685  11.423 -0.1162 -0.8469  2.6754
  145MOL0     H19539   4.561  11.873  11.420 -1.2710 -1.1056  0.9457
  145MOL0     H19540   4.464  11.942  11.284  0.5035 -0.1098 -0.9786
  145MOL0     H19541   4.594  12.105  11.319 -1.1891 -0.9801 -1.9894
  145MOL0     H19542   4.446  12.148  11.413 -1.9105 -4.1985  3.8210
  145MOL0     H19543   4.551  12.121  11.631  0.2926 -2.4897  0.0024
  145MOL0     H19544   4.677  12.024  11.562 -0.0435 -1.5924 -2.9594
  145MOL0     H19545   4.626  12.323  11.511  1.8631  1.2057 -1.5290
  145MOL0     H19546   4.756  12.236  11.441  1.9014  2.8522  1.0740
  145MOL0     H19547   4.845  12.192  11.684  0.3275 -0.7942 -0.4720
  145MOL0     H19548   4.698  12.262  11.744  0.2176  0.1152 -0.1931
  145MOL0     H19549   4.878  12.433  11.572  2.3419 -2.0073  0.5352
  145MOL0     H19550   4.768  12.483  11.718 -0.4636  0.0830  0.7222
  145MOL0     H19551   4.998  12.535  11.740 -4.6237 -0.2223 -2.5167
  145MOL0     H19552   5.048  12.366  11.715 -2.8744 -3.8023 -0.2330
  145MOL0     H19553   4.851  12.443  11.937  0.3793 -0.3949  1.3734
  145MOL0     H19554   4.904  12.283  11.909 -1.0589  0.4696  0.5153
  145MOL0     H19555   4.142  12.001  11.519 -0.2877 -0.0450  2.1456
  145MOL0     H19556   3.949  11.824  11.539  0.2389 -2.3983  4.2696
  145MOL0     H19557   3.915  11.341  11.527  0.6348  1.5787 -1.9779
  145MOL0     H19558   3.788  11.124  11.528 -0.7826 -2.6228 -2.1320
  145MOL0     H19559   2.891  10.759  10.030 -1.2360 -0.6644 -3.1054
  145MOL0     H19560   2.764  10.735   9.839  1.9081  1.6256 -0.3727
  145MOL0     H19561   2.559  11.134   9.465  1.5598 -0.8224 -2.3244
  145MOL0     H19562   2.371  11.173   9.289 -0.8131  0.7016  0.4271
  145MOL0     H19563   2.014  10.924   9.187 -0.5773  1.3035  0.5105
  145MOL0     H19564   2.156  10.821   9.201  0.1954  0.7790  0.0514
  145MOL0     H19565   2.271  10.940   9.035 -0.4329 -3.7933  0.8656
  145MOL0     H19566   2.131  11.049   9.010 -2.1963  1.2901  3.8745
  145MOL0     H19567   2.142  10.738   8.972 -2.3767 -2.8835 -1.4238
  145MOL0     H19568   2.146  10.854   8.842  0.7387  0.5726 -0.3980
  145MOL0     H19569   1.924  10.760   8.864 -0.1020 -0.0295 -0.3414
  145MOL0     H19570   1.921  10.776   9.037 -0.7309  3.0568  0.4567
  145MOL0     H19571   1.781  11.137   8.832 -2.4865 -0.3313  1.8447
  145MOL0     H19572   2.203  10.802   9.409  0.2653 -0.4025  1.8048
  145MOL0     H19573   2.351  10.723   9.692 -1.0387  1.5965 -0.5790
  145MOL0     H19574   2.321  10.646   9.532 -1.0048  0.3199  0.9495
  145MOL0     H19575   2.489  10.672   9.589 -0.2258 -0.5793  2.4778
  146MOL0     O19576  10.585   9.700   4.408  0.1832  0.0948 -0.4193
  146MOL0     C19577  10.623   9.590   4.452 -0.1283 -0.4471  0.0469
  146MOL0     O19578  10.757   9.558   4.445 -0.3165  0.4660 -0.0149
  146MOL0     C19579  10.850   9.639   4.388  0.0518 -0.3751 -1.1948
  146MOL0     C19580  10.839   9.712   4.269 -0.1046  0.3868  0.3665
  146MOL0     C19581  10.949   9.787   4.217  0.7908 -0.0227 -0.5158
  146MOL0     C19582  11.062   9.800   4.290 -0.2931  0.3178 -0.5006
  146MOL0     O19583  11.177   9.860   4.248 -0.0703  0.6296 -0.0374
  146MOL0     C19584  11.180   9.946   4.137  0.0182  0.2654  0.0331
  146MOL0     C19585  11.321   9.963   4.091 -0.7518  0.6703 -0.4193
  146MOL0     C19586  11.415  10.029   4.188  0.4666 -0.5892  0.4147
  146MOL0     C19587  11.552  10.064   4.114 -0.2386 -0.4223 -0.1202
  146MOL0     C19588  11.635  10.143   4.213 -0.8122  0.6775 -0.2823
  146MOL0     C19589  11.772  10.179   4.158  0.0252  0.2372  0.1200
  146MOL0     C19590  11.877  10.199   4.273 -1.1471 -0.8496 -0.4694
  146MOL0     C19591  12.011  10.241   4.221  0.2818  0.5560 -0.4962
  146MOL0     N19592  12.103  10.262   4.330  0.1583 -0.7267 -0.8214
  146MOL0     C19593  12.190  10.368   4.333  0.1489 -0.0082  0.1577
  146MOL0     C19594  12.258  10.355   4.453 -0.2734  0.5543  0.2600
  146MOL0     C19595  12.357  10.459   4.512 -0.5755  0.5361  0.2993
  146MOL0     C19596  12.497  10.442   4.437  0.3447 -0.1098  0.4488
  146MOL0     C19597  12.559  10.302   4.437  0.1649  0.6338 -0.4069
  146MOL0     C19598  12.709  10.312   4.412 -0.6797 -0.1482 -0.0262
  146MOL0     O19599  12.723  10.357   4.273  1.1910  0.9203  0.0100
  146MOL0     C19600  12.842  10.370   4.217 -0.5163 -0.4090 -0.3921
  146MOL0     C19601  12.965  10.377   4.293  0.3382  0.6188 -0.1450
  146MOL0     C19602  13.084  10.409   4.235  0.1947 -0.6858 -0.8763
  146MOL0     C19603  13.103  10.424   4.102 -0.3163  0.8394  0.2391
  146MOL0     C19604  13.243  10.441   4.050 -0.4033 -0.1474  0.6863
  146MOL0     O19605  13.344  10.449   4.146  0.3552 -1.0984  0.7997
  146MOL0     C19606  13.462  10.484   4.091 -0.4716  0.2780 -0.0387
  146MOL0     C19607  13.523  10.426   3.981  0.4696 -0.7730 -0.0694
  146MOL0     C19608  13.648  10.469   3.937  1.0692  0.3114  0.0076
  146MOL0     C19609  13.724  10.562   3.999  0.0590  0.0736 -0.9245
  146MOL0     O19610  13.833  10.607   3.927 -0.2423 -0.1759  0.0580
  146MOL0     C19611  13.912  10.708   3.979 -0.0998 -0.4341  0.6523
  146MOL0     C19612  14.042  10.684   3.908  0.0095 -0.1451 -0.2548
  146MOL0     C19613  14.127  10.816   3.914  0.3205  0.0693  0.8088
  146MOL0     C19614  14.266  10.799   3.843 -0.7812  1.0183  0.1831
  146MOL0     C19615  14.330  10.938   3.830 -0.3968  0.6212  0.1544
  146MOL0     C19616  14.449  10.927   3.740 -0.7297  0.0329  0.2551
  146MOL0     C19617  14.527  11.060   3.712 -0.1576 -0.7209 -0.5448
  146MOL0     C19618  14.648  11.031   3.617  0.2361 -0.5476  0.4164
  146MOL0    Cl19619  14.761  11.169   3.626 -0.3751 -0.3811 -0.6476
  146MOL0     C19620  13.672  10.607   4.122 -0.2193  0.2015 -0.4000
  146MOL0     C19621  13.538  10.575   4.164 -0.5703 -0.4879 -0.7674
  146MOL0     O19622  13.257  10.440   3.929  0.0578  0.3058  0.3253
  146MOL0     C19623  12.986  10.413   4.022  0.3098  0.2820 -0.3243
  146MOL0     C19624  12.855  10.395   4.080 -0.2148  0.2812 -0.2705
  146MOL0     N19625  12.231  10.230   4.508  0.3392 -0.9436  0.2014
  146MOL0     N19626  12.131  10.178   4.430 -0.4595  0.5793 -0.1944
  146MOL0     C19627  11.080   9.726   4.409  0.3125  0.0317 -0.1598
  146MOL0     C19628  10.975   9.644   4.451  0.1609 -0.1298  0.6231
  146MOL0     C19629  10.531   9.486   4.504 -0.1759 -0.1263  0.4336
  146MOL0     C19630  10.585   9.385   4.587 -0.7860 -0.2858 -0.0647
  146MOL0     C19631  10.512   9.287   4.657 -0.8511 -0.6170 -0.0538
  146MOL0     C19632  10.381   9.273   4.627 -1.1162  1.0191  0.2723
  146MOL0     O19633  10.316   9.169   4.681 -0.0755  0.2574 -0.4149
  146MOL0     C19634  10.181   9.151   4.649  0.9174 -0.0402 -0.1468
  146MOL0     C19635  10.122   9.036   4.737  0.0492 -0.2798  0.3815
  146MOL0     C19636  10.183   8.902   4.704 -0.0947  0.4845 -1.2367
  146MOL0     C19637  10.157   8.808   4.820 -0.5222 -0.0261  0.1159
  146MOL0     C19638  10.018   8.804   4.867  0.0256 -0.1258  0.0595
  146MOL0     C19639   9.907   8.785   4.893  0.8081 -0.6267 -0.8137
  146MOL0     C19640  10.317   9.369   4.535 -0.2186 -0.5456 -0.0938
  146MOL0     C19641  10.391   9.472   4.478 -0.9545 -0.4207 -0.8915
  146MOL0     C19642  10.308   9.578   4.404  0.4712 -0.0740  0.1056
  146MOL0     H19643  10.761   9.699   4.194 -0.0182  2.6536 -0.2058
  146MOL0     H19644  10.939   9.840   4.123 -0.8871 -1.3718 -1.1593
  146MOL0     H19645  11.131   9.898   4.051  3.2387 -2.1365 -0.6445
  146MOL0     H19646  11.125  10.038   4.159 -1.2557 -0.4963  0.1708
  146MOL0     H19647  11.315  10.025   4.002  2.5615 -0.0693 -1.2897
  146MOL0     H19648  11.369   9.872   4.053  0.3031  1.2477 -0.5065
  146MOL0     H19649  11.429   9.975   4.283 -0.5966  0.6642  1.3205
  146MOL0     H19650  11.381  10.125   4.227  0.4815 -0.0324 -0.9102
  146MOL0     H19651  11.595   9.969   4.080 -0.2876 -0.2349 -0.7323
  146MOL0     H19652  11.523  10.128   4.030 -1.9600 -1.1797 -0.1590
  146MOL0     H19653  11.586  10.234   4.248  1.9256  2.2470 -0.2440
  146MOL0     H19654  11.661  10.073   4.292  2.6941  1.0382 -0.9715
  146MOL0     H19655  11.809  10.103   4.088 -0.4667 -0.3400  0.4781
  146MOL0     H19656  11.755  10.268   4.096  1.5709 -0.6949 -1.7412
  146MOL0     H19657  11.886  10.102   4.322 -0.8050 -1.7539 -2.2236
  146MOL0     H19658  11.847  10.283   4.335  1.4765 -1.0103  1.1755
  146MOL0     H19659  12.051  10.163   4.156 -1.2300 -0.3686 -0.3719
  146MOL0     H19660  11.984  10.338   4.178 -2.4400  0.3555  0.5117
  146MOL0     H19661  12.208  10.444   4.257  1.8700 -0.5144  0.0151
  146MOL0     H19662  12.310  10.558   4.505  2.1065  1.8051 -1.0398
  146MOL0     H19663  12.379  10.440   4.618  1.6284  1.1461  0.0025
  146MOL0     H19664  12.484  10.489   4.339  0.3829  0.0781  0.5345
  146MOL0     H19665  12.560  10.505   4.500  2.0751 -1.5568  0.2615
  146MOL0     H19666  12.498  10.246   4.365 -0.1966 -1.6446  1.5346
  146MOL0     H19667  12.533  10.252   4.531  0.2812 -0.9492 -1.1843
  146MOL0     H19668  12.770  10.223   4.427 -2.0271 -1.1607 -0.4289
  146MOL0     H19669  12.762  10.386   4.473  1.5689 -0.5987 -1.3076
  146MOL0     H19670  12.961  10.373   4.401  1.0090  3.4674  0.0779
  146MOL0     H19671  13.173  10.412   4.298 -0.3768 -4.5420  0.3453
  146MOL0     H19672  13.482  10.346   3.921 -1.1026  0.6124 -0.9550
  146MOL0     H19673  13.687  10.427   3.844  0.1654  0.4811 -0.4629
  146MOL0     H19674  13.869  10.807   3.958  1.6568  0.5730  1.5498
  146MOL0     H19675  13.933  10.690   4.085  2.5727 -1.7298 -0.0174
  146MOL0     H19676  14.106  10.609   3.955 -0.1031 -0.1282 -0.0742
  146MOL0     H19677  14.045  10.650   3.804  2.2450  2.3515 -1.1301
  146MOL0     H19678  14.066  10.903   3.889  2.6179  1.6786  0.5443
  146MOL0     H19679  14.152  10.816   4.020 -2.3234  0.9107  1.4998
  146MOL0     H19680  14.246  10.759   3.743 -2.7025 -0.3396  1.0474
  146MOL0     H19681  14.319  10.721   3.898  0.3300  1.5467 -0.1107
  146MOL0     H19682  14.356  10.973   3.930 -1.3357  2.0573 -0.0676
  146MOL0     H19683  14.261  11.017   3.795 -1.9904  0.3926  2.5812
  146MOL0     H19684  14.519  10.853   3.780 -1.8532  0.7966  3.9883
  146MOL0     H19685  14.413  10.886   3.644  1.1013 -0.7498 -0.1390
  146MOL0     H19686  14.542  11.095   3.815  1.4111  1.1660 -1.3600
  146MOL0     H19687  14.472  11.134   3.655 -2.3537 -3.6912 -2.5775
  146MOL0     H19688  14.697  10.937   3.644 -0.7211 -1.6327 -1.4041
  146MOL0     H19689  14.612  11.023   3.514 -0.4042 -3.7843  0.7735
  146MOL0     H19690  13.734  10.660   4.194  0.2931 -1.4951  0.4545
  146MOL0     H19691  13.494  10.616   4.254  0.1450 -3.1987  0.9314
  146MOL0     H19692  13.000  10.438   3.918  1.8644 -2.5693 -0.9220
  146MOL0     H19693  12.768  10.398   4.016 -0.1569 -2.1565 -0.5512
  146MOL0     H19694  11.174   9.737   4.462  0.5110  2.2004 -0.8702
  146MOL0     H19695  10.986   9.579   4.537 -0.4264 -3.6904 -1.7720
  146MOL0     H19696  10.693   9.373   4.596 -0.8664 -2.9419 -1.6324
  146MOL0     H19697  10.562   9.210   4.714 -3.0790 -2.0183  0.1411
  146MOL0     H19698  10.169   9.128   4.543 -0.7976 -2.4604  0.4940
  146MOL0     H19699  10.121   9.241   4.662  0.0456 -0.4020 -1.4480
  146MOL0     H19700  10.013   9.041   4.737  0.0768  0.6873  0.9546
  146MOL0     H19701  10.146   9.053   4.843 -0.7522  0.6543  0.4229
  146MOL0     H19702  10.291   8.916   4.693  0.7935  0.3938  4.3739
  146MOL0     H19703  10.137   8.869   4.611  0.6493 -1.3839 -0.9735
  146MOL0     H19704  10.202   8.713   4.791  1.7585  1.8444 -3.1200
  146MOL0     H19705  10.219   8.835   4.906 -0.7807 -0.9554  0.6076
  146MOL0     H19706   9.801   8.788   4.908  1.1675  1.2510  2.4667
  146MOL0     H19707  10.209   9.368   4.521 -0.1247 -1.7153 -0.8793
  146MOL0     H19708  10.364   9.663   4.363  3.2254 -0.2735  3.1003
  146MOL0     H19709  10.259   9.519   4.326 -2.0203 -1.3949  2.5072
  146MOL0     H19710  10.236   9.618   4.476  0.0403 -0.7348  0.0426
  147MOL0     O19711   7.340   2.621   9.664 -0.2612 -0.5983  0.5894
  147MOL0     C19712   7.239   2.545   9.671 -0.5938 -1.1685  0.0687
  147MOL0     O19713   7.243   2.418   9.713  0.4133 -0.2521 -0.5792
  147MOL0     C19714   7.364   2.369   9.721 -0.9586 -0.1758 -0.3842
  147MOL0     C19715   7.421   2.321   9.609 -0.3162 -0.0585  0.3202
  147MOL0     C19716   7.560   2.270   9.616 -1.2036 -0.3963 -0.0726
  147MOL0     C19717   7.630   2.277   9.739 -0.2161 -1.2965 -0.4876
  147MOL0     O19718   7.753   2.212   9.740 -0.5298  0.1392  0.2803
  147MOL0     C19719   7.829   2.197   9.858 -0.4139  0.3865  0.1645
  147MOL0     C19720   7.977   2.175   9.816  0.1805 -0.5546 -0.2972
  147MOL0     C19721   7.987   2.039   9.751  0.1530  0.4815 -0.0429
  147MOL0     C19722   8.134   2.021   9.699  0.5862 -0.2684 -1.2867
  147MOL0     C19723   8.165   1.880   9.639  0.2662  0.2870 -0.6299
  147MOL0     C19724   8.110   1.871   9.497  0.0977 -0.4667 -0.6917
  147MOL0     C19725   8.164   1.755   9.420 -0.0346 -0.0948 -0.2718
  147MOL0     C19726   8.133   1.617   9.477 -0.0228  0.0829  0.6045
  147MOL0     N19727   8.192   1.507   9.391  0.5942 -0.1642 -0.3755
  147MOL0     C19728   8.171   1.493   9.256 -0.0166  0.0794  0.4335
  147MOL0     C19729   8.264   1.388   9.228  0.2728  0.2467  0.8655
  147MOL0     C19730   8.296   1.320   9.095  0.4700  0.6143  0.3205
  147MOL0     C19731   8.231   1.393   8.977 -0.9235  0.2947 -0.1026
  147MOL0     C19732   8.288   1.333   8.848  0.8298 -0.3454  0.4441
  147MOL0     C19733   8.424   1.405   8.815  0.4837 -0.0134  0.3375
  147MOL0     O19734   8.538   1.379   8.897  0.3089  0.0271 -0.5945
  147MOL0     C19735   8.630   1.481   8.924  0.1157 -0.0106 -0.2395
  147MOL0     C19736   8.667   1.504   9.052  0.1439 -0.3374 -0.3396
  147MOL0     C19737   8.758   1.613   9.084 -0.8811  0.1811  0.7434
  147MOL0     C19738   8.821   1.682   8.981 -0.7203 -0.3229 -0.0809
  147MOL0     C19739   8.917   1.793   9.012  0.2962  1.1582  0.1633
  147MOL0     O19740   8.929   1.819   9.144 -0.5370  0.3453 -0.0344
  147MOL0     C19741   9.028   1.909   9.191  0.2432  0.3381  0.1432
  147MOL0     C19742   9.165   1.881   9.179 -0.6659 -0.2869 -1.2344
  147MOL0     C19743   9.257   1.976   9.237 -0.1031 -1.4358 -1.2065
  147MOL0     C19744   9.212   2.095   9.303  0.5694 -0.2578  0.8474
  147MOL0     O19745   9.297   2.199   9.331 -0.1148 -0.4000  0.2158
  147MOL0     C19746   9.417   2.199   9.252 -0.2863 -0.8233 -0.2163
  147MOL0     C19747   9.490   2.334   9.231 -0.2119  0.3732  0.4110
  147MOL0     C19748   9.584   2.372   9.348 -0.6574 -0.2500 -0.0050
  147MOL0     C19749   9.729   2.392   9.302 -0.0071  0.5984  0.4057
  147MOL0     C19750   9.806   2.473   9.394  0.0147  0.6258 -0.4426
  147MOL0     C19751   9.958   2.467   9.384  0.1478 -0.0874  0.5484
  147MOL0     C19752  10.021   2.571   9.291 -0.1693 -0.1554  0.0812
  147MOL0     C19753  10.172   2.585   9.327 -0.1170  0.1156 -0.0421
  147MOL0    Cl19754  10.236   2.725   9.230  0.4487 -0.3464  0.2455
  147MOL0     C19755   9.075   2.117   9.319  0.3677 -0.4793 -0.1497
  147MOL0     C19756   8.990   2.021   9.260  0.7889  0.0338 -1.5054
  147MOL0     O19757   8.972   1.855   8.921  1.0847  0.7391 -0.9001
  147MOL0     C19758   8.787   1.652   8.852  0.5855  0.4090 -0.2655
  147MOL0     C19759   8.695   1.556   8.823  1.2148  0.4586 -0.0931
  147MOL0     N19760   8.338   1.356   9.333 -1.2398 -0.0831 -0.0876
  147MOL0     N19761   8.294   1.427   9.433 -0.4987 -0.3828 -0.3032
  147MOL0     C19762   7.564   2.337   9.848  0.5834 -0.4869 -0.7897
  147MOL0     C19763   7.431   2.379   9.841 -0.0368  0.3621  0.4627
  147MOL0     C19764   7.099   2.595   9.641  0.0716  0.4185 -0.6517
  147MOL0     C19765   6.991   2.514   9.678  0.0410  0.4512  0.1013
  147MOL0     C19766   6.860   2.555   9.652 -0.3230  0.1540 -0.0451
  147MOL0     C19767   6.838   2.676   9.583  0.3356  0.9518  0.1600
  147MOL0     O19768   6.703   2.703   9.559  0.7308 -0.1985 -0.6277
  147MOL0     C19769   6.660   2.799   9.460  0.6674 -0.6792  0.5512
  147MOL0     C19770   6.703   2.744   9.319  0.6111 -0.1247 -0.2476
  147MOL0     C19771   6.580   2.705   9.242 -0.0085  0.6655 -0.7158
  147MOL0     C19772   6.625   2.679   9.100  0.9234  0.6127  0.9812
  147MOL0     C19773   6.502   2.628   9.032  0.1774 -0.9449 -0.6887
  147MOL0     C19774   6.413   2.605   8.954 -0.7492 -0.0125 -0.0156
  147MOL0     C19775   6.940   2.753   9.541  0.4281 -0.0233 -0.2183
  147MOL0     C19776   7.071   2.718   9.577 -0.4878 -0.6605  0.1752
  147MOL0     C19777   7.185   2.805   9.534  0.1170  0.0572  0.7514
  147MOL0     H19778   7.369   2.308   9.515 -1.2239 -0.1521  0.8173
  147MOL0     H19779   7.607   2.233   9.526  1.6196  2.5644  0.0006
  147MOL0     H19780   7.827   2.292   9.913 -2.7170  0.2251  0.4377
  147MOL0     H19781   7.786   2.115   9.916  1.5200 -0.1167  0.9671
  147MOL0     H19782   8.037   2.178   9.907 -3.2273  1.6096  2.1341
  147MOL0     H19783   8.009   2.256   9.749 -0.5903  2.1591  2.3884
  147MOL0     H19784   7.913   2.030   9.671 -0.8653  1.7019  0.7210
  147MOL0     H19785   7.973   1.961   9.827  4.0213  0.7129  1.1428
  147MOL0     H19786   8.154   2.103   9.629  1.4062  1.5338  0.9315
  147MOL0     H19787   8.196   2.034   9.789 -0.6795  1.2364 -0.5903
  147MOL0     H19788   8.274   1.876   9.630  0.3702 -1.1285  0.7443
  147MOL0     H19789   8.120   1.797   9.693  0.4654 -2.7137 -4.6558
  147MOL0     H19790   8.003   1.848   9.509  0.4070 -1.1176  1.2193
  147MOL0     H19791   8.127   1.962   9.439 -1.0733  0.1162 -0.1771
  147MOL0     H19792   8.272   1.763   9.408 -0.2457  2.0940 -1.1185
  147MOL0     H19793   8.118   1.756   9.321 -0.8627 -1.1304  0.0758
  147MOL0     H19794   8.190   1.606   9.570 -1.3639  0.4105  1.4986
  147MOL0     H19795   8.026   1.602   9.496 -0.5766  1.0877 -1.3924
  147MOL0     H19796   8.100   1.544   9.192  1.4420 -0.2513 -1.5441
  147MOL0     H19797   8.405   1.312   9.091  0.6631 -0.0871  3.7412
  147MOL0     H19798   8.259   1.218   9.079 -0.1489  0.8855 -0.0251
  147MOL0     H19799   8.122   1.389   8.980 -1.0211  1.8535 -0.7576
  147MOL0     H19800   8.255   1.498   8.991 -1.1930 -0.0593  4.4667
  147MOL0     H19801   8.216   1.346   8.767 -0.2157  2.0379  1.6500
  147MOL0     H19802   8.298   1.225   8.865  1.1858 -0.2644  0.7788
  147MOL0     H19803   8.414   1.514   8.809 -1.3457 -0.2107 -1.6330
  147MOL0     H19804   8.452   1.373   8.714  1.7472 -0.7103  0.8891
  147MOL0     H19805   8.617   1.454   9.135  2.9057 -3.0945 -0.1633
  147MOL0     H19806   8.770   1.640   9.189  0.1548 -2.5822  1.4557
  147MOL0     H19807   9.200   1.786   9.140  2.5441  0.0699  0.3814
  147MOL0     H19808   9.364   1.959   9.244  1.3689  5.5972  0.6566
  147MOL0     H19809   9.489   2.130   9.296 -0.6116 -1.8382 -1.1998
  147MOL0     H19810   9.405   2.177   9.145  0.4873  0.1471 -0.5198
  147MOL0     H19811   9.546   2.333   9.137  0.5836 -1.4368  0.8841
  147MOL0     H19812   9.407   2.406   9.226  0.2871  0.9356  0.0368
  147MOL0     H19813   9.543   2.465   9.388  0.9168  1.6569 -2.5754
  147MOL0     H19814   9.571   2.302   9.432  0.4912 -0.5047 -0.0182
  147MOL0     H19815   9.742   2.432   9.201  4.0317  0.6087  0.7618
  147MOL0     H19816   9.766   2.291   9.284 -2.0395 -0.1894  0.4484
  147MOL0     H19817   9.779   2.430   9.491  1.9919 -3.1187 -1.3386
  147MOL0     H19818   9.759   2.571   9.384 -0.2015  0.5658 -0.0371
  147MOL0     H19819   9.996   2.481   9.486  2.2594  1.0138 -0.3117
  147MOL0     H19820   9.985   2.369   9.346  0.8326  0.5526 -0.6716
  147MOL0     H19821   9.968   2.666   9.301 -2.3756 -1.2462 -0.6657
  147MOL0     H19822  10.011   2.541   9.186  2.8079  1.9920 -0.9852
  147MOL0     H19823  10.190   2.612   9.432  3.5379 -0.9233 -0.2351
  147MOL0     H19824  10.219   2.488   9.307  0.4994 -0.3613  3.1312
  147MOL0     H19825   9.037   2.213   9.352 -2.4529 -1.6116  0.1546
  147MOL0     H19826   8.884   2.045   9.267  0.9867  0.3980  1.0214
  147MOL0     H19827   8.835   1.700   8.767  1.3656 -1.0260 -0.6590
  147MOL0     H19828   8.660   1.532   8.723 -2.1872 -1.1576  1.3212
  147MOL0     H19829   7.610   2.338   9.947  0.5340 -2.3230 -0.7077
  147MOL0     H19830   7.374   2.437   9.914 -2.2197 -1.6622  0.4763
  147MOL0     H19831   6.989   2.413   9.717 -1.1345  0.8789  1.2231
  147MOL0     H19832   6.776   2.493   9.681  1.1730 -1.8275  0.3252
  147MOL0     H19833   6.701   2.898   9.481  0.4433 -0.4224 -0.1888
  147MOL0     H19834   6.551   2.809   9.464  0.7991  1.2896  0.2257
  147MOL0     H19835   6.780   2.668   9.333 -0.4696 -1.0885  0.7533
  147MOL0     H19836   6.738   2.836   9.270 -0.9798  0.5615 -0.1678
  147MOL0     H19837   6.503   2.782   9.249 -2.6473 -1.8950  1.0476
  147MOL0     H19838   6.543   2.614   9.290 -0.2865  1.7541  1.2311
  147MOL0     H19839   6.665   2.776   9.067  1.9879 -0.0811  0.1630
  147MOL0     H19840   6.703   2.603   9.087  1.4488  1.5608 -2.3869
  147MOL0     H19841   6.334   2.600   8.883 -0.3540 -0.6663 -0.4115
  147MOL0     H19842   6.922   2.840   9.478 -1.7741 -1.7058 -2.1179
  147MOL0     H19843   7.245   2.835   9.620  1.7625  4.8313 -1.7000
  147MOL0     H19844   7.242   2.745   9.462  1.7294  1.0142  1.1852
  147MOL0     H19845   7.143   2.898   9.496  0.6916  1.1345  2.6480
  148MOL0     O19846   8.625   6.685   6.262 -0.1295 -0.4007  0.2280
  148MOL0     C19847   8.640   6.791   6.197  0.0945  0.4902  0.2427
  148MOL0     O19848   8.761   6.852   6.174  0.7967  0.7405  1.2564
  148MOL0     C19849   8.884   6.793   6.200  0.1388  0.9091  0.3298
  148MOL0     C19850   8.904   6.663   6.258 -0.5736 -0.7833 -0.4833
  148MOL0     C19851   9.030   6.609   6.277 -0.2098 -0.0589 -0.0189
  148MOL0     C19852   9.143   6.686   6.242  0.6361  0.7064  0.8458
  148MOL0     O19853   9.273   6.645   6.255 -0.3909  0.4999  0.5896
  148MOL0     C19854   9.287   6.506   6.281  0.4095 -0.2719  0.8218
  148MOL0     C19855   9.433   6.458   6.303 -0.0740 -0.1812 -0.1590
  148MOL0     C19856   9.476   6.477   6.450 -0.2619  0.7450 -0.4132
  148MOL0     C19857   9.632   6.458   6.475 -0.1809 -0.7588  0.3005
  148MOL0     C19858   9.670   6.499   6.619 -1.0990  0.0212 -0.4754
  148MOL0     C19859   9.832   6.503   6.638  0.1705  1.4258  0.6774
  148MOL0     C19860   9.881   6.531   6.778  0.2888 -0.3875  0.3423
  148MOL0     C19861   9.812   6.454   6.887  0.0619 -0.0271 -0.9541
  148MOL0     N19862   9.901   6.437   7.008  0.0374  0.3496 -0.4159
  148MOL0     C19863   9.910   6.510   7.116  0.1244  0.3971  0.1221
  148MOL0     C19864  10.009   6.451   7.186  0.5306 -0.3482 -0.4705
  148MOL0     C19865  10.070   6.507   7.319  0.8122  0.2953  0.1735
  148MOL0     C19866  10.223   6.530   7.328 -0.0898  0.6138  0.1301
  148MOL0     C19867  10.259   6.650   7.233  0.6117 -0.0068 -0.4097
  148MOL0     C19868  10.410   6.661   7.215  0.2187  0.1750 -0.2185
  148MOL0     O19869  10.476   6.712   7.339 -0.2152 -0.5793 -0.1734
  148MOL0     C19870  10.614   6.737   7.344  0.8133 -0.2009 -0.2172
  148MOL0     C19871  10.704   6.694   7.246  0.0541 -0.0808 -0.4101
  148MOL0     C19872  10.840   6.725   7.266  1.1908  0.5645  0.1482
  148MOL0     C19873  10.892   6.779   7.385 -0.3611 -0.2541  0.1329
  148MOL0     C19874  11.038   6.791   7.404 -0.0226  0.3189 -0.2625
  148MOL0     O19875  11.091   6.778   7.525 -0.0814 -0.6424  0.3511
  148MOL0     C19876  11.224   6.802   7.547 -0.5150  0.7744  0.6191
  148MOL0     C19877  11.304   6.898   7.472 -0.7814 -0.2997 -0.4939
  148MOL0     C19878  11.444   6.893   7.487 -0.1896 -0.4696  0.6989
  148MOL0     C19879  11.507   6.802   7.571 -0.4031 -1.3042 -0.3235
  148MOL0     O19880  11.643   6.815   7.594  0.1828 -0.1209  0.2270
  148MOL0     C19881  11.724   6.896   7.502 -0.3172  0.4879 -0.0192
  148MOL0     C19882  11.875   6.882   7.545 -0.0387  0.4721 -0.7049
  148MOL0     C19883  11.916   6.730   7.526  0.1371 -0.4092  0.3218
  148MOL0     C19884  12.062   6.694   7.538  0.2928 -0.2746  0.5099
  148MOL0     C19885  12.067   6.549   7.576 -0.7239 -0.0571  0.1062
  148MOL0     C19886  12.206   6.493   7.552 -0.3877  0.2174  0.1532
  148MOL0     C19887  12.226   6.355   7.608  0.8288 -0.2309  0.0233
  148MOL0     C19888  12.370   6.293   7.602  0.1505 -1.4962  0.1072
  148MOL0    Cl19889  12.379   6.144   7.694  0.3480 -0.0334 -0.0429
  148MOL0     C19890  11.431   6.718   7.654  0.2998 -0.0625  0.0645
  148MOL0     C19891  11.291   6.712   7.630  0.1675 -0.1860  0.7231
  148MOL0     O19892  11.099   6.811   7.298 -0.7028 -0.0562 -0.4979
  148MOL0     C19893  10.803   6.815   7.485 -0.0980  0.8433  0.4771
  148MOL0     C19894  10.663   6.802   7.460 -0.7443 -0.1397  0.6218
  148MOL0     N19895  10.063   6.353   7.116 -0.5351  0.4036 -0.6199
  148MOL0     N19896  10.000   6.344   7.006 -0.1078 -0.6154  0.6023
  148MOL0     C19897   9.117   6.801   6.171 -0.7835  0.1980  0.3464
  148MOL0     C19898   8.997   6.854   6.143  0.0438 -0.9106 -0.3249
  148MOL0     C19899   8.522   6.860   6.151 -0.9598 -0.6903 -0.3488
  148MOL0     C19900   8.536   6.944   6.042 -0.2663  0.4623  0.1375
  148MOL0     C19901   8.427   7.004   5.985 -0.2433 -0.2045  0.0353
  148MOL0     C19902   8.296   7.000   6.044 -0.1636 -0.4449  0.1224
  148MOL0     O19903   8.194   7.070   5.977  0.8051  0.1404  0.0598
  148MOL0     C19904   8.059   7.049   6.027  1.1604 -0.1858 -0.1847
  148MOL0     C19905   7.958   7.166   5.984 -0.6246 -0.4782  0.2750
  148MOL0     C19906   7.977   7.200   5.832 -1.0995 -0.1290 -0.1599
  148MOL0     C19907   7.883   7.302   5.775  0.6070 -0.1542 -0.9967
  148MOL0     C19908   7.761   7.230   5.720  0.5177  0.6335  0.0866
  148MOL0     C19909   7.664   7.181   5.658 -0.0188 -0.1926 -0.0173
  148MOL0     C19910   8.287   6.923   6.161 -0.1108 -1.1754  1.3537
  148MOL0     C19911   8.392   6.851   6.215  1.2327  0.8349  1.1353
  148MOL0     C19912   8.363   6.763   6.333  0.5087 -0.0492 -0.8034
  148MOL0     H19913   8.820   6.603   6.290 -1.6571  1.5009  1.2766
  148MOL0     H19914   9.042   6.522   6.340 -0.9664 -0.5722 -0.5578
  148MOL0     H19915   9.226   6.471   6.364 -0.1683 -1.2602  0.0018
  148MOL0     H19916   9.262   6.447   6.192  1.4227 -3.2920  2.3947
  148MOL0     H19917   9.490   6.514   6.229  0.1282 -1.0964 -0.7140
  148MOL0     H19918   9.444   6.353   6.274  3.5796  0.5873 -2.1650
  148MOL0     H19919   9.416   6.412   6.515  0.1145  1.0396  0.2337
  148MOL0     H19920   9.443   6.571   6.494 -2.6083 -0.4518  0.5596
  148MOL0     H19921   9.662   6.356   6.453  0.2738 -0.8984  1.5379
  148MOL0     H19922   9.686   6.523   6.406 -1.3444 -1.3340 -1.2323
  148MOL0     H19923   9.643   6.601   6.645 -2.7714 -0.4440 -0.2412
  148MOL0     H19924   9.616   6.429   6.684  1.4108  1.9152  4.0630
  148MOL0     H19925   9.878   6.410   6.606  0.9398  1.0500  2.7425
  148MOL0     H19926   9.870   6.577   6.567 -1.2388  0.9054 -0.6854
  148MOL0     H19927   9.862   6.638   6.795 -0.4153 -0.0224 -2.2624
  148MOL0     H19928   9.988   6.515   6.764 -0.3224 -3.4391 -1.8246
  148MOL0     H19929   9.716   6.496   6.918 -0.7608 -0.8228 -2.3243
  148MOL0     H19930   9.786   6.352   6.856 -1.4342 -1.3697  3.7630
  148MOL0     H19931   9.852   6.598   7.144  1.0173  0.4739  1.8538
  148MOL0     H19932  10.026   6.606   7.330 -1.3893 -0.5545 -0.2933
  148MOL0     H19933  10.037   6.442   7.400 -0.4396  0.3158 -0.2995
  148MOL0     H19934  10.266   6.560   7.424  2.2321 -2.0041  0.0212
  148MOL0     H19935  10.267   6.434   7.301 -1.4930 -0.6119  1.9558
  148MOL0     H19936  10.235   6.748   7.276 -0.2173 -0.8480  1.1387
  148MOL0     H19937  10.206   6.656   7.137  0.0351  0.6773 -0.0594
  148MOL0     H19938  10.425   6.731   7.131 -2.4949  2.8447  1.2945
  148MOL0     H19939  10.447   6.562   7.188  1.2354  0.0008  1.6794
  148MOL0     H19940  10.676   6.645   7.153 -2.0376 -1.5868  0.9391
  148MOL0     H19941  10.905   6.703   7.182  0.4308 -1.0109 -0.0561
  148MOL0     H19942  11.249   6.964   7.405  0.1251  0.3903 -0.5790
  148MOL0     H19943  11.507   6.965   7.437  0.5015 -0.9368  0.8806
  148MOL0     H19944  11.710   6.859   7.399  0.8209  2.6859 -1.0235
  148MOL0     H19945  11.691   7.000   7.509 -2.8374 -0.2212 -0.2603
  148MOL0     H19946  11.940   6.939   7.480 -2.1713 -0.8566 -4.2855
  148MOL0     H19947  11.873   6.907   7.652  0.3727  1.0916 -0.8406
  148MOL0     H19948  11.856   6.677   7.601  0.7307 -0.8013  0.5319
  148MOL0     H19949  11.871   6.694   7.432 -2.7627  0.1838  1.3724
  148MOL0     H19950  12.107   6.753   7.618  1.7695 -1.2013  0.3961
  148MOL0     H19951  12.120   6.722   7.449  2.6101 -2.4579  1.2211
  148MOL0     H19952  11.996   6.489   7.517 -0.6062 -0.9296  0.8203
  148MOL0     H19953  12.043   6.544   7.682 -0.6545  2.8917  0.3410
  148MOL0     H19954  12.234   6.498   7.446  3.0901 -3.4888  0.6115
  148MOL0     H19955  12.274   6.557   7.609 -0.2821  1.1849 -1.0094
  148MOL0     H19956  12.162   6.296   7.541 -1.8697  2.8098 -0.3177
  148MOL0     H19957  12.184   6.349   7.709  0.6301  3.3530  0.2747
  148MOL0     H19958  12.403   6.275   7.499 -0.9367 -2.4332 -0.0994
  148MOL0     H19959  12.432   6.373   7.644 -3.0007  0.2427  1.7783
  148MOL0     H19960  11.491   6.673   7.732  2.7337  1.9926 -0.4872
  148MOL0     H19961  11.236   6.638   7.687  2.1097  0.1559  3.2228
  148MOL0     H19962  10.843   6.843   7.582  2.5525  1.1874 -0.6151
  148MOL0     H19963  10.604   6.832   7.546  3.1011  2.5015  2.6875
  148MOL0     H19964   9.209   6.850   6.140 -0.6992 -1.3507 -2.1061
  148MOL0     H19965   8.983   6.933   6.069  0.8566 -0.9805 -0.5587
  148MOL0     H19966   8.638   6.963   6.010 -0.1095 -1.9035 -0.9661
  148MOL0     H19967   8.443   7.071   5.901 -0.2930 -1.9147 -1.4011
  148MOL0     H19968   8.047   7.050   6.136  0.9826  0.4779 -0.2033
  148MOL0     H19969   8.027   6.953   5.987  4.0617 -1.5511  0.5088
  148MOL0     H19970   7.983   7.257   6.040 -2.3284  0.6528 -0.6871
  148MOL0     H19971   7.858   7.132   6.011 -0.0388 -2.8872 -0.3474
  148MOL0     H19972   7.967   7.110   5.770 -0.8475 -1.0236  1.0725
  148MOL0     H19973   8.082   7.227   5.820 -1.3430  1.8068  1.5436
  148MOL0     H19974   7.845   7.362   5.858  0.2970 -1.3026 -0.2760
  148MOL0     H19975   7.927   7.368   5.700  0.6516  2.7326  1.4144
  148MOL0     H19976   7.585   7.118   5.623 -0.4635  1.6578 -2.6024
  148MOL0     H19977   8.188   6.904   6.201 -0.5835 -0.7100  0.4342
  148MOL0     H19978   8.356   6.659   6.298  1.9388  0.0199 -1.3666
  148MOL0     H19979   8.426   6.767   6.422 -2.2186 -0.2164  1.2664
  148MOL0     H19980   8.270   6.801   6.376  1.2745  0.5511  0.3642
  149MOL0     O19981  10.001   9.880   0.273  0.4296 -0.1587 -0.7423
  149MOL0     C19982  10.081   9.871   0.370 -0.1338 -0.3912  0.3595
  149MOL0     O19983  10.215   9.856   0.353 -0.8248 -0.5287 -0.5802
  149MOL0     C19984  10.274   9.834   0.233 -0.0274 -0.8209 -0.9589
  149MOL0     C19985  10.405   9.882   0.234 -0.2959  0.2142  0.0846
  149MOL0     C19986  10.480   9.880   0.120  0.1424 -0.5248 -0.0911
  149MOL0     C19987  10.435   9.823  -0.001  0.0336  0.8718 -0.5569
  149MOL0     O19988  10.506   9.825  -0.118 -0.0676 -0.4324 -0.2767
  149MOL0     C19989  10.639   9.898  -0.114 -0.3289 -0.3150  0.1959
  149MOL0     C19990  10.717   9.858  -0.240  0.5337 -0.4802 -0.0803
  149MOL0     C19991  10.660   9.939  -0.355 -0.4768  0.2334  0.0407
  149MOL0     C19992  10.751   9.914  -0.479 -1.0030 -0.6056  0.7281
  149MOL0     C19993  10.675   9.946  -0.608  0.5704  0.1560  0.1016
  149MOL0     C19994  10.753   9.901  -0.723 -0.5404  0.3574  0.3463
  149MOL0     C19995  10.878   9.983  -0.734  0.0688  1.0379 -0.0855
  149MOL0     C19996  10.942   9.951  -0.876 -0.0993  0.8573  1.0504
  149MOL0     N19997  11.087   9.941  -0.874  0.3022  0.3969 -0.9212
  149MOL0     C19998  11.170  10.005  -0.962 -0.0733  0.1154 -0.3503
  149MOL0     C19999  11.292   9.964  -0.935  0.1665 -0.2887 -0.2580
  149MOL0     C20000  11.421  10.013  -1.003  0.0163  0.2139 -0.2608
  149MOL0     C20001  11.469  10.145  -0.942 -0.6794 -0.5170  0.7310
  149MOL0     C20002  11.604  10.189  -0.989  0.2006 -0.3621  0.6580
  149MOL0     C20003  11.611  10.208  -1.142  0.1070 -0.4614  0.4191
  149MOL0     O20004  11.731  10.274  -1.179 -0.5662 -0.1897 -0.3014
  149MOL0     C20005  11.852  10.210  -1.151 -0.5227  0.3913 -0.1103
  149MOL0     C20006  11.968  10.289  -1.132 -1.3250 -0.4759 -0.4821
  149MOL0     C20007  12.092  10.241  -1.101 -0.4794  0.4540 -0.1833
  149MOL0     C20008  12.112  10.100  -1.082 -0.8798 -1.0366 -0.3747
  149MOL0     C20009  12.244  10.053  -1.051  0.2367  1.1014 -0.7835
  149MOL0     O20010  12.347  10.135  -1.055 -0.6873  0.1508  0.0149
  149MOL0     C20011  12.480  10.102  -1.031 -0.6703 -1.0106  0.2086
  149MOL0     C20012  12.541   9.979  -0.998  0.0168  0.5483 -0.1392
  149MOL0     C20013  12.681   9.979  -1.004 -0.5137  1.2138 -0.4685
  149MOL0     C20014  12.762  10.086  -1.017  0.4648 -0.9279 -0.2400
  149MOL0     O20015  12.902  10.084  -1.008  0.7832 -0.1878  0.5593
  149MOL0     C20016  12.950  10.013  -0.891 -0.6615  0.5335  0.0456
  149MOL0     C20017  13.063   9.909  -0.933  0.6024 -0.5510 -0.4063
  149MOL0     C20018  13.192   9.974  -0.969 -0.4771  0.4604  0.9138
  149MOL0     C20019  13.290   9.867  -1.022  0.2993 -0.7365  0.4331
  149MOL0     C20020  13.425   9.880  -0.954  0.3727 -0.8177  0.0682
  149MOL0     C20021  13.507   9.751  -0.960 -0.2248 -0.0788 -0.7129
  149MOL0     C20022  13.594   9.755  -1.094 -0.4422  0.2286  0.3207
  149MOL0     C20023  13.687   9.628  -1.077 -0.1615  0.0154  0.4513
  149MOL0    Cl20024  13.770   9.589  -1.230  0.3435  0.4732  0.6081
  149MOL0     C20025  12.701  10.212  -1.052  0.2357  0.7836 -0.4268
  149MOL0     C20026  12.562  10.215  -1.062  0.1512 -0.3334  1.0777
  149MOL0     O20027  12.251   9.929  -1.036 -0.1992 -1.8713 -0.8192
  149MOL0     C20028  12.005  10.016  -1.108  0.6700 -0.1806 -0.4112
  149MOL0     C20029  11.883  10.072  -1.136 -0.3407 -0.2485 -0.1702
  149MOL0     N20030  11.277   9.883  -0.816 -0.4256  0.0474 -0.0921
  149MOL0     N20031  11.160   9.867  -0.786 -0.4782 -0.1497 -0.0436
  149MOL0     C20032  10.306   9.758   0.006  0.6113  0.1350 -0.0232
  149MOL0     C20033  10.225   9.771   0.122 -0.1418 -0.6053  0.7673
  149MOL0     C20034  10.027   9.873   0.508  0.3642 -0.3644 -0.0407
  149MOL0     C20035  10.101   9.807   0.601 -0.6015  0.6405 -0.6537
  149MOL0     C20036  10.052   9.781   0.733 -0.5371  0.1354  0.1585
  149MOL0     C20037   9.933   9.832   0.772  0.8752  0.1303 -0.7658
  149MOL0     O20038   9.890   9.785   0.894  0.3004  0.5174  0.1108
  149MOL0     C20039   9.747   9.791   0.926  0.0704  0.5118 -0.1712
  149MOL0     C20040   9.724   9.696   1.046  0.6365 -0.0091 -0.2507
  149MOL0     C20041   9.794   9.736   1.175 -0.8607 -0.0701  0.4758
  149MOL0     C20042   9.720   9.837   1.253  0.7797  0.1535 -0.0086
  149MOL0     C20043   9.803   9.878   1.368  0.3348  0.2764 -0.3697
  149MOL0     C20044   9.879   9.895   1.457  0.6024  0.4449 -0.7442
  149MOL0     C20045   9.861   9.906   0.679 -0.0406 -0.6404  0.0100
  149MOL0     C20046   9.905   9.927   0.551  0.5009 -0.2870  0.8075
  149MOL0     C20047   9.820  10.013   0.461 -0.6123 -0.7608  0.1443
  149MOL0     H20048  10.433   9.933   0.326  1.6682 -0.9915  0.2152
  149MOL0     H20049  10.578   9.925   0.128  1.0938 -2.7820  2.2150
  149MOL0     H20050  10.618  10.005  -0.118 -1.9605 -0.3386  4.0898
  149MOL0     H20051  10.698   9.861  -0.030 -4.0005 -1.9701  2.2930
  149MOL0     H20052  10.712   9.751  -0.260 -4.3147 -0.2957 -1.0448
  149MOL0     H20053  10.817   9.888  -0.209 -0.2270  0.8312  1.2528
  149MOL0     H20054  10.656  10.045  -0.328 -0.6623  0.9300 -2.4612
  149MOL0     H20055  10.565   9.902  -0.393  1.2742  0.1336 -5.0125
  149MOL0     H20056  10.850   9.956  -0.459 -1.5395  0.9505  0.2659
  149MOL0     H20057  10.773   9.807  -0.480 -1.2804 -0.7472  3.4603
  149MOL0     H20058  10.574   9.905  -0.608  0.1966  0.9957  1.9310
  149MOL0     H20059  10.655  10.054  -0.609 -2.2101 -0.2564 -2.6438
  149MOL0     H20060  10.784   9.797  -0.704  0.7549  0.9751  1.9412
  149MOL0     H20061  10.697   9.911  -0.816  0.3838 -0.3427 -0.3139
  149MOL0     H20062  10.950   9.961  -0.655 -1.3129 -1.6197  0.5776
  149MOL0     H20063  10.843  10.086  -0.733  3.9288  2.4805  1.2639
  149MOL0     H20064  10.920   9.850  -0.913 -0.0184  0.6753  1.4965
  149MOL0     H20065  10.914  10.024  -0.952 -2.6765 -1.7537 -0.7409
  149MOL0     H20066  11.132  10.068  -1.043  0.9748 -1.8979 -2.5392
  149MOL0     H20067  11.498   9.936  -0.992 -1.3766 -1.4585 -1.5669
  149MOL0     H20068  11.399  10.018  -1.110 -1.9300 -0.1844  0.0724
  149MOL0     H20069  11.406  10.224  -0.984  1.0860 -0.1094 -1.3062
  149MOL0     H20070  11.471  10.139  -0.833 -0.6272 -0.0861  0.7571
  149MOL0     H20071  11.677  10.112  -0.961  1.5745  0.8502  0.5115
  149MOL0     H20072  11.629  10.285  -0.944  0.1225  0.0904 -0.2418
  149MOL0     H20073  11.529  10.269  -1.181  0.7939 -1.7462 -3.4988
  149MOL0     H20074  11.605  10.109  -1.189  0.1750 -1.3408  2.1869
  149MOL0     H20075  11.957  10.394  -1.154  0.1881  0.2360  1.8299
  149MOL0     H20076  12.180  10.304  -1.090  2.2144 -2.6839 -1.8428
  149MOL0     H20077  12.488   9.889  -0.970 -1.3253  1.8048  1.6003
  149MOL0     H20078  12.734   9.888  -0.978 -1.5466  0.7892  0.1938
  149MOL0     H20079  12.996  10.081  -0.819 -1.3721  0.2943  0.7438
  149MOL0     H20080  12.876   9.952  -0.838 -1.2642 -0.7045 -2.0967
  149MOL0     H20081  13.086   9.841  -0.851  0.1765 -0.3416 -0.1101
  149MOL0     H20082  13.022   9.849  -1.016 -0.8803 -0.2170  0.0529
  149MOL0     H20083  13.172  10.048  -1.047 -3.6462  0.4302  1.5675
  149MOL0     H20084  13.231  10.025  -0.881 -2.1621 -0.2579  2.1251
  149MOL0     H20085  13.301   9.867  -1.131 -1.5494 -0.2139  0.2057
  149MOL0     H20086  13.253   9.765  -1.017  0.8883 -1.1708 -2.2839
  149MOL0     H20087  13.409   9.898  -0.847 -0.5149 -1.3437  0.0413
  149MOL0     H20088  13.475   9.969  -0.991  0.3833 -0.8239  0.0676
  149MOL0     H20089  13.561   9.740  -0.866  0.7608 -1.0594 -1.3793
  149MOL0     H20090  13.441   9.664  -0.969  1.6231 -1.5654 -0.4357
  149MOL0     H20091  13.652   9.847  -1.098 -0.3316  0.1147 -0.7631
  149MOL0     H20092  13.531   9.746  -1.183 -0.0956 -2.6355  0.2603
  149MOL0     H20093  13.760   9.638  -0.996  0.0834 -2.9675  0.7044
  149MOL0     H20094  13.640   9.537  -1.039 -3.6477  2.7488  3.3584
  149MOL0     H20095  12.763  10.298  -1.076  0.3541  0.6758 -0.5078
  149MOL0     H20096  12.511  10.306  -1.093 -2.4497 -1.2396  2.3799
  149MOL0     H20097  11.999   9.908  -1.099 -1.3118 -0.1826 -1.1995
  149MOL0     H20098  11.806   9.998  -1.157  0.5109 -1.4983  0.9942
  149MOL0     H20099  10.274   9.695  -0.076  1.2331  0.6291 -0.6567
  149MOL0     H20100  10.127   9.726   0.129 -0.2721 -0.4341  0.0780
  149MOL0     H20101  10.202   9.779   0.572 -0.2372  1.1432  0.0997
  149MOL0     H20102  10.119   9.719   0.791  0.2462  0.2273 -0.6315
  149MOL0     H20103   9.675   9.760   0.850 -1.5110  1.4000  0.9039
  149MOL0     H20104   9.726   9.891   0.965 -1.1071 -0.0310  0.6347
  149MOL0     H20105   9.757   9.595   1.018 -3.2886 -1.0457 -1.8462
  149MOL0     H20106   9.616   9.700   1.056  0.3654  0.2915 -2.6199
  149MOL0     H20107   9.898   9.766   1.163 -0.3271 -2.2727 -1.3863
  149MOL0     H20108   9.803   9.644   1.234 -1.2380  0.0046  0.6472
  149MOL0     H20109   9.702   9.923   1.188 -2.0229 -2.1313 -2.5562
  149MOL0     H20110   9.629   9.783   1.280  1.1551 -0.7214 -0.4227
  149MOL0     H20111   9.950   9.910   1.536  1.8352  0.9890 -1.9081
  149MOL0     H20112   9.758   9.936   0.693 -0.2894 -1.4552  0.0177
  149MOL0     H20113   9.882  10.058   0.383 -0.7784  1.3623  1.1691
  149MOL0     H20114   9.734   9.951   0.434 -0.8597 -0.7998  0.9728
  149MOL0     H20115   9.782  10.094   0.524  0.1171  0.9664 -1.5390
  150MOL0     O20116   8.939   3.179   9.694  0.4920 -0.9772  0.5978
  150MOL0     C20117   8.888   3.237   9.590 -0.0629  0.1783  0.7099
  150MOL0     O20118   8.943   3.233   9.464 -0.2585 -0.1801  1.1882
  150MOL0     C20119   9.047   3.147   9.440  0.6273 -0.3962  0.5570
  150MOL0     C20120   9.183   3.195   9.444  0.2345  0.3031  0.3096
  150MOL0     C20121   9.282   3.113   9.393 -0.4156  0.3760  0.0464
  150MOL0     C20122   9.255   2.987   9.342  0.7212 -0.2575  1.1435
  150MOL0     O20123   9.350   2.899   9.306  0.0961  0.0566 -0.0405
  150MOL0     C20124   9.473   2.953   9.247  0.2506 -0.7195 -0.1756
  150MOL0     C20125   9.560   2.845   9.191  0.2141 -0.3240  0.1463
  150MOL0     C20126   9.670   2.903   9.099  0.4250  0.0083 -0.6605
  150MOL0     C20127   9.690   2.820   8.969  0.2192 -0.0772  0.1506
  150MOL0     C20128   9.791   2.874   8.876  0.8804 -0.4608  1.0536
  150MOL0     C20129   9.912   2.920   8.955  0.6630  0.4870 -1.1073
  150MOL0     C20130  10.043   2.938   8.877 -0.1580 -0.4592  0.2132
  150MOL0     C20131  10.163   2.979   8.961  0.5073  0.8512  0.0477
  150MOL0     N20132  10.292   2.933   8.904 -0.3252 -0.3914  0.2813
  150MOL0     C20133  10.353   2.996   8.799 -0.3358 -0.1450  0.4612
  150MOL0     C20134  10.472   2.930   8.779  0.2987 -0.2803 -0.3523
  150MOL0     C20135  10.571   2.985   8.681  0.7606 -1.0746  0.2544
  150MOL0     C20136  10.670   3.076   8.750 -0.1368 -0.0401  0.0005
  150MOL0     C20137  10.624   3.214   8.763 -0.7385 -0.8901  0.2547
  150MOL0     C20138  10.708   3.299   8.866  0.6102 -0.0326  0.0788
  150MOL0     O20139  10.845   3.284   8.847 -0.2850 -0.1568 -0.3845
  150MOL0     C20140  10.925   3.339   8.947  0.2055 -0.7377 -0.0444
  150MOL0     C20141  10.890   3.389   9.072 -0.2208  0.5495 -0.4048
  150MOL0     C20142  10.984   3.442   9.168  0.4361 -0.6519 -0.1883
  150MOL0     C20143  11.121   3.449   9.133 -0.0527 -1.1913 -0.1732
  150MOL0     C20144  11.220   3.503   9.231  0.4434  0.4653  0.2547
  150MOL0     O20145  11.172   3.582   9.320 -0.3599  1.0749 -0.9614
  150MOL0     C20146  11.251   3.626   9.426  0.3364 -0.9555  0.1006
  150MOL0     C20147  11.385   3.675   9.416  0.1846 -0.0076 -0.0836
  150MOL0     C20148  11.460   3.711   9.533 -0.3247  0.1121 -0.2634
  150MOL0     C20149  11.411   3.672   9.653 -0.2364  0.6345 -1.0813
  150MOL0     O20150  11.473   3.692   9.778  0.2538 -0.8670  0.3870
  150MOL0     C20151  11.576   3.793   9.778 -1.1724 -1.0043 -0.7220
  150MOL0     C20152  11.613   3.827   9.919  0.6938  0.2461  0.6556
  150MOL0     C20153  11.703   3.723   9.973 -0.0984 -0.3902  0.2373
  150MOL0     C20154  11.753   3.746  10.121 -0.7126 -0.0683 -0.1721
  150MOL0     C20155  11.874   3.680  10.149 -0.5099 -0.8429 -0.0687
  150MOL0     C20156  11.994   3.745  10.076 -0.6768  0.2969 -0.3832
  150MOL0     C20157  12.118   3.653  10.088  0.1675  0.4668 -0.1025
  150MOL0     C20158  12.182   3.673  10.234  0.7911 -1.4049  0.5322
  150MOL0    Cl20159  12.352   3.642  10.237  0.3441 -0.5163  0.0949
  150MOL0     C20160  11.288   3.605   9.664 -0.7439  0.0812 -0.4225
  150MOL0     C20161  11.205   3.601   9.551  0.1669  0.1365 -0.1708
  150MOL0     O20162  11.336   3.467   9.226  0.0952  0.3742 -0.1172
  150MOL0     C20163  11.149   3.404   9.003 -0.2027 -0.5280 -0.0310
  150MOL0     C20164  11.061   3.357   8.909  0.5566  0.6019 -0.7659
  150MOL0     N20165  10.477   2.826   8.874  0.1664  0.5910 -0.4177
  150MOL0     N20166  10.364   2.826   8.936 -0.1490  0.6037 -0.2537
  150MOL0     C20167   9.128   2.937   9.347  0.6810  0.0649 -1.4095
  150MOL0     C20168   9.017   3.013   9.390  0.2798  0.0606  0.5177
  150MOL0     C20169   8.776   3.334   9.604  0.6863 -0.0773 -0.1667
  150MOL0     C20170   8.785   3.451   9.525 -0.0958  0.0782 -1.0592
  150MOL0     C20171   8.681   3.542   9.540  0.2226 -0.4304 -0.1693
  150MOL0     C20172   8.571   3.530   9.621 -0.1404  0.6041 -0.4880
  150MOL0     O20173   8.481   3.627   9.622 -0.1009  0.7053 -0.2782
  150MOL0     C20174   8.345   3.597   9.664 -1.1318 -0.2941 -0.3853
  150MOL0     C20175   8.285   3.742   9.689  0.9511  0.7032  0.5346
  150MOL0     C20176   8.325   3.804   9.822 -0.7125 -0.4360 -0.2744
  150MOL0     C20177   8.337   3.956   9.808 -0.7734  0.5727 -0.3038
  150MOL0     C20178   8.211   4.014   9.767  0.1242 -0.3102 -0.6121
  150MOL0     C20179   8.100   4.055   9.737  0.6390  0.4586 -0.6904
  150MOL0     C20180   8.576   3.415   9.704 -0.4112  0.0488 -0.9171
  150MOL0     C20181   8.669   3.317   9.694 -0.8292 -0.4570 -0.5452
  150MOL0     C20182   8.645   3.182   9.763  0.0016  0.5129 -0.6554
  150MOL0     H20183   9.208   3.296   9.475 -0.0288  1.2632 -2.3185
  150MOL0     H20184   9.386   3.138   9.409  0.3036 -2.7329  0.9065
  150MOL0     H20185   9.448   3.022   9.166 -1.1036 -0.2319  0.6231
  150MOL0     H20186   9.531   2.998   9.327 -0.0972  1.1004 -0.9067
  150MOL0     H20187   9.489   2.790   9.129 -0.8085  0.8478  0.2618
  150MOL0     H20188   9.590   2.780   9.275  0.8547  1.0723  1.0354
  150MOL0     H20189   9.764   2.912   9.155  0.9896 -2.1384 -1.1671
  150MOL0     H20190   9.653   3.004   9.059  3.0960  0.1250 -1.7199
  150MOL0     H20191   9.716   2.721   9.005 -0.2547 -0.0573  0.5511
  150MOL0     H20192   9.596   2.817   8.913 -0.0210  1.7354  0.3990
  150MOL0     H20193   9.814   2.818   8.785  1.2123 -2.3187  2.2327
  150MOL0     H20194   9.741   2.959   8.829  1.2791 -0.7114  0.1537
  150MOL0     H20195   9.882   3.009   9.011 -0.6085  1.3777 -3.0853
  150MOL0     H20196   9.935   2.851   9.036  0.4520  1.7782  0.1003
  150MOL0     H20197  10.034   3.014   8.799 -0.7290  0.3160  1.0181
  150MOL0     H20198  10.072   2.837   8.846 -1.8395 -1.3674  1.3872
  150MOL0     H20199  10.154   3.087   8.978 -1.9610  0.9889 -1.5673
  150MOL0     H20200  10.155   2.932   9.059 -1.9963 -0.4907 -0.7045
  150MOL0     H20201  10.319   3.085   8.747 -0.7353  0.1712  1.2439
  150MOL0     H20202  10.630   2.900   8.647  1.8076  0.1750 -1.1553
  150MOL0     H20203  10.520   3.042   8.603  0.6409 -0.5143  0.7320
  150MOL0     H20204  10.680   3.031   8.849  1.1354 -3.0469 -1.3638
  150MOL0     H20205  10.772   3.075   8.710  0.0278 -0.0301  0.4109
  150MOL0     H20206  10.518   3.218   8.791 -0.6968 -0.2187  0.3484
  150MOL0     H20207  10.639   3.279   8.675 -0.9452  0.6117  1.2820
  150MOL0     H20208  10.684   3.272   8.969  4.0651 -3.8630  0.1426
  150MOL0     H20209  10.703   3.404   8.838  0.5342 -0.6089 -2.3107
  150MOL0     H20210  10.792   3.382   9.117  0.4176  0.6544  1.0688
  150MOL0     H20211  10.955   3.476   9.266  2.3323 -1.6760  0.7940
  150MOL0     H20212  11.414   3.703   9.315  0.7620 -0.3737 -0.0215
  150MOL0     H20213  11.544   3.779   9.521 -0.9235  0.8799 -0.1596
  150MOL0     H20214  11.664   3.754   9.725 -0.3426 -0.4209  0.1968
  150MOL0     H20215  11.554   3.889   9.731  1.6503  0.1546  0.1210
  150MOL0     H20216  11.666   3.923   9.919  0.4596  0.4558 -2.1050
  150MOL0     H20217  11.519   3.839   9.974 -0.3997  0.5495 -1.1929
  150MOL0     H20218  11.643   3.632   9.980  1.1491 -1.3562 -1.0512
  150MOL0     H20219  11.782   3.698   9.901 -0.3000 -0.7147  0.1254
  150MOL0     H20220  11.678   3.732  10.199  1.0225  1.6010  1.9115
  150MOL0     H20221  11.776   3.853  10.118  2.8622 -0.6991 -3.5074
  150MOL0     H20222  11.866   3.578  10.110 -0.0025  0.0431 -2.6235
  150MOL0     H20223  11.894   3.678  10.257  2.6460  5.0707 -0.1591
  150MOL0     H20224  11.982   3.757   9.968  0.5194  1.8256 -0.3758
  150MOL0     H20225  12.012   3.842  10.121 -2.5892  1.1856 -1.4151
  150MOL0     H20226  12.188   3.701  10.018  1.2138  0.9396  1.2203
  150MOL0     H20227  12.105   3.549  10.057  4.6723 -0.8328  1.5408
  150MOL0     H20228  12.163   3.773  10.273 -2.0976 -0.7042 -2.2034
  150MOL0     H20229  12.127   3.611  10.306 -1.7556  0.8642  0.7080
  150MOL0     H20230  11.253   3.576   9.763 -0.8027  1.5851  0.0229
  150MOL0     H20231  11.103   3.568   9.571 -0.1679  0.6130 -1.0594
  150MOL0     H20232  11.253   3.406   8.970 -0.0555  1.9861  0.3698
  150MOL0     H20233  11.094   3.323   8.811  1.8877  0.1090 -0.1696
  150MOL0     H20234   9.100   2.837   9.316  0.4222  0.2166 -1.6741
  150MOL0     H20235   8.916   2.973   9.382  0.7282 -0.6890 -3.7273
  150MOL0     H20236   8.868   3.476   9.460  1.4712 -1.7120  0.1394
  150MOL0     H20237   8.676   3.626   9.471 -0.4063 -0.2571  0.0793
  150MOL0     H20238   8.319   3.535   9.750  0.6395  2.8736  2.6829
  150MOL0     H20239   8.297   3.558   9.573  3.7070 -0.3034 -3.2657
  150MOL0     H20240   8.176   3.733   9.685  1.0423 -0.0876 -2.8947
  150MOL0     H20241   8.315   3.808   9.607  2.1083 -2.0701 -1.3981
  150MOL0     H20242   8.419   3.759   9.853 -0.8359  0.7078  1.9082
  150MOL0     H20243   8.260   3.770   9.902  0.0669  1.3421  1.1833
  150MOL0     H20244   8.373   4.001   9.901  1.3649 -1.0694 -0.2661
  150MOL0     H20245   8.413   3.976   9.732  0.6813 -0.9545  0.6897
  150MOL0     H20246   8.004   4.097   9.716 -0.7348  1.8247  5.8822
  150MOL0     H20247   8.491   3.390   9.767 -0.2098  0.3087 -0.5397
  150MOL0     H20248   8.696   3.169   9.859  2.3737  1.6497 -1.6911
  150MOL0     H20249   8.538   3.170   9.782  0.5721 -2.4240  1.6807
  150MOL0     H20250   8.675   3.098   9.700  0.6253 -0.1126  0.4390
  151MOL0     O20251   7.283   1.814   1.378  0.3729 -0.6413  0.2453
  151MOL0     C20252   7.182   1.740   1.396  0.3147  1.1678 -0.5665
  151MOL0     O20253   7.179   1.628   1.481  0.3071  0.0706  0.2679
  151MOL0     C20254   7.293   1.614   1.554 -0.5873  0.0247 -0.2990
  151MOL0     C20255   7.388   1.528   1.500 -0.1325  0.0444  1.0829
  151MOL0     C20256   7.520   1.527   1.559 -0.0506  0.0237 -0.1475
  151MOL0     C20257   7.552   1.595   1.679 -0.3706 -0.0663 -0.1536
  151MOL0     O20258   7.673   1.600   1.745 -0.0894  0.1420 -0.4661
  151MOL0     C20259   7.793   1.608   1.668  0.4075 -0.0121 -0.2474
  151MOL0     C20260   7.844   1.465   1.647  1.1560 -0.3062 -0.7101
  151MOL0     C20261   7.964   1.426   1.734 -0.3126  0.6775 -0.1270
  151MOL0     C20262   7.933   1.451   1.883  0.3454  0.4039  0.0795
  151MOL0     C20263   8.059   1.484   1.970 -0.4390 -0.5284 -0.4316
  151MOL0     C20264   8.137   1.351   2.008  0.1344  0.6682 -0.2829
  151MOL0     C20265   8.234   1.364   2.128  0.1094  0.3013 -0.1535
  151MOL0     C20266   8.167   1.360   2.259  0.2399 -0.4990  0.3789
  151MOL0     N20267   8.263   1.378   2.368  0.7322  0.3718  0.0505
  151MOL0     C20268   8.342   1.277   2.410  0.2742 -0.0575 -0.2689
  151MOL0     C20269   8.403   1.338   2.516  0.5242  0.7896 -0.6871
  151MOL0     C20270   8.461   1.272   2.634  0.0807  0.5346 -0.6594
  151MOL0     C20271   8.596   1.329   2.681  1.1331  0.2932  0.2356
  151MOL0     C20272   8.616   1.289   2.820 -0.1872 -0.4550 -0.8167
  151MOL0     C20273   8.749   1.341   2.884 -0.1748  0.9003 -0.2672
  151MOL0     O20274   8.862   1.312   2.802  0.5085 -0.0648 -0.2328
  151MOL0     C20275   8.992   1.284   2.853  0.7067  0.2318  0.4810
  151MOL0     C20276   9.017   1.300   2.990 -0.4384 -0.9643  0.3644
  151MOL0     C20277   9.149   1.279   3.035  0.4968 -0.7346  0.0852
  151MOL0     C20278   9.254   1.249   2.944 -0.3897  0.9759  0.4735
  151MOL0     C20279   9.399   1.242   2.981  0.0042  0.5890 -0.2853
  151MOL0     O20280   9.492   1.182   2.898 -0.0792 -0.0319  0.3956
  151MOL0     C20281   9.634   1.178   2.908  0.3577  0.0222  0.3016
  151MOL0     C20282   9.697   1.123   2.792  0.1009  0.9184 -0.1540
  151MOL0     C20283   9.837   1.130   2.783  0.4045  0.9013  0.1401
  151MOL0     C20284   9.916   1.175   2.891  0.8801 -0.3830 -0.0313
  151MOL0     O20285  10.057   1.185   2.890 -0.3213 -0.6308 -0.1056
  151MOL0     C20286  10.128   1.115   2.791  0.1038  0.6337  0.6781
  151MOL0     C20287  10.124   0.964   2.809  0.0147 -0.4137  0.1868
  151MOL0     C20288  10.272   0.907   2.803  0.3600  0.3304  0.2425
  151MOL0     C20289  10.275   0.759   2.818 -1.2243  0.1132  0.3868
  151MOL0     C20290  10.423   0.711   2.818  0.5816 -0.6631  0.8737
  151MOL0     C20291  10.437   0.558   2.815  0.2858 -0.8244 -0.5670
  151MOL0     C20292  10.584   0.513   2.828  0.6437 -0.6258  0.1291
  151MOL0     C20293  10.668   0.553   2.952  0.2219 -0.1850  0.0535
  151MOL0    Cl20294  10.829   0.468   2.947  0.2688 -0.4655 -0.0828
  151MOL0     C20295   9.859   1.245   2.992 -0.0592  0.1968  0.0279
  151MOL0     C20296   9.717   1.241   3.001  0.2962  0.5822 -0.1403
  151MOL0     O20297   9.425   1.304   3.081  0.3403  0.1658 -0.3418
  151MOL0     C20298   9.224   1.236   2.810 -0.7258 -0.3572  0.1899
  151MOL0     C20299   9.090   1.252   2.769 -0.2453 -0.3997  0.9153
  151MOL0     N20300   8.363   1.474   2.510 -0.2130  0.0262  0.4529
  151MOL0     N20301   8.291   1.502   2.415 -0.0774 -0.5697 -0.0234
  151MOL0     C20302   7.456   1.677   1.729  0.6770  0.2800 -0.5014
  151MOL0     C20303   7.327   1.689   1.675 -0.8074 -0.0133  0.3698
  151MOL0     C20304   7.059   1.764   1.309  0.6119 -0.0420 -0.6986
  151MOL0     C20305   6.986   1.650   1.266 -0.1608 -0.2084  0.8929
  151MOL0     C20306   6.900   1.665   1.154 -0.3520 -0.1816 -0.1410
  151MOL0     C20307   6.884   1.786   1.096 -0.1749 -0.5471  0.5580
  151MOL0     O20308   6.796   1.785   0.985  0.2975  0.5660  0.2859
  151MOL0     C20309   6.722   1.907   0.948  0.4797  0.4296  0.1020
  151MOL0     C20310   6.611   1.855   0.860 -0.6876  1.0253 -0.2546
  151MOL0     C20311   6.540   1.979   0.800  0.3133  0.0276  0.4377
  151MOL0     C20312   6.416   2.015   0.878 -0.0322  0.1506 -0.3212
  151MOL0     C20313   6.318   1.909   0.852 -0.3479  0.4052 -0.0056
  151MOL0     C20314   6.234   1.822   0.818 -0.4809 -0.1497 -0.8434
  151MOL0     C20315   6.946   1.902   1.142  0.4414 -0.8854  0.0015
  151MOL0     C20316   7.037   1.895   1.252 -0.1875  0.0135 -0.3608
  151MOL0     C20317   7.101   2.026   1.302  0.2670  0.2866  0.7935
  151MOL0     H20318   7.364   1.462   1.417 -4.3098  0.1330  1.9914
  151MOL0     H20319   7.600   1.482   1.501 -0.8378  1.0193 -2.0940
  151MOL0     H20320   7.775   1.649   1.568  2.6095  2.1852  0.1493
  151MOL0     H20321   7.866   1.674   1.716  0.2345 -1.1850  1.7111
  151MOL0     H20322   7.865   1.458   1.540 -0.1354 -0.8177 -0.9397
  151MOL0     H20323   7.765   1.392   1.664  2.8726 -1.7920  1.4558
  151MOL0     H20324   8.057   1.479   1.708  1.7351 -2.3471  0.4392
  151MOL0     H20325   7.995   1.322   1.720  0.3431  0.5676  1.8454
  151MOL0     H20326   7.861   1.534   1.885  0.0474  0.1655 -0.4256
  151MOL0     H20327   7.876   1.364   1.917  0.6469 -0.8118 -2.3334
  151MOL0     H20328   8.121   1.551   1.910 -0.8107  0.8063  0.6194
  151MOL0     H20329   8.037   1.541   2.061 -0.6862  0.6027 -1.1872
  151MOL0     H20330   8.059   1.281   2.038 -0.6994  2.2768  1.5062
  151MOL0     H20331   8.185   1.318   1.915 -2.1419 -0.3966 -1.1405
  151MOL0     H20332   8.296   1.454   2.134 -1.8776  1.6535  1.6993
  151MOL0     H20333   8.307   1.282   2.119  0.1360  0.4010 -0.8858
  151MOL0     H20334   8.092   1.440   2.253  0.1260 -0.7056 -2.5780
  151MOL0     H20335   8.115   1.264   2.263 -0.2950 -0.1725  2.2088
  151MOL0     H20336   8.331   1.170   2.395 -0.5779  0.0146 -0.1962
  151MOL0     H20337   8.387   1.266   2.715 -0.0075 -2.0424 -0.8465
  151MOL0     H20338   8.490   1.171   2.604  2.0540  0.0545  2.4367
  151MOL0     H20339   8.673   1.278   2.624 -0.4129 -1.7778 -0.0993
  151MOL0     H20340   8.603   1.438   2.673  0.0704  0.4136  0.7595
  151MOL0     H20341   8.619   1.179   2.817  1.9030 -0.3942 -2.3785
  151MOL0     H20342   8.551   1.335   2.896  0.9082  0.6824 -0.5428
  151MOL0     H20343   8.767   1.279   2.972 -2.0715 -1.1338 -1.2051
  151MOL0     H20344   8.744   1.447   2.910 -0.4416  1.7361 -3.2912
  151MOL0     H20345   8.938   1.341   3.053  1.8537  2.1255  1.4465
  151MOL0     H20346   9.172   1.309   3.137 -0.9431  0.8352 -0.0101
  151MOL0     H20347   9.634   1.081   2.715  0.0246 -1.8660  1.3097
  151MOL0     H20348   9.884   1.076   2.702 -0.2163  1.1479 -0.3970
  151MOL0     H20349  10.092   1.132   2.689  0.7564 -1.3450  0.0738
  151MOL0     H20350  10.231   1.149   2.788  0.4385 -0.2278  1.6454
  151MOL0     H20351  10.076   0.947   2.906 -0.0147  1.6761  0.5889
  151MOL0     H20352  10.052   0.910   2.747  0.2195 -1.9674  1.2453
  151MOL0     H20353  10.320   0.934   2.708  2.9290  1.0445  1.6501
  151MOL0     H20354  10.335   0.949   2.882 -0.5062  2.3048 -0.0330
  151MOL0     H20355  10.220   0.718   2.733 -0.5773  1.2015 -0.5797
  151MOL0     H20356  10.217   0.738   2.908 -2.2884  3.8217  0.7427
  151MOL0     H20357  10.491   0.766   2.884 -0.0050  1.3589 -0.1087
  151MOL0     H20358  10.464   0.739   2.720 -2.4841 -0.9271 -0.6223
  151MOL0     H20359  10.383   0.503   2.892  2.4772 -1.2243  0.7708
  151MOL0     H20360  10.403   0.523   2.717 -1.7701 -2.6231  0.6956
  151MOL0     H20361  10.648   0.557   2.751  0.7424 -0.1787  0.4599
  151MOL0     H20362  10.593   0.404   2.822 -2.4115 -1.2292  3.4194
  151MOL0     H20363  10.683   0.661   2.943  4.1115 -0.7671 -3.7658
  151MOL0     H20364  10.612   0.532   3.044  0.0604 -0.7119 -0.1646
  151MOL0     H20365   9.918   1.301   3.064  1.4215 -1.0254 -0.1706
  151MOL0     H20366   9.673   1.266   3.097  0.9688 -1.7642  0.8539
  151MOL0     H20367   9.305   1.216   2.741 -0.0865 -0.9960  1.0896
  151MOL0     H20368   9.063   1.249   2.664  2.2304 -1.2250  0.2306
  151MOL0     H20369   7.479   1.728   1.822  0.4764 -0.9119  0.2179
  151MOL0     H20370   7.256   1.745   1.734 -2.0368 -1.7020  0.5662
  151MOL0     H20371   7.017   1.551   1.299 -0.7889 -0.5045  0.6041
  151MOL0     H20372   6.855   1.578   1.107 -2.9008  0.1583  1.4957
  151MOL0     H20373   6.783   1.976   0.891 -2.0830 -0.7218 -4.5179
  151MOL0     H20374   6.687   1.955   1.040 -0.7480 -0.7628  0.3004
  151MOL0     H20375   6.549   1.789   0.922  3.3997 -0.2189  2.9122
  151MOL0     H20376   6.640   1.801   0.770 -1.3475 -0.0601  0.1561
  151MOL0     H20377   6.512   1.959   0.696  0.1106  0.8294  0.3330
  151MOL0     H20378   6.610   2.063   0.793  0.1910  0.0693 -0.4030
  151MOL0     H20379   6.437   2.021   0.985 -3.3597  2.2001  0.3629
  151MOL0     H20380   6.378   2.110   0.840  0.3661  1.6733  2.8129
  151MOL0     H20381   6.169   1.742   0.789 -0.2375 -0.3533 -0.8299
  151MOL0     H20382   6.922   1.998   1.099  1.3172 -0.3766  0.5935
  151MOL0     H20383   7.100   2.031   1.412  1.7366 -1.8431  0.9596
  151MOL0     H20384   7.202   2.042   1.263  1.0494 -0.7127  2.3054
  151MOL0     H20385   7.031   2.102   1.265  1.9270  1.0201 -1.0365
  152MOL0     O20386   9.753  10.099   5.861 -0.3219 -0.9259 -0.2255
  152MOL0     C20387   9.738  10.224   5.864  0.6452  0.2475  0.1054
  152MOL0     O20388   9.833  10.319   5.892  0.1383 -0.1668  0.5250
  152MOL0     C20389   9.961  10.305   5.852 -0.1701  0.4113  0.3960
  152MOL0     C20390  10.020  10.198   5.784  0.4857  0.7007 -1.2762
  152MOL0     C20391  10.157  10.182   5.778 -0.4994 -0.3376  0.0040
  152MOL0     C20392  10.240  10.288   5.809 -0.1566  0.1487  0.5586
  152MOL0     O20393  10.372  10.263   5.789 -0.2639 -0.2435  0.8216
  152MOL0     C20394  10.460  10.371   5.831 -0.0985  0.2102 -0.3591
  152MOL0     C20395  10.606  10.328   5.801  0.5955 -0.0481 -0.4093
  152MOL0     C20396  10.648  10.189   5.859  1.0955  0.0844  0.4241
  152MOL0     C20397  10.793  10.153   5.824  0.4561 -0.2659 -0.1561
  152MOL0     C20398  10.902  10.231   5.906  0.0605 -0.8366  0.1600
  152MOL0     C20399  11.035  10.236   5.829 -0.2822  0.8953 -0.0017
  152MOL0     C20400  11.039  10.313   5.691  0.1069 -0.4021  0.8428
  152MOL0     C20401  10.997  10.455   5.694  0.3502  0.4651  0.4452
  152MOL0     N20402  11.061  10.534   5.800 -0.1619  0.0050  0.7063
  152MOL0     C20403  11.191  10.570   5.764 -0.0732 -0.9980 -0.1582
  152MOL0     C20404  11.241  10.618   5.884  0.4744  0.9712 -0.0793
  152MOL0     C20405  11.381  10.675   5.895  0.5759  0.0756  0.2980
  152MOL0     C20406  11.478  10.553   5.918  0.3198 -0.2299 -0.3833
  152MOL0     C20407  11.549  10.524   5.782  0.4141 -0.0673 -0.1959
  152MOL0     C20408  11.632  10.638   5.712  0.6887  1.0605 -0.1578
  152MOL0     O20409  11.671  10.724   5.816 -0.7845 -0.0583 -0.7540
  152MOL0     C20410  11.796  10.697   5.883 -0.5129 -0.8062 -0.2224
  152MOL0     C20411  11.796  10.705   6.019  0.3533 -0.0589 -0.0719
  152MOL0     C20412  11.918  10.687   6.088  0.4136 -0.7796  0.0292
  152MOL0     C20413  12.039  10.665   6.022 -0.0754 -0.9702 -0.6021
  152MOL0     C20414  12.177  10.666   6.088 -0.8544  0.0202 -0.5573
  152MOL0     O20415  12.197  10.739   6.203 -0.4191  0.2000  0.0533
  152MOL0     C20416  12.324  10.740   6.267 -0.3090 -0.5254  0.8448
  152MOL0     C20417  12.444  10.773   6.207  1.2195  0.0214 -0.0801
  152MOL0     C20418  12.554  10.802   6.285 -0.6117 -0.5467 -0.5508
  152MOL0     C20419  12.562  10.781   6.423  0.7079  0.5953  0.4805
  152MOL0     O20420  12.667  10.814   6.502 -0.6238 -0.2337 -0.2751
  152MOL0     C20421  12.791  10.870   6.439  0.2679 -0.4498 -0.0205
  152MOL0     C20422  12.895  10.873   6.543 -0.1827 -0.1936  0.7565
  152MOL0     C20423  13.025  10.926   6.496 -0.3285 -0.7632 -0.0483
  152MOL0     C20424  13.137  10.893   6.601 -0.3671  0.6720  0.0658
  152MOL0     C20425  13.275  10.931   6.539 -0.1614  0.9402  0.3803
  152MOL0     C20426  13.387  10.872   6.622 -0.7262  0.2766 -0.6300
  152MOL0     C20427  13.521  10.945   6.599 -0.5059 -0.1604  0.1379
  152MOL0     C20428  13.636  10.873   6.676  0.0893 -0.5895 -0.1073
  152MOL0    Cl20429  13.711  10.734   6.579  0.4740 -0.2877 -0.3457
  152MOL0     C20430  12.445  10.739   6.485  0.6190 -0.8681 -0.2508
  152MOL0     C20431  12.324  10.728   6.411  0.1299 -0.0751  1.4147
  152MOL0     O20432  12.269  10.611   6.032  0.1452 -0.3849 -0.3897
  152MOL0     C20433  12.035  10.648   5.878  0.7796  0.3199  0.5503
  152MOL0     C20434  11.912  10.661   5.811  0.2260 -0.7561 -0.3902
  152MOL0     N20435  11.145  10.604   5.983  0.0480  0.1185  0.1846
  152MOL0     N20436  11.032  10.569   5.933  0.1717  0.0048  0.2897
  152MOL0     C20437  10.177  10.388   5.880 -0.2053 -0.5277  0.7304
  152MOL0     C20438  10.041  10.410   5.898  0.2731  0.0871 -0.6213
  152MOL0     C20439   9.592  10.267   5.836 -1.0366 -0.8481  0.1355
  152MOL0     C20440   9.486  10.187   5.871  0.0597 -0.0260  0.0331
  152MOL0     C20441   9.349  10.214   5.846 -0.1480  0.4324  1.0475
  152MOL0     C20442   9.321  10.335   5.782  0.2333  0.5041  0.3433
  152MOL0     O20443   9.195  10.370   5.747 -0.2511 -0.0789 -0.0516
  152MOL0     C20444   9.081  10.296   5.792  0.6987 -0.1184  0.4457
  152MOL0     C20445   9.049  10.162   5.718  0.6251 -1.1650 -0.3926
  152MOL0     C20446   8.937  10.079   5.781 -0.4132 -0.8290  0.6505
  152MOL0     C20447   8.805  10.149   5.807 -0.4306 -0.6483  0.1437
  152MOL0     C20448   8.734  10.198   5.689  0.1972 -1.0550 -0.6523
  152MOL0     C20449   8.684  10.248   5.585 -0.9978  0.0659 -0.0264
  152MOL0     C20450   9.433  10.418   5.739 -0.1227  0.1228 -0.1523
  152MOL0     C20451   9.562  10.391   5.778 -0.4026 -0.4653  0.1126
  152MOL0     C20452   9.667  10.491   5.715 -0.4420  0.0796 -0.3706
  152MOL0     H20453   9.955  10.116   5.753  0.4189  0.5906 -0.8523
  152MOL0     H20454  10.200  10.089   5.743  2.3190 -0.3515  3.0316
  152MOL0     H20455  10.433  10.460   5.774 -0.0203 -1.8923 -4.0057
  152MOL0     H20456  10.462  10.393   5.938  0.2019 -2.0324  0.1647
  152MOL0     H20457  10.678  10.404   5.833  0.6018 -0.0081 -0.5186
  152MOL0     H20458  10.610  10.324   5.691  2.8004  2.9809 -0.5747
  152MOL0     H20459  10.590  10.113   5.805  0.7433  2.2180 -2.4912
  152MOL0     H20460  10.627  10.181   5.966  0.5434  0.6484  0.3633
  152MOL0     H20461  10.808  10.048   5.851 -1.9898 -0.3853  0.9834
  152MOL0     H20462  10.819  10.160   5.718  1.7627 -1.1174  0.0828
  152MOL0     H20463  10.864  10.329   5.935  0.8993  0.3644 -2.4797
  152MOL0     H20464  10.917  10.178   6.001 -1.5418 -1.0216  0.3327
  152MOL0     H20465  11.114  10.282   5.890  0.3312 -2.2563  1.7836
  152MOL0     H20466  11.074  10.135   5.813  0.8014  1.0930  1.2195
  152MOL0     H20467  10.981  10.264   5.613 -0.0341  0.9128  0.0891
  152MOL0     H20468  11.142  10.307   5.653  0.4156  0.5942  1.4912
  152MOL0     H20469  11.008  10.498   5.594 -0.5489  0.7604  0.4638
  152MOL0     H20470  10.890  10.458   5.717  0.0172  3.2713 -0.9910
  152MOL0     H20471  11.238  10.558   5.667  1.0216  3.3154 -0.3666
  152MOL0     H20472  11.408  10.736   5.809 -3.0806  2.8223  0.8482
  152MOL0     H20473  11.387  10.750   5.974  1.3606  2.6255 -2.0523
  152MOL0     H20474  11.560  10.574   5.988 -1.7614  1.0340  1.8577
  152MOL0     H20475  11.423  10.470   5.962 -2.4458  0.5061 -2.2089
  152MOL0     H20476  11.475  10.497   5.707  1.3409  0.3327 -1.2981
  152MOL0     H20477  11.604  10.430   5.790 -3.5586 -2.5376  0.6622
  152MOL0     H20478  11.571  10.705   5.650  1.6034  1.4491 -0.6660
  152MOL0     H20479  11.707  10.593   5.647 -0.6794  1.1867 -1.9095
  152MOL0     H20480  11.707  10.729   6.077 -0.7620 -0.7432 -1.4505
  152MOL0     H20481  11.909  10.690   6.196 -2.2841 -2.2737 -0.0597
  152MOL0     H20482  12.445  10.779   6.099  1.0470 -1.5405 -0.1899
  152MOL0     H20483  12.645  10.810   6.226 -0.5189  0.1873 -0.3106
  152MOL0     H20484  12.828  10.808   6.356  1.8285  2.3234 -1.5732
  152MOL0     H20485  12.771  10.971   6.402 -0.6999  0.4499  2.7607
  152MOL0     H20486  12.867  10.930   6.632  0.1559 -0.3477  0.9622
  152MOL0     H20487  12.910  10.769   6.574 -0.0977 -0.1786  0.7653
  152MOL0     H20488  13.046  10.885   6.396 -2.1308 -2.8056  0.3328
  152MOL0     H20489  13.024  11.035   6.495  3.8638 -0.5308  1.2228
  152MOL0     H20490  13.155  10.788   6.621  0.4304 -0.0154 -3.4840
  152MOL0     H20491  13.129  10.951   6.693  0.6799  2.3421 -0.8382
  152MOL0     H20492  13.290  11.039   6.540 -1.6902  1.2148 -1.2821
  152MOL0     H20493  13.288  10.889   6.438  1.3844  0.1730  0.8631
  152MOL0     H20494  13.357  10.885   6.726 -0.3381  0.0429 -0.4882
  152MOL0     H20495  13.411  10.771   6.588  3.5927  0.2665  1.7012
  152MOL0     H20496  13.518  11.042   6.648  0.3468 -0.4857  0.8851
  152MOL0     H20497  13.550  10.953   6.494  1.3141  1.2700  0.6912
  152MOL0     H20498  13.713  10.950   6.687 -2.7721  2.2869  1.9575
  152MOL0     H20499  13.606  10.837   6.775  3.5506  2.2194  2.2140
  152MOL0     H20500  12.436  10.721   6.592 -1.7627 -2.4150 -0.6427
  152MOL0     H20501  12.234  10.698   6.464 -1.5273 -2.0888 -2.1992
  152MOL0     H20502  12.117  10.630   5.809  1.9637 -2.3170  2.4636
  152MOL0     H20503  11.898  10.654   5.704 -0.1054 -0.1284 -0.3938
  152MOL0     H20504  10.251  10.454   5.925  3.2985 -2.4573 -1.7078
  152MOL0     H20505   9.997  10.489   5.958  2.8558 -0.3143  2.0763
  152MOL0     H20506   9.512  10.093   5.919 -0.3711  1.0004  2.4041
  152MOL0     H20507   9.272  10.146   5.880 -0.2864 -1.5294 -2.7074
  152MOL0     H20508   9.000  10.367   5.773  1.5251  0.1465 -2.8036
  152MOL0     H20509   9.096  10.264   5.895  2.2879 -0.9371  0.0063
  152MOL0     H20510   9.141  10.104   5.720  0.5569 -1.2536  0.8481
  152MOL0     H20511   9.025  10.178   5.612 -1.4034 -1.5356 -0.0342
  152MOL0     H20512   8.965  10.043   5.880  0.5821  4.4882  2.6555
  152MOL0     H20513   8.925   9.997   5.711 -3.4428 -2.9963  3.3965
  152MOL0     H20514   8.734  10.086   5.861  1.3601 -3.1812 -0.2750
  152MOL0     H20515   8.837  10.224   5.881  1.8614 -3.4565  2.2128
  152MOL0     H20516   8.635  10.291   5.500 -2.9474  0.8871  1.4490
  152MOL0     H20517   9.409  10.513   5.693  1.3216  0.3867 -0.4083
  152MOL0     H20518   9.710  10.539   5.804  0.9468 -1.6248 -0.0710
  152MOL0     H20519   9.748  10.436   5.667  1.1145  1.2855  0.7496
  152MOL0     H20520   9.624  10.557   5.639 -3.4094 -1.6975 -0.3917
  153MOL0     O20521   7.116   8.190  11.059  0.6888  0.2303 -0.1034
  153MOL0     C20522   7.216   8.240  11.113 -0.4863 -1.0884  0.0207
  153MOL0     O20523   7.230   8.374  11.135 -0.5723  0.3388 -0.1497
  153MOL0     C20524   7.114   8.453  11.150 -0.2699  1.0766 -0.6115
  153MOL0     C20525   7.094   8.527  11.269 -0.4915  0.3733  0.6509
  153MOL0     C20526   6.978   8.609  11.309  0.1554 -0.2114  0.3805
  153MOL0     C20527   6.877   8.621  11.207 -0.0911 -0.0353 -0.1788
  153MOL0     O20528   6.778   8.720  11.209  0.7861 -0.8255  1.1760
  153MOL0     C20529   6.759   8.804  11.327 -0.0967  0.2196 -0.6218
  153MOL0     C20530   6.604   8.829  11.354  0.5328  0.1795  0.4687
  153MOL0     C20531   6.549   8.925  11.251 -0.1701 -0.6686  0.3722
  153MOL0     C20532   6.401   8.948  11.286  0.2851  0.0564  0.6837
  153MOL0     C20533   6.329   9.000  11.155 -0.5859  0.0821 -0.3089
  153MOL0     C20534   6.204   9.088  11.165  0.0964 -0.3290 -0.1223
  153MOL0     C20535   6.133   9.090  11.025  0.2802 -0.2844  0.5156
  153MOL0     C20536   6.014   9.184  11.042 -0.2364 -0.3113  0.5462
  153MOL0     N20537   6.046   9.327  11.024  0.1706  0.3836  0.4322
  153MOL0     C20538   6.126   9.373  10.923  0.0068 -0.3035 -0.3114
  153MOL0     C20539   6.143   9.501  10.947  0.1682  0.3213  0.2054
  153MOL0     C20540   6.216   9.601  10.862 -0.2211  0.0212  0.2207
  153MOL0     C20541   6.293   9.547  10.736  0.5108  0.1242 -0.2932
  153MOL0     C20542   6.418   9.471  10.780 -0.3083  0.4673  0.4148
  153MOL0     C20543   6.532   9.462  10.680 -0.2282 -0.6012  0.1255
  153MOL0     O20544   6.537   9.583  10.621 -0.3617 -0.3759 -0.0486
  153MOL0     C20545   6.527   9.599  10.482  0.0703 -0.4925 -0.6244
  153MOL0     C20546   6.581   9.503  10.389  0.0022 -0.9285  0.7335
  153MOL0     C20547   6.592   9.529  10.249 -0.5696  0.3788 -0.0782
  153MOL0     C20548   6.529   9.640  10.204 -0.4566  0.1414 -0.7897
  153MOL0     C20549   6.511   9.654  10.061  0.0224  1.2301  0.7306
  153MOL0     O20550   6.557   9.552   9.991  0.4657 -0.1972  0.2635
  153MOL0     C20551   6.536   9.562   9.858  1.0139  0.5542  0.5365
  153MOL0     C20552   6.407   9.520   9.797  0.0514  0.5897  1.0675
  153MOL0     C20553   6.407   9.488   9.658  1.2033 -0.5543  0.1853
  153MOL0     C20554   6.510   9.526   9.572  0.3473  0.0396 -0.9257
  153MOL0     O20555   6.493   9.490   9.443 -1.0012  0.5867  0.1664
  153MOL0     C20556   6.596   9.516   9.343 -0.1889 -0.2962  0.4605
  153MOL0     C20557   6.578   9.410   9.228 -0.0312  0.3921  0.0555
  153MOL0     C20558   6.449   9.440   9.153 -0.4966  0.3381 -0.2022
  153MOL0     C20559   6.322   9.371   9.204  0.2947  0.1678  0.7064
  153MOL0     C20560   6.197   9.410   9.110 -0.2331 -0.2851 -0.0475
  153MOL0     C20561   6.200   9.372   8.958  0.0585 -1.1937  0.1712
  153MOL0     C20562   6.066   9.370   8.890  0.0301 -0.3731 -0.2297
  153MOL0     C20563   6.012   9.518   8.883 -0.0192  0.7239 -0.1530
  153MOL0    Cl20564   5.850   9.522   8.801 -0.1700 -0.2883 -0.1634
  153MOL0     C20565   6.631   9.577   9.630  0.9415  0.1452  0.5648
  153MOL0     C20566   6.643   9.594   9.774  0.2783 -0.0816 -0.6566
  153MOL0     O20567   6.453   9.758  10.015 -0.8006  0.7506 -0.0991
  153MOL0     C20568   6.476   9.734  10.294  0.2693  0.2522 -0.3364
  153MOL0     C20569   6.489   9.720  10.432  0.8632  0.9320  0.8510
  153MOL0     N20570   6.075   9.533  11.065  0.6789  0.0270  0.2454
  153MOL0     N20571   6.024   9.426  11.113 -0.1111  0.3421 -0.2305
  153MOL0     C20572   6.897   8.558  11.079 -0.9762 -0.2832 -0.8684
  153MOL0     C20573   7.011   8.470  11.062 -0.2783  0.2294 -0.6078
  153MOL0     C20574   7.336   8.164  11.126 -0.4488  0.7585 -0.1081
  153MOL0     C20575   7.416   8.200  11.235 -0.4928 -0.9402  0.2803
  153MOL0     C20576   7.537   8.130  11.258  0.8318 -0.6076  0.1299
  153MOL0     C20577   7.578   8.023  11.188  0.3338  0.8444 -0.5949
  153MOL0     O20578   7.683   7.938  11.215 -0.3773 -0.6011 -0.4397
  153MOL0     C20579   7.750   7.936  11.342  0.9041  0.6718  1.6465
  153MOL0     C20580   7.871   7.840  11.345  0.0918  0.3260 -0.5274
  153MOL0     C20581   7.979   7.869  11.243 -0.1685  0.4697 -1.3497
  153MOL0     C20582   8.026   8.018  11.258 -0.6269  0.8318  0.2162
  153MOL0     C20583   8.176   8.019  11.234  0.2368  0.2727  0.1957
  153MOL0     C20584   8.296   8.023  11.226  0.0613  0.3825  0.0381
  153MOL0     C20585   7.500   7.979  11.078  0.4760 -0.6766  0.0857
  153MOL0     C20586   7.375   8.052  11.048 -0.1903  1.4123 -0.0044
  153MOL0     C20587   7.288   8.022  10.930 -0.8196 -0.7073 -0.3532
  153MOL0     H20588   7.185   8.533  11.327 -0.4962 -0.8903  0.8013
  153MOL0     H20589   6.975   8.672  11.397 -1.3780 -0.0619  0.2628
  153MOL0     H20590   6.795   8.759  11.420  2.2526  2.2044 -0.4848
  153MOL0     H20591   6.815   8.896  11.311 -0.7724  0.2102 -3.6790
  153MOL0     H20592   6.590   8.879  11.450 -0.1634  0.8434  0.0280
  153MOL0     H20593   6.545   8.737  11.345  1.7596 -0.5036 -1.1712
  153MOL0     H20594   6.548   8.878  11.153  1.2685  0.3330 -0.1564
  153MOL0     H20595   6.610   9.016  11.255 -0.1939 -0.6818  2.7574
  153MOL0     H20596   6.354   8.851  11.307  1.8069 -1.1946 -1.2679
  153MOL0     H20597   6.389   9.016  11.370 -1.4924  0.0441  0.4819
  153MOL0     H20598   6.400   9.051  11.089  1.4131 -1.8150  0.2237
  153MOL0     H20599   6.305   8.907  11.103  0.5538 -1.1811  1.3156
  153MOL0     H20600   6.127   9.059  11.237 -0.0395  4.2982  1.9195
  153MOL0     H20601   6.234   9.187  11.200 -0.8138 -0.0774 -0.0196
  153MOL0     H20602   6.080   8.997  11.004  0.2106 -0.8909  3.1020
  153MOL0     H20603   6.202   9.123  10.946 -0.3238 -1.1510 -0.4063
  153MOL0     H20604   5.936   9.149  10.974 -0.5750 -1.5142  1.5125
  153MOL0     H20605   5.971   9.172  11.142  1.6475 -0.1993  1.4198
  153MOL0     H20606   6.153   9.316  10.834 -1.1144 -0.6681 -0.4442
  153MOL0     H20607   6.141   9.673  10.830  0.8274  0.0049 -2.5515
  153MOL0     H20608   6.284   9.652  10.931  1.2827 -2.2672  0.5703
  153MOL0     H20609   6.226   9.489  10.672  3.3182 -0.6194 -2.8150
  153MOL0     H20610   6.328   9.633  10.678 -0.2918 -0.2081 -1.2940
  153MOL0     H20611   6.392   9.368  10.807  0.5087  0.4658  1.2534
  153MOL0     H20612   6.464   9.504  10.874 -2.7930 -1.8461  2.6338
  153MOL0     H20613   6.504   9.386  10.606  1.2534 -1.7476  0.6825
  153MOL0     H20614   6.626   9.435  10.729  1.1090 -0.1657 -2.0445
  153MOL0     H20615   6.652   9.430  10.427  0.5647 -0.2612  0.9896
  153MOL0     H20616   6.635   9.447  10.192  0.3200 -1.5138  3.0799
  153MOL0     H20617   6.320   9.491   9.855 -0.3850  0.2998  0.2805
  153MOL0     H20618   6.317   9.437   9.626 -0.0834 -0.6315  3.4695
  153MOL0     H20619   6.588   9.616   9.301  1.0372  0.1190  1.1383
  153MOL0     H20620   6.698   9.497   9.378 -0.1559  2.9187  2.6072
  153MOL0     H20621   6.662   9.404   9.158 -1.0639 -2.0938 -1.0785
  153MOL0     H20622   6.576   9.307   9.262  0.5592  0.0512 -0.8962
  153MOL0     H20623   6.431   9.547   9.147 -0.0274  0.3513 -1.7870
  153MOL0     H20624   6.462   9.403   9.051  1.0983 -0.4781  0.2706
  153MOL0     H20625   6.307   9.402   9.308 -2.1574 -1.8697  1.0592
  153MOL0     H20626   6.347   9.265   9.206 -0.5137 -0.2356 -3.1174
  153MOL0     H20627   6.160   9.512   9.121  0.5414  0.1289 -1.0928
  153MOL0     H20628   6.109   9.360   9.150 -0.0278 -3.4700 -3.0794
  153MOL0     H20629   6.273   9.436   8.907 -1.1183  1.2712  1.4186
  153MOL0     H20630   6.248   9.275   8.946  1.4967 -0.9098  2.8978
  153MOL0     H20631   6.004   9.310   8.957 -1.8068  1.5058 -0.1498
  153MOL0     H20632   6.074   9.325   8.791 -0.1187  0.2968 -0.5524
  153MOL0     H20633   5.990   9.549   8.986  0.7378 -0.7172  0.4805
  153MOL0     H20634   6.076   9.595   8.840 -0.0651  1.0955  0.4293
  153MOL0     H20635   6.712   9.593   9.560  0.0748 -1.4335 -0.8985
  153MOL0     H20636   6.731   9.642   9.817  0.3571  1.1750 -2.1552
  153MOL0     H20637   6.424   9.822  10.257 -0.9972 -0.8147 -1.1603
  153MOL0     H20638   6.460   9.802  10.497  2.0978  0.5617  1.9205
  153MOL0     H20639   6.826   8.562  10.997 -0.8348  0.6215 -0.9556
  153MOL0     H20640   7.022   8.413  10.970 -1.5147 -1.5026  0.2698
  153MOL0     H20641   7.396   8.292  11.289  1.8846 -1.1580  1.6908
  153MOL0     H20642   7.604   8.165  11.336  2.3568 -0.4078 -1.2130
  153MOL0     H20643   7.678   7.909  11.419 -1.0822  1.6366  0.2216
  153MOL0     H20644   7.785   8.036  11.369  0.9401  0.4052  2.6205
  153MOL0     H20645   7.836   7.739  11.321 -2.4865  0.7825  1.0044
  153MOL0     H20646   7.916   7.845  11.444 -1.0401  1.5843 -0.0507
  153MOL0     H20647   7.956   7.864  11.136  0.2392 -0.9473 -1.3849
  153MOL0     H20648   8.062   7.808  11.280  1.1314  4.7209  3.9897
  153MOL0     H20649   7.969   8.069  11.180  1.9586 -0.3053 -2.6375
  153MOL0     H20650   8.001   8.065  11.353  1.9754  0.7014  1.0557
  153MOL0     H20651   8.402   8.018  11.237  0.0140 -0.3979  0.2317
  153MOL0     H20652   7.538   7.907  11.005 -1.7692  0.4944 -2.4239
  153MOL0     H20653   7.283   8.114  10.870  1.3870 -0.1313  0.2504
  153MOL0     H20654   7.340   7.949  10.868  0.6437  0.8699 -1.0594
  153MOL0     H20655   7.192   7.980  10.960 -0.4744  0.1771  2.2427
  154MOL0     O20656   0.736   2.215   3.616  0.4116 -0.3395 -0.8175
  154MOL0     C20657   0.667   2.256   3.523  0.0059  0.0747  0.3403
  154MOL0     O20658   0.703   2.335   3.427 -0.6695  0.3917  0.0555
  154MOL0     C20659   0.828   2.341   3.374  0.0886  0.9016 -1.1799
  154MOL0     C20660   0.837   2.437   3.275  1.0478 -0.2884 -0.4177
  154MOL0     C20661   0.955   2.463   3.203  1.1618 -1.0480 -0.6161
  154MOL0     C20662   1.069   2.402   3.256  0.1080  0.5128 -0.1999
  154MOL0     O20663   1.191   2.423   3.199 -1.0281  0.1970 -0.0697
  154MOL0     C20664   1.194   2.406   3.061  0.0368  0.0657 -0.0838
  154MOL0     C20665   1.339   2.375   3.022 -0.9172 -0.3090  0.4412
  154MOL0     C20666   1.358   2.347   2.880  0.5127 -0.2291 -0.2832
  154MOL0     C20667   1.504   2.306   2.875  0.5489 -0.0965 -0.4708
  154MOL0     C20668   1.601   2.432   2.883 -0.3425  0.2097  0.4779
  154MOL0     C20669   1.741   2.389   2.836 -0.4698  0.2340 -0.2977
  154MOL0     C20670   1.841   2.502   2.825  0.9213  0.9391  0.4624
  154MOL0     C20671   1.850   2.559   2.688 -0.4708 -0.5026 -0.2349
  154MOL0     N20672   1.965   2.654   2.684  1.0293 -1.5436 -0.3050
  154MOL0     C20673   2.095   2.639   2.723  0.2302 -1.3124  0.0853
  154MOL0     C20674   2.157   2.756   2.671  0.7317  0.0980 -0.3695
  154MOL0     C20675   2.303   2.778   2.697 -0.1425 -0.8968 -0.0588
  154MOL0     C20676   2.331   2.886   2.804 -0.3871  0.2670  0.5995
  154MOL0     C20677   2.294   3.022   2.747 -0.2651  0.4120  0.1514
  154MOL0     C20678   2.361   3.137   2.829 -0.9365 -0.4999  0.3304
  154MOL0     O20679   2.510   3.123   2.830 -0.8766  0.1644 -0.6998
  154MOL0     C20680   2.569   3.227   2.896  0.7254  0.2152  0.2067
  154MOL0     C20681   2.665   3.195   2.994  1.0722  0.2397 -0.4354
  154MOL0     C20682   2.737   3.297   3.064  0.0974 -0.5632 -0.3461
  154MOL0     C20683   2.714   3.435   3.030 -0.2375  0.4241  0.3854
  154MOL0     C20684   2.782   3.537   3.091 -0.4539 -0.7980 -0.2431
  154MOL0     O20685   2.894   3.494   3.159  0.0316 -0.0729  0.5516
  154MOL0     C20686   2.929   3.593   3.251 -0.9549 -0.0192  0.6387
  154MOL0     C20687   2.885   3.581   3.376  0.0576  0.1996  0.5464
  154MOL0     C20688   2.911   3.673   3.476  0.1153 -0.3365 -0.0778
  154MOL0     C20689   2.997   3.780   3.445  0.0236 -0.5369 -0.3700
  154MOL0     O20690   3.022   3.870   3.544  0.5850  0.1918 -0.0645
  154MOL0     C20691   3.037   4.012   3.513 -0.2400 -0.4780  0.0470
  154MOL0     C20692   2.896   4.086   3.517 -0.0355  0.4556 -0.7884
  154MOL0     C20693   2.816   4.055   3.393  0.7326  0.1264  0.2525
  154MOL0     C20694   2.674   4.088   3.389 -0.9002  0.0344  0.0434
  154MOL0     C20695   2.633   4.232   3.405 -0.1154  0.1134 -0.6165
  154MOL0     C20696   2.476   4.248   3.384 -0.5603  0.0024 -0.2278
  154MOL0     C20697   2.442   4.390   3.383 -0.0674 -0.7960 -0.2343
  154MOL0     C20698   2.301   4.434   3.390  0.3013 -0.2840 -0.1569
  154MOL0    Cl20699   2.214   4.367   3.249  0.0224 -0.2060 -0.2912
  154MOL0     C20700   3.047   3.789   3.313 -0.1723  0.3305  0.4275
  154MOL0     C20701   3.019   3.690   3.214 -0.1882 -0.1512  0.0593
  154MOL0     O20702   2.742   3.656   3.080  0.1311  0.5751  0.0120
  154MOL0     C20703   2.609   3.460   2.937  0.0490  0.1577 -0.2963
  154MOL0     C20704   2.541   3.358   2.868 -0.4392 -0.2463  0.0349
  154MOL0     N20705   2.068   2.830   2.595 -0.3576  0.6649  0.7104
  154MOL0     N20706   1.952   2.770   2.612 -0.2357 -0.3487  0.8514
  154MOL0     C20707   1.063   2.305   3.348 -0.0510  0.0790 -0.1974
  154MOL0     C20708   0.947   2.274   3.419 -0.1923 -0.4590 -0.1673
  154MOL0     C20709   0.527   2.204   3.514  0.4482 -0.5213  0.4211
  154MOL0     C20710   0.498   2.081   3.570 -0.0162  0.1483 -0.8733
  154MOL0     C20711   0.367   2.024   3.560  0.0711 -0.3727  0.6826
  154MOL0     C20712   0.258   2.095   3.517  1.2930 -0.4714  0.3247
  154MOL0     O20713   0.142   2.026   3.514  0.0936 -0.0528  0.5952
  154MOL0     C20714   0.017   2.096   3.520 -0.7477 -0.1369  0.1112
  154MOL0     C20715  -0.098   1.997   3.498  0.4353 -0.3029  0.4837
  154MOL0     C20716  -0.104   1.950   3.347  0.1162  0.8492 -0.6221
  154MOL0     C20717  -0.230   1.868   3.324  0.8764  0.8990 -0.3525
  154MOL0     C20718  -0.270   1.862   3.191  0.0353 -0.4640 -0.3922
  154MOL0     C20719  -0.307   1.850   3.080  0.4086 -0.4586 -0.1824
  154MOL0     C20720   0.280   2.229   3.473 -0.1094 -0.6338 -0.3633
  154MOL0     C20721   0.417   2.279   3.451 -0.4788  0.7193 -0.0918
  154MOL0     C20722   0.441   2.409   3.377  0.0949 -0.2090  0.0364
  154MOL0     H20723   0.751   2.496   3.244 -1.3302 -2.6448  1.2283
  154MOL0     H20724   0.956   2.537   3.124  0.1159  0.5649  0.8051
  154MOL0     H20725   1.142   2.311   3.044  0.7237 -0.9202  2.6827
  154MOL0     H20726   1.145   2.488   3.008  2.1043  0.8012 -0.9508
  154MOL0     H20727   1.368   2.284   3.075 -1.9451  0.7432  3.0084
  154MOL0     H20728   1.409   2.457   3.042 -0.0750  0.1447 -3.6189
  154MOL0     H20729   1.331   2.432   2.817 -1.0329 -1.1194 -0.8899
  154MOL0     H20730   1.290   2.266   2.853  0.5501  0.2591 -1.9273
  154MOL0     H20731   1.531   2.233   2.952  1.9236 -0.1991 -1.0130
  154MOL0     H20732   1.530   2.249   2.785 -0.5174 -2.8284  0.8185
  154MOL0     H20733   1.558   2.513   2.824  0.1578  0.6341  0.6902
  154MOL0     H20734   1.601   2.468   2.986 -2.8086 -0.4738  0.7923
  154MOL0     H20735   1.770   2.313   2.908 -2.2989 -0.6620 -0.4522
  154MOL0     H20736   1.727   2.339   2.739  0.7762  3.0384 -2.0718
  154MOL0     H20737   1.944   2.468   2.841  1.4691  2.0263 -0.5632
  154MOL0     H20738   1.824   2.578   2.903  3.5619  1.7622  0.3322
  154MOL0     H20739   1.872   2.483   2.613  0.6226 -0.3532 -0.0794
  154MOL0     H20740   1.754   2.611   2.677  2.0003  4.7182 -0.2894
  154MOL0     H20741   2.155   2.564   2.773  1.2825  0.0573  0.9466
  154MOL0     H20742   2.352   2.683   2.721  1.7124 -0.3231 -1.3156
  154MOL0     H20743   2.351   2.813   2.605  1.3990  0.4686  1.1973
  154MOL0     H20744   2.289   2.858   2.901  0.8421 -0.8181  0.8367
  154MOL0     H20745   2.438   2.890   2.825 -0.3365  0.7468  0.2502
  154MOL0     H20746   2.186   3.034   2.757 -0.1061  2.0384  0.2016
  154MOL0     H20747   2.329   3.040   2.645 -1.1789  0.3991 -0.1698
  154MOL0     H20748   2.318   3.124   2.929  0.0526 -0.6338  0.7486
  154MOL0     H20749   2.330   3.229   2.780 -0.5811 -0.7951 -0.4660
  154MOL0     H20750   2.699   3.092   2.993  1.3573  0.3133 -2.0312
  154MOL0     H20751   2.805   3.267   3.144  1.0738  0.0520 -0.9262
  154MOL0     H20752   2.815   3.498   3.389 -0.0193  0.0672 -0.6051
  154MOL0     H20753   2.868   3.671   3.575 -1.2410  0.5566 -0.6222
  154MOL0     H20754   3.098   4.051   3.595 -0.9619 -3.0692  1.9568
  154MOL0     H20755   3.087   4.029   3.417  2.1694  1.1806  1.4766
  154MOL0     H20756   2.844   4.050   3.606  1.3665 -1.8995 -0.8505
  154MOL0     H20757   2.912   4.194   3.521  2.8109  0.0721  1.2023
  154MOL0     H20758   2.863   4.111   3.311 -1.4028  0.5484 -0.7418
  154MOL0     H20759   2.818   3.946   3.378  0.0147  0.1554 -0.0456
  154MOL0     H20760   2.618   4.033   3.466  0.0136  1.3325  1.6901
  154MOL0     H20761   2.639   4.066   3.288  0.8096  2.3107 -1.1324
  154MOL0     H20762   2.677   4.293   3.325 -1.6027  0.6947 -1.0396
  154MOL0     H20763   2.674   4.270   3.498  0.5118 -1.7824 -0.0851
  154MOL0     H20764   2.442   4.207   3.288 -0.5342  1.7199 -1.0060
  154MOL0     H20765   2.428   4.203   3.471 -0.5205  1.2083  0.4339
  154MOL0     H20766   2.482   4.440   3.295  2.3433  1.2380  1.8779
  154MOL0     H20767   2.495   4.444   3.462 -0.5114  0.6303 -0.8756
  154MOL0     H20768   2.246   4.407   3.481  1.5788 -0.0989  0.6862
  154MOL0     H20769   2.294   4.544   3.386  1.4805 -0.0474  2.3087
  154MOL0     H20770   3.106   3.875   3.284 -2.0455  1.6333  0.3011
  154MOL0     H20771   3.052   3.691   3.110  0.2255 -3.0483  0.0970
  154MOL0     H20772   2.584   3.562   2.909  1.1016  2.6367  6.0822
  154MOL0     H20773   2.470   3.382   2.790  0.3111 -3.3041 -1.7577
  154MOL0     H20774   1.152   2.247   3.371  0.4936  1.8888  2.7962
  154MOL0     H20775   0.945   2.196   3.494  2.5822 -0.6101 -0.1441
  154MOL0     H20776   0.571   2.017   3.620 -0.8158  0.4913  0.8189
  154MOL0     H20777   0.345   1.924   3.595 -1.3938  0.6594  3.0162
  154MOL0     H20778   0.011   2.172   3.441 -2.4709  1.5770  1.8037
  154MOL0     H20779   0.009   2.156   3.611  1.2361 -0.8832  0.8335
  154MOL0     H20780  -0.192   2.049   3.518  0.4403  0.3993 -1.1987
  154MOL0     H20781  -0.096   1.918   3.573  0.6803  1.2918  2.2292
  154MOL0     H20782  -0.010   1.897   3.328  1.9623  2.9265  1.8856
  154MOL0     H20783  -0.103   2.043   3.289  4.0732  0.5541 -1.2864
  154MOL0     H20784  -0.219   1.764   3.358 -0.1404  1.5586  2.1925
  154MOL0     H20785  -0.311   1.918   3.378  1.3075  0.3172  0.8597
  154MOL0     H20786  -0.345   1.834   2.981 -4.1268  3.4508  0.5917
  154MOL0     H20787   0.198   2.290   3.437 -1.8024 -3.8018 -2.3346
  154MOL0     H20788   0.510   2.471   3.434  0.6539 -0.7675 -0.0257
  154MOL0     H20789   0.477   2.382   3.277 -1.4118  0.6331 -0.7768
  154MOL0     H20790   0.346   2.462   3.363  0.7901  0.7114 -1.4127
  155MOL0     O20791   7.069   1.990   2.037  0.5578 -0.1083  0.2248
  155MOL0     C20792   6.985   2.025   2.120 -0.3797 -0.5637 -0.0469
  155MOL0     O20793   7.014   2.091   2.235  0.4726  0.6325 -0.2028
  155MOL0     C20794   7.134   2.087   2.292 -0.1050 -0.2193 -0.3543
  155MOL0     C20795   7.234   2.182   2.270  0.3825  0.0477  0.5039
  155MOL0     C20796   7.361   2.163   2.321 -0.1034  0.6701 -0.1885
  155MOL0     C20797   7.392   2.055   2.403 -0.1172 -0.8527 -0.0518
  155MOL0     O20798   7.512   2.022   2.462 -0.1598 -0.4794 -1.0162
  155MOL0     C20799   7.598   2.127   2.502  0.4547 -0.0937 -0.0077
  155MOL0     C20800   7.725   2.068   2.577  0.3353 -0.2596 -0.6951
  155MOL0     C20801   7.829   1.995   2.492  0.3229 -0.1888 -0.0881
  155MOL0     C20802   7.779   1.866   2.419 -0.5567 -0.1427 -0.5975
  155MOL0     C20803   7.898   1.771   2.383  0.2042  0.2401 -0.1712
  155MOL0     C20804   7.998   1.823   2.272 -0.1600  0.5346 -1.1622
  155MOL0     C20805   8.139   1.760   2.275  0.0982  0.0828  0.6883
  155MOL0     C20806   8.213   1.806   2.152 -0.7051 -0.0612 -0.0727
  155MOL0     N20807   8.339   1.734   2.126  0.3641 -0.4431  0.1183
  155MOL0     C20808   8.438   1.714   2.220 -0.2165  0.4788  0.6530
  155MOL0     C20809   8.513   1.624   2.158 -0.2411  0.6434 -0.0108
  155MOL0     C20810   8.634   1.537   2.214  0.2690  0.1070  0.1732
  155MOL0     C20811   8.682   1.565   2.356  0.6229 -0.3613  0.1398
  155MOL0     C20812   8.783   1.458   2.385 -0.4587  0.0660 -0.8392
  155MOL0     C20813   8.923   1.511   2.406  0.2770 -0.8628 -0.3978
  155MOL0     O20814   9.007   1.395   2.413 -0.6807  0.7181 -0.0759
  155MOL0     C20815   9.143   1.426   2.378 -0.1907  0.5068 -0.4155
  155MOL0     C20816   9.201   1.555   2.364  0.1298  0.3974 -0.4299
  155MOL0     C20817   9.340   1.574   2.354  1.2012  0.1078 -0.2445
  155MOL0     C20818   9.426   1.463   2.359  0.1891  0.2796  0.2512
  155MOL0     C20819   9.571   1.486   2.345  0.5543  0.3486 -0.9504
  155MOL0     O20820   9.604   1.606   2.301 -0.0990  0.5893 -0.5036
  155MOL0     C20821   9.733   1.621   2.249  0.0460 -0.2463 -0.3161
  155MOL0     C20822   9.809   1.729   2.303 -0.4066 -0.6655  0.0967
  155MOL0     C20823   9.933   1.757   2.242 -0.6694  0.1306 -0.6453
  155MOL0     C20824   9.979   1.671   2.144 -0.3412 -0.0719  0.1644
  155MOL0     O20825  10.092   1.700   2.071  0.5213  0.3855 -0.1286
  155MOL0     C20826  10.203   1.763   2.144 -0.1284 -0.1759  0.4099
  155MOL0     C20827  10.267   1.678   2.249  0.5913  0.0769  0.1466
  155MOL0     C20828  10.376   1.755   2.321 -0.4865 -0.5015 -0.1523
  155MOL0     C20829  10.334   1.799   2.468 -0.2009  0.0189  1.2873
  155MOL0     C20830  10.440   1.886   2.534  0.1485  0.1229  0.7269
  155MOL0     C20831  10.422   1.916   2.681 -0.6544 -0.8545 -0.2634
  155MOL0     C20832  10.281   1.953   2.737  0.9831 -0.7753  0.0799
  155MOL0     C20833  10.212   2.080   2.680  0.0741 -0.8071  0.1084
  155MOL0    Cl20834  10.328   2.215   2.716  0.2947 -0.2859 -0.4763
  155MOL0     C20835   9.911   1.555   2.109 -0.3509 -0.2424  0.1167
  155MOL0     C20836   9.788   1.531   2.162  0.0017  0.0588  0.2194
  155MOL0     O20837   9.647   1.398   2.370 -0.5366 -0.7387  0.3703
  155MOL0     C20838   9.377   1.332   2.381  0.5072 -0.6407 -0.7240
  155MOL0     C20839   9.241   1.323   2.391  0.0225  0.5342  0.2155
  155MOL0     N20840   8.470   1.598   2.028  0.1547  0.9695  0.0425
  155MOL0     N20841   8.364   1.665   2.002  0.3000  0.9890 -0.2023
  155MOL0     C20842   7.295   1.959   2.423  0.8675  0.2187 -0.8701
  155MOL0     C20843   7.165   1.983   2.377  0.6476 -0.2827  0.5101
  155MOL0     C20844   6.845   2.034   2.066 -1.3894  0.0520  0.0885
  155MOL0     C20845   6.841   2.077   1.932  0.0010  0.4638 -0.5983
  155MOL0     C20846   6.719   2.091   1.875  0.2899 -0.2443 -0.4355
  155MOL0     C20847   6.604   2.071   1.944  0.7191  0.7528  0.4552
  155MOL0     O20848   6.485   2.093   1.876 -0.5045 -0.3466 -0.8776
  155MOL0     C20849   6.360   2.065   1.935  0.3911  0.0019 -0.3930
  155MOL0     C20850   6.328   1.914   1.956 -0.2540  0.0169 -0.3234
  155MOL0     C20851   6.344   1.838   1.818 -0.8239  0.8295 -0.5033
  155MOL0     C20852   6.425   1.714   1.858 -0.4868 -0.6362  0.3009
  155MOL0     C20853   6.410   1.612   1.757 -0.3033  0.1374  0.7439
  155MOL0     C20854   6.411   1.524   1.671  0.0089 -0.2331 -0.5740
  155MOL0     C20855   6.601   2.044   2.081 -1.1619  1.2589  0.0640
  155MOL0     C20856   6.724   2.018   2.138  0.1600 -0.0181 -0.4466
  155MOL0     C20857   6.721   1.977   2.286 -0.5321 -0.0538 -0.1051
  155MOL0     H20858   7.203   2.262   2.205 -2.3768 -1.0890  0.2794
  155MOL0     H20859   7.436   2.240   2.307  0.4833  0.2139  0.3731
  155MOL0     H20860   7.635   2.191   2.422  1.3331 -0.2119  0.3002
  155MOL0     H20861   7.550   2.192   2.577 -3.6989  0.7464 -3.0016
  155MOL0     H20862   7.690   2.001   2.656  0.4930  2.4331  1.8556
  155MOL0     H20863   7.769   2.158   2.621  1.7296 -0.1176 -2.3174
  155MOL0     H20864   7.912   1.975   2.560  0.0869  2.9498  1.2992
  155MOL0     H20865   7.870   2.069   2.423  1.9997 -0.0514  1.0066
  155MOL0     H20866   7.720   1.812   2.493  0.8257  0.8072  1.3106
  155MOL0     H20867   7.717   1.896   2.334  2.3852  1.1953 -2.4689
  155MOL0     H20868   7.953   1.752   2.476  0.6036 -1.7786 -0.7597
  155MOL0     H20869   7.860   1.671   2.360 -1.2854  0.3821  1.5467
  155MOL0     H20870   7.956   1.806   2.173 -3.5880 -0.4021  0.3004
  155MOL0     H20871   8.011   1.930   2.289  0.3306  0.0697  2.2541
  155MOL0     H20872   8.133   1.651   2.270 -0.2246  0.1480 -2.1713
  155MOL0     H20873   8.191   1.802   2.361  1.9430  1.2691 -0.9096
  155MOL0     H20874   8.144   1.815   2.068  0.2219  2.9947 -0.6269
  155MOL0     H20875   8.241   1.912   2.159  0.9292 -0.5220  1.0152
  155MOL0     H20876   8.447   1.763   2.316 -1.4294  0.3988  0.8209
  155MOL0     H20877   8.606   1.432   2.202 -4.1649  1.1961 -1.0862
  155MOL0     H20878   8.709   1.550   2.135 -2.2838 -0.0075 -2.4251
  155MOL0     H20879   8.712   1.670   2.358  1.0990 -0.4852  2.3220
  155MOL0     H20880   8.599   1.560   2.427  1.1579  3.0108  1.1712
  155MOL0     H20881   8.793   1.384   2.306  1.5261 -1.6046  0.8521
  155MOL0     H20882   8.761   1.414   2.483 -0.2754  0.8461 -0.4374
  155MOL0     H20883   8.925   1.578   2.493 -3.0740 -0.0089 -0.8384
  155MOL0     H20884   8.951   1.563   2.314  0.4450  0.4566  0.3667
  155MOL0     H20885   9.148   1.649   2.379  0.2163  0.5349 -0.9863
  155MOL0     H20886   9.370   1.678   2.344  4.4654 -0.4763  1.8583
  155MOL0     H20887   9.775   1.799   2.378  0.4165 -0.0294 -0.1163
  155MOL0     H20888   9.983   1.847   2.277 -2.9375  1.3274 -0.2979
  155MOL0     H20889  10.273   1.783   2.063  0.9944 -2.4234  0.7575
  155MOL0     H20890  10.180   1.858   2.194  2.9417  2.8068 -3.2387
  155MOL0     H20891  10.183   1.651   2.314  0.9006 -0.2384  0.4225
  155MOL0     H20892  10.303   1.592   2.193 -0.2452  0.1046 -0.4418
  155MOL0     H20893  10.462   1.690   2.330 -0.0179  0.0407 -0.6146
  155MOL0     H20894  10.404   1.846   2.267  2.3409 -0.4811  1.1945
  155MOL0     H20895  10.295   1.722   2.535  0.9832 -0.8909  0.9614
  155MOL0     H20896  10.251   1.863   2.436  1.6180  1.1051 -1.5994
  155MOL0     H20897  10.427   1.982   2.484 -3.5492 -0.7341 -0.3093
  155MOL0     H20898  10.544   1.853   2.531  0.1762 -0.2465 -4.4764
  155MOL0     H20899  10.472   1.836   2.738  3.3727  0.9283 -0.9572
  155MOL0     H20900  10.494   1.995   2.704 -0.2055 -1.3987  0.2519
  155MOL0     H20901  10.295   1.983   2.841 -0.8979 -0.4395  0.2692
  155MOL0     H20902  10.208   1.872   2.729  0.8684 -0.5651 -1.2748
  155MOL0     H20903  10.204   2.072   2.572  1.6725  1.7789 -0.2897
  155MOL0     H20904  10.114   2.115   2.715 -0.1491 -0.8898 -0.4205
  155MOL0     H20905   9.964   1.499   2.033  2.3278  0.3979  1.3884
  155MOL0     H20906   9.735   1.439   2.137 -0.2940  0.5794 -1.2058
  155MOL0     H20907   9.442   1.245   2.385 -1.3153 -2.0288  1.2948
  155MOL0     H20908   9.200   1.225   2.414 -1.7650  0.4985 -2.6468
  155MOL0     H20909   7.308   1.879   2.496  1.6210  3.0208  2.3297
  155MOL0     H20910   7.084   1.913   2.393 -1.0636  0.7703 -2.6692
  155MOL0     H20911   6.929   2.092   1.870  0.1093 -1.4167 -0.9690
  155MOL0     H20912   6.722   2.120   1.770  1.5865  1.4211  0.0196
  155MOL0     H20913   6.284   2.089   1.860 -0.2437 -2.5443 -0.6668
  155MOL0     H20914   6.342   2.119   2.029 -2.0291  1.3994 -1.5518
  155MOL0     H20915   6.228   1.906   1.998  0.2357  0.1909  0.9072
  155MOL0     H20916   6.383   1.874   2.041 -2.0843 -0.8929  0.4704
  155MOL0     H20917   6.393   1.898   1.741  0.6872 -0.6938 -0.7835
  155MOL0     H20918   6.250   1.799   1.778  0.4375 -1.2046 -1.6589
  155MOL0     H20919   6.528   1.750   1.870 -0.4961  2.1995 -4.9327
  155MOL0     H20920   6.393   1.677   1.955 -1.1371 -1.0948 -0.0807
  155MOL0     H20921   6.424   1.439   1.607  0.9693 -1.3983  1.0858
  155MOL0     H20922   6.511   2.043   2.141 -0.4872 -0.2230  1.0939
  155MOL0     H20923   6.753   1.872   2.289  1.5814  0.5515  2.7326
  155MOL0     H20924   6.798   2.029   2.344  1.2622 -1.8761 -0.6918
  155MOL0     H20925   6.627   1.981   2.342 -1.0592 -3.0173 -0.6167
  156MOL0     O20926   0.112   8.032   0.801 -0.0506 -0.1995  0.4747
  156MOL0     C20927   0.021   8.073   0.742  0.3511 -0.2305  0.3527
  156MOL0     O20928  -0.071   8.005   0.674  0.1418  0.1077  0.0827
  156MOL0     C20929  -0.056   7.869   0.667  0.4274 -0.7447 -1.1609
  156MOL0     C20930  -0.083   7.794   0.791  0.1874  0.3038  0.3170
  156MOL0     C20931  -0.058   7.658   0.797  0.7545  0.1023  0.0626
  156MOL0     C20932  -0.021   7.588   0.681  0.5890  0.2234  0.2402
  156MOL0     O20933  -0.018   7.452   0.687  0.0566  0.5148  0.5851
  156MOL0     C20934  -0.005   7.362   0.574 -0.5248 -1.1409 -0.0200
  156MOL0     C20935  -0.041   7.218   0.623  0.7838  0.6962  0.1310
  156MOL0     C20936  -0.182   7.196   0.686 -0.4731 -0.7100  0.2245
  156MOL0     C20937  -0.195   7.048   0.725 -0.0789 -0.1249  0.4079
  156MOL0     C20938  -0.331   7.026   0.801  0.2527 -0.0231  0.4688
  156MOL0     C20939  -0.335   6.878   0.849  1.2674  0.6461 -0.0015
  156MOL0     C20940  -0.467   6.839   0.913 -0.6382  0.0718 -0.1652
  156MOL0     C20941  -0.467   6.698   0.968 -0.4384  0.2389  0.2379
  156MOL0     N20942  -0.414   6.684   1.106 -0.3697 -0.4186  0.3285
  156MOL0     C20943  -0.295   6.623   1.162  0.1932 -0.3086 -0.4434
  156MOL0     C20944  -0.287   6.652   1.293 -1.6202 -0.2682  0.0758
  156MOL0     C20945  -0.182   6.605   1.396 -0.9675 -0.5977  0.3145
  156MOL0     C20946  -0.037   6.666   1.378 -0.7481  0.3727 -0.1830
  156MOL0     C20947   0.048   6.626   1.256 -0.0043  0.7901  0.0091
  156MOL0     C20948   0.198   6.663   1.275  0.2535  0.3492  0.1044
  156MOL0     O20949   0.268   6.601   1.163 -0.7865 -0.0085  0.5879
  156MOL0     C20950   0.406   6.595   1.155  0.3391  0.2360 -0.0060
  156MOL0     C20951   0.490   6.604   1.258  0.2615 -0.0303  0.6460
  156MOL0     C20952   0.627   6.607   1.239  0.8685 -0.6974  0.7823
  156MOL0     C20953   0.685   6.586   1.110 -0.0867 -0.1853 -1.2524
  156MOL0     C20954   0.826   6.577   1.082  0.3438 -0.3387  0.9539
  156MOL0     O20955   0.873   6.501   0.976 -0.5635 -0.1460 -0.0979
  156MOL0     C20956   0.993   6.518   0.910  0.0313 -0.3044  0.2272
  156MOL0     C20957   1.119   6.534   0.974 -0.4730  0.2426 -0.1167
  156MOL0     C20958   1.234   6.519   0.899 -0.1329 -0.0089 -0.0997
  156MOL0     C20959   1.233   6.498   0.762  0.1892 -0.1021 -0.1338
  156MOL0     O20960   1.346   6.484   0.686 -0.3811 -0.3950 -0.0426
  156MOL0     C20961   1.464   6.454   0.760  0.2540  0.2378 -0.6480
  156MOL0     C20962   1.567   6.405   0.658 -0.1551  0.4242  0.1712
  156MOL0     C20963   1.546   6.252   0.649  0.2677  0.6889  0.6308
  156MOL0     C20964   1.662   6.205   0.561 -0.5668 -0.0227 -0.7491
  156MOL0     C20965   1.687   6.059   0.544 -0.2925  0.1829  0.5293
  156MOL0     C20966   1.778   6.043   0.412  0.4264  1.1282 -0.2816
  156MOL0     C20967   1.719   5.923   0.341  0.3564  0.3464  0.3532
  156MOL0     C20968   1.795   5.924   0.204  0.9396 -0.3752 -0.6408
  156MOL0    Cl20969   1.716   6.034   0.096 -0.1122 -0.2846 -0.1864
  156MOL0     C20970   1.110   6.487   0.697  0.4539  0.0086  0.1198
  156MOL0     C20971   0.992   6.491   0.770  0.3136  0.4762 -0.6793
  156MOL0     O20972   0.894   6.646   1.158  0.1889 -0.5311  0.3985
  156MOL0     C20973   0.595   6.560   1.004  0.3071  0.6402 -0.4916
  156MOL0     C20974   0.456   6.568   1.029  0.4697 -0.1813 -0.3426
  156MOL0     N20975  -0.401   6.714   1.329  0.0648  0.0656 -0.3250
  156MOL0     N20976  -0.474   6.734   1.223  0.0745 -1.1015  0.4287
  156MOL0     C20977   0.001   7.658   0.561  1.1116  0.2857 -1.0750
  156MOL0     C20978  -0.014   7.799   0.558 -0.1756  0.3627  0.6726
  156MOL0     C20979   0.015   8.216   0.702  0.5260 -1.1067 -0.5275
  156MOL0     C20980  -0.007   8.246   0.564 -0.5338 -0.2279 -0.7721
  156MOL0     C20981  -0.005   8.376   0.522 -0.1778  0.4041  0.3247
  156MOL0     C20982   0.012   8.484   0.611  0.0808 -1.2694  0.1126
  156MOL0     O20983   0.016   8.613   0.556 -0.0822  0.0737 -0.0215
  156MOL0     C20984   0.066   8.730   0.635  1.0081  0.1342 -0.3988
  156MOL0     C20985   0.041   8.869   0.565  0.7095 -0.4989 -0.9549
  156MOL0     C20986   0.118   8.980   0.634  0.3428  0.3719 -0.2247
  156MOL0     C20987   0.062   9.019   0.767  0.0088  0.0958  0.1860
  156MOL0     C20988   0.120   9.144   0.819  0.3079  0.0356  0.1026
  156MOL0     C20989   0.141   9.255   0.862  0.1829  0.0749 -0.4476
  156MOL0     C20990   0.036   8.460   0.747  0.5823  0.3191 -0.0770
  156MOL0     C20991   0.030   8.329   0.798 -0.3943  0.5733  0.4068
  156MOL0     C20992   0.043   8.315   0.940 -0.8152  0.0009 -0.5592
  156MOL0     H20993  -0.116   7.859   0.871 -0.4335 -0.7104  0.9033
  156MOL0     H20994  -0.080   7.608   0.890  1.0874 -0.4420 -0.1450
  156MOL0     H20995  -0.074   7.389   0.493 -0.5162  0.4942  0.4909
  156MOL0     H20996   0.100   7.360   0.543 -0.8515  1.2995 -1.4805
  156MOL0     H20997   0.029   7.199   0.705  0.6013  0.6939  0.2877
  156MOL0     H20998  -0.020   7.147   0.543 -1.3442  0.8495 -0.6276
  156MOL0     H20999  -0.264   7.238   0.627 -2.1814 -0.5079  2.6382
  156MOL0     H21000  -0.170   7.261   0.773  4.9152  1.7555 -1.9022
  156MOL0     H21001  -0.190   6.986   0.635  1.4254 -1.6464  1.4911
  156MOL0     H21002  -0.109   7.017   0.784  0.5449 -2.2036 -1.4401
  156MOL0     H21003  -0.339   7.085   0.893  3.0577 -2.5292  2.4824
  156MOL0     H21004  -0.418   7.040   0.735 -1.4577 -3.3759  1.7781
  156MOL0     H21005  -0.334   6.809   0.763 -4.6910  1.1696 -0.9151
  156MOL0     H21006  -0.248   6.866   0.915  2.5145  1.9701 -1.3115
  156MOL0     H21007  -0.548   6.847   0.840 -0.3272  0.1276 -0.5080
  156MOL0     H21008  -0.491   6.906   0.996 -0.8302  1.6388 -1.4340
  156MOL0     H21009  -0.573   6.670   0.966 -0.1384 -0.9003 -0.2223
  156MOL0     H21010  -0.431   6.634   0.887 -0.5875  0.9130 -0.3663
  156MOL0     H21011  -0.235   6.548   1.112 -3.2641 -1.9004 -2.5908
  156MOL0     H21012  -0.205   6.628   1.501  0.8452  2.8160  0.0872
  156MOL0     H21013  -0.170   6.496   1.387 -0.3255 -0.3701 -2.2409
  156MOL0     H21014  -0.046   6.775   1.387 -1.1412  0.3154  0.1613
  156MOL0     H21015   0.013   6.637   1.471 -2.4578 -2.1216  0.0535
  156MOL0     H21016   0.007   6.666   1.163  1.8176 -1.1189 -1.6882
  156MOL0     H21017   0.044   6.517   1.251 -0.2920  0.7206  1.3543
  156MOL0     H21018   0.239   6.629   1.371  0.0424  1.5663  0.6437
  156MOL0     H21019   0.225   6.768   1.268  2.6255 -0.3225 -2.5957
  156MOL0     H21020   0.457   6.603   1.361  1.2086  1.3599  0.9944
  156MOL0     H21021   0.675   6.619   1.335 -1.5687  0.4857  1.9333
  156MOL0     H21022   1.110   6.557   1.080 -2.0257  1.4551 -0.4663
  156MOL0     H21023   1.325   6.539   0.954 -0.6034 -1.4156  1.2628
  156MOL0     H21024   1.489   6.552   0.802 -1.1612  1.1070 -1.7557
  156MOL0     H21025   1.440   6.375   0.832 -4.6220 -0.8548 -3.0335
  156MOL0     H21026   1.550   6.455   0.562 -1.4703  2.5842  1.4574
  156MOL0     H21027   1.666   6.430   0.696  0.0472 -0.4823  0.2748
  156MOL0     H21028   1.549   6.194   0.742 -0.9710 -1.4981 -0.6011
  156MOL0     H21029   1.452   6.233   0.596  1.3202  2.3523 -2.0004
  156MOL0     H21030   1.753   6.253   0.599 -1.1233 -0.1736  0.8436
  156MOL0     H21031   1.644   6.257   0.466 -1.2850  2.2284  0.5269
  156MOL0     H21032   1.584   6.024   0.536  0.3441 -2.0855  1.2791
  156MOL0     H21033   1.733   6.007   0.630 -1.4173 -0.1713  0.9299
  156MOL0     H21034   1.764   6.132   0.350 -1.7474  0.7883 -0.3754
  156MOL0     H21035   1.884   6.028   0.435  0.4838  1.0701 -0.5762
  156MOL0     H21036   1.610   5.930   0.329  0.3844  2.0972  0.9384
  156MOL0     H21037   1.742   5.834   0.402 -0.2021  1.1747  1.8402
  156MOL0     H21038   1.899   5.958   0.209  0.5126  0.9433 -0.3174
  156MOL0     H21039   1.793   5.819   0.174 -0.2102 -0.6686  0.3785
  156MOL0     H21040   1.100   6.464   0.592  2.8642 -0.4636 -0.0464
  156MOL0     H21041   0.902   6.472   0.712  1.7358 -2.5528 -2.0820
  156MOL0     H21042   0.622   6.534   0.903  1.6948  0.6691 -0.1475
  156MOL0     H21043   0.386   6.551   0.948 -2.3698 -1.0813  2.1012
  156MOL0     H21044   0.013   7.620   0.460  1.2859  1.2589 -1.4330
  156MOL0     H21045   0.008   7.858   0.469  0.2459 -1.9216 -0.8234
  156MOL0     H21046  -0.023   8.168   0.490 -1.1455 -0.2906 -0.5776
  156MOL0     H21047  -0.020   8.387   0.416  0.5080  2.3367  0.3973
  156MOL0     H21048   0.172   8.714   0.659  0.8723 -1.4013 -0.7046
  156MOL0     H21049   0.018   8.736   0.734 -1.1330  0.4602 -1.3984
  156MOL0     H21050  -0.068   8.880   0.555  0.6056  0.9669  1.1151
  156MOL0     H21051   0.081   8.875   0.463  1.1804 -2.5966 -0.9411
  156MOL0     H21052   0.122   9.074   0.577  0.6939  2.1131  2.4789
  156MOL0     H21053   0.218   8.943   0.660 -0.4531 -0.8367  1.2911
  156MOL0     H21054  -0.045   9.039   0.758  0.3679  2.8989  1.1402
  156MOL0     H21055   0.077   8.934   0.834 -2.3399  0.8409  1.7867
  156MOL0     H21056   0.150   9.356   0.898  0.6522 -0.0561 -0.1918
  156MOL0     H21057   0.065   8.544   0.809  0.6211  0.7180 -0.6248
  156MOL0     H21058  -0.029   8.390   0.973 -0.8137  0.7254 -2.0994
  156MOL0     H21059   0.031   8.209   0.966 -2.5649  0.2615 -0.1842
  156MOL0     H21060   0.143   8.355   0.960 -0.9643  0.8013 -1.3564
  157MOL0     O21061   5.597   4.396   6.290  0.7919  0.4882 -0.2215
  157MOL0     C21062   5.603   4.274   6.333  1.0729 -0.0808  1.0015
  157MOL0     O21063   5.486   4.208   6.374  0.2269 -0.3709  0.8567
  157MOL0     C21064   5.365   4.273   6.381 -0.2934  0.1193  0.8799
  157MOL0     C21065   5.293   4.285   6.501  0.3222 -0.3500 -0.8927
  157MOL0     C21066   5.179   4.369   6.505  0.1615  0.7871 -0.0298
  157MOL0     C21067   5.136   4.431   6.392 -0.2358  0.5642 -0.2910
  157MOL0     O21068   5.037   4.519   6.417 -0.3571 -0.4686  0.6359
  157MOL0     C21069   4.999   4.609   6.316  0.2461 -0.1160  0.1911
  157MOL0     C21070   4.947   4.733   6.396  0.0584  0.2008 -0.4627
  157MOL0     C21071   4.805   4.699   6.467 -0.8437 -0.1650  0.5984
  157MOL0     C21072   4.760   4.811   6.548  0.4634 -0.3195  0.4403
  157MOL0     C21073   4.623   4.801   6.599 -0.9663  1.1489  0.2211
  157MOL0     C21074   4.545   4.941   6.604  0.3788  0.1980  0.0684
  157MOL0     C21075   4.414   4.929   6.692 -0.5214 -0.8462 -0.1590
  157MOL0     C21076   4.437   4.972   6.836 -0.0334  0.3492 -0.2435
  157MOL0     N21077   4.325   4.946   6.932  0.9077  0.7901 -0.2607
  157MOL0     C21078   4.246   5.050   6.991 -0.6455 -0.1607  0.4881
  157MOL0     C21079   4.135   4.996   7.024  1.0310 -0.1121 -0.1668
  157MOL0     C21080   4.032   5.086   7.081 -0.0562 -0.4873  0.3341
  157MOL0     C21081   3.884   5.047   7.057  0.1113 -0.3047 -0.0791
  157MOL0     C21082   3.795   5.116   7.169 -0.3102 -0.0576 -0.0872
  157MOL0     C21083   3.645   5.105   7.133 -0.4716  0.0906  0.1840
  157MOL0     O21084   3.568   5.177   7.230 -0.0597  0.0355  0.1759
  157MOL0     C21085   3.440   5.146   7.258  0.2360 -0.3248 -0.4286
  157MOL0     C21086   3.370   5.037   7.198 -0.9333  0.6413  0.8617
  157MOL0     C21087   3.254   4.992   7.256  0.5673 -0.0290 -0.7512
  157MOL0     C21088   3.198   5.063   7.359 -0.3206 -0.1755 -0.3708
  157MOL0     C21089   3.082   5.004   7.439 -0.6115  0.5573  0.0078
  157MOL0     O21090   3.062   4.866   7.429  0.5182  0.4690 -0.0566
  157MOL0     C21091   2.941   4.823   7.470  0.2102  0.7151 -0.1814
  157MOL0     C21092   2.822   4.884   7.438  0.7644  0.4055  0.4872
  157MOL0     C21093   2.704   4.836   7.487  1.1617 -0.5963  0.8880
  157MOL0     C21094   2.695   4.715   7.558  0.2767 -0.4112 -0.4896
  157MOL0     O21095   2.576   4.648   7.596  0.1965 -0.0839  0.4945
  157MOL0     C21096   2.449   4.718   7.602 -1.0976  0.4364  0.6279
  157MOL0     C21097   2.387   4.692   7.741 -0.8466  0.4392 -0.2203
  157MOL0     C21098   2.242   4.718   7.751  0.4532  0.2513 -0.2600
  157MOL0     C21099   2.154   4.608   7.693 -0.1098 -0.6363  0.5730
  157MOL0     C21100   2.003   4.633   7.699  0.4550  0.2926 -0.4922
  157MOL0     C21101   1.920   4.507   7.676 -0.3047  0.6770  0.4511
  157MOL0     C21102   1.920   4.446   7.536 -1.0321  0.2677  0.9525
  157MOL0     C21103   1.790   4.359   7.508 -1.0595 -0.6011  0.4808
  157MOL0    Cl21104   1.821   4.284   7.347  0.1214 -0.3240  0.1730
  157MOL0     C21105   2.810   4.653   7.586 -0.8350  0.6559 -0.5896
  157MOL0     C21106   2.941   4.704   7.543 -0.3294 -0.3810 -0.9244
  157MOL0     O21107   3.010   5.077   7.511 -0.7406 -0.0474 -0.6776
  157MOL0     C21108   3.255   5.192   7.400  0.2718  1.0428 -0.6874
  157MOL0     C21109   3.372   5.225   7.352  0.5463 -0.7969 -0.6841
  157MOL0     N21110   4.134   4.863   6.987 -0.9811  0.2287 -0.4980
  157MOL0     N21111   4.250   4.836   6.935 -0.2467 -0.6080  0.8969
  157MOL0     C21112   5.208   4.415   6.264  0.7598 -0.0818  0.0318
  157MOL0     C21113   5.317   4.326   6.261 -0.7844 -0.2704  0.6431
  157MOL0     C21114   5.735   4.211   6.357 -0.1886 -0.5799  0.2919
  157MOL0     C21115   5.847   4.266   6.296  0.0725 -0.6609  0.1477
  157MOL0     C21116   5.978   4.216   6.318  0.1503  0.1034  0.9725
  157MOL0     C21117   6.003   4.107   6.389 -0.1208 -1.1262 -0.9835
  157MOL0     O21118   6.137   4.074   6.395 -0.5224 -0.0881  0.2168
  157MOL0     C21119   6.171   3.963   6.484  0.0462  0.2749 -0.1764
  157MOL0     C21120   6.318   3.961   6.507  0.1841 -0.4708 -0.0207
  157MOL0     C21121   6.380   3.842   6.576 -0.6128  0.4977 -1.0712
  157MOL0     C21122   6.353   3.824   6.734 -0.2748  0.7127  0.4945
  157MOL0     C21123   6.371   3.949   6.812 -0.0941 -0.7418 -0.3664
  157MOL0     C21124   6.376   4.051   6.882 -0.3458  0.5358 -0.2237
  157MOL0     C21125   5.895   4.051   6.459  0.6268  0.6064  0.2908
  157MOL0     C21126   5.765   4.098   6.444 -0.2493  0.4108  0.5790
  157MOL0     C21127   5.659   4.039   6.530 -0.1065 -0.0559  0.5307
  157MOL0     H21128   5.339   4.260   6.597  0.9766  0.2778 -1.0350
  157MOL0     H21129   5.137   4.398   6.601  1.6339 -0.0745  0.9205
  157MOL0     H21130   5.082   4.649   6.257 -0.1234  2.0087  1.0041
  157MOL0     H21131   4.920   4.573   6.249  1.1157 -0.3977 -0.7008
  157MOL0     H21132   4.933   4.812   6.321  2.4921  1.9472  0.7822
  157MOL0     H21133   5.034   4.758   6.456  0.5197 -5.2638  1.7045
  157MOL0     H21134   4.833   4.617   6.534  0.0481 -1.5034 -1.3137
  157MOL0     H21135   4.724   4.670   6.399 -0.1029 -0.2969 -0.2479
  157MOL0     H21136   4.834   4.845   6.620  1.4539 -4.3806  1.6066
  157MOL0     H21137   4.750   4.894   6.477  2.5514 -0.3250  0.0856
  157MOL0     H21138   4.569   4.734   6.532 -0.9977 -0.8993  2.1722
  157MOL0     H21139   4.617   4.762   6.701  0.4933  1.7959  0.5835
  157MOL0     H21140   4.616   5.010   6.650  0.5381  0.2848 -0.3078
  157MOL0     H21141   4.509   4.971   6.505 -0.4794 -0.7127  0.0884
  157MOL0     H21142   4.372   4.829   6.682 -2.6915 -0.1977  1.5743
  157MOL0     H21143   4.340   4.996   6.648  1.0278  0.6829 -0.5428
  157MOL0     H21144   4.517   4.905   6.866  0.2170  0.2525 -1.1186
  157MOL0     H21145   4.480   5.073   6.837  2.6400 -0.6232  3.1313
  157MOL0     H21146   4.264   5.157   6.983 -0.6391 -0.2620 -1.6400
  157MOL0     H21147   4.052   5.099   7.188 -1.8881  0.4995  0.6013
  157MOL0     H21148   4.051   5.185   7.038  1.8515 -1.4939 -1.3181
  157MOL0     H21149   3.846   5.077   6.959 -3.1817  0.0549  1.1974
  157MOL0     H21150   3.861   4.940   7.053 -0.9639 -0.0653 -0.8546
  157MOL0     H21151   3.822   5.221   7.182  2.3427 -0.8091  1.1272
  157MOL0     H21152   3.810   5.076   7.270  0.9258 -0.3477 -0.3738
  157MOL0     H21153   3.622   4.999   7.128 -1.0931  0.2755 -1.5379
  157MOL0     H21154   3.625   5.151   7.035 -3.8278 -2.7555 -0.6411
  157MOL0     H21155   3.423   4.986   7.118 -1.8219  1.3212 -0.1970
  157MOL0     H21156   3.208   4.900   7.223  1.3754 -0.1814 -1.4838
  157MOL0     H21157   2.820   4.979   7.387 -0.3650 -1.1943 -2.7505
  157MOL0     H21158   2.608   4.875   7.454  1.1452 -0.9789  0.4686
  157MOL0     H21159   2.462   4.826   7.586  0.9120 -0.1196 -2.2242
  157MOL0     H21160   2.378   4.678   7.530 -2.2313  2.8107  0.3387
  157MOL0     H21161   2.407   4.590   7.775  1.7348  1.3860  1.5020
  157MOL0     H21162   2.436   4.748   7.822 -0.7334 -1.1633  0.8613
  157MOL0     H21163   2.216   4.722   7.857 -0.5057  0.0390 -0.4727
  157MOL0     H21164   2.220   4.813   7.702 -0.1288  0.9859  1.3636
  157MOL0     H21165   2.174   4.525   7.761 -1.3706 -0.3198  1.3451
  157MOL0     H21166   2.179   4.576   7.591 -1.7452  3.5067 -1.3476
  157MOL0     H21167   1.982   4.714   7.628 -1.1175 -0.2227 -0.6306
  157MOL0     H21168   1.976   4.685   7.791 -0.6572  0.8138 -1.0951
  157MOL0     H21169   1.933   4.426   7.748  0.7653  2.2085  2.0550
  157MOL0     H21170   1.817   4.537   7.700 -1.3078 -0.7727 -1.7321
  157MOL0     H21171   2.001   4.377   7.511 -0.9945  0.0409  1.6579
  157MOL0     H21172   1.930   4.523   7.459  1.1139 -0.6636  0.2322
  157MOL0     H21173   1.781   4.294   7.596 -0.4539  0.5549  1.4335
  157MOL0     H21174   1.698   4.418   7.506 -1.2684 -0.9334  0.2521
  157MOL0     H21175   2.811   4.561   7.643 -0.7371  1.0844  0.1114
  157MOL0     H21176   3.036   4.657   7.568 -0.0982 -0.7628 -2.4655
  157MOL0     H21177   3.196   5.244   7.476 -1.6976  0.3109 -1.6316
  157MOL0     H21178   3.430   5.309   7.388  1.7749 -0.8292 -2.4546
  157MOL0     H21179   5.169   4.456   6.171 -3.0504 -1.8102  0.6664
  157MOL0     H21180   5.357   4.307   6.162 -3.5487  4.2038 -1.6662
  157MOL0     H21181   5.837   4.354   6.234  0.6301 -1.2127 -0.7610
  157MOL0     H21182   6.065   4.265   6.274 -1.6478  1.9850 -0.7076
  157MOL0     H21183   6.136   3.865   6.451  0.0145 -0.2908  1.4719
  157MOL0     H21184   6.131   3.988   6.582 -0.4056  3.9659 -1.1165
  157MOL0     H21185   6.350   4.055   6.553  0.9489 -0.7570  0.0383
  157MOL0     H21186   6.363   3.978   6.409  3.3234  0.8334  1.4911
  157MOL0     H21187   6.486   3.842   6.550  0.0958 -0.1912  1.5423
  157MOL0     H21188   6.334   3.752   6.534 -2.0138  1.6241 -2.0632
  157MOL0     H21189   6.251   3.786   6.737 -1.9872  4.6726 -1.1014
  157MOL0     H21190   6.417   3.741   6.766 -0.0525 -0.3194 -2.3538
  157MOL0     H21191   6.382   4.143   6.936  1.1727 -0.5082  1.5283
  157MOL0     H21192   5.912   3.960   6.515  0.1630  0.9556  1.0174
  157MOL0     H21193   5.700   3.972   6.607 -1.1317 -1.3597 -0.0190
  157MOL0     H21194   5.599   4.110   6.588 -1.4912  0.6565 -1.6550
  157MOL0     H21195   5.591   3.984   6.464  1.3393 -0.8419 -0.3504
  158MOL0     O21196   3.283   8.321   4.372 -0.0259 -0.3305  0.3597
  158MOL0     C21197   3.272   8.316   4.249 -0.0772 -0.1522 -0.2286
  158MOL0     O21198   3.312   8.419   4.168  0.1422 -0.0343  0.6284
  158MOL0     C21199   3.416   8.503   4.193 -0.0778 -0.3546 -0.2162
  158MOL0     C21200   3.424   8.623   4.119  0.0059  0.8044 -0.0226
  158MOL0     C21201   3.527   8.712   4.131  0.0122  0.4456  1.0923
  158MOL0     C21202   3.641   8.669   4.207 -0.0251  0.6489  0.4382
  158MOL0     O21203   3.755   8.750   4.202  0.3252  0.2015  0.6409
  158MOL0     C21204   3.884   8.700   4.255  0.7996  0.6431  0.4217
  158MOL0     C21205   3.991   8.791   4.186 -0.4563 -0.5078 -0.6019
  158MOL0     C21206   4.119   8.797   4.277  0.5589  0.3875 -0.2155
  158MOL0     C21207   4.217   8.899   4.221 -0.9220 -0.2473  0.5860
  158MOL0     C21208   4.342   8.916   4.305  0.1557  0.2389  0.4146
  158MOL0     C21209   4.431   9.025   4.241  0.0302 -0.6692 -0.7224
  158MOL0     C21210   4.569   9.043   4.315 -0.1862 -0.7380  0.1300
  158MOL0     C21211   4.640   9.164   4.253 -0.2924  0.6269  0.1132
  158MOL0     N21212   4.758   9.199   4.331  0.1281 -0.1467  0.4991
  158MOL0     C21213   4.777   9.311   4.416 -0.5374  0.8886 -0.3930
  158MOL0     C21214   4.904   9.296   4.459  0.0160 -0.7950 -0.4087
  158MOL0     C21215   4.971   9.396   4.549  0.9888  0.1723  0.4618
  158MOL0     C21216   5.104   9.437   4.474  0.7767 -0.3842  0.1448
  158MOL0     C21217   5.164   9.540   4.557 -0.0962  0.3188  0.3951
  158MOL0     C21218   5.284   9.613   4.494  0.1476  0.4782  0.3581
  158MOL0     O21219   5.380   9.514   4.458  0.4845 -0.0554  1.1867
  158MOL0     C21220   5.502   9.557   4.423 -0.7781  0.5268 -0.8077
  158MOL0     C21221   5.583   9.474   4.350  0.0692 -0.3799  0.1651
  158MOL0     C21222   5.725   9.501   4.336 -0.0893 -1.1094 -0.6479
  158MOL0     C21223   5.775   9.628   4.364  0.2426 -0.1857  0.4449
  158MOL0     C21224   5.917   9.659   4.338 -0.7778  0.2826  0.2847
  158MOL0     O21225   5.984   9.574   4.265  0.2090  0.1458 -0.0036
  158MOL0     C21226   6.114   9.604   4.231 -0.3615  0.3388  0.1027
  158MOL0     C21227   6.208   9.533   4.297 -0.3387 -0.5053  0.1093
  158MOL0     C21228   6.344   9.557   4.268 -0.5429  0.2895 -0.4713
  158MOL0     C21229   6.387   9.660   4.176  0.1226  0.8847 -0.5704
  158MOL0     O21230   6.518   9.685   4.174  0.3793 -0.3177 -0.4599
  158MOL0     C21231   6.560   9.803   4.108 -0.0270  0.1921  0.0080
  158MOL0     C21232   6.705   9.837   4.122 -0.3171 -0.4477  0.4578
  158MOL0     C21233   6.741   9.945   4.016  1.3270  0.5754 -0.0750
  158MOL0     C21234   6.889  10.000   4.020 -1.0652  0.0467  0.0941
  158MOL0     C21235   6.911  10.136   3.941 -0.1639  0.8384 -0.2441
  158MOL0     C21236   7.058  10.167   3.947  0.5209  0.7033  0.0373
  158MOL0     C21237   7.078  10.293   3.865 -0.5267 -1.4168 -0.0402
  158MOL0     C21238   7.225  10.337   3.864  1.5518 -0.1648 -0.4383
  158MOL0    Cl21239   7.248  10.470   3.757 -0.5006 -0.2821  0.1869
  158MOL0     C21240   6.280   9.740   4.120  0.2392  0.8671 -0.6401
  158MOL0     C21241   6.144   9.707   4.144 -0.5026 -0.1891  0.4096
  158MOL0     O21242   5.961   9.765   4.379  0.1587  0.4685 -0.0710
  158MOL0     C21243   5.690   9.719   4.423  0.2132 -0.3436 -0.9510
  158MOL0     C21244   5.557   9.684   4.458  0.0510 -0.8380  1.1798
  158MOL0     N21245   4.950   9.180   4.402  0.1649  0.3735  0.1661
  158MOL0     N21246   4.870   9.121   4.323 -0.2815  0.0531 -0.2128
  158MOL0     C21247   3.638   8.548   4.281 -0.4956 -0.0746  0.3988
  158MOL0     C21248   3.528   8.464   4.277 -0.5948 -0.0192 -0.0150
  158MOL0     C21249   3.179   8.215   4.204  0.7303  0.6961 -0.2710
  158MOL0     C21250   3.079   8.245   4.105 -0.5697  0.1399  0.4945
  158MOL0     C21251   3.001   8.148   4.043 -0.1054  0.0026  0.7585
  158MOL0     C21252   3.007   8.018   4.087 -0.2868  0.5730 -0.5478
  158MOL0     O21253   2.931   7.913   4.041 -0.5064 -0.2060 -0.0952
  158MOL0     C21254   2.857   7.922   3.929  1.0834  0.0811 -0.7540
  158MOL0     C21255   2.777   7.799   3.898  0.4401 -0.4334  0.3628
  158MOL0     C21256   2.654   7.794   3.993  0.1378  0.1026  0.4840
  158MOL0     C21257   2.554   7.683   3.952  0.0729 -0.2967 -0.6729
  158MOL0     C21258   2.624   7.553   3.956  0.2227 -0.3029 -0.5963
  158MOL0     C21259   2.671   7.444   3.952  0.5391  1.4740 -0.1093
  158MOL0     C21260   3.098   7.983   4.189  0.7525  0.3335 -0.0737
  158MOL0     C21261   3.187   8.075   4.244  0.1793  0.0526 -0.0765
  158MOL0     C21262   3.295   8.022   4.344  0.0094 -0.6387  1.2050
  158MOL0     H21263   3.336   8.647   4.060 -1.8758 -0.5022  2.0628
  158MOL0     H21264   3.547   8.792   4.060 -0.6500 -2.5958 -2.8768
  158MOL0     H21265   3.886   8.715   4.363 -0.2087  0.2066  0.5070
  158MOL0     H21266   3.904   8.593   4.243 -0.3615  0.3454  1.1106
  158MOL0     H21267   3.947   8.891   4.179  0.1135 -0.2430 -0.4085
  158MOL0     H21268   4.006   8.761   4.082 -0.4910 -0.6145 -0.5764
  158MOL0     H21269   4.170   8.700   4.270 -2.0809 -1.0485 -0.5677
  158MOL0     H21270   4.084   8.828   4.376 -1.3951 -0.4468 -0.6033
  158MOL0     H21271   4.258   8.864   4.126  0.7040  1.6409  0.5351
  158MOL0     H21272   4.171   8.998   4.229 -0.0588  0.0020  3.8192
  158MOL0     H21273   4.316   8.937   4.409  1.1041  0.0355  0.7087
  158MOL0     H21274   4.371   8.810   4.303 -2.6298 -0.5947 -0.8943
  158MOL0     H21275   4.463   9.006   4.138 -0.9084  0.4269 -1.2373
  158MOL0     H21276   4.379   9.120   4.255  0.4306 -0.5056 -0.3394
  158MOL0     H21277   4.628   8.952   4.301 -0.4794 -0.4288 -4.6945
  158MOL0     H21278   4.566   9.062   4.423  1.9966 -0.6992  0.2237
  158MOL0     H21279   4.673   9.161   4.149 -0.7997  3.1756 -0.1795
  158MOL0     H21280   4.575   9.252   4.256 -1.6592 -0.3350 -0.1909
  158MOL0     H21281   4.715   9.393   4.449 -1.4455  0.3656 -0.7536
  158MOL0     H21282   4.909   9.485   4.563  0.2582 -0.0912 -0.9013
  158MOL0     H21283   4.981   9.342   4.644  1.3739  2.0136  1.5073
  158MOL0     H21284   5.167   9.348   4.469  1.7540  0.3247 -0.6604
  158MOL0     H21285   5.090   9.483   4.376  0.9012  0.0122  0.3119
  158MOL0     H21286   5.193   9.490   4.650  1.8690 -0.8719 -0.7801
  158MOL0     H21287   5.085   9.613   4.577 -1.3604 -0.0471 -2.6229
  158MOL0     H21288   5.310   9.680   4.577 -0.0496 -0.7036  1.4141
  158MOL0     H21289   5.243   9.670   4.411 -5.1211 -2.3788  0.5559
  158MOL0     H21290   5.564   9.375   4.310 -0.8147  1.4088 -4.4508
  158MOL0     H21291   5.782   9.418   4.295  0.6445 -0.5738 -0.7441
  158MOL0     H21292   6.180   9.453   4.364 -0.1701  0.8061  1.8108
  158MOL0     H21293   6.416   9.498   4.324 -1.0731 -1.1850 -1.2840
  158MOL0     H21294   6.540   9.792   4.001  5.1026 -1.4929 -1.0346
  158MOL0     H21295   6.510   9.895   4.140 -1.3152 -0.2564 -0.6356
  158MOL0     H21296   6.716   9.875   4.223 -1.4110 -0.7943  0.7217
  158MOL0     H21297   6.762   9.744   4.116  1.3042  0.5827 -0.9285
  158MOL0     H21298   6.726   9.897   3.919 -0.2485  1.7949 -0.4903
  158MOL0     H21299   6.671  10.029   4.013 -0.3059 -0.7307 -2.6225
  158MOL0     H21300   6.961   9.929   3.980 -0.5497  0.8579 -0.4286
  158MOL0     H21301   6.917  10.019   4.124  0.2123 -0.7351 -0.0817
  158MOL0     H21302   6.849  10.215   3.984 -1.6499 -0.3342 -0.1716
  158MOL0     H21303   6.884  10.112   3.838 -2.4255 -0.9901  0.6806
  158MOL0     H21304   7.081  10.189   4.052  0.2494 -0.7247  0.4120
  158MOL0     H21305   7.124  10.085   3.916 -1.2817 -1.2578  1.1616
  158MOL0     H21306   7.016  10.381   3.884 -1.3262 -1.6110 -1.6100
  158MOL0     H21307   7.065  10.260   3.762  2.5972 -1.8819 -0.3605
  158MOL0     H21308   7.247  10.389   3.958 -2.6805  1.6157 -0.2353
  158MOL0     H21309   7.282  10.250   3.832 -1.1542 -1.7782 -1.1824
  158MOL0     H21310   6.298   9.832   4.066 -0.2273  1.5445  0.3268
  158MOL0     H21311   6.071   9.774   4.099 -0.0420 -0.8478 -1.3970
  158MOL0     H21312   5.734   9.816   4.442  2.2186 -1.3970  0.1756
  158MOL0     H21313   5.497   9.764   4.501  1.6699  0.6637  0.7756
  158MOL0     H21314   3.725   8.504   4.328 -0.9239  0.7592  2.0358
  158MOL0     H21315   3.539   8.373   4.335  2.3935  1.6912  2.3881
  158MOL0     H21316   3.078   8.350   4.077  0.4560  0.6808  2.2696
  158MOL0     H21317   2.929   8.173   3.965  3.2942  0.8659 -2.4094
  158MOL0     H21318   2.928   7.942   3.849  0.4922 -0.7207 -1.4985
  158MOL0     H21319   2.788   8.005   3.951  0.1454 -1.2906  1.9485
  158MOL0     H21320   2.843   7.711   3.901  0.9321 -0.1677 -1.6293
  158MOL0     H21321   2.747   7.804   3.793 -1.7589 -2.7951  0.7784
  158MOL0     H21322   2.599   7.889   3.990 -0.6619 -0.3592 -2.7469
  158MOL0     H21323   2.695   7.774   4.093 -1.7268 -0.9664  1.0764
  158MOL0     H21324   2.466   7.665   4.014 -0.3734  0.3934 -1.0992
  158MOL0     H21325   2.520   7.693   3.849  0.2729  0.4854 -0.6743
  158MOL0     H21326   2.724   7.352   3.950 -0.4582  0.8698  0.5280
  158MOL0     H21327   3.089   7.885   4.235 -0.1725  1.7690  2.9821
  158MOL0     H21328   3.291   7.914   4.330 -1.2224 -0.3384 -1.1875
  158MOL0     H21329   3.393   8.061   4.318 -1.6660  1.8859 -2.0099
  158MOL0     H21330   3.260   8.042   4.446  1.9305  2.7018  1.3625
  159MOL0     O21331   6.859  10.044   4.401 -0.2403  0.0282  0.3043
  159MOL0     C21332   6.938  10.008   4.494 -0.0455  0.0873  0.0473
  159MOL0     O21333   6.894   9.953   4.607  0.5880 -0.3036 -0.4634
  159MOL0     C21334   6.764   9.907   4.618 -0.3035  0.6740  0.2480
  159MOL0     C21335   6.680   9.940   4.718  0.1702 -0.4444 -0.0010
  159MOL0     C21336   6.549   9.904   4.716  0.4328  0.6509  0.5605
  159MOL0     C21337   6.478   9.834   4.611 -0.4308  0.7320 -0.4112
  159MOL0     O21338   6.345   9.803   4.603  0.5771 -0.0488 -0.3217
  159MOL0     C21339   6.275   9.775   4.727  0.1863  0.0684  0.5573
  159MOL0     C21340   6.119   9.756   4.699  0.4620 -0.2918  1.0416
  159MOL0     C21341   6.037   9.734   4.820  0.4475  0.0600  0.4960
  159MOL0     C21342   5.898   9.681   4.787 -0.4986  0.0124  0.2819
  159MOL0     C21343   5.807   9.666   4.905 -1.4510 -1.0909 -0.5203
  159MOL0     C21344   5.665   9.625   4.866  0.4956 -0.3850  0.8481
  159MOL0     C21345   5.667   9.514   4.771  0.7351 -0.2109  0.3770
  159MOL0     C21346   5.544   9.431   4.777  0.0651 -0.2327  0.2440
  159MOL0     N21347   5.542   9.350   4.895  0.3168  0.1220  0.0921
  159MOL0     C21348   5.638   9.260   4.930 -0.1935 -0.0152 -0.2794
  159MOL0     C21349   5.602   9.239   5.063 -0.0368 -0.9361 -0.0878
  159MOL0     C21350   5.692   9.181   5.161  0.1071  0.1381 -0.1259
  159MOL0     C21351   5.790   9.266   5.231 -0.5356  0.3345 -1.1094
  159MOL0     C21352   5.902   9.311   5.142 -1.4728 -0.1447 -0.0142
  159MOL0     C21353   6.008   9.382   5.220 -0.7325  0.3873  0.3557
  159MOL0     O21354   6.074   9.478   5.138  0.0540 -0.2895  0.3552
  159MOL0     C21355   6.215   9.473   5.138  0.1729 -0.7568 -0.6371
  159MOL0     C21356   6.284   9.479   5.026  0.1563 -0.4279  0.0231
  159MOL0     C21357   6.421   9.490   5.032 -0.0244  0.0847 -0.6642
  159MOL0     C21358   6.487   9.527   5.150 -1.3981 -0.3209 -0.0874
  159MOL0     C21359   6.639   9.545   5.158  0.8683 -0.1625  0.2460
  159MOL0     O21360   6.710   9.530   5.044 -0.0695 -0.0435  0.3262
  159MOL0     C21361   6.831   9.588   5.034 -0.5242 -0.1287 -0.0897
  159MOL0     C21362   6.834   9.702   4.953 -0.1844  0.1337 -0.9467
  159MOL0     C21363   6.951   9.777   4.942  0.3212 -0.1176 -0.4647
  159MOL0     C21364   7.074   9.725   5.000 -0.7470 -0.1530 -0.8497
  159MOL0     O21365   7.191   9.796   4.993 -0.5853  0.8522  0.3256
  159MOL0     C21366   7.189   9.930   4.937  0.4202 -0.5264 -0.4371
  159MOL0     C21367   7.336   9.987   4.951 -0.4093  0.1058  0.1980
  159MOL0     C21368   7.346  10.137   4.923  0.8732 -0.3497 -0.8068
  159MOL0     C21369   7.479  10.198   4.975 -0.7354  0.2060 -0.1734
  159MOL0     C21370   7.504  10.341   4.950  0.2131 -0.1230 -0.4289
  159MOL0     C21371   7.523  10.389   4.807  0.3665 -0.0756  0.0514
  159MOL0     C21372   7.668  10.393   4.759  0.7588  0.3324 -0.0983
  159MOL0     C21373   7.665  10.486   4.642 -0.2372  0.3821  0.2337
  159MOL0    Cl21374   7.823  10.474   4.549  0.3876 -0.2991  0.2993
  159MOL0     C21375   7.064   9.609   5.083 -0.3292  0.5549 -0.0288
  159MOL0     C21376   6.941   9.543   5.105 -0.0777 -0.4574  0.1960
  159MOL0     O21377   6.689   9.586   5.268  0.1029  0.6019  0.2976
  159MOL0     C21378   6.401   9.536   5.270  0.1623  0.3472  0.3912
  159MOL0     C21379   6.267   9.497   5.268 -0.7615  0.2732  0.1582
  159MOL0     N21380   5.476   9.291   5.086  0.2813  0.3763  0.6104
  159MOL0     N21381   5.440   9.353   4.990  0.4960  0.3493  0.4260
  159MOL0     C21382   6.561   9.810   4.499  1.1122 -0.7554 -0.1765
  159MOL0     C21383   6.702   9.834   4.513 -0.1271 -0.5558  0.4642
  159MOL0     C21384   7.082  10.044   4.479  0.5241 -0.4705  0.2834
  159MOL0     C21385   7.172   9.945   4.516  0.4939 -0.2088  0.6019
  159MOL0     C21386   7.310   9.963   4.501  0.5011  0.2214  0.0719
  159MOL0     C21387   7.353  10.085   4.454 -0.5119 -1.0595 -0.6398
  159MOL0     O21388   7.484  10.118   4.428 -0.4440 -0.2037  0.4364
  159MOL0     C21389   7.578  10.029   4.485 -0.3351  0.0593  0.4345
  159MOL0     C21390   7.723  10.087   4.462  0.1446 -1.0514 -0.0022
  159MOL0     C21391   7.833   9.975   4.450  1.5327 -0.9308  0.3983
  159MOL0     C21392   7.973  10.033   4.446 -0.9988  0.6968  0.6162
  159MOL0     C21393   8.009  10.106   4.323  0.0311  0.0646  0.1573
  159MOL0     C21394   8.011  10.157   4.214 -0.4196  0.8513  0.5276
  159MOL0     C21395   7.265  10.180   4.415  0.4800 -0.4021 -0.3993
  159MOL0     C21396   7.125  10.167   4.425  0.1874 -0.1111  0.2916
  159MOL0     C21397   7.029  10.289   4.405 -0.1817 -0.1241  0.0912
  159MOL0     H21398   6.714   9.999   4.803 -0.0806  0.1577 -0.3112
  159MOL0     H21399   6.508   9.924   4.814 -1.2547  2.6423 -0.4735
  159MOL0     H21400   6.307   9.678   4.765 -0.6091 -1.5298 -2.5291
  159MOL0     H21401   6.296   9.845   4.809  1.8719 -0.5251  0.6658
  159MOL0     H21402   6.112   9.669   4.633  1.9703  1.7759 -2.0866
  159MOL0     H21403   6.084   9.844   4.645 -0.7514 -1.8649 -0.8527
  159MOL0     H21404   6.029   9.818   4.890  2.3737 -0.3339  1.2564
  159MOL0     H21405   6.085   9.655   4.878 -1.6071 -1.6175  0.0465
  159MOL0     H21406   5.864   9.750   4.709  2.2131  0.3337 -0.7200
  159MOL0     H21407   5.910   9.576   4.758  2.0040  0.5478 -0.8410
  159MOL0     H21408   5.850   9.593   4.974  3.6354  0.4220 -1.7282
  159MOL0     H21409   5.792   9.765   4.950 -0.1417 -0.6617 -0.9943
  159MOL0     H21410   5.607   9.596   4.954 -1.4222 -0.0197 -0.2275
  159MOL0     H21411   5.615   9.709   4.817  1.3150 -0.7207 -0.6237
  159MOL0     H21412   5.757   9.453   4.785  1.3775  0.7271  0.3981
  159MOL0     H21413   5.660   9.554   4.670 -1.9142 -1.0792  0.1496
  159MOL0     H21414   5.456   9.495   4.783 -1.2575 -2.0047  0.5293
  159MOL0     H21415   5.542   9.374   4.683 -2.7524  1.9528 -1.1487
  159MOL0     H21416   5.734   9.236   4.886  0.6606  1.5093  0.6413
  159MOL0     H21417   5.620   9.146   5.236 -0.1749  3.1187  1.1135
  159MOL0     H21418   5.740   9.097   5.109 -1.4178 -1.7605  1.3960
  159MOL0     H21419   5.737   9.349   5.279  0.3539 -0.9867  2.5109
  159MOL0     H21420   5.838   9.216   5.315 -3.1925  1.3244  1.1721
  159MOL0     H21421   5.858   9.381   5.070 -1.3822  1.0605  1.0883
  159MOL0     H21422   5.942   9.227   5.084  2.3239  1.7683 -0.5024
  159MOL0     H21423   6.081   9.305   5.243  1.3265  0.7670 -3.9853
  159MOL0     H21424   5.960   9.427   5.308 -1.7349 -0.8259  0.4626
  159MOL0     H21425   6.218   9.461   4.942 -3.9358  3.1272  2.1047
  159MOL0     H21426   6.488   9.484   4.947  3.6619 -0.3545  1.9848
  159MOL0     H21427   6.750   9.720   4.887  1.3744 -2.0468 -3.6946
  159MOL0     H21428   6.946   9.862   4.875  1.8230  0.5943  0.2778
  159MOL0     H21429   7.169   9.938   4.830 -3.3965 -0.8256  0.1362
  159MOL0     H21430   7.113   9.991   4.987  1.5490  1.8792 -1.4823
  159MOL0     H21431   7.364   9.955   5.051 -0.0363 -0.7830 -0.1807
  159MOL0     H21432   7.406   9.935   4.885  1.4227  0.3743  1.8693
  159MOL0     H21433   7.321  10.158   4.819  0.1993  1.5257 -0.3053
  159MOL0     H21434   7.267  10.180   4.986 -1.9213 -2.8832 -2.3236
  159MOL0     H21435   7.561  10.137   4.936 -0.5624 -0.3744  1.0600
  159MOL0     H21436   7.490  10.193   5.083  1.2608  0.4309 -0.3214
  159MOL0     H21437   7.585  10.373   5.015 -1.9484  0.8065  1.9781
  159MOL0     H21438   7.424  10.403   4.991  0.2533 -0.2816 -0.1136
  159MOL0     H21439   7.470  10.325   4.735 -0.5427  1.1947 -0.4527
  159MOL0     H21440   7.475  10.487   4.805  1.9213  0.8340  2.6178
  159MOL0     H21441   7.708  10.300   4.717  0.8329  1.0985 -1.7862
  159MOL0     H21442   7.729  10.438   4.838  0.9937  1.6747 -1.0176
  159MOL0     H21443   7.587  10.445   4.578  0.3302  0.1946 -0.3520
  159MOL0     H21444   7.633  10.585   4.676 -0.3935 -0.1782  1.7622
  159MOL0     H21445   7.151   9.553   5.117 -0.2183  0.6221 -0.2039
  159MOL0     H21446   6.952   9.446   5.153 -0.3004 -1.9622 -2.5329
  159MOL0     H21447   6.446   9.562   5.366  0.0764 -2.2170  1.1935
  159MOL0     H21448   6.202   9.510   5.354 -0.4086 -0.7916  0.5981
  159MOL0     H21449   6.512   9.780   4.407 -0.6879  1.2321  0.0689
  159MOL0     H21450   6.763   9.802   4.429  0.8052  1.7958  0.1800
  159MOL0     H21451   7.135   9.850   4.551  1.4929 -1.3286 -1.2267
  159MOL0     H21452   7.374   9.880   4.531 -0.1756  0.3593  2.0362
  159MOL0     H21453   7.561   9.936   4.431  0.5385 -0.5829  1.2370
  159MOL0     H21454   7.565  10.004   4.591  1.3282 -2.1953  0.1811
  159MOL0     H21455   7.738  10.161   4.541 -0.3906 -0.9316 -0.0080
  159MOL0     H21456   7.713  10.139   4.367 -2.1703 -2.0456 -0.3583
  159MOL0     H21457   7.809   9.913   4.363 -1.4453  0.2175  0.3114
  159MOL0     H21458   7.825   9.914   4.541 -0.2090  0.5153  1.2583
  159MOL0     H21459   7.981  10.106   4.527 -0.0656  3.1459 -1.5372
  159MOL0     H21460   8.041   9.949   4.463 -0.5366  1.1982  1.3079
  159MOL0     H21461   8.022  10.187   4.112 -0.1406  0.3343  0.4029
  159MOL0     H21462   7.296  10.279   4.382 -0.6180 -0.7967 -2.8573
  159MOL0     H21463   6.998  10.288   4.301 -3.8838 -1.7201  1.0515
  159MOL0     H21464   6.938  10.291   4.467  0.6842 -0.4308  1.4213
  159MOL0     H21465   7.088  10.382   4.408  1.6035 -1.2068 -0.2052
  160MOL0     O21466   0.866   4.615   3.325  0.6788 -0.6027  0.1600
  160MOL0     C21467   0.773   4.564   3.264  0.2434  0.3927 -0.1337
  160MOL0     O21468   0.742   4.578   3.132 -0.6098 -0.8400  0.7631
  160MOL0     C21469   0.832   4.648   3.061 -0.5870  0.0171 -0.3438
  160MOL0     C21470   0.965   4.617   3.051 -0.4295  0.8414  0.3614
  160MOL0     C21471   1.054   4.689   2.969 -0.2557  0.0223  0.6274
  160MOL0     C21472   1.008   4.795   2.900  1.1852  0.6034  0.9064
  160MOL0     O21473   1.086   4.877   2.818 -0.7998  0.0614  0.4214
  160MOL0     C21474   1.217   4.829   2.783  0.3372 -0.0295 -1.5908
  160MOL0     C21475   1.281   4.942   2.713  0.3470  0.2685  0.2859
  160MOL0     C21476   1.434   4.916   2.704 -0.6575  0.1011 -0.5496
  160MOL0     C21477   1.478   4.819   2.596 -0.1227  1.1606  0.2648
  160MOL0     C21478   1.627   4.772   2.623  0.6759 -0.9084  0.2074
  160MOL0     C21479   1.727   4.851   2.533 -0.5861  1.2687  0.2409
  160MOL0     C21480   1.873   4.824   2.576  0.1074 -0.4546 -0.2442
  160MOL0     C21481   1.965   4.887   2.473  1.2351  0.4404  0.3188
  160MOL0     N21482   2.107   4.885   2.522  0.7244 -1.0426 -0.1916
  160MOL0     C21483   2.165   4.811   2.619  0.1758  1.0382 -0.1733
  160MOL0     C21484   2.283   4.864   2.637  0.4072 -0.1024 -0.1608
  160MOL0     C21485   2.377   4.826   2.748  0.4834  0.1867 -0.1680
  160MOL0     C21486   2.509   4.910   2.736 -0.1294 -0.3038  0.2256
  160MOL0     C21487   2.610   4.882   2.836  0.1987  0.3168  0.7316
  160MOL0     C21488   2.719   4.990   2.837 -0.4665 -0.7555 -0.2085
  160MOL0     O21489   2.790   4.987   2.966 -0.0446  0.3260  0.4846
  160MOL0     C21490   2.910   5.057   2.957  0.5562 -0.1240  0.0008
  160MOL0     C21491   2.999   5.032   2.851 -1.1231 -0.2499 -0.1543
  160MOL0     C21492   3.104   5.132   2.826 -0.2497  0.1227  0.5862
  160MOL0     C21493   3.117   5.250   2.902  0.3938  1.3993  0.4574
  160MOL0     C21494   3.236   5.334   2.881 -0.7658 -0.5450  0.7448
  160MOL0     O21495   3.297   5.389   2.990 -0.9662  0.7458  0.3693
  160MOL0     C21496   3.420   5.452   2.983 -0.6696  0.0679  0.0354
  160MOL0     C21497   3.447   5.557   3.075  0.6986  0.1787  0.6110
  160MOL0     C21498   3.569   5.620   3.082 -0.1677  0.7698 -0.1533
  160MOL0     C21499   3.664   5.583   2.992 -0.0728 -0.5572  0.2505
  160MOL0     O21500   3.781   5.661   2.994 -0.4239 -0.1462 -0.2298
  160MOL0     C21501   3.891   5.612   2.916 -0.3242  0.1128 -0.3352
  160MOL0     C21502   3.902   5.667   2.774  0.0499 -0.4821  0.0003
  160MOL0     C21503   4.040   5.666   2.721 -0.8374 -0.3538 -0.9026
  160MOL0     C21504   4.066   5.718   2.581 -0.2201  0.0940 -0.3841
  160MOL0     C21505   4.205   5.714   2.527  0.2237  0.1932 -0.3706
  160MOL0     C21506   4.200   5.743   2.377 -0.3277 -0.0658 -0.2078
  160MOL0     C21507   4.323   5.796   2.311  0.2330  0.0243  0.3048
  160MOL0     C21508   4.344   5.944   2.343 -0.4657 -0.5157  0.0879
  160MOL0    Cl21509   4.238   6.044   2.232  0.5052  0.1651  0.5890
  160MOL0     C21510   3.637   5.482   2.899  0.5038 -0.2845 -0.0916
  160MOL0     C21511   3.520   5.416   2.894  0.3580  0.2602 -0.6551
  160MOL0     O21512   3.272   5.348   2.761  0.3662  0.6012 -0.1496
  160MOL0     C21513   3.035   5.259   3.012 -1.2234  0.0669 -0.6888
  160MOL0     C21514   2.929   5.174   3.036  0.1857  0.1725 -0.0201
  160MOL0     N21515   2.297   4.978   2.556  0.1275  0.4781 -0.1228
  160MOL0     N21516   2.188   4.988   2.481  0.1269  0.1078 -0.0746
  160MOL0     C21517   0.877   4.842   2.915 -0.1114 -0.3273  0.6192
  160MOL0     C21518   0.790   4.767   2.994 -0.0606 -0.5586 -0.5968
  160MOL0     C21519   0.678   4.473   3.347 -0.6364 -0.6451  0.6503
  160MOL0     C21520   0.639   4.350   3.292 -0.7004  0.1677 -0.2732
  160MOL0     C21521   0.558   4.256   3.366  0.3624  0.3376 -0.4109
  160MOL0     C21522   0.512   4.290   3.498 -0.7608 -0.0942 -0.6615
  160MOL0     O21523   0.438   4.196   3.572 -0.0811 -0.1193 -0.2419
  160MOL0     C21524   0.385   4.242   3.697 -0.2642  0.2209 -0.5299
  160MOL0     C21525   0.337   4.134   3.787 -1.1431 -0.6583 -0.3626
  160MOL0     C21526   0.223   4.055   3.735 -0.0125  0.6977  0.5212
  160MOL0     C21527   0.180   3.948   3.836  0.4358 -0.3141  0.5115
  160MOL0     C21528   0.044   3.896   3.813 -0.1219 -1.4977  1.4027
  160MOL0     C21529  -0.051   3.831   3.783  0.3165  0.0357  0.1145
  160MOL0     C21530   0.545   4.418   3.554  0.8633  0.1932 -0.0560
  160MOL0     C21531   0.626   4.506   3.477 -0.7907 -0.8580  0.5220
  160MOL0     C21532   0.660   4.636   3.540 -0.3082 -0.5558 -0.6615
  160MOL0     H21533   1.011   4.532   3.100  0.9593  1.2741 -0.1246
  160MOL0     H21534   1.157   4.656   2.956 -0.1810  1.0249 -1.8865
  160MOL0     H21535   1.278   4.808   2.872  0.3608  0.7464 -1.4155
  160MOL0     H21536   1.211   4.744   2.715  0.3626 -0.9550 -0.4742
  160MOL0     H21537   1.263   5.032   2.772 -0.0010  1.1467 -1.1256
  160MOL0     H21538   1.244   4.955   2.611  0.7180 -1.3699 -0.0958
  160MOL0     H21539   1.492   4.896   2.795  2.6903  1.7393 -2.1237
  160MOL0     H21540   1.482   5.008   2.670 -0.3719 -0.7247 -2.4766
  160MOL0     H21541   1.425   4.725   2.609  1.1192  0.5557  1.2373
  160MOL0     H21542   1.458   4.866   2.499  0.0093  1.8268  0.5524
  160MOL0     H21543   1.655   4.761   2.728 -0.2960 -1.7104  0.4092
  160MOL0     H21544   1.619   4.666   2.596  0.4620 -0.6547 -0.7467
  160MOL0     H21545   1.708   4.815   2.431  4.3359 -1.1207 -0.1162
  160MOL0     H21546   1.708   4.957   2.547 -1.5406  1.1034  0.2537
  160MOL0     H21547   1.898   4.718   2.586 -3.6253 -1.6312 -1.7903
  160MOL0     H21548   1.894   4.875   2.671  3.0640 -0.3742 -0.8282
  160MOL0     H21549   1.961   4.829   2.380 -0.9186 -1.9982  1.7828
  160MOL0     H21550   1.947   4.991   2.444  3.4042  0.8653  0.2777
  160MOL0     H21551   2.140   4.715   2.662  3.0476 -0.4583 -1.4932
  160MOL0     H21552   2.330   4.831   2.847 -0.5797 -0.1550 -0.6453
  160MOL0     H21553   2.412   4.722   2.744  0.4687  0.1666  0.1831
  160MOL0     H21554   2.539   4.901   2.632 -0.5199 -0.9590  0.1605
  160MOL0     H21555   2.468   5.009   2.755 -1.1067 -0.4847 -0.8522
  160MOL0     H21556   2.656   4.787   2.808  1.1974  1.0965 -0.3411
  160MOL0     H21557   2.565   4.856   2.932  1.0449 -4.3764  0.0643
  160MOL0     H21558   2.687   5.093   2.820  2.0178  0.0128 -0.4865
  160MOL0     H21559   2.787   4.965   2.755 -0.8790 -0.5137 -0.6326
  160MOL0     H21560   3.005   4.944   2.787  3.2981 -0.6173  0.4964
  160MOL0     H21561   3.176   5.128   2.746  0.4376 -2.7981  1.2338
  160MOL0     H21562   3.373   5.570   3.154  0.5028  1.7530  0.2080
  160MOL0     H21563   3.595   5.692   3.159 -1.6469  1.8756 -0.6445
  160MOL0     H21564   3.978   5.659   2.962  0.3279 -1.7978  0.4922
  160MOL0     H21565   3.911   5.505   2.923  3.5136  0.5135 -2.6918
  160MOL0     H21566   3.836   5.604   2.714 -0.7681 -2.2086  2.5376
  160MOL0     H21567   3.857   5.765   2.761  0.1018 -0.5784 -1.0696
  160MOL0     H21568   4.103   5.724   2.790  1.5265 -0.9584 -2.4416
  160MOL0     H21569   4.067   5.560   2.723 -2.8814 -0.9104  0.2372
  160MOL0     H21570   4.036   5.823   2.573 -0.8300 -0.1261 -1.1783
  160MOL0     H21571   4.000   5.658   2.517 -1.0045  0.2190  0.2851
  160MOL0     H21572   4.234   5.611   2.551 -3.0159 -0.5260  0.9025
  160MOL0     H21573   4.266   5.785   2.584 -0.0119 -0.8300  1.2408
  160MOL0     H21574   4.182   5.645   2.332  0.1112  0.1796 -0.9551
  160MOL0     H21575   4.120   5.814   2.354  0.8051  1.6781  0.9925
  160MOL0     H21576   4.323   5.785   2.202 -1.8048 -2.3981  0.4639
  160MOL0     H21577   4.413   5.743   2.342  0.3770 -1.0839 -1.7841
  160MOL0     H21578   4.337   5.970   2.450 -1.1856  1.0976 -0.3202
  160MOL0     H21579   4.448   5.967   2.319 -0.6039 -0.1592 -0.1622
  160MOL0     H21580   3.713   5.451   2.829 -0.1715 -0.1630 -0.8928
  160MOL0     H21581   3.521   5.337   2.820  3.1422 -1.8599  1.4279
  160MOL0     H21582   3.038   5.343   3.081 -2.5579 -0.4934  0.0968
  160MOL0     H21583   2.854   5.191   3.113 -0.4063  0.3104 -0.6176
  160MOL0     H21584   0.862   4.930   2.853  3.3663 -1.2766 -1.8696
  160MOL0     H21585   0.689   4.801   3.015 -0.1735 -1.4985  0.4055
  160MOL0     H21586   0.672   4.315   3.195  0.8743  1.0369 -0.0948
  160MOL0     H21587   0.523   4.162   3.324  1.9303  0.6057 -2.4881
  160MOL0     H21588   0.320   4.329   3.684  2.4164  2.1358 -2.2022
  160MOL0     H21589   0.460   4.283   3.765 -0.9582 -0.4836  0.6900
  160MOL0     H21590   0.301   4.183   3.878  1.7766  0.2789  0.4230
  160MOL0     H21591   0.421   4.069   3.813  0.9005  1.5828 -0.9699
  160MOL0     H21592   0.250   4.001   3.643 -4.1129  3.2357 -2.4704
  160MOL0     H21593   0.145   4.125   3.706  0.2989  0.6266 -0.5209
  160MOL0     H21594   0.248   3.863   3.834 -2.0721 -2.4318 -1.0405
  160MOL0     H21595   0.184   4.002   3.931  0.5608  1.2359 -0.3402
  160MOL0     H21596  -0.127   3.762   3.754  0.2615  0.2697 -0.2951
  160MOL0     H21597   0.511   4.444   3.653  2.3952 -2.9362  1.4330
  160MOL0     H21598   0.582   4.662   3.612 -0.0421 -2.5420  0.4279
  160MOL0     H21599   0.754   4.630   3.594  0.4141  0.2871 -1.7720
  160MOL0     H21600   0.673   4.723   3.475  1.2628 -0.1853  0.1318
  161MOL0     O21601   0.069   3.005   5.026 -0.7422  0.4001 -0.5401
  161MOL0     C21602  -0.015   2.986   4.939  0.5722  0.0092  0.0906
  161MOL0     O21603   0.009   2.992   4.810 -0.7113  0.0183  0.0282
  161MOL0     C21604   0.146   3.017   4.779 -0.4244  0.3912 -0.1971
  161MOL0     C21605   0.186   3.147   4.781  0.4342 -0.1725  0.2217
  161MOL0     C21606   0.317   3.178   4.756 -0.9662  0.0634  0.4391
  161MOL0     C21607   0.414   3.084   4.726  0.8308  0.4430  0.1360
  161MOL0     O21608   0.550   3.122   4.710  0.7846  0.0466 -0.4255
  161MOL0     C21609   0.649   3.024   4.740 -0.0351 -0.8149 -0.9103
  161MOL0     C21610   0.762   3.035   4.641 -0.3750 -0.4937 -0.6611
  161MOL0     C21611   0.726   2.997   4.499  0.9728 -0.3938  0.1422
  161MOL0     C21612   0.748   2.852   4.455 -0.8563  0.4956  0.3317
  161MOL0     C21613   0.898   2.823   4.437  0.3272 -0.5164 -0.6572
  161MOL0     C21614   0.924   2.697   4.359 -0.2358  0.0778  1.0128
  161MOL0     C21615   1.078   2.681   4.342  0.3629  0.0723  0.2194
  161MOL0     C21616   1.119   2.587   4.226  0.6831 -0.0904 -0.6693
  161MOL0     N21617   1.107   2.665   4.097  0.5220  0.3443 -0.5861
  161MOL0     C21618   1.175   2.635   3.979 -0.1172 -0.4285 -0.2903
  161MOL0     C21619   1.143   2.727   3.888 -0.1549 -0.3914 -0.6674
  161MOL0     C21620   1.199   2.718   3.746  0.1640 -0.3095 -0.1035
  161MOL0     C21621   1.132   2.820   3.659 -0.0625  0.0647  0.5495
  161MOL0     C21622   1.198   2.954   3.687 -0.5640 -0.2741  0.7389
  161MOL0     C21623   1.340   2.979   3.635 -0.4488 -0.6899 -0.1666
  161MOL0     O21624   1.441   2.910   3.717 -0.1734 -0.1908  0.2304
  161MOL0     C21625   1.572   2.914   3.676 -0.8717 -0.4338  0.1069
  161MOL0     C21626   1.656   2.848   3.758 -0.4136  0.8426  0.4603
  161MOL0     C21627   1.795   2.839   3.741 -0.1508  0.1641  0.7746
  161MOL0     C21628   1.854   2.915   3.636 -0.5666 -0.8145  0.0508
  161MOL0     C21629   2.003   2.919   3.623  0.5346  0.0282  0.4104
  161MOL0     O21630   2.080   2.908   3.732 -0.5179 -0.2423  0.3315
  161MOL0     C21631   2.213   2.882   3.716  0.4109  0.7954  0.4125
  161MOL0     C21632   2.242   2.749   3.655 -0.2169  0.4439 -1.0606
  161MOL0     C21633   2.371   2.711   3.644  0.1080 -0.8465  0.7438
  161MOL0     C21634   2.479   2.790   3.690 -0.4081 -0.8400  0.2710
  161MOL0     O21635   2.598   2.729   3.670 -0.5285  0.6317  0.4336
  161MOL0     C21636   2.712   2.796   3.724  0.3864  0.0534  0.2373
  161MOL0     C21637   2.829   2.717   3.675 -0.1070 -0.9052  0.7676
  161MOL0     C21638   2.971   2.768   3.703 -0.3681 -0.4091  0.8359
  161MOL0     C21639   3.078   2.694   3.625  0.1282 -0.2196  0.4496
  161MOL0     C21640   3.228   2.726   3.662  0.4942 -0.7463 -0.5520
  161MOL0     C21641   3.319   2.606   3.624 -0.4389  0.3917  0.7869
  161MOL0     C21642   3.319   2.572   3.466  0.3931 -0.6345 -0.0025
  161MOL0     C21643   3.378   2.692   3.387  0.1649 -0.8123  0.5402
  161MOL0    Cl21644   3.365   2.653   3.214 -0.5550 -0.2452  0.2502
  161MOL0     C21645   2.455   2.914   3.756 -0.4170  0.3272  0.3358
  161MOL0     C21646   2.322   2.961   3.768 -0.1339 -0.0527  0.3139
  161MOL0     O21647   2.041   2.938   3.510  0.4005 -0.1223  0.4846
  161MOL0     C21648   1.762   2.971   3.539  0.1334  0.1736  0.6220
  161MOL0     C21649   1.625   2.981   3.562  0.1054 -0.4060 -0.1864
  161MOL0     N21650   1.049   2.808   3.946  0.2389 -0.3372 -1.3289
  161MOL0     N21651   1.033   2.776   4.067  0.2951 -0.1929 -0.3549
  161MOL0     C21652   0.369   2.949   4.718 -0.1739 -0.0728 -0.0463
  161MOL0     C21653   0.242   2.911   4.753  0.5672  0.2957 -1.2459
  161MOL0     C21654  -0.149   2.930   4.975 -0.4629 -0.9782 -0.3295
  161MOL0     C21655  -0.238   2.904   4.863  0.3457 -0.2028 -0.6192
  161MOL0     C21656  -0.364   2.863   4.889 -0.2265 -0.5489  0.1057
  161MOL0     C21657  -0.413   2.852   5.017  0.4113  0.5995  0.4368
  161MOL0     O21658  -0.539   2.793   5.030  0.2001 -0.0109 -0.3970
  161MOL0     C21659  -0.638   2.871   5.110  0.4238 -0.9642  0.3642
  161MOL0     C21660  -0.773   2.815   5.066  0.3772 -0.3901  1.5272
  161MOL0     C21661  -0.788   2.836   4.915  0.3611 -0.2788  0.1772
  161MOL0     C21662  -0.902   2.763   4.855  0.4616 -0.0415  1.0131
  161MOL0     C21663  -0.880   2.756   4.709 -0.7881 -0.3275  0.8942
  161MOL0     C21664  -0.856   2.735   4.594 -1.1752 -0.5388  0.6855
  161MOL0     C21665  -0.338   2.892   5.125 -0.0460 -0.4902 -0.1349
  161MOL0     C21666  -0.202   2.927   5.106  0.0341 -0.2640 -0.1030
  161MOL0     C21667  -0.127   2.953   5.234 -1.0135 -0.1837 -0.6006
  161MOL0     H21668   0.119   3.225   4.815  0.8947 -1.0856  3.6105
  161MOL0     H21669   0.347   3.279   4.782 -2.4128  0.8867 -0.8778
  161MOL0     H21670   0.687   3.041   4.841 -0.3707 -1.0374 -0.7427
  161MOL0     H21671   0.622   2.918   4.734 -0.3819 -0.8567  0.9115
  161MOL0     H21672   0.846   2.971   4.672  1.3051  0.7787 -2.3041
  161MOL0     H21673   0.799   3.138   4.634 -0.4775 -0.5240 -1.8057
  161MOL0     H21674   0.776   3.067   4.432 -1.6429  2.0013  0.4815
  161MOL0     H21675   0.619   3.020   4.491  1.1349  0.0874 -0.7159
  161MOL0     H21676   0.702   2.775   4.517 -1.2312  1.2181  0.9763
  161MOL0     H21677   0.702   2.836   4.357  0.5697 -1.9812 -0.0148
  161MOL0     H21678   0.941   2.909   4.385 -2.3393  0.6216 -1.1247
  161MOL0     H21679   0.950   2.825   4.534  0.9534  2.9766 -0.9373
  161MOL0     H21680   0.883   2.616   4.421 -2.2402  0.6739  0.5472
  161MOL0     H21681   0.874   2.705   4.262  0.0148  0.8387  0.9423
  161MOL0     H21682   1.117   2.632   4.432  1.3351 -0.2971 -0.3858
  161MOL0     H21683   1.122   2.778   4.315 -1.0142  1.5251  2.7679
  161MOL0     H21684   1.225   2.560   4.233  0.5679 -0.8094 -1.4570
  161MOL0     H21685   1.058   2.496   4.221  0.7105 -0.0707 -1.5308
  161MOL0     H21686   1.246   2.555   3.964 -1.7810 -2.2664  0.9999
  161MOL0     H21687   1.307   2.726   3.758 -0.0640  1.1100  1.4604
  161MOL0     H21688   1.184   2.615   3.711  0.7431 -0.0518 -1.1343
  161MOL0     H21689   1.144   2.792   3.554 -1.8536 -1.0088  0.5816
  161MOL0     H21690   1.024   2.822   3.678  0.0979 -1.8499  2.0944
  161MOL0     H21691   1.199   2.972   3.795  2.6678 -0.9824  0.9291
  161MOL0     H21692   1.145   3.034   3.634 -1.5158 -1.1683  0.3207
  161MOL0     H21693   1.364   3.085   3.621  0.0884 -0.7545  0.2349
  161MOL0     H21694   1.333   2.931   3.538 -2.4739 -0.5796 -0.1192
  161MOL0     H21695   1.602   2.818   3.847 -3.1392 -0.5436 -1.4912
  161MOL0     H21696   1.855   2.784   3.812 -1.5233 -0.0947  1.7760
  161MOL0     H21697   2.158   2.688   3.624 -0.3231 -0.2535  0.5235
  161MOL0     H21698   2.405   2.621   3.594  0.8581  0.3733 -1.0216
  161MOL0     H21699   2.718   2.901   3.694  1.2077  0.2150  0.9377
  161MOL0     H21700   2.707   2.790   3.833 -0.3376  1.9621  0.3328
  161MOL0     H21701   2.829   2.622   3.729 -1.9444 -0.5689  1.4364
  161MOL0     H21702   2.812   2.706   3.568  0.2336  1.8153  0.3444
  161MOL0     H21703   2.973   2.876   3.683  1.3071 -0.3387  1.1919
  161MOL0     H21704   2.993   2.750   3.808  5.8244 -1.1823 -0.2032
  161MOL0     H21705   3.064   2.717   3.519 -2.1110  1.9753  1.1184
  161MOL0     H21706   3.059   2.587   3.631  1.1956 -0.3723  1.3697
  161MOL0     H21707   3.237   2.750   3.768 -0.2998  1.6291 -0.9721
  161MOL0     H21708   3.262   2.821   3.620  0.2534  0.4087  1.7217
  161MOL0     H21709   3.419   2.621   3.667 -0.6377  3.2074  0.4608
  161MOL0     H21710   3.269   2.517   3.662 -0.1606  0.3902  1.1608
  161MOL0     H21711   3.223   2.547   3.421  0.9691 -1.5690 -0.7444
  161MOL0     H21712   3.389   2.492   3.444 -1.4359 -2.2347 -0.2610
  161MOL0     H21713   3.327   2.786   3.406 -0.7863 -1.1344 -0.3870
  161MOL0     H21714   3.485   2.692   3.411  0.5786 -2.5205 -1.0619
  161MOL0     H21715   2.529   2.974   3.808  0.3701 -0.4557  0.1463
  161MOL0     H21716   2.304   3.042   3.837  1.6780  1.1202 -0.5008
  161MOL0     H21717   1.793   2.995   3.438  2.7388  1.2442  1.5692
  161MOL0     H21718   1.554   3.020   3.490  0.1994 -0.4343 -0.2954
  161MOL0     H21719   0.425   2.861   4.687 -3.8802 -1.3547 -3.9959
  161MOL0     H21720   0.218   2.805   4.761 -0.5538  0.6342  0.6408
  161MOL0     H21721  -0.210   2.915   4.758 -1.0958 -0.0134 -1.0023
  161MOL0     H21722  -0.419   2.815   4.808 -4.1104  2.3172  0.7447
  161MOL0     H21723  -0.626   2.977   5.089  5.0107 -1.1557  0.9735
  161MOL0     H21724  -0.617   2.853   5.216 -0.0076 -3.8580  0.0407
  161MOL0     H21725  -0.860   2.866   5.109  2.0346  1.2208  3.1376
  161MOL0     H21726  -0.786   2.708   5.085 -1.6478 -0.3015  0.8237
  161MOL0     H21727  -0.696   2.814   4.860  1.9828  0.7836  2.2889
  161MOL0     H21728  -0.811   2.943   4.909  0.4246 -0.3191 -0.8804
  161MOL0     H21729  -0.903   2.660   4.892  0.1441 -0.1527  0.6999
  161MOL0     H21730  -1.004   2.804   4.857 -2.0225 -5.2469 -0.6126
  161MOL0     H21731  -0.840   2.722   4.489  3.2371 -0.7469  1.2032
  161MOL0     H21732  -0.387   2.891   5.222 -1.9648  0.7703 -1.0120
  161MOL0     H21733  -0.188   2.919   5.318  1.7418 -0.0383  1.5975
  161MOL0     H21734  -0.028   2.909   5.241 -0.1258  1.1572 -3.2846
  161MOL0     H21735  -0.108   3.061   5.243 -1.2479 -0.1326 -0.6906
  162MOL0     O21736   6.729  11.088   6.498 -1.1205  0.0666 -0.2979
  162MOL0     C21737   6.772  11.094   6.381  0.7539 -0.1464 -1.0237
  162MOL0     O21738   6.905  11.089   6.348  0.8239 -0.2288  0.3308
  162MOL0     C21739   7.008  11.092   6.433 -0.0880  0.2283  0.3026
  162MOL0     C21740   7.130  11.087   6.368 -0.5760 -0.4560  0.0708
  162MOL0     C21741   7.249  11.083   6.447  0.8791 -0.6561 -0.2812
  162MOL0     C21742   7.250  11.090   6.584 -0.4568 -0.1837 -0.1912
  162MOL0     O21743   7.369  11.082   6.652 -0.3035 -0.1942  0.3735
  162MOL0     C21744   7.426  10.949   6.640 -0.4606 -0.9771 -0.0661
  162MOL0     C21745   7.556  10.952   6.726 -0.0370  1.1587  0.4756
  162MOL0     C21746   7.656  11.061   6.698 -0.0095 -0.4872  0.9764
  162MOL0     C21747   7.786  11.057   6.781  0.5708 -0.0973 -1.1260
  162MOL0     C21748   7.879  10.952   6.721 -0.1622  0.7969  0.0335
  162MOL0     C21749   7.988  10.899   6.815 -0.3012  0.5014 -0.3042
  162MOL0     C21750   7.933  10.812   6.928 -1.2685 -0.3220  0.3878
  162MOL0     C21751   7.873  10.683   6.885  0.0201 -0.0868  0.4035
  162MOL0     N21752   7.857  10.603   7.009 -0.0359  0.1092 -0.8564
  162MOL0     C21753   7.834  10.471   7.015  0.0871  0.5382 -1.2478
  162MOL0     C21754   7.811  10.439   7.143 -0.4888  0.5586 -0.1457
  162MOL0     C21755   7.765  10.314   7.219 -0.8861  0.3847  0.0327
  162MOL0     C21756   7.887  10.213   7.229 -0.0983  0.6556 -0.9961
  162MOL0     C21757   8.000  10.281   7.291 -0.3001 -0.4817 -0.7771
  162MOL0     C21758   8.119  10.190   7.255 -0.0696 -0.5398 -0.5141
  162MOL0     O21759   8.229  10.279   7.299 -0.2000 -0.5246 -0.3845
  162MOL0     C21760   8.344  10.217   7.324 -0.4814  0.8722  0.0684
  162MOL0     C21761   8.379  10.083   7.284 -0.3142  0.0531 -0.3119
  162MOL0     C21762   8.504  10.032   7.334  0.1275 -0.1351 -0.5051
  162MOL0     C21763   8.590  10.107   7.413 -0.3130 -0.5766  0.8809
  162MOL0     C21764   8.724  10.052   7.456 -0.6033  0.2135  0.4518
  162MOL0     O21765   8.813  10.145   7.491  0.4959  0.1096 -0.5968
  162MOL0     C21766   8.921  10.107   7.570 -0.3437  0.1434 -0.1023
  162MOL0     C21767   8.938   9.997   7.662  0.2203  0.0348  0.2359
  162MOL0     C21768   9.055   9.958   7.721  0.2072 -0.7144  0.2225
  162MOL0     C21769   9.169  10.031   7.693  0.0633  0.5087 -0.1155
  162MOL0     O21770   9.293  10.003   7.746  0.2595 -0.5284 -0.4592
  162MOL0     C21771   9.317   9.925   7.868  0.0111 -0.2960 -0.0232
  162MOL0     C21772   9.253   9.966   7.999  0.1373  0.0639  0.1032
  162MOL0     C21773   9.275   9.874   8.122  0.1500  0.4857 -0.9150
  162MOL0     C21774   9.193   9.933   8.241  0.7324 -0.4136 -0.0550
  162MOL0     C21775   9.134   9.849   8.350 -0.7156 -0.4084 -0.9737
  162MOL0     C21776   9.243   9.768   8.416 -0.1139  0.2842 -0.2092
  162MOL0     C21777   9.180   9.661   8.508 -0.0084  0.6097 -0.3475
  162MOL0     C21778   9.272   9.596   8.603 -0.9300  0.8655 -0.1848
  162MOL0    Cl21779   9.384   9.476   8.527  0.1244  0.0795 -0.2639
  162MOL0     C21780   9.157  10.145   7.606 -0.7628 -0.1743 -0.0327
  162MOL0     C21781   9.044  10.173   7.541  1.2853 -0.2425 -0.6891
  162MOL0     O21782   8.741   9.930   7.448  0.0793 -0.9653 -0.4258
  162MOL0     C21783   8.551  10.230   7.461 -0.0660  0.2860 -0.1870
  162MOL0     C21784   8.426  10.276   7.411 -0.9314 -0.6943 -0.1314
  162MOL0     N21785   7.828  10.552   7.219  0.9734  0.2887 -0.0480
  162MOL0     N21786   7.859  10.651   7.140  0.5275 -0.0237  0.4639
  162MOL0     C21787   7.123  11.091   6.651  0.2840  1.0478  0.6005
  162MOL0     C21788   7.008  11.099   6.570  0.7200  0.4146  0.3519
  162MOL0     C21789   6.674  11.094   6.270 -0.4676 -0.1206  1.3303
  162MOL0     C21790   6.704  11.043   6.145  0.4324 -0.5553  1.1419
  162MOL0     C21791   6.614  11.036   6.036  0.8330 -0.6295  0.9230
  162MOL0     C21792   6.488  11.091   6.052 -0.5201  0.1094 -0.0212
  162MOL0     O21793   6.393  11.080   5.955  0.9115  1.0913 -0.8393
  162MOL0     C21794   6.405  11.181   5.860  0.0051 -0.4375  0.5451
  162MOL0     C21795   6.326  11.119   5.743  0.7436 -0.1857  0.5412
  162MOL0     C21796   6.361  11.173   5.609  1.3464 -0.0621  0.3083
  162MOL0     C21797   6.239  11.153   5.517 -0.4892 -0.4017  0.4903
  162MOL0     C21798   6.290  11.199   5.386  0.5077 -0.8998  0.8826
  162MOL0     C21799   6.319  11.248   5.280  0.1805  0.2643 -0.3235
  162MOL0     C21800   6.451  11.132   6.179 -0.2693  0.5113  0.0190
  162MOL0     C21801   6.543  11.139   6.281  0.3267 -0.3880 -1.2114
  162MOL0     C21802   6.501  11.223   6.402 -0.5740  1.0065  0.5394
  162MOL0     H21803   7.151  11.075   6.262 -0.8739 -4.3736  0.3125
  162MOL0     H21804   7.344  11.074   6.396  0.0028  0.2966 -2.1737
  162MOL0     H21805   7.357  10.872   6.676  0.4491 -0.5008  3.0332
  162MOL0     H21806   7.453  10.926   6.536 -1.7110 -0.0313 -0.6186
  162MOL0     H21807   7.612  10.859   6.719 -1.2687  0.4904 -4.7636
  162MOL0     H21808   7.529  10.956   6.832 -0.2478 -0.5817  0.5006
  162MOL0     H21809   7.613  11.159   6.719 -0.0420 -0.8861  2.8649
  162MOL0     H21810   7.664  11.051   6.589 -3.7309 -0.0117  0.5397
  162MOL0     H21811   7.836  11.154   6.776  4.8665 -1.7537  2.6062
  162MOL0     H21812   7.758  11.036   6.885  2.7347 -2.9030 -0.9815
  162MOL0     H21813   7.813  10.868   6.698 -1.2384  1.5274  0.3478
  162MOL0     H21814   7.930  10.985   6.630  2.2623 -0.4836  0.8144
  162MOL0     H21815   8.062  10.839   6.761 -2.2446 -0.4756 -2.0150
  162MOL0     H21816   8.044  10.984   6.855  1.5177 -0.6528 -0.2970
  162MOL0     H21817   7.871  10.871   6.996  1.4180  0.4675  2.3527
  162MOL0     H21818   8.023  10.784   6.984 -0.1050  1.3773 -0.5173
  162MOL0     H21819   7.774  10.689   6.839 -0.3430 -1.8678  0.8700
  162MOL0     H21820   7.943  10.638   6.815  1.7809  4.7599 -1.3584
  162MOL0     H21821   7.834  10.410   6.925 -2.5932  0.1879 -1.0983
  162MOL0     H21822   7.721  10.336   7.316  0.5108 -0.5472  0.9186
  162MOL0     H21823   7.682  10.270   7.162 -1.2237  2.2134 -0.9440
  162MOL0     H21824   7.853  10.129   7.291  0.0135  1.6098  0.4104
  162MOL0     H21825   7.905  10.168   7.132 -1.6006 -2.9512  0.2143
  162MOL0     H21826   7.982  10.290   7.399 -2.4103 -0.1567 -1.0961
  162MOL0     H21827   8.017  10.382   7.253  1.6125 -1.1979 -1.9750
  162MOL0     H21828   8.121  10.167   7.148  0.6741  1.4907 -0.9916
  162MOL0     H21829   8.117  10.101   7.319  1.4543  0.9085  1.7071
  162MOL0     H21830   8.310  10.019   7.230 -1.5490 -1.8099  3.0951
  162MOL0     H21831   8.536   9.930   7.316 -1.0028 -0.6257  0.1481
  162MOL0     H21832   8.852   9.932   7.679  0.4367 -0.0023  1.2857
  162MOL0     H21833   9.059   9.866   7.779  2.6997 -2.0574 -1.8642
  162MOL0     H21834   9.287   9.822   7.848 -2.1607  0.3082 -0.1898
  162MOL0     H21835   9.423   9.933   7.893 -0.3541  0.4993  1.3577
  162MOL0     H21836   9.286  10.065   8.030  0.3198  0.2518 -0.6680
  162MOL0     H21837   9.145   9.982   7.991  0.0150 -1.0449 -0.6906
  162MOL0     H21838   9.243   9.770   8.107  2.6327 -0.4306 -0.3764
  162MOL0     H21839   9.381   9.876   8.148 -0.6881 -2.0185  3.7467
  162MOL0     H21840   9.106   9.983   8.199  1.7261  0.6980 -0.8364
  162MOL0     H21841   9.255  10.000   8.301  0.8143  1.2118 -1.8590
  162MOL0     H21842   9.053   9.779   8.328 -0.8309  0.0111 -1.9230
  162MOL0     H21843   9.094   9.923   8.420  1.0223  2.0519 -2.4320
  162MOL0     H21844   9.298   9.710   8.341  2.6838  3.0681 -0.5257
  162MOL0     H21845   9.320   9.831   8.461  0.2161  0.2866 -0.7664
  162MOL0     H21846   9.132   9.586   8.445  0.3945 -0.1206  0.1911
  162MOL0     H21847   9.103   9.710   8.568  0.5217  1.2939 -0.2085
  162MOL0     H21848   9.329   9.666   8.664 -0.4327  0.0777  0.2819
  162MOL0     H21849   9.211   9.528   8.664 -0.0846  2.1386  2.1900
  162MOL0     H21850   9.244  10.208   7.587 -0.9841  0.3827  0.7628
  162MOL0     H21851   9.051  10.263   7.481  0.1447  0.8450  0.7324
  162MOL0     H21852   8.615  10.291   7.523  1.0479  2.9917 -3.6553
  162MOL0     H21853   8.392  10.374   7.445 -1.7152 -1.1206  0.3506
  162MOL0     H21854   7.116  11.063   6.755 -1.7362  0.0108  0.2336
  162MOL0     H21855   6.917  11.109   6.629 -0.2588  0.2442 -1.0651
  162MOL0     H21856   6.797  10.987   6.139 -0.0599 -1.2497 -0.4237
  162MOL0     H21857   6.646  10.990   5.943 -0.6900  0.9260 -0.4605
  162MOL0     H21858   6.510  11.192   5.831 -0.6488  0.2187 -1.8348
  162MOL0     H21859   6.366  11.277   5.894 -1.4090 -1.3617  1.6603
  162MOL0     H21860   6.219  11.120   5.765  0.4953 -2.6751 -0.2916
  162MOL0     H21861   6.346  11.013   5.729  3.9732  0.5476 -1.2798
  162MOL0     H21862   6.454  11.127   5.577  1.7137  0.9948 -0.1880
  162MOL0     H21863   6.382  11.279   5.626 -0.2941  0.2147  0.8553
  162MOL0     H21864   6.217  11.046   5.517 -1.5411 -0.2520 -2.1164
  162MOL0     H21865   6.154  11.218   5.541 -0.7046  0.2722 -1.8484
  162MOL0     H21866   6.332  11.293   5.184 -1.1584 -0.8641 -1.0682
  162MOL0     H21867   6.345  11.153   6.191 -0.2490 -0.0098  1.1668
  162MOL0     H21868   6.581  11.291   6.436  1.5031 -1.8499  1.7544
  162MOL0     H21869   6.416  11.289   6.380  0.9652  2.3142 -2.0457
  162MOL0     H21870   6.493  11.150   6.482  0.6936  1.8040  1.4452
  163MOL0     O21871   2.343   7.102   4.154 -0.2626  0.3991 -0.2681
  163MOL0     C21872   2.400   7.001   4.181 -0.2571 -0.3064 -0.0446
  163MOL0     O21873   2.332   6.884   4.207 -0.0972  0.0571 -0.4125
  163MOL0     C21874   2.198   6.896   4.201  0.1801  0.6860 -0.0736
  163MOL0     C21875   2.125   6.881   4.318  0.4351  0.3261 -0.4110
  163MOL0     C21876   1.983   6.883   4.306 -0.4629 -0.2151  0.8427
  163MOL0     C21877   1.920   6.892   4.181  0.3037 -0.2633  0.6440
  163MOL0     O21878   1.785   6.916   4.158  0.6846 -0.2838  0.2934
  163MOL0     C21879   1.695   6.869   4.257  0.2441  0.1119 -0.3566
  163MOL0     C21880   1.548   6.894   4.213 -0.1939 -0.0737  0.8135
  163MOL0     C21881   1.528   7.033   4.143  0.5855 -0.2867  0.0316
  163MOL0     C21882   1.523   7.144   4.245  1.1222  0.5014  0.4082
  163MOL0     C21883   1.446   7.269   4.214  0.2894 -0.6020 -0.2563
  163MOL0     C21884   1.512   7.382   4.138 -0.0103  0.1307  0.1650
  163MOL0     C21885   1.417   7.479   4.086 -0.3135  0.0516 -0.3200
  163MOL0     C21886   1.469   7.616   4.052  0.2513 -0.6263 -0.5627
  163MOL0     N21887   1.574   7.614   3.948 -0.4753 -0.3902  0.3565
  163MOL0     C21888   1.712   7.611   3.963 -0.2887  0.0926  0.1481
  163MOL0     C21889   1.757   7.643   3.842  0.1431 -0.0122 -0.2382
  163MOL0     C21890   1.901   7.669   3.803 -0.4096 -0.1017  0.0949
  163MOL0     C21891   1.985   7.730   3.919  0.2105  0.6358  0.3067
  163MOL0     C21892   2.095   7.824   3.860 -0.7836  0.2234  0.3172
  163MOL0     C21893   2.210   7.873   3.951 -0.0135 -0.5104 -1.0546
  163MOL0     O21894   2.293   7.978   3.892  0.3189  0.2303  0.6245
  163MOL0     C21895   2.384   8.038   3.968 -0.5278  0.0330  0.5013
  163MOL0     C21896   2.417   8.016   4.100 -0.5867 -0.1104  0.1016
  163MOL0     C21897   2.513   8.102   4.164  0.6592 -0.1926  0.3168
  163MOL0     C21898   2.573   8.208   4.090 -0.9205  0.6346  0.1341
  163MOL0     C21899   2.664   8.306   4.157 -0.1615  0.0292 -0.1955
  163MOL0     O21900   2.675   8.297   4.300  0.1426 -0.1309 -0.2987
  163MOL0     C21901   2.768   8.388   4.357 -0.8442  1.1373 -0.1662
  163MOL0     C21902   2.720   8.508   4.395 -0.4795 -1.5336 -0.7250
  163MOL0     C21903   2.801   8.606   4.451  0.0171  0.1579 -0.3482
  163MOL0     C21904   2.936   8.574   4.477 -0.5898 -0.3285 -0.7253
  163MOL0     O21905   3.013   8.673   4.526 -0.2704 -0.3153 -0.5806
  163MOL0     C21906   3.143   8.689   4.471  0.5201 -0.7521 -0.3346
  163MOL0     C21907   3.220   8.817   4.526  0.7190  0.1150  0.6052
  163MOL0     C21908   3.363   8.822   4.473  0.0490  0.7395  0.4160
  163MOL0     C21909   3.416   8.956   4.481  0.4166 -0.9017 -0.0892
  163MOL0     C21910   3.559   8.978   4.427  0.5307  0.0444 -0.1963
  163MOL0     C21911   3.659   8.902   4.525 -0.5781 -0.6578  0.2076
  163MOL0     C21912   3.799   8.966   4.527  0.1461  0.4353  0.0646
  163MOL0     C21913   3.882   8.910   4.638 -0.5248 -0.2425 -0.7376
  163MOL0    Cl21914   3.922   8.731   4.610  0.1913  0.1911  0.5602
  163MOL0     C21915   2.992   8.446   4.457  0.8392  0.2205  0.1124
  163MOL0     C21916   2.898   8.351   4.397 -0.2525  0.8720  0.6590
  163MOL0     O21917   2.734   8.383   4.086 -0.5907  0.4540  0.9354
  163MOL0     C21918   2.547   8.226   3.956 -1.4268  0.3031 -0.4761
  163MOL0     C21919   2.454   8.137   3.906  0.1060 -0.6624 -0.1909
  163MOL0     N21920   1.654   7.653   3.754  0.2476  0.0975  0.1241
  163MOL0     N21921   1.545   7.642   3.819  0.2683  0.3203 -0.0904
  163MOL0     C21922   1.992   6.897   4.064  0.0329  0.3311  1.0997
  163MOL0     C21923   2.134   6.887   4.073  0.4363 -0.1962 -0.4678
  163MOL0     C21924   2.543   7.007   4.202 -0.0327 -0.7890  0.5342
  163MOL0     C21925   2.631   7.072   4.110 -0.2602  0.3627 -0.7728
  163MOL0     C21926   2.768   7.070   4.128 -0.4204 -0.4134  0.5265
  163MOL0     C21927   2.823   7.010   4.244  1.1429 -0.3310 -0.2172
  163MOL0     O21928   2.957   7.004   4.271 -0.1316  0.2062 -0.5355
  163MOL0     C21929   3.047   7.038   4.170 -0.7638 -1.4343 -0.3052
  163MOL0     C21930   3.188   6.997   4.219 -0.5844 -0.3009  0.6842
  163MOL0     C21931   3.243   7.085   4.336  0.1905 -0.1139  0.4778
  163MOL0     C21932   3.382   7.043   4.366 -0.4696 -0.0833 -0.3470
  163MOL0     C21933   3.393   6.900   4.413  0.6543 -0.7844 -0.5014
  163MOL0     C21934   3.377   6.791   4.457  0.0089 -0.2485 -0.0101
  163MOL0     C21935   2.740   6.954   4.339  0.1424 -0.6834 -0.0021
  163MOL0     C21936   2.597   6.940   4.316 -0.2995 -0.1518  0.6808
  163MOL0     C21937   2.522   6.857   4.418 -1.2180 -0.9130 -0.4048
  163MOL0     H21938   2.182   6.871   4.410  2.0811  0.3347 -1.3983
  163MOL0     H21939   1.923   6.889   4.396 -1.8821  0.5137 -0.1137
  163MOL0     H21940   1.712   6.761   4.266 -1.0603  0.0382  3.0667
  163MOL0     H21941   1.712   6.921   4.352  0.1629  1.9797 -1.3359
  163MOL0     H21942   1.482   6.869   4.297  2.9783 -0.7643  3.3220
  163MOL0     H21943   1.529   6.815   4.139  0.6308 -0.3438  0.8750
  163MOL0     H21944   1.439   7.038   4.079  1.0446  0.8553 -0.5584
  163MOL0     H21945   1.607   7.049   4.068  1.4124 -0.8709  0.7645
  163MOL0     H21946   1.481   7.102   4.337  1.4049  0.0892  0.3512
  163MOL0     H21947   1.622   7.180   4.274  1.3498 -0.7790  1.2928
  163MOL0     H21948   1.360   7.241   4.152 -1.6594  1.7272  1.1909
  163MOL0     H21949   1.401   7.316   4.302  0.4832 -0.2843 -0.3256
  163MOL0     H21950   1.579   7.432   4.209 -0.3897  1.9971 -0.7155
  163MOL0     H21951   1.567   7.325   4.063 -2.2307 -3.4278  1.0172
  163MOL0     H21952   1.337   7.498   4.157  0.6213  2.0494  0.2637
  163MOL0     H21953   1.377   7.441   3.991 -1.4201  2.5571 -0.9473
  163MOL0     H21954   1.391   7.685   4.019  1.7689  1.4211 -0.0351
  163MOL0     H21955   1.514   7.655   4.143  2.7935  1.0010 -2.3763
  163MOL0     H21956   1.768   7.603   4.056 -2.7871  1.3713  1.8905
  163MOL0     H21957   1.939   7.576   3.761 -2.1297 -1.6819  1.8271
  163MOL0     H21958   1.901   7.731   3.713 -0.0200  0.5784  0.5598
  163MOL0     H21959   1.916   7.792   3.978 -1.7399 -1.8794  0.8387
  163MOL0     H21960   2.025   7.654   3.987  3.0203  1.7363  0.0140
  163MOL0     H21961   2.049   7.905   3.802  3.1569  2.8538  0.4816
  163MOL0     H21962   2.151   7.759   3.792  1.2062  1.2063  0.9189
  163MOL0     H21963   2.258   7.792   4.005 -1.8998 -0.9867  0.0009
  163MOL0     H21964   2.157   7.933   4.026  2.2243  0.9685 -0.5656
  163MOL0     H21965   2.372   7.933   4.153  2.0254 -2.3292 -0.8724
  163MOL0     H21966   2.530   8.088   4.271 -0.9667 -2.6068  0.3241
  163MOL0     H21967   2.619   8.539   4.371 -1.0712  0.1105  3.1294
  163MOL0     H21968   2.772   8.700   4.497  0.2629 -1.1147  2.6114
  163MOL0     H21969   3.200   8.599   4.495 -2.0371 -2.5992 -0.7679
  163MOL0     H21970   3.138   8.700   4.362  0.4866 -1.3831 -0.3970
  163MOL0     H21971   3.155   8.896   4.486 -2.0599 -2.4271 -0.3069
  163MOL0     H21972   3.227   8.828   4.634  2.4015  0.5088  0.4844
  163MOL0     H21973   3.424   8.753   4.533  0.2880 -0.4693 -1.1415
  163MOL0     H21974   3.383   8.785   4.372  0.9018  0.0464  0.8227
  163MOL0     H21975   3.403   8.993   4.583 -2.4198 -1.1860 -0.2728
  163MOL0     H21976   3.351   9.021   4.422  1.9408 -0.6479 -1.5857
  163MOL0     H21977   3.571   9.086   4.415 -1.5771  0.0739 -3.0888
  163MOL0     H21978   3.564   8.944   4.323 -0.7318 -2.7014  0.5280
  163MOL0     H21979   3.632   8.912   4.631 -1.1366 -1.8124  0.1936
  163MOL0     H21980   3.665   8.798   4.494  3.7167  0.2969 -3.0101
  163MOL0     H21981   3.794   9.074   4.543 -2.0240  0.2111  1.3644
  163MOL0     H21982   3.845   8.935   4.433 -2.2767 -1.3055 -0.6473
  163MOL0     H21983   3.975   8.967   4.650 -0.9448 -0.1454  5.1461
  163MOL0     H21984   3.831   8.937   4.731  2.0493  3.1820 -0.0996
  163MOL0     H21985   3.098   8.425   4.467  0.7871 -0.9957 -1.4742
  163MOL0     H21986   2.942   8.256   4.368  1.5698  1.7317  0.4490
  163MOL0     H21987   2.574   8.316   3.902 -0.0762 -0.0925 -0.5015
  163MOL0     H21988   2.443   8.147   3.798  2.9932 -2.8382 -0.8213
  163MOL0     H21989   1.931   6.901   3.974  0.4734 -0.1601  0.7697
  163MOL0     H21990   2.185   6.891   3.977 -2.8832  1.7180 -2.3573
  163MOL0     H21991   2.604   7.132   4.024 -1.6408  2.7262  1.1821
  163MOL0     H21992   2.837   7.119   4.061  0.4458 -1.6065  0.5128
  163MOL0     H21993   3.045   7.147   4.160  0.0653 -1.2061  1.6121
  163MOL0     H21994   3.021   6.986   4.077 -0.2521 -0.4481 -1.0295
  163MOL0     H21995   3.267   7.006   4.143  1.5002 -2.2350  2.4661
  163MOL0     H21996   3.183   6.888   4.232 -1.6832 -0.1155  1.9614
  163MOL0     H21997   3.189   7.062   4.428 -0.6655 -3.5485 -0.7217
  163MOL0     H21998   3.228   7.192   4.321  1.6112 -0.0634 -0.8538
  163MOL0     H21999   3.447   7.047   4.278 -2.6309  0.5279 -1.9897
  163MOL0     H22000   3.424   7.106   4.446  0.2000  1.5010 -1.8855
  163MOL0     H22001   3.389   6.692   4.497  2.2009 -0.1262 -0.1996
  163MOL0     H22002   2.787   6.920   4.431 -2.2673 -2.7543  0.5857
  163MOL0     H22003   2.566   6.829   4.514 -1.1635 -0.6925 -0.3640
  163MOL0     H22004   2.445   6.929   4.446  2.4880  2.6261  1.7391
  163MOL0     H22005   2.483   6.764   4.375 -1.1020 -1.2731  0.2528
  164MOL0     O22006  10.820   5.024   3.826  0.4836 -0.1533  0.3212
  164MOL0     C22007  10.849   5.139   3.871 -0.3171 -0.1685 -0.6091
  164MOL0     O22008  10.957   5.212   3.862 -0.1737 -0.3596 -0.2194
  164MOL0     C22009  11.075   5.155   3.817 -0.1510 -0.5232 -0.3789
  164MOL0     C22010  11.163   5.066   3.884  0.6289 -0.3355 -0.4861
  164MOL0     C22011  11.275   5.015   3.837 -0.1331 -0.9435  0.4601
  164MOL0     C22012  11.320   5.047   3.708  0.1721 -0.5889  0.7732
  164MOL0     O22013  11.442   4.996   3.668  0.3079  0.9971 -0.1250
  164MOL0     C22014  11.546   5.077   3.604  0.6921  0.0420 -0.1108
  164MOL0     C22015  11.585   5.012   3.469 -0.2377 -0.5470 -0.3263
  164MOL0     C22016  11.716   5.075   3.422 -0.4780  1.1737 -0.2881
  164MOL0     C22017  11.795   4.995   3.318 -0.2981  0.0078  0.2875
  164MOL0     C22018  11.932   5.054   3.275  0.4289  0.4676  0.5396
  164MOL0     C22019  12.044   5.042   3.373  0.2289  0.3423 -0.4450
  164MOL0     C22020  12.178   5.051   3.302  0.4526  0.3123 -0.4596
  164MOL0     C22021  12.294   5.071   3.397 -0.2437  0.1761  0.7499
  164MOL0     N22022  12.434   5.050   3.346  1.2544  0.0055 -0.6376
  164MOL0     C22023  12.472   4.988   3.224 -0.4223  0.9513 -0.9625
  164MOL0     C22024  12.608   5.004   3.231 -0.5495  0.2591 -0.2579
  164MOL0     C22025  12.707   4.971   3.121 -0.1432  0.6312 -0.0226
  164MOL0     C22026  12.832   5.057   3.130  0.5006  0.9688 -0.5248
  164MOL0     C22027  12.806   5.201   3.084  0.1985  0.9442 -0.1807
  164MOL0     C22028  12.917   5.293   3.132  0.6669 -0.4187 -0.5339
  164MOL0     O22029  13.043   5.257   3.079 -0.2644 -0.3283 -0.4112
  164MOL0     C22030  13.153   5.323   3.116  0.0232  0.4255 -0.2214
  164MOL0     C22031  13.160   5.399   3.233  0.4386  0.6455  0.4725
  164MOL0     C22032  13.281   5.461   3.257  0.1095 -0.3419 -0.8210
  164MOL0     C22033  13.398   5.436   3.176 -0.5294  0.2967  0.4783
  164MOL0     C22034  13.535   5.487   3.200 -0.1170 -0.6221 -0.8369
  164MOL0     O22035  13.551   5.583   3.299 -0.0378 -0.0996  0.2946
  164MOL0     C22036  13.676   5.598   3.348  0.8283 -0.1312  0.1059
  164MOL0     C22037  13.772   5.499   3.368  0.5852 -0.3321  0.1331
  164MOL0     C22038  13.891   5.525   3.433 -0.2780  0.2125  0.0249
  164MOL0     C22039  13.927   5.653   3.473  0.4826 -0.6509  0.4608
  164MOL0     O22040  14.045   5.697   3.516 -0.7325 -0.1664 -0.2090
  164MOL0     C22041  14.112   5.599   3.607  0.1140 -0.4654  0.1752
  164MOL0     C22042  14.257   5.648   3.644 -0.4634 -0.2651 -0.0633
  164MOL0     C22043  14.261   5.801   3.665 -0.2097 -0.4480 -0.3342
  164MOL0     C22044  14.387   5.852   3.749  0.4677  0.3240 -0.5157
  164MOL0     C22045  14.495   5.922   3.660 -0.5647  0.4787  0.2136
  164MOL0     C22046  14.618   5.946   3.744  0.3470  0.3069  0.7709
  164MOL0     C22047  14.742   5.990   3.666 -0.0570 -0.0604  0.2083
  164MOL0     C22048  14.866   6.013   3.744 -0.1700  0.0783  0.3927
  164MOL0    Cl22049  14.836   6.123   3.877 -0.1612 -0.2485 -0.1642
  164MOL0     C22050  13.841   5.757   3.446  0.1051 -0.0700  0.2089
  164MOL0     C22051  13.710   5.723   3.394  0.2358 -0.6839  0.7659
  164MOL0     O22052  13.628   5.435   3.135  0.1980 -0.4644  0.2374
  164MOL0     C22053  13.388   5.358   3.058  0.1709  0.5406 -0.5062
  164MOL0     C22054  13.261   5.305   3.030  1.2235  0.2350  0.0705
  164MOL0     N22055  12.636   5.061   3.355 -0.7911 -0.6580 -0.3261
  164MOL0     N22056  12.533   5.098   3.417 -0.6368 -0.0765  0.5647
  164MOL0     C22057  11.240   5.142   3.635  0.1179  0.1176 -0.3034
  164MOL0     C22058  11.113   5.182   3.685 -0.2096 -1.1131 -0.7706
  164MOL0     C22059  10.731   5.213   3.919  0.4290  0.0137 -0.4869
  164MOL0     C22060  10.735   5.268   4.049 -0.2113 -0.1093  0.4402
  164MOL0     C22061  10.626   5.334   4.112 -0.0805 -0.4061 -0.1026
  164MOL0     C22062  10.513   5.359   4.037 -0.0675 -0.2202 -0.5588
  164MOL0     O22063  10.404   5.424   4.098  0.1122  0.3587 -0.2668
  164MOL0     C22064  10.298   5.492   4.026  0.4252  0.3229  0.5265
  164MOL0     C22065  10.180   5.529   4.122 -0.2348  0.3941  0.6380
  164MOL0     C22066  10.133   5.408   4.203  0.4187  0.0670  0.5661
  164MOL0     C22067  10.002   5.436   4.277 -0.4873 -0.8190  0.2179
  164MOL0     C22068   9.985   5.350   4.393  0.3253  0.9391 -0.2754
  164MOL0     C22069   9.991   5.279   4.492 -0.6959 -0.3632 -0.7359
  164MOL0     C22070  10.510   5.312   3.908  0.5282 -1.4091  0.2709
  164MOL0     C22071  10.611   5.237   3.842 -0.4216 -1.1045 -0.2395
  164MOL0     C22072  10.593   5.194   3.704  0.9306  0.2757 -0.1396
  164MOL0     H22073  11.149   5.034   3.987 -1.1905  2.1471  0.1462
  164MOL0     H22074  11.340   4.946   3.890 -1.5164 -1.0161  2.1185
  164MOL0     H22075  11.519   5.180   3.581  0.1495  0.2047  1.1987
  164MOL0     H22076  11.636   5.076   3.667  0.6654 -0.9839 -0.0820
  164MOL0     H22077  11.503   5.033   3.400  0.9181  3.1037 -0.7825
  164MOL0     H22078  11.596   4.903   3.466 -3.6041 -1.1297  2.3113
  164MOL0     H22079  11.778   5.094   3.510  0.1089 -0.7514 -0.2547
  164MOL0     H22080  11.687   5.171   3.377 -1.0859  0.7481 -0.8405
  164MOL0     H22081  11.815   4.895   3.356 -0.7120 -0.1429  0.1201
  164MOL0     H22082  11.728   4.979   3.232  1.9943  2.0534 -2.0356
  164MOL0     H22083  11.963   5.007   3.182  1.0183  1.1349  0.3885
  164MOL0     H22084  11.914   5.162   3.271  1.9403  0.7103 -1.2424
  164MOL0     H22085  12.025   5.122   3.445  2.0518  1.4041 -1.0808
  164MOL0     H22086  12.028   4.947   3.425 -1.5358 -0.2331 -1.9172
  164MOL0     H22087  12.178   5.136   3.232 -0.0842 -1.7211 -3.1276
  164MOL0     H22088  12.194   4.958   3.246  2.7321  0.2643  0.1828
  164MOL0     H22089  12.288   5.171   3.440 -2.7014  0.4846 -0.1681
  164MOL0     H22090  12.265   5.006   3.480 -0.0597 -0.3529  0.4101
  164MOL0     H22091  12.403   4.956   3.146 -1.6607  2.1679 -0.4137
  164MOL0     H22092  12.723   4.863   3.127  0.0485  0.6104 -0.8001
  164MOL0     H22093  12.665   4.983   3.020 -2.0346  0.5004  0.7057
  164MOL0     H22094  12.876   5.047   3.230 -4.2755 -3.4408  1.5769
  164MOL0     H22095  12.916   5.016   3.073  2.1095  0.6117  1.9496
  164MOL0     H22096  12.712   5.248   3.115  0.8064  1.8395  0.3798
  164MOL0     H22097  12.803   5.201   2.975 -1.8053  1.4677 -0.1746
  164MOL0     H22098  12.914   5.284   3.241 -2.1562  0.6015 -0.4525
  164MOL0     H22099  12.897   5.399   3.115 -3.2457 -1.2049 -1.9431
  164MOL0     H22100  13.069   5.406   3.292 -1.1440 -3.4598 -1.1032
  164MOL0     H22101  13.290   5.533   3.337  0.5596 -2.6311  1.2938
  164MOL0     H22102  13.746   5.394   3.355  1.3681 -0.4582 -0.4891
  164MOL0     H22103  13.955   5.437   3.438 -0.0117  0.1129 -3.1422
  164MOL0     H22104  14.055   5.569   3.694  2.2115  2.2774  2.7091
  164MOL0     H22105  14.132   5.503   3.559 -0.7651 -0.7061  0.2752
  164MOL0     H22106  14.289   5.600   3.736  0.2978 -0.4444 -0.4139
  164MOL0     H22107  14.318   5.625   3.556 -2.9382  1.2315 -2.3438
  164MOL0     H22108  14.244   5.851   3.570 -1.4249  1.2571  0.7324
  164MOL0     H22109  14.173   5.821   3.726  0.6336  3.5839 -0.1674
  164MOL0     H22110  14.441   5.768   3.794 -1.0498  0.5203  1.8494
  164MOL0     H22111  14.362   5.932   3.819 -0.2204  0.7813 -1.2639
  164MOL0     H22112  14.464   6.020   3.623 -1.3753 -0.0473 -0.5496
  164MOL0     H22113  14.530   5.864   3.574 -3.8519 -3.6038  1.2698
  164MOL0     H22114  14.589   6.020   3.818 -0.1101  0.1026  0.7962
  164MOL0     H22115  14.637   5.847   3.787  3.0173  0.4555  0.1417
  164MOL0     H22116  14.726   6.086   3.615  3.2283 -0.3045 -1.5525
  164MOL0     H22117  14.753   5.920   3.582 -0.6688 -0.0420  0.1084
  164MOL0     H22118  14.893   5.913   3.779  1.0523  0.3818  0.3568
  164MOL0     H22119  14.949   6.042   3.679  0.1987 -1.6035  0.0435
  164MOL0     H22120  13.863   5.859   3.477  0.3826 -1.1486  3.9664
  164MOL0     H22121  13.636   5.801   3.380  0.0448 -0.6855  1.6664
  164MOL0     H22122  13.465   5.341   2.983  0.1924 -0.2854 -0.3126
  164MOL0     H22123  13.247   5.233   2.950  4.5601 -0.3340 -0.1476
  164MOL0     H22124  11.268   5.168   3.534  5.1599  2.7686  1.4775
  164MOL0     H22125  11.049   5.249   3.627 -2.5897 -3.2158 -0.7383
  164MOL0     H22126  10.826   5.246   4.104  0.2145  0.3635 -0.0709
  164MOL0     H22127  10.635   5.381   4.210  1.6948  1.4628 -1.0794
  164MOL0     H22128  10.254   5.429   3.948  1.0985  0.0615  0.3520
  164MOL0     H22129  10.329   5.589   3.988 -0.4289  1.5111  2.6725
  164MOL0     H22130  10.089   5.559   4.069 -0.9255 -2.8510 -0.1801
  164MOL0     H22131  10.212   5.605   4.194 -2.7589  1.8128  0.3842
  164MOL0     H22132  10.215   5.379   4.269  1.7716 -0.3604 -1.2050
  164MOL0     H22133  10.107   5.326   4.135 -1.7364 -0.9354  2.4895
  164MOL0     H22134  10.018   5.538   4.315  1.5882 -0.9680 -0.1465
  164MOL0     H22135   9.926   5.437   4.199  1.1039  1.7981 -1.4550
  164MOL0     H22136   9.995   5.222   4.583 -0.4811 -1.1009 -1.2058
  164MOL0     H22137  10.416   5.320   3.853  0.0724  1.5783  1.3457
  164MOL0     H22138  10.512   5.252   3.659 -0.6797 -1.1568  0.7760
  164MOL0     H22139  10.694   5.216   3.669  1.4631  0.8225  1.6290
  164MOL0     H22140  10.586   5.087   3.681  0.7542  0.0236  1.0058
  165MOL0     O22141   0.848   2.642   1.357  0.9137  0.3006  0.0065
  165MOL0     C22142   0.895   2.753   1.382 -0.1671 -0.8117  0.1617
  165MOL0     O22143   0.821   2.869   1.384  0.5096 -0.1363  0.8321
  165MOL0     C22144   0.681   2.862   1.366  0.4948  0.3657  0.0507
  165MOL0     C22145   0.590   2.773   1.413 -0.0834 -0.7467 -0.4193
  165MOL0     C22146   0.456   2.803   1.394  0.7031 -0.3631 -0.1499
  165MOL0     C22147   0.412   2.911   1.311  0.5972 -0.0863 -0.3266
  165MOL0     O22148   0.277   2.918   1.295  0.3334 -0.3306 -0.5060
  165MOL0     C22149   0.223   3.056   1.261  0.2598  0.1098 -0.1302
  165MOL0     C22150   0.078   3.037   1.211  0.1607 -0.8383 -0.3514
  165MOL0     C22151  -0.023   3.013   1.320 -0.0710 -0.4710 -0.0147
  165MOL0     C22152  -0.153   2.983   1.257  0.4085  1.6190 -0.0813
  165MOL0     C22153  -0.279   3.010   1.347 -0.0893 -0.5293  0.1019
  165MOL0     C22154  -0.412   2.968   1.280 -0.5667 -0.3098  0.2623
  165MOL0     C22155  -0.542   2.976   1.360 -0.0465 -0.4558 -0.5991
  165MOL0     C22156  -0.662   2.918   1.291  0.0137 -0.0121 -0.0838
  165MOL0     N22157  -0.784   2.919   1.368  0.8240 -0.0757 -0.1202
  165MOL0     C22158  -0.862   3.026   1.394  0.2032  0.1127 -0.8999
  165MOL0     C22159  -0.967   2.990   1.470 -1.1804  0.5911  1.1238
  165MOL0     C22160  -1.081   3.060   1.534  0.7229 -0.8794  0.4842
  165MOL0     C22161  -1.057   3.127   1.670 -0.0159 -0.6546 -0.1616
  165MOL0     C22162  -0.942   3.225   1.670 -0.5356  0.8686 -0.5750
  165MOL0     C22163  -0.797   3.180   1.710  0.6654  0.3971 -0.5434
  165MOL0     O22164  -0.716   3.277   1.655 -0.8403 -0.5065  0.1006
  165MOL0     C22165  -0.581   3.253   1.662 -0.3543 -0.4284  0.0345
  165MOL0     C22166  -0.509   3.342   1.576 -0.6023  0.0605 -0.4159
  165MOL0     C22167  -0.367   3.315   1.568 -0.6179  0.5725 -0.4076
  165MOL0     C22168  -0.303   3.209   1.643  0.5639  0.7119 -0.6949
  165MOL0     C22169  -0.166   3.169   1.627  0.2512 -0.1852  0.6603
  165MOL0     O22170  -0.118   3.060   1.679  0.1600 -0.1428 -0.2908
  165MOL0     C22171   0.018   3.042   1.711 -0.2566  0.1431 -1.2117
  165MOL0     C22172   0.077   3.138   1.794  0.8166 -0.5370 -0.5235
  165MOL0     C22173   0.210   3.142   1.820  0.5195 -0.1021 -0.3166
  165MOL0     C22174   0.291   3.042   1.756 -0.2425 -0.2769 -0.4869
  165MOL0     O22175   0.430   3.051   1.759 -0.6198 -0.1558  0.0938
  165MOL0     C22176   0.513   2.951   1.697 -0.5179  0.4067 -0.6932
  165MOL0     C22177   0.659   2.968   1.730 -0.4879  0.3183 -0.4840
  165MOL0     C22178   0.715   2.849   1.813  0.1934 -0.3131  0.2652
  165MOL0     C22179   0.861   2.829   1.770  0.6654 -0.4184  0.5463
  165MOL0     C22180   0.927   2.707   1.831 -0.8114 -0.5150 -0.5982
  165MOL0     C22181   0.942   2.720   1.981  0.5138  0.3822  0.8168
  165MOL0     C22182   1.016   2.611   2.050  0.5721  0.2314 -0.7360
  165MOL0     C22183   1.167   2.631   2.031  0.3109 -0.0023  0.2459
  165MOL0    Cl22184   1.246   2.489   2.110  0.2393 -0.3937 -0.2438
  165MOL0     C22185   0.227   2.933   1.687 -1.1661 -0.1540 -0.6294
  165MOL0     C22186   0.093   2.941   1.659  0.8733 -0.6302 -0.2905
  165MOL0     O22187  -0.106   3.240   1.545 -0.0404 -0.0876  0.5433
  165MOL0     C22188  -0.382   3.134   1.735  0.5099 -0.3464 -0.1522
  165MOL0     C22189  -0.517   3.162   1.739 -0.0970 -0.2988 -0.5480
  165MOL0     N22190  -0.948   2.853   1.489  0.5914  1.0229  0.6281
  165MOL0     N22191  -0.842   2.806   1.419 -0.6326 -0.0377  0.5149
  165MOL0     C22192   0.507   2.991   1.251  0.9864  0.0427 -0.2777
  165MOL0     C22193   0.636   2.967   1.281 -1.0995 -1.3914 -0.2052
  165MOL0     C22194   1.042   2.774   1.400 -0.2051  0.7618  0.0998
  165MOL0     C22195   1.126   2.659   1.386  0.1825 -0.5633 -0.2988
  165MOL0     C22196   1.258   2.677   1.429 -0.0670 -0.5516  1.1435
  165MOL0     C22197   1.321   2.789   1.455  0.2440  0.3456  0.5795
  165MOL0     O22198   1.455   2.783   1.465 -0.2615  0.4368  0.1232
  165MOL0     C22199   1.506   2.757   1.598 -0.2190 -0.9374  0.0277
  165MOL0     C22200   1.459   2.634   1.671 -0.8830 -0.0644 -0.6550
  165MOL0     C22201   1.533   2.602   1.804  0.1247  0.0603  0.0361
  165MOL0     C22202   1.679   2.564   1.797 -1.0943  0.5500  0.6930
  165MOL0     C22203   1.722   2.500   1.919 -0.2902  0.7901 -0.3847
  165MOL0     C22204   1.764   2.444   2.020 -0.1227 -0.3967  0.9781
  165MOL0     C22205   1.248   2.903   1.428  0.6109  0.1256  0.1248
  165MOL0     C22206   1.108   2.901   1.416 -0.1426 -0.8978 -0.5718
  165MOL0     C22207   1.042   3.036   1.412  0.8827 -1.0484 -0.5932
  165MOL0     H22208   0.623   2.693   1.478  0.8042 -0.6880 -0.7881
  165MOL0     H22209   0.382   2.742   1.444  0.6653  0.0623  0.3204
  165MOL0     H22210   0.219   3.127   1.345  0.8385 -0.6349  0.5429
  165MOL0     H22211   0.276   3.107   1.181 -0.8780  1.6070  0.0190
  165MOL0     H22212   0.087   2.952   1.143 -1.5572 -0.9160 -0.5185
  165MOL0     H22213   0.049   3.119   1.145  2.1027 -1.0251 -1.5041
  165MOL0     H22214  -0.043   3.106   1.374  0.0098 -0.6837  0.3903
  165MOL0     H22215   0.016   2.932   1.383  2.8628 -0.4878 -1.6455
  165MOL0     H22216  -0.176   3.041   1.167  1.1432 -0.1563 -1.4897
  165MOL0     H22217  -0.155   2.876   1.230 -1.7521  1.6915 -0.3843
  165MOL0     H22218  -0.281   2.970   1.449  1.4008 -3.9549 -1.0526
  165MOL0     H22219  -0.280   3.119   1.351 -0.9511 -0.4072 -2.0636
  165MOL0     H22220  -0.425   3.024   1.187  0.1350  1.6377  1.2794
  165MOL0     H22221  -0.402   2.864   1.249  1.6866  0.1679 -0.8150
  165MOL0     H22222  -0.568   3.079   1.389 -0.6032 -1.2013  1.7952
  165MOL0     H22223  -0.530   2.933   1.460 -0.6167 -2.6968 -1.4549
  165MOL0     H22224  -0.684   2.974   1.199 -1.3170  1.1074  0.8825
  165MOL0     H22225  -0.644   2.817   1.252  5.1603  0.6553 -0.1833
  165MOL0     H22226  -0.842   3.126   1.358 -1.2998 -0.1810 -2.7232
  165MOL0     H22227  -1.122   3.137   1.469  3.5710 -0.2645 -0.7233
  165MOL0     H22228  -1.164   2.990   1.550  0.8414 -0.3934  3.9705
  165MOL0     H22229  -1.147   3.185   1.693 -0.2646 -0.8918 -0.5051
  165MOL0     H22230  -1.044   3.058   1.754 -1.1668  0.0093  0.5972
  165MOL0     H22231  -0.967   3.301   1.745  1.7739  1.1325  0.0049
  165MOL0     H22232  -0.936   3.262   1.567 -1.1551  0.1536 -0.8737
  165MOL0     H22233  -0.769   3.077   1.684 -2.1553 -1.6119  3.2664
  165MOL0     H22234  -0.806   3.181   1.819  1.0602 -1.4469 -0.4529
  165MOL0     H22235  -0.546   3.418   1.509  0.6667 -1.1350 -2.5735
  165MOL0     H22236  -0.306   3.373   1.499  1.0113  0.9134  1.2282
  165MOL0     H22237   0.028   3.217   1.849  0.0551 -1.8143  0.7211
  165MOL0     H22238   0.254   3.213   1.889 -2.2608  0.7012  0.7854
  165MOL0     H22239   0.478   2.850   1.717  1.5995 -0.2624 -0.1364
  165MOL0     H22240   0.497   2.979   1.592 -2.3040  0.8767 -0.3323
  165MOL0     H22241   0.712   2.977   1.635  0.0506 -2.7974 -0.5875
  165MOL0     H22242   0.666   3.059   1.790 -3.9783  0.3746  0.0460
  165MOL0     H22243   0.709   2.886   1.916  0.7725  0.3520  0.0639
  165MOL0     H22244   0.666   2.751   1.805  0.7372 -0.4654 -1.8347
  165MOL0     H22245   0.912   2.925   1.786 -0.8874  0.3583  1.1044
  165MOL0     H22246   0.869   2.811   1.663  1.4803 -0.6588  0.6401
  165MOL0     H22247   1.024   2.692   1.783  0.2470  1.9476  0.5732
  165MOL0     H22248   0.865   2.618   1.816 -2.2155  0.4329 -0.6145
  165MOL0     H22249   0.997   2.813   2.000 -0.1965  0.5141  2.3338
  165MOL0     H22250   0.839   2.724   2.017  0.4726 -0.4241  0.8122
  165MOL0     H22251   0.980   2.516   2.010 -0.2425  0.5860 -0.8720
  165MOL0     H22252   0.994   2.621   2.157  0.1854 -0.4446 -0.7497
  165MOL0     H22253   1.191   2.638   1.924 -0.4098  1.8186  0.1601
  165MOL0     H22254   1.211   2.728   2.058  0.5997  0.0970 -0.5439
  165MOL0     H22255   0.262   2.840   1.646 -2.5763 -0.6423 -0.7902
  165MOL0     H22256   0.042   2.863   1.605 -0.5970  1.6005 -2.3207
  165MOL0     H22257  -0.340   3.052   1.793  0.6881  0.9902  1.6762
  165MOL0     H22258  -0.572   3.116   1.821 -0.9822  0.3272 -0.7763
  165MOL0     H22259   0.482   3.073   1.183 -0.5605  0.8213  1.1678
  165MOL0     H22260   0.707   3.021   1.219 -0.9189 -2.1248 -0.6561
  165MOL0     H22261   1.085   2.561   1.365 -1.0062 -0.4281  1.1614
  165MOL0     H22262   1.322   2.590   1.417  0.4562 -0.0822  0.4596
  165MOL0     H22263   1.464   2.831   1.666  1.6910  0.8962 -0.6967
  165MOL0     H22264   1.613   2.778   1.600 -1.0464  4.5895  2.8655
  165MOL0     H22265   1.468   2.554   1.597  2.4019 -0.3583 -0.0735
  165MOL0     H22266   1.352   2.647   1.690 -1.3493 -1.9801 -1.7278
  165MOL0     H22267   1.478   2.525   1.858  0.0285  0.0423 -0.0861
  165MOL0     H22268   1.515   2.686   1.871 -0.7026 -0.3018  0.2827
  165MOL0     H22269   1.687   2.483   1.724 -0.1145 -0.3218  1.7239
  165MOL0     H22270   1.744   2.647   1.769  1.1295 -1.0348  0.8284
  165MOL0     H22271   1.802   2.407   2.113 -0.9349  2.2569  2.4736
  165MOL0     H22272   1.314   2.989   1.425  2.2935 -1.1273 -0.2630
  165MOL0     H22273   1.123   3.108   1.396  1.0319 -1.0014  0.3286
  165MOL0     H22274   0.969   3.051   1.332  1.1916  1.8545 -0.4245
  165MOL0     H22275   0.997   3.065   1.507 -2.2932  0.7873 -2.4808
  166MOL0     O22276   7.953   4.005   3.780 -0.1594 -0.0956 -0.1883
  166MOL0     C22277   7.878   3.913   3.806 -0.9352 -0.0144  0.1919
  166MOL0     O22278   7.835   3.877   3.931 -0.7837 -0.2018  0.7878
  166MOL0     C22279   7.904   3.918   4.042  0.3755  0.1873 -0.6650
  166MOL0     C22280   7.824   3.962   4.150 -0.2028 -0.1063  0.4109
  166MOL0     C22281   7.881   4.005   4.274 -0.4685  0.1563 -0.0441
  166MOL0     C22282   8.021   4.005   4.280  0.9595 -0.0410  0.3031
  166MOL0     O22283   8.087   4.053   4.389 -0.4323  0.0629 -0.6805
  166MOL0     C22284   8.016   4.114   4.498  1.1878  0.3948  0.2156
  166MOL0     C22285   8.119   4.161   4.602 -0.5151 -1.0963  0.3425
  166MOL0     C22286   8.206   4.072   4.676  0.1700 -0.9437  0.8987
  166MOL0     C22287   8.127   4.016   4.793 -0.8514  0.0617 -0.0955
  166MOL0     C22288   8.204   3.922   4.887 -0.7397 -0.2719 -0.4382
  166MOL0     C22289   8.111   3.865   4.992  0.9483 -0.6327 -0.9625
  166MOL0     C22290   8.170   3.737   5.048  0.4697  0.2245  0.1833
  166MOL0     C22291   8.076   3.670   5.149  0.0539 -0.6168  0.3042
  166MOL0     N22292   8.134   3.557   5.208  0.0050  0.4552 -0.8691
  166MOL0     C22293   8.205   3.547   5.335  0.5588  0.5638  1.0264
  166MOL0     C22294   8.226   3.414   5.354  0.7640 -0.3414 -0.4692
  166MOL0     C22295   8.289   3.340   5.466  0.0884  0.2988  0.1045
  166MOL0     C22296   8.198   3.287   5.567 -0.6712  0.3388  0.3114
  166MOL0     C22297   8.139   3.397   5.660 -1.0529  0.2092  0.0142
  166MOL0     C22298   8.033   3.347   5.759 -0.5171 -0.2588 -0.1807
  166MOL0     O22299   7.987   3.453   5.831  0.1049  0.4835 -0.8784
  166MOL0     C22300   7.864   3.513   5.816 -1.0540  0.9872 -0.2531
  166MOL0     C22301   7.797   3.539   5.692 -0.7052  0.4181 -0.4759
  166MOL0     C22302   7.667   3.591   5.693  0.3928  0.2942  0.6719
  166MOL0     C22303   7.593   3.614   5.806 -1.1780  0.2338  0.5473
  166MOL0     C22304   7.465   3.686   5.798 -0.0267 -0.3276 -0.1040
  166MOL0     O22305   7.404   3.739   5.915 -0.2358 -0.1129 -0.2366
  166MOL0     C22306   7.268   3.764   5.942  0.1678  1.2396  1.1383
  166MOL0     C22307   7.226   3.788   6.071  0.3000  0.5157 -0.2415
  166MOL0     C22308   7.096   3.836   6.102  0.1093  0.1862 -0.1920
  166MOL0     C22309   7.000   3.843   6.007 -0.1458  0.5012  0.0945
  166MOL0     O22310   6.875   3.886   6.036 -0.2207 -0.6122 -0.4382
  166MOL0     C22311   6.764   3.842   5.952  1.0350  0.4011 -0.1619
  166MOL0     C22312   6.649   3.829   6.051  0.2712  0.7391 -0.4251
  166MOL0     C22313   6.521   3.819   5.974  2.0449  0.8664  0.7166
  166MOL0     C22314   6.398   3.812   6.062 -0.5992 -0.7836  0.4425
  166MOL0     C22315   6.274   3.755   5.991 -0.1001  0.7489 -0.4777
  166MOL0     C22316   6.165   3.737   6.099 -0.0564 -0.5510  1.0586
  166MOL0     C22317   6.027   3.778   6.044 -0.5074  0.3701 -0.0338
  166MOL0     C22318   5.917   3.771   6.145 -0.7258 -0.8949  0.2375
  166MOL0    Cl22319   5.761   3.824   6.084 -0.3240  0.2221  0.7439
  166MOL0     C22320   7.033   3.805   5.878 -0.0872 -0.5083  0.1513
  166MOL0     C22321   7.168   3.772   5.843 -0.2553  0.0769  0.1391
  166MOL0     O22322   7.411   3.688   5.690  0.7787 -0.3787 -0.1805
  166MOL0     C22323   7.662   3.588   5.924  0.1702  0.9395 -0.4539
  166MOL0     C22324   7.783   3.527   5.933 -0.4503 -0.3181 -0.2577
  166MOL0     N22325   8.155   3.342   5.263  0.5092 -0.3206  0.1426
  166MOL0     N22326   8.101   3.424   5.178  0.1631  0.3957  0.1027
  166MOL0     C22327   8.096   3.956   4.180  0.6118  0.2010  0.3471
  166MOL0     C22328   8.041   3.923   4.058  0.0215  0.4599  0.0501
  166MOL0     C22329   7.807   3.842   3.687  0.5147 -0.1769 -0.0131
  166MOL0     C22330   7.678   3.788   3.704  0.5922  0.5694  0.5672
  166MOL0     C22331   7.616   3.710   3.609  1.2530 -0.2615 -0.2483
  166MOL0     C22332   7.675   3.677   3.487  0.7283  0.1371  0.0958
  166MOL0     O22333   7.627   3.602   3.379 -0.1727 -0.0125 -0.1527
  166MOL0     C22334   7.496   3.539   3.399  0.0763  0.6471 -0.9881
  166MOL0     C22335   7.378   3.634   3.355 -0.6774  0.1601 -1.1454
  166MOL0     C22336   7.237   3.571   3.382  0.1643  0.3842  0.3532
  166MOL0     C22337   7.234   3.426   3.356 -0.7514 -0.8461 -0.3761
  166MOL0     C22338   7.252   3.400   3.214 -0.0509 -0.0161 -0.9945
  166MOL0     C22339   7.278   3.397   3.098  0.1767  0.7435  0.0748
  166MOL0     C22340   7.805   3.728   3.473  0.0801 -0.0989  1.2134
  166MOL0     C22341   7.864   3.817   3.567 -1.1058  0.5241  0.2503
  166MOL0     C22342   7.997   3.875   3.520  0.4239 -1.4508  0.0480
  166MOL0     H22343   7.717   3.955   4.135 -0.0987 -1.8960  0.3921
  166MOL0     H22344   7.819   4.047   4.352 -1.9909 -2.1722  0.1269
  166MOL0     H22345   7.955   4.196   4.458  0.5331 -1.0721 -1.9791
  166MOL0     H22346   7.955   4.039   4.549  1.2318 -1.6499 -2.5248
  166MOL0     H22347   8.067   4.225   4.674  0.3258 -0.6062  0.5275
  166MOL0     H22348   8.178   4.239   4.552 -1.6890 -0.9510 -0.8755
  166MOL0     H22349   8.292   4.133   4.706 -0.2952  0.6355 -0.7516
  166MOL0     H22350   8.241   3.992   4.609  4.6960  1.4614 -0.0315
  166MOL0     H22351   8.088   4.100   4.851  1.7000  0.1654  1.6385
  166MOL0     H22352   8.038   3.967   4.754 -1.9604 -0.1424  2.4757
  166MOL0     H22353   8.244   3.844   4.821 -1.7567 -0.4197 -0.8949
  166MOL0     H22354   8.282   3.976   4.941  0.5335 -1.7534 -0.7266
  166MOL0     H22355   8.102   3.943   5.068  0.5494 -2.0255  0.4707
  166MOL0     H22356   8.011   3.855   4.947 -1.5460 -1.3160  4.0070
  166MOL0     H22357   8.259   3.770   5.102  0.6630 -0.1188  0.0816
  166MOL0     H22358   8.192   3.672   4.963  1.8587  1.9058 -0.8086
  166MOL0     H22359   8.050   3.741   5.228  3.3218 -2.4727  3.3669
  166MOL0     H22360   7.993   3.642   5.083  1.4455  3.4710 -3.6901
  166MOL0     H22361   8.236   3.615   5.413  3.2832 -1.9149  2.3094
  166MOL0     H22362   8.337   3.248   5.433 -1.0862 -0.8980  1.5755
  166MOL0     H22363   8.363   3.398   5.522  0.2866  0.5950 -0.4563
  166MOL0     H22364   8.121   3.237   5.508  0.4562  0.7997 -1.6239
  166MOL0     H22365   8.247   3.206   5.623 -0.0703 -0.5332 -1.3902
  166MOL0     H22366   8.095   3.472   5.594 -1.8296  0.8808  1.2637
  166MOL0     H22367   8.219   3.455   5.707 -0.6855  0.4063 -0.8470
  166MOL0     H22368   8.086   3.264   5.806  0.4926 -1.2487 -2.8736
  166MOL0     H22369   7.948   3.295   5.713 -0.6980  0.4169 -0.6338
  166MOL0     H22370   7.839   3.498   5.601 -0.6117 -1.9909  0.5724
  166MOL0     H22371   7.622   3.603   5.595  0.8585 -2.1229  0.0864
  166MOL0     H22372   7.293   3.780   6.156 -0.4969 -0.3796  0.3255
  166MOL0     H22373   7.075   3.886   6.196  0.0232 -0.0600 -0.0779
  166MOL0     H22374   6.747   3.900   5.861  1.2092  1.7676  0.6456
  166MOL0     H22375   6.774   3.739   5.919  1.3069  0.3878 -0.0369
  166MOL0     H22376   6.671   3.739   6.110  0.5974  1.9679  1.4009
  166MOL0     H22377   6.644   3.911   6.123  0.6908  1.5666 -1.3051
  166MOL0     H22378   6.497   3.909   5.917  0.1657  0.2120  0.4054
  166MOL0     H22379   6.510   3.730   5.911  2.3413 -0.6591  2.7275
  166MOL0     H22380   6.386   3.917   6.091  2.2720  0.3372 -1.8579
  166MOL0     H22381   6.424   3.744   6.144 -0.4144 -1.8845 -0.4986
  166MOL0     H22382   6.286   3.658   5.942  0.5554 -0.1195  1.3470
  166MOL0     H22383   6.232   3.827   5.919  0.6500  0.3559 -1.3334
  166MOL0     H22384   6.150   3.630   6.119  0.2164 -0.7643  0.1829
  166MOL0     H22385   6.185   3.784   6.195 -0.3949  0.3566  0.6882
  166MOL0     H22386   5.993   3.713   5.962  0.6005 -2.0592  1.3049
  166MOL0     H22387   6.025   3.879   6.002 -0.9918  0.9576  1.3593
  166MOL0     H22388   5.905   3.664   6.161 -2.4823 -0.7358  0.1722
  166MOL0     H22389   5.945   3.822   6.238  0.8589  0.1352 -0.7376
  166MOL0     H22390   6.954   3.818   5.804 -0.6776 -0.8862  0.6981
  166MOL0     H22391   7.181   3.755   5.737 -0.7125 -1.4040  0.3019
  166MOL0     H22392   7.614   3.605   6.020  0.5295  0.1896 -0.1244
  166MOL0     H22393   7.841   3.511   6.023  0.8261  0.3003 -0.9470
  166MOL0     H22394   8.203   3.968   4.189  1.0467  3.3492 -4.9002
  166MOL0     H22395   8.093   3.877   3.974 -0.7606 -1.1853  0.4183
  166MOL0     H22396   7.625   3.796   3.798 -2.5049 -1.1966 -0.8689
  166MOL0     H22397   7.525   3.661   3.642  1.3448 -2.1074 -2.5094
  166MOL0     H22398   7.487   3.514   3.505  0.6829 -0.7079 -1.2379
  166MOL0     H22399   7.513   3.452   3.335  1.2358 -0.7172  1.0496
  166MOL0     H22400   7.384   3.663   3.250  0.6224  1.3435 -0.7673
  166MOL0     H22401   7.382   3.728   3.409 -0.1847 -0.1157 -0.6927
  166MOL0     H22402   7.158   3.625   3.329 -1.1398  0.5997  2.4202
  166MOL0     H22403   7.199   3.586   3.484 -0.6453 -0.8782  0.2661
  166MOL0     H22404   7.305   3.367   3.415  1.2039 -0.1996 -1.9535
  166MOL0     H22405   7.134   3.384   3.367 -1.4728  0.9722  0.3921
  166MOL0     H22406   7.295   3.401   2.992  1.8521  1.2017  0.3356
  166MOL0     H22407   7.868   3.711   3.386 -0.6084  5.0239 -0.6432
  166MOL0     H22408   8.084   3.816   3.549  0.8419 -0.6395  0.4651
  166MOL0     H22409   8.007   3.884   3.412 -2.9959 -2.9264 -0.5301
  166MOL0     H22410   8.018   3.974   3.561  3.6000 -1.9162 -0.2293
  167MOL0     O22411   9.969   4.370   9.397  0.6827  0.5240 -0.4614
  167MOL0     C22412   9.994   4.268   9.461  0.4523  0.5770 -0.3996
  167MOL0     O22413   9.919   4.160   9.475 -0.4310  0.1835  0.3137
  167MOL0     C22414   9.787   4.175   9.453 -1.0572 -0.4918 -0.2602
  167MOL0     C22415   9.703   4.235   9.539  0.8576  1.3472  0.6812
  167MOL0     C22416   9.564   4.248   9.507  0.0788 -0.0386 -0.6330
  167MOL0     C22417   9.514   4.196   9.384 -0.0625  0.4701 -0.0144
  167MOL0     O22418   9.383   4.198   9.348  0.5307 -0.7061  0.2483
  167MOL0     C22419   9.292   4.245   9.442 -0.5013  0.5492 -0.4142
  167MOL0     C22420   9.153   4.238   9.370 -0.5396  0.2844 -0.2011
  167MOL0     C22421   9.043   4.285   9.463  0.8159  0.0761 -0.3059
  167MOL0     C22422   8.918   4.347   9.393  0.3444 -0.1706 -0.7062
  167MOL0     C22423   8.827   4.413   9.499 -0.5540  0.1999  0.2704
  167MOL0     C22424   8.778   4.302   9.597  0.8192 -1.2766  0.3257
  167MOL0     C22425   8.658   4.348   9.683 -0.2123 -0.3308  0.6085
  167MOL0     C22426   8.601   4.224   9.750  0.4985 -0.1177  0.1882
  167MOL0     N22427   8.706   4.152   9.824  0.4127 -0.1611 -0.6886
  167MOL0     C22428   8.792   4.213   9.910  0.3760  0.1575 -1.0006
  167MOL0     C22429   8.834   4.114   9.992 -0.7237 -0.5927  0.6709
  167MOL0     C22430   8.924   4.131  10.109  0.6687  0.3651 -0.1830
  167MOL0     C22431   9.066   4.094  10.069  0.0834 -0.5079 -0.3626
  167MOL0     C22432   9.179   4.111  10.168  0.1375  0.5026 -0.9974
  167MOL0     C22433   9.167   4.011  10.284  0.7806  1.0836 -0.4756
  167MOL0     O22434   9.175   3.869  10.250 -0.6011 -0.3307  0.4086
  167MOL0     C22435   9.299   3.810  10.210 -0.4780  0.2584 -0.9104
  167MOL0     C22436   9.418   3.868  10.244  1.0598 -0.3357 -0.2696
  167MOL0     C22437   9.535   3.804  10.199 -0.0717  0.5026 -0.1207
  167MOL0     C22438   9.537   3.691  10.119  0.0187 -0.4844 -0.3639
  167MOL0     C22439   9.660   3.631  10.068 -0.0825  0.7838  0.7141
  167MOL0     O22440   9.641   3.506  10.008 -0.1550 -0.2290  0.8014
  167MOL0     C22441   9.752   3.440   9.967 -0.0253 -0.7304  0.2714
  167MOL0     C22442   9.791   3.332  10.041 -0.5090 -0.5975 -0.5473
  167MOL0     C22443   9.898   3.256   9.990 -0.1659  0.5282  0.8048
  167MOL0     C22444   9.954   3.284   9.860  1.3534  0.1596 -0.4391
  167MOL0     O22445  10.060   3.211   9.816  0.5424  0.2546  0.2124
  167MOL0     C22446  10.180   3.281   9.787  0.5345  0.6389  0.2914
  167MOL0     C22447  10.261   3.264   9.917 -0.5238  0.1915 -0.5002
  167MOL0     C22448  10.417   3.283   9.917  0.2997 -0.6575  0.6529
  167MOL0     C22449  10.452   3.392   9.818 -0.5895 -0.1447  0.0124
  167MOL0     C22450  10.589   3.462   9.855  0.0035  0.1277 -1.0199
  167MOL0     C22451  10.707   3.366   9.883 -0.7298  0.4922  0.7618
  167MOL0     C22452  10.765   3.295   9.766 -0.3840  0.0534  0.4582
  167MOL0     C22453  10.840   3.389   9.681  0.7613  0.2925  0.1678
  167MOL0    Cl22454  10.861   3.308   9.518 -0.3460  0.3512 -0.0645
  167MOL0     C22455   9.906   3.399   9.788 -0.1712  1.1663 -0.5406
  167MOL0     C22456   9.809   3.477   9.846  0.1465  0.6923  0.6691
  167MOL0     O22457   9.765   3.701  10.061 -0.4628  0.6719  0.6254
  167MOL0     C22458   9.411   3.640  10.087 -0.2563 -0.0466 -1.1288
  167MOL0     C22459   9.294   3.703  10.130 -0.3139  0.0870 -0.4244
  167MOL0     N22460   8.779   3.994   9.947 -0.4599 -0.5044  0.2741
  167MOL0     N22461   8.701   4.019   9.838  0.3041  0.1660 -0.6229
  167MOL0     C22462   9.603   4.129   9.298 -0.6043 -0.3905  0.3249
  167MOL0     C22463   9.740   4.134   9.332  0.0480 -0.2202  0.3717
  167MOL0     C22464  10.132   4.248   9.527 -0.5317 -0.5909 -0.1204
  167MOL0     C22465  10.150   4.152   9.634  0.3868 -1.4736 -0.3601
  167MOL0     C22466  10.274   4.146   9.704  0.9893 -0.2503 -1.5509
  167MOL0     C22467  10.381   4.218   9.669  0.3885  0.4769 -0.0437
  167MOL0     O22468  10.495   4.229   9.745 -0.6841  0.1774  0.2097
  167MOL0     C22469  10.623   4.200   9.684 -0.1388  0.3391 -0.2745
  167MOL0     C22470  10.724   4.310   9.697 -0.1542 -0.1776  0.1149
  167MOL0     C22471  10.838   4.287   9.593  0.0629 -0.7854 -0.1255
  167MOL0     C22472  10.950   4.393   9.610 -0.2976 -0.4325 -0.5826
  167MOL0     C22473  11.046   4.401   9.503  0.9715 -0.3291 -0.1571
  167MOL0     C22474  11.124   4.424   9.415 -0.8899  0.2969  0.3346
  167MOL0     C22475  10.371   4.311   9.558 -0.0850  0.5608  0.1800
  167MOL0     C22476  10.257   4.314   9.478 -0.4125 -0.5918 -0.1090
  167MOL0     C22477  10.249   4.402   9.362  0.0389  0.0209  0.3137
  167MOL0     H22478   9.752   4.269   9.630  1.1773 -0.7785  1.3607
  167MOL0     H22479   9.505   4.285   9.590  0.9869  0.2375 -0.0960
  167MOL0     H22480   9.283   4.183   9.532 -1.2340  1.6546  0.3061
  167MOL0     H22481   9.312   4.349   9.470  1.2055  0.0783  0.1868
  167MOL0     H22482   9.126   4.139   9.332 -0.6630 -0.4674  1.7048
  167MOL0     H22483   9.163   4.312   9.291 -1.7632  1.1206  0.3826
  167MOL0     H22484   9.093   4.353   9.532  0.0522  0.6955 -0.3503
  167MOL0     H22485   9.015   4.199   9.524 -1.5178  0.2184 -1.0719
  167MOL0     H22486   8.964   4.419   9.325  1.6481  1.1162  1.4102
  167MOL0     H22487   8.860   4.273   9.339 -3.0380 -0.1513  2.4673
  167MOL0     H22488   8.882   4.486   9.559 -1.2117  0.8952  0.0411
  167MOL0     H22489   8.737   4.459   9.459 -1.0376 -0.6081  0.3990
  167MOL0     H22490   8.748   4.219   9.532 -0.7461 -1.1231  0.8191
  167MOL0     H22491   8.864   4.265   9.656  3.7937  0.3049 -2.6945
  167MOL0     H22492   8.593   4.399   9.612  1.6733  1.9544  0.3868
  167MOL0     H22493   8.687   4.418   9.762  1.4292 -0.7761  0.4377
  167MOL0     H22494   8.529   4.260   9.824  1.2698  0.3508  0.7286
  167MOL0     H22495   8.547   4.150   9.690 -1.0585 -1.0528  2.6151
  167MOL0     H22496   8.829   4.315   9.915 -1.0997  0.7745 -1.9479
  167MOL0     H22497   8.910   4.221  10.170  0.4814 -0.6855  1.3878
  167MOL0     H22498   8.889   4.048  10.171  2.3782 -1.9873 -2.1725
  167MOL0     H22499   9.068   3.991  10.034  1.9492 -0.5715 -0.1518
  167MOL0     H22500   9.088   4.168   9.992  2.7702  0.8348  1.5524
  167MOL0     H22501   9.171   4.212  10.209  2.0194  0.8797 -1.4935
  167MOL0     H22502   9.278   4.094  10.126  0.9317  0.0911  0.9472
  167MOL0     H22503   9.068   4.033  10.324  1.4391 -0.2879  2.1123
  167MOL0     H22504   9.237   4.028  10.366  3.8044  0.9329 -2.8429
  167MOL0     H22505   9.436   3.958  10.302  0.5274 -0.2084 -0.3014
  167MOL0     H22506   9.623   3.864  10.219  1.4865 -1.7950  0.1542
  167MOL0     H22507   9.752   3.316  10.141 -0.0782 -0.0673 -0.2937
  167MOL0     H22508   9.950   3.180  10.048  1.4714  0.9227 -0.0774
  167MOL0     H22509  10.226   3.241   9.696  1.5499  0.4397  0.8780
  167MOL0     H22510  10.163   3.386   9.762  3.9010  1.7374  1.9901
  167MOL0     H22511  10.221   3.334   9.991  2.2852  0.2799  1.0812
  167MOL0     H22512  10.242   3.165   9.960  0.3921  0.8959  1.6839
  167MOL0     H22513  10.449   3.307  10.018 -1.2922  0.3746  0.9491
  167MOL0     H22514  10.465   3.190   9.884 -1.2280 -0.4509 -2.5900
  167MOL0     H22515  10.363   3.455   9.823 -2.8820 -3.1267  0.1255
  167MOL0     H22516  10.466   3.338   9.723  0.4777 -1.5661  0.9266
  167MOL0     H22517  10.564   3.518   9.945  2.6097 -0.1656 -0.0293
  167MOL0     H22518  10.603   3.528   9.769 -0.8369 -2.6480 -3.4279
  167MOL0     H22519  10.798   3.418   9.916 -0.2902  0.9939 -1.1380
  167MOL0     H22520  10.684   3.297   9.965 -1.7223 -0.6603 -0.4552
  167MOL0     H22521  10.685   3.244   9.712  0.6890  0.3926 -1.5368
  167MOL0     H22522  10.837   3.223   9.806 -1.6473 -0.9221  1.0815
  167MOL0     H22523  10.777   3.478   9.671 -1.0665 -0.5314  3.1719
  167MOL0     H22524  10.936   3.413   9.727  1.3551 -2.8967  0.7905
  167MOL0     H22525   9.950   3.417   9.691  0.6519 -3.2501 -1.1945
  167MOL0     H22526   9.774   3.548   9.771 -0.8276 -1.4708 -1.0204
  167MOL0     H22527   9.405   3.563  10.010  2.0744  1.2447 -2.7303
  167MOL0     H22528   9.201   3.659  10.094 -0.5363  1.9377 -2.2721
  167MOL0     H22529   9.578   4.084   9.203 -0.3273 -1.7561  0.8853
  167MOL0     H22530   9.806   4.109   9.249  2.7248  0.0742  2.2892
  167MOL0     H22531  10.071   4.098   9.685  1.3575 -1.5896  1.1114
  167MOL0     H22532  10.268   4.101   9.802 -2.4455  2.4659 -0.3103
  167MOL0     H22533  10.609   4.170   9.579  1.6573  1.5471 -0.8961
  167MOL0     H22534  10.664   4.112   9.733 -0.7496  0.5074  0.5556
  167MOL0     H22535  10.765   4.314   9.799 -0.5820  0.0219  0.2781
  167MOL0     H22536  10.679   4.409   9.695 -1.0514 -0.5677  0.3992
  167MOL0     H22537  10.798   4.275   9.492  1.9142 -1.5859 -0.8192
  167MOL0     H22538  10.890   4.192   9.612 -0.1696 -0.9888 -0.4928
  167MOL0     H22539  10.907   4.493   9.622  1.8950  0.5411 -0.4022
  167MOL0     H22540  11.008   4.369   9.700 -1.6073  0.0589  0.4362
  167MOL0     H22541  11.185   4.447   9.330 -0.8925  1.7562  0.7080
  167MOL0     H22542  10.466   4.362   9.543  1.5814 -2.1522  0.8144
  167MOL0     H22543  10.242   4.505   9.398 -0.5854 -0.8062  2.7553
  167MOL0     H22544  10.342   4.383   9.309  1.0107  1.3755  1.4425
  167MOL0     H22545  10.169   4.371   9.295  1.5669 -1.2523 -1.0041
  168MOL0     O22546   8.912   6.926   9.955 -0.3145  0.0382 -0.7757
  168MOL0     C22547   8.793   6.919   9.987 -0.6522 -0.0133 -0.6723
  168MOL0     O22548   8.737   6.948  10.115 -0.8009 -0.2902  0.9679
  168MOL0     C22549   8.826   7.018  10.188 -0.3741  0.3145 -0.1006
  168MOL0     C22550   8.922   6.955  10.257 -0.1111  0.0100 -0.6078
  168MOL0     C22551   9.028   7.019  10.320 -0.1637  0.4971 -0.1180
  168MOL0     C22552   9.027   7.156  10.317 -0.0247  0.0088 -0.5467
  168MOL0     O22553   9.130   7.214  10.391 -0.4348 -0.8638 -0.1030
  168MOL0     C22554   9.137   7.357  10.404  0.4402  0.7865  0.5097
  168MOL0     C22555   9.256   7.417  10.485  0.5339 -0.3333  0.3559
  168MOL0     C22556   9.395   7.360  10.443  0.2723  0.3739  0.0352
  168MOL0     C22557   9.514   7.449  10.507 -1.1588  0.1961  0.2653
  168MOL0     C22558   9.644   7.421  10.432 -0.3964  0.3932  0.8437
  168MOL0     C22559   9.762   7.481  10.510  0.3203 -1.1134 -0.3861
  168MOL0     C22560   9.884   7.468  10.416  0.0635 -0.4557  1.0526
  168MOL0     C22561   9.998   7.518  10.500  0.7090  0.8992  0.3880
  168MOL0     N22562  10.121   7.517  10.423 -0.5512 -0.0728 -1.0154
  168MOL0     C22563  10.224   7.612  10.447 -0.2011  1.0655 -0.5417
  168MOL0     C22564  10.326   7.557  10.381 -0.1800  0.3235 -0.9758
  168MOL0     C22565  10.462   7.621  10.369  0.9219 -0.3485 -0.3204
  168MOL0     C22566  10.524   7.682  10.503 -0.5041 -0.4103 -0.2578
  168MOL0     C22567  10.562   7.567  10.606 -0.5725  0.5787 -0.9243
  168MOL0     C22568  10.692   7.607  10.682 -0.1835  1.6012 -0.4044
  168MOL0     O22569  10.801   7.624  10.592  0.2062  0.3575  0.2934
  168MOL0     C22570  10.931   7.595  10.627 -0.2672 -0.3006 -0.3779
  168MOL0     C22571  10.977   7.557  10.754 -0.9422 -0.2266 -0.0075
  168MOL0     C22572  11.116   7.532  10.784  0.5041  0.4371  0.2122
  168MOL0     C22573  11.213   7.546  10.679  0.3575  0.6786  0.5207
  168MOL0     C22574  11.359   7.515  10.697  0.5422  0.0319 -0.5151
  168MOL0     O22575  11.396   7.434  10.807 -0.4816  0.0929 -1.0688
  168MOL0     C22576  11.528   7.422  10.853  0.2769 -0.8369 -0.2668
  168MOL0     C22577  11.636   7.516  10.840  0.0591  0.2922  1.1533
  168MOL0     C22578  11.758   7.485  10.893 -0.1292 -0.1560 -0.8388
  168MOL0     C22579  11.782   7.365  10.958  0.2818  0.8238 -0.7240
  168MOL0     O22580  11.909   7.347  11.019 -0.1879 -0.0271 -0.1376
  168MOL0     C22581  11.940   7.216  11.069 -0.1581 -0.1134  0.7118
  168MOL0     C22582  12.089   7.214  11.105 -0.0437 -0.6447 -0.3983
  168MOL0     C22583  12.150   7.080  11.114  0.0058  0.0825 -1.1257
  168MOL0     C22584  12.279   7.083  11.195  0.1802  0.2573  0.1593
  168MOL0     C22585  12.262   7.107  11.347 -0.0089  0.3448  0.4235
  168MOL0     C22586  12.158   7.009  11.408 -0.6308 -0.3226  0.5738
  168MOL0     C22587  12.166   7.012  11.562  1.4082  0.0428  0.4822
  168MOL0     C22588  12.057   6.925  11.626 -0.9527  0.4045 -0.7315
  168MOL0    Cl22589  12.061   6.745  11.574 -0.5375 -0.1236  0.0233
  168MOL0     C22590  11.674   7.278  10.981 -0.2718  1.1199 -0.2025
  168MOL0     C22591  11.557   7.303  10.923  0.2501  0.1676  0.1591
  168MOL0     O22592  11.428   7.576  10.623 -0.2470  0.9237  0.2749
  168MOL0     C22593  11.171   7.594  10.551 -0.6515 -0.0436  0.0081
  168MOL0     C22594  11.035   7.612  10.531  0.1175 -0.7253 -0.5647
  168MOL0     N22595  10.293   7.439  10.319  0.3818  0.0409 -0.4310
  168MOL0     N22596  10.168   7.418  10.343  0.6973 -0.3623 -0.6028
  168MOL0     C22597   8.939   7.223  10.240 -0.8543  0.5272 -1.1216
  168MOL0     C22598   8.829   7.159  10.186 -0.1868  0.8892 -0.2363
  168MOL0     C22599   8.692   6.888   9.884  0.4501 -0.3561  0.8100
  168MOL0     C22600   8.574   6.830   9.937 -0.1668  0.2639  1.5290
  168MOL0     C22601   8.466   6.802   9.846  0.4138  0.1400 -0.8407
  168MOL0     C22602   8.489   6.796   9.712  1.7778  0.1408 -0.0162
  168MOL0     O22603   8.387   6.751   9.619  0.2501  0.2023  0.3418
  168MOL0     C22604   8.255   6.742   9.665  1.2467 -0.6447 -0.2715
  168MOL0     C22605   8.145   6.730   9.570  0.7170 -0.1905  0.1333
  168MOL0     C22606   8.015   6.665   9.635 -0.1637 -0.5472  0.2382
  168MOL0     C22607   7.908   6.774   9.655  0.5129  0.0494 -0.8248
  168MOL0     C22608   7.922   6.849   9.783  0.6276 -0.4260 -0.7471
  168MOL0     C22609   7.945   6.902   9.891 -0.4631  0.3832  0.1380
  168MOL0     C22610   8.609   6.836   9.658  0.7188 -0.1997 -0.4537
  168MOL0     C22611   8.702   6.900   9.743 -0.6499 -0.0742  0.4114
  168MOL0     C22612   8.819   6.959   9.678 -0.3310 -0.2963  0.6894
  168MOL0     H22613   8.928   6.847  10.258  2.8469  0.0835  1.8484
  168MOL0     H22614   9.106   6.961  10.368  0.0615  2.7894  2.5244
  168MOL0     H22615   9.147   7.389  10.300  0.4503  0.5398  0.4356
  168MOL0     H22616   9.045   7.399  10.444 -0.4584  0.9351 -1.6049
  168MOL0     H22617   9.239   7.400  10.592 -1.7857 -0.3927  0.0175
  168MOL0     H22618   9.247   7.525  10.475 -0.7493 -0.4389  0.1684
  168MOL0     H22619   9.406   7.358  10.335 -1.2808 -0.8981 -0.1445
  168MOL0     H22620   9.399   7.254  10.472 -1.2440  0.9274  2.5639
  168MOL0     H22621   9.485   7.555  10.502  0.8364  0.8414  1.0492
  168MOL0     H22622   9.527   7.420  10.612  1.4452 -0.4226 -0.1480
  168MOL0     H22623   9.645   7.312  10.419 -0.0299  0.3418  1.2609
  168MOL0     H22624   9.644   7.468  10.334 -0.5241 -0.0667  0.6209
  168MOL0     H22625   9.725   7.579  10.539  0.4625 -0.0423 -3.4714
  168MOL0     H22626   9.770   7.419  10.599  0.2294 -1.4379 -0.5993
  168MOL0     H22627   9.875   7.523  10.322  0.6050 -4.0245 -1.3356
  168MOL0     H22628   9.880   7.364  10.380 -1.7274  0.9573 -3.5246
  168MOL0     H22629   9.984   7.621  10.534 -0.1421  1.5516 -1.7914
  168MOL0     H22630  10.008   7.446  10.583  1.7733  0.3038 -0.2200
  168MOL0     H22631  10.215   7.696  10.516 -0.1143 -0.6491  1.6608
  168MOL0     H22632  10.531   7.545  10.331  0.0113 -1.3817  0.0429
  168MOL0     H22633  10.447   7.705  10.301  0.3940  0.1705  0.4172
  168MOL0     H22634  10.615   7.736  10.476 -0.7399 -0.4512 -1.1592
  168MOL0     H22635  10.468   7.760  10.556  0.6328  0.0500  0.2954
  168MOL0     H22636  10.595   7.478  10.553  1.2399 -0.8565  2.2736
  168MOL0     H22637  10.481   7.554  10.679 -0.9854  2.1822 -1.0513
  168MOL0     H22638  10.705   7.522  10.749 -1.3913  0.2434 -1.7948
  168MOL0     H22639  10.679   7.695  10.745 -0.8561 -0.6187  2.7701
  168MOL0     H22640  10.895   7.543  10.824  0.7366 -0.5914  2.0100
  168MOL0     H22641  11.141   7.510  10.887  0.2904  1.3299  0.4595
  168MOL0     H22642  11.618   7.609  10.786 -2.5329 -0.7050  0.1006
  168MOL0     H22643  11.845   7.548  10.877 -0.8057  0.2123 -3.5814
  168MOL0     H22644  11.880   7.206  11.160  0.5683  1.0135  1.3394
  168MOL0     H22645  11.908   7.138  10.999 -0.3804  0.6067 -0.0022
  168MOL0     H22646  12.149   7.261  11.027 -0.2733  0.5062  0.1028
  168MOL0     H22647  12.117   7.278  11.189  1.4514 -1.1882 -0.4585
  168MOL0     H22648  12.083   7.000  11.149  1.3625 -0.6228 -0.0184
  168MOL0     H22649  12.172   7.050  11.011 -0.4193 -0.7194 -0.9959
  168MOL0     H22650  12.352   7.148  11.145 -2.9986  1.7763 -2.9114
  168MOL0     H22651  12.320   6.982  11.191 -1.2395 -0.3571  0.3771
  168MOL0     H22652  12.239   7.212  11.364 -2.7723 -0.3345  1.2726
  168MOL0     H22653  12.349   7.085  11.410 -0.2388 -0.9160  0.3210
  168MOL0     H22654  12.059   7.047  11.382 -0.8096 -1.1659 -0.0114
  168MOL0     H22655  12.177   6.906  11.377  1.5907 -0.2408  1.4444
  168MOL0     H22656  12.170   7.112  11.606 -1.8321 -0.0741  1.3547
  168MOL0     H22657  12.258   6.968  11.601  0.4832 -0.8250  1.7510
  168MOL0     H22658  12.080   6.922  11.733  3.8161 -2.4996 -1.5266
  168MOL0     H22659  11.955   6.955  11.604 -1.0986  1.0337  0.6476
  168MOL0     H22660  11.678   7.175  11.014  0.3308  1.1986 -0.0066
  168MOL0     H22661  11.477   7.231  10.939 -1.3860  1.0499 -3.1987
  168MOL0     H22662  11.228   7.623  10.464 -0.7204  0.5000  0.1366
  168MOL0     H22663  11.006   7.648  10.433  1.5480  1.0907 -0.3851
  168MOL0     H22664   8.938   7.329  10.217 -2.0355  0.5472 -1.0541
  168MOL0     H22665   8.777   7.225  10.116  0.1305 -1.0754 -2.4578
  168MOL0     H22666   8.555   6.816  10.043  0.5308 -1.2973  1.4806
  168MOL0     H22667   8.367   6.783   9.887  0.2128  1.6491 -0.5387
  168MOL0     H22668   8.224   6.831   9.721 -0.4178 -0.7004 -1.0411
  168MOL0     H22669   8.245   6.668   9.745  0.2334 -0.9354 -0.6482
  168MOL0     H22670   8.175   6.668   9.484 -0.0141  0.0627 -0.3071
  168MOL0     H22671   8.122   6.820   9.513  3.7080 -1.9055 -4.3687
  168MOL0     H22672   8.031   6.618   9.733 -1.0865  1.5576  1.4780
  168MOL0     H22673   7.972   6.589   9.570  2.6301 -3.4437  1.4797
  168MOL0     H22674   7.908   6.849   9.576  1.1136  2.3960  1.2603
  168MOL0     H22675   7.808   6.733   9.640 -0.6624  3.2056 -2.7539
  168MOL0     H22676   7.959   6.956   9.982 -1.5430  0.1400  0.4650
  168MOL0     H22677   8.620   6.826   9.551 -1.0361  3.0318 -1.0499
  168MOL0     H22678   8.894   6.883   9.657  0.0926  0.6678 -1.6383
  168MOL0     H22679   8.788   7.008   9.585 -0.7546  0.3965  1.1815
  168MOL0     H22680   8.866   7.036   9.740 -0.9495 -1.8651  3.2625
  169MOL0     O22681   3.980   0.446   3.334  0.1769  0.4808 -0.4347
  169MOL0     C22682   3.921   0.367   3.397  0.4829 -0.0284 -0.0811
  169MOL0     O22683   3.939   0.351   3.532  0.6783 -0.0173  0.8755
  169MOL0     C22684   4.039   0.433   3.579  0.3483 -0.2658 -0.0455
  169MOL0     C22685   4.172   0.388   3.569 -0.8378 -0.7787 -0.2386
  169MOL0     C22686   4.284   0.461   3.603 -0.9366 -0.7600  0.2052
  169MOL0     C22687   4.265   0.590   3.661 -0.6685  1.1112 -0.2808
  169MOL0     O22688   4.372   0.679   3.667  0.8116  0.4959  0.0626
  169MOL0     C22689   4.340   0.821   3.665 -0.8102 -0.1979  0.2505
  169MOL0     C22690   4.474   0.911   3.639 -0.0953 -0.4146 -0.2188
  169MOL0     C22691   4.533   0.883   3.498  0.1215  0.4479  0.4177
  169MOL0     C22692   4.692   0.893   3.485 -0.0916 -0.3187  0.2599
  169MOL0     C22693   4.737   0.884   3.339  0.1167  0.1707 -0.8601
  169MOL0     C22694   4.821   0.755   3.313 -0.5244  0.7569  0.9110
  169MOL0     C22695   4.881   0.759   3.172 -0.0690 -0.4316  0.8000
  169MOL0     C22696   4.947   0.890   3.123 -0.5467 -0.2439 -0.0637
  169MOL0     N22697   5.065   0.930   3.202  0.4456  0.4457  0.0155
  169MOL0     C22698   5.099   1.052   3.251  0.0731 -0.8062 -0.8210
  169MOL0     C22699   5.219   1.025   3.311 -0.6507  0.5016  0.5637
  169MOL0     C22700   5.319   1.105   3.384  0.5249 -0.4865  0.3530
  169MOL0     C22701   5.402   1.194   3.292  0.0669  0.5043  0.2006
  169MOL0     C22702   5.491   1.125   3.184  0.0443  0.1748 -0.6397
  169MOL0     C22703   5.593   1.033   3.229 -0.3591 -0.5497 -0.4257
  169MOL0     O22704   5.638   0.967   3.110  0.3009 -0.1941 -0.0906
  169MOL0     C22705   5.769   0.923   3.105  0.6772  0.4021  0.0517
  169MOL0     C22706   5.837   0.923   2.985  0.9625  0.1648  0.7153
  169MOL0     C22707   5.969   0.887   2.972  0.4656 -0.2974 -0.5352
  169MOL0     C22708   6.040   0.862   3.086 -0.6860 -0.7912  0.1947
  169MOL0     C22709   6.182   0.833   3.070  0.0749  0.3263  0.4616
  169MOL0     O22710   6.252   0.876   2.961  0.3544 -0.5491 -0.9144
  169MOL0     C22711   6.386   0.844   2.962 -0.8013  0.1594 -0.1724
  169MOL0     C22712   6.431   0.709   2.970 -0.4381 -0.2358  0.9228
  169MOL0     C22713   6.563   0.681   2.942 -0.5850  0.0271  0.3498
  169MOL0     C22714   6.657   0.784   2.916 -0.7478 -0.3192 -0.1984
  169MOL0     O22715   6.786   0.753   2.893  0.1740 -0.3001  0.5636
  169MOL0     C22716   6.879   0.843   2.954 -0.2948 -0.0580 -0.0104
  169MOL0     C22717   7.014   0.768   2.973  0.6901  0.1543 -0.4414
  169MOL0     C22718   7.040   0.727   3.125 -0.0971 -0.0294  0.3855
  169MOL0     C22719   6.944   0.614   3.164  0.2364 -0.1741  0.3926
  169MOL0     C22720   6.980   0.566   3.310 -1.0083  0.2290 -0.1201
  169MOL0     C22721   6.880   0.489   3.392  0.6119  0.7167  0.9579
  169MOL0     C22722   6.905   0.335   3.367 -0.2164  0.6859 -0.1771
  169MOL0     C22723   6.823   0.245   3.463 -0.5806 -0.3090 -0.7320
  169MOL0    Cl22724   6.880   0.261   3.642  0.6649  0.2126  0.0738
  169MOL0     C22725   6.610   0.911   2.926 -0.3660 -0.0630 -1.1907
  169MOL0     C22726   6.476   0.952   2.950 -0.3827  0.0315  0.4619
  169MOL0     O22727   6.229   0.772   3.167  0.0678 -0.1009  0.4181
  169MOL0     C22728   5.984   0.867   3.212 -0.1489 -0.7057 -0.2350
  169MOL0     C22729   5.847   0.885   3.219 -0.5515  0.2408 -0.7398
  169MOL0     N22730   5.253   0.891   3.292 -0.2052 -0.1857 -0.4094
  169MOL0     N22731   5.160   0.834   3.236  0.5944 -0.0507 -0.4496
  169MOL0     C22732   4.132   0.633   3.678  0.3002  1.2047 -1.2703
  169MOL0     C22733   4.021   0.551   3.647 -0.7899 -0.4269  0.4651
  169MOL0     C22734   3.805   0.290   3.335 -0.8344 -0.1487 -0.5099
  169MOL0     C22735   3.723   0.217   3.422  0.8666  0.3330 -0.0315
  169MOL0     C22736   3.619   0.136   3.376  0.6537 -0.0308 -0.3568
  169MOL0     C22737   3.585   0.133   3.243 -0.9504  0.5300 -0.7969
  169MOL0     O22738   3.473   0.070   3.189  0.1790 -0.1604 -0.0525
  169MOL0     C22739   3.366   0.019   3.274  0.4393 -0.1987 -0.4982
  169MOL0     C22740   3.295   0.127   3.349  0.4736  0.3063 -0.5157
  169MOL0     C22741   3.216   0.222   3.261 -0.5418  0.4485 -0.1481
  169MOL0     C22742   3.200   0.362   3.310  0.3652  0.0941  0.0162
  169MOL0     C22743   3.327   0.430   3.305 -0.4208  0.6172 -0.2912
  169MOL0     C22744   3.435   0.489   3.314  0.3570  0.2895 -0.1498
  169MOL0     C22745   3.669   0.204   3.154 -0.8770  0.2370 -1.1482
  169MOL0     C22746   3.786   0.278   3.198  0.5647 -0.5819  0.1512
  169MOL0     C22747   3.875   0.330   3.087 -0.7692  0.9058  0.6870
  169MOL0     H22748   4.173   0.299   3.506 -0.8003 -1.0227  0.1052
  169MOL0     H22749   4.385   0.437   3.571 -1.2510  1.4904 -2.9131
  169MOL0     H22750   4.275   0.849   3.583  0.5462 -1.7296 -1.4224
  169MOL0     H22751   4.299   0.855   3.761  1.2011  1.8650  0.4731
  169MOL0     H22752   4.552   0.884   3.711  2.9841 -1.9333 -3.7948
  169MOL0     H22753   4.447   1.016   3.652 -3.4764 -1.2349  0.4022
  169MOL0     H22754   4.493   0.959   3.430  0.7808  2.3176  1.9957
  169MOL0     H22755   4.508   0.783   3.464 -1.8639  1.1732 -0.4183
  169MOL0     H22756   4.725   0.989   3.526 -0.8725  0.5868 -1.1592
  169MOL0     H22757   4.743   0.816   3.543  0.9632 -0.2100 -0.4938
  169MOL0     H22758   4.648   0.868   3.277 -1.7032 -1.2478  1.9271
  169MOL0     H22759   4.789   0.975   3.310  2.1380 -0.8483 -0.6348
  169MOL0     H22760   4.904   0.738   3.382  1.0072  1.1480 -0.7597
  169MOL0     H22761   4.763   0.663   3.313  0.7923 -0.3223 -3.6030
  169MOL0     H22762   4.801   0.736   3.102  0.7471 -0.4359 -0.1544
  169MOL0     H22763   4.946   0.672   3.161  0.9656  0.3709  0.3123
  169MOL0     H22764   4.979   0.873   3.020 -1.2832 -1.4306 -0.1180
  169MOL0     H22765   4.870   0.968   3.122 -2.6499 -2.1726  1.1425
  169MOL0     H22766   5.036   1.140   3.255  0.1264 -0.7017 -1.8689
  169MOL0     H22767   5.263   1.168   3.454 -0.3362 -0.9101  0.0686
  169MOL0     H22768   5.377   1.036   3.445  0.5664 -2.0779 -1.3853
  169MOL0     H22769   5.338   1.268   3.244  1.0653  2.3621  1.6313
  169MOL0     H22770   5.468   1.249   3.360 -1.2054 -2.5522  4.2956
  169MOL0     H22771   5.551   1.197   3.128  2.3898 -0.9225  0.3602
  169MOL0     H22772   5.425   1.076   3.112  2.0747 -1.1765 -1.6389
  169MOL0     H22773   5.552   0.956   3.296  0.4788  0.7663  1.6834
  169MOL0     H22774   5.680   1.079   3.276  1.6752 -4.0489 -0.4179
  169MOL0     H22775   5.776   0.941   2.897 -0.1031  0.3991  1.4756
  169MOL0     H22776   6.017   0.884   2.875  2.1304 -0.6676  0.2737
  169MOL0     H22777   6.354   0.633   2.987  0.6064 -0.9377  2.8975
  169MOL0     H22778   6.602   0.580   2.942 -0.2964  0.1147 -1.0162
  169MOL0     H22779   6.909   0.925   2.889  2.7345  0.2242  1.5798
  169MOL0     H22780   6.840   0.877   3.051 -0.3159 -0.2127  0.0347
  169MOL0     H22781   7.026   0.673   2.920  1.0950 -1.4559  2.3199
  169MOL0     H22782   7.097   0.829   2.939  1.0762  0.0113  0.2141
  169MOL0     H22783   7.141   0.685   3.136 -0.4669 -0.9114  0.5193
  169MOL0     H22784   7.033   0.814   3.191  0.0996 -0.6146  1.1956
  169MOL0     H22785   6.946   0.531   3.092 -0.0630 -1.7791  2.1590
  169MOL0     H22786   6.842   0.650   3.154  0.4161  0.5522  1.0906
  169MOL0     H22787   7.010   0.653   3.369  1.6692 -0.4078 -0.4059
  169MOL0     H22788   7.072   0.507   3.312 -2.6882 -2.5899  2.2058
  169MOL0     H22789   6.892   0.516   3.497 -0.6766  4.9910  0.1760
  169MOL0     H22790   6.781   0.530   3.374  0.9078  1.6032  1.3024
  169MOL0     H22791   7.007   0.300   3.386 -0.9966 -3.1754 -1.9891
  169MOL0     H22792   6.880   0.322   3.261 -0.3139  3.1426 -0.5066
  169MOL0     H22793   6.725   0.293   3.459 -1.2856 -1.7776 -2.2713
  169MOL0     H22794   6.807   0.144   3.426 -1.7411 -0.1837 -0.6090
  169MOL0     H22795   6.683   0.988   2.900 -0.0971  0.6449  1.3665
  169MOL0     H22796   6.441   1.054   2.959 -1.0883 -0.1639  0.0197
  169MOL0     H22797   6.039   0.851   3.305 -1.5599 -2.1196  0.4092
  169MOL0     H22798   5.789   0.894   3.311 -2.3231 -0.0049 -1.7969
  169MOL0     H22799   4.113   0.723   3.736 -0.7880 -0.4125  1.0515
  169MOL0     H22800   3.922   0.593   3.661  0.3040  2.4888  0.1056
  169MOL0     H22801   3.735   0.228   3.529  0.1443  2.7558 -0.1571
  169MOL0     H22802   3.552   0.091   3.448 -2.9880  2.2004 -2.0306
  169MOL0     H22803   3.406  -0.048   3.350 -1.1255  2.6710  3.1688
  169MOL0     H22804   3.292  -0.031   3.211 -1.7846  2.9266 -0.6063
  169MOL0     H22805   3.350   0.195   3.416  0.5821  0.5591 -0.8538
  169MOL0     H22806   3.225   0.085   3.422  0.8700  1.5672  0.6509
  169MOL0     H22807   3.117   0.176   3.252 -0.1855 -0.5951  0.9090
  169MOL0     H22808   3.252   0.214   3.158  1.2301 -1.3576  0.5429
  169MOL0     H22809   3.132   0.401   3.234  1.4095  2.1162  0.0516
  169MOL0     H22810   3.156   0.374   3.410  3.1645  2.6796  1.0960
  169MOL0     H22811   3.537   0.511   3.336  0.8765 -1.2111 -0.8873
  169MOL0     H22812   3.629   0.203   3.053 -1.8207  1.6474 -0.8124
  169MOL0     H22813   3.909   0.433   3.092 -0.9984  1.0939 -1.1328
  169MOL0     H22814   3.963   0.265   3.090 -1.1422  0.3958  0.8534
  169MOL0     H22815   3.835   0.324   2.985  0.3589  0.6939  0.2476
  170MOL0     O22816   3.584   5.374   8.453 -0.2197 -0.1374 -0.0849
  170MOL0     C22817   3.576   5.487   8.502 -0.0129 -0.6142 -0.3699
  170MOL0     O22818   3.681   5.571   8.523 -0.0249  0.5367 -0.3455
  170MOL0     C22819   3.811   5.528   8.493  0.5986 -0.3007  0.3343
  170MOL0     C22820   3.890   5.585   8.392 -0.2462  0.6756  0.0789
  170MOL0     C22821   4.023   5.537   8.367 -0.6871  0.5402  0.0998
  170MOL0     C22822   4.064   5.410   8.432 -0.3481  0.1266 -0.6464
  170MOL0     O22823   4.187   5.364   8.395 -0.0842  0.3974  0.3402
  170MOL0     C22824   4.201   5.232   8.371  0.0425  0.1424 -0.2379
  170MOL0     C22825   4.356   5.219   8.358 -0.0410 -0.6282 -0.4133
  170MOL0     C22826   4.400   5.078   8.322 -0.4143  0.4684  0.6705
  170MOL0     C22827   4.556   5.068   8.358 -0.5793 -0.3538 -0.9562
  170MOL0     C22828   4.588   4.923   8.325 -0.6389  0.4441 -0.1098
  170MOL0     C22829   4.732   4.891   8.362 -0.6830  0.8040  0.0381
  170MOL0     C22830   4.752   4.733   8.361  0.1991  0.6789  0.3297
  170MOL0     C22831   4.703   4.663   8.231  0.0727 -0.2999 -1.6008
  170MOL0     N22832   4.803   4.700   8.134  1.0631  1.1427 -0.8969
  170MOL0     C22833   4.924   4.635   8.117  0.5343  0.4760  0.5018
  170MOL0     C22834   4.966   4.690   8.003 -0.4742 -1.1590 -0.1456
  170MOL0     C22835   5.104   4.659   7.948 -0.4838 -0.8193 -0.0257
  170MOL0     C22836   5.124   4.683   7.806 -0.6872  0.0174 -0.0202
  170MOL0     C22837   5.268   4.702   7.766 -0.7129  0.7685  0.4379
  170MOL0     C22838   5.290   4.667   7.614  0.1085 -0.0046 -1.2300
  170MOL0     O22839   5.407   4.728   7.556  0.1821 -0.7041 -0.3149
  170MOL0     C22840   5.529   4.685   7.594  0.9128  0.6621  0.7221
  170MOL0     C22841   5.557   4.569   7.663 -0.6157  0.4793 -0.6776
  170MOL0     C22842   5.687   4.520   7.689  0.3853  0.9619 -0.2659
  170MOL0     C22843   5.795   4.586   7.632  0.0147 -0.0707 -0.0706
  170MOL0     C22844   5.937   4.545   7.657 -0.1443 -0.1830  0.5663
  170MOL0     O22845   5.959   4.427   7.720 -0.5551  0.2138  0.2113
  170MOL0     C22846   6.091   4.382   7.740 -0.1472 -0.1091 -0.8487
  170MOL0     C22847   6.175   4.439   7.840 -0.3588  0.0601  0.0409
  170MOL0     C22848   6.309   4.409   7.854 -0.4993  0.7372 -1.0058
  170MOL0     C22849   6.378   4.317   7.761  0.5340 -0.3751 -0.3643
  170MOL0     O22850   6.503   4.267   7.785 -0.1577  0.2513 -0.8578
  170MOL0     C22851   6.604   4.360   7.826  0.4601 -0.2153  0.1703
  170MOL0     C22852   6.736   4.328   7.758 -0.5154  0.4490  0.1979
  170MOL0     C22853   6.721   4.328   7.604 -0.4473  0.6280  0.3616
  170MOL0     C22854   6.843   4.321   7.511 -0.0679 -0.2909  0.0340
  170MOL0     C22855   6.973   4.370   7.562  0.1914  0.8887 -0.1110
  170MOL0     C22856   7.078   4.359   7.460 -0.2002 -0.2588  0.4420
  170MOL0     C22857   7.214   4.422   7.497 -0.5783  0.8753 -0.1183
  170MOL0     C22858   7.316   4.386   7.383  0.7810  0.0692  0.1050
  170MOL0    Cl22859   7.480   4.468   7.404  0.2311  0.3288 -0.4669
  170MOL0     C22860   6.292   4.265   7.666  0.6323  0.4745 -0.2961
  170MOL0     C22861   6.158   4.303   7.651 -0.2293  1.1006 -0.1518
  170MOL0     O22862   6.023   4.626   7.627 -0.2918  0.4001 -0.0564
  170MOL0     C22863   5.769   4.700   7.561  0.6468  0.3737  0.5755
  170MOL0     C22864   5.643   4.753   7.541 -0.2271 -1.1933 -0.3076
  170MOL0     N22865   4.868   4.777   7.948 -0.3311  0.0269  0.5973
  170MOL0     N22866   4.780   4.782   8.035  0.5454  0.1410  0.5829
  170MOL0     C22867   3.985   5.362   8.528  0.3933  0.6490  0.1226
  170MOL0     C22868   3.857   5.419   8.559 -0.5158  0.1026  0.3402
  170MOL0     C22869   3.434   5.529   8.526 -1.2030 -0.8067  0.3043
  170MOL0     C22870   3.337   5.427   8.558  0.1134 -0.4733  1.0429
  170MOL0     C22871   3.206   5.461   8.600 -0.4818  0.3447 -0.5425
  170MOL0     C22872   3.174   5.594   8.619 -1.0423 -0.0717  0.4321
  170MOL0     O22873   3.046   5.639   8.645 -0.5403  0.1093  0.0608
  170MOL0     C22874   2.939   5.548   8.688  0.8112 -0.3320 -0.0854
  170MOL0     C22875   2.868   5.484   8.580 -0.7385 -0.4373  0.0275
  170MOL0     C22876   2.820   5.337   8.599  0.5806 -0.0383  0.3426
  170MOL0     C22877   2.705   5.316   8.704  0.7339 -0.0533  1.3799
  170MOL0     C22878   2.578   5.378   8.678  1.4644  0.0919  0.0530
  170MOL0     C22879   2.478   5.443   8.643  0.1678  0.1238  0.1534
  170MOL0     C22880   3.266   5.688   8.579 -0.0166  0.5301  0.3012
  170MOL0     C22881   3.398   5.661   8.538  0.8561 -0.3165  0.0963
  170MOL0     C22882   3.492   5.775   8.490  0.0144 -0.3131 -0.4468
  170MOL0     H22883   3.860   5.666   8.326  0.8825 -0.4437 -1.8766
  170MOL0     H22884   4.087   5.577   8.289  2.4607 -1.2955  1.5418
  170MOL0     H22885   4.167   5.169   8.454  0.6237 -3.5646 -2.5843
  170MOL0     H22886   4.146   5.197   8.283  0.2454 -0.1513 -0.2452
  170MOL0     H22887   4.393   5.247   8.457 -0.9365  1.6394 -0.6633
  170MOL0     H22888   4.396   5.292   8.288 -1.7709  0.3599 -0.4097
  170MOL0     H22889   4.394   5.055   8.215  3.0644  0.5083  0.3437
  170MOL0     H22890   4.343   5.002   8.375  2.8570 -3.2165 -0.6259
  170MOL0     H22891   4.617   5.137   8.298 -1.3640  1.3708  0.1355
  170MOL0     H22892   4.583   5.098   8.460  0.6362  3.3933 -2.2072
  170MOL0     H22893   4.515   4.851   8.361 -1.0058  0.0426 -1.6142
  170MOL0     H22894   4.585   4.925   8.216 -2.0933  0.8480 -0.0770
  170MOL0     H22895   4.804   4.938   8.295  0.1172  0.8199  0.8815
  170MOL0     H22896   4.750   4.929   8.464  0.5948  0.6418 -0.1059
  170MOL0     H22897   4.699   4.693   8.448  2.6084 -0.3927  1.3985
  170MOL0     H22898   4.851   4.701   8.395 -1.2389 -1.6647  2.7286
  170MOL0     H22899   4.706   4.555   8.248  0.5955 -0.3671 -2.1037
  170MOL0     H22900   4.603   4.701   8.210  1.1742  3.4115 -0.8423
  170MOL0     H22901   4.975   4.564   8.181 -0.7962 -0.1965  0.8473
  170MOL0     H22902   5.182   4.709   8.006 -0.0568 -0.2606 -1.0742
  170MOL0     H22903   5.114   4.551   7.957 -1.8204 -1.1275 -1.6501
  170MOL0     H22904   5.106   4.592   7.749  0.2350 -2.8621  3.8750
  170MOL0     H22905   5.070   4.769   7.764 -1.6142 -2.3914 -4.4651
  170MOL0     H22906   5.341   4.645   7.825  0.1385 -0.0710 -1.3281
  170MOL0     H22907   5.296   4.807   7.780  2.5738 -0.3205  3.8265
  170MOL0     H22908   5.199   4.710   7.570  1.6003  2.6744 -1.8582
  170MOL0     H22909   5.286   4.559   7.597 -3.2565 -0.8122  2.8970
  170MOL0     H22910   5.475   4.508   7.698  0.8497 -0.5718  1.0909
  170MOL0     H22911   5.710   4.433   7.750 -0.1737  1.4281  0.6458
  170MOL0     H22912   6.132   4.505   7.915 -2.9718 -3.4987  1.9380
  170MOL0     H22913   6.345   4.444   7.951 -2.0364 -1.7112  0.5723
  170MOL0     H22914   6.578   4.457   7.783  2.0794  0.5043  0.7543
  170MOL0     H22915   6.627   4.369   7.932  4.5142 -0.3248 -0.5615
  170MOL0     H22916   6.814   4.397   7.794 -1.4433  0.4357  2.4125
  170MOL0     H22917   6.770   4.230   7.792  0.1666  1.1939  1.7927
  170MOL0     H22918   6.663   4.237   7.586 -0.1423  0.4501  0.2643
  170MOL0     H22919   6.656   4.405   7.562  1.5491  1.2561 -1.8059
  170MOL0     H22920   6.800   4.380   7.430 -0.8753 -4.5761 -2.9944
  170MOL0     H22921   6.851   4.223   7.462  1.9050  0.3303 -0.9672
  170MOL0     H22922   7.005   4.318   7.652 -1.2883  0.8988  0.4435
  170MOL0     H22923   6.973   4.475   7.594  1.1051  0.3252  1.9216
  170MOL0     H22924   7.086   4.253   7.434  0.4125 -0.1756  0.2695
  170MOL0     H22925   7.051   4.411   7.367  1.6749 -0.9020 -0.5210
  170MOL0     H22926   7.252   4.380   7.590  0.1803 -0.1247 -0.8687
  170MOL0     H22927   7.222   4.531   7.506  0.1364  0.6971  1.7187
  170MOL0     H22928   7.305   4.277   7.381 -0.2362  0.1771 -0.5766
  170MOL0     H22929   7.276   4.419   7.288 -1.5194 -2.4948  0.0649
  170MOL0     H22930   6.337   4.184   7.609 -1.4096 -0.9710  0.0538
  170MOL0     H22931   6.099   4.261   7.570 -1.5273 -4.3991  3.1348
  170MOL0     H22932   5.847   4.753   7.506  0.4442  0.4046  0.3187
  170MOL0     H22933   5.629   4.841   7.479 -1.6875 -2.0078 -1.2144
  170MOL0     H22934   4.017   5.279   8.590  0.9837  0.2149 -0.7530
  170MOL0     H22935   3.798   5.381   8.642 -0.8415  1.1255  0.6011
  170MOL0     H22936   3.357   5.323   8.538  6.0079  0.0526  2.4998
  170MOL0     H22937   3.138   5.383   8.632  0.8641  0.1464  2.1284
  170MOL0     H22938   2.880   5.611   8.755  0.0008 -0.2945 -0.8138
  170MOL0     H22939   2.976   5.474   8.759  4.2507 -0.2254 -1.5825
  170MOL0     H22940   2.942   5.466   8.502  0.3512 -0.7714  1.0999
  170MOL0     H22941   2.785   5.545   8.542  0.0894  0.1361 -0.9012
  170MOL0     H22942   2.909   5.279   8.626  1.0130 -0.0905 -1.1115
  170MOL0     H22943   2.781   5.284   8.512  0.8592  0.5372 -0.1363
  170MOL0     H22944   2.688   5.208   8.707  4.5399 -0.7923  0.7593
  170MOL0     H22945   2.747   5.348   8.800  1.4513  1.0262  0.7140
  170MOL0     H22946   2.382   5.485   8.618 -0.7732 -2.8548 -1.7983
  170MOL0     H22947   3.243   5.794   8.586  1.0685  0.6964  1.9355
  170MOL0     H22948   3.444   5.873   8.483 -1.6311 -1.2316 -3.8710
  170MOL0     H22949   3.578   5.784   8.558  0.1361 -1.2795 -0.4512
  170MOL0     H22950   3.534   5.758   8.391 -1.1067  0.4522 -1.0770
  171MOL0     O22951   3.084   4.519   1.404  0.5638  0.0385  0.4102
  171MOL0     C22952   2.981   4.496   1.461  0.4588  0.4058  0.1344
  171MOL0     O22953   2.980   4.457   1.593 -0.0497  0.5421 -0.1917
  171MOL0     C22954   3.101   4.426   1.657 -0.4628  0.9837 -0.2207
  171MOL0     C22955   3.206   4.339   1.602  0.7959 -0.1151 -0.3298
  171MOL0     C22956   3.324   4.308   1.667  0.4213 -0.7347 -0.3012
  171MOL0     C22957   3.345   4.379   1.784 -0.6971 -0.1281  0.6950
  171MOL0     O22958   3.471   4.371   1.842  0.0742 -0.7927 -0.8370
  171MOL0     C22959   3.583   4.412   1.776 -0.2657  0.4067 -0.1377
  171MOL0     C22960   3.606   4.565   1.772 -0.3005  0.8657 -0.3542
  171MOL0     C22961   3.729   4.609   1.703 -0.3144  1.3852  0.1576
  171MOL0     C22962   3.729   4.563   1.555 -0.4782  0.0476  0.5801
  171MOL0     C22963   3.872   4.598   1.494 -0.6744  0.5020 -0.2940
  171MOL0     C22964   3.930   4.497   1.392  0.7555 -0.6166 -0.8503
  171MOL0     C22965   3.846   4.496   1.265  0.8173  0.4092  0.8112
  171MOL0     C22966   3.840   4.356   1.199  0.0443  0.8933 -0.0644
  171MOL0     N22967   3.955   4.340   1.108  0.2435  0.0195 -0.2700
  171MOL0     C22968   3.945   4.313   0.972  0.1365 -0.2543 -0.5490
  171MOL0     C22969   4.082   4.310   0.938  0.4039  0.2757  0.5028
  171MOL0     C22970   4.144   4.280   0.804  0.9334 -0.3581 -0.0986
  171MOL0     C22971   4.189   4.407   0.725 -0.4842 -0.0714  0.1095
  171MOL0     C22972   4.070   4.494   0.676  0.6468  0.1776 -0.0344
  171MOL0     C22973   4.128   4.608   0.588  0.2632  0.4772  0.4043
  171MOL0     O22974   4.186   4.719   0.663 -0.8791  0.1471  0.6080
  171MOL0     C22975   4.319   4.731   0.692 -0.2299 -0.3213 -0.1290
  171MOL0     C22976   4.355   4.715   0.829  0.0443  0.1346 -0.3940
  171MOL0     C22977   4.491   4.720   0.869  0.1857 -0.6006 -0.0713
  171MOL0     C22978   4.592   4.759   0.768 -0.5959 -0.7836 -0.7030
  171MOL0     C22979   4.726   4.810   0.820 -0.3658  0.2939 -0.1499
  171MOL0     O22980   4.813   4.850   0.725  0.5111  0.2083 -0.2287
  171MOL0     C22981   4.936   4.882   0.757  0.6851 -0.4664  0.7922
  171MOL0     C22982   4.966   5.020   0.787 -0.8447  0.0730  0.1114
  171MOL0     C22983   5.102   5.058   0.811 -1.2439 -0.3615 -0.6397
  171MOL0     C22984   5.205   4.965   0.804  0.2652 -0.1662 -0.5610
  171MOL0     O22985   5.326   5.015   0.824 -0.0724  0.0244  0.0965
  171MOL0     C22986   5.431   4.999   0.718  0.7601  0.1956 -0.1072
  171MOL0     C22987   5.531   5.105   0.746  1.1091 -0.9961 -1.1134
  171MOL0     C22988   5.635   5.106   0.635  0.0914 -0.2917 -0.4761
  171MOL0     C22989   5.756   5.193   0.678  0.2365 -0.1092  0.9803
  171MOL0     C22990   5.897   5.152   0.617  0.0129  0.0469  0.3859
  171MOL0     C22991   5.997   5.259   0.657  0.7831 -1.0371 -0.7534
  171MOL0     C22992   6.131   5.244   0.595 -0.2181  0.6039  0.3290
  171MOL0     C22993   6.217   5.366   0.634  0.5340  0.3359  0.1617
  171MOL0    Cl22994   6.176   5.525   0.564  0.4305 -0.0101 -0.1432
  171MOL0     C22995   5.170   4.834   0.781 -0.4305  0.3367  0.5496
  171MOL0     C22996   5.034   4.791   0.759 -0.2002  0.0737  0.0755
  171MOL0     O22997   4.752   4.804   0.940  0.7547 -0.0353  0.5049
  171MOL0     C22998   4.550   4.782   0.637  0.4176 -0.0905  0.0724
  171MOL0     C22999   4.418   4.757   0.594  0.0133  0.1091 -0.7388
  171MOL0     N23000   4.161   4.342   1.043 -0.1336 -0.1387  0.2646
  171MOL0     N23001   4.085   4.347   1.148  1.2559 -0.1222  0.5597
  171MOL0     C23002   3.244   4.456   1.842  0.6526  0.7275  0.4923
  171MOL0     C23003   3.122   4.477   1.787  0.3300 -0.4355 -1.1529
  171MOL0     C23004   2.853   4.521   1.395  0.0057  0.3728 -0.5829
  171MOL0     C23005   2.737   4.491   1.462  0.4373  0.0950  0.7280
  171MOL0     C23006   2.610   4.527   1.421 -0.1878 -0.1693 -0.4160
  171MOL0     C23007   2.589   4.606   1.316 -0.3490 -0.9464  0.5706
  171MOL0     O23008   2.473   4.645   1.254  0.6212 -0.0468 -0.5623
  171MOL0     C23009   2.345   4.639   1.331 -0.3779 -0.0463 -0.8690
  171MOL0     C23010   2.277   4.506   1.318 -0.4327 -0.0622 -0.0146
  171MOL0     C23011   2.138   4.523   1.382 -0.3983  0.0381 -0.1278
  171MOL0     C23012   2.070   4.384   1.400  0.1958 -0.5647 -0.4396
  171MOL0     C23013   1.933   4.403   1.449 -0.7784 -0.8629  0.1944
  171MOL0     C23014   1.819   4.411   1.492  0.1691  0.1283 -0.3609
  171MOL0     C23015   2.702   4.631   1.238 -0.9731 -0.5940 -0.8331
  171MOL0     C23016   2.835   4.593   1.278 -0.2330 -0.6910  0.0700
  171MOL0     C23017   2.945   4.635   1.186  0.0487  0.7928 -0.4541
  171MOL0     H23018   3.188   4.287   1.508 -0.3539  0.1536 -0.2753
  171MOL0     H23019   3.408   4.248   1.634  1.4946 -0.3672  1.6234
  171MOL0     H23020   3.670   4.373   1.829  0.1883  0.1926 -1.0271
  171MOL0     H23021   3.586   4.366   1.677  3.2792  0.8293 -0.3390
  171MOL0     H23022   3.618   4.595   1.876  3.1254 -1.3511  0.0417
  171MOL0     H23023   3.518   4.607   1.723 -0.4517  0.4093 -0.4745
  171MOL0     H23024   3.820   4.587   1.759  0.5524  0.8639 -1.4062
  171MOL0     H23025   3.722   4.718   1.705 -1.0200  1.3422  1.9766
  171MOL0     H23026   3.707   4.457   1.545  0.7454 -0.0773 -1.1059
  171MOL0     H23027   3.660   4.623   1.495  0.2599  0.7392  0.4053
  171MOL0     H23028   3.865   4.690   1.436 -0.2219 -0.1218 -1.3775
  171MOL0     H23029   3.956   4.591   1.563  1.1937 -0.3445 -2.5133
  171MOL0     H23030   4.033   4.528   1.370  0.3352  2.3205  0.7655
  171MOL0     H23031   3.936   4.400   1.441  1.8178  0.5362  1.4761
  171MOL0     H23032   3.878   4.574   1.195 -0.1587  2.3123  2.3650
  171MOL0     H23033   3.746   4.519   1.304  0.2109 -2.2308  0.9483
  171MOL0     H23034   3.839   4.271   1.268 -0.0579  0.5785 -0.4585
  171MOL0     H23035   3.753   4.358   1.134 -0.1451  1.2360  0.1966
  171MOL0     H23036   3.865   4.321   0.900  0.0303  0.4938 -0.3621
  171MOL0     H23037   4.213   4.197   0.820 -2.0941 -3.0643 -0.1838
  171MOL0     H23038   4.070   4.230   0.742  1.9825  0.6200 -2.2252
  171MOL0     H23039   4.254   4.452   0.801 -0.9688  0.6545  0.0979
  171MOL0     H23040   4.247   4.368   0.641 -2.2800 -4.1347  0.5181
  171MOL0     H23041   4.017   4.535   0.763 -0.1325  0.1806 -0.5021
  171MOL0     H23042   3.992   4.453   0.611  0.4159  1.1152 -0.3714
  171MOL0     H23043   4.044   4.650   0.532  1.0925  0.4603 -0.8783
  171MOL0     H23044   4.200   4.557   0.524 -1.1855 -3.7126  1.7868
  171MOL0     H23045   4.285   4.685   0.906  0.8758 -0.3283  0.1970
  171MOL0     H23046   4.515   4.709   0.975  0.2376  1.2277  0.1390
  171MOL0     H23047   4.880   5.086   0.788 -0.5228  0.5620 -1.5954
  171MOL0     H23048   5.124   5.161   0.839 -3.4558  0.1456 -0.5716
  171MOL0     H23049   5.470   4.897   0.725  1.1736  0.3779  0.2765
  171MOL0     H23050   5.388   5.007   0.618  1.0462 -0.0861 -0.2568
  171MOL0     H23051   5.480   5.199   0.768  2.4176 -0.8568  1.7496
  171MOL0     H23052   5.574   5.078   0.843  0.3973 -3.8742 -1.5177
  171MOL0     H23053   5.670   5.006   0.611  0.3423 -0.5793  0.9879
  171MOL0     H23054   5.591   5.140   0.541 -1.3104  0.7702  0.5100
  171MOL0     H23055   5.763   5.180   0.786 -3.5981  1.8768  1.6340
  171MOL0     H23056   5.738   5.300   0.661 -3.6272 -0.8948 -1.2185
  171MOL0     H23057   5.894   5.152   0.507 -0.7118 -1.0272  0.4004
  171MOL0     H23058   5.935   5.053   0.642 -2.1630 -0.7231  0.8042
  171MOL0     H23059   5.959   5.359   0.635  0.2122 -0.5877  1.9729
  171MOL0     H23060   5.996   5.246   0.765 -2.7461 -0.3690 -0.5956
  171MOL0     H23061   6.127   5.246   0.486  1.2858  2.6674  0.2690
  171MOL0     H23062   6.183   5.156   0.635  0.1155  0.7155  0.1328
  171MOL0     H23063   6.215   5.381   0.742  1.1693 -2.0322  0.5604
  171MOL0     H23064   6.321   5.342   0.608  1.4244  0.4114  3.2588
  171MOL0     H23065   5.257   4.770   0.789 -1.1770 -0.9055 -0.7608
  171MOL0     H23066   5.018   4.688   0.729 -2.0234  0.3524 -0.0329
  171MOL0     H23067   4.607   4.833   0.561  1.0643  3.1448  2.5260
  171MOL0     H23068   4.396   4.760   0.488  0.9341  0.3108 -0.9345
  171MOL0     H23069   3.274   4.489   1.941  0.8464  0.6529  0.4601
  171MOL0     H23070   3.049   4.521   1.853  1.4723 -3.0148  2.0889
  171MOL0     H23071   2.741   4.435   1.555  1.4321  1.2818  1.4411
  171MOL0     H23072   2.528   4.487   1.479  1.7757 -0.9426  2.0058
  171MOL0     H23073   2.280   4.716   1.287  0.3236  0.4271 -1.1086
  171MOL0     H23074   2.367   4.667   1.434 -0.2867 -0.3593 -0.8033
  171MOL0     H23075   2.324   4.425   1.375 -1.3687 -0.1746  0.6336
  171MOL0     H23076   2.271   4.479   1.213  2.5537 -2.1598  0.2342
  171MOL0     H23077   2.085   4.586   1.310  0.8505  0.2672 -0.8781
  171MOL0     H23078   2.152   4.569   1.480 -1.9433  2.1774 -0.8469
  171MOL0     H23079   2.070   4.337   1.302  1.6497 -0.5794 -0.4601
  171MOL0     H23080   2.139   4.335   1.470 -0.3011 -0.4878  0.1097
  171MOL0     H23081   1.717   4.419   1.523 -1.0325  2.8513 -4.1438
  171MOL0     H23082   2.694   4.695   1.150 -1.6503  2.2511  1.1641
  171MOL0     H23083   3.006   4.554   1.147 -1.0072  0.3760 -1.2850
  171MOL0     H23084   2.904   4.684   1.097 -0.9048 -3.8395 -2.8945
  171MOL0     H23085   3.009   4.702   1.244  3.2536 -0.8975 -1.8120
  172MOL0     O23086   3.360  11.151   6.866  0.1449  0.5439 -0.0660
  172MOL0     C23087   3.265  11.154   6.944 -0.2507  0.2212 -0.9589
  172MOL0     O23088   3.267  11.096   7.078 -0.2770 -0.3306  0.3635
  172MOL0     C23089   3.381  11.053   7.136  0.4009 -0.2117  0.5456
  172MOL0     C23090   3.362  10.937   7.211 -0.8581  0.1570  0.0852
  172MOL0     C23091   3.466  10.884   7.283 -0.6861  0.4997  0.9734
  172MOL0     C23092   3.593  10.936   7.275 -0.4034 -0.1745  0.2319
  172MOL0     O23093   3.690  10.877   7.339 -0.3880 -0.3275  0.4563
  172MOL0     C23094   3.824  10.935   7.349 -0.1264  0.0027  0.5178
  172MOL0     C23095   3.912  10.834   7.419 -0.5359  0.2552 -0.9081
  172MOL0     C23096   4.061  10.871   7.458  1.1482  1.3409 -0.4579
  172MOL0     C23097   4.150  10.952   7.352 -0.5929 -0.1538 -0.4462
  172MOL0     C23098   4.299  10.950   7.392  0.5015 -0.7371 -0.3309
  172MOL0     C23099   4.391  11.043   7.321  0.8228 -0.3266 -0.9743
  172MOL0     C23100   4.367  11.036   7.178  0.7615  0.4105  1.2113
  172MOL0     C23101   4.441  11.136   7.102  0.2220  0.2164 -0.6299
  172MOL0     N23102   4.575  11.105   7.057 -0.2587 -0.2209  0.4114
  172MOL0     C23103   4.617  11.004   6.978 -0.2917 -0.0313  0.2503
  172MOL0     C23104   4.748  11.007   6.971 -0.6532 -0.6793 -0.4770
  172MOL0     C23105   4.834  10.901   6.901  0.4089 -0.1903  0.4066
  172MOL0     C23106   4.858  10.775   6.992 -0.0858 -0.2252 -0.2783
  172MOL0     C23107   4.954  10.818   7.107 -1.3359 -0.4930 -0.1193
  172MOL0     C23108   5.066  10.714   7.125  0.7598 -0.4883  0.5741
  172MOL0     O23109   5.159  10.768   7.213 -0.0324  0.0754 -0.4402
  172MOL0     C23110   5.282  10.720   7.196 -0.7873  0.2648  0.0814
  172MOL0     C23111   5.328  10.590   7.225 -0.4172  0.3331 -0.7019
  172MOL0     C23112   5.463  10.561   7.217 -0.1742 -0.0789  0.3953
  172MOL0     C23113   5.554  10.660   7.172 -0.5979  0.9649  1.1356
  172MOL0     C23114   5.702  10.615   7.166  0.5037  1.1119 -0.2854
  172MOL0     O23115   5.726  10.491   7.222 -0.2509  0.0023  0.0362
  172MOL0     C23116   5.849  10.432   7.209  0.1654  0.2115  0.1269
  172MOL0     C23117   5.956  10.462   7.121  0.4832  0.3413  0.1011
  172MOL0     C23118   6.068  10.377   7.121  0.9767 -0.3882  0.8274
  172MOL0     C23119   6.081  10.268   7.198 -1.2647  0.2356 -0.3314
  172MOL0     O23120   6.190  10.193   7.203  0.1156 -0.3914 -0.0029
  172MOL0     C23121   6.179  10.072   7.126  0.1411 -0.3982  0.0105
  172MOL0     C23122   6.285   9.967   7.138 -0.2856  0.5210 -0.8582
  172MOL0     C23123   6.421  10.031   7.142 -0.0136 -0.5936 -0.1387
  172MOL0     C23124   6.544   9.947   7.176  0.2386  0.4615 -0.6819
  172MOL0     C23125   6.552   9.915   7.328 -0.3451  0.3930  0.0912
  172MOL0     C23126   6.565   9.758   7.359 -0.2350 -0.2976  0.0953
  172MOL0     C23127   6.432   9.692   7.334 -0.9609  0.0435 -0.1592
  172MOL0     C23128   6.432   9.551   7.379  0.3854 -0.0366  0.7394
  172MOL0    Cl23129   6.269   9.481   7.353  0.4081  0.7844  0.2104
  172MOL0     C23130   5.979  10.243   7.295 -0.1509  0.2054 -0.0615
  172MOL0     C23131   5.863  10.323   7.290  0.3213  0.3685 -0.6949
  172MOL0     O23132   5.775  10.693   7.111  0.2522  0.5003 -0.0230
  172MOL0     C23133   5.505  10.784   7.136  0.8708 -0.2361  0.4814
  172MOL0     C23134   5.376  10.808   7.151  0.8733 -0.0583 -0.5848
  172MOL0     N23135   4.789  11.115   7.045 -0.0375 -0.6116 -1.7107
  172MOL0     N23136   4.686  11.176   7.085  0.2454  1.0752 -0.5716
  172MOL0     C23137   3.608  11.054   7.202 -0.6663  0.3364 -0.5108
  172MOL0     C23138   3.506  11.113   7.138 -0.3913 -0.2611 -0.1480
  172MOL0     C23139   3.138  11.204   6.888  0.0650 -0.6397  0.1827
  172MOL0     C23140   3.044  11.247   6.980  0.4186 -0.4783  0.0854
  172MOL0     C23141   2.920  11.288   6.947  0.9859  0.2035 -0.1977
  172MOL0     C23142   2.874  11.312   6.814 -1.5449 -0.0134  0.2586
  172MOL0     O23143   2.748  11.344   6.792  0.9001  0.0528  0.9449
  172MOL0     C23144   2.720  11.448   6.695 -0.2508  0.3564  0.1496
  172MOL0     C23145   2.768  11.580   6.746 -0.0122 -0.3530  0.0440
  172MOL0     C23146   2.692  11.652   6.862 -0.4063 -0.5593 -0.0677
  172MOL0     C23147   2.733  11.584   7.003 -0.9763 -0.4721  0.3023
  172MOL0     C23148   2.722  11.688   7.104  0.0014  0.5473 -0.4864
  172MOL0     C23149   2.716  11.784   7.184 -0.5480  0.4070  0.5160
  172MOL0     C23150   2.965  11.268   6.713  0.8819 -0.1389  0.1724
  172MOL0     C23151   3.095  11.223   6.749  1.0931 -0.0085  0.1444
  172MOL0     C23152   3.167  11.168   6.627 -0.0677 -0.5154 -0.2157
  172MOL0     H23153   3.267  10.891   7.239 -0.2193 -0.9389  0.5398
  172MOL0     H23154   3.455  10.797   7.346 -1.3187  0.2843  0.5720
  172MOL0     H23155   3.869  10.949   7.250  1.7762 -0.4224  1.2777
  172MOL0     H23156   3.831  11.028   7.406  0.5470  1.0205 -1.1463
  172MOL0     H23157   3.901  10.749   7.350  1.5422 -0.4556 -0.4571
  172MOL0     H23158   3.871  10.815   7.518  1.4082 -1.2844 -0.3330
  172MOL0     H23159   4.103  10.773   7.483 -0.9593  0.8431  1.4090
  172MOL0     H23160   4.054  10.938   7.544  0.4955  0.7520 -0.0407
  172MOL0     H23161   4.150  10.907   7.252 -1.1335  2.2178 -1.5804
  172MOL0     H23162   4.123  11.058   7.352  1.6320  0.4740 -2.0052
  172MOL0     H23163   4.305  10.961   7.501 -1.4175 -1.9795 -0.0568
  172MOL0     H23164   4.330  10.846   7.379  1.6587 -0.3392 -0.9468
  172MOL0     H23165   4.357  11.140   7.359 -3.0782 -1.0923 -2.0499
  172MOL0     H23166   4.496  11.023   7.344  0.6952  1.2309  1.2087
  172MOL0     H23167   4.260  11.053   7.158  0.4055 -0.2560  2.4164
  172MOL0     H23168   4.393  10.936   7.141 -2.5147 -0.5538  1.1619
  172MOL0     H23169   4.380  11.150   7.013  1.1789  1.8081 -1.0794
  172MOL0     H23170   4.447  11.234   7.152  0.4310 -0.7991  1.4374
  172MOL0     H23171   4.552  10.931   6.930 -1.7115  0.8443  0.7826
  172MOL0     H23172   4.774  10.870   6.815  0.4916  0.5811  0.0661
  172MOL0     H23173   4.925  10.949   6.864  1.4157 -1.3372  1.2886
  172MOL0     H23174   4.761  10.752   7.037  0.2839  2.4875  2.2091
  172MOL0     H23175   4.901  10.696   6.930 -1.7533 -0.0558 -1.7456
  172MOL0     H23176   4.893  10.850   7.192 -0.2435 -0.4671  0.6780
  172MOL0     H23177   4.993  10.915   7.073 -2.2244 -0.2338 -0.4415
  172MOL0     H23178   5.115  10.700   7.028 -0.0538  0.5917 -0.0127
  172MOL0     H23179   5.027  10.618   7.160 -4.1492  0.2855 -1.9315
  172MOL0     H23180   5.260  10.508   7.241  0.6458 -0.4398 -0.0878
  172MOL0     H23181   5.503  10.461   7.229  3.6525  0.8574 -2.5075
  172MOL0     H23182   5.959  10.550   7.059  3.0784 -0.1962 -0.6966
  172MOL0     H23183   6.148  10.403   7.053 -1.5844  1.3876 -1.7381
  172MOL0     H23184   6.084  10.021   7.144  0.2285 -0.9811 -1.0770
  172MOL0     H23185   6.169  10.101   7.021  0.1103 -1.6999 -0.3607
  172MOL0     H23186   6.254   9.929   7.237 -1.0368 -2.2671 -2.0556
  172MOL0     H23187   6.271   9.894   7.058 -3.2534 -0.2170  0.1986
  172MOL0     H23188   6.426  10.061   7.037  0.4851  0.7416  0.2427
  172MOL0     H23189   6.422  10.118   7.209 -2.6395  0.3422 -1.1924
  172MOL0     H23190   6.635  10.003   7.150 -0.6509  0.8921 -3.1239
  172MOL0     H23191   6.535   9.859   7.112 -1.8782 -0.3427  0.6054
  172MOL0     H23192   6.469   9.950   7.390 -0.6386  0.9756 -0.6170
  172MOL0     H23193   6.640   9.954   7.380 -0.3922 -0.8060  1.1068
  172MOL0     H23194   6.640   9.728   7.286 -2.1467 -1.6325 -1.4172
  172MOL0     H23195   6.587   9.754   7.466 -0.7327  1.7228  0.3188
  172MOL0     H23196   6.412   9.690   7.226  2.2814 -0.1359 -0.8503
  172MOL0     H23197   6.356   9.752   7.385 -2.0465 -0.8659 -0.6390
  172MOL0     H23198   6.511   9.495   7.329  2.3137  1.3236  2.1360
  172MOL0     H23199   6.466   9.544   7.483  2.0406  0.5628  0.2570
  172MOL0     H23200   5.983  10.175   7.379 -0.6104  1.6659  1.2062
  172MOL0     H23201   5.790  10.300   7.367  1.5975 -2.4403 -0.2015
  172MOL0     H23202   5.574  10.864   7.109 -0.7787  0.6009 -1.5374
  172MOL0     H23203   5.346  10.910   7.129 -4.8637 -0.7822  1.9776
  172MOL0     H23204   3.699  11.111   7.215 -0.7589  0.4933 -0.5424
  172MOL0     H23205   3.518  11.211   7.092  0.2084 -0.5127 -0.5465
  172MOL0     H23206   3.065  11.247   7.086 -1.4883  1.6065  0.5294
  172MOL0     H23207   2.839  11.303   7.018 -0.5663 -1.8718 -1.4127
  172MOL0     H23208   2.612  11.461   6.685 -0.2971 -1.2469 -2.1453
  172MOL0     H23209   2.774  11.422   6.604 -1.7050 -1.0620 -0.3496
  172MOL0     H23210   2.758  11.647   6.660  3.5771 -2.3741 -2.2254
  172MOL0     H23211   2.874  11.575   6.772 -0.7703 -1.4385  3.3767
  172MOL0     H23212   2.583  11.654   6.846 -0.0090  0.6683 -3.4050
  172MOL0     H23213   2.720  11.757   6.876 -0.7861 -0.6190  1.3069
  172MOL0     H23214   2.676  11.496   7.032 -3.0120  1.2759  1.9611
  172MOL0     H23215   2.839  11.558   7.000 -1.0367 -1.1871  2.6791
  172MOL0     H23216   2.713  11.867   7.252  2.6753  3.1473 -2.2840
  172MOL0     H23217   2.931  11.254   6.611  0.1728  1.6910  0.1276
  172MOL0     H23218   3.269  11.208   6.622 -0.3260  0.0818 -0.8787
  172MOL0     H23219   3.173  11.060   6.618  1.4323 -0.4639 -0.0627
  172MOL0     H23220   3.111  11.205   6.540 -1.1101  0.4676  0.8369
  173MOL0     O23221   6.161   8.701   8.751  0.4674 -0.1448 -0.4437
  173MOL0     C23222   6.273   8.696   8.700  0.6082  0.1573  0.1868
  173MOL0     O23223   6.299   8.626   8.581  0.6099 -0.2317  0.3095
  173MOL0     C23224   6.202   8.546   8.531 -0.3704  0.3477  0.4704
  173MOL0     C23225   6.083   8.597   8.484  0.0821  0.3053  0.5505
  173MOL0     C23226   5.988   8.512   8.420 -0.3276 -0.4055 -0.9710
  173MOL0     C23227   6.017   8.380   8.398 -1.1740  0.0487 -0.1387
  173MOL0     O23228   5.932   8.309   8.313 -1.0921  0.1781  0.0881
  173MOL0     C23229   5.907   8.166   8.315  0.1655 -0.2585 -0.1793
  173MOL0     C23230   5.842   8.139   8.458 -0.0034 -0.1269 -0.1263
  173MOL0     C23231   5.791   7.998   8.484 -1.9091  0.8184  0.2976
  173MOL0     C23232   5.894   7.889   8.467  0.1359 -0.1926  0.5152
  173MOL0     C23233   5.836   7.749   8.469  0.1687 -0.1188 -0.6096
  173MOL0     C23234   5.934   7.628   8.477 -0.4138 -0.7058 -0.4311
  173MOL0     C23235   5.855   7.492   8.483  0.1297 -0.2600  0.0993
  173MOL0     C23236   5.931   7.362   8.473  0.2087 -0.2140 -0.2076
  173MOL0     N23237   5.981   7.318   8.340 -0.5745  0.4699 -0.5164
  173MOL0     C23238   6.077   7.387   8.275 -0.3918 -0.0635 -0.2197
  173MOL0     C23239   6.120   7.300   8.178  0.1944 -0.1102  0.6570
  173MOL0     C23240   6.246   7.307   8.093 -0.9183 -0.5309 -0.3267
  173MOL0     C23241   6.361   7.392   8.145 -0.1221  0.6490 -0.2371
  173MOL0     C23242   6.419   7.340   8.274  0.1333 -0.5296  0.0021
  173MOL0     C23243   6.554   7.406   8.293 -0.7901 -0.3612 -0.0237
  173MOL0     O23244   6.604   7.364   8.420  0.3735 -0.5326  0.1797
  173MOL0     C23245   6.695   7.255   8.417 -0.3702 -0.4152 -0.0937
  173MOL0     C23246   6.707   7.161   8.310  0.7193  0.3834 -0.3563
  173MOL0     C23247   6.812   7.065   8.310 -0.2685  1.0220 -0.3931
  173MOL0     C23248   6.894   7.053   8.422 -0.6738  0.5433  0.3363
  173MOL0     C23249   6.996   6.951   8.428  0.7073  0.8251  0.1250
  173MOL0     O23250   7.097   6.942   8.513 -0.1591 -0.2718  0.1351
  173MOL0     C23251   7.201   6.850   8.517 -0.3961 -0.1019  0.0037
  173MOL0     C23252   7.236   6.764   8.404  0.2344  0.0680 -0.0669
  173MOL0     C23253   7.332   6.662   8.421 -0.1276  0.9576  0.0321
  173MOL0     C23254   7.385   6.650   8.551  0.0542  0.0422  0.5696
  173MOL0     O23255   7.487   6.557   8.553  0.7638 -0.2910 -0.6950
  173MOL0     C23256   7.527   6.498   8.676 -0.6283  1.2259 -0.9096
  173MOL0     C23257   7.652   6.568   8.722  0.6505  0.7848  0.2481
  173MOL0     C23258   7.723   6.491   8.836  0.2608 -0.2152  0.5602
  173MOL0     C23259   7.862   6.549   8.878  0.0109 -0.7119 -0.6759
  173MOL0     C23260   7.970   6.530   8.769 -0.0264  0.0447  0.9557
  173MOL0     C23261   8.117   6.571   8.811  0.3875  0.6918 -0.2785
  173MOL0     C23262   8.132   6.719   8.857 -0.4732  0.0826 -0.0713
  173MOL0     C23263   8.136   6.808   8.734  0.3047 -0.2136  0.5419
  173MOL0    Cl23264   8.302   6.800   8.666 -0.0817 -0.3406  0.1576
  173MOL0     C23265   7.360   6.741   8.651 -0.6989  0.0020 -0.1274
  173MOL0     C23266   7.267   6.838   8.635  0.0960  0.0432 -0.5773
  173MOL0     O23267   6.982   6.872   8.338  0.0327  0.3633  0.1680
  173MOL0     C23268   6.876   7.142   8.527  0.1916  0.3040 -0.3805
  173MOL0     C23269   6.783   7.245   8.521  0.1128  0.5958 -0.1400
  173MOL0     N23270   6.035   7.189   8.179  0.4623  0.1110 -0.0301
  173MOL0     N23271   5.945   7.204   8.267 -0.2553 -0.0688  0.4265
  173MOL0     C23272   6.140   8.328   8.436 -0.2813  0.0743 -0.3077
  173MOL0     C23273   6.240   8.413   8.502  0.0764  0.4137  0.9890
  173MOL0     C23274   6.381   8.768   8.776  0.1919  0.5246  0.0002
  173MOL0     C23275   6.499   8.685   8.767 -0.4417  0.3976  0.4574
  173MOL0     C23276   6.619   8.740   8.828 -0.1271  1.4457  0.6569
  173MOL0     C23277   6.613   8.865   8.903 -0.2070  0.0493  0.2354
  173MOL0     O23278   6.717   8.925   8.972  0.6859  1.0466  0.2960
  173MOL0     C23279   6.843   8.859   8.978  0.2302  0.2180 -0.2740
  173MOL0     C23280   6.853   8.771   9.096 -0.4687 -0.0358 -0.0114
  173MOL0     C23281   6.877   8.840   9.237  0.5791 -0.5976 -0.4231
  173MOL0     C23282   7.010   8.910   9.250  1.0654  0.0896 -0.3327
  173MOL0     C23283   7.118   8.806   9.245  0.1762  1.5562 -0.0954
  173MOL0     C23284   7.211   8.728   9.255 -0.0896 -1.1716  0.4430
  173MOL0     C23285   6.488   8.935   8.906  0.2781  1.1665 -0.5473
  173MOL0     C23286   6.372   8.889   8.844  1.1983  0.5339  0.4193
  173MOL0     C23287   6.237   8.973   8.858 -0.7606 -0.5249  0.4782
  173MOL0     H23288   6.072   8.702   8.510 -0.7366  0.2072  0.6463
  173MOL0     H23289   5.896   8.564   8.397  1.3256  3.4491  0.3143
  173MOL0     H23290   5.837   8.142   8.234  0.5054  0.8389 -0.8128
  173MOL0     H23291   6.003   8.117   8.300 -0.4749 -1.8112  0.6311
  173MOL0     H23292   5.750   8.197   8.464 -1.0120 -1.6419 -0.5044
  173MOL0     H23293   5.909   8.181   8.533 -2.0421  1.9462  0.6497
  173MOL0     H23294   5.706   7.975   8.420 -0.6912 -1.0941 -0.7158
  173MOL0     H23295   5.758   7.993   8.588 -0.1917  1.5837  0.9081
  173MOL0     H23296   5.957   7.893   8.378 -0.1732  0.7636  0.3245
  173MOL0     H23297   5.957   7.894   8.557  0.6278  0.1774  0.1556
  173MOL0     H23298   5.759   7.740   8.547  2.0362  1.5368  1.5583
  173MOL0     H23299   5.790   7.738   8.370 -0.4240 -1.5291 -0.2077
  173MOL0     H23300   5.997   7.647   8.390 -1.9975  1.4810 -1.1693
  173MOL0     H23301   5.999   7.638   8.565  0.4248  1.5566 -1.2619
  173MOL0     H23302   5.795   7.498   8.392 -4.0641  3.8409  2.6638
  173MOL0     H23303   5.776   7.484   8.557 -0.3633 -3.5633 -0.6468
  173MOL0     H23304   6.003   7.339   8.552  0.6306 -2.3817 -1.1489
  173MOL0     H23305   5.851   7.291   8.494  0.7131 -0.2612  1.7422
  173MOL0     H23306   6.117   7.479   8.318  0.3286 -0.8013  0.7481
  173MOL0     H23307   6.304   7.215   8.076 -0.1031 -0.6649  2.6895
  173MOL0     H23308   6.219   7.347   7.994 -0.9001  0.8679  0.2128
  173MOL0     H23309   6.440   7.400   8.070  1.7901 -2.4914  1.2573
  173MOL0     H23310   6.323   7.494   8.157  0.3774  0.7710  0.3246
  173MOL0     H23311   6.443   7.234   8.264  2.7259  0.0903 -1.0246
  173MOL0     H23312   6.353   7.372   8.355  1.0675 -1.1971  1.0727
  173MOL0     H23313   6.538   7.514   8.301  1.6646  0.0612  0.0018
  173MOL0     H23314   6.630   7.383   8.218  1.6417 -2.0271  2.7397
  173MOL0     H23315   6.643   7.168   8.223  0.8180  3.3587 -0.3030
  173MOL0     H23316   6.805   7.010   8.216 -3.5827  1.0932 -0.2973
  173MOL0     H23317   7.182   6.753   8.311  0.3424  0.4203 -0.1706
  173MOL0     H23318   7.360   6.596   8.339  1.8193  1.6804  0.0616
  173MOL0     H23319   7.450   6.486   8.752 -1.1420 -0.8198 -1.6809
  173MOL0     H23320   7.570   6.399   8.656  3.0705  1.9912  2.0470
  173MOL0     H23321   7.717   6.571   8.634  0.3887 -0.0235  0.0174
  173MOL0     H23322   7.641   6.670   8.759  1.3903  0.4882  1.3050
  173MOL0     H23323   7.654   6.477   8.920 -0.3143 -2.5769 -0.2364
  173MOL0     H23324   7.738   6.388   8.804 -0.2232 -1.1874  3.1816
  173MOL0     H23325   7.890   6.500   8.972 -0.4823 -0.6145 -0.4779
  173MOL0     H23326   7.841   6.655   8.897 -2.5288 -0.6317 -3.2148
  173MOL0     H23327   7.941   6.585   8.680 -4.2805 -0.1873  2.0134
  173MOL0     H23328   7.967   6.422   8.747 -3.5164  0.4345 -1.1833
  173MOL0     H23329   8.148   6.500   8.889 -0.8325 -0.2411 -0.6059
  173MOL0     H23330   8.182   6.538   8.730 -0.8830 -2.4927 -0.1503
  173MOL0     H23331   8.232   6.722   8.901 -0.0717 -0.0405 -0.9525
  173MOL0     H23332   8.058   6.745   8.934 -2.1518 -1.8357 -0.9580
  173MOL0     H23333   8.066   6.772   8.658  0.5509  0.2041  0.1150
  173MOL0     H23334   8.121   6.915   8.751 -1.4709 -0.4272  0.4767
  173MOL0     H23335   7.418   6.733   8.742 -1.4049  1.1284  0.4409
  173MOL0     H23336   7.249   6.905   8.718 -0.0696  1.1338 -1.4811
  173MOL0     H23337   6.936   7.122   8.615 -1.7024 -1.0844  0.6612
  173MOL0     H23338   6.767   7.318   8.600  5.4515  1.7334  0.2192
  173MOL0     H23339   6.150   8.221   8.417 -1.4687 -0.3707  1.3256
  173MOL0     H23340   6.340   8.392   8.536 -0.2175 -3.1630  0.0861
  173MOL0     H23341   6.504   8.593   8.709  2.2184  1.8282 -1.8350
  173MOL0     H23342   6.711   8.683   8.822 -1.6306 -1.0896  0.2437
  173MOL0     H23343   6.911   8.944   8.983  1.4193 -0.6946 -0.2627
  173MOL0     H23344   6.863   8.791   8.894 -0.1130 -2.0955  1.4047
  173MOL0     H23345   6.931   8.696   9.083  1.5072  2.0931 -1.4781
  173MOL0     H23346   6.760   8.715   9.105  0.5604 -1.6053  1.4224
  173MOL0     H23347   6.872   8.770   9.322  3.8109 -0.8610 -0.3334
  173MOL0     H23348   6.791   8.908   9.242 -0.2112 -1.3677 -2.5147
  173MOL0     H23349   7.008   8.974   9.161 -2.6664 -0.8596 -1.0839
  173MOL0     H23350   7.021   8.966   9.343  0.1646 -1.6256  0.8528
  173MOL0     H23351   7.276   8.643   9.259  0.9458 -0.5397 -1.7020
  173MOL0     H23352   6.471   9.028   8.960 -4.0694  1.5787 -2.1966
  173MOL0     H23353   6.145   8.920   8.833 -1.6807  1.3336 -0.2883
  173MOL0     H23354   6.239   9.021   8.956  0.4333  1.4738 -0.4642
  173MOL0     H23355   6.237   9.049   8.780 -1.1983 -0.4461  0.5577
  174MOL0     O23356   3.443  10.075   9.717 -0.3663 -0.5026 -0.5399
  174MOL0     C23357   3.521  10.030   9.635  0.0447 -0.7167 -0.4008
  174MOL0     O23358   3.475   9.984   9.519 -1.1219 -0.7315 -0.4168
  174MOL0     C23359   3.344   9.994   9.487  0.3043 -0.1093  0.0613
  174MOL0     C23360   3.256   9.898   9.521  0.2819 -0.4585 -0.0180
  174MOL0     C23361   3.123   9.901   9.482  0.0408 -0.2551  0.1421
  174MOL0     C23362   3.075  10.008   9.415 -0.4766 -0.5688  0.2718
  174MOL0     O23363   2.938  10.009   9.389 -0.0064  0.3651 -0.3613
  174MOL0     C23364   2.868  10.134   9.365 -0.7459 -1.4579  0.2765
  174MOL0     C23365   2.716  10.113   9.388 -0.3737 -0.1004 -0.8256
  174MOL0     C23366   2.654  10.043   9.272 -0.5266  0.2146  0.6087
  174MOL0     C23367   2.526   9.968   9.312  0.2505 -0.2198 -0.3490
  174MOL0     C23368   2.450   9.934   9.191  0.2915  0.0172  0.2604
  174MOL0     C23369   2.511   9.816   9.118 -0.0218  0.9153 -0.4167
  174MOL0     C23370   2.424   9.786   8.989  0.8386 -0.5069  0.0697
  174MOL0     C23371   2.436   9.637   8.945  1.0906 -0.6469 -0.2169
  174MOL0     N23372   2.353   9.541   9.023 -0.3244 -0.0081  0.2671
  174MOL0     C23373   2.413   9.470   9.124  0.1276  0.2573  0.0923
  174MOL0     C23374   2.316   9.424   9.197 -0.3336 -0.7231 -0.2243
  174MOL0     C23375   2.332   9.350   9.324  0.9614  0.5755 -0.7844
  174MOL0     C23376   2.412   9.217   9.344 -0.7836  0.1204 -0.2506
  174MOL0     C23377   2.398   9.139   9.479 -0.0137 -0.0447  0.0798
  174MOL0     C23378   2.420   9.229   9.601 -0.1098  0.1543  0.1561
  174MOL0     O23379   2.543   9.305   9.608 -0.1561 -0.8238  0.0735
  174MOL0     C23380   2.657   9.240   9.636 -0.1070 -0.5124  0.5707
  174MOL0     C23381   2.681   9.121   9.702 -0.7730 -1.0999  0.1887
  174MOL0     C23382   2.807   9.060   9.720  0.5220  0.2597 -0.2749
  174MOL0     C23383   2.921   9.125   9.676  0.1099 -0.5601 -0.4466
  174MOL0     C23384   3.058   9.071   9.683  0.4821 -0.2113 -0.7279
  174MOL0     O23385   3.152   9.129   9.603 -0.1724  0.2401 -0.1509
  174MOL0     C23386   3.279   9.069   9.605  0.6417  0.2726  0.3409
  174MOL0     C23387   3.277   8.945   9.541 -0.2788  0.9666  0.1002
  174MOL0     C23388   3.390   8.866   9.535 -0.7755  0.2873 -0.5195
  174MOL0     C23389   3.511   8.912   9.591  0.4082  0.0860 -0.5389
  174MOL0     O23390   3.627   8.844   9.588 -0.3971 -0.0298  0.4871
  174MOL0     C23391   3.728   8.906   9.495  0.3039 -0.5119  0.1576
  174MOL0     C23392   3.850   8.963   9.569 -0.1976 -0.3614  0.0504
  174MOL0     C23393   3.975   8.874   9.553 -0.3916 -0.4354 -0.1167
  174MOL0     C23394   4.082   8.937   9.641  0.0297 -0.0361 -0.2214
  174MOL0     C23395   4.216   8.862   9.621 -0.6908  0.6447  0.4642
  174MOL0     C23396   4.322   8.880   9.731  0.0648  0.0834 -0.8533
  174MOL0     C23397   4.424   8.773   9.713  0.3466  0.1579  0.3914
  174MOL0     C23398   4.555   8.811   9.791  0.3481  0.5411  0.5580
  174MOL0    Cl23399   4.673   8.676   9.781 -0.0713 -0.2847  0.1946
  174MOL0     C23400   3.509   9.040   9.652 -0.9505  0.9071 -0.4842
  174MOL0     C23401   3.396   9.115   9.659 -0.0461  0.2896  0.4309
  174MOL0     O23402   3.065   8.962   9.746 -0.2535  0.1176  0.0664
  174MOL0     C23403   2.909   9.254   9.621  0.0037 -0.1124  0.1370
  174MOL0     C23404   2.779   9.306   9.606 -0.5464  0.5475  0.4152
  174MOL0     N23405   2.198   9.449   9.136 -0.2534 -0.5623  0.2288
  174MOL0     N23406   2.214   9.514   9.025 -0.7616  0.2785  0.1601
  174MOL0     C23407   3.167  10.113   9.381 -0.7656  0.3666 -0.1808
  174MOL0     C23408   3.301  10.107   9.418 -0.3225  1.0718  0.3037
  174MOL0     C23409   3.667  10.030   9.660  0.3738  0.3173 -0.4473
  174MOL0     C23410   3.751  10.017   9.549  0.2550 -0.4811  0.7313
  174MOL0     C23411   3.890  10.031   9.568 -0.5014  0.3820 -1.1825
  174MOL0     C23412   3.952  10.036   9.692 -0.7748  0.1427  0.6936
  174MOL0     O23413   4.090  10.037   9.708 -0.2837 -0.4271 -0.0343
  174MOL0     C23414   4.156  10.126   9.615 -0.7141 -0.5685  0.5236
  174MOL0     C23415   4.291  10.163   9.669 -0.3127  0.2641 -0.3982
  174MOL0     C23416   4.350  10.051   9.753  1.2025  0.3974 -0.6572
  174MOL0     C23417   4.500  10.061   9.767  1.3806 -0.5881  0.8695
  174MOL0     C23418   4.565   9.963   9.849  0.2546 -0.4424 -0.7893
  174MOL0     C23419   4.630   9.877   9.907  0.2395  0.2469  0.2991
  174MOL0     C23420   3.870  10.050   9.797  0.1380 -0.7482 -0.1821
  174MOL0     C23421   3.732  10.046   9.791  0.4904 -0.4519 -0.7070
  174MOL0     C23422   3.648  10.031   9.927 -0.0243 -0.3873  0.1742
  174MOL0     H23423   3.291   9.820   9.589  0.4382  0.2522  0.7233
  174MOL0     H23424   3.051   9.822   9.501 -0.1328  0.1280  1.1699
  174MOL0     H23425   2.905  10.209   9.436  2.3238 -0.8218 -1.7909
  174MOL0     H23426   2.885  10.172   9.264 -1.1371  3.6875  1.8633
  174MOL0     H23427   2.675  10.213   9.407  0.6793  0.2158 -0.1396
  174MOL0     H23428   2.699  10.057   9.481  0.1596 -1.1566 -1.3479
  174MOL0     H23429   2.722   9.968   9.231 -0.2499  1.0794 -0.5777
  174MOL0     H23430   2.633  10.113   9.190  2.6698 -2.0963 -2.4854
  174MOL0     H23431   2.539   9.883   9.380  1.7018  1.9897  2.3703
  174MOL0     H23432   2.468  10.044   9.367 -0.9392  0.5379 -2.5420
  174MOL0     H23433   2.349   9.898   9.215 -1.2681  2.1790 -2.3580
  174MOL0     H23434   2.438  10.026   9.134  3.1767  0.3243 -0.0036
  174MOL0     H23435   2.619   9.830   9.103  0.2928 -1.1377 -0.2832
  174MOL0     H23436   2.514   9.732   9.188 -1.9649  1.1562  0.0053
  174MOL0     H23437   2.447   9.865   8.917 -3.6152  1.5740  0.5749
  174MOL0     H23438   2.317   9.802   9.007  0.9736  2.4309 -1.2708
  174MOL0     H23439   2.389   9.642   8.846 -3.3097  0.0224  1.6690
  174MOL0     H23440   2.542   9.612   8.949  1.2829  0.2539  2.2789
  174MOL0     H23441   2.520   9.458   9.139  0.3018 -0.0409 -1.3093
  174MOL0     H23442   2.353   9.417   9.408 -0.3496 -0.8341  0.7529
  174MOL0     H23443   2.231   9.323   9.356  1.4292 -0.2081  0.0930
  174MOL0     H23444   2.395   9.148   9.260  1.4446  1.3458 -1.8433
  174MOL0     H23445   2.518   9.243   9.336 -1.1409  1.5220 -0.6704
  174MOL0     H23446   2.475   9.062   9.488  0.1695  0.1853  0.4965
  174MOL0     H23447   2.307   9.079   9.487  1.5364 -2.7830 -1.4111
  174MOL0     H23448   2.402   9.165   9.688 -0.2969 -0.0705 -0.0454
  174MOL0     H23449   2.327   9.287   9.605 -0.4766 -0.1988 -2.0266
  174MOL0     H23450   2.586   9.069   9.715 -1.0520 -1.0854 -1.5365
  174MOL0     H23451   2.803   8.960   9.762 -0.5889 -0.3782 -1.7805
  174MOL0     H23452   3.187   8.896   9.507  1.7746 -1.9426 -1.6308
  174MOL0     H23453   3.389   8.772   9.481 -0.5172  0.7737 -1.4007
  174MOL0     H23454   3.769   8.820   9.441  0.8238  1.6313 -3.0987
  174MOL0     H23455   3.685   8.970   9.418 -2.4784 -2.5128 -0.1142
  174MOL0     H23456   3.877   9.062   9.531 -1.9406  0.8609  1.7880
  174MOL0     H23457   3.821   8.974   9.674 -0.7358 -0.3956 -0.0887
  174MOL0     H23458   3.950   8.770   9.574 -3.3947 -0.2995 -2.3506
  174MOL0     H23459   4.010   8.872   9.449 -0.4187 -1.8767 -0.1095
  174MOL0     H23460   4.050   8.921   9.745  1.3973 -1.2316  0.0386
  174MOL0     H23461   4.087   9.043   9.618 -4.9410 -0.0178 -2.6813
  174MOL0     H23462   4.262   8.881   9.523 -2.5573 -1.9107 -1.0345
  174MOL0     H23463   4.196   8.755   9.621 -0.2000  0.5508  0.3448
  174MOL0     H23464   4.376   8.975   9.731  0.2274 -0.0088 -0.7845
  174MOL0     H23465   4.278   8.869   9.830 -0.2469 -3.3937 -1.2458
  174MOL0     H23466   4.443   8.754   9.607 -1.5207 -2.5669  0.4142
  174MOL0     H23467   4.377   8.684   9.757  0.1305  0.0908  0.0266
  174MOL0     H23468   4.589   8.903   9.742 -3.6118  1.7967 -0.1572
  174MOL0     H23469   4.531   8.826   9.896  1.2984 -1.7814  1.1666
  174MOL0     H23470   3.598   9.075   9.702  0.4999 -0.8987 -1.6831
  174MOL0     H23471   3.390   9.203   9.723 -0.7998 -1.1607  2.4490
  174MOL0     H23472   2.996   9.306   9.580 -0.3696 -2.5778 -4.3962
  174MOL0     H23473   2.774   9.403   9.558  1.7902 -0.4537 -2.0482
  174MOL0     H23474   3.145  10.214   9.349  3.5657  1.0081 -1.7841
  174MOL0     H23475   3.374  10.182   9.391 -1.3565  1.8280 -0.4946
  174MOL0     H23476   3.710  10.022   9.448 -2.1885 -2.6480  1.5017
  174MOL0     H23477   3.953  10.047   9.481  1.0483 -0.1028 -0.1850
  174MOL0     H23478   4.106  10.220   9.589  0.8372 -0.5326 -2.7801
  174MOL0     H23479   4.182  10.069   9.526 -2.4299 -0.8664  0.1847
  174MOL0     H23480   4.293  10.257   9.726  1.1879 -1.4833  2.6869
  174MOL0     H23481   4.351  10.185   9.581 -0.6457  0.8258 -0.4897
  174MOL0     H23482   4.317   9.953   9.719 -2.4065  1.2827 -0.0789
  174MOL0     H23483   4.314  10.066   9.855 -2.4944 -0.5002 -1.6770
  174MOL0     H23484   4.544  10.051   9.668  1.2774 -4.7173  1.0715
  174MOL0     H23485   4.520  10.161   9.807  0.4427  0.8769 -2.0330
  174MOL0     H23486   4.694   9.805   9.953 -1.5948 -1.5621  0.1553
  174MOL0     H23487   3.922  10.052   9.892 -1.1242 -0.7046  0.5386
  174MOL0     H23488   3.708  10.002  10.014  1.3428 -4.7772 -1.9620
  174MOL0     H23489   3.604  10.130   9.944 -2.0647 -1.0941 -0.6820
  174MOL0     H23490   3.566   9.960   9.917  1.2541 -2.4255  2.9449
  175MOL0     O23491  11.075   8.616   5.815 -0.7968  0.4581  0.2883
  175MOL0     C23492  11.040   8.526   5.738  0.1229  0.2974  0.2585
  175MOL0     O23493  11.130   8.461   5.651 -0.0311  0.4555  0.3814
  175MOL0     C23494  11.261   8.491   5.672  0.1153  0.0502 -0.1746
  175MOL0     C23495  11.343   8.420   5.761 -0.8124 -0.7252 -0.5138
  175MOL0     C23496  11.475   8.461   5.788  0.2189  0.2870 -0.5390
  175MOL0     C23497  11.521   8.576   5.720  0.6664 -0.7255 -0.3216
  175MOL0     O23498  11.643   8.628   5.731 -0.2902 -0.5258 -0.1617
  175MOL0     C23499  11.711   8.622   5.863 -0.0416 -0.0147 -0.5906
  175MOL0     C23500  11.830   8.721   5.881 -0.6378 -0.4628  0.7199
  175MOL0     C23501  11.950   8.693   5.786 -0.8388 -0.4120  0.0482
  175MOL0     C23502  12.062   8.795   5.807  0.4031  0.1726  0.3121
  175MOL0     C23503  12.164   8.794   5.690  0.3897 -0.1851  0.1075
  175MOL0     C23504  12.124   8.891   5.575 -0.9403 -0.6634 -0.3940
  175MOL0     C23505  12.235   8.932   5.483  0.2639  0.3455 -0.3716
  175MOL0     C23506  12.188   9.037   5.382 -0.4047 -0.4517  0.8465
  175MOL0     N23507  12.179   9.175   5.434  0.1392 -0.0713 -0.8481
  175MOL0     C23508  12.273   9.272   5.423  0.2309 -0.3880  0.3663
  175MOL0     C23509  12.232   9.385   5.486 -0.3721 -1.0575 -0.0941
  175MOL0     C23510  12.313   9.522   5.477  0.9473 -0.0191 -0.0810
  175MOL0     C23511  12.298   9.601   5.612 -0.9148  0.1234  0.8645
  175MOL0     C23512  12.352   9.745   5.597  0.4464  0.4414 -0.5122
  175MOL0     C23513  12.501   9.744   5.558  0.1371 -0.0218  0.4201
  175MOL0     O23514  12.578   9.670   5.649  0.1630 -0.5949 -0.2188
  175MOL0     C23515  12.717   9.673   5.642  0.1960  0.6925 -0.1047
  175MOL0     C23516  12.792   9.600   5.733 -0.4879  0.6434 -0.0242
  175MOL0     C23517  12.937   9.595   5.733  0.2958  0.2454  0.4770
  175MOL0     C23518  13.001   9.660   5.628 -0.3887 -0.0223 -0.3739
  175MOL0     C23519  13.147   9.663   5.631 -0.5538  0.3950  0.1885
  175MOL0     O23520  13.219   9.641   5.747  0.2110  0.0318  0.3612
  175MOL0     C23521  13.356   9.628   5.766 -1.2168  0.2363 -0.3108
  175MOL0     C23522  13.445   9.569   5.670 -0.2497  0.1188  0.2736
  175MOL0     C23523  13.582   9.590   5.667 -0.4470  1.2507 -0.1546
  175MOL0     C23524  13.638   9.652   5.769 -0.4849 -0.0914  0.0228
  175MOL0     O23525  13.772   9.650   5.767 -0.2813 -0.2380  0.3042
  175MOL0     C23526  13.851   9.685   5.878  0.3335  0.1458  0.1526
  175MOL0     C23527  13.997   9.659   5.835 -0.7547 -0.6605 -0.4335
  175MOL0     C23528  14.105   9.672   5.947  0.3555  0.9040  0.7850
  175MOL0     C23529  14.234   9.632   5.870 -0.4659  0.3145  0.4354
  175MOL0     C23530  14.346   9.643   5.965  0.5722  0.0529 -0.2513
  175MOL0     C23531  14.475   9.639   5.878 -0.1894 -0.1875  0.1201
  175MOL0     C23532  14.600   9.648   5.961  1.2318 -0.7848  0.0984
  175MOL0     C23533  14.725   9.666   5.866  0.0361  0.0499  1.2013
  175MOL0    Cl23534  14.729   9.829   5.794 -0.4315  0.1097  0.3203
  175MOL0     C23535  13.564   9.707   5.876  0.1483 -0.2935  0.3298
  175MOL0     C23536  13.426   9.699   5.872  0.3285  0.0269  0.7771
  175MOL0     O23537  13.203   9.689   5.521  0.2568  0.0249  0.1547
  175MOL0     C23538  12.928   9.727   5.528  0.3961 -0.1438  0.0904
  175MOL0     C23539  12.788   9.733   5.534 -0.3068 -0.5638  0.4470
  175MOL0     N23540  12.111   9.359   5.544 -0.0159 -0.6315  0.6105
  175MOL0     N23541  12.082   9.231   5.510  1.2084 -0.3312 -0.2877
  175MOL0     C23542  11.444   8.638   5.619  0.2115 -0.0495  0.3292
  175MOL0     C23543  11.318   8.590   5.594  0.4486 -0.6660  0.2914
  175MOL0     C23544  10.899   8.465   5.743  0.2865 -0.7450 -1.0593
  175MOL0     C23545  10.878   8.337   5.688  0.0758  0.4020  0.2545
  175MOL0     C23546  10.746   8.290   5.679 -0.1576  0.5098 -1.4105
  175MOL0     C23547  10.636   8.358   5.733 -0.2904  0.1175  0.1323
  175MOL0     O23548  10.502   8.311   5.730 -0.5501  0.1260 -0.1406
  175MOL0     C23549  10.449   8.270   5.858 -0.1662  0.1559 -0.1585
  175MOL0     C23550  10.313   8.234   5.838  0.3614 -0.2438  0.3977
  175MOL0     C23551  10.208   8.258   5.951 -0.3408 -0.5540 -0.1837
  175MOL0     C23552  10.248   8.193   6.076  0.1971  0.0606 -0.7201
  175MOL0     C23553  10.175   8.236   6.201 -0.5125  0.1658  0.6367
  175MOL0     C23554  10.115   8.248   6.303  0.3591 -0.0319 -1.0139
  175MOL0     C23555  10.661   8.480   5.795  0.1498 -0.2406  0.5184
  175MOL0     C23556  10.783   8.538   5.791 -0.8293 -0.5543 -0.3275
  175MOL0     C23557  10.784   8.683   5.839 -0.8057 -0.0028  0.4864
  175MOL0     H23558  11.294   8.345   5.821 -0.8928  0.4402  0.9532
  175MOL0     H23559  11.541   8.401   5.849  0.3513 -1.7116 -2.5244
  175MOL0     H23560  11.638   8.646   5.940  1.0863 -0.8589  0.8114
  175MOL0     H23561  11.746   8.521   5.889  0.7042  0.9662  2.7055
  175MOL0     H23562  11.877   8.730   5.979  1.8088  0.1480 -0.4077
  175MOL0     H23563  11.786   8.820   5.866  0.5245 -0.4165 -4.1086
  175MOL0     H23564  11.910   8.696   5.684 -0.9798 -0.5456  0.1003
  175MOL0     H23565  11.994   8.595   5.807  2.1452  0.7663 -0.2789
  175MOL0     H23566  12.033   8.899   5.829  1.5972  0.9077 -1.4339
  175MOL0     H23567  12.126   8.762   5.889  0.1413  0.1269  0.4985
  175MOL0     H23568  12.257   8.835   5.730  1.5297 -0.7184 -1.8367
  175MOL0     H23569  12.179   8.690   5.657  0.4159  0.0675 -0.6935
  175MOL0     H23570  12.039   8.854   5.516  0.0634 -0.1886 -2.2138
  175MOL0     H23571  12.091   8.981   5.626  1.9804  0.5734 -0.4930
  175MOL0     H23572  12.266   8.846   5.424  1.1652  0.5531 -0.2266
  175MOL0     H23573  12.312   8.981   5.543 -1.2401 -0.0962  2.0268
  175MOL0     H23574  12.262   9.041   5.302 -1.7775 -0.9043 -0.5033
  175MOL0     H23575  12.088   9.010   5.347 -0.9148  1.1143  1.0258
  175MOL0     H23576  12.366   9.262   5.368  0.9121  1.6194  1.0415
  175MOL0     H23577  12.421   9.508   5.466  0.3896 -4.1289 -2.3659
  175MOL0     H23578  12.278   9.589   5.398  2.0278  0.7093  0.0347
  175MOL0     H23579  12.196   9.611   5.650 -0.7082  2.6545  0.9237
  175MOL0     H23580  12.351   9.546   5.690  0.6151  2.4000  1.5214
  175MOL0     H23581  12.342   9.782   5.699  0.4406  1.3264 -0.8211
  175MOL0     H23582  12.294   9.814   5.536  0.4787 -0.1186 -1.1925
  175MOL0     H23583  12.531   9.849   5.547 -0.1785  0.0872  0.5789
  175MOL0     H23584  12.509   9.696   5.461  1.2087  0.8525  0.0659
  175MOL0     H23585  12.750   9.541   5.814  3.2180 -1.3719  0.6798
  175MOL0     H23586  12.990   9.534   5.805  2.1286  2.4970  1.1552
  175MOL0     H23587  13.415   9.513   5.582 -0.3035  0.9046 -0.2117
  175MOL0     H23588  13.638   9.553   5.581  1.3268  0.0517  1.4434
  175MOL0     H23589  13.828   9.784   5.919 -0.9377  0.8923 -2.1514
  175MOL0     H23590  13.830   9.616   5.960  1.6236  0.8539  1.1197
  175MOL0     H23591  14.003   9.554   5.803  0.1826 -0.5359 -0.7116
  175MOL0     H23592  14.017   9.723   5.750 -1.5075  1.0764  0.6474
  175MOL0     H23593  14.103   9.779   5.967 -0.5670  0.7424  1.6457
  175MOL0     H23594  14.079   9.619   6.039 -2.7011  0.8161  0.0038
  175MOL0     H23595  14.248   9.701   5.785 -2.5345  1.0447  0.6444
  175MOL0     H23596  14.231   9.527   5.838  0.3259  0.0481  1.2062
  175MOL0     H23597  14.339   9.558   6.032 -1.6450  0.5465  0.1995
  175MOL0     H23598  14.332   9.742   6.008 -1.4257 -0.0264 -0.6522
  175MOL0     H23599  14.477   9.543   5.826 -1.4190 -0.4823  0.5936
  175MOL0     H23600  14.465   9.721   5.807 -0.5436  0.0591  0.4530
  175MOL0     H23601  14.600   9.560   6.026 -0.6101  0.0413  1.3063
  175MOL0     H23602  14.584   9.733   6.028  0.7010 -0.2063 -0.7425
  175MOL0     H23603  14.814   9.648   5.927  1.6766  0.8776 -0.7986
  175MOL0     H23604  14.726   9.597   5.781  0.1348  1.5002 -0.0214
  175MOL0     H23605  13.612   9.773   5.947 -1.9714  2.2379 -0.4067
  175MOL0     H23606  13.366   9.754   5.944  0.9542 -0.8217  1.9693
  175MOL0     H23607  12.986   9.780   5.453  1.7014 -0.3269  0.9329
  175MOL0     H23608  12.738   9.792   5.458  0.2079 -0.5226  0.1369
  175MOL0     H23609  11.499   8.707   5.555  0.5354 -0.2093  0.4320
  175MOL0     H23610  11.267   8.646   5.517  1.7278  0.5577  0.2953
  175MOL0     H23611  10.961   8.270   5.665 -1.0912 -0.9698 -0.1020
  175MOL0     H23612  10.739   8.186   5.647  0.1554  0.4910 -1.4222
  175MOL0     H23613  10.461   8.348   5.934  1.9927 -0.1818 -0.0739
  175MOL0     H23614  10.501   8.183   5.900 -0.0915  0.7109  0.9328
  175MOL0     H23615  10.310   8.130   5.803  0.2888 -0.9067  2.2247
  175MOL0     H23616  10.273   8.297   5.759 -0.6844  0.0892  1.1671
  175MOL0     H23617  10.104   8.234   5.926 -0.4296 -1.7237  1.1490
  175MOL0     H23618  10.214   8.367   5.963 -2.5435 -0.6144  2.5286
  175MOL0     H23619  10.224   8.089   6.052 -0.0119  0.1580 -0.9358
  175MOL0     H23620  10.354   8.195   6.104 -0.3295 -1.6521  1.7870
  175MOL0     H23621  10.059   8.276   6.390  2.9412  1.9918  0.1215
  175MOL0     H23622  10.575   8.535   5.832  0.0892 -0.0275  0.0721
  175MOL0     H23623  10.824   8.748   5.760  0.1920 -1.5837 -0.3736
  175MOL0     H23624  10.682   8.715   5.861 -0.2347 -0.1301  3.7721
  175MOL0     H23625  10.838   8.704   5.931 -2.1914  0.2197  1.2715
  176MOL0     O23626  11.366   8.574   8.992 -0.4075 -0.1995  0.1815
  176MOL0     C23627  11.408   8.462   9.022 -0.1459 -0.4685 -0.4433
  176MOL0     O23628  11.512   8.395   8.952  0.7740  0.0600 -0.1614
  176MOL0     C23629  11.574   8.476   8.863  1.1174  0.2213  0.6147
  176MOL0     C23630  11.646   8.590   8.903 -0.0583  0.2054  0.9460
  176MOL0     C23631  11.719   8.658   8.806  0.0175  0.2134 -0.4039
  176MOL0     C23632  11.717   8.633   8.668 -0.0901 -0.0360  0.1522
  176MOL0     O23633  11.780   8.710   8.573 -0.9895 -0.3762 -0.6547
  176MOL0     C23634  11.918   8.727   8.585  1.1729  0.1231  0.3664
  176MOL0     C23635  11.960   8.792   8.459 -0.7779 -0.3781  0.4340
  176MOL0     C23636  12.098   8.865   8.460 -0.3809  1.0669  1.0712
  176MOL0     C23637  12.224   8.771   8.470  0.0487 -0.6932  0.0768
  176MOL0     C23638  12.349   8.870   8.480  0.1916  0.2658  0.1129
  176MOL0     C23639  12.423   8.888   8.353 -0.3340 -0.2159 -0.0522
  176MOL0     C23640  12.497   8.757   8.320  0.8495 -0.4687  0.0242
  176MOL0     C23641  12.650   8.757   8.327  0.1905 -0.3159 -0.2764
  176MOL0     N23642  12.698   8.622   8.296  0.4138 -0.2588  0.1294
  176MOL0     C23643  12.729   8.595   8.160  0.0040  0.4887 -0.6467
  176MOL0     C23644  12.790   8.475   8.168 -0.2564 -0.0178  0.0910
  176MOL0     C23645  12.835   8.408   8.049 -0.6395  0.3002 -0.2090
  176MOL0     C23646  12.964   8.326   8.080  0.0971 -0.4421 -0.3533
  176MOL0     C23647  12.964   8.199   8.169  0.9315 -0.4194  0.2504
  176MOL0     C23648  13.102   8.154   8.210 -0.3207  0.1533  0.5991
  176MOL0     O23649  13.178   8.156   8.088 -0.2347  0.2187 -0.0608
  176MOL0     C23650  13.191   8.047   8.003 -0.7030 -0.0052 -0.5057
  176MOL0     C23651  13.102   7.937   8.000  0.5546 -0.5384  0.2799
  176MOL0     C23652  13.120   7.829   7.916  0.0579 -0.0171 -0.4072
  176MOL0     C23653  13.228   7.828   7.827  0.0951 -0.4131  0.1114
  176MOL0     C23654  13.271   7.712   7.741  0.2282  0.4042  0.3302
  176MOL0     O23655  13.188   7.605   7.760  0.4585 -0.1285  0.4804
  176MOL0     C23656  13.210   7.495   7.680 -0.6237 -0.8023  0.7902
  176MOL0     C23657  13.230   7.374   7.744  0.2897  0.2313 -0.6125
  176MOL0     C23658  13.267   7.263   7.669  0.0029  0.3181 -0.4126
  176MOL0     C23659  13.279   7.259   7.529 -0.5464 -0.7676  0.0106
  176MOL0     O23660  13.306   7.139   7.470 -0.7033  0.1193 -0.8086
  176MOL0     C23661  13.304   7.135   7.327 -0.3932  0.5832 -0.6240
  176MOL0     C23662  13.454   7.177   7.305  0.1331  1.0571 -0.8856
  176MOL0     C23663  13.482   7.184   7.154 -0.9557  0.5885 -0.3930
  176MOL0     C23664  13.470   7.338   7.112  0.2428  0.8229 -0.2781
  176MOL0     C23665  13.467   7.371   6.957 -0.4619 -0.5470  0.6284
  176MOL0     C23666  13.573   7.317   6.874  0.3858  0.1882  0.1523
  176MOL0     C23667  13.708   7.357   6.925  0.4151 -0.1099  0.6749
  176MOL0     C23668  13.816   7.299   6.827  0.8194  0.4522 -0.1530
  176MOL0    Cl23669  13.967   7.304   6.907  0.2282  0.1828 -0.1921
  176MOL0     C23670  13.261   7.383   7.470 -0.2851  0.3007  0.4175
  176MOL0     C23671  13.226   7.500   7.541 -0.2056  0.0879 -0.1594
  176MOL0     O23672  13.362   7.724   7.652  0.5194  0.8862 -0.2251
  176MOL0     C23673  13.316   7.938   7.821 -1.2277 -0.0629 -0.2033
  176MOL0     C23674  13.304   8.038   7.916 -0.0557 -0.2585  0.4907
  176MOL0     N23675  12.779   8.426   8.295  0.1292  0.4812 -0.3082
  176MOL0     N23676  12.723   8.515   8.376 -0.8188  0.0111  0.4945
  176MOL0     C23677  11.633   8.520   8.631 -0.1834 -0.5602 -0.3719
  176MOL0     C23678  11.572   8.438   8.729 -0.8050  0.6519  1.2457
  176MOL0     C23679  11.326   8.380   9.109  0.6301 -0.6455  0.5008
  176MOL0     C23680  11.250   8.450   9.206 -0.3906 -0.9285  0.3479
  176MOL0     C23681  11.166   8.379   9.295 -0.5372 -0.6183 -0.2116
  176MOL0     C23682  11.153   8.243   9.276  0.1619  0.1690 -0.6795
  176MOL0     O23683  11.073   8.186   9.371  0.9258 -0.4206 -0.5311
  176MOL0     C23684  11.069   8.046   9.393 -0.7830  0.1143  0.1442
  176MOL0     C23685  11.191   7.982   9.457 -0.4639 -0.0616  1.2926
  176MOL0     C23686  11.218   8.032   9.598 -0.7142 -0.2729  0.6168
  176MOL0     C23687  11.358   7.993   9.659  0.0848  1.2057 -0.5999
  176MOL0     C23688  11.363   7.851   9.698  0.2951  0.4243  0.0108
  176MOL0     C23689  11.376   7.741   9.732  0.3158 -0.7687 -0.6194
  176MOL0     C23690  11.225   8.176   9.176  0.6108  0.5484 -0.3048
  176MOL0     C23691  11.309   8.243   9.086 -0.4779  0.3172  0.1736
  176MOL0     C23692  11.356   8.162   8.963 -0.1946 -0.8817 -0.1558
  176MOL0     H23693  11.644   8.623   9.006  0.9225  2.1535  0.3793
  176MOL0     H23694  11.777   8.744   8.835  2.1143 -1.1460 -0.3771
  176MOL0     H23695  11.938   8.787   8.674 -1.4540  1.2308  0.3061
  176MOL0     H23696  11.968   8.630   8.598  1.4418  0.2649  0.3804
  176MOL0     H23697  11.899   8.877   8.427 -0.9501 -1.1682 -1.4483
  176MOL0     H23698  11.970   8.718   8.379  0.2426  1.8209 -1.5792
  176MOL0     H23699  12.096   8.929   8.549  0.7269 -0.4544  2.2358
  176MOL0     H23700  12.116   8.928   8.372  1.5638 -1.0376 -0.1333
  176MOL0     H23701  12.227   8.709   8.560  1.0462  1.2460  1.4704
  176MOL0     H23702  12.232   8.712   8.379  2.9670  0.5966 -0.6343
  176MOL0     H23703  12.312   8.970   8.507 -2.5394 -0.7328  0.4285
  176MOL0     H23704  12.422   8.837   8.555 -1.6000 -1.9858  0.9960
  176MOL0     H23705  12.350   8.905   8.274 -1.7592 -5.2274 -0.0955
  176MOL0     H23706  12.494   8.971   8.364 -1.6839  0.7674  1.6745
  176MOL0     H23707  12.470   8.733   8.217 -2.7200 -1.3081  1.0124
  176MOL0     H23708  12.447   8.671   8.364 -0.4788  0.1439 -0.2245
  176MOL0     H23709  12.706   8.827   8.264  2.9215 -1.6517  0.5164
  176MOL0     H23710  12.677   8.775   8.431 -1.3674  1.7425 -0.1585
  176MOL0     H23711  12.712   8.659   8.074 -5.4030 -0.1673 -0.4327
  176MOL0     H23712  12.760   8.341   8.008 -0.9216 -1.7633  3.2390
  176MOL0     H23713  12.858   8.488   7.978  1.0425  0.2610  0.2324
  176MOL0     H23714  13.006   8.295   7.983  0.6622  1.2671 -0.6855
  176MOL0     H23715  13.030   8.401   8.124  0.0456 -0.4484 -0.2644
  176MOL0     H23716  12.908   8.122   8.115 -1.3706 -1.5251  3.8712
  176MOL0     H23717  12.912   8.222   8.263  0.3108  2.3823 -0.6870
  176MOL0     H23718  13.091   8.055   8.254 -0.7086  0.4808  1.2620
  176MOL0     H23719  13.154   8.215   8.284  2.2797  1.5529 -2.1533
  176MOL0     H23720  13.015   7.948   8.065  1.7152 -0.2355  1.8551
  176MOL0     H23721  13.070   7.733   7.927  1.8349 -1.1461 -1.7528
  176MOL0     H23722  13.215   7.368   7.851 -1.6280  2.8875 -0.6586
  176MOL0     H23723  13.269   7.166   7.718 -3.0171 -0.5515 -1.7401
  176MOL0     H23724  13.286   7.031   7.299  1.6894  0.0845 -0.3052
  176MOL0     H23725  13.232   7.199   7.276  0.4244  0.9202 -1.3881
  176MOL0     H23726  13.488   7.270   7.352  0.8554  0.3085  0.1144
  176MOL0     H23727  13.521   7.101   7.346 -1.1888  0.1806 -0.2565
  176MOL0     H23728  13.584   7.152   7.134 -1.3822 -0.5531 -0.8868
  176MOL0     H23729  13.418   7.115   7.097  2.0164 -1.1435 -1.8888
  176MOL0     H23730  13.550   7.398   7.157  2.6579 -1.2700 -1.4772
  176MOL0     H23731  13.376   7.379   7.149  1.2827 -0.3409  4.2362
  176MOL0     H23732  13.472   7.480   6.948 -1.9663 -0.5162  0.0065
  176MOL0     H23733  13.369   7.340   6.920 -0.4543 -4.4644  3.2627
  176MOL0     H23734  13.560   7.208   6.873  3.5624 -0.3001  0.3932
  176MOL0     H23735  13.551   7.360   6.777 -3.8703  1.5258  1.5060
  176MOL0     H23736  13.732   7.316   7.024  0.0078  1.2085  1.3415
  176MOL0     H23737  13.718   7.465   6.918 -0.8185 -0.0467 -0.4623
  176MOL0     H23738  13.800   7.192   6.806  1.8244  0.5943 -1.8692
  176MOL0     H23739  13.826   7.345   6.728  1.0842 -1.4474 -1.0689
  176MOL0     H23740  13.273   7.399   7.363  0.8790  0.8237  0.6112
  176MOL0     H23741  13.220   7.599   7.496  2.3619  0.3660 -0.0482
  176MOL0     H23742  13.399   7.939   7.751 -1.2660 -1.7883 -0.3204
  176MOL0     H23743  13.361   8.129   7.931  0.6708 -0.6785  0.3388
  176MOL0     H23744  11.614   8.488   8.529 -1.0970  1.1109 -0.7590
  176MOL0     H23745  11.517   8.354   8.690 -1.0113  0.8992  0.9965
  176MOL0     H23746  11.262   8.556   9.224  2.6785 -0.8638 -1.3974
  176MOL0     H23747  11.119   8.435   9.375 -0.1452 -0.1059 -0.3388
  176MOL0     H23748  11.060   7.996   9.296  2.8615  2.6737 -1.7461
  176MOL0     H23749  10.981   8.015   9.450 -2.1293  2.0425 -0.7762
  176MOL0     H23750  11.282   8.001   9.399 -0.2451 -1.7711  1.0460
  176MOL0     H23751  11.176   7.874   9.451  4.4492 -0.8971 -0.6182
  176MOL0     H23752  11.130   8.015   9.660 -0.5873  3.5848  2.1592
  176MOL0     H23753  11.220   8.142   9.595  2.5431 -0.2443 -2.1437
  176MOL0     H23754  11.450   8.013   9.604  0.3234  4.5262  0.7883
  176MOL0     H23755  11.372   8.029   9.761  0.1926 -1.4280  0.3859
  176MOL0     H23756  11.392   7.640   9.762  0.9028 -0.0311  1.7786
  176MOL0     H23757  11.202   8.071   9.161  2.3327  0.3015 -1.5132
  176MOL0     H23758  11.338   8.221   8.872 -4.9472 -1.3799  0.1769
  176MOL0     H23759  11.460   8.133   8.980  0.9838  3.7739  2.1554
  176MOL0     H23760  11.300   8.074   8.930  0.8534 -1.9432  0.7996
  177MOL0     O23761   8.736   2.147   1.344 -0.0385 -0.4662 -0.6681
  177MOL0     C23762   8.808   2.235   1.371 -0.4946  0.0149  0.1243
  177MOL0     O23763   8.858   2.329   1.282  0.0023  0.1132  0.0524
  177MOL0     C23764   8.827   2.299   1.151 -0.6485 -0.0493  0.0818
  177MOL0     C23765   8.696   2.310   1.108 -0.2129  0.4703 -0.2267
  177MOL0     C23766   8.660   2.305   0.975  0.2924  1.1952  0.2367
  177MOL0     C23767   8.757   2.255   0.887  0.1984 -0.2062 -0.6916
  177MOL0     O23768   8.735   2.239   0.760  0.3592  0.1560 -0.6460
  177MOL0     C23769   8.729   2.350   0.675  0.7854 -0.0577  0.4297
  177MOL0     C23770   8.862   2.421   0.677  0.4076  0.3496  0.7555
  177MOL0     C23771   8.968   2.346   0.591  0.0460 -0.1646  0.8851
  177MOL0     C23772   9.093   2.442   0.573  0.7640  0.2954  0.0564
  177MOL0     C23773   9.192   2.401   0.463 -0.0955  0.9651 -1.3846
  177MOL0     C23774   9.314   2.483   0.456  0.7888 -0.3818  0.1566
  177MOL0     C23775   9.407   2.433   0.347 -0.2671 -0.1063  0.0249
  177MOL0     C23776   9.529   2.531   0.323 -0.1378  0.1365  0.9664
  177MOL0     N23777   9.634   2.463   0.246 -0.4153  0.6448 -0.1042
  177MOL0     C23778   9.627   2.441   0.111 -0.0264  0.8809  0.3923
  177MOL0     C23779   9.741   2.361   0.087  0.5938  0.5729  0.3773
  177MOL0     C23780   9.787   2.331  -0.052 -0.8188 -1.3891 -0.6859
  177MOL0     C23781   9.831   2.194  -0.086 -0.0964  0.5701 -0.0104
  177MOL0     C23782   9.724   2.083  -0.081  0.4061 -0.4518  0.6793
  177MOL0     C23783   9.603   2.099  -0.180 -0.4747  0.4543  0.5197
  177MOL0     O23784   9.509   2.191  -0.138  0.1317 -0.4187 -0.5338
  177MOL0     C23785   9.424   2.154  -0.030 -1.1764  0.2042  0.0322
  177MOL0     C23786   9.332   2.250   0.010 -0.3972  0.0553  0.3070
  177MOL0     C23787   9.230   2.218   0.112 -0.9305  0.2144 -0.6706
  177MOL0     C23788   9.227   2.086   0.164 -0.4211 -0.2972  0.2723
  177MOL0     C23789   9.112   2.062   0.262  1.2495  0.7535 -0.4987
  177MOL0     O23790   9.131   1.940   0.326 -0.1813 -0.0342 -0.1109
  177MOL0     C23791   9.009   1.903   0.390  0.5028  0.2355  0.2708
  177MOL0     C23792   8.913   1.830   0.326 -0.4246  0.7417 -0.1516
  177MOL0     C23793   8.793   1.800   0.391 -0.2059  0.8136  0.2652
  177MOL0     C23794   8.754   1.863   0.513 -1.3539 -0.0885  0.7400
  177MOL0     O23795   8.642   1.827   0.572 -0.4671 -1.2217 -0.0784
  177MOL0     C23796   8.545   1.927   0.601 -0.0344  0.6273 -0.4868
  177MOL0     C23797   8.473   1.962   0.474  0.1749 -0.1756  0.5185
  177MOL0     C23798   8.312   1.946   0.484 -0.5229 -0.6581 -0.0508
  177MOL0     C23799   8.242   1.892   0.363 -0.3189  0.3298  0.5979
  177MOL0     C23800   8.082   1.887   0.381 -0.0720 -0.0019 -0.1306
  177MOL0     C23801   8.002   1.827   0.262 -0.1350  0.1835 -0.0283
  177MOL0     C23802   7.856   1.862   0.279  1.0830  0.2099  0.1461
  177MOL0     C23803   7.780   1.840   0.410  0.1146 -0.5976 -0.1404
  177MOL0    Cl23804   7.751   1.664   0.426  0.0122 -0.0137  0.1318
  177MOL0     C23805   8.852   1.937   0.574 -0.8302 -0.0872 -0.1988
  177MOL0     C23806   8.979   1.955   0.517 -1.3651  0.4303 -0.4121
  177MOL0     O23807   9.017   2.140   0.277 -0.1906  0.1889  0.6668
  177MOL0     C23808   9.317   1.988   0.122 -0.4631  0.3698 -0.1512
  177MOL0     C23809   9.418   2.025   0.033  0.1589 -0.3168  0.0280
  177MOL0     N23810   9.803   2.326   0.210 -0.5020 -0.4494  0.1973
  177MOL0     N23811   9.739   2.392   0.303  0.0759  1.5354 -0.2464
  177MOL0     C23812   8.891   2.226   0.930 -0.5383 -0.7105  0.1065
  177MOL0     C23813   8.929   2.253   1.067  0.2894  0.2008  0.8800
  177MOL0     C23814   8.881   2.214   1.498  0.2209 -0.1105  0.7807
  177MOL0     C23815   9.020   2.252   1.509  0.0078 -0.3955 -0.2881
  177MOL0     C23816   9.090   2.237   1.628 -0.1655 -0.3932  0.0077
  177MOL0     C23817   9.036   2.166   1.738 -0.1605 -0.1831  0.7808
  177MOL0     O23818   9.107   2.128   1.848  0.3489  0.1008 -0.0108
  177MOL0     C23819   9.227   2.065   1.816 -0.6418  0.1006  0.3838
  177MOL0     C23820   9.214   1.941   1.720  0.0002 -0.5058  0.5519
  177MOL0     C23821   9.338   1.850   1.710 -0.2866  1.5522  0.0374
  177MOL0     C23822   9.343   1.733   1.812 -0.0300 -0.4063 -0.4948
  177MOL0     C23823   9.351   1.781   1.953 -0.1633 -0.2096  0.3470
  177MOL0     C23824   9.331   1.819   2.069 -0.3062  0.4513  0.6430
  177MOL0     C23825   8.900   2.131   1.726 -0.1527 -0.0026 -0.3054
  177MOL0     C23826   8.821   2.149   1.608 -0.0417  0.1724 -0.4610
  177MOL0     C23827   8.674   2.102   1.621 -0.8044 -0.0792  0.2489
  177MOL0     H23828   8.623   2.342   1.182  0.9861  1.4026  0.6040
  177MOL0     H23829   8.563   2.333   0.936  1.5815  1.5909 -3.0383
  177MOL0     H23830   8.699   2.316   0.575  0.2358 -1.0628  0.9258
  177MOL0     H23831   8.656   2.419   0.717  1.3312  0.3222  0.7761
  177MOL0     H23832   8.897   2.432   0.780  0.7216 -0.3151  0.7248
  177MOL0     H23833   8.848   2.521   0.634 -1.5393 -1.0925 -2.3187
  177MOL0     H23834   8.917   2.319   0.498 -4.3941  4.1860  1.6505
  177MOL0     H23835   9.009   2.260   0.645  0.4550 -0.9154 -0.5592
  177MOL0     H23836   9.062   2.545   0.552  0.3114  1.0610  3.7447
  177MOL0     H23837   9.138   2.437   0.672 -0.2342 -1.7996  0.4493
  177MOL0     H23838   9.220   2.297   0.485 -0.6062  1.1578  0.2959
  177MOL0     H23839   9.136   2.404   0.369 -0.0556 -2.3073 -1.6377
  177MOL0     H23840   9.293   2.588   0.433  3.5154  0.2640  0.3365
  177MOL0     H23841   9.365   2.479   0.553 -0.8426 -3.2169  1.0383
  177MOL0     H23842   9.357   2.425   0.250 -1.2158 -0.7882  0.5466
  177MOL0     H23843   9.442   2.336   0.383 -1.3061 -1.4160 -2.2345
  177MOL0     H23844   9.482   2.601   0.254 -1.6466 -3.5048 -2.0506
  177MOL0     H23845   9.563   2.584   0.413 -3.3929 -0.9849  3.0093
  177MOL0     H23846   9.544   2.487   0.057 -0.9024  0.6396  1.5027
  177MOL0     H23847   9.710   2.368  -0.121  0.9788  2.9250 -0.7277
  177MOL0     H23848   9.871   2.401  -0.062 -2.0290  0.6120  1.9162
  177MOL0     H23849   9.880   2.186  -0.184  4.2788 -2.5508  2.1168
  177MOL0     H23850   9.914   2.164  -0.022 -0.6221 -1.2900 -0.1529
  177MOL0     H23851   9.681   2.081   0.020 -1.2687  1.2044  0.0743
  177MOL0     H23852   9.777   1.989  -0.099  0.9690  0.2114 -1.4055
  177MOL0     H23853   9.562   1.998  -0.192  1.1606 -0.4206  1.8248
  177MOL0     H23854   9.629   2.137  -0.280 -0.4391 -0.1558  0.2918
  177MOL0     H23855   9.324   2.338  -0.053  0.8653 -1.3023 -1.8989
  177MOL0     H23856   9.151   2.284   0.147 -2.0869 -1.6764  0.5347
  177MOL0     H23857   8.934   1.792   0.227 -1.8082  0.5338 -0.3919
  177MOL0     H23858   8.728   1.735   0.334  1.6033  0.2592 -1.2721
  177MOL0     H23859   8.477   1.884   0.675  2.1026  0.6722  1.6368
  177MOL0     H23860   8.593   2.020   0.634  0.2363  0.0418  0.8254
  177MOL0     H23861   8.488   2.068   0.451 -0.1032 -0.6151 -1.9383
  177MOL0     H23862   8.513   1.896   0.397  2.1197  1.1052  0.3465
  177MOL0     H23863   8.290   1.870   0.559  1.1674 -2.0687 -0.9224
  177MOL0     H23864   8.265   2.042   0.507 -3.0357 -1.9811  0.6906
  177MOL0     H23865   8.273   1.790   0.341 -0.6414  0.5262 -0.8396
  177MOL0     H23866   8.263   1.959   0.279 -0.4490  3.8354  3.1101
  177MOL0     H23867   8.049   1.991   0.394 -2.3286 -0.2223 -3.0520
  177MOL0     H23868   8.056   1.832   0.472  0.5807 -1.2835 -0.6951
  177MOL0     H23869   8.052   1.868   0.174  3.1916 -1.7413  0.7809
  177MOL0     H23870   8.020   1.720   0.251  0.8406  0.3651 -0.3057
  177MOL0     H23871   7.793   1.811   0.206  3.1406 -0.3768 -1.3019
  177MOL0     H23872   7.844   1.963   0.238  2.9755 -0.0397 -1.1832
  177MOL0     H23873   7.837   1.884   0.491  0.3367  1.5972 -1.4175
  177MOL0     H23874   7.681   1.887   0.407 -0.3116 -1.5078 -0.8412
  177MOL0     H23875   8.838   1.970   0.677  2.0826  0.1506  0.2203
  177MOL0     H23876   9.054   2.017   0.565  1.5290 -1.3357 -2.3475
  177MOL0     H23877   9.293   1.886   0.149 -0.5939 -0.0584 -1.8125
  177MOL0     H23878   9.488   1.946   0.007  1.9533  0.0702  3.1413
  177MOL0     H23879   8.959   2.173   0.863  0.4572  0.2152  0.3648
  177MOL0     H23880   9.032   2.239   1.098  0.4202 -0.3310  0.2313
  177MOL0     H23881   9.060   2.313   1.429 -1.6779 -0.9450 -1.6024
  177MOL0     H23882   9.191   2.277   1.635 -0.5132  0.6381 -0.5961
  177MOL0     H23883   9.256   2.026   1.914 -0.1388  0.1824  0.2686
  177MOL0     H23884   9.302   2.134   1.776  0.0293 -1.3220 -0.9071
  177MOL0     H23885   9.204   1.975   1.617 -1.9794 -1.4176  0.3918
  177MOL0     H23886   9.126   1.883   1.751  0.0244 -0.4343  0.7589
  177MOL0     H23887   9.426   1.915   1.718 -0.4266  1.6370  1.0144
  177MOL0     H23888   9.341   1.800   1.613  1.7929 -0.6801  1.1636
  177MOL0     H23889   9.260   1.665   1.791  0.8153 -1.6574  0.0670
  177MOL0     H23890   9.431   1.669   1.801  1.9197  2.2309 -1.1983
  177MOL0     H23891   9.303   1.844   2.170 -1.2957  0.3877  0.3894
  177MOL0     H23892   8.849   2.080   1.807  0.1541  2.8692  1.8252
  177MOL0     H23893   8.648   2.026   1.547  0.5498  1.1874 -1.6222
  177MOL0     H23894   8.655   2.068   1.723 -1.1697  0.3576  0.3331
  177MOL0     H23895   8.610   2.189   1.603  0.5629  0.6247 -1.4431
  178MOL0     O23896   9.063  10.820  10.427  0.0943  1.0986 -0.7824
  178MOL0     C23897   9.097  10.815  10.546  1.1510 -0.1867 -0.1987
  178MOL0     O23898   9.224  10.795  10.596  0.5069  0.4942 -0.7162
  178MOL0     C23899   9.324  10.742  10.522 -0.0686  1.4079 -0.0872
  178MOL0     C23900   9.424  10.687  10.603  0.3963  0.2028 -0.4949
  178MOL0     C23901   9.547  10.654  10.546 -0.4274 -0.1585  0.3202
  178MOL0     C23902   9.568  10.660  10.410  0.2728  0.4223 -0.1987
  178MOL0     O23903   9.681  10.604  10.358 -0.1427  0.6731  0.1363
  178MOL0     C23904   9.817  10.665  10.378 -0.7980 -0.3546  0.5452
  178MOL0     C23905   9.821  10.821  10.356  0.4395 -0.2221 -0.1053
  178MOL0     C23906   9.954  10.885  10.378  0.1410  0.2461  0.2668
  178MOL0     C23907   9.973  11.012  10.299  0.4372  0.3709 -0.4329
  178MOL0     C23908  10.078  11.113  10.346  0.0158  1.1486  0.7521
  178MOL0     C23909  10.212  11.052  10.350 -1.4097  0.6011  0.8698
  178MOL0     C23910  10.260  11.012  10.204 -0.4429 -0.5340 -0.2249
  178MOL0     C23911  10.408  10.989  10.217  0.4813 -0.0866 -0.8866
  178MOL0     N23912  10.488  11.095  10.156  0.4991 -0.9940  0.5584
  178MOL0     C23913  10.558  11.198  10.218 -0.0574  0.0607  0.3734
  178MOL0     C23914  10.609  11.275  10.113  0.1150  0.4000 -0.2916
  178MOL0     C23915  10.690  11.395  10.132  0.3124  0.2900  0.0685
  178MOL0     C23916  10.842  11.360  10.113 -0.2378 -0.2634  0.3974
  178MOL0     C23917  10.923  11.474  10.173 -1.0386 -0.2057  0.2516
  178MOL0     C23918  11.081  11.474  10.157  1.3395  0.1253  0.6172
  178MOL0     O23919  11.132  11.592  10.202  0.2754  0.3748  0.7493
  178MOL0     C23920  11.256  11.626  10.148  0.9572  0.3016 -0.5262
  178MOL0     C23921  11.281  11.760  10.115  0.5500 -0.7069  0.1229
  178MOL0     C23922  11.402  11.800  10.065  0.0688  0.3934 -0.0890
  178MOL0     C23923  11.496  11.707  10.036 -1.3022  0.9795  0.0460
  178MOL0     C23924  11.638  11.744   9.996  0.3618 -0.6327 -0.3115
  178MOL0     O23925  11.731  11.643  10.014  0.4135  0.7129  0.2265
  178MOL0     C23926  11.862  11.672   9.983  0.0563  0.5875  0.7851
  178MOL0     C23927  11.928  11.757  10.071 -0.8017  1.4461  0.4246
  178MOL0     C23928  12.066  11.787  10.048  0.3246  0.5672  0.8961
  178MOL0     C23929  12.131  11.702   9.956 -0.0120  0.1319  0.2055
  178MOL0     O23930  12.266  11.714   9.947  0.6129 -0.1646 -0.3731
  178MOL0     C23931  12.346  11.684  10.070 -0.4233  0.2761 -0.2736
  178MOL0     C23932  12.495  11.682  10.041  0.4893 -0.8753 -0.0372
  178MOL0     C23933  12.534  11.588   9.923  0.2719  0.6221 -0.0499
  178MOL0     C23934  12.685  11.579   9.926  1.3408 -0.1111 -0.0387
  178MOL0     C23935  12.734  11.476   9.816 -0.5829  0.2081  0.2893
  178MOL0     C23936  12.893  11.469   9.800  0.2130  0.7259 -0.3095
  178MOL0     C23937  12.950  11.328   9.751  0.4013  0.1252 -0.1147
  178MOL0     C23938  13.095  11.349   9.710 -0.5326  0.8377 -0.6224
  178MOL0    Cl23939  13.116  11.464   9.574 -0.1766 -0.1815 -0.4142
  178MOL0     C23940  12.063  11.611   9.875 -0.0703 -0.3580 -0.4447
  178MOL0     C23941  11.929  11.592   9.892  0.8946 -0.0789 -1.5829
  178MOL0     O23942  11.661  11.864   9.977  0.0354 -0.2853  0.2738
  178MOL0     C23943  11.481  11.571  10.057  0.4445  0.0276  0.0516
  178MOL0     C23944  11.360  11.533  10.122  0.0728  0.3048  0.0278
  178MOL0     N23945  10.574  11.220   9.993  0.0355  0.2552 -1.3430
  178MOL0     N23946  10.512  11.111  10.022  0.4421  0.2067  0.2930
  178MOL0     C23947   9.464  10.700  10.323 -0.3738 -0.6636  0.0347
  178MOL0     C23948   9.344  10.733  10.383  0.0845 -0.5391  0.1740
  178MOL0     C23949   8.991  10.830  10.646 -0.3730  0.5276  0.1632
  178MOL0     C23950   9.013  10.930  10.744  0.8471  0.2572 -0.4935
  178MOL0     C23951   8.925  10.943  10.844  0.0761 -0.6464 -0.0414
  178MOL0     C23952   8.809  10.869  10.847  0.8516  0.6410 -0.2443
  178MOL0     O23953   8.732  10.861  10.963  0.2567  0.3901 -0.1940
  178MOL0     C23954   8.789  10.791  11.079 -0.4718  0.1988  0.2335
  178MOL0     C23955   8.676  10.715  11.153  0.0584  0.2613  0.2136
  178MOL0     C23956   8.567  10.803  11.219 -1.0958 -0.4021 -0.1644
  178MOL0     C23957   8.438  10.818  11.145 -0.2572  1.0374  0.6882
  178MOL0     C23958   8.362  10.695  11.119 -0.3235 -0.8191 -1.0019
  178MOL0     C23959   8.317  10.592  11.098  0.0344 -0.3425  0.0840
  178MOL0     C23960   8.785  10.780  10.743 -0.4245 -0.3888 -0.0431
  178MOL0     C23961   8.873  10.761  10.639  0.5222  0.2986  0.1298
  178MOL0     C23962   8.833  10.656  10.527  0.2535 -0.6898 -0.2958
  178MOL0     H23963   9.407  10.666  10.708  4.3594 -4.2303 -0.3741
  178MOL0     H23964   9.635  10.616  10.596  0.2968 -0.3076 -1.0234
  178MOL0     H23965   9.872  10.642  10.470  2.2602 -1.0888 -1.3128
  178MOL0     H23966   9.874  10.616  10.299 -3.2975 -0.7945 -1.0830
  178MOL0     H23967   9.748  10.869  10.422 -1.1269 -1.3993 -0.9010
  178MOL0     H23968   9.794  10.837  10.251 -1.1251 -0.1053  0.2936
  178MOL0     H23969  10.022  10.812  10.332 -1.8628  0.2668 -3.1093
  178MOL0     H23970   9.972  10.900  10.485  0.4361  1.3547  0.0766
  178MOL0     H23971   9.996  10.978  10.197 -0.5694 -1.8980  0.0290
  178MOL0     H23972   9.882  11.071  10.289 -0.6801 -0.8514  1.8626
  178MOL0     H23973  10.090  11.202  10.284  1.7816  0.2658 -0.2408
  178MOL0     H23974  10.064  11.145  10.449  0.1233  2.0017  0.5140
  178MOL0     H23975  10.280  11.127  10.393 -1.1807  1.7066 -1.2937
  178MOL0     H23976  10.217  10.953  10.395  1.2481  0.0566 -0.4660
  178MOL0     H23977  10.242  11.090  10.130 -0.3116 -0.6983 -0.4282
  178MOL0     H23978  10.219  10.918  10.168  1.1535 -1.7922  1.0742
  178MOL0     H23979  10.435  10.995  10.322 -3.2089  0.6653  0.1511
  178MOL0     H23980  10.429  10.888  10.179  0.5577 -0.2242 -0.4853
  178MOL0     H23981  10.565  11.213  10.325 -0.9895 -0.0835  0.4599
  178MOL0     H23982  10.655  11.467  10.058 -0.3312 -0.5448 -0.4455
  178MOL0     H23983  10.663  11.446  10.225 -0.4838 -0.5551  0.3149
  178MOL0     H23984  10.877  11.271  10.166 -2.0705 -1.0144  0.4240
  178MOL0     H23985  10.870  11.356  10.008 -1.0085  0.1216  0.1706
  178MOL0     H23986  10.910  11.475  10.282 -1.8069  2.3644  0.1988
  178MOL0     H23987  10.895  11.565  10.120 -1.5483 -0.3559  0.2627
  178MOL0     H23988  11.101  11.467  10.049  2.4259 -2.6635  0.9144
  178MOL0     H23989  11.134  11.391  10.205  1.2578  0.4374  1.2648
  178MOL0     H23990  11.212  11.839  10.143  2.2508  0.8485  0.0631
  178MOL0     H23991  11.429  11.905  10.057  0.2890  0.3025 -0.6249
  178MOL0     H23992  11.882  11.797  10.161 -1.5597 -2.3054  1.8690
  178MOL0     H23993  12.126  11.861  10.101  1.4470 -0.3585  0.9644
  178MOL0     H23994  12.324  11.765  10.139  2.2796  0.3784  0.5783
  178MOL0     H23995  12.309  11.586  10.103  1.2822 -0.0207  0.8635
  178MOL0     H23996  12.532  11.780  10.010 -0.4201 -0.9083 -1.3150
  178MOL0     H23997  12.538  11.647  10.135  2.2054 -0.1412 -0.5169
  178MOL0     H23998  12.493  11.489   9.942  2.8600 -0.1919  1.8549
  178MOL0     H23999  12.500  11.637   9.831  2.0382  0.8399 -0.6231
  178MOL0     H24000  12.723  11.543  10.022  1.1301  1.2005  0.5640
  178MOL0     H24001  12.729  11.677   9.905  3.6572 -1.1901 -0.5562
  178MOL0     H24002  12.683  11.501   9.723 -1.3194  1.2325  0.9573
  178MOL0     H24003  12.701  11.374   9.839 -0.5685 -0.1524 -1.2105
  178MOL0     H24004  12.921  11.543   9.725  0.2043  1.3080  0.2526
  178MOL0     H24005  12.943  11.503   9.891  4.5525  2.8584 -3.1518
  178MOL0     H24006  12.894  11.278   9.672 -1.5922 -0.0469  1.3390
  178MOL0     H24007  12.942  11.259   9.835 -1.6382  1.1712  0.6177
  178MOL0     H24008  13.143  11.389   9.800 -0.0988  1.2562 -1.0296
  178MOL0     H24009  13.137  11.252   9.683  1.8856  1.5152  0.4422
  178MOL0     H24010  12.119  11.542   9.813  0.9404 -2.6599  2.7679
  178MOL0     H24011  11.870  11.516   9.841 -3.7764  1.6921  0.5616
  178MOL0     H24012  11.562  11.499  10.050 -1.3186 -2.0054 -0.6923
  178MOL0     H24013  11.335  11.428  10.129 -2.0987  0.6944 -1.1619
  178MOL0     H24014   9.476  10.706  10.215 -0.8948 -0.2024 -0.0027
  178MOL0     H24015   9.260  10.769  10.325 -0.6233 -1.0655  0.8550
  178MOL0     H24016   9.104  10.988  10.735  0.5415  1.0692  1.2611
  178MOL0     H24017   8.965  10.989  10.934 -1.1733 -1.9631  1.2483
  178MOL0     H24018   8.840  10.859  11.147 -2.1202 -1.4985  3.4184
  178MOL0     H24019   8.868  10.721  11.050  0.5834  2.0246 -1.6201
  178MOL0     H24020   8.732  10.659  11.229 -2.4319 -0.7374  1.4307
  178MOL0     H24021   8.630  10.643  11.085 -0.3578  0.2314  0.5275
  178MOL0     H24022   8.615  10.901  11.227  2.1415 -1.8014 -0.6037
  178MOL0     H24023   8.555  10.763  11.321 -0.3188 -0.3019 -0.0290
  178MOL0     H24024   8.375  10.884  11.206 -2.6873 -0.9991  0.5460
  178MOL0     H24025   8.461  10.864  11.049  2.6383 -1.5070  0.0209
  178MOL0     H24026   8.281  10.493  11.079 -1.1638  0.4033 -1.9625
  178MOL0     H24027   8.696  10.719  10.750 -0.8197  0.3614  2.7419
  178MOL0     H24028   8.919  10.589  10.513 -0.8417 -1.8405 -1.8407
  178MOL0     H24029   8.751  10.591  10.560  1.0512 -1.7535 -0.3388
  178MOL0     H24030   8.814  10.720  10.441  0.1287 -1.7436 -1.0757
  179MOL0     O24031   0.318   7.088   2.623  0.3695 -0.2309  0.3675
  179MOL0     C24032   0.423   7.080   2.692  0.6063 -0.0289 -0.1199
  179MOL0     O24033   0.444   7.151   2.806 -0.3388 -0.3069  0.0736
  179MOL0     C24034   0.340   7.239   2.846 -0.9803  0.7926 -0.3455
  179MOL0     C24035   0.213   7.191   2.894 -0.1047 -0.0075  0.4161
  179MOL0     C24036   0.120   7.282   2.938  0.1150 -0.1831 -0.1397
  179MOL0     C24037   0.145   7.416   2.947 -0.4782 -0.1675  0.2659
  179MOL0     O24038   0.062   7.511   3.000  0.0423 -0.3276  0.3257
  179MOL0     C24039  -0.048   7.473   3.089  0.0834  0.6505 -0.3465
  179MOL0     C24040  -0.141   7.586   3.138 -0.4302 -0.0019  0.3666
  179MOL0     C24041  -0.245   7.601   3.020  0.2957 -0.0121  0.1396
  179MOL0     C24042  -0.326   7.724   3.056 -0.1231 -0.3247  0.4098
  179MOL0     C24043  -0.421   7.791   2.947 -0.0154 -0.3114 -0.0313
  179MOL0     C24044  -0.345   7.815   2.816 -0.0126  0.1388  0.5935
  179MOL0     C24045  -0.445   7.890   2.722 -0.1593  0.1590 -0.7991
  179MOL0     C24046  -0.373   7.959   2.590  0.0095 -0.5244 -0.2204
  179MOL0     N24047  -0.253   8.045   2.616 -0.4808 -0.6616  0.6454
  179MOL0     C24048  -0.255   8.183   2.625 -0.0825 -0.9735 -0.2633
  179MOL0     C24049  -0.136   8.227   2.599  0.0411  0.1459  0.7147
  179MOL0     C24050  -0.108   8.376   2.599 -0.7868  0.0491  0.8474
  179MOL0     C24051  -0.043   8.419   2.465 -0.1774  0.1418 -0.7752
  179MOL0     C24052  -0.147   8.386   2.356 -0.3558  0.1846 -0.5803
  179MOL0     C24053  -0.119   8.432   2.210 -0.8853  0.0564 -0.7919
  179MOL0     O24054  -0.007   8.351   2.161  0.8747 -1.1250  0.1729
  179MOL0     C24055   0.118   8.398   2.154 -0.5607 -0.3802  0.4749
  179MOL0     C24056   0.157   8.517   2.225 -0.0698  0.7429  0.0750
  179MOL0     C24057   0.289   8.580   2.217  0.4710 -0.1096  0.2837
  179MOL0     C24058   0.382   8.517   2.134  0.0023  0.2368  0.0379
  179MOL0     C24059   0.518   8.573   2.137 -0.1730 -1.0523  1.2322
  179MOL0     O24060   0.599   8.525   2.034  0.0554  0.4800 -0.0834
  179MOL0     C24061   0.732   8.564   2.030 -0.1081 -0.3398 -0.7319
  179MOL0     C24062   0.814   8.552   2.143 -0.5635  0.9584  0.1682
  179MOL0     C24063   0.944   8.604   2.148  0.4963  0.0398  0.1493
  179MOL0     C24064   1.004   8.644   2.028  0.4241 -0.7079 -0.2114
  179MOL0     O24065   1.134   8.670   2.016  0.2171  0.1939 -0.0663
  179MOL0     C24066   1.234   8.595   2.079 -0.4300 -0.0562  0.1405
  179MOL0     C24067   1.317   8.681   2.164 -0.7300 -0.4977  0.7826
  179MOL0     C24068   1.374   8.799   2.084 -0.4807 -0.3967  0.1868
  179MOL0     C24069   1.509   8.766   2.005 -0.5101  0.4408 -0.3357
  179MOL0     C24070   1.519   8.872   1.895  0.7608 -0.2152 -0.9058
  179MOL0     C24071   1.665   8.839   1.832  0.4748  0.0577 -1.4945
  179MOL0     C24072   1.712   8.959   1.754 -0.6204  0.8971  0.0640
  179MOL0     C24073   1.869   8.965   1.740  0.1476 -0.0551 -0.1605
  179MOL0    Cl24074   1.931   9.125   1.686 -0.4829  0.0176 -0.5885
  179MOL0     C24075   0.920   8.655   1.909 -1.2650 -0.4721 -0.9470
  179MOL0     C24076   0.788   8.616   1.920  0.9841  0.0952 -0.2615
  179MOL0     O24077   0.553   8.655   2.224 -0.0566  0.1611  0.3889
  179MOL0     C24078   0.341   8.404   2.055  0.4218  0.5181  0.3139
  179MOL0     C24079   0.214   8.352   2.064 -0.4284  0.3741  0.2895
  179MOL0     N24080  -0.054   8.112   2.576  0.1361  0.4754 -0.2647
  179MOL0     N24081  -0.127   8.003   2.598 -0.0290  0.2869  1.1176
  179MOL0     C24082   0.270   7.457   2.900 -0.9399 -0.3468 -0.0492
  179MOL0     C24083   0.360   7.374   2.846 -0.0328  0.0941 -0.2398
  179MOL0     C24084   0.526   6.981   2.649  0.3035 -0.8102  1.1310
  179MOL0     C24085   0.612   6.938   2.747 -0.3630  0.3525 -0.3295
  179MOL0     C24086   0.722   6.864   2.703  0.4074 -0.0877  0.2031
  179MOL0     C24087   0.741   6.825   2.573 -0.3053  0.8224  0.6851
  179MOL0     O24088   0.841   6.744   2.528  0.1021 -0.4620 -0.2989
  179MOL0     C24089   0.952   6.706   2.612 -0.4897 -0.5104 -0.6906
  179MOL0     C24090   1.057   6.621   2.528 -0.8362  0.6627  0.3135
  179MOL0     C24091   1.125   6.707   2.430  0.4549 -0.2219  0.7581
  179MOL0     C24092   1.202   6.624   2.329 -0.3227  0.4281  0.1854
  179MOL0     C24093   1.251   6.705   2.215  0.7234  0.1296 -0.2277
  179MOL0     C24094   1.316   6.762   2.126  0.2886  0.0536  0.6766
  179MOL0     C24095   0.656   6.862   2.480 -0.4258  0.2892 -0.4965
  179MOL0     C24096   0.546   6.947   2.509 -0.2691  0.2272 -0.1331
  179MOL0     C24097   0.457   6.995   2.398 -0.5533 -0.1635 -0.0083
  179MOL0     H24098   0.189   7.086   2.899  1.7803 -0.4441  1.1117
  179MOL0     H24099   0.022   7.243   2.965  0.5721 -1.5698 -0.4009
  179MOL0     H24100  -0.115   7.401   3.042 -2.8625  3.0229 -0.0842
  179MOL0     H24101  -0.007   7.437   3.183 -1.1127  1.0204  0.3379
  179MOL0     H24102  -0.076   7.673   3.145  0.2929 -0.5222  0.2171
  179MOL0     H24103  -0.175   7.553   3.237 -0.2741 -2.7411 -0.4110
  179MOL0     H24104  -0.305   7.510   3.016  0.0296 -0.0252  2.8850
  179MOL0     H24105  -0.183   7.614   2.931  2.2019 -1.3172  1.2067
  179MOL0     H24106  -0.372   7.694   3.151  0.1856  0.6932  0.9039
  179MOL0     H24107  -0.251   7.802   3.073 -1.8919  2.3862 -3.0024
  179MOL0     H24108  -0.517   7.738   2.940 -0.2325  0.2616 -1.9453
  179MOL0     H24109  -0.458   7.886   2.986 -1.1222 -0.9278  0.4705
  179MOL0     H24110  -0.267   7.891   2.830 -2.5079  3.2784 -1.3838
  179MOL0     H24111  -0.302   7.722   2.778 -0.6120  0.1690 -0.1605
  179MOL0     H24112  -0.504   7.968   2.771  2.6528  1.6345  0.4908
  179MOL0     H24113  -0.517   7.814   2.689  1.0169 -3.2802  3.6095
  179MOL0     H24114  -0.335   7.873   2.534 -2.1732 -2.1705  0.6599
  179MOL0     H24115  -0.443   8.005   2.520 -0.2275  1.9646  1.5108
  179MOL0     H24116  -0.348   8.238   2.631 -0.7364 -1.8402 -1.8972
  179MOL0     H24117  -0.204   8.427   2.614 -1.6959 -0.7045 -1.8187
  179MOL0     H24118  -0.053   8.396   2.691 -0.8285  1.9929  0.4988
  179MOL0     H24119  -0.032   8.528   2.460  0.6601  0.1708  0.8689
  179MOL0     H24120   0.048   8.359   2.452 -1.3215 -1.9470  0.3279
  179MOL0     H24121  -0.245   8.427   2.380 -0.0936  0.1752  0.5235
  179MOL0     H24122  -0.160   8.278   2.343 -0.4639  0.2645 -1.1711
  179MOL0     H24123  -0.093   8.538   2.202 -3.3432  0.7126 -1.0026
  179MOL0     H24124  -0.210   8.435   2.149 -2.8226 -0.8416  1.8476
  179MOL0     H24125   0.093   8.581   2.286  0.0893 -0.3623  1.4604
  179MOL0     H24126   0.295   8.661   2.289 -4.5299  2.4860 -1.6794
  179MOL0     H24127   0.779   8.508   2.235  2.5465  1.8688  1.9289
  179MOL0     H24128   1.010   8.595   2.234  1.7882 -2.2959 -0.9754
  179MOL0     H24129   1.190   8.510   2.133 -4.5542  0.9874 -1.2006
  179MOL0     H24130   1.307   8.555   2.008 -1.6777  1.3830 -2.0670
  179MOL0     H24131   1.251   8.735   2.233 -0.6831  1.1218 -0.3821
  179MOL0     H24132   1.398   8.633   2.219  2.3212  0.1431 -2.7204
  179MOL0     H24133   1.299   8.832   2.012 -3.3426  2.1411  3.9130
  179MOL0     H24134   1.401   8.875   2.159  0.0776  0.4910 -0.8846
  179MOL0     H24135   1.518   8.661   1.974  1.5107  0.2567  0.7060
  179MOL0     H24136   1.591   8.779   2.077  0.4827  1.4618 -1.6231
  179MOL0     H24137   1.521   8.970   1.944 -0.9140 -0.8214  0.4828
  179MOL0     H24138   1.446   8.871   1.814 -0.4395  0.2517  0.1323
  179MOL0     H24139   1.735   8.813   1.911  0.9428  0.8701 -1.6303
  179MOL0     H24140   1.655   8.751   1.769  0.3454 -0.3175 -0.9538
  179MOL0     H24141   1.687   9.046   1.814  1.1957  1.1769  0.4708
  179MOL0     H24142   1.674   8.980   1.653 -1.3273  0.9251  0.3298
  179MOL0     H24143   1.913   8.942   1.838  1.1245  4.5621  0.7341
  179MOL0     H24144   1.911   8.881   1.685 -2.6723 -1.2650 -0.6478
  179MOL0     H24145   0.964   8.691   1.816  3.3491 -1.2186  0.6913
  179MOL0     H24146   0.723   8.613   1.833  2.9137  1.3134 -1.8251
  179MOL0     H24147   0.417   8.366   1.986 -1.2501  1.4538 -2.1737
  179MOL0     H24148   0.211   8.255   2.015  0.1477 -0.4698  1.8745
  179MOL0     H24149   0.302   7.553   2.939  2.6260 -2.3853  2.6869
  179MOL0     H24150   0.462   7.411   2.833  0.1787  0.4995  2.0016
  179MOL0     H24151   0.596   6.950   2.854  2.1721 -0.8242  0.2402
  179MOL0     H24152   0.790   6.821   2.776 -0.7041 -2.2210  0.0351
  179MOL0     H24153   0.909   6.648   2.695 -2.9087  1.1857 -0.6766
  179MOL0     H24154   1.000   6.789   2.665 -0.9628  0.8614 -2.3421
  179MOL0     H24155   1.005   6.539   2.478  0.7790  1.5969 -3.1732
  179MOL0     H24156   1.134   6.576   2.591 -0.4982  1.0656  0.1902
  179MOL0     H24157   1.187   6.788   2.469  2.0279 -0.4118 -1.2140
  179MOL0     H24158   1.045   6.761   2.378  1.1320 -2.9215 -3.4754
  179MOL0     H24159   1.287   6.565   2.364  1.0697  2.0222 -0.3802
  179MOL0     H24160   1.135   6.546   2.292 -0.1149  1.4577 -2.5804
  179MOL0     H24161   1.366   6.812   2.045  0.0876  0.3008  0.7062
  179MOL0     H24162   0.663   6.816   2.382 -0.8654 -1.4780  0.2782
  179MOL0     H24163   0.353   6.973   2.424 -0.7162  2.5347  2.1047
  179MOL0     H24164   0.457   7.104   2.390 -2.6788  0.2833  3.7792
  179MOL0     H24165   0.489   6.949   2.304  1.0395 -0.0084  0.4387
  180MOL0     O24166   1.781  10.742   7.008  0.1645  0.4547 -0.1848
  180MOL0     C24167   1.742  10.629   6.974  0.5593 -0.4881 -0.5902
  180MOL0     O24168   1.816  10.519   6.987  0.7091 -0.7091  0.1774
  180MOL0     C24169   1.952  10.540   6.966 -0.3386 -0.6166 -0.7659
  180MOL0     C24170   2.014  10.519   6.842  0.3858  0.1818 -0.8474
  180MOL0     C24171   2.145  10.535   6.825  0.4050  0.1137 -0.4406
  180MOL0     C24172   2.222  10.564   6.935  0.1794  0.9041 -0.5976
  180MOL0     O24173   2.354  10.580   6.929 -0.9554  0.3968  0.1707
  180MOL0     C24174   2.437  10.476   6.990 -0.4104  0.8988 -0.2448
  180MOL0     C24175   2.570  10.477   6.918 -0.1840  0.4019 -0.1319
  180MOL0     C24176   2.676  10.398   6.995 -0.1619 -0.2860 -0.3320
  180MOL0     C24177   2.775  10.342   6.894 -0.4877  0.2688 -0.3041
  180MOL0     C24178   2.874  10.258   6.960 -0.8451  0.8915  0.2889
  180MOL0     C24179   2.952  10.182   6.851 -0.5740  1.0182  0.8752
  180MOL0     C24180   3.060  10.086   6.912  0.5703 -0.2872 -0.0169
  180MOL0     C24181   3.161  10.171   6.994  0.8248  0.3360 -0.3944
  180MOL0     N24182   3.296  10.116   7.006  0.1642  0.5353  0.1916
  180MOL0     C24183   3.384  10.146   6.910 -0.6053 -1.1187  0.3828
  180MOL0     C24184   3.489  10.065   6.931  0.0399 -0.3451 -0.5279
  180MOL0     C24185   3.601  10.055   6.838  0.1998 -0.4146 -0.2417
  180MOL0     C24186   3.747  10.053   6.891 -0.3695 -0.0082  0.2031
  180MOL0     C24187   3.807  10.192   6.936 -0.5208 -1.1490 -0.6938
  180MOL0     C24188   3.935  10.166   7.017 -0.1212  0.6567  0.2358
  180MOL0     O24189   4.011  10.068   6.946 -0.0005 -0.4117 -0.2690
  180MOL0     C24190   4.147  10.086   6.934 -0.2045  0.1344  0.5480
  180MOL0     C24191   4.227  10.149   7.030 -0.3385 -0.2092  0.7043
  180MOL0     C24192   4.365  10.167   6.996 -0.1840 -1.2701 -0.4764
  180MOL0     C24193   4.418  10.114   6.877 -0.1560 -0.0917  0.4680
  180MOL0     C24194   4.566  10.122   6.853  0.5296  0.4604 -0.4067
  180MOL0     O24195   4.623  10.208   6.945 -0.1834 -0.2562 -0.1007
  180MOL0     C24196   4.763  10.213   6.956  1.0519 -0.1915  0.0688
  180MOL0     C24197   4.846  10.103   6.981 -0.2804 -0.1453 -0.5435
  180MOL0     C24198   4.983  10.108   7.000 -0.8586  0.8293  0.6454
  180MOL0     C24199   5.049  10.227   6.973  0.3266  0.0085  0.4995
  180MOL0     O24200   5.182  10.237   6.995 -0.6087 -0.0098  0.6346
  180MOL0     C24201   5.270  10.303   6.904  0.6948 -0.0271  1.1059
  180MOL0     C24202   5.410  10.317   6.951 -0.1909 -0.7375 -0.2823
  180MOL0     C24203   5.513  10.370   6.847  0.3509 -0.2087 -0.3049
  180MOL0     C24204   5.659  10.338   6.877 -0.4019  0.2204 -0.3195
  180MOL0     C24205   5.681  10.185   6.850 -0.3268  0.1232  0.4074
  180MOL0     C24206   5.821  10.138   6.885  0.1653  0.0038 -0.4573
  180MOL0     C24207   5.872  10.018   6.811 -0.4784 -0.2467 -0.4099
  180MOL0     C24208   5.917  10.044   6.667  0.4269 -0.2136  0.5443
  180MOL0    Cl24209   6.060  10.152   6.667  0.3585 -0.2616 -0.4232
  180MOL0     C24210   4.972  10.339   6.940 -0.0187 -0.2456  0.3325
  180MOL0     C24211   4.837  10.335   6.935  0.1937  0.2215  0.4544
  180MOL0     O24212   4.624  10.064   6.763 -1.2902  0.3939  0.4075
  180MOL0     C24213   4.337  10.041   6.787  0.1218 -0.5508 -0.1924
  180MOL0     C24214   4.200  10.034   6.813 -1.0083  0.0882  0.9464
  180MOL0     N24215   3.467  10.000   7.049  0.0311 -0.4313 -0.2654
  180MOL0     N24216   3.349  10.024   7.090  1.2258  0.1317 -0.2303
  180MOL0     C24217   2.166  10.598   7.060  2.1071  0.6073 -0.1169
  180MOL0     C24218   2.024  10.575   7.076 -0.1146  0.5002 -0.0358
  180MOL0     C24219   1.609  10.618   6.907 -0.0049 -0.2340  0.1421
  180MOL0     C24220   1.553  10.491   6.869 -1.0831 -0.2745  0.2817
  180MOL0     C24221   1.415  10.470   6.826 -1.2429 -0.2930 -0.2577
  180MOL0     C24222   1.338  10.590   6.824 -0.1214  0.1629  0.4893
  180MOL0     O24223   1.198  10.577   6.817 -0.2131  0.1860  0.4439
  180MOL0     C24224   1.137  10.475   6.891  0.4122 -0.3288  0.5289
  180MOL0     C24225   0.987  10.490   6.886  0.5830 -0.1949  0.3587
  180MOL0     C24226   0.926  10.433   6.765 -0.4102  0.0916  1.1999
  180MOL0     C24227   0.808  10.508   6.715  0.4896 -0.0239  0.3928
  180MOL0     C24228   0.768  10.466   6.578 -0.2769 -0.2825 -0.2021
  180MOL0     C24229   0.739  10.437   6.460  0.2442 -0.0032 -0.5811
  180MOL0     C24230   1.388  10.707   6.867 -0.0640 -0.2899 -0.0649
  180MOL0     C24231   1.520  10.732   6.902 -0.0245  0.4331  0.9772
  180MOL0     C24232   1.549  10.875   6.937  0.4954  0.1441 -0.2314
  180MOL0     H24233   1.940  10.496   6.766  1.3428 -3.1449 -0.9251
  180MOL0     H24234   2.191  10.547   6.728 -0.0101  4.0371 -0.3143
  180MOL0     H24235   2.447  10.497   7.097 -0.7964 -1.8998  0.4181
  180MOL0     H24236   2.383  10.381   6.987 -2.9533  2.2723 -1.5035
  180MOL0     H24237   2.606  10.580   6.903  1.9741 -0.0779  1.2609
  180MOL0     H24238   2.556  10.442   6.816  0.5053  1.3764 -0.5779
  180MOL0     H24239   2.632  10.309   7.043  0.8080  0.6650  2.5593
  180MOL0     H24240   2.724  10.460   7.071  0.6636 -0.5911 -0.5886
  180MOL0     H24241   2.717  10.285   6.821 -3.0901  1.7676  0.4837
  180MOL0     H24242   2.824  10.426   6.845 -0.2328  0.1728 -0.2174
  180MOL0     H24243   2.937  10.321   7.023 -1.5241  0.2678  1.6507
  180MOL0     H24244   2.823  10.182   7.020  1.0897 -1.4538 -0.8725
  180MOL0     H24245   2.889  10.123   6.785 -0.5408  0.5359  1.2650
  180MOL0     H24246   2.990  10.252   6.777 -0.2083 -0.2002 -0.1254
  180MOL0     H24247   3.121  10.045   6.831 -2.0474 -4.6232 -0.1322
  180MOL0     H24248   3.013  10.002   6.964 -0.7656  0.9040  0.7605
  180MOL0     H24249   3.160  10.270   6.947 -1.8512  1.7982  2.3432
  180MOL0     H24250   3.124  10.190   7.095  1.9012 -2.6813  0.6915
  180MOL0     H24251   3.361  10.211   6.826 -3.4740 -1.3940  0.8395
  180MOL0     H24252   3.590   9.959   6.785  1.2840  1.6297 -4.6679
  180MOL0     H24253   3.596  10.141   6.771  0.5377  1.2155  1.7460
  180MOL0     H24254   3.760   9.963   6.952 -1.2430 -0.1941  0.1326
  180MOL0     H24255   3.799  10.023   6.799  1.1932 -2.0360  1.6796
  180MOL0     H24256   3.740  10.247   7.002  2.7170  0.2663  1.7020
  180MOL0     H24257   3.825  10.263   6.855 -0.1946 -1.6204 -1.0407
  180MOL0     H24258   3.910  10.123   7.115 -0.1293 -4.4486 -1.6865
  180MOL0     H24259   3.996  10.256   7.027  1.9625 -0.9072  2.7932
  180MOL0     H24260   4.186  10.205   7.114 -0.3171 -0.0623  0.6161
  180MOL0     H24261   4.416  10.235   7.062  0.8609 -0.4195 -2.0893
  180MOL0     H24262   4.802  10.006   6.998  1.9761 -1.1555 -0.1298
  180MOL0     H24263   5.035  10.019   7.036 -0.1816  0.7904 -0.3941
  180MOL0     H24264   5.271  10.243   6.813 -1.9903  0.1240  0.8777
  180MOL0     H24265   5.226  10.400   6.881 -1.4902 -0.5997  2.5113
  180MOL0     H24266   5.418  10.385   7.036 -0.6732 -2.1609  0.9401
  180MOL0     H24267   5.447  10.222   6.991  1.0172  0.2032  0.9007
  180MOL0     H24268   5.483  10.333   6.748 -2.0323 -2.2908  1.0671
  180MOL0     H24269   5.509  10.478   6.831 -3.3434 -0.4978 -2.4914
  180MOL0     H24270   5.688  10.368   6.978 -1.7560 -2.6505  1.0486
  180MOL0     H24271   5.735  10.394   6.822  1.4396  0.5967  2.4016
  180MOL0     H24272   5.666  10.157   6.745  1.2438 -1.0064  0.4420
  180MOL0     H24273   5.619  10.121   6.912  0.5076 -1.6936 -0.5592
  180MOL0     H24274   5.902  10.210   6.874  1.1886 -1.0831 -0.3435
  180MOL0     H24275   5.818  10.128   6.994 -4.2466  1.5238 -0.2517
  180MOL0     H24276   5.792   9.944   6.808 -0.2002 -0.6168  0.7438
  180MOL0     H24277   5.955   9.976   6.869  0.9038 -0.7790 -2.6431
  180MOL0     H24278   5.950   9.947   6.629 -0.8188 -0.1835 -0.6945
  180MOL0     H24279   5.836  10.086   6.607 -0.9341 -3.4098 -0.0796
  180MOL0     H24280   5.016  10.431   6.905  0.9802 -1.8264 -2.9730
  180MOL0     H24281   4.778  10.426   6.924 -0.1473 -0.1643 -1.1445
  180MOL0     H24282   4.383   9.999   6.698  0.1685  0.9698 -0.9195
  180MOL0     H24283   4.141   9.959   6.761 -1.5169 -1.0873  3.1032
  180MOL0     H24284   2.231  10.641   7.137  4.3419 -0.2847 -1.3994
  180MOL0     H24285   1.975  10.611   7.167  0.4870  0.6716  0.2244
  180MOL0     H24286   1.610  10.399   6.878 -2.6551 -1.3526 -0.3138
  180MOL0     H24287   1.371  10.373   6.807 -1.7074 -0.8962  3.1744
  180MOL0     H24288   1.142  10.478   7.000 -2.5216  2.2757  0.7071
  180MOL0     H24289   1.162  10.377   6.848 -1.9002 -0.7908  0.0943
  180MOL0     H24290   0.952  10.592   6.902  3.1239  0.5291  1.9847
  180MOL0     H24291   0.943  10.441   6.974 -0.4242 -0.2768 -0.1797
  180MOL0     H24292   0.914  10.325   6.773  0.4541 -0.1687 -0.5791
  180MOL0     H24293   0.990  10.446   6.677 -3.3450 -0.8890 -1.2742
  180MOL0     H24294   0.728  10.486   6.786  1.0007  1.5635  1.5116
  180MOL0     H24295   0.834  10.614   6.701 -1.6470  0.7013  1.4681
  180MOL0     H24296   0.705  10.421   6.360 -1.1166  0.4495 -0.2184
  180MOL0     H24297   1.313  10.784   6.883 -0.7263 -0.9149 -0.0983
  180MOL0     H24298   1.633  10.916   6.881  1.5989  0.1386  1.3575
  180MOL0     H24299   1.458  10.936   6.923  0.8233  0.7221  0.1058
  180MOL0     H24300   1.580  10.871   7.042 -3.6693 -0.7814  1.1620
  181MOL0     O24301   9.646   3.011   6.233  0.0267 -0.3977  0.7275
  181MOL0     C24302   9.554   3.078   6.182 -0.5264 -0.2171 -0.4095
  181MOL0     O24303   9.510   3.199   6.236  0.4499  0.3784  0.7383
  181MOL0     C24304   9.579   3.246   6.346 -0.6000  0.0846 -0.0807
  181MOL0     C24305   9.534   3.244   6.477 -0.0302  0.1687  0.8029
  181MOL0     C24306   9.613   3.296   6.579 -0.6532  0.1938  0.1496
  181MOL0     C24307   9.742   3.353   6.555 -0.5331 -0.3266 -0.0312
  181MOL0     O24308   9.824   3.400   6.653  0.4329 -0.3463 -0.7220
  181MOL0     C24309   9.953   3.330   6.670  0.3983  0.9974 -0.2721
  181MOL0     C24310  10.013   3.357   6.804  0.5106  0.2655 -0.2442
  181MOL0     C24311  10.008   3.502   6.846 -0.1046 -1.1549 -0.5765
  181MOL0     C24312  10.068   3.526   6.977 -0.0349 -0.1141 -0.2254
  181MOL0     C24313  10.217   3.542   6.975  0.4382  0.2870  0.1321
  181MOL0     C24314  10.295   3.593   7.094 -0.7105  0.3637 -0.8773
  181MOL0     C24315  10.269   3.731   7.133 -0.1523 -1.0162 -0.5298
  181MOL0     C24316  10.383   3.797   7.200 -0.5152 -0.0997  0.2270
  181MOL0     N24317  10.433   3.725   7.319  0.1593 -0.0375 -1.1755
  181MOL0     C24318  10.506   3.611   7.349 -0.4450  0.7843  0.5086
  181MOL0     C24319  10.511   3.594   7.483  0.3925  0.1846  0.3803
  181MOL0     C24320  10.576   3.481   7.564  0.7301  0.0382  0.1358
  181MOL0     C24321  10.725   3.503   7.565  1.1258  1.2260  0.2743
  181MOL0     C24322  10.764   3.584   7.679 -0.1520  0.4769 -0.0262
  181MOL0     C24323  10.925   3.576   7.694  0.3613 -0.7867  0.2130
  181MOL0     O24324  10.980   3.455   7.747 -0.5089  0.8141 -0.3228
  181MOL0     C24325  11.121   3.446   7.758  0.5890 -0.0596  0.2083
  181MOL0     C24326  11.168   3.317   7.783 -0.3333  0.1082 -0.6325
  181MOL0     C24327  11.300   3.289   7.790  0.2824  0.3625 -0.0128
  181MOL0     C24328  11.393   3.395   7.784 -0.3500  0.7049  0.8867
  181MOL0     C24329  11.535   3.368   7.798  0.4828 -0.1791  0.9221
  181MOL0     O24330  11.608   3.472   7.831 -0.6599  0.1065  0.2427
  181MOL0     C24331  11.746   3.442   7.825  0.5029  0.4593 -0.1848
  181MOL0     C24332  11.820   3.371   7.925  0.2332 -0.6617 -0.0317
  181MOL0     C24333  11.955   3.337   7.902  0.1291  0.1692 -0.6984
  181MOL0     C24334  12.026   3.397   7.798  0.3533 -0.0041 -0.0997
  181MOL0     O24335  12.162   3.385   7.799 -0.0093  0.3246 -0.0117
  181MOL0     C24336  12.225   3.406   7.672 -0.1327  0.4821  0.1461
  181MOL0     C24337  12.362   3.344   7.669  0.1988 -1.4206 -0.3016
  181MOL0     C24338  12.391   3.225   7.748  0.1813 -0.0087  0.1684
  181MOL0     C24339  12.345   3.085   7.705  0.8229 -0.6716 -0.1430
  181MOL0     C24340  12.383   2.967   7.806 -0.6302  0.6675  0.0209
  181MOL0     C24341  12.362   2.981   7.960 -0.6536  0.1729  0.8125
  181MOL0     C24342  12.211   2.979   7.990 -0.2319 -0.6752  0.3007
  181MOL0     C24343  12.175   2.964   8.137 -0.6804  0.1206 -0.2574
  181MOL0    Cl24344  12.294   3.031   8.245  0.1305  0.0262 -0.3520
  181MOL0     C24345  11.948   3.485   7.714 -0.5245 -0.1240  1.4283
  181MOL0     C24346  11.819   3.501   7.721  0.3273 -0.1150  0.3960
  181MOL0     O24347  11.568   3.247   7.790 -0.2945  0.3739  0.3158
  181MOL0     C24348  11.345   3.527   7.758  1.1673 -0.0763 -0.0535
  181MOL0     C24349  11.208   3.555   7.755 -0.2043  0.7863 -0.1723
  181MOL0     N24350  10.449   3.695   7.545 -0.8125 -0.7845 -0.6630
  181MOL0     N24351  10.406   3.772   7.453  0.3374 -0.2305  0.3954
  181MOL0     C24352   9.783   3.352   6.418 -0.2177 -0.0675 -0.1153
  181MOL0     C24353   9.706   3.293   6.318  0.2235 -0.5648 -0.1239
  181MOL0     C24354   9.484   3.040   6.054 -0.2474  0.3958 -0.0089
  181MOL0     C24355   9.370   3.122   6.012  0.3282 -0.4236  0.4871
  181MOL0     C24356   9.305   3.096   5.896  1.6000 -0.6628  0.1518
  181MOL0     C24357   9.323   2.975   5.822 -0.3567 -0.3827 -0.3678
  181MOL0     O24358   9.255   2.964   5.707  0.2041  0.3193 -0.1959
  181MOL0     C24359   9.279   2.848   5.625 -0.1939 -0.0967 -1.0682
  181MOL0     C24360   9.181   2.866   5.511  0.0485  0.0572 -0.7305
  181MOL0     C24361   9.217   2.760   5.401  0.8347  0.7188  0.1613
  181MOL0     C24362   9.115   2.754   5.288 -0.7263 -0.4115  0.0853
  181MOL0     C24363   8.993   2.682   5.330 -0.3006 -0.7362  0.2831
  181MOL0     C24364   8.895   2.626   5.367 -0.0633 -0.3255 -0.2422
  181MOL0     C24365   9.418   2.884   5.867 -0.2327  1.0303  0.7012
  181MOL0     C24366   9.511   2.917   5.973  0.0607  0.3680 -0.2484
  181MOL0     C24367   9.628   2.817   5.991  0.0027  0.7692  0.3649
  181MOL0     H24368   9.432   3.206   6.485 -0.6262  1.4419 -0.4114
  181MOL0     H24369   9.572   3.291   6.679  2.2969  0.0537  1.4457
  181MOL0     H24370   9.927   3.224   6.670  0.2105  0.9420 -3.7353
  181MOL0     H24371  10.022   3.345   6.587  1.2378  2.0397  0.5780
  181MOL0     H24372  10.115   3.319   6.801  0.2039 -0.5409 -1.0254
  181MOL0     H24373   9.951   3.301   6.875 -1.4808  1.6352 -0.7990
  181MOL0     H24374   9.904   3.533   6.863  0.8344  1.5005  0.7554
  181MOL0     H24375  10.057   3.569   6.775  1.0251  0.3746  1.5508
  181MOL0     H24376  10.026   3.625   6.998 -1.6410 -0.2174 -2.6174
  181MOL0     H24377  10.039   3.448   7.048 -1.8666 -1.6547 -2.5426
  181MOL0     H24378  10.262   3.445   6.951  0.6106  0.0842  1.2290
  181MOL0     H24379  10.231   3.612   6.893  0.7343  0.4908  0.3566
  181MOL0     H24380  10.287   3.529   7.182 -0.4412  0.8727 -0.4813
  181MOL0     H24381  10.401   3.590   7.066  0.2397 -2.6415  2.3070
  181MOL0     H24382  10.190   3.737   7.208  0.8933  0.6162  0.5067
  181MOL0     H24383  10.253   3.796   7.046  6.1737  5.2516  1.9662
  181MOL0     H24384  10.472   3.815   7.140 -0.9951 -0.4023 -0.5928
  181MOL0     H24385  10.336   3.890   7.233 -2.9873 -0.4594 -1.9218
  181MOL0     H24386  10.533   3.551   7.263  1.0823  2.8665 -0.5603
  181MOL0     H24387  10.524   3.466   7.659 -0.8998 -2.4104 -1.0241
  181MOL0     H24388  10.559   3.381   7.522  2.2687 -1.1149  2.0417
  181MOL0     H24389  10.771   3.404   7.571 -0.3457  0.5671  1.7865
  181MOL0     H24390  10.750   3.555   7.472 -1.2196  2.4752  0.2621
  181MOL0     H24391  10.706   3.556   7.767  2.5310  2.4341  2.5711
  181MOL0     H24392  10.743   3.689   7.657  1.2069 -0.0081 -5.0424
  181MOL0     H24393  10.949   3.642   7.778  1.6117  1.0739 -1.5189
  181MOL0     H24394  10.969   3.613   7.601 -1.1808  0.4200 -0.0863
  181MOL0     H24395  11.091   3.242   7.797 -1.6945  1.7523  1.3094
  181MOL0     H24396  11.335   3.187   7.802  0.7192  0.2597 -1.8745
  181MOL0     H24397  11.761   3.327   8.005 -0.7207  1.4765  0.5143
  181MOL0     H24398  12.007   3.272   7.972  1.8596  3.5623  1.4495
  181MOL0     H24399  12.160   3.376   7.590  2.2188  0.6211 -1.8974
  181MOL0     H24400  12.236   3.515   7.660  0.3011  0.1233 -4.1257
  181MOL0     H24401  12.386   3.318   7.566 -1.3968 -3.9861 -0.1372
  181MOL0     H24402  12.430   3.422   7.703 -3.5683  1.7233  0.8366
  181MOL0     H24403  12.500   3.225   7.758  0.2286  1.0606 -0.2263
  181MOL0     H24404  12.352   3.246   7.849  0.0184  3.6131 -0.4973
  181MOL0     H24405  12.385   3.060   7.606 -1.5439 -0.7395 -1.1399
  181MOL0     H24406  12.236   3.091   7.705  0.9064  1.6246 -0.7049
  181MOL0     H24407  12.490   2.950   7.792 -1.3077 -1.1921 -4.6630
  181MOL0     H24408  12.340   2.877   7.762 -0.2183  0.5641 -0.1673
  181MOL0     H24409  12.413   2.895   8.005 -1.6346 -1.1619 -0.5379
  181MOL0     H24410  12.400   3.074   8.003 -0.8329 -0.2553  1.9382
  181MOL0     H24411  12.155   2.902   7.937 -0.2717 -0.1282 -0.4636
  181MOL0     H24412  12.180   3.079   7.960 -2.0305 -1.2750  0.0605
  181MOL0     H24413  12.071   2.996   8.148 -0.6206 -0.0633  1.0398
  181MOL0     H24414  12.165   2.857   8.160 -1.8582  0.3444  0.3791
  181MOL0     H24415  11.999   3.535   7.632  0.8380 -1.3040  1.5081
  181MOL0     H24416  11.769   3.557   7.642 -0.5249  2.2297  2.4683
  181MOL0     H24417  11.405   3.614   7.733  0.9862  0.7030  1.9841
  181MOL0     H24418  11.167   3.655   7.742  0.4962  1.1254  0.1604
  181MOL0     H24419   9.884   3.378   6.390 -0.9266 -1.1928 -4.5053
  181MOL0     H24420   9.760   3.270   6.227 -1.0190  1.7254 -1.5211
  181MOL0     H24421   9.333   3.201   6.076 -0.8413  0.6175 -1.3981
  181MOL0     H24422   9.236   3.171   5.858  0.3252 -0.8883  1.8884
  181MOL0     H24423   9.258   2.765   5.693 -0.1391  1.9130  1.5815
  181MOL0     H24424   9.383   2.853   5.591  0.0609 -0.7295 -0.4107
  181MOL0     H24425   9.194   2.970   5.477 -0.5217  0.0544 -0.9536
  181MOL0     H24426   9.077   2.861   5.544 -0.1116 -0.0176 -1.2303
  181MOL0     H24427   9.254   2.661   5.429  1.4214  1.0235  0.5030
  181MOL0     H24428   9.301   2.805   5.347  1.0596 -1.4185 -1.3864
  181MOL0     H24429   9.085   2.851   5.249  0.1131 -0.7583 -1.5071
  181MOL0     H24430   9.168   2.701   5.208  0.6246  2.8635 -1.3590
  181MOL0     H24431   8.827   2.555   5.410  1.7517 -0.7849  2.0341
  181MOL0     H24432   9.441   2.793   5.813  0.0020  0.4954  1.6842
  181MOL0     H24433   9.611   2.754   6.079  1.6231 -0.8227 -0.4046
  181MOL0     H24434   9.653   2.758   5.902  3.1908 -0.7517  2.0946
  181MOL0     H24435   9.712   2.883   6.014 -0.0212  0.5583  1.1017
  182MOL0     O24436  10.980  10.211   6.492 -0.0544 -0.4256 -0.3912
  182MOL0     C24437  10.913  10.183   6.395  0.7207 -0.4762  0.3105
  182MOL0     O24438  10.966  10.131   6.284 -0.0185 -1.2046  0.7124
  182MOL0     C24439  11.099  10.167   6.252  0.4205  0.5429  0.3651
  182MOL0     C24440  11.206  10.076   6.258  0.1881  0.4996 -0.0090
  182MOL0     C24441  11.337  10.113   6.210 -0.1250 -0.5673  0.3741
  182MOL0     C24442  11.363  10.249   6.163  1.1855  0.7840  1.0393
  182MOL0     O24443  11.486  10.298   6.135  0.7448  0.7136 -0.1141
  182MOL0     C24444  11.597  10.212   6.157 -0.5228 -0.1049 -0.3088
  182MOL0     C24445  11.718  10.303   6.146 -0.4063 -0.2430  0.2211
  182MOL0     C24446  11.858  10.241   6.169 -0.3236  0.4009  0.5645
  182MOL0     C24447  11.869  10.155   6.302 -1.1608 -0.6606  0.5279
  182MOL0     C24448  12.018  10.117   6.313  0.5040  0.4070 -0.4117
  182MOL0     C24449  12.077  10.078   6.451  0.6920 -0.1145  0.7915
  182MOL0     C24450  12.212  10.009   6.423  0.0365 -1.1251  0.0905
  182MOL0     C24451  12.309  10.054   6.527 -0.7657 -0.1887 -1.0725
  182MOL0     N24452  12.431   9.975   6.530 -0.7168  0.5404 -0.5840
  182MOL0     C24453  12.536   9.995   6.441  1.2929 -0.0995  0.4654
  182MOL0     C24454  12.625   9.906   6.479  0.7880 -0.4810 -0.3580
  182MOL0     C24455  12.758   9.887   6.407  0.1182  0.0116 -0.6507
  182MOL0     C24456  12.879   9.926   6.489  0.6471  0.3137 -0.7293
  182MOL0     C24457  12.895   9.836   6.620  0.3593 -0.0969 -0.1107
  182MOL0     C24458  13.004   9.904   6.711  0.8625 -0.3975  0.9242
  182MOL0     O24459  13.122   9.850   6.664 -0.1109  1.2106 -0.0588
  182MOL0     C24460  13.238   9.888   6.725  0.0241  0.1020 -0.8463
  182MOL0     C24461  13.357   9.841   6.668  0.0346  0.2950 -0.6998
  182MOL0     C24462  13.474   9.862   6.729 -0.0532 -0.8364 -0.3628
  182MOL0     C24463  13.488   9.931   6.853  0.0336  0.3448 -0.5791
  182MOL0     C24464  13.628   9.956   6.913 -0.2462  0.5431  0.1088
  182MOL0     O24465  13.715   9.858   6.877 -0.4142 -0.1905 -0.5088
  182MOL0     C24466  13.841   9.837   6.928  0.0132  0.4435  0.3466
  182MOL0     C24467  13.876   9.706   6.959 -0.2184  0.0949 -0.3345
  182MOL0     C24468  14.009   9.676   7.005 -0.3661 -0.4829 -0.0200
  182MOL0     C24469  14.105   9.779   7.012  0.6558 -0.0838 -0.0521
  182MOL0     O24470  14.233   9.761   7.067  0.0570  0.1791  0.6394
  182MOL0     C24471  14.299   9.633   7.060 -0.3724 -0.7604  0.5839
  182MOL0     C24472  14.336   9.606   6.917 -0.3794  0.2213  0.1974
  182MOL0     C24473  14.410   9.714   6.846 -0.5152  0.2207 -0.5733
  182MOL0     C24474  14.522   9.667   6.752 -0.1779  0.2534  0.5367
  182MOL0     C24475  14.477   9.582   6.638  0.1298  0.7579  0.6107
  182MOL0     C24476  14.588   9.580   6.529  0.1246 -0.3118  0.5898
  182MOL0     C24477  14.538   9.474   6.427 -0.6019  0.4789 -0.5896
  182MOL0     C24478  14.583   9.510   6.287  0.1976 -0.4455 -1.0425
  182MOL0    Cl24479  14.511   9.392   6.174  0.5576  0.2610  0.2013
  182MOL0     C24480  14.070   9.907   6.969  0.2211  0.9572  0.6253
  182MOL0     C24481  13.938   9.935   6.929 -0.2680 -0.3155 -0.0907
  182MOL0     O24482  13.653  10.060   6.972  0.3325  0.3191 -1.0689
  182MOL0     C24483  13.376   9.976   6.915 -0.4447  0.6327 -0.1657
  182MOL0     C24484  13.248   9.944   6.857 -0.0107  0.0720 -0.0127
  182MOL0     N24485  12.574   9.838   6.595 -0.3733 -0.4174 -0.9591
  182MOL0     N24486  12.459   9.883   6.631 -0.4918  0.2622  0.2689
  182MOL0     C24487  11.252  10.341   6.162 -0.2094 -0.3114 -0.0127
  182MOL0     C24488  11.123  10.296   6.199 -1.3179 -0.9231 -0.8431
  182MOL0     C24489  10.762  10.202   6.393 -0.2938 -0.0355  0.5015
  182MOL0     C24490  10.710  10.234   6.265 -0.7785  0.2151  0.2046
  182MOL0     C24491  10.578  10.272   6.248  0.2452 -0.5190 -0.0858
  182MOL0     C24492  10.489  10.271   6.360 -1.1086  0.2739 -0.6557
  182MOL0     O24493  10.355  10.303   6.348  0.2750 -0.1866  0.7122
  182MOL0     C24494  10.293  10.298   6.218  0.5049 -0.1864 -0.6756
  182MOL0     C24495  10.141  10.292   6.250  0.6107  0.0850 -0.3881
  182MOL0     C24496  10.087  10.415   6.321  0.6650  0.7381 -0.1879
  182MOL0     C24497   9.947  10.445   6.285 -1.0060  0.8433  0.0838
  182MOL0     C24498   9.880  10.532   6.388 -1.3939  0.0891  0.7333
  182MOL0     C24499   9.819  10.604   6.463 -0.0963 -0.1862 -0.1082
  182MOL0     C24500  10.543  10.240   6.491  0.0157  0.5272 -0.3499
  182MOL0     C24501  10.678  10.212   6.506 -0.4304  0.0517  0.5598
  182MOL0     C24502  10.727  10.154   6.639  0.0021 -0.0466  0.2253
  182MOL0     H24503  11.197   9.970   6.280 -0.5221 -0.2223 -3.2276
  182MOL0     H24504  11.412  10.037   6.227  1.6493  0.9687 -0.2146
  182MOL0     H24505  11.601  10.141   6.240  0.3664 -2.3297 -2.1349
  182MOL0     H24506  11.601  10.151   6.066  2.5719  1.3549 -1.2831
  182MOL0     H24507  11.708  10.390   6.212  6.6799  2.9728 -1.9608
  182MOL0     H24508  11.724  10.342   6.044  0.4725 -3.0827 -0.9027
  182MOL0     H24509  11.935  10.317   6.185  1.4360 -1.0870 -0.3585
  182MOL0     H24510  11.880  10.179   6.081  1.6635 -0.9815  1.9485
  182MOL0     H24511  11.831  10.210   6.388  2.3365  0.6665  1.3969
  182MOL0     H24512  11.807  10.065   6.297 -1.9284 -0.0931 -0.4446
  182MOL0     H24513  12.033  10.038   6.238  2.5227  0.2986  0.0374
  182MOL0     H24514  12.076  10.203   6.279 -2.4068  2.8087  0.3195
  182MOL0     H24515  12.082  10.168   6.513 -0.3792  0.8698 -0.4915
  182MOL0     H24516  12.007  10.009   6.498  0.8781 -0.5076  0.4977
  182MOL0     H24517  12.249  10.050   6.329  1.7961 -1.6672  0.5069
  182MOL0     H24518  12.207   9.903   6.396 -0.4873 -1.2287  0.5729
  182MOL0     H24519  12.325  10.160   6.508  0.2344 -0.1447 -0.0882
  182MOL0     H24520  12.271  10.038   6.628  1.9275 -0.4211 -0.0324
  182MOL0     H24521  12.545  10.076   6.369 -0.0862 -1.0218 -0.7850
  182MOL0     H24522  12.764   9.783   6.374 -1.3667  0.3925 -2.2509
  182MOL0     H24523  12.765   9.932   6.308 -0.5199 -3.9445 -2.7255
  182MOL0     H24524  12.965   9.916   6.423  1.5449  0.9862  0.3054
  182MOL0     H24525  12.872  10.035   6.497  1.2554  0.4187 -1.5536
  182MOL0     H24526  12.934   9.741   6.583 -0.6487  0.3533 -2.5242
  182MOL0     H24527  12.803   9.815   6.677  1.0849 -3.0767  0.1450
  182MOL0     H24528  12.988   9.892   6.819  0.9217  1.7559  1.2088
  182MOL0     H24529  12.992  10.012   6.699  2.9849 -0.2197  0.1096
  182MOL0     H24530  13.347   9.784   6.576  0.8161 -1.8743  0.4925
  182MOL0     H24531  13.563   9.817   6.686  0.4958  0.2734 -0.4140
  182MOL0     H24532  13.817   9.617   6.939  0.5433 -0.1061 -1.8080
  182MOL0     H24533  14.036   9.573   7.027  0.3043  0.0956  2.0837
  182MOL0     H24534  14.394   9.630   7.116  1.0307  1.3557 -1.5058
  182MOL0     H24535  14.239   9.548   7.092  0.3312 -0.8808  1.6431
  182MOL0     H24536  14.393   9.512   6.916 -0.9390 -0.1929 -2.9443
  182MOL0     H24537  14.242   9.584   6.866 -0.6603  4.6774 -1.6640
  182MOL0     H24538  14.342   9.772   6.783 -0.3900  1.6487  0.5661
  182MOL0     H24539  14.451   9.776   6.926 -4.2004 -0.6069  2.2256
  182MOL0     H24540  14.597   9.611   6.807 -2.5348 -1.8866  1.7457
  182MOL0     H24541  14.568   9.757   6.710 -0.3476 -0.4392 -1.2404
  182MOL0     H24542  14.385   9.621   6.594 -0.2486 -1.0008 -0.2760
  182MOL0     H24543  14.453   9.482   6.677  0.7542  0.4142  0.1276
  182MOL0     H24544  14.601   9.679   6.484 -1.8972 -1.3226 -2.5650
  182MOL0     H24545  14.682   9.549   6.576  0.6489 -1.2334 -0.9979
  182MOL0     H24546  14.429   9.479   6.418 -0.7892 -1.9634 -0.5065
  182MOL0     H24547  14.554   9.370   6.458 -3.2218  0.7397  1.9554
  182MOL0     H24548  14.558   9.612   6.255  1.3617 -0.0968 -0.9283
  182MOL0     H24549  14.692   9.509   6.274  0.7093  0.8278  2.1550
  182MOL0     H24550  14.144   9.984   6.985 -0.4324  1.7582 -0.1363
  182MOL0     H24551  13.917  10.041   6.916  2.4285  0.7031  2.7322
  182MOL0     H24552  13.390  10.032   7.007  0.3041  0.4513 -0.1654
  182MOL0     H24553  13.165   9.990   6.909 -1.7369 -3.6735  0.9253
  182MOL0     H24554  11.270  10.444   6.132 -0.0477  0.7020  3.2035
  182MOL0     H24555  11.046  10.372   6.193  0.8747  1.5797  0.5344
  182MOL0     H24556  10.769  10.222   6.174 -1.2855 -0.5156 -0.0335
  182MOL0     H24557  10.547  10.308   6.150  1.1733  0.5988  0.0033
  182MOL0     H24558  10.332  10.209   6.167 -1.0083 -0.0146 -2.1980
  182MOL0     H24559  10.302  10.386   6.153  3.8011 -0.2919 -0.5486
  182MOL0     H24560  10.118  10.210   6.319 -3.2833  1.1008 -0.2487
  182MOL0     H24561  10.085  10.270   6.159  1.6905 -0.4828 -0.9301
  182MOL0     H24562  10.144  10.504   6.293 -0.9020  1.4617 -1.2426
  182MOL0     H24563  10.096  10.400   6.429  1.3659  2.6149  0.0456
  182MOL0     H24564   9.941  10.492   6.186 -0.7879  0.5957 -0.0504
  182MOL0     H24565   9.898  10.347   6.283  1.1044 -0.2992  0.9955
  182MOL0     H24566   9.760  10.674   6.518 -1.5825 -1.6752  0.2496
  182MOL0     H24567  10.482  10.236   6.581 -0.3804 -0.4783 -0.6560
  182MOL0     H24568  10.638  10.158   6.703  0.6591  0.5491  1.1292
  182MOL0     H24569  10.757  10.049   6.628  0.5685  0.3754 -3.3785
  182MOL0     H24570  10.806  10.220   6.676  0.5654  0.2620 -1.4504
  183MOL0     O24571   4.983   3.135   1.952 -0.1951 -0.6985  0.6833
  183MOL0     C24572   4.916   3.116   1.849 -0.2243  0.0679 -0.2669
  183MOL0     O24573   4.969   3.097   1.721  0.8113  0.0879  0.9042
  183MOL0     C24574   5.098   3.062   1.688 -0.0995 -0.6491 -0.0073
  183MOL0     C24575   5.120   3.072   1.548 -0.7349  0.0950 -0.0679
  183MOL0     C24576   5.253   3.056   1.500  0.0832 -0.1781  0.4127
  183MOL0     C24577   5.367   3.044   1.591 -0.5149 -0.0568 -0.5597
  183MOL0     O24578   5.492   3.028   1.552 -0.1397  0.2899  0.0625
  183MOL0     C24579   5.518   2.968   1.425  0.0284 -0.9890 -0.7086
  183MOL0     C24580   5.655   2.913   1.418  0.3615  0.2619 -0.3158
  183MOL0     C24581   5.689   2.858   1.275 -1.0355  0.3914  0.4373
  183MOL0     C24582   5.815   2.771   1.278 -0.5065  0.0275 -0.0252
  183MOL0     C24583   5.944   2.850   1.314  0.4763  0.2440  0.0679
  183MOL0     C24584   5.988   2.956   1.221 -0.6318 -0.3493  0.5593
  183MOL0     C24585   6.108   3.034   1.292 -0.0698 -1.2954  0.2517
  183MOL0     C24586   6.164   3.156   1.209  0.3482 -0.2610 -0.4148
  183MOL0     N24587   6.296   3.183   1.269 -0.2334 -0.2004 -0.2957
  183MOL0     C24588   6.318   3.174   1.402 -0.3843  0.8564 -0.2870
  183MOL0     C24589   6.444   3.228   1.411  0.4271  0.3652  0.9315
  183MOL0     C24590   6.526   3.214   1.540  0.2143  0.2291 -0.5210
  183MOL0     C24591   6.470   3.251   1.681 -0.5171 -0.2678 -0.1194
  183MOL0     C24592   6.575   3.250   1.795 -0.1741 -0.0845  0.5255
  183MOL0     C24593   6.646   3.392   1.785 -0.7328  0.1509  0.1308
  183MOL0     O24594   6.714   3.423   1.911  0.1859  0.2015  0.3041
  183MOL0     C24595   6.836   3.361   1.928  0.4727  0.2063  0.2943
  183MOL0     C24596   6.899   3.384   2.045 -0.5305 -0.1168 -0.1202
  183MOL0     C24597   7.022   3.315   2.074 -0.5372 -0.7813  0.4963
  183MOL0     C24598   7.079   3.221   1.983 -0.4088 -0.4197 -0.1008
  183MOL0     C24599   7.207   3.165   2.009  0.6699  0.5253  0.6912
  183MOL0     O24600   7.240   3.062   1.925 -0.3145 -0.2773 -0.3829
  183MOL0     C24601   7.345   2.976   1.953  0.6242 -1.1018  0.2624
  183MOL0     C24602   7.383   2.936   2.081 -0.4867 -0.8157  0.4779
  183MOL0     C24603   7.490   2.846   2.090 -0.9559 -1.6737  0.2254
  183MOL0     C24604   7.569   2.795   1.986  0.6868  0.3600  0.2789
  183MOL0     O24605   7.684   2.715   1.995  0.0163  0.1511 -0.2764
  183MOL0     C24606   7.724   2.672   2.133  0.3947 -1.1131  0.5944
  183MOL0     C24607   7.816   2.557   2.118  0.8487  0.3563 -0.1656
  183MOL0     C24608   7.871   2.520   2.249 -1.1512  0.6695 -1.1939
  183MOL0     C24609   7.933   2.371   2.252  0.1046 -0.4461 -1.4117
  183MOL0     C24610   8.015   2.351   2.377 -0.1450  0.0990 -0.2585
  183MOL0     C24611   8.115   2.226   2.360  0.0789 -0.4848 -0.5704
  183MOL0     C24612   8.223   2.259   2.466  0.3556  0.5798  0.2435
  183MOL0     C24613   8.299   2.136   2.516  0.3980 -0.0325 -0.8250
  183MOL0    Cl24614   8.389   2.064   2.384 -0.1349  0.1816 -0.1483
  183MOL0     C24615   7.528   2.844   1.864  0.3068 -0.5001  0.5682
  183MOL0     C24616   7.415   2.931   1.842 -0.0118 -0.1292  0.2171
  183MOL0     O24617   7.280   3.213   2.094 -0.0454 -0.3219  0.1725
  183MOL0     C24618   7.021   3.217   1.851 -0.3146  0.6337 -0.1625
  183MOL0     C24619   6.908   3.279   1.833  0.3992 -0.5725  0.3478
  183MOL0     N24620   6.494   3.261   1.284  0.4372  0.5021 -1.2410
  183MOL0     N24621   6.395   3.229   1.196 -0.3238  0.3758  0.3081
  183MOL0     C24622   5.345   3.049   1.729  1.0208 -0.3090  0.7417
  183MOL0     C24623   5.209   3.047   1.775 -0.1626  0.6596 -0.2076
  183MOL0     C24624   4.768   3.103   1.850  0.2725  0.8297  0.0712
  183MOL0     C24625   4.708   2.984   1.796  0.2965 -0.3093 -0.5218
  183MOL0     C24626   4.570   2.956   1.816 -0.3378  0.4729  0.9470
  183MOL0     C24627   4.489   3.050   1.880  0.8466  0.2156  0.1859
  183MOL0     O24628   4.353   3.041   1.873 -0.1736 -0.0869  0.9074
  183MOL0     C24629   4.272   3.135   1.945 -0.4651  0.1789  0.4262
  183MOL0     C24630   4.286   3.098   2.094  0.4680  0.2309  0.3092
  183MOL0     C24631   4.161   3.100   2.180 -0.4056  1.0304  0.2118
  183MOL0     C24632   4.123   3.250   2.203 -0.3414  0.2929 -1.1533
  183MOL0     C24633   3.986   3.256   2.258 -0.9721 -0.7758 -1.2437
  183MOL0     C24634   3.868   3.270   2.296 -0.3410 -0.2672  0.2687
  183MOL0     C24635   4.557   3.163   1.935 -0.4127  0.7564  0.0903
  183MOL0     C24636   4.695   3.184   1.935  0.4856  0.5962  1.1277
  183MOL0     C24637   4.745   3.318   1.977 -0.2359 -0.5005 -0.5161
  183MOL0     H24638   5.037   3.072   1.479  0.0672 -0.6282 -1.0554
  183MOL0     H24639   5.273   3.065   1.394 -3.3995  0.2110 -0.3462
  183MOL0     H24640   5.449   2.885   1.406  2.9050 -3.9318  0.8176
  183MOL0     H24641   5.517   3.040   1.343  0.3214 -2.3541 -1.9504
  183MOL0     H24642   5.652   2.836   1.496 -1.4070  2.3326  1.8424
  183MOL0     H24643   5.729   2.988   1.447  0.2831  0.0676  0.4066
  183MOL0     H24644   5.703   2.944   1.208 -4.3768  1.3512  0.7635
  183MOL0     H24645   5.601   2.806   1.235 -1.0087 -1.0110  2.0954
  183MOL0     H24646   5.815   2.693   1.354 -0.4541  0.4751  0.4458
  183MOL0     H24647   5.828   2.735   1.176 -0.9692  0.3080 -0.1873
  183MOL0     H24648   5.932   2.876   1.419 -0.4223 -4.1799  1.2673
  183MOL0     H24649   6.023   2.774   1.307 -1.2114 -1.6199  0.3134
  183MOL0     H24650   6.031   2.914   1.130  1.4546  2.8086 -0.0764
  183MOL0     H24651   5.917   3.034   1.193 -0.2554 -1.0699 -2.9147
  183MOL0     H24652   6.188   2.961   1.305  1.8846  1.1349  3.0851
  183MOL0     H24653   6.079   3.071   1.390  0.2921  1.0715 -0.4734
  183MOL0     H24654   6.175   3.127   1.104  2.1129 -1.3668  0.0446
  183MOL0     H24655   6.090   3.237   1.204  0.3561 -0.2786 -0.8546
  183MOL0     H24656   6.259   3.136   1.485  2.3073 -0.7576  1.0160
  183MOL0     H24657   6.547   3.107   1.547  3.2911  0.7697 -0.0630
  183MOL0     H24658   6.621   3.268   1.528  0.2995  0.4695  1.0592
  183MOL0     H24659   6.426   3.351   1.671  1.6439  0.6021 -1.6258
  183MOL0     H24660   6.392   3.180   1.708 -0.8752  0.1645 -0.0024
  183MOL0     H24661   6.645   3.166   1.782  2.5633  2.2131 -0.6270
  183MOL0     H24662   6.520   3.231   1.888  1.0021  0.1492  1.2986
  183MOL0     H24663   6.562   3.462   1.772 -1.8056 -1.1094  0.0784
  183MOL0     H24664   6.717   3.404   1.702  0.1094  1.5632  1.0209
  183MOL0     H24665   6.869   3.451   2.125  0.5208 -0.0205  0.2095
  183MOL0     H24666   7.078   3.324   2.167 -1.0407  0.0093  0.7344
  183MOL0     H24667   7.328   2.972   2.168 -4.4682  0.2339 -2.1855
  183MOL0     H24668   7.533   2.832   2.188 -1.8697 -0.5696  0.8115
  183MOL0     H24669   7.773   2.763   2.169  0.7269 -0.6744 -0.8685
  183MOL0     H24670   7.636   2.641   2.190  0.0659 -0.3916  0.4914
  183MOL0     H24671   7.759   2.471   2.082  1.0344 -0.0921  0.5991
  183MOL0     H24672   7.890   2.586   2.042  1.6217  1.0117  0.8139
  183MOL0     H24673   7.952   2.589   2.274 -1.0278 -0.7737  3.0842
  183MOL0     H24674   7.788   2.532   2.319 -2.4110 -0.1935 -2.4674
  183MOL0     H24675   8.006   2.364   2.170  3.7014 -2.3763  1.6136
  183MOL0     H24676   7.868   2.283   2.252  0.6179 -0.8362 -1.8825
  183MOL0     H24677   7.936   2.330   2.450 -1.1900  0.7907 -1.1574
  183MOL0     H24678   8.052   2.453   2.392 -1.5665  0.5807  0.1542
  183MOL0     H24679   8.059   2.136   2.388 -0.0920 -0.1293  0.2693
  183MOL0     H24680   8.163   2.223   2.262  3.2556 -0.7100  0.8790
  183MOL0     H24681   8.192   2.311   2.557  3.3031  5.4085 -1.1553
  183MOL0     H24682   8.290   2.328   2.414 -0.9606  1.0770 -0.8581
  183MOL0     H24683   8.378   2.162   2.587  0.3004  1.0589 -1.1031
  183MOL0     H24684   8.229   2.070   2.569  0.1378  2.2179  1.9018
  183MOL0     H24685   7.578   2.813   1.773  0.4553 -0.8961  0.7819
  183MOL0     H24686   7.379   2.969   1.747  0.0240  1.5895  0.8425
  183MOL0     H24687   7.064   3.149   1.778  0.4111 -2.3803  2.7943
  183MOL0     H24688   6.862   3.275   1.735 -2.6845  3.4932  1.3689
  183MOL0     H24689   5.433   3.061   1.791  0.2343  3.0719  1.4227
  183MOL0     H24690   5.176   3.034   1.877 -0.4904 -0.9843 -0.4885
  183MOL0     H24691   4.762   2.903   1.748  0.9831 -0.5627  0.6502
  183MOL0     H24692   4.528   2.868   1.769 -0.7320  0.9047  0.4938
  183MOL0     H24693   4.170   3.124   1.907  0.4070 -4.4761 -1.2873
  183MOL0     H24694   4.296   3.241   1.936  1.2602 -0.0869  1.4944
  183MOL0     H24695   4.361   3.163   2.138  1.3512 -2.0550  2.3873
  183MOL0     H24696   4.326   2.997   2.104  0.0167  0.0229  0.0666
  183MOL0     H24697   4.188   3.061   2.279  0.4474  2.5158  0.5841
  183MOL0     H24698   4.076   3.047   2.136  0.2964  1.1284 -1.3258
  183MOL0     H24699   4.192   3.289   2.277  0.2195 -0.7553 -1.1024
  183MOL0     H24700   4.128   3.317   2.117 -0.2935  0.9165 -0.6698
  183MOL0     H24701   3.770   3.278   2.340  0.6298  0.2214  2.4704
  183MOL0     H24702   4.502   3.248   1.975  1.3508  1.4296  1.1981
  183MOL0     H24703   4.666   3.392   1.989  1.9848  1.7995  1.0314
  183MOL0     H24704   4.806   3.312   2.068 -0.7467 -2.8316 -0.2628
  183MOL0     H24705   4.798   3.358   1.891 -0.4955  1.2475  0.0992
  184MOL0     O24706   0.310   7.268   0.736  0.1985  0.2523 -0.8961
  184MOL0     C24707   0.320   7.367   0.806  0.4709  0.0682 -0.1397
  184MOL0     O24708   0.296   7.371   0.941 -0.3489  0.6757  0.5998
  184MOL0     C24709   0.234   7.269   1.001  0.2972  1.5999 -0.1363
  184MOL0     C24710   0.100   7.247   0.974 -0.5461  0.1067 -0.5152
  184MOL0     C24711   0.018   7.158   1.036 -0.7771  0.7749 -0.0783
  184MOL0     C24712   0.083   7.072   1.135  0.4226 -1.0448  0.8234
  184MOL0     O24713   0.019   6.973   1.211  0.0925 -0.6452 -0.6717
  184MOL0     C24714  -0.125   6.971   1.221 -0.3425  1.1282 -0.7566
  184MOL0     C24715  -0.152   7.051   1.353  1.1214 -0.6996 -0.5825
  184MOL0     C24716  -0.311   7.075   1.371 -0.6258 -0.6450  0.3392
  184MOL0     C24717  -0.350   7.170   1.490 -0.5426  0.5903 -0.1020
  184MOL0     C24718  -0.500   7.163   1.532  0.2311 -0.2991 -0.0493
  184MOL0     C24719  -0.594   7.189   1.418  0.3526 -0.0277 -0.4901
  184MOL0     C24720  -0.741   7.165   1.451 -0.0000  0.4383  0.4809
  184MOL0     C24721  -0.762   7.020   1.475  0.3034 -0.0726 -0.4561
  184MOL0     N24722  -0.901   6.974   1.510 -0.0112 -0.6217  0.1931
  184MOL0     C24723  -0.958   6.986   1.632  0.5932 -1.4078  0.0136
  184MOL0     C24724  -1.082   6.925   1.622 -0.1648 -0.1585 -0.4889
  184MOL0     C24725  -1.181   6.908   1.732 -0.0317 -0.3535 -0.2911
  184MOL0     C24726  -1.304   6.997   1.710 -0.3698  0.5060 -0.4009
  184MOL0     C24727  -1.396   6.964   1.596  0.2264 -0.2872 -0.0844
  184MOL0     C24728  -1.457   6.827   1.574 -0.9838 -0.2145 -0.2937
  184MOL0     O24729  -1.513   6.788   1.697 -0.4932 -0.5317  0.3111
  184MOL0     C24730  -1.651   6.799   1.719 -0.5833  0.4338  0.0426
  184MOL0     C24731  -1.680   6.772   1.849 -0.4566 -1.0652  0.7462
  184MOL0     C24732  -1.808   6.767   1.893  0.0618  0.3415 -0.0850
  184MOL0     C24733  -1.924   6.798   1.809 -0.9742  0.5045  0.1152
  184MOL0     C24734  -2.062   6.782   1.856 -0.8690  0.1377  0.4382
  184MOL0     O24735  -2.165   6.771   1.763 -0.4179 -0.0149  1.1852
  184MOL0     C24736  -2.296   6.751   1.807  0.6501 -0.8528 -0.4588
  184MOL0     C24737  -2.399   6.812   1.733 -0.1150 -0.7411  0.2633
  184MOL0     C24738  -2.533   6.787   1.768 -0.3698 -0.1167  0.3224
  184MOL0     C24739  -2.555   6.697   1.870 -0.7722 -1.2120 -0.8773
  184MOL0     O24740  -2.684   6.663   1.882  0.2331  0.4493 -0.7769
  184MOL0     C24741  -2.742   6.646   2.016  0.6577  0.1519  0.4325
  184MOL0     C24742  -2.898   6.620   1.999 -0.9955 -0.0441  0.4142
  184MOL0     C24743  -2.966   6.607   2.136  0.6137  0.1951 -0.0344
  184MOL0     C24744  -3.089   6.693   2.152 -0.6585  0.3847  0.4532
  184MOL0     C24745  -3.172   6.653   2.275 -0.4683  0.4588 -0.8190
  184MOL0     C24746  -3.317   6.703   2.276 -0.3176 -0.3980 -0.1129
  184MOL0     C24747  -3.395   6.676   2.416 -0.7977 -0.8748 -1.5972
  184MOL0     C24748  -3.327   6.742   2.535  0.3298 -0.1760  0.3061
  184MOL0    Cl24749  -3.427   6.743   2.677 -0.8099 -0.1880  0.0944
  184MOL0     C24750  -2.451   6.648   1.959  0.3494 -0.0425 -0.3720
  184MOL0     C24751  -2.320   6.665   1.914 -0.2040 -0.1754 -0.7610
  184MOL0     O24752  -2.078   6.789   1.979 -0.0855 -0.5189  0.6808
  184MOL0     C24753  -1.885   6.830   1.677  1.1320  0.4123  0.1259
  184MOL0     C24754  -1.757   6.828   1.629  0.3376  0.0187 -0.2315
  184MOL0     N24755  -1.095   6.870   1.498 -0.5351 -0.0577  0.2243
  184MOL0     N24756  -0.979   6.901   1.433  0.5386  0.5580 -0.1713
  184MOL0     C24757   0.216   7.091   1.166  0.5781  0.0017  1.0099
  184MOL0     C24758   0.292   7.188   1.102 -0.1906 -0.3328 -0.0546
  184MOL0     C24759   0.362   7.494   0.741  0.6877 -0.0512  0.1053
  184MOL0     C24760   0.303   7.619   0.785 -0.5833 -0.5570 -0.0655
  184MOL0     C24761   0.340   7.743   0.729  1.0014  0.2137  0.0020
  184MOL0     C24762   0.444   7.754   0.639 -0.2365 -0.6907 -0.7619
  184MOL0     O24763   0.503   7.872   0.592  0.0561 -0.7031  0.5149
  184MOL0     C24764   0.483   7.980   0.682  0.5718  0.1457 -0.0522
  184MOL0     C24765   0.566   8.105   0.641  0.3547 -0.4278 -0.5647
  184MOL0     C24766   0.531   8.225   0.736  0.6358 -0.3910 -0.7454
  184MOL0     C24767   0.394   8.283   0.729 -0.1180 -0.0581  0.2003
  184MOL0     C24768   0.376   8.408   0.800 -0.2758  0.6286  0.0051
  184MOL0     C24769   0.369   8.511   0.861  1.1834 -0.0409  0.9953
  184MOL0     C24770   0.496   7.630   0.591 -0.1256 -0.1906 -0.5005
  184MOL0     C24771   0.461   7.505   0.640  0.7280 -0.4767 -0.4916
  184MOL0     C24772   0.542   7.385   0.606 -0.6287 -0.4070  0.0079
  184MOL0     H24773   0.066   7.307   0.891 -1.0629 -1.9397 -1.8557
  184MOL0     H24774  -0.082   7.139   0.999  0.7548  0.0257 -4.3950
  184MOL0     H24775  -0.185   7.014   1.141 -2.6286 -0.3535  0.0619
  184MOL0     H24776  -0.156   6.866   1.227  0.7774  0.7019 -2.0065
  184MOL0     H24777  -0.103   7.148   1.341 -0.0806  0.2257  1.4402
  184MOL0     H24778  -0.103   7.004   1.439  0.2288 -1.4576 -0.4676
  184MOL0     H24779  -0.342   6.972   1.390  0.9359 -1.5452 -1.6427
  184MOL0     H24780  -0.363   7.098   1.277  1.8935 -0.4882 -1.1139
  184MOL0     H24781  -0.293   7.145   1.580  0.1303  0.4247 -0.5643
  184MOL0     H24782  -0.322   7.271   1.458 -0.6733  0.0419 -2.0936
  184MOL0     H24783  -0.522   7.060   1.562 -3.9709 -0.8150 -3.9069
  184MOL0     H24784  -0.516   7.234   1.614 -1.4168 -3.1204  2.2703
  184MOL0     H24785  -0.576   7.289   1.376  3.1539 -1.0783 -2.0509
  184MOL0     H24786  -0.577   7.120   1.335  3.4597  0.8243 -0.6889
  184MOL0     H24787  -0.808   7.204   1.374 -1.3173 -0.9069  0.8899
  184MOL0     H24788  -0.764   7.231   1.536 -0.1100  2.3369 -0.9732
  184MOL0     H24789  -0.733   6.962   1.387  1.7711 -2.5509  1.5132
  184MOL0     H24790  -0.701   6.990   1.561 -1.8506 -1.4808  0.6904
  184MOL0     H24791  -0.909   7.031   1.718 -1.1312  0.8671 -0.1068
  184MOL0     H24792  -1.197   6.802   1.753 -0.1253  0.1786  2.7538
  184MOL0     H24793  -1.125   6.953   1.815  1.7281  1.0245 -2.1258
  184MOL0     H24794  -1.353   7.010   1.807  0.3175 -0.6716  0.1287
  184MOL0     H24795  -1.254   7.093   1.694  0.8304  0.2122  1.2865
  184MOL0     H24796  -1.347   6.983   1.501 -1.4580  0.1918 -0.9025
  184MOL0     H24797  -1.474   7.040   1.607  0.2180 -0.0573 -1.5241
  184MOL0     H24798  -1.379   6.753   1.555 -1.9208 -0.5881 -3.2783
  184MOL0     H24799  -1.519   6.831   1.484 -1.6746  1.2885  0.2115
  184MOL0     H24800  -1.606   6.725   1.913 -0.5084 -1.0849  0.7928
  184MOL0     H24801  -1.817   6.756   2.001  1.3610 -1.3673 -0.1113
  184MOL0     H24802  -2.380   6.871   1.644  1.5293  0.1521  1.1552
  184MOL0     H24803  -2.625   6.819   1.719  1.2229  4.1067 -0.3193
  184MOL0     H24804  -2.695   6.554   2.053  2.6618  0.7270 -0.5235
  184MOL0     H24805  -2.721   6.734   2.077 -0.4508  1.7995 -1.4623
  184MOL0     H24806  -2.932   6.708   1.945  0.2583  0.7202  0.8367
  184MOL0     H24807  -2.915   6.534   1.933 -1.9616  1.9069 -2.0662
  184MOL0     H24808  -3.003   6.505   2.147  0.1980  0.1714 -1.4209
  184MOL0     H24809  -2.890   6.633   2.210  1.4548  2.3727 -1.5355
  184MOL0     H24810  -3.154   6.693   2.065 -1.7952 -0.2071  1.2769
  184MOL0     H24811  -3.050   6.795   2.164  1.4334 -0.3099 -0.0194
  184MOL0     H24812  -3.115   6.686   2.362 -2.7279  1.3908  0.4125
  184MOL0     H24813  -3.176   6.544   2.281  2.9759  0.2977  0.9370
  184MOL0     H24814  -3.323   6.808   2.244  0.5800 -0.6216 -1.0605
  184MOL0     H24815  -3.371   6.653   2.195 -1.9862 -0.5848  1.0471
  184MOL0     H24816  -3.389   6.567   2.416  1.6302 -0.7930 -1.5892
  184MOL0     H24817  -3.497   6.715   2.420  0.0193  1.3308  0.6053
  184MOL0     H24818  -3.231   6.695   2.559  0.0215 -0.4423  1.0391
  184MOL0     H24819  -3.310   6.846   2.505 -1.8148 -0.1496 -1.0561
  184MOL0     H24820  -2.478   6.572   2.032 -0.8401 -0.9612 -1.7132
  184MOL0     H24821  -2.243   6.612   1.968 -1.2553 -1.4740 -0.4832
  184MOL0     H24822  -1.962   6.845   1.602  1.4437  0.4648 -0.1881
  184MOL0     H24823  -1.745   6.833   1.521 -0.6555  0.0154 -0.3503
  184MOL0     H24824   0.264   7.035   1.245  0.2069 -1.9456 -0.0803
  184MOL0     H24825   0.395   7.208   1.129 -0.6477  2.1906  0.1261
  184MOL0     H24826   0.232   7.643   0.864  1.3922  3.0177  0.8416
  184MOL0     H24827   0.286   7.834   0.752 -4.7354 -2.0807 -2.4410
  184MOL0     H24828   0.489   7.952   0.787 -2.8257 -1.1963 -0.0988
  184MOL0     H24829   0.376   8.003   0.675  0.5685  0.0572 -0.3171
  184MOL0     H24830   0.564   8.138   0.537  1.9619 -2.7630 -1.4238
  184MOL0     H24831   0.675   8.089   0.645  0.9650  2.6009 -2.1513
  184MOL0     H24832   0.595   8.311   0.712  0.8792 -0.8884 -1.9462
  184MOL0     H24833   0.562   8.205   0.839 -0.0018 -0.0469 -0.4804
  184MOL0     H24834   0.376   8.313   0.626 -0.2269 -0.6291  0.0530
  184MOL0     H24835   0.325   8.206   0.767  1.1218 -1.1161  0.3566
  184MOL0     H24836   0.352   8.603   0.913  1.7006  0.5756  0.0935
  184MOL0     H24837   0.575   7.644   0.518 -1.0803  2.5241 -1.1312
  184MOL0     H24838   0.475   7.305   0.572  0.4141 -0.4045 -2.2909
  184MOL0     H24839   0.622   7.397   0.532  0.8145 -1.7057  1.2814
  184MOL0     H24840   0.591   7.343   0.694  2.0623  0.0746 -1.1809
  185MOL0     O24841   0.352   7.190   7.728  0.2931  0.5355  0.5225
  185MOL0     C24842   0.286   7.129   7.808  0.4111  0.5437 -0.0141
  185MOL0     O24843   0.334   7.074   7.925 -0.2869 -0.2638  0.1364
  185MOL0     C24844   0.468   7.049   7.930 -0.8786 -1.0883  0.1805
  185MOL0     C24845   0.562   7.153   7.933  1.1740 -0.7060  0.1536
  185MOL0     C24846   0.702   7.144   7.924  0.8664  0.4763 -0.6554
  185MOL0     C24847   0.756   7.015   7.922  0.2011  0.5562  0.1469
  185MOL0     O24848   0.898   7.005   7.921 -0.1364 -0.5205  0.4612
  185MOL0     C24849   0.969   6.880   7.908 -0.5174 -0.2537 -0.2790
  185MOL0     C24850   1.127   6.890   7.899 -0.6281 -0.2152  0.2820
  185MOL0     C24851   1.197   6.759   7.902 -0.4474  0.0257  0.3015
  185MOL0     C24852   1.186   6.653   8.023  0.0687 -0.2500  1.3959
  185MOL0     C24853   1.231   6.521   7.960  0.3329 -0.3556  0.1559
  185MOL0     C24854   1.384   6.518   7.935 -0.0785 -0.4891  0.3183
  185MOL0     C24855   1.443   6.379   7.887  0.9577 -0.3280  0.2088
  185MOL0     C24856   1.590   6.376   7.910 -1.1197 -0.3285  0.4700
  185MOL0     N24857   1.637   6.369   8.052 -0.1135  0.2288  0.0101
  185MOL0     C24858   1.719   6.466   8.111  0.4283 -1.3200  0.1204
  185MOL0     C24859   1.740   6.435   8.238 -0.2589  0.3330 -0.3381
  185MOL0     C24860   1.824   6.514   8.333 -0.8497 -0.1686 -1.3955
  185MOL0     C24861   1.947   6.576   8.269  0.3636  0.6417  0.4923
  185MOL0     C24862   2.045   6.645   8.356 -0.0669 -0.3712 -0.0042
  185MOL0     C24863   2.126   6.742   8.276 -0.3652  0.0084 -0.4131
  185MOL0     O24864   2.221   6.669   8.192 -0.3885  0.1437 -0.7929
  185MOL0     C24865   2.345   6.707   8.186 -1.3061  0.0636 -0.2246
  185MOL0     C24866   2.430   6.675   8.287 -0.4246 -0.2497 -0.2662
  185MOL0     C24867   2.572   6.694   8.282  0.8223 -1.0143 -0.4000
  185MOL0     C24868   2.629   6.764   8.175 -0.4413  0.8146 -0.3298
  185MOL0     C24869   2.774   6.803   8.171 -1.2075 -0.4472 -0.2392
  185MOL0     O24870   2.815   6.881   8.063 -0.1699  0.0371 -0.0858
  185MOL0     C24871   2.942   6.932   8.066  0.4421 -0.2908  0.2278
  185MOL0     C24872   3.017   6.938   7.945  0.4384  0.5824 -0.0410
  185MOL0     C24873   3.148   6.977   7.940  0.5441  0.1388 -1.0810
  185MOL0     C24874   3.202   7.044   8.048  0.4249  0.0747  0.4080
  185MOL0     O24875   3.322   7.107   8.031 -0.4853 -0.0370 -0.3273
  185MOL0     C24876   3.432   7.033   7.975 -0.7567  0.5489 -0.5279
  185MOL0     C24877   3.563   7.091   8.015 -0.1093  0.1481 -0.8070
  185MOL0     C24878   3.679   7.025   7.943 -0.4899  0.2996  0.1460
  185MOL0     C24879   3.807   7.106   7.963  1.2160  0.1576  1.4157
  185MOL0     C24880   3.922   7.011   7.928 -0.3072  0.6028  0.2331
  185MOL0     C24881   4.062   7.070   7.916 -0.3459 -0.6182 -0.6409
  185MOL0     C24882   4.120   7.096   8.059 -0.6075 -0.1538  0.6981
  185MOL0     C24883   4.279   7.095   8.043 -0.0966  0.4698 -0.8008
  185MOL0    Cl24884   4.360   7.131   8.212  0.4009  0.4300 -0.6698
  185MOL0     C24885   3.128   7.057   8.163 -0.2998  1.2806  1.4251
  185MOL0     C24886   3.004   6.989   8.174 -0.4373  0.1222  0.2502
  185MOL0     O24887   2.848   6.762   8.257  0.2259 -0.0344 -1.1177
  185MOL0     C24888   2.543   6.795   8.074 -0.7335 -0.2729 -0.7715
  185MOL0     C24889   2.404   6.766   8.079  0.5000 -0.1238  0.2248
  185MOL0     N24890   1.678   6.311   8.259  0.8607 -0.6154  0.8809
  185MOL0     N24891   1.614   6.277   8.144 -0.1923 -0.5200  0.6777
  185MOL0     C24892   0.675   6.899   7.931 -0.8575 -0.5671  0.9165
  185MOL0     C24893   0.532   6.923   7.922  0.2548 -0.8295 -1.4869
  185MOL0     C24894   0.131   7.133   7.797  0.7253 -0.3063 -0.0538
  185MOL0     C24895   0.066   7.069   7.904 -0.7684 -0.1926 -0.0420
  185MOL0     C24896  -0.068   7.058   7.914  0.4872 -0.0980 -0.0485
  185MOL0     C24897  -0.149   7.110   7.815 -0.2086 -0.1692 -0.3854
  185MOL0     O24898  -0.286   7.096   7.823 -0.2148 -0.1932 -0.4014
  185MOL0     C24899  -0.371   7.084   7.707 -0.1027 -0.1295 -0.9914
  185MOL0     C24900  -0.441   7.215   7.673 -0.3742  0.0015 -0.9005
  185MOL0     C24901  -0.550   7.215   7.576 -1.0678  0.7245  0.3585
  185MOL0     C24902  -0.616   7.356   7.563  0.9024  0.0557  0.2217
  185MOL0     C24903  -0.536   7.472   7.534  0.3712  0.9340 -0.3363
  185MOL0     C24904  -0.458   7.564   7.510  0.5543  0.6486  0.0249
  185MOL0     C24905  -0.084   7.184   7.719  0.3092 -0.6356  0.6336
  185MOL0     C24906   0.049   7.208   7.705 -0.6479  0.3516  1.3868
  185MOL0     C24907   0.099   7.299   7.591  0.0572 -0.3892 -0.9265
  185MOL0     H24908   0.512   7.249   7.923  2.8014  0.0287 -1.8903
  185MOL0     H24909   0.767   7.231   7.931  4.4601 -1.7088 -3.3036
  185MOL0     H24910   0.937   6.813   7.988  0.2719 -1.9489 -1.3235
  185MOL0     H24911   0.933   6.834   7.816 -3.2433  1.8239 -0.3664
  185MOL0     H24912   1.172   6.958   7.972 -1.0992  1.5572 -1.0194
  185MOL0     H24913   1.150   6.933   7.801 -1.1646 -1.4969 -0.4312
  185MOL0     H24914   1.304   6.774   7.891 -0.2834 -0.0831  1.5577
  185MOL0     H24915   1.163   6.704   7.814 -0.1457 -2.5448  1.6941
  185MOL0     H24916   1.253   6.681   8.105  1.4453 -0.6939  0.4638
  185MOL0     H24917   1.092   6.642   8.077 -0.4310  1.5737  0.9615
  185MOL0     H24918   1.207   6.443   8.033  1.4124  1.2240  2.3410
  185MOL0     H24919   1.173   6.496   7.871  0.3610 -2.3727  0.6547
  185MOL0     H24920   1.421   6.592   7.865 -0.4380  1.0813  1.7165
  185MOL0     H24921   1.437   6.557   8.023 -1.5425 -0.2343  1.1182
  185MOL0     H24922   1.417   6.374   7.780 -2.7465  3.2638  0.6725
  185MOL0     H24923   1.397   6.290   7.932 -1.4088 -0.6296 -2.5165
  185MOL0     H24924   1.635   6.302   7.844  0.0911  0.4103  0.4317
  185MOL0     H24925   1.625   6.473   7.874 -1.6135  0.5091  2.1426
  185MOL0     H24926   1.758   6.557   8.064  1.1202 -1.4982  0.3355
  185MOL0     H24927   1.764   6.598   8.369 -2.5815 -0.3392 -3.6004
  185MOL0     H24928   1.853   6.457   8.421 -1.9098  1.3464 -0.0118
  185MOL0     H24929   2.008   6.499   8.221 -0.5807  0.3371 -0.2582
  185MOL0     H24930   1.915   6.653   8.199 -1.0152  0.3433  0.7692
  185MOL0     H24931   2.104   6.581   8.422  0.3910  0.8730  0.8267
  185MOL0     H24932   1.990   6.709   8.425  2.1603  0.3321  1.2174
  185MOL0     H24933   2.186   6.806   8.341 -0.2645 -0.2438 -0.2574
  185MOL0     H24934   2.068   6.800   8.203  0.8321 -1.4066 -2.6088
  185MOL0     H24935   2.388   6.625   8.373 -0.7829 -1.8834 -1.3480
  185MOL0     H24936   2.632   6.666   8.367  2.1076 -1.0598 -1.2852
  185MOL0     H24937   2.972   6.918   7.848 -0.5474  2.4355 -0.0103
  185MOL0     H24938   3.201   6.982   7.845 -0.2411  2.4986 -1.4783
  185MOL0     H24939   3.428   6.928   8.008  0.5928  0.0785 -1.7668
  185MOL0     H24940   3.425   7.040   7.866 -1.1439  2.0937 -0.4223
  185MOL0     H24941   3.574   7.196   7.987  0.0450  1.5217  3.5977
  185MOL0     H24942   3.588   7.082   8.121  0.7946  0.8112 -0.9535
  185MOL0     H24943   3.699   6.929   7.989  1.4196  1.3672  1.6694
  185MOL0     H24944   3.648   7.004   7.840 -0.5647  0.8214  0.0568
  185MOL0     H24945   3.812   7.150   8.063 -0.3883 -0.7937  1.9433
  185MOL0     H24946   3.797   7.193   7.897  3.2404  0.6021  1.6272
  185MOL0     H24947   3.911   6.950   7.838  0.1450 -3.5568  2.7004
  185MOL0     H24948   3.928   6.933   8.005  1.2715 -1.3907 -1.7640
  185MOL0     H24949   4.123   6.990   7.873  0.6188 -1.5428  2.1796
  185MOL0     H24950   4.059   7.155   7.848 -2.6736 -1.6290 -1.9012
  185MOL0     H24951   4.086   7.022   8.133 -2.5948  0.0971  0.0921
  185MOL0     H24952   4.082   7.194   8.089 -3.8505 -1.5212  1.5072
  185MOL0     H24953   4.310   6.997   8.006 -0.7708  1.1380 -3.3373
  185MOL0     H24954   4.315   7.173   7.976  1.0893  0.4425 -0.2223
  185MOL0     H24955   3.176   7.120   8.238  1.7820  2.1811 -0.5372
  185MOL0     H24956   2.962   6.998   8.273  0.7232 -0.9575  0.8730
  185MOL0     H24957   2.576   6.841   7.981  0.0303 -1.3395 -1.0445
  185MOL0     H24958   2.354   6.806   7.991  2.8222 -0.8378 -1.5202
  185MOL0     H24959   0.723   6.802   7.940  3.4538  1.3452  0.6335
  185MOL0     H24960   0.462   6.840   7.918 -1.8878  0.7037  0.8436
  185MOL0     H24961   0.123   7.031   7.988  0.7690  3.3538  0.7248
  185MOL0     H24962  -0.128   7.009   7.990 -2.8524 -0.2514 -2.5408
  185MOL0     H24963  -0.454   7.013   7.713 -1.1955  1.2572  2.4967
  185MOL0     H24964  -0.320   7.059   7.613 -0.5772  0.9817 -1.5727
  185MOL0     H24965  -0.358   7.267   7.623  0.4505 -1.2922 -0.9288
  185MOL0     H24966  -0.468   7.270   7.764  0.9192 -2.2991  0.9868
  185MOL0     H24967  -0.629   7.142   7.599  0.6294 -1.5520 -0.5931
  185MOL0     H24968  -0.515   7.195   7.475  1.6293  1.9792  0.9752
  185MOL0     H24969  -0.672   7.349   7.470 -0.2639  2.1972  0.6992
  185MOL0     H24970  -0.693   7.392   7.632 -0.7272 -1.6508 -0.6296
  185MOL0     H24971  -0.392   7.647   7.493  0.9361 -0.1244 -2.7957
  185MOL0     H24972  -0.141   7.238   7.644  2.0775 -3.7783 -3.3785
  185MOL0     H24973   0.167   7.371   7.638  0.9737 -1.4793 -0.5175
  185MOL0     H24974   0.148   7.246   7.509 -1.6591 -0.0846 -2.1801
  185MOL0     H24975   0.014   7.348   7.543 -1.0759  0.5012  1.8002
  186MOL0     O24976   7.387   0.885   6.985 -0.7651 -0.2862 -0.2324
  186MOL0     C24977   7.389   0.766   6.957  0.3481  0.0163  0.6143
  186MOL0     O24978   7.470   0.670   7.005  0.3418  0.5892 -0.1055
  186MOL0     C24979   7.564   0.703   7.098 -0.1417  0.2102 -0.1730
  186MOL0     C24980   7.527   0.786   7.220  0.3684 -0.5708  0.2127
  186MOL0     C24981   7.621   0.808   7.319  0.5892  0.3352  0.5426
  186MOL0     C24982   7.738   0.748   7.320 -0.6085 -0.0959 -0.1770
  186MOL0     O24983   7.813   0.769   7.431 -0.1478  0.1995 -0.8256
  186MOL0     C24984   7.958   0.789   7.413 -0.6820 -0.7406  0.5687
  186MOL0     C24985   8.023   0.802   7.547  0.0470 -0.3953  0.9832
  186MOL0     C24986   8.181   0.791   7.543 -0.8039 -0.1450  0.4840
  186MOL0     C24987   8.248   0.793   7.684 -0.5693  0.6186 -0.9324
  186MOL0     C24988   8.398   0.735   7.670  0.8066 -0.1444  0.0034
  186MOL0     C24989   8.469   0.741   7.805 -0.0077 -0.8535  0.1705
  186MOL0     C24990   8.611   0.708   7.797 -0.7405  0.4288 -0.7398
  186MOL0     C24991   8.695   0.806   7.709  0.2728  0.0983 -0.4118
  186MOL0     N24992   8.835   0.770   7.735  0.0920  0.6643  0.8842
  186MOL0     C24993   8.915   0.846   7.811 -0.5805 -0.0564 -0.0636
  186MOL0     C24994   9.031   0.772   7.820 -0.0295  0.6280  0.5242
  186MOL0     C24995   9.149   0.814   7.897 -0.1175  0.4296 -1.0246
  186MOL0     C24996   9.157   0.736   8.027  0.1195 -0.1930  0.1652
  186MOL0     C24997   9.302   0.742   8.063  0.3005  0.7557 -0.9667
  186MOL0     C24998   9.323   0.712   8.218 -0.1680 -0.1022 -0.0689
  186MOL0     O24999   9.281   0.579   8.253 -0.3434  0.2317  1.0472
  186MOL0     C25000   9.369   0.477   8.260  0.5635 -0.3675  0.4256
  186MOL0     C25001   9.312   0.366   8.315 -0.6009  0.8517 -1.8764
  186MOL0     C25002   9.387   0.250   8.331  0.8939  0.0524  0.4974
  186MOL0     C25003   9.521   0.247   8.302 -0.5568 -0.7971  0.3476
  186MOL0     C25004   9.602   0.125   8.344 -0.4416  0.7626 -0.8447
  186MOL0     O25005   9.728   0.124   8.293  0.1633  0.1642  0.5860
  186MOL0     C25006   9.816   0.023   8.332 -0.2559  0.2496 -0.3382
  186MOL0     C25007   9.801  -0.111   8.279 -0.4695  0.7990  1.0336
  186MOL0     C25008   9.893  -0.206   8.316 -0.0782  0.2500  0.2096
  186MOL0     C25009  10.008  -0.172   8.390  0.6339 -0.4742 -0.1914
  186MOL0     O25010  10.088  -0.275   8.427 -0.7694 -0.2516 -0.5875
  186MOL0     C25011  10.205  -0.305   8.347  0.1563 -0.0887  0.5283
  186MOL0     C25012  10.219  -0.455   8.313 -0.0563 -1.2844  0.3021
  186MOL0     C25013  10.245  -0.541   8.439 -0.8854  0.5656 -0.4425
  186MOL0     C25014  10.242  -0.688   8.396  0.9031 -0.0743 -0.8111
  186MOL0     C25015  10.263  -0.784   8.517  0.3651  0.0466 -0.4818
  186MOL0     C25016  10.227  -0.930   8.476 -0.6354  0.3936  0.9297
  186MOL0     C25017  10.089  -0.961   8.507 -0.1689 -0.7993  0.0797
  186MOL0     C25018  10.041  -1.099   8.450  0.0576 -0.6412 -0.1530
  186MOL0    Cl25019  10.140  -1.242   8.515 -0.2749 -0.1611  0.0854
  186MOL0     C25020  10.016  -0.043   8.443 -0.8011  0.3675 -1.3469
  186MOL0     C25021   9.914   0.052   8.432  0.6469 -0.9006 -0.1620
  186MOL0     O25022   9.547   0.037   8.402 -0.2542 -0.2059 -0.4795
  186MOL0     C25023   9.577   0.367   8.243 -0.2274  0.9384 -1.0556
  186MOL0     C25024   9.501   0.472   8.218  0.4846  0.5076  0.1543
  186MOL0     N25025   9.015   0.653   7.745  0.2385  0.0004  1.0108
  186MOL0     N25026   8.898   0.656   7.684 -0.0670 -0.1308  0.4383
  186MOL0     C25027   7.779   0.674   7.205 -0.1730  0.9379  0.6744
  186MOL0     C25028   7.691   0.648   7.099  0.4715  0.3633 -0.6298
  186MOL0     C25029   7.294   0.703   6.857  0.3615  0.2803  0.3435
  186MOL0     C25030   7.298   0.559   6.833  0.1652  0.7584  1.4005
  186MOL0     C25031   7.227   0.503   6.723  1.2777  0.6547  0.0013
  186MOL0     C25032   7.128   0.581   6.643 -0.0450  0.3951  0.5543
  186MOL0     O25033   7.060   0.508   6.546  0.1003 -0.1675  0.0054
  186MOL0     C25034   7.028   0.571   6.425  0.1356 -0.7039 -0.0060
  186MOL0     C25035   7.132   0.531   6.314  0.8126 -0.0084 -0.0030
  186MOL0     C25036   7.270   0.547   6.362 -0.4014 -0.0586 -0.0468
  186MOL0     C25037   7.384   0.530   6.254 -0.0431 -0.0741 -0.2545
  186MOL0     C25038   7.372   0.629   6.149 -0.2884  0.1144 -0.5381
  186MOL0     C25039   7.367   0.711   6.055  1.0182  1.0230  0.4110
  186MOL0     C25040   7.104   0.711   6.691 -0.9394  0.0540  0.3725
  186MOL0     C25041   7.190   0.781   6.787  0.4787  0.2508 -0.0418
  186MOL0     C25042   7.139   0.919   6.816 -0.0991 -1.0040 -0.3699
  186MOL0     H25043   7.433   0.839   7.232  2.0120  3.4987 -2.6204
  186MOL0     H25044   7.576   0.884   7.382 -1.4567  2.8485 -3.4680
  186MOL0     H25045   7.995   0.702   7.357 -2.1275 -0.9100 -0.1551
  186MOL0     H25046   7.976   0.879   7.353 -2.7423 -0.6189  0.0530
  186MOL0     H25047   7.978   0.723   7.608  0.6357  0.2500  2.2873
  186MOL0     H25048   7.992   0.898   7.587 -0.6601  1.2418 -3.0320
  186MOL0     H25049   8.227   0.864   7.477  1.2382 -0.6865  1.2429
  186MOL0     H25050   8.204   0.697   7.492 -0.5863  1.3811 -2.4160
  186MOL0     H25051   8.246   0.890   7.735 -0.4829  0.0793  0.1337
  186MOL0     H25052   8.198   0.726   7.755 -0.4259  3.2557  1.8979
  186MOL0     H25053   8.398   0.634   7.631 -4.6466 -1.1121  1.6626
  186MOL0     H25054   8.455   0.799   7.602  0.2960  1.7884  1.2822
  186MOL0     H25055   8.460   0.845   7.839 -1.8187 -0.6706 -0.7449
  186MOL0     H25056   8.413   0.681   7.877 -0.8164 -0.0023  0.2739
  186MOL0     H25057   8.624   0.607   7.758  0.3381 -0.3179  1.4408
  186MOL0     H25058   8.664   0.709   7.893  0.7093  1.5021 -1.5085
  186MOL0     H25059   8.667   0.801   7.603  0.0352 -0.5857 -0.3189
  186MOL0     H25060   8.669   0.906   7.743  1.3022  0.0554  0.5525
  186MOL0     H25061   8.901   0.939   7.866  0.6366 -0.6199  1.2884
  186MOL0     H25062   9.238   0.806   7.833  1.5328  0.2882  1.1807
  186MOL0     H25063   9.140   0.921   7.921 -0.2621  0.0544  0.7277
  186MOL0     H25064   9.093   0.785   8.100  2.5786 -0.0333  2.3525
  186MOL0     H25065   9.127   0.633   8.008  2.8571 -1.2496  1.1040
  186MOL0     H25066   9.344   0.840   8.037  1.3646  0.4424 -0.4823
  186MOL0     H25067   9.352   0.658   8.013 -2.3816 -1.7102  0.2251
  186MOL0     H25068   9.265   0.786   8.275  1.1795  0.4889  0.5906
  186MOL0     H25069   9.429   0.724   8.242  0.9957 -3.1988 -2.9221
  186MOL0     H25070   9.222   0.379   8.373  0.6136  0.6791  0.1593
  186MOL0     H25071   9.333   0.171   8.382 -0.3331  0.5888  0.0790
  186MOL0     H25072   9.714  -0.139   8.221  1.0867  1.2483 -1.6972
  186MOL0     H25073   9.878  -0.308   8.280 -3.1799  1.2706 -1.7373
  186MOL0     H25074  10.219  -0.242   8.259  1.6770  1.1994  1.6427
  186MOL0     H25075  10.301  -0.293   8.398 -0.4772  0.9334  1.5109
  186MOL0     H25076  10.138  -0.492   8.249 -0.3508  2.0870 -1.5010
  186MOL0     H25077  10.302  -0.463   8.242 -1.2062  0.3961 -1.3245
  186MOL0     H25078  10.346  -0.519   8.473 -0.6848  1.0781 -1.3434
  186MOL0     H25079  10.180  -0.534   8.527 -0.2355 -1.5744  0.2715
  186MOL0     H25080  10.310  -0.699   8.311  3.2361  3.3512  0.3887
  186MOL0     H25081  10.140  -0.705   8.360  0.0689  0.1560  1.3294
  186MOL0     H25082  10.209  -0.758   8.608  2.8680 -1.7907  1.7004
  186MOL0     H25083  10.369  -0.781   8.544  0.5515 -0.6720 -1.0763
  186MOL0     H25084  10.253  -0.946   8.371 -0.8752 -2.5379  1.2290
  186MOL0     H25085  10.294  -0.992   8.537 -1.1299 -0.4109  0.6711
  186MOL0     H25086  10.027  -0.884   8.460  1.1850 -0.2901 -0.9108
  186MOL0     H25087  10.087  -0.961   8.617  2.8342  3.5636  0.3521
  186MOL0     H25088   9.936  -1.109   8.477 -0.3830  2.7959 -0.2218
  186MOL0     H25089  10.045  -1.094   8.340 -1.1055  1.8813 -0.1465
  186MOL0     H25090  10.096  -0.031   8.516 -1.6623  1.4814 -0.5460
  186MOL0     H25091   9.914   0.145   8.487  0.0648 -1.5301  0.9530
  186MOL0     H25092   9.675   0.348   8.199 -0.8229 -1.1644 -1.5597
  186MOL0     H25093   9.546   0.558   8.171  2.3903  0.0230  1.0060
  186MOL0     H25094   7.875   0.626   7.188 -1.9152 -2.6605  0.0552
  186MOL0     H25095   7.721   0.589   7.013  1.4815 -0.1690  0.0702
  186MOL0     H25096   7.373   0.491   6.872  0.7613 -0.0792 -0.9884
  186MOL0     H25097   7.228   0.394   6.717 -2.2062  0.5364 -0.7060
  186MOL0     H25098   7.009   0.678   6.435 -0.5992 -0.8780  0.5583
  186MOL0     H25099   6.928   0.530   6.404 -1.1948  1.2299  2.0709
  186MOL0     H25100   7.115   0.586   6.221  1.6955  1.0930  0.4645
  186MOL0     H25101   7.112   0.425   6.294  3.0305 -0.2223 -1.4401
  186MOL0     H25102   7.291   0.479   6.445 -1.2810  1.2725  1.2902
  186MOL0     H25103   7.271   0.648   6.402 -1.2339  1.1231 -2.8093
  186MOL0     H25104   7.485   0.528   6.296 -0.5021 -0.4704  0.8639
  186MOL0     H25105   7.369   0.433   6.204  0.0400 -0.3637  0.2729
  186MOL0     H25106   7.369   0.788   5.981  0.7847 -0.2274 -0.9595
  186MOL0     H25107   7.024   0.774   6.656  1.6142  1.8539 -2.8165
  186MOL0     H25108   7.031   0.929   6.809 -0.0875 -0.9005 -0.4067
  186MOL0     H25109   7.172   0.964   6.910 -2.5193  2.4416 -0.9882
  186MOL0     H25110   7.190   0.983   6.743 -0.9205  0.3279  0.1904
  187MOL0     O25111   3.159   4.134   9.725  0.8839 -0.1535  0.3803
  187MOL0     C25112   3.140   4.019   9.689  0.0496 -0.7797 -0.5456
  187MOL0     O25113   3.235   3.933   9.623 -0.3416  0.0300 -0.1751
  187MOL0     C25114   3.360   3.985   9.596 -0.3929 -0.0777 -0.2035
  187MOL0     C25115   3.423   3.926   9.486  0.6935  0.0225 -0.7870
  187MOL0     C25116   3.558   3.958   9.458 -0.3529 -0.6653  0.4662
  187MOL0     C25117   3.633   4.048   9.538  0.5989  1.4897 -0.2235
  187MOL0     O25118   3.769   4.063   9.513 -0.4007 -0.8768 -0.5870
  187MOL0     C25119   3.854   4.120   9.615 -0.5969 -0.7933  0.4534
  187MOL0     C25120   4.003   4.120   9.564  0.6485 -0.1223  0.2616
  187MOL0     C25121   4.045   3.973   9.552  0.5937 -0.4770  0.3390
  187MOL0     C25122   4.189   3.947   9.571 -0.5493 -0.5110 -0.3112
  187MOL0     C25123   4.222   3.801   9.531 -0.2816  0.5260 -1.2051
  187MOL0     C25124   4.375   3.766   9.550  0.3724 -0.2159  0.2174
  187MOL0     C25125   4.402   3.619   9.594  0.1115  1.1197  0.0359
  187MOL0     C25126   4.348   3.599   9.739 -0.3976  0.1807  0.4878
  187MOL0     N25127   4.427   3.498   9.799 -0.2158  0.8803 -0.3198
  187MOL0     C25128   4.357   3.394   9.865  0.0656 -0.1438  0.6547
  187MOL0     C25129   4.438   3.339   9.953 -0.1480 -0.4218  0.0779
  187MOL0     C25130   4.424   3.231  10.049  0.0341 -0.4756  0.9425
  187MOL0     C25131   4.374   3.273  10.181  0.0765 -0.3304  0.2516
  187MOL0     C25132   4.479   3.281  10.294  0.2479  0.0416  0.2866
  187MOL0     C25133   4.586   3.382  10.266  0.3279  0.3366  0.0753
  187MOL0     O25134   4.654   3.401  10.393 -0.5414 -0.2753 -0.5139
  187MOL0     C25135   4.772   3.452  10.418 -0.2173  0.0640  1.1266
  187MOL0     C25136   4.852   3.516  10.324 -0.2838 -0.3717  0.2090
  187MOL0     C25137   4.981   3.551  10.353 -0.1875  0.2952 -0.1650
  187MOL0     C25138   5.043   3.523  10.476 -0.3888 -0.0077 -1.1905
  187MOL0     C25139   5.176   3.580  10.513  0.8276  1.3755  0.9594
  187MOL0     O25140   5.230   3.639  10.410  0.2536  0.3112  0.7648
  187MOL0     C25141   5.330   3.719  10.430  0.7433  0.8105 -0.5192
  187MOL0     C25142   5.311   3.853  10.470  0.5190 -0.8226  0.4954
  187MOL0     C25143   5.426   3.943  10.478 -0.2030 -1.1932 -0.6335
  187MOL0     C25144   5.556   3.891  10.471 -0.0529  0.3909  0.3667
  187MOL0     O25145   5.662   3.977  10.497  0.4386 -0.6104 -0.0813
  187MOL0     C25146   5.665   4.032  10.631 -0.5512  0.5000  0.3601
  187MOL0     C25147   5.821   4.020  10.672  0.8036 -0.2441 -0.2505
  187MOL0     C25148   5.900   4.143  10.616 -0.1024  0.5690 -0.9543
  187MOL0     C25149   6.042   4.137  10.661  0.1363 -0.9916 -1.0000
  187MOL0     C25150   6.115   4.274  10.630  0.4899  0.3956  0.4427
  187MOL0     C25151   6.080   4.378  10.742 -0.3839 -0.0066 -0.0741
  187MOL0     C25152   6.179   4.498  10.744  0.0541  0.4406  0.0183
  187MOL0     C25153   6.170   4.573  10.880  0.0249 -0.6212 -0.4967
  187MOL0    Cl25154   6.002   4.647  10.898  0.5323 -0.2594 -0.1457
  187MOL0     C25155   5.573   3.757  10.438  0.2447 -0.1064  0.0989
  187MOL0     C25156   5.460   3.672  10.429  1.1064  0.5278  0.1350
  187MOL0     O25157   5.216   3.581  10.630 -0.2832 -0.0689  0.7411
  187MOL0     C25158   4.964   3.453  10.571  0.0930  0.3408  0.6926
  187MOL0     C25159   4.833   3.415  10.540  0.3265  0.4083  0.5119
  187MOL0     N25160   4.549   3.431   9.961 -0.4509 -0.3504 -0.0508
  187MOL0     N25161   4.539   3.519   9.864 -0.6623 -0.2758 -0.2894
  187MOL0     C25162   3.567   4.107   9.647 -0.5431 -0.3905 -0.1196
  187MOL0     C25163   3.435   4.072   9.674 -0.3167 -0.0060  0.8212
  187MOL0     C25164   3.018   3.942   9.733  0.4931 -0.7310  0.0883
  187MOL0     C25165   2.996   3.809   9.684 -0.6348 -0.1280  0.5007
  187MOL0     C25166   2.868   3.743   9.691 -0.3470  0.2770 -0.0266
  187MOL0     C25167   2.761   3.795   9.761 -0.6206 -0.0913  0.0556
  187MOL0     O25168   2.640   3.733   9.782  0.1158 -0.1158  0.9825
  187MOL0     C25169   2.604   3.617   9.708  0.6414 -1.0339 -0.5936
  187MOL0     C25170   2.469   3.552   9.743 -0.3757 -0.2663 -0.3307
  187MOL0     C25171   2.467   3.494   9.892 -0.1198 -0.1421 -0.7527
  187MOL0     C25172   2.346   3.409   9.920  0.3263 -0.9671 -0.4414
  187MOL0     C25173   2.239   3.496   9.973 -0.1843 -0.5974  0.0214
  187MOL0     C25174   2.161   3.566  10.032  0.3822 -0.2544  0.0700
  187MOL0     C25175   2.789   3.922   9.820 -0.7441  1.2431  0.9333
  187MOL0     C25176   2.909   3.994   9.807  0.5126 -0.2409  0.1092
  187MOL0     C25177   2.917   4.131   9.877 -0.5488 -0.0581 -0.1506
  187MOL0     H25178   3.366   3.853   9.430 -0.8257 -0.0789  0.8068
  187MOL0     H25179   3.602   3.909   9.372 -0.5186 -0.0924  0.0517
  187MOL0     H25180   3.805   4.217   9.625  0.7788  0.0538 -0.6818
  187MOL0     H25181   3.839   4.064   9.708  0.9934 -0.6940  0.7999
  187MOL0     H25182   4.073   4.165   9.635  0.8955  1.6133 -1.0053
  187MOL0     H25183   4.014   4.176   9.471 -2.0340 -0.5934 -0.4190
  187MOL0     H25184   4.022   3.943   9.449 -0.4133 -0.5246  0.5756
  187MOL0     H25185   3.993   3.911   9.624 -0.8043 -0.2813 -0.4561
  187MOL0     H25186   4.248   4.017   9.511  0.2473 -1.7102 -0.9678
  187MOL0     H25187   4.219   3.970   9.674 -2.3637  1.1545 -0.0972
  187MOL0     H25188   4.159   3.747   9.603  0.1953  1.4427 -0.0598
  187MOL0     H25189   4.183   3.778   9.431 -0.6131 -0.2384 -0.9058
  187MOL0     H25190   4.429   3.786   9.457 -2.1819 -2.8840 -2.0488
  187MOL0     H25191   4.410   3.839   9.624 -1.9497  0.6549  0.5503
  187MOL0     H25192   4.509   3.599   9.604 -0.4123 -2.5866 -0.3798
  187MOL0     H25193   4.352   3.543   9.534 -1.7215  1.4157  1.1179
  187MOL0     H25194   4.356   3.692   9.796 -0.9121  1.1709 -0.9729
  187MOL0     H25195   4.241   3.577   9.736 -0.8276  2.0137  1.0834
  187MOL0     H25196   4.263   3.349   9.834  0.7271  0.6333 -2.9297
  187MOL0     H25197   4.346   3.170  10.004  1.7257 -0.6343 -2.0229
  187MOL0     H25198   4.517   3.173  10.044  1.8502  2.2856  0.3608
  187MOL0     H25199   4.319   3.367  10.171 -1.9164 -1.4743 -0.0468
  187MOL0     H25200   4.294   3.200  10.199 -2.9487  2.6650 -0.2152
  187MOL0     H25201   4.528   3.184  10.304 -1.2646 -0.7886  0.0301
  187MOL0     H25202   4.434   3.296  10.392  1.0759 -0.4992  0.7602
  187MOL0     H25203   4.529   3.471  10.236  0.8051  0.5784 -0.1288
  187MOL0     H25204   4.649   3.342  10.186 -0.7520 -0.4650 -0.3990
  187MOL0     H25205   4.811   3.524  10.224  0.0075 -0.7152  0.0602
  187MOL0     H25206   5.028   3.600  10.268  0.1226 -2.5506 -1.7680
  187MOL0     H25207   5.213   3.900  10.471  0.7579 -0.1031 -2.0830
  187MOL0     H25208   5.417   4.049  10.500  0.6061 -1.2603  0.0435
  187MOL0     H25209   5.641   4.138  10.624 -1.0771  0.4528  1.3392
  187MOL0     H25210   5.602   3.983  10.706 -1.6023  1.6294  0.2329
  187MOL0     H25211   5.828   4.015  10.781 -1.5496 -1.1131 -0.0719
  187MOL0     H25212   5.861   3.922  10.646 -0.9491 -0.8164 -0.9167
  187MOL0     H25213   5.907   4.147  10.507 -0.8780 -1.1934 -1.1004
  187MOL0     H25214   5.841   4.232  10.639 -4.2424 -2.4170  1.3089
  187MOL0     H25215   6.085   4.050  10.609 -2.4966 -2.1559 -1.3962
  187MOL0     H25216   6.049   4.123  10.769 -0.6556  2.1014 -0.4674
  187MOL0     H25217   6.088   4.308  10.530  2.4137  1.1137  0.1472
  187MOL0     H25218   6.218   4.244  10.612  0.8346  1.0460  1.2857
  187MOL0     H25219   5.979   4.420  10.734 -0.0906  0.4704 -1.5216
  187MOL0     H25220   6.079   4.330  10.840  3.2469 -1.5128 -0.6222
  187MOL0     H25221   6.138   4.556  10.660  1.2427 -2.4203 -2.7381
  187MOL0     H25222   6.283   4.466  10.729 -0.7068 -1.5397 -1.3929
  187MOL0     H25223   6.189   4.503  10.962 -0.5390 -0.6717 -0.4068
  187MOL0     H25224   6.243   4.654  10.879  0.0096 -0.6098 -1.2675
  187MOL0     H25225   5.677   3.723  10.441  0.0137 -0.7862  0.6141
  187MOL0     H25226   5.466   3.570  10.392 -0.4365  0.0767  0.9865
  187MOL0     H25227   5.017   3.430  10.663  1.7711  2.1698  0.2698
  187MOL0     H25228   4.767   3.346  10.592  2.4637 -2.6934 -0.6672
  187MOL0     H25229   3.618   4.177   9.713 -1.1894 -0.2932  0.2892
  187MOL0     H25230   3.395   4.132   9.755 -0.3930  0.8087  0.1949
  187MOL0     H25231   3.074   3.769   9.620 -1.5202 -0.2693 -0.5080
  187MOL0     H25232   2.863   3.641   9.653 -1.3543 -0.1583  1.2360
  187MOL0     H25233   2.676   3.535   9.715 -0.1429 -1.5951  1.6142
  187MOL0     H25234   2.596   3.650   9.604 -1.3012 -0.8974 -0.4287
  187MOL0     H25235   2.450   3.472   9.670 -2.8782 -0.2904  0.2327
  187MOL0     H25236   2.394   3.630   9.728 -1.2800 -0.8749  0.8583
  187MOL0     H25237   2.466   3.575   9.965 -2.5240  0.0234 -0.8729
  187MOL0     H25238   2.561   3.445   9.917 -0.6393 -0.0289  1.6741
  187MOL0     H25239   2.334   3.359   9.823  1.9189  1.8978 -2.2634
  187MOL0     H25240   2.364   3.339  10.002 -2.0653 -0.5410  0.5327
  187MOL0     H25241   2.080   3.626  10.066 -0.5814 -1.4183 -0.1164
  187MOL0     H25242   2.709   3.949   9.888 -2.0930 -3.1984  1.4039
  187MOL0     H25243   2.981   4.120   9.965  1.3506  0.6500 -1.3930
  187MOL0     H25244   2.955   4.207   9.809  1.8827 -0.8637  0.2035
  187MOL0     H25245   2.818   4.166   9.906 -0.7374 -0.3086 -0.4942
  188MOL0     O25246  10.343   7.182   0.420 -0.0348 -0.6520 -0.1149
  188MOL0     C25247  10.347   7.287   0.486  0.3042 -0.0433 -0.2573
  188MOL0     O25248  10.232   7.361   0.511  0.2996  0.0922 -0.2476
  188MOL0     C25249  10.130   7.357   0.412 -0.7982 -0.2171 -1.0644
  188MOL0     C25250  10.163   7.343   0.277 -0.5429  0.0861 -0.4589
  188MOL0     C25251  10.058   7.356   0.180  0.0933 -0.6868  0.2190
  188MOL0     C25252   9.929   7.396   0.215 -0.3639 -0.3166  0.0210
  188MOL0     O25253   9.832   7.400   0.116 -0.6979  0.9158  0.8316
  188MOL0     C25254   9.779   7.270   0.092  0.1762 -0.4539 -0.8411
  188MOL0     C25255   9.699   7.263  -0.040 -0.1247 -0.6893 -0.5125
  188MOL0     C25256   9.749   7.355  -0.151  0.3815 -0.0024  0.2621
  188MOL0     C25257   9.883   7.313  -0.212 -0.3600  1.4088 -0.0489
  188MOL0     C25258   9.933   7.420  -0.303 -0.1284 -0.1042  0.1196
  188MOL0     C25259  10.058   7.381  -0.381  0.6104  1.3348  0.8579
  188MOL0     C25260  10.098   7.498  -0.473  0.5643  0.4466 -0.3166
  188MOL0     C25261  10.212   7.469  -0.566 -0.4522  0.4053 -0.2105
  188MOL0     N25262  10.338   7.441  -0.491 -0.3103 -0.8929 -0.5277
  188MOL0     C25263  10.374   7.322  -0.433  0.2314  0.2185 -0.2188
  188MOL0     C25264  10.482   7.351  -0.360  0.3983  0.3187 -0.5370
  188MOL0     C25265  10.556   7.269  -0.261 -1.0583 -0.9005 -0.9718
  188MOL0     C25266  10.677   7.196  -0.326  0.2302 -0.0287  0.3948
  188MOL0     C25267  10.759   7.282  -0.416 -0.0221 -0.0241  1.0180
  188MOL0     C25268  10.872   7.208  -0.477  0.6575 -0.2146  0.7714
  188MOL0     O25269  10.980   7.188  -0.382  0.1912 -0.0775  1.0428
  188MOL0     C25270  11.082   7.106  -0.416  0.2567  0.1475 -0.0628
  188MOL0     C25271  11.095   7.045  -0.541  0.6001  0.2459  0.5777
  188MOL0     C25272  11.214   6.973  -0.571 -0.2629  0.6964  0.0846
  188MOL0     C25273  11.315   6.962  -0.477  0.4244 -0.6810 -0.1042
  188MOL0     C25274  11.447   6.912  -0.511 -0.4803 -0.6246  0.1027
  188MOL0     O25275  11.544   6.909  -0.409 -0.3730  0.3042 -0.2678
  188MOL0     C25276  11.674   6.874  -0.423  0.9685  0.8128 -0.7650
  188MOL0     C25277  11.749   6.893  -0.539  0.2448  0.6178  0.4733
  188MOL0     C25278  11.884   6.856  -0.552  0.2468 -0.7319 -0.5386
  188MOL0     C25279  11.947   6.817  -0.436  0.2094 -0.5633 -0.0412
  188MOL0     O25280  12.078   6.792  -0.438 -0.0206  0.2646  0.1538
  188MOL0     C25281  12.122   6.660  -0.422 -0.5693  0.5635 -0.1221
  188MOL0     C25282  12.045   6.573  -0.523 -0.7872  0.4123  0.5540
  188MOL0     C25283  11.937   6.479  -0.456  0.5520  0.0860  0.2203
  188MOL0     C25284  11.858   6.401  -0.570 -1.3554 -0.5684 -0.3143
  188MOL0     C25285  11.744   6.328  -0.506  0.5168 -0.2899 -0.5744
  188MOL0     C25286  11.616   6.411  -0.483 -0.3516 -0.9225 -0.4811
  188MOL0     C25287  11.565   6.383  -0.341  0.2426 -0.7546 -0.0648
  188MOL0     C25288  11.452   6.486  -0.301  0.2786  0.3104  0.8822
  188MOL0    Cl25289  11.292   6.409  -0.345 -0.6687 -0.0977 -0.3483
  188MOL0     C25290  11.877   6.792  -0.316  0.8892  0.4645  0.5713
  188MOL0     C25291  11.738   6.822  -0.312 -0.3054  0.6652  0.2734
  188MOL0     O25292  11.464   6.873  -0.628  0.8265  0.1876  0.2378
  188MOL0     C25293  11.294   7.032  -0.351 -0.5929  0.8087 -0.9393
  188MOL0     C25294  11.177   7.095  -0.316  0.3600  0.1748 -0.0524
  188MOL0     N25295  10.525   7.476  -0.387 -0.8786 -0.4998 -0.0587
  188MOL0     N25296  10.441   7.527  -0.473 -0.6648  0.3005  0.5142
  188MOL0     C25297   9.896   7.408   0.356 -1.1022 -0.9161  0.2200
  188MOL0     C25298   9.996   7.393   0.453 -0.1491 -0.5570 -0.2849
  188MOL0     C25299  10.466   7.328   0.568  0.0934  0.4094  0.9073
  188MOL0     C25300  10.466   7.458   0.627  0.5157  0.1456 -0.1170
  188MOL0     C25301  10.574   7.496   0.709  0.8664 -0.8076  0.6607
  188MOL0     C25302  10.689   7.413   0.717  0.0390 -0.6202  0.0210
  188MOL0     O25303  10.795   7.473   0.792 -0.0798 -0.5940  0.3938
  188MOL0     C25304  10.916   7.387   0.806  0.3144 -0.5143  0.6523
  188MOL0     C25305  11.020   7.482   0.874 -0.4992 -0.4126  0.2597
  188MOL0     C25306  10.966   7.544   1.003  0.0805 -0.6923  0.3255
  188MOL0     C25307  11.074   7.522   1.115  0.7158 -0.4717 -0.2497
  188MOL0     C25308  11.029   7.566   1.244 -0.6490  0.4159 -0.2018
  188MOL0     C25309  10.998   7.614   1.352  0.5227  0.8880 -0.1383
  188MOL0     C25310  10.684   7.289   0.659 -0.5744  0.2556  0.1917
  188MOL0     C25311  10.578   7.236   0.583 -0.1610 -0.7248 -0.0276
  188MOL0     C25312  10.588   7.094   0.525 -0.0159 -0.1209 -0.2219
  188MOL0     H25313  10.267   7.343   0.245 -0.4641 -1.4710 -0.2912
  188MOL0     H25314  10.083   7.332   0.077 -0.1736 -2.4077  0.5291
  188MOL0     H25315   9.859   7.195   0.084 -0.4943 -1.8349  3.1231
  188MOL0     H25316   9.719   7.227   0.173 -0.2137  1.3772 -0.1076
  188MOL0     H25317   9.604   7.309  -0.012 -0.0849 -2.0379  2.1565
  188MOL0     H25318   9.692   7.156  -0.064 -1.2687 -0.6992 -0.1972
  188MOL0     H25319   9.746   7.461  -0.123  0.1089 -0.1772  0.9311
  188MOL0     H25320   9.663   7.359  -0.219 -0.2589  0.8352  1.0943
  188MOL0     H25321   9.962   7.295  -0.139 -0.2975 -0.8443 -0.6058
  188MOL0     H25322   9.868   7.220  -0.268  0.4280  2.3935 -1.9897
  188MOL0     H25323   9.847   7.450  -0.363 -2.4753  0.4141  3.4483
  188MOL0     H25324   9.972   7.503  -0.242  2.4294 -1.0013 -0.1514
  188MOL0     H25325  10.144   7.355  -0.318  2.2955  2.3730 -0.9260
  188MOL0     H25326  10.037   7.289  -0.437 -2.8484  0.3609  3.3949
  188MOL0     H25327  10.129   7.584  -0.414  1.9950  0.4549 -1.0493
  188MOL0     H25328  10.010   7.505  -0.538  1.0402  1.3273 -0.8784
  188MOL0     H25329  10.183   7.386  -0.631  0.5701 -0.2936  0.2210
  188MOL0     H25330  10.237   7.556  -0.628  1.4408 -1.4906 -2.2832
  188MOL0     H25331  10.317   7.229  -0.441 -2.1154  1.1180  3.3335
  188MOL0     H25332  10.593   7.338  -0.185 -0.8052  0.1509 -2.0287
  188MOL0     H25333  10.497   7.186  -0.219  0.8495 -0.9911  1.7487
  188MOL0     H25334  10.734   7.144  -0.248  0.1413 -3.6393 -1.7198
  188MOL0     H25335  10.627   7.114  -0.379 -0.3224  0.0019  0.8549
  188MOL0     H25336  10.798   7.365  -0.357  2.1274 -0.8238  0.8320
  188MOL0     H25337  10.698   7.313  -0.502  1.2602 -0.5153 -0.1099
  188MOL0     H25338  10.901   7.260  -0.569 -2.3371 -0.4259 -0.4051
  188MOL0     H25339  10.834   7.114  -0.520  3.7687 -0.3409 -2.2028
  188MOL0     H25340  11.008   7.045  -0.606  1.6941  0.3434 -0.9342
  188MOL0     H25341  11.236   6.931  -0.669  2.6513 -0.2711  1.0404
  188MOL0     H25342  11.702   6.933  -0.629  3.2533 -0.8888 -1.9383
  188MOL0     H25343  11.951   6.861  -0.637  1.4454 -1.4034  0.3403
  188MOL0     H25344  12.226   6.655  -0.454 -0.5302 -1.2840  0.2172
  188MOL0     H25345  12.120   6.617  -0.322 -3.2684  0.0296 -0.3104
  188MOL0     H25346  11.997   6.632  -0.601 -0.6426 -2.3544 -1.7894
  188MOL0     H25347  12.119   6.508  -0.571  0.2249 -2.3964  5.3016
  188MOL0     H25348  11.984   6.410  -0.387  0.9203  2.6842  2.7481
  188MOL0     H25349  11.867   6.551  -0.413  0.1144  0.2952 -0.7966
  188MOL0     H25350  11.924   6.327  -0.617 -1.7163  1.8555 -5.1993
  188MOL0     H25351  11.815   6.463  -0.648  1.1821 -0.9445 -2.1325
  188MOL0     H25352  11.771   6.284  -0.410  3.6672 -2.4413 -2.2682
  188MOL0     H25353  11.714   6.244  -0.570 -2.9071  1.2139 -1.1748
  188MOL0     H25354  11.642   6.517  -0.486 -2.1641 -0.4284 -0.1358
  188MOL0     H25355  11.545   6.386  -0.563  0.8613 -3.1547 -0.9574
  188MOL0     H25356  11.649   6.410  -0.277  0.8286  0.6017 -1.3501
  188MOL0     H25357  11.541   6.278  -0.325 -0.1959 -0.8401 -1.2267
  188MOL0     H25358  11.447   6.483  -0.192 -1.1988 -0.0782  0.8275
  188MOL0     H25359  11.460   6.584  -0.349  2.2503 -0.3909 -0.3416
  188MOL0     H25360  11.930   6.771  -0.225  2.0555  1.3276  0.1158
  188MOL0     H25361  11.690   6.802  -0.217 -2.1860 -0.0749 -0.7558
  188MOL0     H25362  11.366   7.015  -0.271 -1.3777 -4.1205 -0.9581
  188MOL0     H25363  11.178   7.154  -0.225  2.1279 -0.2173  0.2074
  188MOL0     H25364   9.800   7.436   0.397 -1.8794  1.6087 -2.9728
  188MOL0     H25365   9.974   7.421   0.555  1.4744  1.4915 -0.4213
  188MOL0     H25366  10.380   7.523   0.612 -1.3220 -2.3594 -1.1545
  188MOL0     H25367  10.588   7.593   0.755 -0.5360  1.7551 -3.7008
  188MOL0     H25368  10.942   7.352   0.705 -1.0577 -2.3445  0.8846
  188MOL0     H25369  10.895   7.302   0.871 -0.1973  1.2758  2.9552
  188MOL0     H25370  11.036   7.561   0.801  0.2740 -2.2553 -1.6645
  188MOL0     H25371  11.119   7.439   0.888  0.5037  1.9221  0.7844
  188MOL0     H25372  10.871   7.497   1.031  0.1844 -1.1529 -0.0735
  188MOL0     H25373  10.946   7.650   0.983 -2.5389 -1.1736  0.0526
  188MOL0     H25374  11.098   7.416   1.123 -1.6711 -0.9574  1.8728
  188MOL0     H25375  11.166   7.579   1.098  1.2753  0.0534  3.5575
  188MOL0     H25376  10.967   7.662   1.442  0.4319 -0.3332  0.5121
  188MOL0     H25377  10.765   7.216   0.667 -2.1502 -2.0202 -2.5978
  188MOL0     H25378  10.502   7.030   0.544  1.4391 -2.8660 -2.2708
  188MOL0     H25379  10.612   7.103   0.419  2.1093  0.6031  0.2663
  188MOL0     H25380  10.663   7.035   0.579 -1.6450 -1.5452  0.5833
  189MOL0     O25381   9.041   0.423   0.270  0.4274  0.2526  0.1530
  189MOL0     C25382   9.041   0.485   0.163 -0.5405 -0.9152  0.4537
  189MOL0     O25383   9.152   0.487   0.081 -0.7967  0.1856 -0.4516
  189MOL0     C25384   9.279   0.483   0.137 -0.0367  0.3660 -0.5289
  189MOL0     C25385   9.322   0.582   0.226  0.1206  0.7418 -0.2300
  189MOL0     C25386   9.456   0.571   0.268 -0.1586 -0.4720 -0.5405
  189MOL0     C25387   9.544   0.473   0.227  0.6368 -0.6559  0.6123
  189MOL0     O25388   9.658   0.468   0.299  0.3095  1.1107  0.5029
  189MOL0     C25389   9.745   0.360   0.278 -0.6139 -0.1297  0.5153
  189MOL0     C25390   9.847   0.363   0.384 -0.4280  1.0533 -0.1396
  189MOL0     C25391   9.942   0.236   0.357 -0.1699 -0.7910 -0.3708
  189MOL0     C25392  10.082   0.249   0.417 -0.3028 -0.4987  0.2777
  189MOL0     C25393  10.089   0.226   0.566  0.5813  0.2630  1.1637
  189MOL0     C25394  10.240   0.219   0.629 -0.3399 -1.0675 -0.1155
  189MOL0     C25395  10.244   0.212   0.776 -0.1361  0.4462 -0.0327
  189MOL0     C25396  10.378   0.188   0.856 -0.8643 -0.0363  0.0383
  189MOL0     N25397  10.460   0.091   0.783 -0.3217 -0.4559 -0.0158
  189MOL0     C25398  10.562   0.119   0.690  0.6402 -0.0104  0.0461
  189MOL0     C25399  10.626   0.000   0.670  1.4855 -0.4764  0.7193
  189MOL0     C25400  10.736  -0.026   0.572  0.0901 -0.0870  0.6866
  189MOL0     C25401  10.861   0.067   0.603  0.3626 -0.1931 -0.6267
  189MOL0     C25402  10.868   0.198   0.530 -0.5983 -0.7254 -0.4536
  189MOL0     C25403  11.007   0.261   0.551 -0.0177  0.7176 -0.3837
  189MOL0     O25404  11.018   0.318   0.684  0.2227 -0.2093 -0.4265
  189MOL0     C25405  11.145   0.319   0.735 -0.4197  0.2930 -0.4945
  189MOL0     C25406  11.255   0.385   0.674 -0.8833  0.1638  0.3749
  189MOL0     C25407  11.382   0.374   0.717  0.5103  1.1196 -0.0971
  189MOL0     C25408  11.408   0.292   0.830 -0.6271 -0.9221 -0.3153
  189MOL0     C25409  11.546   0.272   0.874 -0.2716 -0.0898  0.5975
  189MOL0     O25410  11.642   0.321   0.786  0.1800  0.0067 -0.6091
  189MOL0     C25411  11.772   0.310   0.833  0.6179 -0.7683 -0.3737
  189MOL0     C25412  11.833   0.187   0.805  0.2356 -0.7111 -0.3073
  189MOL0     C25413  11.969   0.171   0.835 -0.2748  0.2824  0.2397
  189MOL0     C25414  12.056   0.278   0.878 -0.4825  0.4347  0.1991
  189MOL0     O25415  12.190   0.260   0.882 -0.2579  0.0405 -0.2993
  189MOL0     C25416  12.271   0.357   0.958  0.5882  0.1902 -0.6434
  189MOL0     C25417  12.403   0.297   1.011  0.3749  0.7695 -0.0873
  189MOL0     C25418  12.481   0.408   1.054 -1.0674 -0.3711  0.1876
  189MOL0     C25419  12.624   0.367   1.103  1.0098  0.4774  0.0231
  189MOL0     C25420  12.722   0.469   1.163 -0.6059 -0.5231  0.3158
  189MOL0     C25421  12.671   0.538   1.288 -0.2631 -0.1692  0.6540
  189MOL0     C25422  12.792   0.599   1.356  0.2186 -0.4044  1.0406
  189MOL0     C25423  12.745   0.706   1.444  0.4399 -0.3286  0.0148
  189MOL0    Cl25424  12.634   0.642   1.577 -0.8203  0.6556  0.0105
  189MOL0     C25425  11.990   0.397   0.920  0.5915 -0.0172 -0.0820
  189MOL0     C25426  11.851   0.415   0.889  0.7016 -0.2227  0.2683
  189MOL0     O25427  11.566   0.201   0.974  0.1633 -0.5982 -0.3058
  189MOL0     C25428  11.297   0.237   0.903 -0.3229 -0.2132 -0.0560
  189MOL0     C25429  11.167   0.254   0.862  0.1210  0.4609  0.0833
  189MOL0     N25430  10.548  -0.092   0.746 -0.4303  0.1549  0.3763
  189MOL0     N25431  10.455  -0.037   0.809  0.1385 -0.4300 -0.0320
  189MOL0     C25432   9.496   0.385   0.133  0.2611  0.5583  0.3418
  189MOL0     C25433   9.364   0.383   0.086 -0.0231  0.0252 -0.3708
  189MOL0     C25434   8.916   0.539   0.105  0.0621  0.0144  0.1166
  189MOL0     C25435   8.927   0.616  -0.013  0.8811  0.0447 -0.7772
  189MOL0     C25436   8.816   0.663  -0.072 -0.0034  0.0987 -0.2535
  189MOL0     C25437   8.697   0.657  -0.004  0.1065 -0.8220  0.7313
  189MOL0     O25438   8.599   0.728  -0.077  0.2260  0.2256  0.5562
  189MOL0     C25439   8.457   0.726  -0.041 -0.9643 -0.0076 -0.3178
  189MOL0     C25440   8.385   0.594  -0.080 -0.3369  1.2707  0.2012
  189MOL0     C25441   8.233   0.601  -0.054 -0.2691 -0.6204 -0.6008
  189MOL0     C25442   8.156   0.641  -0.179  0.3777  0.0827 -0.0008
  189MOL0     C25443   8.022   0.608  -0.157  0.5534  0.4556 -0.2168
  189MOL0     C25444   7.907   0.596  -0.121 -0.1515  0.7305  1.0171
  189MOL0     C25445   8.684   0.599   0.118  0.0644 -0.4835 -0.0994
  189MOL0     C25446   8.788   0.532   0.177  0.2467  0.2065 -0.0811
  189MOL0     C25447   8.760   0.461   0.313 -0.1410  0.5021 -0.8171
  189MOL0     H25448   9.254   0.661   0.256  1.1797  1.0266  1.5373
  189MOL0     H25449   9.488   0.647   0.338  0.5659  0.6784 -2.0760
  189MOL0     H25450   9.698   0.261   0.280  1.3846 -1.1772 -1.0256
  189MOL0     H25451   9.791   0.401   0.188  0.0381  3.1879  2.2005
  189MOL0     H25452   9.813   0.350   0.487 -2.0781 -2.0131 -0.9645
  189MOL0     H25453   9.902   0.457   0.376 -1.8119  2.2803  2.9965
  189MOL0     H25454   9.946   0.236   0.247  0.5161 -0.4031 -0.3529
  189MOL0     H25455   9.902   0.139   0.386  0.5734 -1.0089 -0.0647
  189MOL0     H25456  10.144   0.183   0.355  0.7447  2.4727 -2.1377
  189MOL0     H25457  10.122   0.348   0.392  0.9035 -1.5682 -2.4639
  189MOL0     H25458  10.030   0.304   0.614  2.0344  0.3546  2.9067
  189MOL0     H25459  10.041   0.132   0.594 -0.4079  0.6915  0.9192
  189MOL0     H25460  10.293   0.137   0.581  2.0258  0.6272 -0.5496
  189MOL0     H25461  10.295   0.310   0.607 -2.7002  0.6448  0.5942
  189MOL0     H25462  10.179   0.132   0.810  4.4185 -2.3964  3.2716
  189MOL0     H25463  10.193   0.303   0.811 -0.8906 -0.2400  0.6788
  189MOL0     H25464  10.438   0.280   0.856 -3.1734  1.5773  1.5830
  189MOL0     H25465  10.351   0.161   0.958  2.4696 -1.2700  0.7016
  189MOL0     H25466  10.583   0.213   0.640 -0.3355  0.9012  1.2862
  189MOL0     H25467  10.769  -0.130   0.573 -2.9764 -1.1830  0.2757
  189MOL0     H25468  10.700  -0.005   0.471  0.4432  0.4168  0.6611
  189MOL0     H25469  10.861   0.087   0.710  2.6716 -0.1521 -0.5828
  189MOL0     H25470  10.949   0.006   0.579  0.1313 -0.9492  0.3857
  189MOL0     H25471  10.784   0.258   0.569  0.1315 -0.9163  1.5498
  189MOL0     H25472  10.840   0.172   0.428 -2.7873 -3.6551  0.7397
  189MOL0     H25473  11.030   0.342   0.482  5.7746  2.3951  2.7927
  189MOL0     H25474  11.087   0.188   0.535  0.3043  1.0732 -0.4353
  189MOL0     H25475  11.227   0.434   0.582 -2.0217 -3.4320 -1.4140
  189MOL0     H25476  11.458   0.427   0.661  1.5137 -0.4857 -0.3110
  189MOL0     H25477  11.774   0.104   0.768  0.2146 -0.1891 -1.4714
  189MOL0     H25478  12.004   0.069   0.822 -1.7617 -0.3910  1.3099
  189MOL0     H25479  12.293   0.446   0.899  2.7378 -0.5200 -0.9996
  189MOL0     H25480  12.221   0.389   1.050  1.2887 -0.0016 -0.1888
  189MOL0     H25481  12.377   0.232   1.094  2.3591  1.4778  1.1616
  189MOL0     H25482  12.448   0.237   0.931  0.1563 -2.6929  2.2141
  189MOL0     H25483  12.490   0.484   0.976 -0.1407  1.2711  1.8000
  189MOL0     H25484  12.432   0.451   1.142 -0.9653  0.7217 -0.2762
  189MOL0     H25485  12.672   0.327   1.013 -0.7292  2.0621 -1.7024
  189MOL0     H25486  12.611   0.286   1.174 -0.4940 -0.3212 -1.1024
  189MOL0     H25487  12.742   0.542   1.083  1.0134 -0.1675  0.9951
  189MOL0     H25488  12.818   0.418   1.177  0.4803  0.6639 -2.2212
  189MOL0     H25489  12.600   0.618   1.264  2.2744  2.4671  1.2469
  189MOL0     H25490  12.631   0.459   1.352 -0.0627 -1.4477 -0.7468
  189MOL0     H25491  12.863   0.641   1.285 -0.8588 -0.5029 -0.1318
  189MOL0     H25492  12.844   0.531   1.425 -1.1516 -0.8576  1.6682
  189MOL0     H25493  12.824   0.762   1.494 -0.8377  0.8739  0.7740
  189MOL0     H25494  12.692   0.777   1.380 -0.7040 -3.5255 -2.8773
  189MOL0     H25495  12.040   0.490   0.946  2.2260 -0.2571 -2.0761
  189MOL0     H25496  11.816   0.517   0.902 -0.1602 -0.5446  0.5044
  189MOL0     H25497  11.312   0.182   0.996  3.6349  1.4522  0.5021
  189MOL0     H25498  11.093   0.209   0.927  2.6164 -1.9828  1.4183
  189MOL0     H25499   9.562   0.302   0.110  0.6838  0.7577  0.8213
  189MOL0     H25500   9.328   0.308   0.016 -0.5442 -0.5516  0.4837
  189MOL0     H25501   9.021   0.634  -0.064  1.1167 -2.0247 -1.1374
  189MOL0     H25502   8.816   0.712  -0.169 -0.8462 -0.7004 -0.6721
  189MOL0     H25503   8.403   0.783  -0.117 -5.5632 -4.7162 -1.1771
  189MOL0     H25504   8.430   0.734   0.065  1.9439  3.9820  0.3355
  189MOL0     H25505   8.421   0.510  -0.020 -0.8991 -0.9279 -2.3438
  189MOL0     H25506   8.405   0.579  -0.186 -1.6423  1.8254 -0.1533
  189MOL0     H25507   8.204   0.680   0.015 -0.3317 -0.4077 -0.8679
  189MOL0     H25508   8.195   0.507  -0.013 -1.9628 -0.4874 -1.7423
  189MOL0     H25509   8.171   0.745  -0.209  3.1870  0.0099  0.8566
  189MOL0     H25510   8.184   0.574  -0.261  1.2604  1.1375 -0.5895
  189MOL0     H25511   7.803   0.602  -0.096  0.0122  3.2610  1.3214
  189MOL0     H25512   8.585   0.610   0.161 -0.6707 -2.7715 -1.0595
  189MOL0     H25513   8.841   0.485   0.382 -0.0324  1.6617 -1.3256
  189MOL0     H25514   8.669   0.502   0.358 -0.0599  0.7546 -0.8823
  189MOL0     H25515   8.735   0.356   0.295 -0.7516  0.3614  0.7225
  190MOL0     O25516   4.693   4.580   7.167 -0.3202  0.4419 -0.3405
  190MOL0     C25517   4.599   4.615   7.108  1.1603  0.2284  1.1024
  190MOL0     O25518   4.583   4.723   7.021 -0.0896  0.8016 -1.5008
  190MOL0     C25519   4.688   4.794   7.010 -0.0354  0.5317  0.3160
  190MOL0     C25520   4.713   4.908   7.084 -0.0726 -0.5183  0.2730
  190MOL0     C25521   4.830   4.972   7.070 -0.0552  0.1491  0.0319
  190MOL0     C25522   4.930   4.929   6.988 -0.3889 -0.6143  0.1804
  190MOL0     O25523   5.046   5.004   6.994 -0.5179 -0.3871  0.3179
  190MOL0     C25524   5.164   4.932   6.949  0.8640 -0.0943 -0.4827
  190MOL0     C25525   5.278   5.041   6.965  0.4684  0.2189 -0.2895
  190MOL0     C25526   5.396   5.006   6.876  0.0259  0.2023 -0.7957
  190MOL0     C25527   5.361   5.039   6.739 -0.5454 -0.1258  0.7288
  190MOL0     C25528   5.462   4.987   6.636  0.1165 -0.4957 -0.1893
  190MOL0     C25529   5.602   5.053   6.651 -0.3802  0.0498 -0.0755
  190MOL0     C25530   5.707   5.004   6.552  0.1823  0.2252 -0.3318
  190MOL0     C25531   5.743   4.852   6.563 -0.3781 -0.2485 -0.2073
  190MOL0     N25532   5.813   4.819   6.695 -0.2286  0.1348  0.7028
  190MOL0     C25533   5.758   4.766   6.809 -0.7253 -0.1949 -0.0992
  190MOL0     C25534   5.848   4.775   6.911  0.7657  0.3325  0.4082
  190MOL0     C25535   5.817   4.709   7.044  0.1644  0.0606 -0.0434
  190MOL0     C25536   5.707   4.793   7.102  0.5364  0.8564  0.0269
  190MOL0     C25537   5.579   4.700   7.108 -0.3797 -0.2962  0.3837
  190MOL0     C25538   5.473   4.771   7.192  0.9628  0.6467  0.1371
  190MOL0     O25539   5.360   4.682   7.203  0.2492 -0.0621  0.7960
  190MOL0     C25540   5.241   4.754   7.239  0.1474  0.4154 -0.1110
  190MOL0     C25541   5.117   4.682   7.248  0.0205 -0.3781 -0.4829
  190MOL0     C25542   5.002   4.737   7.303  0.1881 -0.5275 -0.1617
  190MOL0     C25543   4.998   4.866   7.365 -0.4583  0.1579  0.2693
  190MOL0     C25544   4.875   4.921   7.419  0.7667 -0.9149 -0.7200
  190MOL0     O25545   4.755   4.861   7.379  0.3015  0.2376 -0.1292
  190MOL0     C25546   4.627   4.903   7.422 -0.4649 -0.3074  0.4993
  190MOL0     C25547   4.522   4.812   7.408 -0.1080 -0.2274 -0.0154
  190MOL0     C25548   4.396   4.832   7.461  0.3189  0.0788 -0.3247
  190MOL0     C25549   4.352   4.945   7.528 -0.3301 -0.0616 -0.4996
  190MOL0     O25550   4.222   4.941   7.566 -0.4687 -0.3254 -0.2247
  190MOL0     C25551   4.197   5.027   7.674  0.8802  0.0061  0.4071
  190MOL0     C25552   4.055   5.016   7.723 -0.0157 -0.2127 -0.1782
  190MOL0     C25553   4.041   4.881   7.796  0.0727 -0.2314  0.1384
  190MOL0     C25554   3.895   4.828   7.795  0.4089  0.4164  0.2704
  190MOL0     C25555   3.879   4.698   7.877  0.3951  0.7109 -0.3487
  190MOL0     C25556   3.719   4.683   7.884  0.6530  0.8213  0.5714
  190MOL0     C25557   3.678   4.537   7.932 -0.8049  0.4170  0.8447
  190MOL0     C25558   3.527   4.529   7.925  0.0322 -1.0044 -0.5000
  190MOL0    Cl25559   3.466   4.550   7.762 -0.2878 -0.2452 -0.4752
  190MOL0     C25560   4.453   5.044   7.535 -0.0170 -0.6593 -0.8797
  190MOL0     C25561   4.588   5.024   7.494 -0.3674  0.2737  0.1345
  190MOL0     O25562   4.881   5.016   7.498  0.5448 -0.0797 -0.8422
  190MOL0     C25563   5.118   4.940   7.351 -0.8937  0.1543 -1.3917
  190MOL0     C25564   5.236   4.886   7.292  0.1064  0.3977 -0.6264
  190MOL0     N25565   5.963   4.827   6.860  0.2231 -0.0426 -0.1360
  190MOL0     N25566   5.941   4.853   6.730 -0.4696 -0.0498 -0.3957
  190MOL0     C25567   4.906   4.819   6.905 -0.3611 -0.4333 -0.4722
  190MOL0     C25568   4.786   4.747   6.912  0.3941 -0.3375  0.3486
  190MOL0     C25569   4.471   4.534   7.121 -0.3448  0.8393 -1.4255
  190MOL0     C25570   4.373   4.546   7.029  1.2105  0.4519 -0.4335
  190MOL0     C25571   4.262   4.466   7.038  0.6272  0.4560 -0.3460
  190MOL0     C25572   4.229   4.373   7.136 -0.0784 -0.4548  0.0281
  190MOL0     O25573   4.110   4.315   7.152 -0.5136  0.3934 -0.8221
  190MOL0     C25574   4.037   4.274   7.032 -0.7148 -0.1054  0.4932
  190MOL0     C25575   3.928   4.171   7.068  0.4619 -0.2807 -0.6325
  190MOL0     C25576   3.827   4.228   7.170  0.4629 -0.2823  0.1684
  190MOL0     C25577   3.738   4.349   7.107  0.5639  0.2232  0.0755
  190MOL0     C25578   3.675   4.314   6.976  0.6192  0.0854 -0.3663
  190MOL0     C25579   3.629   4.273   6.876 -0.4842 -0.0718  1.0812
  190MOL0     C25580   4.325   4.349   7.228 -0.6128  0.0913  0.2620
  190MOL0     C25581   4.443   4.426   7.222 -0.2669  0.2586 -0.1612
  190MOL0     C25582   4.537   4.391   7.333  0.2342  0.1021 -0.8529
  190MOL0     H25583   4.635   4.933   7.156 -0.6751 -1.4462 -0.0325
  190MOL0     H25584   4.839   5.066   7.123 -2.3406 -0.4946  1.7512
  190MOL0     H25585   5.184   4.850   7.018  1.9171 -0.0463 -0.7189
  190MOL0     H25586   5.154   4.888   6.849 -0.4163 -1.2839  0.1315
  190MOL0     H25587   5.300   5.042   7.072 -1.1845  1.0317  0.0675
  190MOL0     H25588   5.243   5.139   6.933 -1.3287  0.2412  1.5861
  190MOL0     H25589   5.427   4.901   6.878  1.7838  0.6959 -0.5632
  190MOL0     H25590   5.483   5.063   6.909 -0.8517  0.5049  1.1199
  190MOL0     H25591   5.272   4.981   6.713 -0.2754 -0.2900  0.1762
  190MOL0     H25592   5.335   5.145   6.736 -2.9507 -0.6491  0.8302
  190MOL0     H25593   5.471   4.878   6.644 -1.0629 -0.5066  1.3283
  190MOL0     H25594   5.430   5.000   6.532 -3.2701 -2.0423  0.5179
  190MOL0     H25595   5.590   5.161   6.641  1.0847  0.2087 -0.2308
  190MOL0     H25596   5.630   5.036   6.756  0.8298  1.8041 -0.0932
  190MOL0     H25597   5.798   5.059   6.579  0.6735 -0.5095 -0.4630
  190MOL0     H25598   5.667   5.023   6.453 -1.2752  1.8690  0.5205
  190MOL0     H25599   5.659   4.784   6.549 -1.3900  1.0329 -0.5652
  190MOL0     H25600   5.813   4.824   6.484 -0.8231 -3.7842  0.4917
  190MOL0     H25601   5.659   4.722   6.816  0.0046 -1.9524 -0.2458
  190MOL0     H25602   5.778   4.610   7.021 -1.1445  0.1512  1.6430
  190MOL0     H25603   5.906   4.711   7.107 -0.1473 -1.5816  0.4781
  190MOL0     H25604   5.737   4.818   7.204  0.0182  0.2940  0.3241
  190MOL0     H25605   5.695   4.887   7.048 -0.9676  0.1456 -0.9556
  190MOL0     H25606   5.595   4.597   7.141 -1.6199 -1.4471 -2.2773
  190MOL0     H25607   5.542   4.687   7.006  1.8482  0.1645 -0.5519
  190MOL0     H25608   5.441   4.860   7.136 -0.2266 -0.2550 -0.6844
  190MOL0     H25609   5.501   4.802   7.292  1.4383  1.1523 -0.1500
  190MOL0     H25610   5.108   4.581   7.211 -1.0258 -1.8236  3.2678
  190MOL0     H25611   4.908   4.683   7.301 -1.4978  2.0196  2.5391
  190MOL0     H25612   4.546   4.715   7.367 -0.5072  0.0073 -0.8225
  190MOL0     H25613   4.329   4.746   7.458  2.0107 -1.3114  0.2294
  190MOL0     H25614   4.265   4.998   7.755  1.4830  0.5853  0.1145
  190MOL0     H25615   4.206   5.134   7.654  4.0084 -0.3603 -0.7087
  190MOL0     H25616   4.022   5.096   7.790 -0.8170 -0.8601  0.2206
  190MOL0     H25617   3.989   5.021   7.636 -1.6475 -1.1560  0.9437
  190MOL0     H25618   4.108   4.808   7.748  1.3580  1.6140 -0.9992
  190MOL0     H25619   4.067   4.896   7.901 -1.7861  4.1931  0.1880
  190MOL0     H25620   3.862   4.811   7.693 -0.0614 -1.4606  0.6956
  190MOL0     H25621   3.836   4.914   7.830  2.4592  1.8008  0.5497
  190MOL0     H25622   3.918   4.712   7.979  2.9698  2.6407 -1.4758
  190MOL0     H25623   3.926   4.606   7.843 -0.9812 -1.2243  2.5505
  190MOL0     H25624   3.677   4.753   7.956 -0.7597  1.0086 -0.4044
  190MOL0     H25625   3.672   4.712   7.790 -0.7534 -2.1387  0.2392
  190MOL0     H25626   3.714   4.513   8.033  0.5280 -0.6563  0.1395
  190MOL0     H25627   3.738   4.465   7.876 -0.3921  1.1107  0.3808
  190MOL0     H25628   3.496   4.428   7.954  1.1470 -1.2330 -0.0593
  190MOL0     H25629   3.475   4.596   7.994  4.4409 -1.7066  4.1088
  190MOL0     H25630   4.424   5.139   7.580  2.8131 -0.6429  1.1832
  190MOL0     H25631   4.662   5.103   7.499  0.0255  0.1452 -2.5160
  190MOL0     H25632   5.124   5.040   7.393  1.5086 -0.9002  1.0749
  190MOL0     H25633   5.323   4.950   7.297  1.8134 -1.6577 -2.2109
  190MOL0     H25634   4.969   4.776   6.828 -2.3892 -0.6178 -2.1349
  190MOL0     H25635   4.753   4.664   6.851  0.6604 -1.0945  1.2267
  190MOL0     H25636   4.374   4.628   6.958  0.1530  0.7414 -0.1338
  190MOL0     H25637   4.196   4.480   6.953  2.8987  2.6860 -1.8851
  190MOL0     H25638   4.103   4.218   6.964 -0.5135  1.2499 -0.4647
  190MOL0     H25639   3.993   4.355   6.973  1.6796 -1.0353 -2.9520
  190MOL0     H25640   3.969   4.076   7.102 -1.5348 -1.2168 -0.7205
  190MOL0     H25641   3.883   4.148   6.971 -0.0155 -0.4584 -0.3732
  190MOL0     H25642   3.878   4.263   7.260 -3.2680  0.8624  2.0153
  190MOL0     H25643   3.759   4.153   7.210  0.7710 -0.3919  0.4828
  190MOL0     H25644   3.662   4.376   7.182  2.2491 -1.0993  2.3994
  190MOL0     H25645   3.803   4.436   7.091 -0.7693  1.8226  2.5820
  190MOL0     H25646   3.572   4.240   6.792 -1.8909  0.8828  1.6192
  190MOL0     H25647   4.312   4.267   7.298 -0.0741  0.6885  1.0675
  190MOL0     H25648   4.642   4.379   7.306  0.7132 -1.1221  1.3434
  190MOL0     H25649   4.526   4.474   7.403 -0.3480  0.0142 -0.8382
  190MOL0     H25650   4.511   4.301   7.390 -0.4855  1.4556  1.0625
  191MOL0     O25651   9.886   3.982   4.681  0.1749 -0.2187 -0.5591
  191MOL0     C25652   9.788   4.053   4.701  0.3825 -0.2673 -0.5111
  191MOL0     O25653   9.787   4.189   4.688 -0.6219 -0.1254 -0.4709
  191MOL0     C25654   9.898   4.247   4.629  0.0274 -0.3733 -0.5944
  191MOL0     C25655   9.955   4.359   4.690 -0.2557  0.4099  0.5416
  191MOL0     C25656  10.060   4.421   4.630 -0.5558  0.3863 -0.3621
  191MOL0     C25657  10.120   4.383   4.509  0.5076 -0.4025  0.5981
  191MOL0     O25658  10.225   4.446   4.456  0.2711  0.0964 -1.3386
  191MOL0     C25659  10.333   4.461   4.546 -0.3826  0.2596 -0.8905
  191MOL0     C25660  10.465   4.514   4.495  0.3233  0.6891  0.7189
  191MOL0     C25661  10.439   4.649   4.418 -0.2968  0.3237  0.5450
  191MOL0     C25662  10.575   4.689   4.360  0.1441 -0.8253  0.8735
  191MOL0     C25663  10.555   4.813   4.268 -1.0062 -0.3945 -0.8116
  191MOL0     C25664  10.686   4.847   4.197 -0.1221 -0.6673  0.0452
  191MOL0     C25665  10.806   4.894   4.280  0.0417 -0.4769 -0.8425
  191MOL0     C25666  10.787   5.019   4.372 -0.4893  0.3259  0.9409
  191MOL0     N25667  10.913   5.094   4.398 -0.6488  0.8833 -0.2379
  191MOL0     C25668  11.045   5.050   4.420 -0.0139  0.8219 -0.5084
  191MOL0     C25669  11.111   5.164   4.440 -0.3325 -0.3472  0.2138
  191MOL0     C25670  11.253   5.184   4.492  0.5647  0.0108  0.0502
  191MOL0     C25671  11.368   5.126   4.405 -0.0068 -0.7517 -0.5896
  191MOL0     C25672  11.494   5.138   4.490 -0.2285  0.7465  0.3744
  191MOL0     C25673  11.601   5.031   4.455  0.8649 -0.9737  0.0692
  191MOL0     O25674  11.655   5.062   4.327 -0.2953  0.2290 -0.5577
  191MOL0     C25675  11.775   5.012   4.291 -0.5091 -0.3373  0.1469
  191MOL0     C25676  11.858   4.916   4.352 -1.4224 -0.0659 -0.1257
  191MOL0     C25677  11.989   4.895   4.308 -0.2284 -0.5323 -0.8990
  191MOL0     C25678  12.044   4.985   4.221 -0.1578 -1.0240  0.0134
  191MOL0     C25679  12.193   4.985   4.179 -0.2688  0.4765  0.3125
  191MOL0     O25680  12.255   5.100   4.126 -0.7566  0.0947  0.0711
  191MOL0     C25681  12.390   5.102   4.088  0.4379  0.5304  0.0827
  191MOL0     C25682  12.423   5.141   3.963 -0.0011  0.0726  0.1209
  191MOL0     C25683  12.553   5.123   3.916  0.0529  0.2439  0.5470
  191MOL0     C25684  12.654   5.090   3.991 -0.8686  0.3545 -0.1004
  191MOL0     O25685  12.776   5.093   3.925 -0.8629  0.1591 -0.4482
  191MOL0     C25686  12.865   4.983   3.947  0.4407  0.3972  0.0302
  191MOL0     C25687  13.008   5.017   3.950 -0.6150 -0.0830 -0.0262
  191MOL0     C25688  13.059   5.065   4.091 -0.4912  0.1852 -0.7385
  191MOL0     C25689  13.207   5.104   4.097 -0.1030  0.4203 -0.2172
  191MOL0     C25690  13.255   5.074   4.235 -0.9756  0.1438 -0.8387
  191MOL0     C25691  13.412   5.094   4.243 -0.6107  0.0691  0.1791
  191MOL0     C25692  13.467   5.046   4.373 -0.1382 -0.7708 -0.2597
  191MOL0     C25693  13.607   5.095   4.404  0.2358  0.0794  0.7592
  191MOL0    Cl25694  13.653   5.066   4.569 -0.5910 -0.5323  0.1946
  191MOL0     C25695  12.623   5.051   4.121 -0.5345 -1.4853 -0.5916
  191MOL0     C25696  12.496   5.054   4.173  0.7260 -0.7026  0.0086
  191MOL0     O25697  12.248   4.881   4.215 -0.0817  0.1111  0.2186
  191MOL0     C25698  11.959   5.073   4.141  0.2571  0.5824  0.3939
  191MOL0     C25699  11.824   5.083   4.181 -0.0406 -0.3405  1.3798
  191MOL0     N25700  11.032   5.270   4.431  0.5476  0.6044 -0.1503
  191MOL0     N25701  10.919   5.233   4.389  0.2937  0.0930  0.3479
  191MOL0     C25702  10.055   4.274   4.447  0.0450 -0.4743 -0.4780
  191MOL0     C25703   9.945   4.205   4.505 -0.3595 -0.0231  0.4998
  191MOL0     C25704   9.651   3.988   4.715 -0.2194 -0.2739 -0.7316
  191MOL0     C25705   9.539   4.074   4.708 -0.0485  0.5953  0.2993
  191MOL0     C25706   9.409   4.012   4.700 -0.3547  0.4378 -0.4205
  191MOL0     C25707   9.387   3.880   4.708 -0.3318  0.4719  0.3427
  191MOL0     O25708   9.272   3.820   4.685  0.0042  0.2012  0.7814
  191MOL0     C25709   9.150   3.892   4.700 -0.1758 -0.0537 -0.4859
  191MOL0     C25710   9.035   3.813   4.772 -0.1039 -0.4023 -0.2079
  191MOL0     C25711   9.081   3.769   4.920  0.4698  0.4445  0.5030
  191MOL0     C25712   9.131   3.620   4.917  0.2352 -0.0015  0.1731
  191MOL0     C25713   9.128   3.580   5.058 -0.3041 -0.0515  0.9087
  191MOL0     C25714   9.111   3.570   5.181  0.5216 -0.5371  0.6064
  191MOL0     C25715   9.503   3.799   4.727 -0.4190  0.2895  0.5456
  191MOL0     C25716   9.635   3.852   4.733  0.0259  0.0174  0.0783
  191MOL0     C25717   9.736   3.753   4.759 -0.4750 -0.5595  0.5967
  191MOL0     H25718   9.914   4.386   4.787 -2.1582 -1.2282  0.2661
  191MOL0     H25719  10.091   4.496   4.702  0.1482  0.4059 -0.6769
  191MOL0     H25720  10.305   4.531   4.625  3.7355  2.4516 -1.0909
  191MOL0     H25721  10.357   4.364   4.590  0.8294  1.4813  1.3066
  191MOL0     H25722  10.515   4.443   4.428  0.5884  0.4320  1.1869
  191MOL0     H25723  10.538   4.537   4.573  2.0510 -1.9481  0.0310
  191MOL0     H25724  10.416   4.722   4.497  1.0193  0.4547  0.8205
  191MOL0     H25725  10.357   4.643   4.346  2.6659  0.7109 -3.1207
  191MOL0     H25726  10.644   4.715   4.441  1.8496 -0.9786 -0.4765
  191MOL0     H25727  10.613   4.607   4.298  0.6546  2.2202 -3.2617
  191MOL0     H25728  10.477   4.789   4.195 -1.6325 -0.6691 -0.0758
  191MOL0     H25729  10.520   4.898   4.328 -0.3315 -0.3202 -0.5151
  191MOL0     H25730  10.723   4.759   4.143  2.4663 -0.8315  1.8899
  191MOL0     H25731  10.670   4.922   4.119 -1.2617 -1.6023 -0.6531
  191MOL0     H25732  10.879   4.922   4.203 -3.1080  1.3329 -3.4338
  191MOL0     H25733  10.837   4.809   4.340  1.4515 -0.8195 -1.9856
  191MOL0     H25734  10.722   5.084   4.312  0.1455 -1.2937 -1.6849
  191MOL0     H25735  10.729   5.007   4.464  0.7506  3.1989  2.2161
  191MOL0     H25736  11.080   4.947   4.426  2.0047  1.3590 -1.8452
  191MOL0     H25737  11.278   5.290   4.488  1.9669 -0.3047  0.0519
  191MOL0     H25738  11.248   5.159   4.598 -1.3421 -0.1979 -0.0557
  191MOL0     H25739  11.340   5.023   4.380 -4.3541  0.4376 -1.4980
  191MOL0     H25740  11.371   5.191   4.317 -5.2518  1.1321  0.2939
  191MOL0     H25741  11.472   5.122   4.596 -2.9030  1.3512 -0.0237
  191MOL0     H25742  11.547   5.234   4.486  2.6652 -0.7847 -2.0842
  191MOL0     H25743  11.577   4.924   4.456 -1.2342 -0.8436 -5.0001
  191MOL0     H25744  11.682   5.051   4.526  1.7911  0.5998 -1.3585
  191MOL0     H25745  11.810   4.855   4.429  0.6412  0.5915  1.7765
  191MOL0     H25746  12.041   4.810   4.350 -1.0007 -1.4313 -1.7333
  191MOL0     H25747  12.343   5.177   3.899  0.0901 -0.8810 -0.5526
  191MOL0     H25748  12.572   5.143   3.811 -0.5049 -2.8235 -0.2375
  191MOL0     H25749  12.841   4.922   4.035  1.2637 -2.2148 -1.4218
  191MOL0     H25750  12.851   4.919   3.858 -1.5296 -1.0327  1.2714
  191MOL0     H25751  13.063   4.926   3.923 -0.6832  0.3607 -1.7757
  191MOL0     H25752  13.032   5.093   3.875  0.8007 -0.9944 -0.5423
  191MOL0     H25753  13.004   5.158   4.112  2.0430  1.7666 -0.6394
  191MOL0     H25754  13.037   4.995   4.172 -1.7033 -0.2054 -1.3751
  191MOL0     H25755  13.214   5.210   4.073 -0.5591  0.5981  0.4073
  191MOL0     H25756  13.250   5.043   4.017 -4.1262 -1.7512 -0.9721
  191MOL0     H25757  13.236   4.969   4.260 -1.4030  0.7911  1.9586
  191MOL0     H25758  13.202   5.133   4.311  0.7734  0.1390  0.4575
  191MOL0     H25759  13.458   5.042   4.158  2.2361 -1.0108  2.2065
  191MOL0     H25760  13.430   5.201   4.229  0.6059 -0.2056 -0.5217
  191MOL0     H25761  13.465   4.937   4.378  0.6366 -0.9216 -2.2789
  191MOL0     H25762  13.398   5.076   4.452 -0.6403  1.5982 -1.5108
  191MOL0     H25763  13.671   5.036   4.338  0.7561  1.6249 -0.1655
  191MOL0     H25764  13.614   5.202   4.382  0.0861  0.2150  1.3504
  191MOL0     H25765  12.690   5.012   4.198 -0.8448  1.5857  1.3831
  191MOL0     H25766  12.479   5.017   4.273  1.5163 -1.9410 -0.2925
  191MOL0     H25767  11.993   5.141   4.063 -1.1061 -1.7479 -2.4387
  191MOL0     H25768  11.754   5.157   4.143 -0.5479 -1.8089 -0.6554
  191MOL0     H25769  10.091   4.237   4.351  0.7868 -1.5420  0.1949
  191MOL0     H25770   9.896   4.121   4.455 -0.2320  1.3594 -2.1026
  191MOL0     H25771   9.548   4.182   4.701  0.1633  0.4640 -1.9249
  191MOL0     H25772   9.323   4.073   4.674  0.4805  1.9910  0.3111
  191MOL0     H25773   9.112   3.909   4.599  2.0448 -0.5918 -1.5004
  191MOL0     H25774   9.165   3.982   4.760 -1.3296 -0.2848  0.1680
  191MOL0     H25775   9.005   3.724   4.716  0.4621 -1.8171  1.6482
  191MOL0     H25776   8.950   3.882   4.777 -1.0171 -1.5767  1.3466
  191MOL0     H25777   8.999   3.769   4.994  0.4674  0.1109  0.4996
  191MOL0     H25778   9.156   3.841   4.955  3.3386 -1.3409 -1.5876
  191MOL0     H25779   9.061   3.565   4.854 -1.0595  2.1113 -0.3487
  191MOL0     H25780   9.235   3.617   4.884 -0.2299  3.4207 -2.2014
  191MOL0     H25781   9.093   3.573   5.286  0.2142  2.6820  0.5845
  191MOL0     H25782   9.486   3.693   4.744  2.2418 -0.4359 -0.8175
  191MOL0     H25783   9.695   3.663   4.807 -0.6330 -0.7536  0.1082
  191MOL0     H25784   9.771   3.720   4.661 -0.2660  0.3751  0.3483
  191MOL0     H25785   9.821   3.783   4.820  1.1399 -3.5511  0.0071
  192MOL0     O25786   3.358  10.633  10.065 -0.2364 -0.3585 -0.1909
  192MOL0     C25787   3.291  10.704   9.987  0.3420  0.3627  0.0297
  192MOL0     O25788   3.323  10.830   9.962 -0.1136  0.6188  0.1104
  192MOL0     C25789   3.453  10.875  10.000 -0.4246  0.4601 -0.1298
  192MOL0     C25790   3.566  10.800   9.963  0.7477 -0.0481 -0.2657
  192MOL0     C25791   3.696  10.846   9.997  0.4137 -0.1375  0.1964
  192MOL0     C25792   3.711  10.967  10.047  0.1103 -0.6748  0.2789
  192MOL0     O25793   3.831  11.024  10.076 -0.7432 -0.2273 -0.3855
  192MOL0     C25794   3.959  10.995  10.008 -0.0454  0.3042  0.3069
  192MOL0     C25795   4.051  10.919  10.109  0.6983 -0.4805 -0.0619
  192MOL0     C25796   4.192  10.921  10.051  0.1349  1.0542 -1.1790
  192MOL0     C25797   4.268  11.045  10.101 -0.1169 -0.4160 -0.3957
  192MOL0     C25798   4.413  11.043  10.052  0.0388 -0.3424 -0.2370
  192MOL0     C25799   4.489  10.924  10.112 -0.3191 -0.6205  0.1423
  192MOL0     C25800   4.517  10.915  10.261  0.3889 -0.3680  0.9166
  192MOL0     C25801   4.634  10.819  10.302  0.1701  0.0009 -0.5482
  192MOL0     N25802   4.776  10.868  10.302 -0.0638 -0.2914  0.7088
  192MOL0     C25803   4.878  10.795  10.246 -0.4071 -0.2138  0.0878
  192MOL0     C25804   4.985  10.850  10.316 -0.2412 -0.3281 -0.2174
  192MOL0     C25805   5.126  10.814  10.319  0.1130 -0.5982 -0.1409
  192MOL0     C25806   5.151  10.686  10.240 -0.4016  0.2688  0.3639
  192MOL0     C25807   5.294  10.655  10.201 -0.9762  0.3770  0.8589
  192MOL0     C25808   5.384  10.649  10.328 -0.5868 -0.3178 -0.1084
  192MOL0     O25809   5.494  10.561  10.292  0.3748 -0.3271 -0.4510
  192MOL0     C25810   5.603  10.541  10.377 -0.1920 -0.5247 -0.2923
  192MOL0     C25811   5.697  10.454  10.328  0.6753  0.0824 -0.0526
  192MOL0     C25812   5.813  10.433  10.407  0.0481 -0.3802 -0.0008
  192MOL0     C25813   5.847  10.507  10.513  0.1012 -0.3999  0.0419
  192MOL0     C25814   5.962  10.479  10.599  0.1899  0.5705  0.2425
  192MOL0     O25815   5.980  10.567  10.697  0.0849  0.1441  0.2027
  192MOL0     C25816   6.071  10.539  10.797  0.8420  0.5249  0.5047
  192MOL0     C25817   6.166  10.642  10.826 -0.1112  0.7280 -0.4262
  192MOL0     C25818   6.252  10.621  10.941 -0.2559  1.1450  0.2631
  192MOL0     C25819   6.241  10.513  11.033  0.4321  0.4348  0.6866
  192MOL0     O25820   6.326  10.488  11.139 -0.2249 -0.0936  0.1665
  192MOL0     C25821   6.405  10.598  11.187 -0.1788  1.0922  0.6503
  192MOL0     C25822   6.460  10.571  11.320 -0.2877  0.3376 -0.8456
  192MOL0     C25823   6.498  10.704  11.390 -0.1647 -0.5953 -0.3977
  192MOL0     C25824   6.527  10.675  11.540 -0.1896 -0.5342  0.2384
  192MOL0     C25825   6.663  10.603  11.562  0.0569  0.1408 -0.2732
  192MOL0     C25826   6.697  10.587  11.707 -0.7716  1.1052 -0.7222
  192MOL0     C25827   6.828  10.494  11.728  1.0691 -0.1213  0.3206
  192MOL0     C25828   6.856  10.480  11.884  0.2514  0.0266 -0.5918
  192MOL0    Cl25829   7.029  10.445  11.903  0.5278 -0.0515 -0.4568
  192MOL0     C25830   6.151  10.415  10.996  0.3879  0.2313  0.1189
  192MOL0     C25831   6.064  10.431  10.885 -0.7478  0.3803 -0.0834
  192MOL0     O25832   6.035  10.383  10.569 -0.9548 -0.2913  0.1968
  192MOL0     C25833   5.761  10.614  10.545  0.2534  0.1086 -0.3423
  192MOL0     C25834   5.637  10.628  10.487  0.1873 -0.5688 -0.8031
  192MOL0     N25835   4.944  10.955  10.393 -0.7833  0.2960  0.7615
  192MOL0     N25836   4.819  10.968  10.391 -0.0980  0.0721  0.8414
  192MOL0     C25837   3.598  11.052  10.078 -0.1992 -0.3474  0.5321
  192MOL0     C25838   3.471  11.003  10.055  0.0761 -0.3774  0.1702
  192MOL0     C25839   3.170  10.627   9.929  0.7817 -0.1936 -0.0383
  192MOL0     C25840   3.140  10.491   9.963 -0.3051  0.6542 -0.0026
  192MOL0     C25841   3.028  10.426   9.906  0.4890 -0.0158 -0.3477
  192MOL0     C25842   2.950  10.486   9.802 -0.0770  0.7565 -0.0857
  192MOL0     O25843   2.854  10.422   9.727  0.5021 -0.3327  0.1160
  192MOL0     C25844   2.816  10.282   9.754  0.1916  0.5135 -0.2980
  192MOL0     C25845   2.713  10.273   9.869  0.2514 -0.9648 -0.6949
  192MOL0     C25846   2.604  10.385   9.887 -0.0231  0.5750  0.7537
  192MOL0     C25847   2.527  10.413   9.757 -0.0196 -0.4688  0.3212
  192MOL0     C25848   2.464  10.281   9.711  0.2626 -0.3403  0.2489
  192MOL0     C25849   2.423  10.168   9.667  0.1515  0.4548 -0.3020
  192MOL0     C25850   2.981  10.619   9.776  0.6069  0.4223  0.0484
  192MOL0     C25851   3.077  10.687   9.841 -0.5638  0.3655 -0.7693
  192MOL0     C25852   3.091  10.828   9.793 -0.6123 -0.3113  0.5831
  192MOL0     H25853   3.558  10.699   9.925  2.5575 -0.7690  1.0838
  192MOL0     H25854   3.785  10.785   9.983 -1.5079 -3.4749  1.2239
  192MOL0     H25855   3.948  10.928   9.923  1.3753 -1.1598  1.1996
  192MOL0     H25856   4.015  11.086   9.984  0.1306  0.4124  1.0772
  192MOL0     H25857   4.009  10.817  10.114 -1.9441  0.4206 -1.6679
  192MOL0     H25858   4.043  10.967  10.206 -1.9078  1.3684 -1.0681
  192MOL0     H25859   4.197  10.897   9.944 -1.5119  1.3515 -1.3493
  192MOL0     H25860   4.232  10.825  10.086 -0.5716  1.0935 -0.2506
  192MOL0     H25861   4.220  11.135  10.060  2.6112 -0.4857 -4.2530
  192MOL0     H25862   4.272  11.042  10.210  2.0806  0.8055 -0.3907
  192MOL0     H25863   4.412  11.054   9.943  0.8713 -0.0184 -0.2190
  192MOL0     H25864   4.457  11.136  10.088 -0.9980  0.3478 -0.6964
  192MOL0     H25865   4.445  10.831  10.076 -0.7396 -0.1677 -0.5513
  192MOL0     H25866   4.585  10.923  10.061  0.9345 -1.3967  2.3976
  192MOL0     H25867   4.419  10.886  10.299 -0.6553  0.9461 -0.6248
  192MOL0     H25868   4.534  11.014  10.304  1.5438 -0.8192  1.5411
  192MOL0     H25869   4.626  10.791  10.407  2.1988  0.7150 -0.1567
  192MOL0     H25870   4.637  10.724  10.247 -0.5564 -2.3661  3.1413
  192MOL0     H25871   4.880  10.713  10.175 -0.4318  0.9393 -1.2882
  192MOL0     H25872   5.182  10.901  10.282 -0.4790 -0.5318 -0.8976
  192MOL0     H25873   5.152  10.793  10.423  1.6699  0.9001 -0.1836
  192MOL0     H25874   5.119  10.603  10.303 -0.5678  0.4813  0.5606
  192MOL0     H25875   5.091  10.672  10.150  0.5753  1.4142 -0.5014
  192MOL0     H25876   5.339  10.716  10.123 -1.2203 -2.5955 -1.8408
  192MOL0     H25877   5.293  10.555  10.155  2.0901  0.7951 -0.3230
  192MOL0     H25878   5.349  10.606  10.422  0.9759  3.0674  2.2060
  192MOL0     H25879   5.424  10.749  10.344 -0.6173  0.4407 -3.8854
  192MOL0     H25880   5.670  10.392  10.243 -0.0247  2.1329 -1.4266
  192MOL0     H25881   5.878  10.351  10.378  1.9909  0.7187  1.0004
  192MOL0     H25882   6.179  10.732  10.767 -0.5424  1.3361  0.3930
  192MOL0     H25883   6.320  10.702  10.967 -0.0141  1.2667 -0.7092
  192MOL0     H25884   6.489  10.613  11.119  1.6458 -2.8896  1.7351
  192MOL0     H25885   6.343  10.689  11.187  0.0545  1.3427  3.3794
  192MOL0     H25886   6.382  10.519  11.376  0.9700 -0.5541  0.1150
  192MOL0     H25887   6.542  10.499  11.324  0.3452  1.0938  1.4347
  192MOL0     H25888   6.590  10.744  11.346  1.1283 -0.9342  1.8546
  192MOL0     H25889   6.412  10.770  11.374 -0.3656 -1.2000 -1.9936
  192MOL0     H25890   6.445  10.614  11.578 -1.5994  1.4696  0.6061
  192MOL0     H25891   6.528  10.765  11.601  2.9968 -0.1498 -0.2266
  192MOL0     H25892   6.742  10.663  11.517 -0.3893  1.8448  1.1118
  192MOL0     H25893   6.646  10.504  11.517 -4.2660  0.8512 -0.6946
  192MOL0     H25894   6.715  10.687  11.748  1.6423  0.2387  0.5421
  192MOL0     H25895   6.612  10.547  11.762 -1.0413  1.2341 -1.0433
  192MOL0     H25896   6.912  10.548  11.683  0.1586  1.7665  0.7840
  192MOL0     H25897   6.816  10.394  11.686 -0.4440  0.1298  0.1054
  192MOL0     H25898   6.826  10.569  11.940 -0.3679 -1.4576  1.5862
  192MOL0     H25899   6.797  10.403  11.935 -0.9245  2.8594  2.7472
  192MOL0     H25900   6.131  10.322  11.048 -1.2165 -0.2756 -1.3271
  192MOL0     H25901   5.991  10.353  10.865  0.0684 -0.2961 -0.5134
  192MOL0     H25902   5.784  10.667  10.637 -0.0038  0.3903 -0.4358
  192MOL0     H25903   5.571  10.709  10.515 -1.4279 -2.6862  2.0749
  192MOL0     H25904   3.606  11.151  10.122  4.6908  0.3853 -1.3016
  192MOL0     H25905   3.393  11.073  10.084 -0.9269 -1.0610 -0.8326
  192MOL0     H25906   3.197  10.432  10.034 -0.9214  0.2780  0.1858
  192MOL0     H25907   3.018  10.323   9.938 -0.5757  0.4546  0.9114
  192MOL0     H25908   2.906  10.227   9.783  0.0568  0.3863 -0.1161
  192MOL0     H25909   2.769  10.246   9.662 -0.9093  1.4036 -0.1200
  192MOL0     H25910   2.766  10.267   9.965 -1.2171 -0.9643  0.1473
  192MOL0     H25911   2.669  10.173   9.857  0.8204 -1.4606  0.9833
  192MOL0     H25912   2.656  10.477   9.917  0.8923  0.8660 -1.5073
  192MOL0     H25913   2.525  10.364   9.960 -1.8063  4.4705  0.1765
  192MOL0     H25914   2.440  10.475   9.779  1.5304  0.7549  3.5402
  192MOL0     H25915   2.600  10.455   9.687 -2.3860  2.1333 -0.7928
  192MOL0     H25916   2.405  10.079   9.609 -0.7666 -0.7748  1.7588
  192MOL0     H25917   2.925  10.680   9.706 -0.0856 -0.3053 -0.0371
  192MOL0     H25918   3.128  10.899   9.868 -0.7601 -1.3638  1.6806
  192MOL0     H25919   3.164  10.816   9.713 -1.0965  0.7884 -0.0490
  192MOL0     H25920   2.996  10.868   9.755  0.3056 -0.1050 -1.6752
  193MOL0     O25921  10.651   4.888   9.575 -0.8205 -0.3832  0.2382
  193MOL0     C25922  10.616   4.988   9.640  0.1217  0.2156  0.2744
  193MOL0     O25923  10.494   5.017   9.688  0.0185  0.3016  0.9849
  193MOL0     C25924  10.392   4.930   9.670  0.2360  0.7878  0.1795
  193MOL0     C25925  10.392   4.789   9.673  0.0111  0.0048 -0.5915
  193MOL0     C25926  10.276   4.713   9.650 -0.2595 -0.0112 -0.4533
  193MOL0     C25927  10.153   4.766   9.625 -0.1638  0.7839 -0.4951
  193MOL0     O25928  10.041   4.688   9.604  0.4962 -0.1962  0.0261
  193MOL0     C25929  10.015   4.595   9.708  0.1167  0.4001 -0.4456
  193MOL0     C25930   9.874   4.541   9.695  0.0078 -0.2239 -0.2251
  193MOL0     C25931   9.763   4.635   9.745  0.1332 -0.0874  1.1871
  193MOL0     C25932   9.625   4.583   9.690  0.0430  0.4022  0.5920
  193MOL0     C25933   9.504   4.680   9.725  0.8117  0.4596  0.6662
  193MOL0     C25934   9.364   4.636   9.670 -0.4758  0.0071  0.3727
  193MOL0     C25935   9.258   4.736   9.719  0.4282 -0.1488 -0.5506
  193MOL0     C25936   9.114   4.694   9.691  0.1675  1.1883  0.2749
  193MOL0     N25937   9.061   4.624   9.815 -0.1154 -0.9743  1.0332
  193MOL0     C25938   9.011   4.693   9.920 -0.1447 -0.7885 -0.2753
  193MOL0     C25939   8.987   4.607  10.011 -0.2044  0.1282 -0.2725
  193MOL0     C25940   8.932   4.634  10.150  0.7330 -0.1220 -0.5542
  193MOL0     C25941   9.044   4.630  10.250 -0.7169 -0.4305 -0.0946
  193MOL0     C25942   9.139   4.744  10.220  0.7537  0.5802  0.1843
  193MOL0     C25943   9.239   4.754  10.336 -0.3624  0.6969  0.1276
  193MOL0     O25944   9.335   4.648  10.337 -0.8952  0.2609 -0.3542
  193MOL0     C25945   9.460   4.688  10.300  0.8030 -0.4273 -0.3846
  193MOL0     C25946   9.513   4.677  10.169 -0.4207  0.3532  0.8462
  193MOL0     C25947   9.650   4.706  10.152 -1.0663  0.3361 -0.5855
  193MOL0     C25948   9.749   4.716  10.254 -0.8787  0.1736  0.4875
  193MOL0     C25949   9.886   4.751  10.225  0.3802 -0.0161 -0.8386
  193MOL0     O25950   9.951   4.819  10.333  0.3298  0.0229  0.6312
  193MOL0     C25951  10.081   4.862  10.326  1.1309 -0.3054 -0.7511
  193MOL0     C25952  10.108   4.993  10.361 -0.6690 -0.3513 -0.8948
  193MOL0     C25953  10.245   5.038  10.354 -0.3156  0.0061  0.6680
  193MOL0     C25954  10.352   4.951  10.334  0.2974 -0.7337 -0.1363
  193MOL0     O25955  10.480   4.993  10.321  0.2740 -0.3007 -0.3077
  193MOL0     C25956  10.567   4.943  10.228  0.8661  0.1636 -0.2328
  193MOL0     C25957  10.684   5.036  10.197 -0.6808 -0.2200 -0.5062
  193MOL0     C25958  10.806   4.985  10.105  0.4370 -0.4516 -0.4154
  193MOL0     C25959  10.910   5.084  10.103 -0.2357 -0.3273  1.3196
  193MOL0     C25960  11.016   5.038   9.999  0.7775  0.2781  0.2939
  193MOL0     C25961  11.157   5.081  10.038 -0.6500 -0.9054 -0.2376
  193MOL0     C25962  11.261   5.043   9.943 -0.8867  0.0435  1.1428
  193MOL0     C25963  11.390   5.128   9.941  0.3453  0.5843 -0.0055
  193MOL0    Cl25964  11.522   5.058   9.853 -0.1779  0.1206  0.1619
  193MOL0     C25965  10.314   4.820  10.295 -0.1948  0.2414  0.7192
  193MOL0     C25966  10.183   4.777  10.290 -0.1272 -0.9413  0.1964
  193MOL0     O25967   9.942   4.710  10.120 -0.5415 -0.2124 -0.0066
  193MOL0     C25968   9.689   4.722  10.383 -1.0967 -0.4271  0.2448
  193MOL0     C25969   9.549   4.716  10.408  0.3681  0.3151  0.5201
  193MOL0     N25970   9.026   4.485   9.966 -0.5317  0.1813  0.1367
  193MOL0     N25971   9.072   4.500   9.843  0.3946  0.8346 -0.2641
  193MOL0     C25972  10.147   4.906   9.617 -0.7063 -0.3294 -0.6190
  193MOL0     C25973  10.264   4.986   9.654 -0.7419 -0.3634 -0.3681
  193MOL0     C25974  10.708   5.103   9.674  0.0625  0.5494  0.2507
  193MOL0     C25975  10.694   5.175   9.794 -0.2503  0.0340 -0.3302
  193MOL0     C25976  10.782   5.284   9.829  0.7448 -0.3391 -0.5689
  193MOL0     C25977  10.885   5.324   9.750  0.0396 -0.2063 -0.2752
  193MOL0     O25978  10.969   5.425   9.765 -0.8734 -0.4012 -0.2603
  193MOL0     C25979  10.969   5.495   9.891 -0.4216  0.2773 -0.0512
  193MOL0     C25980  11.016   5.639   9.867  0.0048 -0.5717 -1.3650
  193MOL0     C25981  11.167   5.636   9.850  0.1326  0.2424  0.6777
  193MOL0     C25982  11.236   5.770   9.855 -0.1962 -0.7706 -0.2807
  193MOL0     C25983  11.222   5.840   9.727  0.0077  0.2246  0.6348
  193MOL0     C25984  11.224   5.901   9.625  0.9935 -0.0937  1.0291
  193MOL0     C25985  10.893   5.260   9.628  0.1012 -0.7262  0.1008
  193MOL0     C25986  10.804   5.157   9.583 -0.0948 -0.3198  0.3139
  193MOL0     C25987  10.816   5.106   9.446  0.4746 -0.5954  0.7622
  193MOL0     H25988  10.494   4.757   9.687  0.0662 -0.0127 -1.0211
  193MOL0     H25989  10.279   4.605   9.647  1.7667  0.0388 -1.4874
  193MOL0     H25990  10.081   4.509   9.698  2.1725  2.0523 -1.8224
  193MOL0     H25991  10.031   4.646   9.804 -0.8377 -0.5550  0.2512
  193MOL0     H25992   9.862   4.441   9.738 -0.8856  0.0791  0.2636
  193MOL0     H25993   9.852   4.524   9.589 -2.7021 -1.1864  0.3910
  193MOL0     H25994   9.784   4.729   9.692 -0.1506 -1.5458 -1.7047
  193MOL0     H25995   9.765   4.651   9.853  2.5133 -0.9462  1.3158
  193MOL0     H25996   9.641   4.556   9.585  0.4971  0.6556  0.5928
  193MOL0     H25997   9.605   4.488   9.740 -2.5048  1.4293  1.7564
  193MOL0     H25998   9.493   4.690   9.833  1.9145  2.3559  0.6398
  193MOL0     H25999   9.536   4.781   9.698 -1.4522  0.9777 -0.2349
  193MOL0     H26000   9.355   4.625   9.561 -0.0116  0.3366  0.2975
  193MOL0     H26001   9.338   4.539   9.713  2.7806 -1.1511  0.0232
  193MOL0     H26002   9.278   4.830   9.666  3.3086 -1.7174 -2.5630
  193MOL0     H26003   9.271   4.756   9.825 -1.9429  2.1529 -0.5781
  193MOL0     H26004   9.044   4.772   9.659 -0.0483  1.7423  1.9650
  193MOL0     H26005   9.118   4.627   9.605  0.9824  1.6210 -0.0324
  193MOL0     H26006   8.977   4.796   9.923 -0.9170 -1.0529  0.1611
  193MOL0     H26007   8.878   4.729  10.158 -2.8491 -2.0585  0.7435
  193MOL0     H26008   8.862   4.555  10.177 -1.1179  0.8484 -2.2831
  193MOL0     H26009   9.005   4.643  10.352  1.9385 -1.7648  1.1997
  193MOL0     H26010   9.089   4.530  10.255  0.4277  0.0539 -0.5001
  193MOL0     H26011   9.100   4.843  10.196  0.8591  0.5458 -0.1395
  193MOL0     H26012   9.198   4.714  10.132  0.0413 -0.5707  0.0697
  193MOL0     H26013   9.178   4.749  10.427  0.2089  0.3575  0.4990
  193MOL0     H26014   9.294   4.848  10.343 -0.5794  0.7357  1.7417
  193MOL0     H26015   9.455   4.647  10.082 -1.0843  2.5646  0.4648
  193MOL0     H26016   9.684   4.689  10.050 -0.6588  1.9500 -0.7459
  193MOL0     H26017  10.026   5.060  10.386  0.4193 -0.2386  3.0982
  193MOL0     H26018  10.263   5.144  10.369 -0.6079  0.2821 -0.8160
  193MOL0     H26019  10.606   4.853  10.276  2.0447  1.0765  0.5613
  193MOL0     H26020  10.521   4.936  10.129  5.1717  0.8786 -2.5397
  193MOL0     H26021  10.647   5.133  10.162  0.3160  0.6850  0.8335
  193MOL0     H26022  10.730   5.054  10.295  0.4495 -0.2521 -1.0181
  193MOL0     H26023  10.843   4.889  10.144 -1.7050 -0.8945  0.6432
  193MOL0     H26024  10.763   4.970  10.005 -1.2980 -0.8063  0.3446
  193MOL0     H26025  10.953   5.096  10.203  0.1323  1.6711  0.9505
  193MOL0     H26026  10.874   5.183  10.074 -0.9397 -0.8767  0.2600
  193MOL0     H26027  10.973   5.069   9.903  0.5946 -0.3941  0.1518
  193MOL0     H26028  11.013   4.929   9.995 -0.5711  0.2596  1.1401
  193MOL0     H26029  11.162   5.190  10.043 -1.8622 -0.6445 -2.9419
  193MOL0     H26030  11.169   5.052  10.143  2.0362  1.1327  0.1215
  193MOL0     H26031  11.223   5.053   9.842 -0.1035  1.7764  0.9892
  193MOL0     H26032  11.284   4.936   9.957 -0.8359 -0.8533 -3.9283
  193MOL0     H26033  11.359   5.221   9.894 -2.6100 -0.7201 -0.8831
  193MOL0     H26034  11.427   5.142  10.044 -0.1717  0.9174  0.1365
  193MOL0     H26035  10.385   4.745  10.261  0.0544  0.8597 -0.1586
  193MOL0     H26036  10.171   4.677  10.250  2.6157 -0.6712 -1.5483
  193MOL0     H26037   9.760   4.732  10.464 -1.6805 -1.3342  0.8881
  193MOL0     H26038   9.508   4.711  10.508 -2.3006 -2.5533 -0.5428
  193MOL0     H26039  10.059   4.959   9.583 -0.2625  0.7683 -0.0934
  193MOL0     H26040  10.254   5.094   9.651 -2.2101 -0.4306  0.7878
  193MOL0     H26041  10.613   5.151   9.862 -1.5888  2.5778 -0.8965
  193MOL0     H26042  10.758   5.322   9.927 -4.3039 -2.4806 -0.6436
  193MOL0     H26043  11.019   5.434   9.966 -1.0558  1.1430  1.1117
  193MOL0     H26044  10.865   5.497   9.925 -0.6934  0.3880 -0.8745
  193MOL0     H26045  10.987   5.700   9.953 -0.7510 -2.6317 -0.0791
  193MOL0     H26046  10.970   5.688   9.780 -2.3418  0.6531  0.4347
  193MOL0     H26047  11.184   5.585   9.754  1.4351  2.3017 -0.2639
  193MOL0     H26048  11.208   5.573   9.929 -0.9630  2.0184  2.7648
  193MOL0     H26049  11.188   5.834   9.929 -2.0600 -1.4221 -0.8721
  193MOL0     H26050  11.345   5.768   9.867 -0.1533  1.5827  0.1167
  193MOL0     H26051  11.213   5.960   9.536  2.4502  0.5641  1.2716
  193MOL0     H26052  10.960   5.293   9.549  1.0718 -3.8050 -0.5190
  193MOL0     H26053  10.825   4.997   9.449 -0.9360 -0.7731 -0.2063
  193MOL0     H26054  10.729   5.147   9.393 -0.2080  0.7712  2.8154
  193MOL0     H26055  10.901   5.154   9.396  0.2974 -0.9164  0.1338
  194MOL0     O26056   9.555   0.219   6.872 -0.1261 -0.1521 -0.0672
  194MOL0     C26057   9.594   0.107   6.885 -0.2696 -0.3103  0.5770
  194MOL0     O26058   9.705   0.064   6.959  0.4147 -0.3502 -1.0064
  194MOL0     C26059   9.808   0.148   6.991  0.2747  0.1414  0.8267
  194MOL0     C26060   9.829   0.288   6.952 -0.3631  1.1724 -0.7706
  194MOL0     C26061   9.943   0.352   6.981  0.4705  0.2186  0.7623
  194MOL0     C26062  10.041   0.297   7.062 -0.1988  0.6319 -0.1603
  194MOL0     O26063  10.155   0.363   7.087 -0.2369  0.8556  0.1577
  194MOL0     C26064  10.156   0.511   7.106 -0.3246  0.4887  0.3324
  194MOL0     C26065  10.093   0.558   7.243  0.3946  0.3178  0.6966
  194MOL0     C26066   9.942   0.586   7.236 -0.4499 -0.3170  0.8437
  194MOL0     C26067   9.909   0.677   7.352  0.8477  1.4189 -0.3026
  194MOL0     C26068   9.768   0.737   7.342 -0.2057 -0.7125 -0.0729
  194MOL0     C26069   9.745   0.835   7.461 -0.2726 -0.2719  0.8520
  194MOL0     C26070   9.810   0.971   7.452  1.0674  0.4789  0.6100
  194MOL0     C26071   9.886   1.009   7.571 -0.2072  0.4073  0.2477
  194MOL0     N26072  10.015   0.941   7.588 -0.0465  0.3434  0.9835
  194MOL0     C26073  10.118   0.927   7.487 -0.1764  0.7872 -0.2993
  194MOL0     C26074  10.217   0.865   7.556  0.3614  0.4223  0.0484
  194MOL0     C26075  10.350   0.814   7.504  0.4520  0.0131  0.1091
  194MOL0     C26076  10.471   0.851   7.596 -0.2861 -0.2377  0.7037
  194MOL0     C26077  10.609   0.796   7.547 -0.0744 -0.2714  1.0348
  194MOL0     C26078  10.623   0.652   7.564 -0.1706 -1.0619 -0.2915
  194MOL0     O26079  10.653   0.625   7.698  0.5028 -1.0043 -0.1219
  194MOL0     C26080  10.703   0.503   7.738  0.8808  0.1636 -0.0125
  194MOL0     C26081  10.751   0.402   7.658  0.0417 -0.3050  0.5152
  194MOL0     C26082  10.790   0.279   7.705  1.0211  1.0346 -0.5217
  194MOL0     C26083  10.755   0.247   7.838 -0.2795  0.0624 -0.1595
  194MOL0     C26084  10.777   0.115   7.891 -0.3591 -0.0347  0.0188
  194MOL0     O26085  10.749   0.087   8.021  0.5982  0.1932 -0.0929
  194MOL0     C26086  10.758  -0.047   8.070  0.1513  1.5577 -0.7053
  194MOL0     C26087  10.638  -0.119   8.097 -0.2779  0.0418 -0.4757
  194MOL0     C26088  10.650  -0.248   8.148 -0.9404 -0.0144  0.0670
  194MOL0     C26089  10.778  -0.302   8.181 -0.9891 -0.7262  1.0046
  194MOL0     O26090  10.797  -0.414   8.255 -0.2968 -0.3046  0.0043
  194MOL0     C26091  10.691  -0.470   8.328 -0.5574  0.0565  0.5741
  194MOL0     C26092  10.725  -0.616   8.365  0.9830 -0.8887 -0.2566
  194MOL0     C26093  10.621  -0.680   8.447  0.5702 -0.3293 -0.0804
  194MOL0     C26094  10.625  -0.830   8.444 -0.6627 -0.5875 -0.0441
  194MOL0     C26095  10.567  -0.892   8.321  0.4232 -0.0456  0.2855
  194MOL0     C26096  10.556  -1.045   8.338  0.1328 -0.0590 -0.2346
  194MOL0     C26097  10.487  -1.110   8.213 -0.8384 -0.8684  0.5501
  194MOL0     C26098  10.457  -1.255   8.216 -0.3322 -0.7366  0.1197
  194MOL0    Cl26099  10.607  -1.335   8.278 -0.5422 -0.0506 -0.2342
  194MOL0     C26100  10.888  -0.235   8.155  0.1695 -0.9549  0.0084
  194MOL0     C26101  10.884  -0.103   8.101  0.8024 -0.2724 -0.3913
  194MOL0     O26102  10.835   0.037   7.811  0.2085 -0.2779  0.6766
  194MOL0     C26103  10.706   0.346   7.926  0.1717 -0.0193 -0.7263
  194MOL0     C26104  10.682   0.475   7.875 -0.6484 -0.1979  0.5191
  194MOL0     N26105  10.176   0.851   7.690 -0.5264  0.4273 -0.0875
  194MOL0     N26106  10.054   0.896   7.706  0.1072  0.0038 -0.1582
  194MOL0     C26107  10.014   0.165   7.112  0.4778 -0.0423  0.2068
  194MOL0     C26108   9.899   0.097   7.077 -0.6915 -0.1071  0.3092
  194MOL0     C26109   9.517  -0.006   6.820 -0.1934 -0.4065  0.0316
  194MOL0     C26110   9.582  -0.131   6.797  0.6348  0.2853 -0.5552
  194MOL0     C26111   9.534  -0.237   6.719  0.3321 -0.2691 -0.2220
  194MOL0     C26112   9.406  -0.219   6.667  0.0510 -0.2525 -0.3777
  194MOL0     O26113   9.343  -0.324   6.601  0.3753 -0.1239 -0.5642
  194MOL0     C26114   9.418  -0.429   6.541 -0.3386  0.0554 -0.4089
  194MOL0     C26115   9.333  -0.558   6.554  0.4333 -0.4244  0.6000
  194MOL0     C26116   9.218  -0.544   6.446 -0.7362  0.1938 -0.6491
  194MOL0     C26117   9.086  -0.609   6.488  1.0563  0.0565 -0.4558
  194MOL0     C26118   9.100  -0.755   6.465 -0.1434 -0.3053  0.3186
  194MOL0     C26119   9.108  -0.877   6.465 -0.2578  0.0672 -0.0506
  194MOL0     C26120   9.336  -0.093   6.679 -1.1192  0.5530 -0.0415
  194MOL0     C26121   9.384   0.008   6.761 -0.2742 -0.2506 -0.8897
  194MOL0     C26122   9.298   0.133   6.786  0.7648 -0.5929  0.3111
  194MOL0     H26123   9.753   0.350   6.904 -1.6072 -1.0497 -1.7962
  194MOL0     H26124   9.949   0.442   6.921  2.4700 -1.1386 -1.2034
  194MOL0     H26125  10.259   0.548   7.112 -0.2438  0.3590 -0.1640
  194MOL0     H26126  10.104   0.575   7.033 -1.5850  0.1995  0.9555
  194MOL0     H26127  10.151   0.648   7.262 -0.9521  1.4011 -0.1074
  194MOL0     H26128  10.130   0.485   7.316  0.7696  1.3424  1.5424
  194MOL0     H26129   9.891   0.490   7.236  1.9270 -1.7136 -1.1081
  194MOL0     H26130   9.916   0.644   7.147 -0.6126 -1.2237  0.2917
  194MOL0     H26131   9.909   0.626   7.450 -4.4168 -0.7298 -1.1127
  194MOL0     H26132   9.990   0.751   7.353  1.6937  0.5383  1.2840
  194MOL0     H26133   9.758   0.786   7.244  1.6047  0.8639  0.4944
  194MOL0     H26134   9.691   0.659   7.342 -1.3753  0.4189  0.0197
  194MOL0     H26135   9.638   0.848   7.476 -0.2801  0.9330 -0.1599
  194MOL0     H26136   9.786   0.774   7.543 -0.8938  0.0706  1.4268
  194MOL0     H26137   9.727   1.040   7.440 -0.7925 -1.4671  1.5890
  194MOL0     H26138   9.871   0.960   7.361 -1.5330  0.2506 -1.2049
  194MOL0     H26139   9.900   1.117   7.568  1.2338  0.2252 -1.0657
  194MOL0     H26140   9.820   0.988   7.656  1.2199 -1.3955  0.9941
  194MOL0     H26141  10.104   0.957   7.384 -1.0041  2.9677  0.3757
  194MOL0     H26142  10.346   0.705   7.506  0.6559  0.0190  1.3849
  194MOL0     H26143  10.370   0.847   7.401  0.2971  2.4376  0.7797
  194MOL0     H26144  10.473   0.960   7.589  2.2760 -0.3396 -1.6501
  194MOL0     H26145  10.450   0.822   7.700 -0.1423  2.2114  1.4802
  194MOL0     H26146  10.683   0.856   7.600 -2.5056  3.5227  0.5354
  194MOL0     H26147  10.604   0.810   7.438 -0.1405 -1.5797  0.8560
  194MOL0     H26148  10.698   0.614   7.494  0.1710 -1.4540  0.2797
  194MOL0     H26149  10.527   0.604   7.544 -0.5271  0.1859 -1.7638
  194MOL0     H26150  10.768   0.429   7.554  4.2231  2.6340  1.6839
  194MOL0     H26151  10.830   0.205   7.636 -0.0945  0.4093 -0.5213
  194MOL0     H26152  10.543  -0.069   8.080  0.6591  2.7562  1.5346
  194MOL0     H26153  10.560  -0.305   8.171  1.3872 -3.6897  0.9831
  194MOL0     H26154  10.684  -0.420   8.425  0.1069  0.1489  0.5792
  194MOL0     H26155  10.597  -0.483   8.276 -1.6312 -1.8275  2.7553
  194MOL0     H26156  10.727  -0.670   8.270  2.0714 -1.4239  0.0648
  194MOL0     H26157  10.821  -0.612   8.416  0.6568  0.5302  0.3085
  194MOL0     H26158  10.636  -0.632   8.544  1.9699  0.7320 -0.7995
  194MOL0     H26159  10.519  -0.661   8.411  0.8396  1.9564  0.2357
  194MOL0     H26160  10.577  -0.873   8.532 -1.3749  1.8269  0.8440
  194MOL0     H26161  10.731  -0.852   8.462 -1.4699 -4.2956  0.8802
  194MOL0     H26162  10.617  -0.876   8.225  2.5846 -1.1866  1.1619
  194MOL0     H26163  10.463  -0.858   8.315  1.2711  2.5480 -1.6341
  194MOL0     H26164  10.656  -1.087   8.347  1.0691  2.2434  1.0812
  194MOL0     H26165  10.493  -1.066   8.426 -2.8471  2.3325 -1.5845
  194MOL0     H26166  10.552  -1.096   8.126  0.2890 -0.3926  1.4429
  194MOL0     H26167  10.391  -1.064   8.187 -0.1912  0.0747 -0.2473
  194MOL0     H26168  10.369  -1.264   8.281  0.1278  2.2001  1.2898
  194MOL0     H26169  10.433  -1.289   8.115 -1.3939 -0.0009  0.1124
  194MOL0     H26170  10.992  -0.264   8.167  1.1262  2.6852  2.0286
  194MOL0     H26171  10.973  -0.045   8.082  0.3855  0.0761 -1.3367
  194MOL0     H26172  10.696   0.324   8.031  4.1691  0.0597 -0.2013
  194MOL0     H26173  10.647   0.553   7.942 -0.1576  1.5802 -1.1910
  194MOL0     H26174  10.080   0.116   7.183 -0.0819 -1.2998 -0.1015
  194MOL0     H26175   9.874  -0.003   7.111  1.3074 -1.2752 -1.3996
  194MOL0     H26176   9.677  -0.148   6.846 -1.3701 -1.4181  3.2138
  194MOL0     H26177   9.593  -0.328   6.721  1.6669  0.5504  1.7714
  194MOL0     H26178   9.512  -0.448   6.593  0.8551  0.9734 -2.1263
  194MOL0     H26179   9.437  -0.416   6.434  1.9125  1.7963  0.1101
  194MOL0     H26180   9.297  -0.567   6.657  1.7519 -0.7857  1.0424
  194MOL0     H26181   9.388  -0.649   6.529 -1.3700 -1.3549 -0.1965
  194MOL0     H26182   9.255  -0.565   6.346  0.9491  4.0970 -1.0378
  194MOL0     H26183   9.202  -0.438   6.425  1.1757  0.4795 -0.8068
  194MOL0     H26184   9.045  -0.596   6.589 -3.2428 -3.5647 -1.3897
  194MOL0     H26185   9.008  -0.569   6.423  0.1189  0.6108  0.9464
  194MOL0     H26186   9.114  -0.984   6.469  3.6388  0.1101 -0.4485
  194MOL0     H26187   9.230  -0.086   6.656 -1.2495  0.3105  0.4601
  194MOL0     H26188   9.322   0.189   6.695  0.7648  0.8354  1.1638
  194MOL0     H26189   9.191   0.111   6.778  0.7121  0.2377 -2.4880
  194MOL0     H26190   9.326   0.187   6.877 -0.1990  0.6282 -0.0942
  195MOL0     O26191   0.651   1.232   4.813  1.0139  0.4990 -0.3549
  195MOL0     C26192   0.727   1.135   4.824  0.1426  0.8243 -0.5402
  195MOL0     O26193   0.698   1.005   4.828  0.6940 -0.6363 -0.2213
  195MOL0     C26194   0.570   0.953   4.825 -0.8101 -0.9317 -1.0581
  195MOL0     C26195   0.557   0.826   4.788  0.0735 -0.8055  0.8358
  195MOL0     C26196   0.431   0.760   4.792  0.3853 -0.2462 -0.2393
  195MOL0     C26197   0.315   0.823   4.825 -0.1244 -0.1722 -0.4117
  195MOL0     O26198   0.199   0.751   4.816 -0.6334 -0.6383 -0.4124
  195MOL0     C26199   0.081   0.814   4.869 -0.2663  0.8983  0.1395
  195MOL0     C26200  -0.031   0.718   4.846  0.8194 -0.5754 -0.5136
  195MOL0     C26201  -0.149   0.798   4.782 -0.3558  0.1616  0.5947
  195MOL0     C26202  -0.270   0.727   4.778  0.1538  1.4993  0.4915
  195MOL0     C26203  -0.400   0.805   4.768 -0.2933  0.1155  0.2739
  195MOL0     C26204  -0.442   0.896   4.890 -0.5119 -0.0281 -0.0296
  195MOL0     C26205  -0.420   0.834   5.031 -0.2326 -0.2435  0.7299
  195MOL0     C26206  -0.402   0.958   5.134 -0.5030  0.0392  0.2579
  195MOL0     N26207  -0.268   1.019   5.111 -0.2240  0.1452  0.2664
  195MOL0     C26208  -0.241   1.143   5.086 -0.1188 -0.0735 -0.8840
  195MOL0     C26209  -0.109   1.157   5.091 -0.7073 -0.0151 -0.8566
  195MOL0     C26210  -0.048   1.300   5.082 -0.4946  0.1416  0.1886
  195MOL0     C26211   0.098   1.307   5.134 -0.6214 -0.9974  0.3557
  195MOL0     C26212   0.185   1.392   5.031  0.5015  1.0212 -0.5142
  195MOL0     C26213   0.333   1.410   5.067 -0.0426  0.1577  0.4542
  195MOL0     O26214   0.397   1.282   5.095 -0.4207  0.4227  0.7302
  195MOL0     C26215   0.525   1.285   5.146 -0.6579 -0.0899 -0.4032
  195MOL0     C26216   0.603   1.403   5.160 -0.0697  0.7476  0.0853
  195MOL0     C26217   0.743   1.404   5.194  0.2204  0.6641 -0.2985
  195MOL0     C26218   0.806   1.280   5.204  0.0308 -0.5507 -1.5229
  195MOL0     C26219   0.948   1.274   5.236  0.6981  0.1876 -1.0312
  195MOL0     O26220   1.010   1.161   5.239  0.3569 -0.0641 -0.4784
  195MOL0     C26221   1.142   1.153   5.286  0.3692  0.7197  0.3115
  195MOL0     C26222   1.197   1.209   5.401 -0.6935 -0.2921  0.6363
  195MOL0     C26223   1.341   1.191   5.428  0.0864 -0.2429 -0.3040
  195MOL0     C26224   1.424   1.111   5.339  0.1507 -0.7828 -0.5619
  195MOL0     O26225   1.547   1.087   5.381 -0.7552 -0.2107 -0.4789
  195MOL0     C26226   1.605   0.973   5.311  0.2654 -0.1262 -0.7256
  195MOL0     C26227   1.709   0.913   5.408 -0.5642  1.2657  0.2057
  195MOL0     C26228   1.798   0.793   5.360  0.5573  0.4968  0.1940
  195MOL0     C26229   1.891   0.739   5.466 -0.0621  1.0854  0.1607
  195MOL0     C26230   1.976   0.620   5.420  0.2716  0.5729  0.8613
  195MOL0     C26231   2.103   0.654   5.334 -0.3876 -0.1449  0.5757
  195MOL0     C26232   2.165   0.522   5.281 -0.8718  0.4071 -0.2505
  195MOL0     C26233   2.314   0.529   5.223 -0.3422 -0.0782  0.3207
  195MOL0    Cl26234   2.292   0.647   5.086 -0.1360  0.0571  0.0956
  195MOL0     C26235   1.354   1.050   5.238 -0.0982  0.3358  0.2009
  195MOL0     C26236   1.219   1.070   5.203  0.0319  0.7756  0.0942
  195MOL0     O26237   1.004   1.383   5.258  0.3585  0.6246  0.3252
  195MOL0     C26238   0.731   1.163   5.195 -0.4601 -0.2431 -0.2038
  195MOL0     C26239   0.596   1.160   5.173  0.1838  0.1701 -0.6481
  195MOL0     N26240  -0.056   1.034   5.105 -0.1658  0.5422  0.6389
  195MOL0     N26241  -0.154   0.950   5.121 -0.0778  0.0774  0.4022
  195MOL0     C26242   0.331   0.959   4.868  0.4527  0.9800 -0.3299
  195MOL0     C26243   0.457   1.018   4.870 -0.1870 -0.0386 -0.0210
  195MOL0     C26244   0.869   1.181   4.864  0.3382 -1.0415 -0.3475
  195MOL0     C26245   0.893   1.323   4.875 -0.3704  0.0385 -0.1155
  195MOL0     C26246   1.021   1.376   4.908 -0.2808  0.1048 -0.7503
  195MOL0     C26247   1.122   1.280   4.937  0.3914 -0.0417 -0.8639
  195MOL0     O26248   1.254   1.305   4.972 -0.6195  1.1490  0.6803
  195MOL0     C26249   1.290   1.428   5.032  0.6299  0.3277  0.7483
  195MOL0     C26250   1.430   1.413   5.096 -0.2809 -0.1445  0.2318
  195MOL0     C26251   1.554   1.379   5.010 -0.2446 -0.0758 -0.7529
  195MOL0     C26252   1.612   1.497   4.925 -0.0164  0.1439  0.3662
  195MOL0     C26253   1.553   1.504   4.789 -0.0820  0.1573 -0.3599
  195MOL0     C26254   1.501   1.511   4.681 -0.7880  0.3452 -0.0322
  195MOL0     C26255   1.099   1.152   4.906  1.3333  0.8312  0.0993
  195MOL0     C26256   0.978   1.091   4.874 -0.5417 -0.3713 -0.4639
  195MOL0     C26257   0.976   0.940   4.848  0.9914 -0.0462  0.5003
  195MOL0     H26258   0.640   0.769   4.748 -0.6350 -0.1968 -1.6669
  195MOL0     H26259   0.432   0.659   4.755  1.2167 -0.0852 -0.6839
  195MOL0     H26260   0.086   0.832   4.976  0.9994  0.4307  0.1761
  195MOL0     H26261   0.065   0.909   4.817 -1.7407 -0.3008 -1.7438
  195MOL0     H26262  -0.060   0.668   4.938  1.5811 -1.3949 -0.7016
  195MOL0     H26263  -0.005   0.640   4.773  1.6033 -2.4078  1.6087
  195MOL0     H26264  -0.125   0.815   4.676  0.8491 -0.5429  0.7401
  195MOL0     H26265  -0.164   0.883   4.849  0.8154 -1.4087  2.9744
  195MOL0     H26266  -0.271   0.666   4.687 -4.6028  1.2991  0.4193
  195MOL0     H26267  -0.280   0.658   4.862  1.1562  1.1062  0.3024
  195MOL0     H26268  -0.393   0.875   4.685  2.4008  1.1867  1.2762
  195MOL0     H26269  -0.480   0.738   4.738 -1.7670  2.1055 -0.4507
  195MOL0     H26270  -0.380   0.986   4.888  1.1673 -1.1250  0.1156
  195MOL0     H26271  -0.546   0.926   4.876 -0.3245  1.3522  1.2369
  195MOL0     H26272  -0.331   0.770   5.027  0.2501  0.4749 -0.2969
  195MOL0     H26273  -0.503   0.771   5.065  0.7629 -0.4606  2.9016
  195MOL0     H26274  -0.485   1.030   5.131  0.1264  0.7543 -1.0003
  195MOL0     H26275  -0.403   0.913   5.233 -1.2144  1.8538  1.1279
  195MOL0     H26276  -0.316   1.222   5.081  1.1384  1.2614  0.3577
  195MOL0     H26277  -0.047   1.324   4.975  1.8773  0.2594  0.1787
  195MOL0     H26278  -0.112   1.374   5.130 -0.4358 -0.5769  1.4163
  195MOL0     H26279   0.096   1.340   5.238 -1.3349 -2.2423  0.7590
  195MOL0     H26280   0.146   1.208   5.141  1.4838  0.0486  1.6943
  195MOL0     H26281   0.143   1.493   5.030 -1.3325  0.3494  1.0817
  195MOL0     H26282   0.189   1.340   4.935 -1.3051 -1.4002  0.6067
  195MOL0     H26283   0.338   1.470   5.158 -1.6647 -1.7796  1.9265
  195MOL0     H26284   0.386   1.473   4.995 -0.1867  2.6062  2.3674
  195MOL0     H26285   0.565   1.502   5.138  3.2382  1.4976 -3.2693
  195MOL0     H26286   0.801   1.493   5.215  1.0935 -0.1087  0.6053
  195MOL0     H26287   1.148   1.268   5.478  0.8146 -0.3644  1.6939
  195MOL0     H26288   1.399   1.226   5.512 -0.5546 -2.4121  1.1194
  195MOL0     H26289   1.536   0.891   5.289  1.0982 -1.4746  1.3632
  195MOL0     H26290   1.650   1.010   5.219  0.1481  1.9516 -0.0046
  195MOL0     H26291   1.781   0.991   5.434  2.7355 -0.1360 -3.6256
  195MOL0     H26292   1.669   0.891   5.507  1.0329 -1.2512  0.3881
  195MOL0     H26293   1.730   0.716   5.321 -0.7542  1.5271  0.3457
  195MOL0     H26294   1.859   0.828   5.276  0.5926 -2.0165 -0.9318
  195MOL0     H26295   1.825   0.724   5.553 -1.9355  0.5976 -1.2700
  195MOL0     H26296   1.961   0.817   5.494 -0.3873  3.4999 -4.7164
  195MOL0     H26297   1.906   0.571   5.352 -0.4513  2.9461 -0.2107
  195MOL0     H26298   2.004   0.560   5.507 -0.0143  2.3968  2.2706
  195MOL0     H26299   2.066   0.700   5.241  0.1476 -0.1996  0.3342
  195MOL0     H26300   2.185   0.710   5.379 -0.4103  0.9336 -0.6403
  195MOL0     H26301   2.094   0.475   5.213 -0.7983 -1.6016  0.9706
  195MOL0     H26302   2.176   0.440   5.353  3.7893 -0.5123 -1.6703
  195MOL0     H26303   2.382   0.569   5.299 -1.5911  1.4351  0.6926
  195MOL0     H26304   2.347   0.430   5.189 -0.1970 -0.5678  1.7804
  195MOL0     H26305   1.408   0.974   5.182  1.1623 -2.3219  4.5131
  195MOL0     H26306   1.186   1.021   5.112  1.9620 -2.4353  0.9452
  195MOL0     H26307   0.788   1.071   5.209  1.5032  0.6470 -1.8091
  195MOL0     H26308   0.531   1.073   5.168  2.0498 -1.4471  1.3738
  195MOL0     H26309   0.252   1.025   4.903  1.3780  1.4883  0.9055
  195MOL0     H26310   0.460   1.120   4.906 -2.4018 -0.4234  1.4118
  195MOL0     H26311   0.817   1.399   4.856  0.4606  0.4871 -1.9147
  195MOL0     H26312   1.040   1.483   4.918 -0.1652 -0.1133  1.9657
  195MOL0     H26313   1.225   1.438   5.119  1.0157 -0.5092  1.1401
  195MOL0     H26314   1.289   1.519   4.970  1.2262 -0.1614  0.0074
  195MOL0     H26315   1.414   1.338   5.174  1.1168  0.1655  0.8530
  195MOL0     H26316   1.452   1.507   5.149 -0.9518 -1.5700  3.2610
  195MOL0     H26317   1.541   1.285   4.957  2.2032 -2.2343  2.1020
  195MOL0     H26318   1.622   1.361   5.094 -2.4144 -3.0730  0.5762
  195MOL0     H26319   1.591   1.593   4.973  2.3023 -0.2363  2.3440
  195MOL0     H26320   1.722   1.502   4.923 -0.0163  0.1020 -1.0411
  195MOL0     H26321   1.455   1.482   4.589  3.1287 -1.1284 -1.7497
  195MOL0     H26322   1.188   1.091   4.912  0.7128 -0.8018 -3.9110
  195MOL0     H26323   0.938   0.881   4.931  0.3144 -0.4766 -0.1044
  195MOL0     H26324   0.925   0.921   4.753  0.8433  1.6758  0.1982
  195MOL0     H26325   1.078   0.905   4.829  1.7123  0.6992  2.6556
  196MOL0     O26326   5.696   9.489   7.040 -0.2391  0.3010 -0.3853
  196MOL0     C26327   5.720   9.551   6.941  0.0547  0.4809  0.5161
  196MOL0     O26328   5.627   9.615   6.864 -0.4186  0.5476 -0.0654
  196MOL0     C26329   5.499   9.644   6.908 -0.0085 -0.4927 -0.0638
  196MOL0     C26330   5.398   9.558   6.859  0.3430  0.5459  0.2090
  196MOL0     C26331   5.268   9.590   6.886  0.0220 -0.3763  0.1994
  196MOL0     C26332   5.232   9.711   6.955  0.7446  1.0120  0.0422
  196MOL0     O26333   5.104   9.749   6.987 -0.0278  0.9726 -0.4294
  196MOL0     C26334   5.000   9.669   6.934  0.1684  0.3968  0.2196
  196MOL0     C26335   4.958   9.706   6.793 -0.3149 -0.3814  0.5616
  196MOL0     C26336   4.845   9.619   6.731  0.3791  0.2491  0.0987
  196MOL0     C26337   4.709   9.635   6.807  0.3332 -0.8294 -0.6973
  196MOL0     C26338   4.609   9.532   6.737 -0.1922 -0.0801 -0.1854
  196MOL0     C26339   4.538   9.594   6.621 -0.3344  1.1574 -0.2640
  196MOL0     C26340   4.415   9.508   6.582 -0.3131 -0.2112  0.6431
  196MOL0     C26341   4.306   9.531   6.685  0.0996  0.2859  0.1397
  196MOL0     N26342   4.172   9.540   6.617  0.1528  0.0597 -0.7576
  196MOL0     C26343   4.123   9.649   6.553 -0.1149  0.4693  0.0387
  196MOL0     C26344   3.998   9.627   6.518 -0.2628 -0.6005 -0.7965
  196MOL0     C26345   3.914   9.723   6.439 -0.5801  0.0413 -0.0423
  196MOL0     C26346   3.895   9.856   6.516 -0.0859  0.3875  0.8109
  196MOL0     C26347   3.825   9.959   6.431  1.0020 -0.1643 -0.2983
  196MOL0     C26348   3.800  10.095   6.504  0.2504 -0.0315 -0.8290
  196MOL0     O26349   3.915  10.151   6.567 -0.5864 -0.3494 -0.2568
  196MOL0     C26350   4.005  10.237   6.492  0.8986  0.4191  0.0910
  196MOL0     C26351   4.131  10.276   6.544 -0.8089 -0.3737  0.9119
  196MOL0     C26352   4.224  10.360   6.475 -0.0950 -0.2724 -0.1779
  196MOL0     C26353   4.196  10.393   6.335 -0.2993 -1.1943 -0.6294
  196MOL0     C26354   4.295  10.481   6.265 -0.2294 -0.1110 -0.4015
  196MOL0     O26355   4.410  10.508   6.317 -0.6852  0.7489 -0.1136
  196MOL0     C26356   4.507  10.544   6.230  0.0518  0.3852  0.2138
  196MOL0     C26357   4.549  10.472   6.110  0.7006 -0.2240 -0.7907
  196MOL0     C26358   4.649  10.524   6.029  0.2905  0.4905  0.2308
  196MOL0     C26359   4.718  10.641   6.071  0.1182 -0.8853 -0.3547
  196MOL0     O26360   4.821  10.678   5.994  0.1621 -0.7316 -0.6456
  196MOL0     C26361   4.938  10.744   6.058 -0.5367  0.4277 -0.7390
  196MOL0     C26362   5.059  10.717   5.956 -0.9006  0.4289 -0.4595
  196MOL0     C26363   5.198  10.749   6.012  0.8809  0.3358 -0.6111
  196MOL0     C26364   5.299  10.802   5.911 -0.8914  0.1514  0.1486
  196MOL0     C26365   5.453  10.792   5.961 -0.3323  1.0163  1.4477
  196MOL0     C26366   5.491  10.877   6.078 -1.0099  1.0614 -0.3848
  196MOL0     C26367   5.637  10.859   6.122  0.4589  0.1292 -0.4736
  196MOL0     C26368   5.658  10.914   6.262  0.2306 -0.3651 -0.1519
  196MOL0    Cl26369   5.662  11.092   6.249 -0.5667 -0.0697  0.1629
  196MOL0     C26370   4.670  10.710   6.180 -0.2787 -0.4037  0.6351
  196MOL0     C26371   4.574  10.658   6.261  0.8131  0.0922  0.2249
  196MOL0     O26372   4.261  10.522   6.153  0.7358 -0.4868 -0.0139
  196MOL0     C26373   4.077  10.346   6.279 -1.3605 -0.3770  0.0492
  196MOL0     C26374   3.984  10.283   6.361  0.7144  0.6441 -0.9819
  196MOL0     N26375   3.960   9.504   6.569 -0.3838  0.2568 -0.2126
  196MOL0     N26376   4.063   9.459   6.637 -0.5500 -0.2264 -0.6336
  196MOL0     C26377   5.329   9.804   6.996 -0.5770 -0.0565  0.7485
  196MOL0     C26378   5.469   9.767   6.985 -0.1459  0.8518 -0.1691
  196MOL0     C26379   5.855   9.536   6.894 -0.2017  0.0656 -0.4308
  196MOL0     C26380   5.877   9.503   6.759 -0.4732 -0.0245  0.4068
  196MOL0     C26381   6.005   9.504   6.706  0.1590  0.0812  0.4293
  196MOL0     C26382   6.119   9.531   6.780  0.5544  0.0137 -0.5788
  196MOL0     O26383   6.240   9.517   6.720 -0.8426 -0.6479 -0.2838
  196MOL0     C26384   6.351   9.566   6.789 -0.0853 -0.1326 -0.6871
  196MOL0     C26385   6.367   9.712   6.784 -0.0006  0.0521  0.1543
  196MOL0     C26386   6.387   9.763   6.642  0.6499  0.0641  0.7970
  196MOL0     C26387   6.369   9.911   6.618  0.6259  0.8506 -0.5290
  196MOL0     C26388   6.431   9.949   6.493 -0.1385  0.0498  0.0714
  196MOL0     C26389   6.494   9.976   6.394  0.8819  0.4140  0.2962
  196MOL0     C26390   6.096   9.557   6.916 -0.1317 -0.3717  0.6184
  196MOL0     C26391   5.967   9.563   6.977  0.0492  0.1908 -0.6375
  196MOL0     C26392   5.957   9.592   7.127  0.1968 -0.1648 -0.2774
  196MOL0     H26393   5.429   9.481   6.790 -3.1919  0.3154 -1.3042
  196MOL0     H26394   5.194   9.532   6.831  0.1332 -0.6657  0.3499
  196MOL0     H26395   5.027   9.563   6.941 -4.0200 -0.9002 -0.7229
  196MOL0     H26396   4.918   9.694   7.002 -0.9805 -0.2426 -0.8848
  196MOL0     H26397   5.046   9.709   6.729 -1.6741  0.4139 -1.3702
  196MOL0     H26398   4.925   9.810   6.791  3.6413  1.0470  1.1634
  196MOL0     H26399   4.876   9.514   6.735  2.3139  0.7671  0.1341
  196MOL0     H26400   4.838   9.654   6.627 -0.1116  1.1014  0.4135
  196MOL0     H26401   4.720   9.610   6.913 -3.1932  0.6883  0.1628
  196MOL0     H26402   4.675   9.738   6.819  1.5766 -0.5900  1.3669
  196MOL0     H26403   4.670   9.448   6.703 -0.1084  0.4381 -1.3500
  196MOL0     H26404   4.534   9.496   6.809 -0.3927 -1.0292 -0.8519
  196MOL0     H26405   4.498   9.691   6.650 -0.9407  1.2844 -1.4856
  196MOL0     H26406   4.607   9.614   6.540  0.7522  0.7038  0.5212
  196MOL0     H26407   4.453   9.407   6.562  0.0318  0.2479 -1.1616
  196MOL0     H26408   4.375   9.548   6.489  0.4940  1.9613  1.1811
  196MOL0     H26409   4.300   9.452   6.761  3.2645 -0.2338  0.0014
  196MOL0     H26410   4.330   9.617   6.748 -1.6078  1.2496 -0.4527
  196MOL0     H26411   4.187   9.735   6.534 -0.7461  0.9847  0.2154
  196MOL0     H26412   3.949   9.750   6.339 -1.7838 -1.9804 -1.0661
  196MOL0     H26413   3.821   9.668   6.427 -0.7917 -0.7728  3.9688
  196MOL0     H26414   3.838   9.836   6.607 -0.8366  0.2063  0.3100
  196MOL0     H26415   3.993   9.898   6.541 -0.9561  2.0342  1.5898
  196MOL0     H26416   3.725   9.929   6.399 -0.6965  3.0823  1.5890
  196MOL0     H26417   3.890   9.975   6.344  1.2516  1.9597  0.2370
  196MOL0     H26418   3.723  10.072   6.577 -1.0927 -0.0123 -2.1885
  196MOL0     H26419   3.749  10.161   6.433  0.2902  1.3838  0.4115
  196MOL0     H26420   4.153  10.249   6.647 -3.0169  2.9013  2.4086
  196MOL0     H26421   4.314  10.400   6.521  0.2653 -0.8110 -0.3934
  196MOL0     H26422   4.513  10.372   6.087  1.7814 -0.3792 -1.8803
  196MOL0     H26423   4.685  10.475   5.940  2.1468  1.0046  0.6600
  196MOL0     H26424   4.917  10.851   6.068  0.2386  0.5425 -0.2439
  196MOL0     H26425   4.955  10.702   6.158 -4.1773  2.9189  1.1145
  196MOL0     H26426   5.055  10.612   5.925 -1.2790 -0.1261  1.3485
  196MOL0     H26427   5.049  10.763   5.857  1.6367 -3.3423 -2.7044
  196MOL0     H26428   5.188  10.816   6.097 -1.0648 -0.1202 -0.4502
  196MOL0     H26429   5.224  10.655   6.061 -3.2024 -1.1625 -0.9818
  196MOL0     H26430   5.269  10.905   5.891  0.2522  0.9077  2.1475
  196MOL0     H26431   5.292  10.750   5.815  2.8774 -0.9554  0.3154
  196MOL0     H26432   5.510  10.828   5.875 -1.3165  0.5264  0.5684
  196MOL0     H26433   5.478  10.687   5.980 -0.1187  0.7807  0.0121
  196MOL0     H26434   5.478  10.984   6.057  1.9712  1.6894  0.4343
  196MOL0     H26435   5.430  10.845   6.163  2.2649  1.8473  2.4879
  196MOL0     H26436   5.703  10.925   6.066  0.5102  0.9078  0.4744
  196MOL0     H26437   5.665  10.753   6.120  0.0000 -0.4324  5.0762
  196MOL0     H26438   5.579  10.880   6.330 -2.1464  4.9592  0.2514
  196MOL0     H26439   5.751  10.879   6.307  2.1060 -0.9217 -4.0918
  196MOL0     H26440   4.718  10.803   6.209  2.1815 -0.9941 -1.1490
  196MOL0     H26441   4.541  10.696   6.357 -1.2635  1.0885 -0.8015
  196MOL0     H26442   4.048  10.381   6.181  2.5545  1.0837 -0.7984
  196MOL0     H26443   3.887  10.277   6.312  2.5117 -0.6061 -4.7427
  196MOL0     H26444   5.298   9.898   7.040  1.8555  1.5251 -0.7018
  196MOL0     H26445   5.550   9.831   7.016  0.5228  0.3918 -0.9027
  196MOL0     H26446   5.785   9.478   6.706 -2.0224  2.6999  1.5660
  196MOL0     H26447   6.025   9.478   6.603 -0.4668 -1.2686  0.6226
  196MOL0     H26448   6.432   9.524   6.728  0.1775 -2.4917  1.1435
  196MOL0     H26449   6.354   9.532   6.893 -2.9712  0.6354 -0.2678
  196MOL0     H26450   6.459   9.733   6.839  0.8708  1.1917 -1.6468
  196MOL0     H26451   6.275   9.754   6.826 -1.0075 -1.5741 -0.3245
  196MOL0     H26452   6.321   9.698   6.584  1.3053 -3.1136  3.3279
  196MOL0     H26453   6.487   9.743   6.602  1.0327 -0.6087  2.0341
  196MOL0     H26454   6.263   9.937   6.620 -0.2920 -2.4300  2.2217
  196MOL0     H26455   6.420   9.959   6.702 -0.5203  1.0962  0.0578
  196MOL0     H26456   6.537   9.984   6.296 -0.0423 -1.0904 -0.2649
  196MOL0     H26457   6.181   9.577   6.981 -0.6080 -1.1970  1.5195
  196MOL0     H26458   5.919   9.506   7.182 -0.1955  1.0700  1.4683
  196MOL0     H26459   6.056   9.619   7.163 -0.0004  1.4791 -0.8844
  196MOL0     H26460   5.892   9.680   7.138  0.1465 -0.3500  1.1091
  197MOL0     O26461   8.447  10.043   2.925 -0.7486  0.7668  0.0773
  197MOL0     C26462   8.474  10.153   2.961 -0.9771 -0.1191 -0.5479
  197MOL0     O26463   8.390  10.261   2.943  0.1991 -0.2954  0.3173
  197MOL0     C26464   8.258  10.238   2.910  0.9462 -1.4563  0.4551
  197MOL0     C26465   8.167  10.212   3.012 -0.2360 -0.4415  0.0784
  197MOL0     C26466   8.033  10.188   2.976 -0.8633  0.4222 -0.1015
  197MOL0     C26467   7.989  10.186   2.844 -0.6170 -0.6728  0.3653
  197MOL0     O26468   7.859  10.176   2.807  0.0146 -0.7795 -0.1148
  197MOL0     C26469   7.751  10.229   2.891 -0.7261  0.0158 -0.5086
  197MOL0     C26470   7.635  10.262   2.800  0.7275  0.1360 -0.4842
  197MOL0     C26471   7.539  10.352   2.869  0.0675  0.3544 -0.6715
  197MOL0     C26472   7.428  10.391   2.774  0.2178 -0.0551 -0.4478
  197MOL0     C26473   7.326  10.486   2.835  0.8190  0.7079 -0.4798
  197MOL0     C26474   7.395  10.624   2.862  0.1558  0.5770  0.3199
  197MOL0     C26475   7.297  10.733   2.898 -0.0834 -0.1260 -0.0686
  197MOL0     C26476   7.365  10.874   2.887  0.4634  0.7791  0.0919
  197MOL0     N26477   7.489  10.890   2.971 -0.0913  0.4836 -0.3302
  197MOL0     C26478   7.504  10.894   3.109 -0.8706  0.6146  0.4360
  197MOL0     C26479   7.631  10.884   3.129 -0.3559 -0.2410 -0.0005
  197MOL0     C26480   7.691  10.899   3.267 -0.5198 -0.1241  0.2146
  197MOL0     C26481   7.833  10.965   3.268  0.4836 -0.1804 -0.6357
  197MOL0     C26482   7.851  11.050   3.396  0.4880  0.3020  0.4908
  197MOL0     C26483   7.986  11.110   3.432 -0.9681  0.5930 -0.2393
  197MOL0     O26484   8.081  10.999   3.439 -0.8596 -0.0100  0.3407
  197MOL0     C26485   8.102  10.934   3.556 -0.0439  0.2445 -0.2074
  197MOL0     C26486   8.223  10.864   3.563  0.3890  0.3962  0.3519
  197MOL0     C26487   8.261  10.795   3.677 -0.4790  1.0455 -1.0502
  197MOL0     C26488   8.179  10.799   3.785 -0.0713  0.5241 -0.8241
  197MOL0     C26489   8.216  10.738   3.916 -0.1854 -0.2637  0.1529
  197MOL0     O26490   8.347  10.697   3.932 -0.5292  0.3822 -0.5772
  197MOL0     C26491   8.367  10.596   4.021  1.0853 -0.1683 -0.1467
  197MOL0     C26492   8.277  10.493   4.051  0.5327  0.2889 -1.0084
  197MOL0     C26493   8.310  10.393   4.147 -0.0643  0.5320  1.1067
  197MOL0     C26494   8.444  10.401   4.198  0.2777 -0.1895  0.5229
  197MOL0     O26495   8.496  10.308   4.285 -0.6004  0.0258 -0.4244
  197MOL0     C26496   8.412  10.220   4.361 -0.3756 -0.4125  0.5918
  197MOL0     C26497   8.369  10.104   4.274  0.1846  0.2352 -0.7193
  197MOL0     C26498   8.327   9.980   4.352 -0.8226  0.4379  0.2634
  197MOL0     C26499   8.442   9.880   4.371 -0.6350  0.2019  0.3937
  197MOL0     C26500   8.417   9.778   4.485  0.7273 -0.0777  0.8562
  197MOL0     C26501   8.320   9.672   4.444  0.2720  0.1292  0.2024
  197MOL0     C26502   8.290   9.571   4.563  0.3751 -0.3003 -0.3623
  197MOL0     C26503   8.153   9.493   4.547 -0.0119  0.2655 -0.4028
  197MOL0    Cl26504   8.020   9.603   4.578  0.9694  0.0042  0.2253
  197MOL0     C26505   8.535  10.508   4.154 -0.1327  0.3431 -0.1881
  197MOL0     C26506   8.493  10.603   4.071  0.4076 -0.2088  0.1164
  197MOL0     O26507   8.128  10.739   4.002 -0.7276  0.5463  0.4036
  197MOL0     C26508   8.056  10.873   3.778 -0.1047  0.1257  0.9208
  197MOL0     C26509   8.025  10.942   3.663 -0.1713 -0.7455  0.4056
  197MOL0     N26510   7.700  10.840   3.020 -0.4845  0.0546  1.2511
  197MOL0     N26511   7.613  10.853   2.923 -0.0886  0.6243  0.2908
  197MOL0     C26512   8.079  10.217   2.742 -1.1459  0.1722 -0.1191
  197MOL0     C26513   8.207  10.252   2.777 -0.0677  0.2263 -0.3623
  197MOL0     C26514   8.608  10.195   3.017 -0.2999  0.1302 -0.6570
  197MOL0     C26515   8.645  10.329   2.994 -0.0158  0.6316 -0.1897
  197MOL0     C26516   8.779  10.366   3.013 -0.0942  0.4693 -0.0058
  197MOL0     C26517   8.875  10.280   3.068 -0.8965  0.3225 -0.0716
  197MOL0     O26518   9.011  10.309   3.076  0.7786  0.2715 -0.0332
  197MOL0     C26519   9.042  10.453   3.063  0.1763  0.3325  0.0070
  197MOL0     C26520   9.184  10.468   3.105 -0.0785  0.6051  0.6854
  197MOL0     C26521   9.210  10.439   3.256 -0.2859 -0.0517 -0.4107
  197MOL0     C26522   9.341  10.496   3.322 -0.4878 -0.0390 -0.5652
  197MOL0     C26523   9.340  10.643   3.310 -0.3494 -0.3133 -0.8091
  197MOL0     C26524   9.326  10.760   3.314 -0.4637 -0.6765  0.6510
  197MOL0     C26525   8.839  10.152   3.098  0.5076  1.4213 -0.6582
  197MOL0     C26526   8.709  10.102   3.072  0.2783 -0.1449  0.1498
  197MOL0     C26527   8.681   9.955   3.091 -0.0246 -1.4139 -0.5032
  197MOL0     H26528   8.205  10.199   3.113 -0.1761 -2.0696 -0.1217
  197MOL0     H26529   7.963  10.178   3.058 -0.6917  0.2942  0.0275
  197MOL0     H26530   7.727  10.156   2.969 -1.2632  2.1331  1.3923
  197MOL0     H26531   7.781  10.315   2.951 -3.4282 -0.0953  1.1700
  197MOL0     H26532   7.591  10.174   2.752 -0.3871  1.5374 -2.1690
  197MOL0     H26533   7.668  10.316   2.711 -1.8887  0.5377 -1.3194
  197MOL0     H26534   7.594  10.430   2.922  1.4477 -0.1587 -1.2881
  197MOL0     H26535   7.489  10.297   2.949  1.6850 -0.4586 -0.1705
  197MOL0     H26536   7.462  10.451   2.689 -0.7359 -1.1087 -1.6041
  197MOL0     H26537   7.379  10.299   2.740 -0.5963 -1.0182  2.9182
  197MOL0     H26538   7.246  10.498   2.762  1.8259 -1.7398 -2.1551
  197MOL0     H26539   7.289  10.445   2.929  0.4966 -0.6055 -1.1476
  197MOL0     H26540   7.478  10.613   2.933 -2.3253  0.3305  3.3488
  197MOL0     H26541   7.445  10.665   2.773 -0.3384  1.0988  0.2770
  197MOL0     H26542   7.260  10.722   3.000  0.0247  0.6764  0.0709
  197MOL0     H26543   7.216  10.736   2.825  1.6192  3.7915 -2.1497
  197MOL0     H26544   7.386  10.895   2.782  3.2845  0.6976  0.5419
  197MOL0     H26545   7.295  10.950   2.919  0.1547  0.4933  0.0994
  197MOL0     H26546   7.424  10.890   3.182 -0.7754 -0.4866  0.4955
  197MOL0     H26547   7.620  10.966   3.317 -0.0437  2.1211 -1.9415
  197MOL0     H26548   7.694  10.799   3.313 -1.9510 -0.5763 -0.6090
  197MOL0     H26549   7.907  10.885   3.263  2.0921  1.0275  1.7270
  197MOL0     H26550   7.835  11.026   3.178  0.7934 -0.4964 -0.8448
  197MOL0     H26551   7.809  10.987   3.475  0.4158  0.8672  0.9104
  197MOL0     H26552   7.779  11.131   3.390  0.7411  0.6287  1.6195
  197MOL0     H26553   7.979  11.172   3.522  3.6558  2.9967 -1.1981
  197MOL0     H26554   8.019  11.180   3.354  2.3436  1.2127  1.5521
  197MOL0     H26555   8.279  10.871   3.471 -0.9616  3.5098 -0.3427
  197MOL0     H26556   8.361  10.755   3.687 -1.1377 -0.3087  0.4934
  197MOL0     H26557   8.178  10.484   4.007 -0.1620 -0.4424  0.6315
  197MOL0     H26558   8.231  10.322   4.170 -0.4408 -0.1027 -1.8347
  197MOL0     H26559   8.478  10.175   4.436 -0.4379 -3.4710 -1.0302
  197MOL0     H26560   8.323  10.269   4.400 -0.1460  0.1228  0.4484
  197MOL0     H26561   8.288  10.131   4.206  2.4284 -0.7766 -4.0787
  197MOL0     H26562   8.451  10.081   4.206  1.1628  1.9927 -0.1921
  197MOL0     H26563   8.308  10.012   4.455  0.5615 -1.0449  1.0130
  197MOL0     H26564   8.245   9.925   4.305  1.6095 -1.1230 -2.4758
  197MOL0     H26565   8.533   9.939   4.386  0.1287 -1.3532  2.3321
  197MOL0     H26566   8.458   9.818   4.283 -1.5177  1.7964 -0.9404
  197MOL0     H26567   8.383   9.836   4.571 -0.0616  1.0348 -0.1715
  197MOL0     H26568   8.517   9.738   4.507  0.9705 -1.4674 -2.2145
  197MOL0     H26569   8.227   9.721   4.412  1.1310  0.0502 -2.6687
  197MOL0     H26570   8.372   9.626   4.360  0.2618 -0.6328  0.6105
  197MOL0     H26571   8.295   9.631   4.654 -1.0805 -1.3470  0.4231
  197MOL0     H26572   8.376   9.505   4.576  0.1072 -0.5293  0.2497
  197MOL0     H26573   8.151   9.452   4.446  2.0195 -1.1011  0.0572
  197MOL0     H26574   8.149   9.419   4.627  2.7071  2.6807  2.2232
  197MOL0     H26575   8.638  10.504   4.189 -0.3727  0.7894  0.5953
  197MOL0     H26576   8.553  10.682   4.029 -0.0044 -0.6990 -1.4389
  197MOL0     H26577   7.986  10.891   3.860 -2.2058 -2.7318 -0.0641
  197MOL0     H26578   7.935  11.003   3.664  0.3486  0.2463 -2.5996
  197MOL0     H26579   8.044  10.219   2.639  1.8930  0.4062 -1.2585
  197MOL0     H26580   8.274  10.271   2.695  1.5955  1.5386  1.2230
  197MOL0     H26581   8.572  10.398   2.953  0.3241  1.2047  0.1657
  197MOL0     H26582   8.808  10.465   2.978  0.0554 -0.7540 -3.7177
  197MOL0     H26583   8.990  10.515   3.135  3.0088  1.4098  1.2648
  197MOL0     H26584   9.025  10.489   2.961 -1.5384 -1.3592 -0.3772
  197MOL0     H26585   9.212  10.572   3.085  1.9898 -0.1753 -0.8823
  197MOL0     H26586   9.245  10.401   3.045 -2.3888 -0.5690 -0.4773
  197MOL0     H26587   9.219  10.332   3.276  2.4527  0.0143 -0.8408
  197MOL0     H26588   9.131  10.475   3.322  1.0754 -0.4242  1.5144
  197MOL0     H26589   9.341  10.466   3.427 -0.1001  3.1534  0.4480
  197MOL0     H26590   9.430  10.449   3.281 -0.2010 -0.0600  0.0833
  197MOL0     H26591   9.316  10.866   3.308  0.6587 -0.6493 -2.4387
  197MOL0     H26592   8.903  10.076   3.142 -0.8635 -0.9388 -2.5016
  197MOL0     H26593   8.754   9.913   3.162  0.7627 -0.0430 -0.4651
  197MOL0     H26594   8.583   9.952   3.138  0.2845 -1.5748  0.1549
  197MOL0     H26595   8.670   9.896   3.000 -1.5568 -4.1343  1.2889
  198MOL0     O26596   8.458   2.754   5.769  0.9748  0.1225  0.2353
  198MOL0     C26597   8.450   2.696   5.662 -0.3924 -0.2190 -0.5268
  198MOL0     O26598   8.555   2.620   5.610  0.3279 -0.3372  0.2793
  198MOL0     C26599   8.660   2.586   5.684  0.1585 -0.6826  0.2307
  198MOL0     C26600   8.665   2.490   5.770 -1.3451  0.3841 -0.3401
  198MOL0     C26601   8.782   2.477   5.860  0.0585  0.3348 -0.4337
  198MOL0     C26602   8.886   2.567   5.846 -0.3671 -0.0170  0.4150
  198MOL0     O26603   9.005   2.567   5.913  0.3033  0.0770 -0.0519
  198MOL0     C26604   9.106   2.484   5.845 -0.2887  0.1789 -0.3066
  198MOL0     C26605   9.237   2.513   5.900  0.0504 -0.1510 -1.0377
  198MOL0     C26606   9.353   2.434   5.833 -0.0146 -0.9026 -0.4522
  198MOL0     C26607   9.492   2.447   5.901 -0.2008  0.4932 -0.3233
  198MOL0     C26608   9.601   2.354   5.840 -0.1654  0.0268 -0.3297
  198MOL0     C26609   9.748   2.387   5.864 -0.5083 -0.5234  0.1782
  198MOL0     C26610   9.791   2.385   6.016  0.2733  0.2575 -0.2522
  198MOL0     C26611   9.731   2.266   6.094  0.6352  0.5950  0.9416
  198MOL0     N26612   9.783   2.139   6.053 -0.4994  0.3654  0.0627
  198MOL0     C26613   9.730   2.044   5.969  0.6589 -1.1432  0.1503
  198MOL0     C26614   9.823   1.947   5.966  0.1181  0.7293 -0.5212
  198MOL0     C26615   9.801   1.822   5.887  0.2667  0.6850 -0.7454
  198MOL0     C26616   9.658   1.780   5.871 -0.2612  0.7525  0.5051
  198MOL0     C26617   9.674   1.632   5.823  0.5955  0.0105 -0.4347
  198MOL0     C26618   9.534   1.556   5.820 -0.0819 -0.4181 -0.0661
  198MOL0     O26619   9.472   1.558   5.950  0.6167 -0.1832 -0.1893
  198MOL0     C26620   9.341   1.531   5.973  0.0549  0.3347  0.4452
  198MOL0     C26621   9.238   1.512   5.871 -0.3196  0.5751  0.4402
  198MOL0     C26622   9.104   1.501   5.911 -0.2534  0.3073  0.0845
  198MOL0     C26623   9.063   1.525   6.041  0.4853 -0.3368 -0.5536
  198MOL0     C26624   8.917   1.522   6.076 -0.1021  0.4640 -0.2580
  198MOL0     O26625   8.829   1.460   5.977 -0.3776  0.3655 -0.8996
  198MOL0     C26626   8.708   1.526   5.968 -0.8107 -0.0453 -0.4375
  198MOL0     C26627   8.698   1.658   5.937 -0.1129  0.0875 -0.3641
  198MOL0     C26628   8.577   1.720   5.923  0.2461 -0.4297  0.1882
  198MOL0     C26629   8.458   1.639   5.913 -0.3090 -0.2401  0.4446
  198MOL0     O26630   8.331   1.680   5.876  1.1233 -0.0290 -0.5980
  198MOL0     C26631   8.305   1.823   5.865 -0.2143  0.0066 -0.5665
  198MOL0     C26632   8.163   1.863   5.832  0.5233 -0.3851 -0.1459
  198MOL0     C26633   8.062   1.798   5.924 -0.4528 -1.3656 -0.3734
  198MOL0     C26634   7.923   1.843   5.881 -0.4074 -0.6907  0.2904
  198MOL0     C26635   7.811   1.804   5.979  0.4935  0.0763  0.3756
  198MOL0     C26636   7.792   1.914   6.076  0.1071 -0.5697 -0.1139
  198MOL0     C26637   7.670   1.870   6.162  1.1836  0.1614 -0.3113
  198MOL0     C26638   7.529   1.918   6.104  0.9572  0.3331 -0.2389
  198MOL0    Cl26639   7.511   2.096   6.095  0.6332 -0.0657 -0.2127
  198MOL0     C26640   8.469   1.498   5.941  0.0863 -0.0904 -0.2757
  198MOL0     C26641   8.595   1.447   5.972 -0.1750 -0.4140  1.4582
  198MOL0     O26642   8.874   1.585   6.175 -0.2580 -0.2530  0.5933
  198MOL0     C26643   9.165   1.537   6.148 -0.1202 -0.0583  0.4563
  198MOL0     C26644   9.300   1.536   6.108  0.0237  0.0144  0.4597
  198MOL0     N26645   9.930   1.982   6.044  0.3214 -0.8789  0.6422
  198MOL0     N26646   9.898   2.097   6.101  0.2967 -0.4533 -0.1515
  198MOL0     C26647   8.873   2.663   5.744 -0.1978 -0.1892  0.1174
  198MOL0     C26648   8.764   2.678   5.671  1.1372  0.2141 -0.1040
  198MOL0     C26649   8.328   2.739   5.587  0.9149  0.3755 -0.1100
  198MOL0     C26650   8.258   2.852   5.630  1.2118 -0.5147 -0.4243
  198MOL0     C26651   8.128   2.887   5.573  0.1768  0.4654 -0.1409
  198MOL0     C26652   8.078   2.820   5.465 -0.6664  0.2021  0.1580
  198MOL0     O26653   7.957   2.864   5.400  0.1679 -0.2921  0.1810
  198MOL0     C26654   7.903   2.989   5.426 -0.1956  0.3069  0.1565
  198MOL0     C26655   7.791   3.014   5.336  0.0249 -0.0387  0.6858
  198MOL0     C26656   7.700   3.129   5.369 -0.0587  0.4557  0.1718
  198MOL0     C26657   7.767   3.271   5.369 -0.4780  0.5819  0.5339
  198MOL0     C26658   7.666   3.371   5.342 -0.7758 -0.0185 -0.1275
  198MOL0     C26659   7.585   3.461   5.332  0.3795 -0.1788  0.4124
  198MOL0     C26660   8.151   2.710   5.417 -0.6283 -0.0197  0.5484
  198MOL0     C26661   8.272   2.665   5.476  0.5600  0.8516 -0.2354
  198MOL0     C26662   8.338   2.545   5.416 -0.4408 -1.0135  0.5042
  198MOL0     H26663   8.596   2.407   5.782  0.2249 -0.5680  3.1726
  198MOL0     H26664   8.787   2.393   5.928 -1.5350 -0.6613 -1.4715
  198MOL0     H26665   9.083   2.379   5.865 -0.1405  0.0300 -0.9042
  198MOL0     H26666   9.100   2.514   5.740 -2.7026  3.7771  0.7020
  198MOL0     H26667   9.243   2.493   6.007 -2.0469  1.0299 -0.6406
  198MOL0     H26668   9.255   2.620   5.886 -0.9097  0.6144  2.4514
  198MOL0     H26669   9.370   2.467   5.731  1.1024 -0.7192 -0.2280
  198MOL0     H26670   9.331   2.327   5.832 -0.5670 -0.7926 -1.3499
  198MOL0     H26671   9.527   2.551   5.907  0.2613  0.2612  2.0826
  198MOL0     H26672   9.486   2.403   6.001 -2.3248  0.0543 -0.5964
  198MOL0     H26673   9.591   2.254   5.882  4.1478 -0.1140  0.9014
  198MOL0     H26674   9.585   2.337   5.733 -1.6318  1.2985 -0.3493
  198MOL0     H26675   9.811   2.322   5.803 -3.5254 -1.7199 -1.8493
  198MOL0     H26676   9.758   2.492   5.834 -0.7502 -0.7372 -0.6577
  198MOL0     H26677   9.760   2.479   6.061  1.2312  0.9259 -0.9642
  198MOL0     H26678   9.900   2.383   6.030  0.2475  0.0522 -0.0633
  198MOL0     H26679   9.743   2.284   6.202  1.4470  1.9106  0.6600
  198MOL0     H26680   9.624   2.271   6.071  0.6438  0.0959  0.7936
  198MOL0     H26681   9.636   2.040   5.915  0.4211 -0.6751  0.5208
  198MOL0     H26682   9.836   1.832   5.784  0.7136 -1.5077 -0.8530
  198MOL0     H26683   9.856   1.738   5.930  1.3316  0.3842 -2.5839
  198MOL0     H26684   9.602   1.786   5.965 -2.1867  2.2476 -0.6525
  198MOL0     H26685   9.609   1.852   5.805  2.7755  2.6145  0.0962
  198MOL0     H26686   9.739   1.577   5.891  2.1723  1.3653 -0.7890
  198MOL0     H26687   9.721   1.625   5.725  1.4688  0.5349 -0.0642
  198MOL0     H26688   9.542   1.455   5.777 -0.7007 -0.5126  0.0367
  198MOL0     H26689   9.472   1.613   5.751 -0.4097 -1.5306 -0.7182
  198MOL0     H26690   9.259   1.509   5.765 -1.7447  0.4012  0.1470
  198MOL0     H26691   9.029   1.503   5.833 -0.9705  0.9802  0.7657
  198MOL0     H26692   8.784   1.723   5.931  0.6258 -0.9274 -0.9556
  198MOL0     H26693   8.569   1.826   5.898  0.3151 -1.0028 -2.6440
  198MOL0     H26694   8.326   1.861   5.966 -2.3211  0.3291 -0.2064
  198MOL0     H26695   8.374   1.869   5.794  0.2064  0.3146  0.0367
  198MOL0     H26696   8.151   1.971   5.821  0.5558 -0.3086  0.5352
  198MOL0     H26697   8.136   1.819   5.735 -3.2339 -1.0879  1.0594
  198MOL0     H26698   8.069   1.689   5.928 -1.0491 -1.3842  0.2879
  198MOL0     H26699   8.084   1.822   6.028  1.6229 -2.0741 -0.5932
  198MOL0     H26700   7.907   1.800   5.782 -1.5203 -0.8863  0.5424
  198MOL0     H26701   7.922   1.950   5.860 -0.2704 -0.7380  0.0420
  198MOL0     H26702   7.834   1.712   6.033  5.7936  0.4807 -0.5868
  198MOL0     H26703   7.728   1.780   5.913  0.6780 -0.6921  0.4178
  198MOL0     H26704   7.884   1.916   6.137 -0.8321 -1.5729  1.4021
  198MOL0     H26705   7.764   2.004   6.021 -0.2023 -0.0924  0.7884
  198MOL0     H26706   7.690   1.901   6.265  0.4024 -2.2741  0.6600
  198MOL0     H26707   7.673   1.761   6.174 -0.3103  0.1429  0.0851
  198MOL0     H26708   7.523   1.888   5.999  1.4468  2.3850 -0.9006
  198MOL0     H26709   7.440   1.888   6.160  1.6679  0.4409  0.9768
  198MOL0     H26710   8.383   1.432   5.951 -0.7868  1.0839  0.1927
  198MOL0     H26711   8.594   1.343   6.003  2.8054 -1.0547 -0.2173
  198MOL0     H26712   9.145   1.533   6.254  1.9879  0.3518  0.9121
  198MOL0     H26713   9.371   1.539   6.190  1.1737  4.1637 -0.4241
  198MOL0     H26714   8.945   2.744   5.739 -1.5814  1.1153  0.6284
  198MOL0     H26715   8.755   2.756   5.596 -1.1746 -1.1062 -1.3244
  198MOL0     H26716   8.300   2.905   5.714  2.0271 -1.6424 -0.1021
  198MOL0     H26717   8.079   2.980   5.601  0.0987  0.5073 -0.4110
  198MOL0     H26718   7.973   3.070   5.411  0.1506 -0.3149 -1.7777
  198MOL0     H26719   7.869   2.994   5.530  0.2279 -1.8770  0.4521
  198MOL0     H26720   7.732   2.923   5.337 -2.1397  1.2916  1.1808
  198MOL0     H26721   7.829   3.040   5.237  2.8546  2.1821  2.1978
  198MOL0     H26722   7.642   3.114   5.460 -1.1048 -1.5345 -0.7394
  198MOL0     H26723   7.620   3.131   5.294 -1.1769 -0.4653  1.2886
  198MOL0     H26724   7.800   3.293   5.471 -0.9941 -0.2512  0.8855
  198MOL0     H26725   7.850   3.283   5.299 -1.1618 -0.4841 -0.4924
  198MOL0     H26726   7.521   3.547   5.328  1.6043  0.8355  1.6812
  198MOL0     H26727   8.104   2.664   5.330 -0.1632 -1.4533  1.0299
  198MOL0     H26728   8.269   2.504   5.342 -0.1254 -2.1260  0.8082
  198MOL0     H26729   8.434   2.579   5.375 -1.1971  1.8697  0.8716
  198MOL0     H26730   8.359   2.475   5.497 -1.5341 -1.4122  0.4558
  199MOL0     O26731   8.548   9.618   0.005 -0.8643 -0.2917  0.3114
  199MOL0     C26732   8.603   9.532   0.069 -0.6994  0.9185  0.1294
  199MOL0     O26733   8.685   9.438   0.016  0.3454 -0.7235 -0.4694
  199MOL0     C26734   8.701   9.439  -0.123  0.0942  0.2023  0.3127
  199MOL0     C26735   8.655   9.328  -0.200 -0.2184 -0.6185  0.4193
  199MOL0     C26736   8.675   9.329  -0.336  0.4593  0.8076  0.5859
  199MOL0     C26737   8.752   9.424  -0.404  0.0461  0.0373 -1.0686
  199MOL0     O26738   8.784   9.398  -0.540 -0.3198  0.2446 -0.7089
  199MOL0     C26739   8.890   9.319  -0.575 -0.4117 -0.1807 -0.2317
  199MOL0     C26740   8.924   9.379  -0.714 -0.0500 -0.0754  0.8486
  199MOL0     C26741   9.044   9.313  -0.781 -0.0475 -0.1999  0.4600
  199MOL0     C26742   9.171   9.375  -0.724  0.4950  0.5428 -0.8767
  199MOL0     C26743   9.299   9.323  -0.787  0.6502 -0.0310  0.1435
  199MOL0     C26744   9.427   9.406  -0.767  0.7862 -0.7416  0.5337
  199MOL0     C26745   9.474   9.405  -0.613  0.5659  0.3965 -0.4748
  199MOL0     C26746   9.581   9.513  -0.576 -0.0044 -0.0209  0.2665
  199MOL0     N26747   9.638   9.485  -0.444  0.5908 -0.0317 -0.9209
  199MOL0     C26748   9.727   9.386  -0.407 -0.6813 -0.3209  0.4738
  199MOL0     C26749   9.748   9.411  -0.275 -0.2488  0.0657  0.2509
  199MOL0     C26750   9.855   9.340  -0.200  0.4581  1.0001 -0.1230
  199MOL0     C26751   9.982   9.417  -0.173  0.7757 -0.5834 -0.6580
  199MOL0     C26752  10.077   9.345  -0.068  0.4821 -0.1072  0.0963
  199MOL0     C26753  10.025   9.337   0.081  0.4885 -0.2058 -0.9817
  199MOL0     O26754  10.041   9.461   0.147 -0.3476 -1.1138  0.2038
  199MOL0     C26755   9.935   9.504   0.212  0.3899 -0.1178  0.1060
  199MOL0     C26756   9.807   9.520   0.158 -1.0154  0.1059 -0.7624
  199MOL0     C26757   9.702   9.555   0.243  0.5661 -0.1306  0.5776
  199MOL0     C26758   9.718   9.558   0.378 -0.6914  0.3100 -0.5528
  199MOL0     C26759   9.596   9.568   0.461 -1.6952  0.5211 -0.0669
  199MOL0     O26760   9.617   9.641   0.571 -0.9506 -0.7614 -1.2411
  199MOL0     C26761   9.512   9.704   0.631 -0.2128  0.7408 -0.7556
  199MOL0     C26762   9.474   9.827   0.576 -0.6109  0.6105  0.8648
  199MOL0     C26763   9.358   9.894   0.621 -0.2017 -0.5740 -0.3392
  199MOL0     C26764   9.279   9.825   0.720  0.3408 -0.3751 -0.4712
  199MOL0     O26765   9.174   9.884   0.786 -0.6104 -0.3369 -0.5367
  199MOL0     C26766   9.101   9.982   0.715 -0.7526  0.0438  0.2582
  199MOL0     C26767   8.967   9.979   0.773  0.5781  0.3375 -0.8891
  199MOL0     C26768   8.956  10.032   0.914 -0.4286  0.2825  0.5159
  199MOL0     C26769   8.817  10.068   0.964  0.0850  0.1485 -0.3700
  199MOL0     C26770   8.803  10.046   1.111 -0.8475  0.2744  0.0638
  199MOL0     C26771   8.658  10.063   1.162 -0.0029  0.4982 -0.0538
  199MOL0     C26772   8.549   9.992   1.083  0.3034  0.5367 -0.6321
  199MOL0     C26773   8.435   9.939   1.177 -0.5266 -0.1778 -0.5941
  199MOL0    Cl26774   8.323   9.836   1.091 -0.1293  0.5547  0.3439
  199MOL0     C26775   9.316   9.712   0.770 -0.1385  1.2315 -0.0439
  199MOL0     C26776   9.430   9.645   0.724 -1.0178 -0.1900 -0.1599
  199MOL0     O26777   9.486   9.531   0.420  0.0123  0.5370 -0.1518
  199MOL0     C26778   9.847   9.559   0.431  0.4037  0.2846  0.4139
  199MOL0     C26779   9.957   9.527   0.349  0.6887  0.3827 -0.2894
  199MOL0     N26780   9.669   9.505  -0.231 -0.1987 -0.4128 -0.4772
  199MOL0     N26781   9.594   9.548  -0.328 -0.2073  1.5797  0.6051
  199MOL0     C26782   8.798   9.533  -0.327  0.9823 -0.3113 -0.1607
  199MOL0     C26783   8.778   9.534  -0.192 -0.1705 -0.4462  0.0123
  199MOL0     C26784   8.594   9.511   0.216  0.1054  1.0108 -0.3745
  199MOL0     C26785   8.697   9.466   0.287 -0.2513  0.4588  0.2532
  199MOL0     C26786   8.704   9.459   0.424  0.2678  0.8483 -0.1790
  199MOL0     C26787   8.595   9.507   0.494  0.0341  0.0813 -0.1440
  199MOL0     O26788   8.594   9.485   0.632 -0.2794  1.1038 -0.4065
  199MOL0     C26789   8.488   9.519   0.717  0.6342  0.4787  0.1286
  199MOL0     C26790   8.523   9.489   0.859 -0.7610  0.2678 -1.4311
  199MOL0     C26791   8.626   9.584   0.912 -0.6165  0.1635 -0.4366
  199MOL0     C26792   8.773   9.561   0.878 -0.7678  0.0877  0.3482
  199MOL0     C26793   8.865   9.620   0.977 -0.2646 -0.1723  0.1424
  199MOL0     C26794   8.935   9.674   1.063  0.0250 -0.0325 -0.3565
  199MOL0     C26795   8.483   9.544   0.424  0.3277 -0.6073  0.8253
  199MOL0     C26796   8.478   9.533   0.289 -0.6445  0.5183  0.4198
  199MOL0     C26797   8.342   9.550   0.226  0.4794  0.3915  0.2803
  199MOL0     H26798   8.622   9.236  -0.152 -2.5379  0.7940  1.7241
  199MOL0     H26799   8.639   9.245  -0.393  0.3283  0.4500  1.1857
  199MOL0     H26800   8.968   9.322  -0.498  0.4495  1.0705 -1.1232
  199MOL0     H26801   8.855   9.215  -0.580 -1.5676  0.0017  2.3150
  199MOL0     H26802   8.937   9.487  -0.709 -0.3614  0.0371 -0.4673
  199MOL0     H26803   8.836   9.370  -0.778  0.0105  3.0301  0.2062
  199MOL0     H26804   9.046   9.343  -0.886  1.2461  1.2795  0.8717
  199MOL0     H26805   9.036   9.204  -0.776 -2.4246 -0.1986 -1.5813
  199MOL0     H26806   9.157   9.483  -0.731 -2.4178  0.1554 -3.0356
  199MOL0     H26807   9.174   9.350  -0.618 -0.5614  1.6752 -0.5553
  199MOL0     H26808   9.325   9.219  -0.762  1.5064 -0.0082 -0.6371
  199MOL0     H26809   9.278   9.329  -0.894  0.1192  1.5971  0.3151
  199MOL0     H26810   9.498   9.359  -0.836  1.0254 -1.6553  1.3714
  199MOL0     H26811   9.419   9.511  -0.799  1.7467  0.0972  2.7502
  199MOL0     H26812   9.506   9.306  -0.580  3.2758  2.1503  2.7207
  199MOL0     H26813   9.385   9.423  -0.553  0.3862  0.0945 -0.6438
  199MOL0     H26814   9.662   9.520  -0.649 -0.7431  0.2946 -0.5344
  199MOL0     H26815   9.542   9.615  -0.570 -0.3984  0.0936 -2.6972
  199MOL0     H26816   9.780   9.317  -0.471  1.0474  0.9322  0.4689
  199MOL0     H26817   9.811   9.299  -0.109  0.2348 -1.0276 -1.0885
  199MOL0     H26818   9.869   9.257  -0.271 -2.5082 -1.3299  1.7451
  199MOL0     H26819  10.048   9.424  -0.260  0.6051  1.4893 -0.6580
  199MOL0     H26820   9.950   9.515  -0.139  1.6696 -0.6769  0.5322
  199MOL0     H26821  10.173   9.398  -0.074  1.9735 -2.7665 -3.1318
  199MOL0     H26822  10.102   9.247  -0.110  2.3380  1.4427 -2.7868
  199MOL0     H26823  10.091   9.267   0.133  3.1992  3.6667  1.3832
  199MOL0     H26824   9.926   9.293   0.098  0.7309  0.4008  2.8984
  199MOL0     H26825   9.792   9.505   0.052  0.6640 -0.4448 -0.9418
  199MOL0     H26826   9.603   9.561   0.200  0.1956 -4.4470  0.3854
  199MOL0     H26827   9.523   9.879   0.494 -1.8996  0.2106 -0.2034
  199MOL0     H26828   9.325   9.984   0.571  2.7178  0.0117 -1.4559
  199MOL0     H26829   9.150  10.076   0.739  2.8532 -1.5849  0.0238
  199MOL0     H26830   9.095   9.950   0.610  0.1947 -4.5043  1.3610
  199MOL0     H26831   8.894  10.032   0.711 -1.7123  0.3985  1.6479
  199MOL0     H26832   8.931   9.876   0.768 -2.5651  1.2820 -0.0998
  199MOL0     H26833   9.003   9.957   0.979  0.9564  0.2391 -0.4984
  199MOL0     H26834   9.024  10.117   0.915 -2.3806  1.9186  0.5153
  199MOL0     H26835   8.743  10.016   0.903  1.3098 -0.2727 -1.5384
  199MOL0     H26836   8.806  10.173   0.933  0.8041 -0.0505 -1.3584
  199MOL0     H26837   8.873  10.117   1.157 -0.3327  1.2517 -2.0949
  199MOL0     H26838   8.835   9.943   1.126 -2.0886  0.0771  1.6300
  199MOL0     H26839   8.652  10.023   1.264 -0.4046  2.9427  0.9518
  199MOL0     H26840   8.638  10.170   1.174  1.0925  0.6424  0.5746
  199MOL0     H26841   8.590   9.903   1.035 -1.6316 -0.5670 -0.3405
  199MOL0     H26842   8.503  10.050   1.003 -1.9340 -2.2608 -1.5540
  199MOL0     H26843   8.474   9.888   1.266 -0.6697  2.4566  1.0773
  199MOL0     H26844   8.375  10.019   1.222 -1.0346 -0.4834 -0.7189
  199MOL0     H26845   9.275   9.668   0.861  1.5736  0.9143  0.6061
  199MOL0     H26846   9.461   9.551   0.769  2.8618  1.6413  1.5155
  199MOL0     H26847   9.867   9.565   0.538  1.2056 -1.2269  0.3700
  199MOL0     H26848  10.057   9.522   0.391  0.2316 -0.3309  0.7767
  199MOL0     H26849   8.847   9.611  -0.385  2.4500  2.3596  4.1731
  199MOL0     H26850   8.824   9.612  -0.132 -1.0367  0.2902 -0.2581
  199MOL0     H26851   8.789   9.456   0.229 -0.8248  3.4262 -1.3642
  199MOL0     H26852   8.790   9.426   0.481 -1.7301  0.3070  2.7590
  199MOL0     H26853   8.398   9.461   0.693  1.2436 -0.1809 -0.6337
  199MOL0     H26854   8.469   9.626   0.710 -0.3971  0.2559 -0.9169
  199MOL0     H26855   8.555   9.388   0.889  0.8845  1.6311  2.0042
  199MOL0     H26856   8.431   9.515   0.911 -0.3698 -2.4295  0.8924
  199MOL0     H26857   8.613   9.584   1.021 -0.3493  0.1080 -0.4054
  199MOL0     H26858   8.607   9.684   0.871  1.4547  0.5949 -0.4658
  199MOL0     H26859   8.786   9.453   0.867  1.7075  0.5401 -2.2844
  199MOL0     H26860   8.792   9.606   0.780  0.2765  0.2082  0.5955
  199MOL0     H26861   8.985   9.735   1.136 -0.2681  0.6967 -0.7557
  199MOL0     H26862   8.395   9.577   0.477 -0.1272  1.2537 -0.9475
  199MOL0     H26863   8.333   9.513   0.124 -2.1846 -1.6227  1.1140
  199MOL0     H26864   8.269   9.507   0.297  0.5371  0.7112  0.5364
  199MOL0     H26865   8.320   9.657   0.231  2.2799  0.9831 -2.4730
  200MOL0     O26866   9.162  10.606   0.685  0.4301 -0.5647 -0.5193
  200MOL0     C26867   9.183  10.726   0.678 -0.5090 -0.4446 -0.1264
  200MOL0     O26868   9.087  10.821   0.659  0.9331 -0.0671  0.5973
  200MOL0     C26869   8.949  10.787   0.666 -0.0791 -0.2509  0.4888
  200MOL0     C26870   8.889  10.695   0.575  0.8997 -1.1694 -0.0883
  200MOL0     C26871   8.747  10.668   0.580 -0.1818  0.2932  0.2175
  200MOL0     C26872   8.664  10.717   0.685 -0.1453  0.4234 -0.3615
  200MOL0     O26873   8.532  10.674   0.678  0.3312 -0.1273 -0.3907
  200MOL0     C26874   8.451  10.704   0.797 -0.1124  0.3211  1.0449
  200MOL0     C26875   8.304  10.665   0.767  0.0107 -0.1165 -0.7270
  200MOL0     C26876   8.212  10.716   0.877 -0.3062 -0.1450  0.1147
  200MOL0     C26877   8.080  10.638   0.855 -1.0828 -0.7097 -0.0681
  200MOL0     C26878   8.017  10.649   0.997  0.2124 -0.3188  0.0434
  200MOL0     C26879   7.937  10.773   1.010 -0.1153 -0.4160 -0.6217
  200MOL0     C26880   7.865  10.781   1.139 -0.8250  0.6741  0.5168
  200MOL0     C26881   7.789  10.914   1.147  0.2722 -0.0027  0.1076
  200MOL0     N26882   7.876  11.027   1.180 -0.4471 -0.3806  0.3108
  200MOL0     C26883   7.964  11.035   1.291  0.3232 -0.0101 -0.6166
  200MOL0     C26884   7.995  11.164   1.297  0.8553 -0.1197 -0.4415
  200MOL0     C26885   8.080  11.221   1.411  0.2573 -0.1746  0.1810
  200MOL0     C26886   8.227  11.192   1.369 -0.4550 -0.4099 -0.5220
  200MOL0     C26887   8.333  11.238   1.476  0.2569  0.1274  0.9631
  200MOL0     C26888   8.472  11.195   1.439  0.5622 -0.3563  0.0476
  200MOL0     O26889   8.551  11.204   1.562 -0.4317  0.2391  0.2378
  200MOL0     C26890   8.635  11.313   1.568 -0.6193 -0.6918 -0.1625
  200MOL0     C26891   8.620  11.416   1.668  0.6242  0.5711 -0.2370
  200MOL0     C26892   8.697  11.530   1.671  0.2769 -0.2324  0.2468
  200MOL0     C26893   8.799  11.544   1.578 -0.0991  0.7173 -0.1952
  200MOL0     C26894   8.884  11.668   1.584  0.7844 -0.6445 -0.0388
  200MOL0     O26895   8.997  11.669   1.512  0.0958 -0.3214 -0.1234
  200MOL0     C26896   9.077  11.777   1.516 -0.0604 -0.3879 -0.9108
  200MOL0     C26897   9.095  11.847   1.397  0.0894 -0.2589  0.2584
  200MOL0     C26898   9.184  11.950   1.389  0.4877  0.0976  0.0106
  200MOL0     C26899   9.250  11.999   1.504  1.4815 -0.4498  0.0235
  200MOL0     O26900   9.328  12.112   1.483 -0.9929 -0.6968 -0.3278
  200MOL0     C26901   9.377  12.188   1.593  0.3795 -0.7022  0.2736
  200MOL0     C26902   9.444  12.320   1.541 -0.4512 -0.0100 -0.0389
  200MOL0     C26903   9.432  12.435   1.647 -0.0198 -0.0332 -0.7839
  200MOL0     C26904   9.494  12.572   1.605  0.0513 -0.8524 -0.1979
  200MOL0     C26905   9.499  12.686   1.706  0.0263  0.0396 -0.3498
  200MOL0     C26906   9.595  12.668   1.829 -0.4625  0.2321 -0.1459
  200MOL0     C26907   9.748  12.690   1.789 -0.9205 -0.4700 -0.0355
  200MOL0     C26908   9.838  12.570   1.807  0.3912 -0.0055 -0.5940
  200MOL0    Cl26909   9.817  12.443   1.681 -0.0058 -0.2129 -0.1452
  200MOL0     C26910   9.216  11.941   1.623  0.4397  0.4261 -0.7051
  200MOL0     C26911   9.134  11.827   1.629 -0.2237 -0.0671 -0.6433
  200MOL0     O26912   8.856  11.755   1.674 -0.7444  0.2898 -0.0301
  200MOL0     C26913   8.822  11.439   1.484  0.3215 -0.4129 -0.3137
  200MOL0     C26914   8.744  11.332   1.481 -0.1739  1.2820  0.1842
  200MOL0     N26915   7.931  11.235   1.195  0.5414  1.0804 -0.6155
  200MOL0     N26916   7.856  11.151   1.133  0.3783  0.6171  0.2210
  200MOL0     C26917   8.724  10.811   0.777  0.3332 -0.9412  0.8413
  200MOL0     C26918   8.864  10.838   0.760  1.2282 -0.8739 -0.9284
  200MOL0     C26919   9.329  10.777   0.673 -0.0865  0.5573  0.1051
  200MOL0     C26920   9.352  10.913   0.679  0.6727  0.2306  0.1023
  200MOL0     C26921   9.475  10.980   0.688  0.0236 -0.3587  0.5071
  200MOL0     C26922   9.592  10.903   0.690 -0.1350  0.0820 -1.0005
  200MOL0     O26923   9.718  10.947   0.711  0.1944 -0.1951  0.6025
  200MOL0     C26924   9.737  11.066   0.640 -0.2564  0.1024  0.9997
  200MOL0     C26925   9.885  11.086   0.599 -1.4205 -0.3384  0.0575
  200MOL0     C26926   9.885  11.172   0.470 -0.5468 -0.2924  0.0237
  200MOL0     C26927  10.018  11.192   0.397 -0.7922 -0.4028  0.7291
  200MOL0     C26928  10.109  11.232   0.500 -0.6134 -0.1638  0.4047
  200MOL0     C26929  10.183  11.267   0.595 -0.6059 -0.3624  0.4277
  200MOL0     C26930   9.570  10.770   0.699 -0.9931  0.0723  0.8247
  200MOL0     C26931   9.447  10.693   0.692 -0.3128  0.3879 -0.3835
  200MOL0     C26932   9.449  10.547   0.716 -0.5083 -0.5081 -0.0791
  200MOL0     H26933   8.944  10.641   0.498  0.9467  1.5205 -2.0759
  200MOL0     H26934   8.697  10.599   0.512 -3.0091  0.0376  2.3526
  200MOL0     H26935   8.482  10.638   0.878 -3.4789  1.1845  3.2740
  200MOL0     H26936   8.461  10.806   0.836  1.2878 -0.2903  2.3731
  200MOL0     H26937   8.300  10.556   0.762  0.0753 -0.3973  2.8866
  200MOL0     H26938   8.265  10.702   0.672 -0.9757  2.7356  0.6651
  200MOL0     H26939   8.194  10.823   0.861  2.5488  0.8019  2.2227
  200MOL0     H26940   8.256  10.704   0.977  0.1994  3.2112  0.4390
  200MOL0     H26941   8.033  10.688   0.770  1.6000  1.7123 -0.2955
  200MOL0     H26942   8.086  10.530   0.839  3.2771 -0.5251 -1.0943
  200MOL0     H26943   7.936  10.576   1.010  0.6589 -0.9027 -0.4387
  200MOL0     H26944   8.092  10.638   1.076  2.2561 -0.3473 -1.8152
  200MOL0     H26945   7.997  10.864   1.016  1.3431 -1.4281  1.3786
  200MOL0     H26946   7.864  10.781   0.929 -2.1593 -0.7754  1.0910
  200MOL0     H26947   7.925  10.776   1.230 -1.1884  3.4028  0.9764
  200MOL0     H26948   7.789  10.703   1.151 -0.8434  0.6888  0.4995
  200MOL0     H26949   7.740  10.931   1.051  0.7417 -1.3804 -0.4076
  200MOL0     H26950   7.713  10.912   1.226 -1.0277 -1.1137 -1.1271
  200MOL0     H26951   7.981  10.955   1.362 -0.7115 -0.8588 -1.2972
  200MOL0     H26952   8.059  11.328   1.408  0.3601 -0.0346  2.5418
  200MOL0     H26953   8.058  11.179   1.510 -4.2682 -2.0032 -1.3476
  200MOL0     H26954   8.235  11.091   1.328  2.0347  0.4754 -2.4818
  200MOL0     H26955   8.243  11.257   1.282  0.6695  1.4193  0.9818
  200MOL0     H26956   8.311  11.181   1.567 -1.6241 -0.7391  0.0209
  200MOL0     H26957   8.321  11.345   1.495 -2.2042  0.3332 -1.2303
  200MOL0     H26958   8.504  11.267   1.363  0.1998 -0.4946 -0.2384
  200MOL0     H26959   8.478  11.093   1.401 -1.2425  0.3506 -2.3681
  200MOL0     H26960   8.542  11.413   1.743  1.6366  2.8714  1.0014
  200MOL0     H26961   8.669  11.605   1.743  1.5162  0.7697 -0.2844
  200MOL0     H26962   9.046  11.813   1.307  1.2259  3.2105 -1.8481
  200MOL0     H26963   9.195  11.992   1.289 -2.7426 -1.6867 -1.2235
  200MOL0     H26964   9.294  12.214   1.660  0.9437 -1.9352  1.4872
  200MOL0     H26965   9.446  12.125   1.650  1.7080  0.1772 -0.3236
  200MOL0     H26966   9.553  12.311   1.533 -0.3245  0.8602  0.5849
  200MOL0     H26967   9.399  12.351   1.446  2.5656  1.2123 -1.2148
  200MOL0     H26968   9.326  12.437   1.673  0.0784 -0.5159 -0.3147
  200MOL0     H26969   9.486  12.410   1.739  0.4415 -2.3935 -1.6390
  200MOL0     H26970   9.437  12.606   1.518 -0.3096 -1.0408 -0.0379
  200MOL0     H26971   9.593  12.541   1.571  0.2788  0.9272 -1.2463
  200MOL0     H26972   9.397  12.703   1.743 -0.3112 -2.5806  0.1317
  200MOL0     H26973   9.534  12.783   1.670  0.9334  0.5380  1.7178
  200MOL0     H26974   9.568  12.741   1.906 -1.0058  0.1583 -0.2609
  200MOL0     H26975   9.589  12.566   1.868 -1.7511  0.2367 -0.2752
  200MOL0     H26976   9.784  12.778   1.844 -4.1958  0.4511  0.8247
  200MOL0     H26977   9.754  12.710   1.681  0.5181  0.2272  0.1375
  200MOL0     H26978   9.938  12.614   1.805 -0.9658  3.3672 -0.8639
  200MOL0     H26979   9.829  12.519   1.904  1.7711  1.5494  0.4002
  200MOL0     H26980   9.255  11.986   1.714  1.0693 -0.0012 -0.7576
  200MOL0     H26981   9.110  11.771   1.719  0.1037  3.3293  1.7236
  200MOL0     H26982   8.890  11.453   1.400  0.8694  1.5321  0.3890
  200MOL0     H26983   8.759  11.251   1.411  0.0779  1.1664  0.3705
  200MOL0     H26984   8.679  10.866   0.858  0.6491 -3.0928  2.5709
  200MOL0     H26985   8.903  10.925   0.811 -1.8057 -0.5151  1.0432
  200MOL0     H26986   9.267  10.979   0.666 -1.1916 -2.2318 -1.1112
  200MOL0     H26987   9.482  11.088   0.702  2.3583 -0.4751  0.6963
  200MOL0     H26988   9.718  11.155   0.701 -0.8801  1.3714 -0.9462
  200MOL0     H26989   9.668  11.071   0.555  0.7965 -1.5165  0.0189
  200MOL0     H26990   9.922  10.984   0.584  0.5436 -0.1495  2.8675
  200MOL0     H26991   9.952  11.124   0.677  0.6754 -2.2990 -0.6936
  200MOL0     H26992   9.834  11.268   0.485 -1.3794 -0.6001 -0.7299
  200MOL0     H26993   9.819  11.120   0.399 -0.6087  0.2321 -0.3125
  200MOL0     H26994  10.053  11.099   0.351  2.2876  0.0607  1.8892
  200MOL0     H26995  10.014  11.270   0.320  1.8729 -1.0643 -0.2088
  200MOL0     H26996  10.249  11.276   0.678 -0.5844 -2.0242  0.6395
  200MOL0     H26997   9.665  10.721   0.718 -0.0967  2.4861  3.2958
  200MOL0     H26998   9.416  10.517   0.816  1.7342 -4.5785 -0.3055
  200MOL0     H26999   9.397  10.489   0.639  0.1987 -1.5748  0.2218
  200MOL0     H27000   9.555  10.520   0.714  0.3200  2.4518 -1.3489
  201MOL0     O27001   6.128   0.925   3.941  0.2118  0.6531 -0.1951
  201MOL0     C27002   6.170   0.842   4.020 -0.9647  0.1988 -1.0487
  201MOL0     O27003   6.304   0.819   4.069 -0.1156  0.1126  0.2257
  201MOL0     C27004   6.413   0.905   4.051 -0.2500 -0.3562 -1.1739
  201MOL0     C27005   6.540   0.863   4.082 -0.4942 -0.2037  0.0374
  201MOL0     C27006   6.646   0.952   4.082 -0.7593 -0.0142  0.2924
  201MOL0     C27007   6.631   1.089   4.033 -0.1766 -0.0906 -1.0285
  201MOL0     O27008   6.741   1.164   4.035  0.3886 -0.0338 -0.7366
  201MOL0     C27009   6.737   1.301   3.997 -0.6449 -0.2693  0.3313
  201MOL0     C27010   6.878   1.374   4.014 -0.6527 -0.0527 -0.1347
  201MOL0     C27011   6.994   1.282   3.973 -0.1263  0.1753 -0.3465
  201MOL0     C27012   6.979   1.240   3.821  0.4406 -0.6229  0.4600
  201MOL0     C27013   7.081   1.136   3.785  0.5369 -0.3087 -0.4784
  201MOL0     C27014   7.065   0.997   3.850 -0.7385  0.3717  0.0467
  201MOL0     C27015   7.158   0.894   3.787 -0.0301  0.4550  0.1450
  201MOL0     C27016   7.090   0.824   3.670  0.0947  0.1686 -0.2396
  201MOL0     N27017   7.173   0.711   3.624 -0.2109 -0.3016  0.5345
  201MOL0     C27018   7.225   0.604   3.690  0.0669 -0.4509 -0.3864
  201MOL0     C27019   7.303   0.536   3.604  1.8362 -0.1744 -0.7758
  201MOL0     C27020   7.368   0.413   3.636 -0.3092  0.1486 -0.0733
  201MOL0     C27021   7.511   0.438   3.679 -0.8840 -0.2677  0.1891
  201MOL0     C27022   7.595   0.309   3.683 -0.6062 -0.4240  0.3367
  201MOL0     C27023   7.736   0.350   3.719 -0.0434  0.7176 -0.3054
  201MOL0     O27024   7.748   0.364   3.855 -0.0132  0.2161 -0.3934
  201MOL0     C27025   7.869   0.338   3.915  1.1280 -0.4091 -0.0583
  201MOL0     C27026   7.984   0.381   3.857 -0.1950  1.0189 -0.6794
  201MOL0     C27027   8.110   0.331   3.906  0.8535  0.1742 -0.0271
  201MOL0     C27028   8.118   0.268   4.034  0.4228 -0.5210 -0.0439
  201MOL0     C27029   8.244   0.229   4.099  0.0421  1.2697  0.1591
  201MOL0     O27030   8.228   0.186   4.223  0.1248 -0.3184  0.3820
  201MOL0     C27031   8.332   0.132   4.298  0.5048 -0.3253 -0.0833
  201MOL0     C27032   8.470   0.138   4.269 -0.0102  0.1228 -0.0406
  201MOL0     C27033   8.562   0.072   4.350  0.0060  0.1181 -0.4144
  201MOL0     C27034   8.519   0.012   4.471 -0.5763 -0.6096  0.5270
  201MOL0     O27035   8.610  -0.028   4.567  0.1962  0.6294 -0.6148
  201MOL0     C27036   8.573  -0.135   4.658 -0.3187  0.2772 -0.0652
  201MOL0     C27037   8.683  -0.174   4.749 -0.3305  0.3095  0.3133
  201MOL0     C27038   8.719  -0.086   4.868  0.1449  0.3645 -0.1829
  201MOL0     C27039   8.607  -0.077   4.981  0.2799 -0.6150  0.6569
  201MOL0     C27040   8.663  -0.014   5.117 -0.1068  0.8754  0.0801
  201MOL0     C27041   8.750   0.119   5.099  0.4299  0.1535  1.0428
  201MOL0     C27042   8.903   0.097   5.112 -0.1074 -0.4355  0.5946
  201MOL0     C27043   8.931   0.095   5.260 -0.9512 -1.1374 -0.2166
  201MOL0    Cl27044   9.108   0.106   5.290  0.1678 -0.1729 -0.0175
  201MOL0     C27045   8.382   0.004   4.490 -0.2065  0.6749 -0.2910
  201MOL0     C27046   8.289   0.064   4.405 -0.0695  0.4153  1.1897
  201MOL0     O27047   8.348   0.230   4.030  0.2603 -0.3266 -0.1959
  201MOL0     C27048   7.995   0.260   4.107 -0.5733 -0.3525  0.4044
  201MOL0     C27049   7.872   0.294   4.047  0.6103  0.8383  0.0976
  201MOL0     N27050   7.295   0.604   3.482 -0.1455  0.5496  0.6251
  201MOL0     N27051   7.219   0.712   3.498 -0.1676 -0.0497 -0.5930
  201MOL0     C27052   6.508   1.132   4.003  0.1153  0.4377 -0.0890
  201MOL0     C27053   6.399   1.049   4.024  0.0694  0.7860 -0.1628
  201MOL0     C27054   6.071   0.750   4.072  0.2588  0.9477  0.0918
  201MOL0     C27055   5.996   0.677   3.983 -0.5805  0.4917  0.0534
  201MOL0     C27056   5.889   0.604   4.027 -0.2751 -0.3504 -0.0657
  201MOL0     C27057   5.868   0.570   4.158  1.0060  0.3487 -0.8825
  201MOL0     O27058   5.765   0.485   4.207 -0.4319 -0.3775 -0.0730
  201MOL0     C27059   5.678   0.418   4.114 -0.1158  0.1977  0.0964
  201MOL0     C27060   5.574   0.322   4.179 -0.1513  0.3770  0.2104
  201MOL0     C27061   5.525   0.214   4.081  0.2029 -0.6650 -0.2039
  201MOL0     C27062   5.438   0.113   4.158  0.5430 -0.2738 -0.0269
  201MOL0     C27063   5.352   0.030   4.070  0.0615 -0.3707  0.1226
  201MOL0     C27064   5.278  -0.036   4.002  0.3778 -0.2325 -0.1148
  201MOL0     C27065   5.952   0.628   4.249 -0.7386 -0.2503  0.2770
  201MOL0     C27066   6.060   0.714   4.203 -0.2429 -0.6339  0.0206
  201MOL0     C27067   6.169   0.767   4.298 -0.6160 -0.0444  0.3838
  201MOL0     H27068   6.558   0.765   4.126  0.7855 -0.6328 -1.3538
  201MOL0     H27069   6.746   0.914   4.097  0.2833  0.7203 -3.6360
  201MOL0     H27070   6.702   1.329   3.898 -3.1725 -2.8614  0.3722
  201MOL0     H27071   6.672   1.340   4.076 -0.4285  2.3019 -0.6778
  201MOL0     H27072   6.901   1.404   4.116  3.1652 -1.8833 -0.2618
  201MOL0     H27073   6.881   1.463   3.950  0.3645 -0.6526 -0.9596
  201MOL0     H27074   7.012   1.202   4.046  1.6280  1.6394  0.9122
  201MOL0     H27075   7.084   1.343   3.978  0.4193 -0.3317 -2.6238
  201MOL0     H27076   6.875   1.209   3.807 -0.1241  0.8263  1.2240
  201MOL0     H27077   7.000   1.332   3.767  2.3341 -0.0905  1.9670
  201MOL0     H27078   7.055   1.126   3.679 -3.7497 -1.8820  0.5289
  201MOL0     H27079   7.183   1.175   3.785  0.9728 -1.2992 -2.4652
  201MOL0     H27080   7.077   1.002   3.959 -0.6411  0.4960  0.0302
  201MOL0     H27081   6.958   0.973   3.844 -0.3801 -0.9942 -1.2852
  201MOL0     H27082   7.175   0.819   3.865 -1.1857 -0.5280 -0.5111
  201MOL0     H27083   7.252   0.946   3.770  0.3284  1.6822  4.4636
  201MOL0     H27084   6.990   0.790   3.699  0.3095  1.8453  2.8482
  201MOL0     H27085   7.073   0.894   3.588 -0.6477  0.2261 -0.0413
  201MOL0     H27086   7.204   0.562   3.788 -1.6525  0.2341 -0.4237
  201MOL0     H27087   7.311   0.368   3.718  1.2755 -0.5258  0.6869
  201MOL0     H27088   7.367   0.344   3.551  2.4118 -1.8017  1.3265
  201MOL0     H27089   7.555   0.509   3.609 -1.6815  0.6903  0.6242
  201MOL0     H27090   7.513   0.496   3.771  0.7199 -1.9342  1.2796
  201MOL0     H27091   7.590   0.273   3.580  0.5372  3.3472 -1.2064
  201MOL0     H27092   7.551   0.240   3.756 -0.8423 -0.3282  0.2830
  201MOL0     H27093   7.758   0.438   3.659  0.9373 -1.3953 -3.3292
  201MOL0     H27094   7.806   0.271   3.689  0.1614  0.9397 -0.4049
  201MOL0     H27095   7.997   0.439   3.767 -2.5163 -1.8041 -3.0118
  201MOL0     H27096   8.206   0.343   3.856  0.6081 -0.6513 -0.7189
  201MOL0     H27097   8.517   0.185   4.183  0.9698 -1.4775 -0.4227
  201MOL0     H27098   8.660   0.082   4.306 -0.7281  2.0222 -1.7385
  201MOL0     H27099   8.490  -0.102   4.721  1.0610 -0.6524  2.3443
  201MOL0     H27100   8.528  -0.213   4.595 -2.3652  2.6953 -1.7959
  201MOL0     H27101   8.661  -0.278   4.775 -1.8264  1.1583  2.8812
  201MOL0     H27102   8.777  -0.173   4.694  0.4198  1.5918  1.5376
  201MOL0     H27103   8.806  -0.133   4.915 -0.2071  1.0339  1.1935
  201MOL0     H27104   8.749   0.008   4.822 -0.9603  0.2377 -1.1905
  201MOL0     H27105   8.566  -0.178   4.992  1.5537 -1.2945 -0.4510
  201MOL0     H27106   8.514  -0.030   4.948  1.5829  1.6066 -0.0469
  201MOL0     H27107   8.704  -0.104   5.165 -1.0708 -0.5325 -1.6131
  201MOL0     H27108   8.571  -0.000   5.175  0.2972  0.9203  0.7268
  201MOL0     H27109   8.724   0.160   5.001  0.7229 -3.0171 -0.4784
  201MOL0     H27110   8.714   0.184   5.180 -1.4692  0.1855  0.2334
  201MOL0     H27111   8.963   0.172   5.059  1.1137 -0.0968  2.3390
  201MOL0     H27112   8.921  -0.004   5.074 -0.4939 -1.0779  2.0442
  201MOL0     H27113   8.885   0.180   5.312 -2.2005 -2.3263  0.6928
  201MOL0     H27114   8.897   0.007   5.315  0.2036 -1.1947  0.4387
  201MOL0     H27115   8.346  -0.046   4.580  1.4873 -1.1185 -0.5597
  201MOL0     H27116   8.182   0.059   4.425 -0.5148  1.5066 -0.7207
  201MOL0     H27117   7.986   0.222   4.208  1.1570  0.5980  0.9384
  201MOL0     H27118   7.775   0.291   4.097 -0.4978 -3.6236 -1.8262
  201MOL0     H27119   6.496   1.237   3.983 -1.1713  0.0799 -1.3562
  201MOL0     H27120   6.299   1.092   4.018 -0.0326  0.4974 -0.6499
  201MOL0     H27121   6.016   0.694   3.877 -0.8647  1.3309  0.1262
  201MOL0     H27122   5.822   0.557   3.955 -0.6139 -0.5062  0.3473
  201MOL0     H27123   5.746   0.353   4.058 -0.8898  0.1318 -0.7929
  201MOL0     H27124   5.630   0.490   4.047  0.2594  0.0547 -0.3324
  201MOL0     H27125   5.494   0.381   4.225  1.7498  1.1590  2.6904
  201MOL0     H27126   5.634   0.267   4.251  2.6544 -0.7985 -2.7754
  201MOL0     H27127   5.606   0.151   4.043  1.4463  1.5409 -1.4037
  201MOL0     H27128   5.466   0.259   4.000  1.2972  0.1636 -0.5630
  201MOL0     H27129   5.512   0.052   4.211 -0.7082 -0.2365  1.8759
  201MOL0     H27130   5.385   0.166   4.238 -1.3609 -0.5723 -1.0343
  201MOL0     H27131   5.208  -0.098   3.949  0.0257 -0.5885  0.7445
  201MOL0     H27132   5.943   0.609   4.356  0.7259 -0.9561  0.3152
  201MOL0     H27133   6.188   0.875   4.296  0.4482 -0.2001 -1.8829
  201MOL0     H27134   6.143   0.736   4.399  0.3491 -0.3184  0.5580
  201MOL0     H27135   6.267   0.724   4.276 -0.4566 -0.4022  1.7086
  202MOL0     O27136   0.015   9.857   6.413 -1.1484  0.6791  0.1492
  202MOL0     C27137  -0.005   9.740   6.382  0.5939 -0.5804  0.2609
  202MOL0     O27138   0.079   9.648   6.326 -1.1174 -0.4567 -0.4019
  202MOL0     C27139   0.207   9.682   6.286 -0.5169  0.9431 -0.3919
  202MOL0     C27140   0.235   9.787   6.200 -0.1781 -0.1293  0.6671
  202MOL0     C27141   0.369   9.816   6.166  0.5454  0.1132 -0.5278
  202MOL0     C27142   0.484   9.737   6.214 -0.1271  0.1215  1.1569
  202MOL0     O27143   0.618   9.763   6.190  0.5386 -0.4101  0.8646
  202MOL0     C27144   0.647   9.778   6.048  0.3038  1.2238 -0.6722
  202MOL0     C27145   0.791   9.778   6.013  0.5592  0.0161 -0.7904
  202MOL0     C27146   0.885   9.688   6.103 -0.5984  0.0206 -0.2254
  202MOL0     C27147   1.035   9.696   6.063  0.4386  0.6779  0.6121
  202MOL0     C27148   1.119   9.592   6.132  0.3841 -0.2418  0.6058
  202MOL0     C27149   1.271   9.611   6.101 -0.2196 -0.1790  0.9505
  202MOL0     C27150   1.343   9.487   6.169 -0.4882 -0.1864 -0.6940
  202MOL0     C27151   1.483   9.459   6.121  0.1855 -0.4335  0.3895
  202MOL0     N27152   1.566   9.580   6.129 -1.2882  0.1261 -0.6616
  202MOL0     C27153   1.638   9.616   6.241 -0.3459  0.5818  0.4309
  202MOL0     C27154   1.714   9.726   6.205 -0.3143 -0.2382 -0.1258
  202MOL0     C27155   1.795   9.803   6.302 -0.3840 -0.3388  0.3321
  202MOL0     C27156   1.825   9.946   6.246  0.6339  0.3290  0.8191
  202MOL0     C27157   1.932  10.030   6.320 -0.3103  0.2158  0.6720
  202MOL0     C27158   2.075   9.963   6.301  0.5514 -0.1621 -0.2525
  202MOL0     O27159   2.110  10.004   6.172  0.1066 -0.4269  0.9052
  202MOL0     C27160   2.240  10.004   6.130 -0.5823 -0.0024  0.7395
  202MOL0     C27161   2.354   9.962   6.207 -0.0968  0.7167  0.3624
  202MOL0     C27162   2.484   9.966   6.145  0.0141 -0.0394  0.3656
  202MOL0     C27163   2.505  10.021   6.021 -0.1344 -0.0308  0.4048
  202MOL0     C27164   2.641  10.033   5.966  0.2775  0.0929 -0.2997
  202MOL0     O27165   2.667  10.032   5.824  0.3427  0.2216 -0.0282
  202MOL0     C27166   2.793  10.076   5.791  0.9174 -0.1529 -0.5570
  202MOL0     C27167   2.856  10.194   5.827  0.0427  0.1166 -0.3265
  202MOL0     C27168   2.988  10.232   5.775 -0.2687  1.1867  0.2297
  202MOL0     C27169   3.060  10.156   5.677  0.1801  0.1383  0.9191
  202MOL0     O27170   3.182  10.204   5.631  0.1040  0.3356 -0.3130
  202MOL0     C27171   3.243  10.143   5.514  0.8222 -0.4303  1.2142
  202MOL0     C27172   3.367  10.227   5.479  0.7727  0.6507  0.4895
  202MOL0     C27173   3.418  10.215   5.337  0.6469 -0.7858  0.2409
  202MOL0     C27174   3.490  10.086   5.293 -1.0896  0.2121  0.2289
  202MOL0     C27175   3.643  10.093   5.282 -0.5081 -0.0776 -0.2954
  202MOL0     C27176   3.705  10.146   5.408  0.6947  0.4000 -0.1752
  202MOL0     C27177   3.854  10.157   5.416 -0.4581 -0.1845 -0.0860
  202MOL0     C27178   3.913  10.189   5.557  0.0933  0.2195  0.8235
  202MOL0    Cl27179   4.103  10.188   5.557  0.1488  0.4386  0.1311
  202MOL0     C27180   2.992  10.038   5.633 -0.3129  0.4893 -0.3757
  202MOL0     C27181   2.867   9.997   5.689  0.9821 -0.1197 -0.7738
  202MOL0     O27182   2.732  10.032   6.046 -0.4912  0.8810 -0.0088
  202MOL0     C27183   2.391  10.042   5.936  0.1658  0.2825 -0.4519
  202MOL0     C27184   2.263  10.042   5.993 -0.2550 -0.0854  0.1316
  202MOL0     N27185   1.689   9.750   6.068 -0.4001 -0.0254 -0.0331
  202MOL0     N27186   1.597   9.661   6.027 -0.8730 -0.2838 -0.6029
  202MOL0     C27187   0.447   9.621   6.281  0.0119 -0.2225 -0.0302
  202MOL0     C27188   0.315   9.598   6.319 -0.4936  0.2170 -0.1987
  202MOL0     C27189  -0.137   9.689   6.413  0.4007 -0.1900  0.2526
  202MOL0     C27190  -0.168   9.557   6.353  0.4457 -0.7820 -0.5522
  202MOL0     C27191  -0.292   9.498   6.366  0.3887 -0.0310 -0.2436
  202MOL0     C27192  -0.389   9.554   6.445 -0.9025  0.2923 -0.1478
  202MOL0     O27193  -0.507   9.489   6.460  0.7449 -0.2417  0.4035
  202MOL0     C27194  -0.633   9.559   6.481 -0.7153 -0.8066  0.7985
  202MOL0     C27195  -0.754   9.463   6.495 -0.4959 -0.9034 -0.7822
  202MOL0     C27196  -0.893   9.542   6.487  0.8753 -0.0869  0.4975
  202MOL0     C27197  -0.985   9.494   6.598  0.3042  0.2178  0.6298
  202MOL0     C27198  -1.030   9.355   6.574 -0.4039  0.4054 -0.6708
  202MOL0     C27199  -1.051   9.246   6.540  0.5613 -0.5794  0.7935
  202MOL0     C27200  -0.368   9.684   6.495  0.2198  0.7837 -0.8804
  202MOL0     C27201  -0.245   9.747   6.487  0.5444 -0.2116 -0.3548
  202MOL0     C27202  -0.233   9.871   6.572  1.1736  0.2981  0.0506
  202MOL0     H27203   0.158   9.857   6.169  0.6932 -0.2969 -2.2166
  202MOL0     H27204   0.394   9.897   6.098  4.6149 -1.1319 -0.8042
  202MOL0     H27205   0.602   9.695   5.994  0.3585  0.1894  0.8045
  202MOL0     H27206   0.605   9.872   6.012  1.5011  0.9722 -2.8564
  202MOL0     H27207   0.826   9.880   6.031  0.5115  0.1220 -1.3038
  202MOL0     H27208   0.792   9.752   5.907 -3.6173  3.3735 -1.9219
  202MOL0     H27209   0.850   9.584   6.096 -0.8652 -0.5714  5.2323
  202MOL0     H27210   0.887   9.711   6.210  0.8751 -0.0594 -0.2207
  202MOL0     H27211   1.059   9.698   5.956  0.3583  3.1787  0.5852
  202MOL0     H27212   1.082   9.791   6.090 -0.6278  1.1275  0.9555
  202MOL0     H27213   1.092   9.578   6.236  1.0574 -1.0248  0.6835
  202MOL0     H27214   1.094   9.497   6.084  1.5451  0.1000 -0.7786
  202MOL0     H27215   1.286   9.616   5.992 -0.0266  0.2163  0.9955
  202MOL0     H27216   1.296   9.710   6.138  0.9267 -0.7617  1.7932
  202MOL0     H27217   1.280   9.400   6.148  0.2867 -1.0815  0.5417
  202MOL0     H27218   1.350   9.481   6.278 -0.0461 -0.1806 -0.7203
  202MOL0     H27219   1.537   9.375   6.167  0.4496  0.5513  1.9675
  202MOL0     H27220   1.460   9.445   6.015 -0.0317  0.4358  0.3162
  202MOL0     H27221   1.635   9.578   6.343 -1.7712  1.4257  0.7337
  202MOL0     H27222   1.747   9.824   6.398  2.2793 -1.3427  1.9953
  202MOL0     H27223   1.874   9.732   6.325 -1.0955 -1.0267  0.6949
  202MOL0     H27224   1.867   9.938   6.145  1.7512 -0.0342  1.2988
  202MOL0     H27225   1.736  10.010   6.249  1.4050  1.5697 -1.1511
  202MOL0     H27226   1.898  10.028   6.423 -0.9420  0.4059  0.4697
  202MOL0     H27227   1.936  10.130   6.275 -2.1091 -0.3779 -0.9463
  202MOL0     H27228   2.076   9.855   6.315  2.8318  0.0542  2.2097
  202MOL0     H27229   2.147  10.017   6.365 -0.1188  1.4021 -0.7543
  202MOL0     H27230   2.351   9.927   6.309  2.4531  2.0579  0.9789
  202MOL0     H27231   2.560   9.947   6.220 -1.9886  1.2268  2.8989
  202MOL0     H27232   2.793  10.261   5.885 -1.6345 -0.1022 -1.8216
  202MOL0     H27233   3.019  10.331   5.806 -1.5864  1.7559 -0.2000
  202MOL0     H27234   3.268  10.039   5.536 -2.8699 -1.7167 -0.0444
  202MOL0     H27235   3.173  10.145   5.430  1.5565  0.3722  0.5935
  202MOL0     H27236   3.328  10.329   5.494 -2.5555 -0.3416 -0.4654
  202MOL0     H27237   3.455  10.218   5.543  1.9242  1.8226 -0.8521
  202MOL0     H27238   3.340  10.214   5.261  0.1822  0.1227  0.6857
  202MOL0     H27239   3.472  10.309   5.318 -0.3136  0.2881  2.4177
  202MOL0     H27240   3.454  10.058   5.194 -0.0697  2.0652 -0.7142
  202MOL0     H27241   3.457  10.005   5.359 -2.2990  2.4365  2.5696
  202MOL0     H27242   3.662  10.168   5.205 -0.2416 -1.4580 -1.6203
  202MOL0     H27243   3.692  10.000   5.254  4.6948  2.3107 -0.2231
  202MOL0     H27244   3.664  10.244   5.434 -3.1570 -1.0038 -0.3048
  202MOL0     H27245   3.669  10.073   5.480 -0.5044 -0.2696 -1.4090
  202MOL0     H27246   3.895  10.245   5.364  0.8439  2.6472  5.0150
  202MOL0     H27247   3.903  10.063   5.391  0.6845 -1.2578  5.1075
  202MOL0     H27248   3.890  10.290   5.591 -1.5559 -0.1328  0.8937
  202MOL0     H27249   3.878  10.115   5.631 -1.2016  2.1674  2.2636
  202MOL0     H27250   3.036   9.980   5.552  1.1013 -0.3815  0.9603
  202MOL0     H27251   2.813   9.907   5.661 -1.1886  0.5389  0.9779
  202MOL0     H27252   2.407  10.056   5.829  1.3833 -0.8459 -0.4591
  202MOL0     H27253   2.190  10.079   5.922 -1.5609  1.2195  2.0553
  202MOL0     H27254   0.532   9.560   6.309  1.5062  1.8471  0.1882
  202MOL0     H27255   0.287   9.513   6.382 -0.0216  1.0196  1.1380
  202MOL0     H27256  -0.097   9.499   6.295 -0.8446 -2.0823 -0.8904
  202MOL0     H27257  -0.300   9.398   6.325  1.2271 -0.3280  0.2788
  202MOL0     H27258  -0.642   9.615   6.387  1.1535  3.5635  2.9132
  202MOL0     H27259  -0.633   9.643   6.551 -2.2119  0.3757 -0.5405
  202MOL0     H27260  -0.758   9.424   6.597 -1.5063 -2.4695 -1.3854
  202MOL0     H27261  -0.758   9.370   6.438  2.7833 -0.3989 -2.0949
  202MOL0     H27262  -0.940   9.531   6.389 -1.6955 -1.1214  1.7590
  202MOL0     H27263  -0.879   9.649   6.503 -2.2772  0.3537  0.8456
  202MOL0     H27264  -0.937   9.501   6.696  1.5614  1.9855 -0.0679
  202MOL0     H27265  -1.072   9.559   6.601  0.0079 -0.2022  1.4633
  202MOL0     H27266  -1.065   9.144   6.511  2.0091 -0.6492  0.2698
  202MOL0     H27267  -0.428   9.715   6.580  0.7748 -1.1279  0.2835
  202MOL0     H27268  -0.216   9.951   6.500 -4.0063  1.7585  0.0297
  202MOL0     H27269  -0.327   9.898   6.621  1.2340  0.6516 -0.0303
  202MOL0     H27270  -0.153   9.851   6.644  0.5983 -3.9578 -0.2121
  203MOL0     O27271   4.382   1.786   6.667 -0.2146 -0.8866 -0.1531
  203MOL0     C27272   4.410   1.757   6.785  1.7871 -0.3051 -0.5833
  203MOL0     O27273   4.521   1.683   6.820 -0.8771  0.8836 -0.1851
  203MOL0     C27274   4.616   1.631   6.729 -0.5409  0.1829  0.5371
  203MOL0     C27275   4.702   1.544   6.804 -0.6538 -0.3073  0.5496
  203MOL0     C27276   4.819   1.492   6.743 -0.3738 -0.8632  0.8917
  203MOL0     C27277   4.833   1.506   6.605 -0.1906  0.0606  0.2311
  203MOL0     O27278   4.937   1.456   6.530 -0.6420 -0.2585 -0.6937
  203MOL0     C27279   4.976   1.316   6.563  0.8805 -0.4469 -1.1141
  203MOL0     C27280   4.866   1.201   6.567 -0.5816 -0.2800 -1.1109
  203MOL0     C27281   4.782   1.191   6.441  0.1619  0.3707  0.1573
  203MOL0     C27282   4.652   1.114   6.481  0.2361 -0.2014  0.1907
  203MOL0     C27283   4.538   1.215   6.523 -0.1500  0.0664  0.3011
  203MOL0     C27284   4.454   1.262   6.406  1.0195  0.6014  0.1712
  203MOL0     C27285   4.340   1.359   6.455  0.2820 -0.3646  1.0265
  203MOL0     C27286   4.261   1.427   6.335  0.0048 -0.4080  0.6312
  203MOL0     N27287   4.323   1.554   6.286  0.3777 -0.1051 -0.2404
  203MOL0     C27288   4.344   1.659   6.359 -0.0662  0.4260 -0.5840
  203MOL0     C27289   4.366   1.763   6.272  0.6635 -0.0469 -0.5968
  203MOL0     C27290   4.413   1.896   6.298  0.5679 -0.0422 -0.2473
  203MOL0     C27291   4.559   1.917   6.260  0.7620  0.2258 -0.4288
  203MOL0     C27292   4.634   2.001   6.356  0.8102  0.6112  0.2706
  203MOL0     C27293   4.784   2.019   6.320 -0.3473 -0.8287  0.4849
  203MOL0     O27294   4.850   1.893   6.344 -0.0944  0.6394  0.2583
  203MOL0     C27295   4.987   1.883   6.341 -0.0114 -0.1053  0.3865
  203MOL0     C27296   5.024   1.751   6.358  0.1934  0.6939  0.2106
  203MOL0     C27297   5.164   1.706   6.355  0.3411 -0.5517  0.3026
  203MOL0     C27298   5.260   1.808   6.351 -0.0433  0.3155  0.2226
  203MOL0     C27299   5.409   1.771   6.354  0.1581  0.7028 -0.6062
  203MOL0     O27300   5.498   1.858   6.403  0.2557  0.6238  0.3873
  203MOL0     C27301   5.621   1.821   6.421 -0.0080  1.1005  0.1694
  203MOL0     C27302   5.698   1.792   6.307  0.1390 -0.3420  0.4995
  203MOL0     C27303   5.836   1.775   6.315 -0.1029  0.1756  0.4193
  203MOL0     C27304   5.900   1.769   6.436 -0.3198  0.3157 -0.8903
  203MOL0     O27305   6.039   1.757   6.437 -0.1317  0.0427  0.1091
  203MOL0     C27306   6.097   1.629   6.378  0.2835  0.1904 -1.0055
  203MOL0     C27307   6.215   1.674   6.289 -0.0886 -0.0084  0.5123
  203MOL0     C27308   6.281   1.562   6.213 -0.0010 -0.5827  0.2580
  203MOL0     C27309   6.415   1.594   6.159 -0.4226  0.1046 -0.7081
  203MOL0     C27310   6.472   1.487   6.066  0.2221 -0.2202  0.1936
  203MOL0     C27311   6.399   1.495   5.922  0.4922  0.1672 -0.3121
  203MOL0     C27312   6.455   1.430   5.799 -0.2868 -0.6434 -0.2547
  203MOL0     C27313   6.404   1.446   5.663 -0.5033 -0.3497 -0.3406
  203MOL0    Cl27314   6.219   1.462   5.664  0.2374 -0.8338 -0.6128
  203MOL0     C27315   5.818   1.808   6.552  0.0183  0.7679  0.5395
  203MOL0     C27316   5.681   1.823   6.546  0.4312  0.0176  0.2055
  203MOL0     O27317   5.438   1.649   6.333  0.2597 -0.1407  0.1512
  203MOL0     C27318   5.220   1.944   6.344  0.2894 -0.7787  0.0594
  203MOL0     C27319   5.084   1.979   6.327  0.8402  0.3753 -0.5488
  203MOL0     N27320   4.348   1.712   6.145  0.8157 -0.1510  0.8125
  203MOL0     N27321   4.329   1.583   6.149  0.7604 -0.8125 -0.9199
  203MOL0     C27322   4.740   1.590   6.539 -0.4110 -0.0301  0.7290
  203MOL0     C27323   4.634   1.650   6.598 -0.0748  0.0425 -0.2761
  203MOL0     C27324   4.292   1.784   6.866 -0.1829  0.6804 -0.6299
  203MOL0     C27325   4.200   1.894   6.837 -0.1433 -0.4551 -0.3346
  203MOL0     C27326   4.082   1.903   6.902  0.7823  0.2103  0.2018
  203MOL0     C27327   4.058   1.834   7.022 -0.3197  0.3000 -0.3034
  203MOL0     O27328   3.951   1.844   7.097  1.0596  0.2639 -1.2113
  203MOL0     C27329   3.915   1.984   7.135  0.4354  1.1328  0.0413
  203MOL0     C27330   3.825   1.955   7.259  0.4206 -0.5588 -0.9060
  203MOL0     C27331   3.790   2.082   7.334 -0.1273  0.0929 -0.0329
  203MOL0     C27332   3.697   2.052   7.449  1.1417 -0.4362 -0.2686
  203MOL0     C27333   3.560   2.002   7.426 -0.0940 -0.2746 -0.3367
  203MOL0     C27334   3.457   1.959   7.390  0.1324  0.1144  0.7315
  203MOL0     C27335   4.153   1.734   7.057  0.0513  0.5949  0.6822
  203MOL0     C27336   4.269   1.712   6.977 -0.6359  0.5702 -0.2154
  203MOL0     C27337   4.355   1.590   7.019 -0.1061 -0.1280 -0.3307
  203MOL0     H27338   4.700   1.528   6.911 -1.1356 -0.2902  0.5467
  203MOL0     H27339   4.899   1.439   6.794  0.9390 -0.4689 -0.6975
  203MOL0     H27340   5.054   1.289   6.491  2.7197  3.9675 -1.1013
  203MOL0     H27341   5.018   1.330   6.663 -2.3151 -1.3560  0.5015
  203MOL0     H27342   4.796   1.230   6.646 -3.4719 -2.7649 -2.5215
  203MOL0     H27343   4.912   1.108   6.599 -2.6076 -0.7109  0.8373
  203MOL0     H27344   4.825   1.134   6.358 -2.3490 -1.0266 -0.2546
  203MOL0     H27345   4.757   1.288   6.398  1.2105  0.5350 -0.1281
  203MOL0     H27346   4.613   1.068   6.390  0.1729  0.4421 -0.1129
  203MOL0     H27347   4.674   1.043   6.561  0.5635  1.0065  1.1971
  203MOL0     H27348   4.468   1.166   6.591 -3.4156  1.2876 -1.9306
  203MOL0     H27349   4.578   1.300   6.579 -0.3207  0.9649 -0.9034
  203MOL0     H27350   4.508   1.320   6.330 -2.0502  1.0948 -1.8021
  203MOL0     H27351   4.408   1.176   6.355  1.2585  1.0825 -0.8741
  203MOL0     H27352   4.384   1.438   6.517 -0.8894  1.9072 -0.8870
  203MOL0     H27353   4.262   1.309   6.514 -1.9544  1.9951  0.2649
  203MOL0     H27354   4.238   1.359   6.252 -1.6009  0.4797  0.3094
  203MOL0     H27355   4.166   1.449   6.384 -1.4257  0.4658 -2.2928
  203MOL0     H27356   4.321   1.683   6.462 -1.9618  2.0838 -1.3217
  203MOL0     H27357   4.359   1.977   6.247  0.1577  0.8145  1.4558
  203MOL0     H27358   4.395   1.907   6.405 -0.7605 -1.9664 -0.2275
  203MOL0     H27359   4.604   1.818   6.251 -0.6606 -0.2941 -2.6967
  203MOL0     H27360   4.550   1.962   6.161  1.5007  1.6868  0.1330
  203MOL0     H27361   4.626   1.960   6.457  0.0696  2.4561  1.0042
  203MOL0     H27362   4.599   2.105   6.354  0.2881  1.0335  7.3339
  203MOL0     H27363   4.836   2.092   6.382  0.4353 -0.5427 -0.4802
  203MOL0     H27364   4.795   2.051   6.216 -2.4711  1.9064  0.9863
  203MOL0     H27365   4.943   1.680   6.370  1.7985 -1.1261  0.5423
  203MOL0     H27366   5.184   1.600   6.368  0.8644 -0.3849  0.9402
  203MOL0     H27367   5.645   1.798   6.212  1.2313 -1.6135 -0.2137
  203MOL0     H27368   5.900   1.760   6.229  3.3177 -1.9452  3.0728
  203MOL0     H27369   6.133   1.572   6.464 -0.1590  1.8895  0.3576
  203MOL0     H27370   6.026   1.568   6.322  1.3400 -0.3213 -1.8231
  203MOL0     H27371   6.166   1.747   6.225  1.1082  4.0846  3.7879
  203MOL0     H27372   6.290   1.737   6.337  0.8899 -0.6008 -0.2044
  203MOL0     H27373   6.294   1.480   6.284  1.6541 -0.6518 -0.0853
  203MOL0     H27374   6.213   1.536   6.131  0.3270  1.5379 -0.7723
  203MOL0     H27375   6.489   1.596   6.240 -0.7922 -0.7160 -0.3376
  203MOL0     H27376   6.408   1.690   6.108 -1.1420 -0.1418 -1.0820
  203MOL0     H27377   6.468   1.389   6.114 -3.4838  0.4505  1.5856
  203MOL0     H27378   6.577   1.518   6.055 -0.2633  1.7815  0.8308
  203MOL0     H27379   6.298   1.456   5.937  1.0004 -1.2806 -0.4929
  203MOL0     H27380   6.391   1.601   5.895 -1.5378  0.0287 -0.4200
  203MOL0     H27381   6.450   1.323   5.824 -0.3254 -0.0683  2.5825
  203MOL0     H27382   6.559   1.462   5.797 -0.7440  1.3450  2.3493
  203MOL0     H27383   6.431   1.543   5.620  0.1558  1.1705  3.1445
  203MOL0     H27384   6.423   1.364   5.593 -2.1493  0.6511 -2.0620
  203MOL0     H27385   5.853   1.819   6.654  1.1230 -2.1042  0.5725
  203MOL0     H27386   5.619   1.854   6.630  0.3278  0.2429  0.0466
  203MOL0     H27387   5.291   2.025   6.333 -0.3779 -0.2417 -0.3627
  203MOL0     H27388   5.053   2.082   6.311  1.4539  0.8803  1.2967
  203MOL0     H27389   4.752   1.608   6.432 -0.3700 -2.2661  0.3109
  203MOL0     H27390   4.569   1.706   6.532 -0.8184 -1.5488 -0.9367
  203MOL0     H27391   4.216   1.951   6.746  1.9249 -0.2005  0.1523
  203MOL0     H27392   4.016   1.979   6.861 -2.3705 -2.5695 -0.3547
  203MOL0     H27393   3.858   2.028   7.054 -0.4092  2.0665  1.1114
  203MOL0     H27394   4.006   2.042   7.155  2.2217 -1.1355 -1.0020
  203MOL0     H27395   3.887   1.890   7.321  3.0539  0.2243 -2.5767
  203MOL0     H27396   3.732   1.913   7.218  0.1210  1.1863 -2.1490
  203MOL0     H27397   3.736   2.151   7.268 -1.5770 -0.9053  0.0644
  203MOL0     H27398   3.882   2.128   7.372  0.0313 -0.0542 -0.2327
  203MOL0     H27399   3.749   1.985   7.518  1.8457  1.9158  1.6035
  203MOL0     H27400   3.682   2.140   7.512 -4.0500 -1.4499  0.3467
  203MOL0     H27401   3.369   1.919   7.343  1.7014 -0.5035 -1.8641
  203MOL0     H27402   4.139   1.678   7.149 -2.0340 -0.9128 -0.4544
  203MOL0     H27403   4.335   1.513   6.945  2.3562 -1.2082  0.0210
  203MOL0     H27404   4.458   1.622   7.042 -1.1819  2.6342  1.1358
  203MOL0     H27405   4.325   1.541   7.112 -0.3283 -1.5857 -1.1442
  204MOL0     O27406   1.158   2.828   6.547 -0.0584  0.3057  0.4101
  204MOL0     C27407   1.105   2.936   6.559 -0.4778  0.3179 -0.0943
  204MOL0     O27408   1.169   3.043   6.615 -0.2742 -0.1367 -0.3312
  204MOL0     C27409   1.306   3.051   6.661  0.5689  0.2514  0.4135
  204MOL0     C27410   1.338   3.157   6.743 -0.3038  0.2115  0.4197
  204MOL0     C27411   1.465   3.165   6.803 -0.1483 -0.2890 -0.7491
  204MOL0     C27412   1.561   3.068   6.779  0.2289 -0.3363  0.6381
  204MOL0     O27413   1.678   3.065   6.850 -0.2667 -0.6220 -0.1812
  204MOL0     C27414   1.651   3.052   6.985  0.4293  0.5407 -1.2543
  204MOL0     C27415   1.773   3.010   7.064 -0.0705  0.5432  0.6215
  204MOL0     C27416   1.743   2.965   7.210 -0.0253  0.9230 -0.5596
  204MOL0     C27417   1.862   2.928   7.306 -0.2891  0.5925 -0.0970
  204MOL0     C27418   1.964   3.043   7.319 -0.3288  0.3673  0.5935
  204MOL0     C27419   2.085   2.989   7.403 -0.1744 -0.4364  0.6598
  204MOL0     C27420   2.165   2.890   7.311 -0.1323 -1.0428 -0.1494
  204MOL0     C27421   2.300   2.857   7.359  0.7701  0.4176  0.0510
  204MOL0     N27422   2.379   2.819   7.242  0.1784 -0.4704 -0.0159
  204MOL0     C27423   2.454   2.907   7.165 -0.2802  0.0520 -0.1668
  204MOL0     C27424   2.515   2.821   7.070 -0.6343 -0.6204 -0.4038
  204MOL0     C27425   2.580   2.870   6.943 -0.3473 -0.3467 -0.0822
  204MOL0     C27426   2.733   2.906   6.957  0.4066  0.1464 -0.6968
  204MOL0     C27427   2.823   2.817   7.046  0.0931  0.9334 -0.4759
  204MOL0     C27428   2.830   2.666   6.982 -0.4407 -0.5488 -0.1994
  204MOL0     O27429   2.857   2.658   6.843  0.1665  0.7883 -0.4303
  204MOL0     C27430   2.828   2.539   6.771 -1.2474 -0.5837  0.2786
  204MOL0     C27431   2.808   2.417   6.834  1.0839  0.0425 -0.2255
  204MOL0     C27432   2.769   2.300   6.763  0.5628 -0.5011  0.8810
  204MOL0     C27433   2.761   2.301   6.619 -0.2986  0.1327  0.6750
  204MOL0     C27434   2.733   2.176   6.553 -0.3180 -0.9670  0.1814
  204MOL0     O27435   2.779   2.058   6.609 -0.1857 -0.3353  0.6233
  204MOL0     C27436   2.802   1.955   6.524  0.8488  0.1734  1.1790
  204MOL0     C27437   2.748   1.828   6.555 -1.0451 -0.3836 -0.3284
  204MOL0     C27438   2.763   1.715   6.477 -0.4465  0.7294 -0.2156
  204MOL0     C27439   2.832   1.729   6.352  0.8126 -0.3238  0.7842
  204MOL0     O27440   2.868   1.643   6.260 -1.5576  0.5183  0.3262
  204MOL0     C27441   2.807   1.516   6.278 -1.1933 -0.4332 -0.1733
  204MOL0     C27442   2.886   1.422   6.177  0.2078 -0.1792 -0.1281
  204MOL0     C27443   3.038   1.405   6.203  0.0648 -0.5992  0.8264
  204MOL0     C27444   3.124   1.492   6.104  0.0762  0.1835 -0.1060
  204MOL0     C27445   3.275   1.463   6.122 -0.5466 -0.7145 -0.3829
  204MOL0     C27446   3.353   1.517   6.239  0.7468 -0.2550 -0.4454
  204MOL0     C27447   3.354   1.675   6.246  0.7003 -0.0170 -0.7571
  204MOL0     C27448   3.445   1.718   6.362  0.0158 -0.1572  0.2732
  204MOL0    Cl27449   3.613   1.714   6.307  0.0224 -0.0026  0.4261
  204MOL0     C27450   2.886   1.854   6.318 -0.1302  0.4297 -0.1928
  204MOL0     C27451   2.883   1.959   6.415 -0.9653 -0.6183  0.0734
  204MOL0     O27452   2.667   2.193   6.448  0.0036 -0.1735  0.3597
  204MOL0     C27453   2.778   2.428   6.559 -0.6916  0.2365  0.3450
  204MOL0     C27454   2.806   2.545   6.634 -0.7281 -0.2659  0.0559
  204MOL0     N27455   2.475   2.697   7.104 -0.9152  0.2384  0.3589
  204MOL0     N27456   2.405   2.694   7.200  0.2910  0.5807 -0.0963
  204MOL0     C27457   1.539   2.969   6.689  0.4287 -0.1156  0.5609
  204MOL0     C27458   1.412   2.964   6.624  0.6015  0.2442 -0.2431
  204MOL0     C27459   0.964   2.943   6.524 -0.3277 -0.0150  0.4285
  204MOL0     C27460   0.884   3.024   6.606  0.0117  0.0292  0.3778
  204MOL0     C27461   0.746   3.043   6.570  0.1785  0.9211 -0.5885
  204MOL0     C27462   0.695   2.961   6.471  0.1177 -0.0148  0.4701
  204MOL0     O27463   0.558   2.980   6.442  0.2663  0.0153  0.0753
  204MOL0     C27464   0.486   2.872   6.372 -0.1899 -1.1907 -0.1843
  204MOL0     C27465   0.357   2.930   6.314 -0.7894  0.1364 -0.3951
  204MOL0     C27466   0.264   2.999   6.414 -0.0900 -0.4107 -0.0956
  204MOL0     C27467   0.129   3.046   6.360  0.2380  0.1100 -0.2880
  204MOL0     C27468   0.038   2.936   6.330 -0.2114 -0.3362  0.4938
  204MOL0     C27469  -0.034   2.849   6.304  0.2765  0.5388  0.4307
  204MOL0     C27470   0.772   2.882   6.387 -0.6856  0.4168 -0.0153
  204MOL0     C27471   0.906   2.865   6.413  0.0733 -0.8936 -0.0341
  204MOL0     C27472   0.985   2.783   6.322  0.5354  0.1132  0.0867
  204MOL0     H27473   1.260   3.224   6.780  1.2586  2.5968 -0.3873
  204MOL0     H27474   1.493   3.251   6.864  0.4924 -1.3931  0.5654
  204MOL0     H27475   1.613   3.139   7.038 -0.1014 -0.1044 -0.5487
  204MOL0     H27476   1.577   2.971   6.994  1.3933 -0.1725  0.9636
  204MOL0     H27477   1.834   3.101   7.056  1.5993 -0.6800 -1.7878
  204MOL0     H27478   1.824   2.929   7.012  0.3345  0.2458  1.4645
  204MOL0     H27479   1.678   2.877   7.208  1.3363 -0.0928 -1.5437
  204MOL0     H27480   1.688   3.036   7.273  1.7349  1.7255  0.1404
  204MOL0     H27481   1.821   2.916   7.407  0.6102 -0.5986  0.1469
  204MOL0     H27482   1.902   2.839   7.256  0.6128 -0.2607  2.0530
  204MOL0     H27483   1.989   3.085   7.221 -0.2941  2.4338  1.4421
  204MOL0     H27484   1.917   3.126   7.372 -3.2134 -0.6583 -0.1356
  204MOL0     H27485   2.147   3.074   7.434 -0.5281 -0.4611  1.4584
  204MOL0     H27486   2.065   2.939   7.498 -0.6120  0.0771  0.8448
  204MOL0     H27487   2.170   2.932   7.210  1.2690 -1.1501 -0.1472
  204MOL0     H27488   2.107   2.799   7.299 -3.3569  0.3897  2.7546
  204MOL0     H27489   2.345   2.951   7.392  0.2802  1.6813 -2.6102
  204MOL0     H27490   2.280   2.785   7.439 -0.9658  1.3082  0.4598
  204MOL0     H27491   2.457   3.014   7.177 -2.0971  0.1432 -0.3500
  204MOL0     H27492   2.568   2.799   6.861 -1.2293  2.9821 -3.0722
  204MOL0     H27493   2.533   2.963   6.910 -0.6716  0.9510  3.5541
  204MOL0     H27494   2.780   2.906   6.858 -2.8399 -0.5408 -2.4125
  204MOL0     H27495   2.725   3.003   7.006 -1.1289  0.6209 -1.7939
  204MOL0     H27496   2.796   2.811   7.152  3.9762  1.8734  0.7436
  204MOL0     H27497   2.921   2.866   7.045  1.3132 -1.3956 -1.1532
  204MOL0     H27498   2.735   2.617   7.004 -0.2242  0.6317  4.4216
  204MOL0     H27499   2.904   2.603   7.033 -0.5121 -1.7705 -1.5499
  204MOL0     H27500   2.833   2.406   6.939  1.7625  3.0471  0.0331
  204MOL0     H27501   2.758   2.210   6.822  0.9902 -1.9013 -1.0717
  204MOL0     H27502   2.711   1.811   6.656  2.4175  1.8529  1.5390
  204MOL0     H27503   2.726   1.620   6.514 -0.2597  0.4484 -0.7284
  204MOL0     H27504   2.816   1.490   6.384 -0.1347  0.5571 -0.0035
  204MOL0     H27505   2.700   1.519   6.255 -1.2100 -1.6942 -0.2902
  204MOL0     H27506   2.837   1.324   6.174 -1.3319  0.5916 -1.3082
  204MOL0     H27507   2.869   1.472   6.082 -2.0430  0.4478  0.5553
  204MOL0     H27508   3.070   1.430   6.305 -0.8203  0.7380  0.7942
  204MOL0     H27509   3.058   1.299   6.183 -0.0865 -0.5441  0.3815
  204MOL0     H27510   3.101   1.597   6.127 -1.4607 -0.0695 -0.3748
  204MOL0     H27511   3.090   1.473   6.002 -2.9078  1.5011  0.5110
  204MOL0     H27512   3.326   1.513   6.039 -0.1108 -1.6850 -0.7209
  204MOL0     H27513   3.300   1.358   6.105  1.2308 -0.7419  1.8837
  204MOL0     H27514   3.315   1.480   6.334  0.3292 -2.3317 -1.3718
  204MOL0     H27515   3.461   1.504   6.231  0.8873  0.7438 -0.4067
  204MOL0     H27516   3.256   1.707   6.280 -0.0573 -0.8930 -2.0216
  204MOL0     H27517   3.385   1.715   6.149  0.3786 -1.5503 -1.5354
  204MOL0     H27518   3.429   1.821   6.396  0.7723 -0.2441  0.9432
  204MOL0     H27519   3.445   1.643   6.442 -0.8254  1.8307  2.2351
  204MOL0     H27520   2.934   1.870   6.222 -1.3972  1.9693 -0.6186
  204MOL0     H27521   2.920   2.057   6.388 -0.8174 -0.6427  0.1860
  204MOL0     H27522   2.770   2.433   6.451  0.2182  1.0924  0.3036
  204MOL0     H27523   2.815   2.641   6.583  2.0622  0.5277  1.8593
  204MOL0     H27524   1.608   2.897   6.646  1.4277 -0.4270  2.5647
  204MOL0     H27525   1.399   2.893   6.543  1.7587 -1.6622  1.1442
  204MOL0     H27526   0.936   3.072   6.688  3.0317 -0.0348 -1.3603
  204MOL0     H27527   0.676   3.095   6.634  0.7488  1.5725 -0.4895
  204MOL0     H27528   0.456   2.808   6.455 -2.0647  0.4984  0.5321
  204MOL0     H27529   0.535   2.825   6.286  1.8214  2.3510 -1.2097
  204MOL0     H27530   0.309   2.842   6.269  1.6068 -0.3234 -2.2484
  204MOL0     H27531   0.374   2.993   6.226  0.1031 -1.2332 -1.2305
  204MOL0     H27532   0.312   3.086   6.460  0.5979  1.2060 -3.5589
  204MOL0     H27533   0.239   2.928   6.493  2.3980 -0.7404  0.4824
  204MOL0     H27534   0.081   3.108   6.435  2.8480 -2.3332  3.8228
  204MOL0     H27535   0.149   3.104   6.269  1.4467 -1.0709 -0.8129
  204MOL0     H27536  -0.088   2.762   6.272  2.2973 -1.0883  1.2188
  204MOL0     H27537   0.736   2.832   6.297 -1.9589 -1.5515  1.5000
  204MOL0     H27538   1.077   2.828   6.284  2.4376 -0.6500  3.4383
  204MOL0     H27539   1.023   2.704   6.388 -2.8133  0.4568  2.6765
  204MOL0     H27540   0.925   2.746   6.238 -0.3205  2.3198 -0.3615
  205MOL0     O27541   0.338  10.199   9.337  1.1052  0.3218  0.9269
  205MOL0     C27542   0.353  10.296   9.404  0.2027  0.7958 -0.4989
  205MOL0     O27543   0.468  10.371   9.406 -0.0606 -0.0265  0.7723
  205MOL0     C27544   0.592  10.312   9.401  0.3259 -0.3458  0.1106
  205MOL0     C27545   0.696  10.390   9.359 -0.0259  0.1351  0.4513
  205MOL0     C27546   0.829  10.352   9.360 -0.2947 -0.9402 -0.1887
  205MOL0     C27547   0.860  10.218   9.384 -0.5521  0.1004  0.4451
  205MOL0     O27548   0.987  10.172   9.370 -0.0301 -0.0757 -0.1509
  205MOL0     C27549   1.090  10.267   9.413 -0.5059 -0.2598  0.6311
  205MOL0     C27550   1.207  10.197   9.463 -0.2787  0.1431  0.0475
  205MOL0     C27551   1.177  10.144   9.600  0.0361  1.1019  0.0718
  205MOL0     C27552   1.254  10.020   9.632 -0.0477  0.1237 -0.0625
  205MOL0     C27553   1.207   9.890   9.569  0.0470 -0.9128 -0.2732
  205MOL0     C27554   1.269   9.760   9.617  0.4496  0.2052  0.3188
  205MOL0     C27555   1.416   9.744   9.588 -0.0859  0.5685  1.0741
  205MOL0     C27556   1.476   9.607   9.620  0.5286  0.5009 -0.2851
  205MOL0     N27557   1.621   9.613   9.606 -0.2038 -0.0638 -0.4814
  205MOL0     C27558   1.687   9.634   9.486 -0.0217 -0.1362 -0.5703
  205MOL0     C27559   1.808   9.591   9.515 -0.4461  1.0880 -0.3627
  205MOL0     C27560   1.930   9.601   9.417 -0.1242  0.2769  0.1542
  205MOL0     C27561   2.062   9.603   9.489 -0.2539  0.2325  0.2518
  205MOL0     C27562   2.078   9.735   9.562 -0.0046 -0.4804  0.7298
  205MOL0     C27563   2.224   9.771   9.579  0.3646  1.0737 -0.2343
  205MOL0     O27564   2.266   9.666   9.664 -0.2708 -0.5105  0.3559
  205MOL0     C27565   2.400   9.648   9.702  0.8819 -0.4300  0.5886
  205MOL0     C27566   2.433   9.556   9.814  0.2207 -0.5777  0.3437
  205MOL0     C27567   2.558   9.537   9.856 -0.2098  0.5341  0.3218
  205MOL0     C27568   2.669   9.598   9.794  0.1277 -0.5921 -0.2417
  205MOL0     C27569   2.811   9.568   9.833  0.9315 -0.3677  0.2268
  205MOL0     O27570   2.898   9.616   9.745  0.0779 -0.0607 -0.2228
  205MOL0     C27571   3.035   9.619   9.781  0.8845 -0.5798 -0.0212
  205MOL0     C27572   3.126   9.559   9.702  0.6318 -0.5731 -0.0842
  205MOL0     C27573   3.256   9.556   9.744 -0.3999  0.4092 -0.0453
  205MOL0     C27574   3.295   9.613   9.860 -0.7576  0.6155  0.0847
  205MOL0     O27575   3.436   9.602   9.887 -0.4289  0.2154  0.1823
  205MOL0     C27576   3.488   9.645  10.017 -0.6059  0.0521 -0.0957
  205MOL0     C27577   3.637   9.616  10.026  0.2768  0.3061 -0.5897
  205MOL0     C27578   3.723   9.653   9.908 -0.4012  0.1839 -0.4645
  205MOL0     C27579   3.870   9.617   9.943 -0.7499 -0.3732  0.0532
  205MOL0     C27580   3.973   9.663   9.834  0.2545  0.0436  0.3862
  205MOL0     C27581   4.122   9.640   9.873  0.6717 -0.0230  0.6884
  205MOL0     C27582   4.157   9.710   9.997  0.1545 -1.0455 -1.8929
  205MOL0     C27583   4.309   9.724  10.022 -0.7880 -0.7210 -0.3452
  205MOL0    Cl27584   4.388   9.565  10.014 -0.1496 -0.2167 -0.4097
  205MOL0     C27585   3.208   9.683   9.946 -0.1465  0.1258 -0.0965
  205MOL0     C27586   3.075   9.690   9.903 -0.3271  0.2090  0.4958
  205MOL0     O27587   2.832   9.501   9.929  0.1601 -0.0851 -0.1078
  205MOL0     C27588   2.646   9.676   9.679  0.2859 -0.4627 -0.5522
  205MOL0     C27589   2.514   9.705   9.639  0.4247  0.0987  0.5359
  205MOL0     N27590   1.819   9.533   9.638  0.1123 -0.0709  0.2373
  205MOL0     N27591   1.705   9.555   9.701 -0.1676 -0.3682 -0.1027
  205MOL0     C27592   0.751  10.139   9.422 -0.1422  1.2981 -0.9297
  205MOL0     C27593   0.617  10.182   9.445 -0.5475  0.1449  0.0565
  205MOL0     C27594   0.232  10.360   9.464  0.4477 -0.5081 -0.1141
  205MOL0     C27595   0.104  10.315   9.432  0.0475 -0.2024 -0.7848
  205MOL0     C27596  -0.011  10.359   9.479 -0.6375  0.2088  0.2274
  205MOL0     C27597  -0.014  10.468   9.568  0.5993 -0.9263 -0.3394
  205MOL0     O27598  -0.119  10.521   9.639 -0.2830  0.6554 -0.0151
  205MOL0     C27599  -0.249  10.465   9.609  0.2837 -0.2180 -0.4528
  205MOL0     C27600  -0.365  10.548   9.667  0.8665 -0.1122 -0.1672
  205MOL0     C27601  -0.369  10.578   9.817  0.4678 -0.1629  0.6457
  205MOL0     C27602  -0.392  10.453   9.902  0.0062 -0.2600  1.2954
  205MOL0     C27603  -0.373  10.484  10.047  1.0756 -0.2403 -0.6227
  205MOL0     C27604  -0.361  10.488  10.166  0.7329 -0.2424  0.1068
  205MOL0     C27605   0.112  10.519   9.605  0.8890  0.0269  0.1189
  205MOL0     C27606   0.230  10.474   9.543  0.5019 -0.3987  0.6419
  205MOL0     C27607   0.355  10.551   9.581  0.4336  0.1631 -0.6022
  205MOL0     H27608   0.662  10.483   9.315 -1.4809 -0.6794 -0.2278
  205MOL0     H27609   0.890  10.422   9.304 -0.1710  0.4685  1.6221
  205MOL0     H27610   1.112  10.319   9.319 -2.2336 -0.8459 -0.1421
  205MOL0     H27611   1.055  10.348   9.477 -2.0420  0.5285 -1.0915
  205MOL0     H27612   1.283  10.276   9.460 -0.2341  0.1756 -4.0872
  205MOL0     H27613   1.237  10.118   9.394 -0.8742  0.2758 -0.3668
  205MOL0     H27614   1.069  10.130   9.608  0.3516 -2.8405 -0.8879
  205MOL0     H27615   1.213  10.222   9.668 -1.9611  4.4543 -2.3976
  205MOL0     H27616   1.359  10.037   9.606  0.1279 -2.4992 -1.3116
  205MOL0     H27617   1.238  10.003   9.739  3.2700 -1.8081  0.2592
  205MOL0     H27618   1.104   9.888   9.607  0.9021 -0.0392  2.3444
  205MOL0     H27619   1.214   9.904   9.461  1.8851  3.3021  0.1976
  205MOL0     H27620   1.248   9.756   9.725 -0.5423 -1.1598  0.0833
  205MOL0     H27621   1.219   9.675   9.573  1.3258  0.1869 -0.6735
  205MOL0     H27622   1.471   9.826   9.637  0.4892  0.8878 -0.0847
  205MOL0     H27623   1.426   9.767   9.482  4.1563  2.0441  1.6114
  205MOL0     H27624   1.460   9.581   9.725 -0.3316  1.6495 -0.1152
  205MOL0     H27625   1.432   9.528   9.559 -0.7897  0.8385  0.1950
  205MOL0     H27626   1.657   9.672   9.389  0.0885 -1.7045 -1.2304
  205MOL0     H27627   1.937   9.513   9.351  2.0571  2.0332 -2.1446
  205MOL0     H27628   1.927   9.690   9.354 -0.6918  1.2790  1.5610
  205MOL0     H27629   2.067   9.521   9.561  3.0241 -1.1351 -1.3243
  205MOL0     H27630   2.140   9.594   9.412 -1.2579  1.1561 -0.9170
  205MOL0     H27631   2.023   9.728   9.656  0.3432 -2.0598  0.8395
  205MOL0     H27632   2.032   9.816   9.504  2.6301 -0.7447 -1.9694
  205MOL0     H27633   2.240   9.867   9.629 -0.1345  1.0159  0.0432
  205MOL0     H27634   2.269   9.782   9.480  0.4124 -3.8689 -1.0276
  205MOL0     H27635   2.351   9.504   9.864 -0.8797  0.9815  0.2319
  205MOL0     H27636   2.572   9.474   9.943  1.5827 -0.1133 -0.3808
  205MOL0     H27637   3.089   9.519   9.608 -0.7224  0.3209  0.0503
  205MOL0     H27638   3.334   9.521   9.677  0.7271  1.4948  0.6576
  205MOL0     H27639   3.480   9.753  10.031 -0.3338 -0.0181  0.6334
  205MOL0     H27640   3.450   9.589  10.103  0.4463  1.1261  1.1063
  205MOL0     H27641   3.673   9.663  10.118  0.3410  0.4265 -0.6744
  205MOL0     H27642   3.647   9.509  10.047 -2.8573 -0.2524 -1.4601
  205MOL0     H27643   3.690   9.605   9.815  0.1208  0.7736 -0.9621
  205MOL0     H27644   3.716   9.761   9.890  1.3372  0.1917 -1.3567
  205MOL0     H27645   3.880   9.509   9.953  1.4131 -0.2096  0.1138
  205MOL0     H27646   3.887   9.667  10.039 -1.7601 -1.9078  1.0780
  205MOL0     H27647   3.968   9.770   9.809 -2.5251 -0.4022 -1.3967
  205MOL0     H27648   3.964   9.598   9.746  0.3059 -0.8429  1.0283
  205MOL0     H27649   4.143   9.534   9.887  0.0114 -0.3498 -0.5988
  205MOL0     H27650   4.190   9.684   9.799  1.1801  1.3052  1.8859
  205MOL0     H27651   4.116   9.653  10.081  0.6497  1.7810  0.4122
  205MOL0     H27652   4.122   9.814   9.990  0.4380 -1.0669 -4.3698
  205MOL0     H27653   4.363   9.791   9.955 -1.6847  0.9981  0.5978
  205MOL0     H27654   4.324   9.769  10.120  3.6464  0.9978 -1.5650
  205MOL0     H27655   3.242   9.728  10.038 -4.9069  1.2288  1.3826
  205MOL0     H27656   3.001   9.718   9.976 -0.0572 -1.8208  1.6361
  205MOL0     H27657   2.722   9.726   9.619 -0.9942 -0.7515 -2.5075
  205MOL0     H27658   2.492   9.764   9.550 -0.6928 -2.6869 -1.1674
  205MOL0     H27659   0.771  10.035   9.447  4.1961  1.7550 -1.6663
  205MOL0     H27660   0.544  10.111   9.483  1.4933 -1.5690  0.9694
  205MOL0     H27661   0.096  10.233   9.361 -0.7600 -2.3041  1.6103
  205MOL0     H27662  -0.102  10.302   9.461 -2.1978  1.4996  3.1950
  205MOL0     H27663  -0.242  10.361   9.644  1.1212 -0.2372 -0.6647
  205MOL0     H27664  -0.261  10.467   9.501 -2.2268 -0.9850 -0.2584
  205MOL0     H27665  -0.458  10.499   9.636  1.0961 -0.8915  0.3423
  205MOL0     H27666  -0.362  10.639   9.607  0.8454 -1.0491 -1.6334
  205MOL0     H27667  -0.451  10.646   9.841 -0.8395 -0.6244 -2.1172
  205MOL0     H27668  -0.273  10.626   9.837  0.3641  1.2367 -1.8307
  205MOL0     H27669  -0.491  10.408   9.899  0.9018 -2.3121  0.9741
  205MOL0     H27670  -0.319  10.375   9.879 -1.0108 -1.0361  0.5963
  205MOL0     H27671  -0.367  10.497  10.273  3.5748  1.0868  0.2301
  205MOL0     H27672   0.122  10.597   9.680  1.7126  1.4573 -1.4065
  205MOL0     H27673   0.404  10.583   9.489 -0.1585 -2.2987 -1.8498
  205MOL0     H27674   0.338  10.644   9.637  1.2309 -0.2004  0.2736
  205MOL0     H27675   0.424  10.490   9.639  0.4018  0.0771 -0.6546
  206MOL0     O27676   4.978   2.176   5.465  0.6074 -0.0661  0.2350
  206MOL0     C27677   5.033   2.066   5.468  0.0388  0.1690  0.3218
  206MOL0     O27678   4.984   1.949   5.423 -0.0762 -0.2088 -0.1734
  206MOL0     C27679   4.849   1.959   5.392  0.1228  0.1585 -0.1094
  206MOL0     C27680   4.758   1.906   5.481  0.2264  0.2242  0.0241
  206MOL0     C27681   4.618   1.904   5.454 -0.6313 -0.0276 -0.2276
  206MOL0     C27682   4.573   1.967   5.336 -0.7148 -0.7096  0.5241
  206MOL0     O27683   4.444   1.990   5.305  0.0064  0.5561 -0.4304
  206MOL0     C27684   4.346   2.011   5.414 -0.8028 -0.5189  0.5854
  206MOL0     C27685   4.204   1.991   5.364  0.0702  0.5530 -0.0386
  206MOL0     C27686   4.098   2.011   5.472  0.1689  0.6779 -0.1851
  206MOL0     C27687   4.038   2.150   5.471 -0.4491 -0.4114 -0.2472
  206MOL0     C27688   3.902   2.157   5.550 -1.1857  0.1848  0.5813
  206MOL0     C27689   3.782   2.127   5.447  0.6389 -0.4210  0.4686
  206MOL0     C27690   3.747   2.246   5.361  1.0588 -0.1771 -0.4021
  206MOL0     C27691   3.634   2.217   5.266 -1.0903 -0.0780 -0.0840
  206MOL0     N27692   3.507   2.193   5.334 -0.0580 -0.4771  0.0330
  206MOL0     C27693   3.426   2.285   5.402  1.0688 -0.4504 -0.1554
  206MOL0     C27694   3.313   2.216   5.425  0.5351  0.2672  0.6908
  206MOL0     C27695   3.183   2.267   5.481  0.9639  0.7518 -0.5890
  206MOL0     C27696   3.107   2.371   5.403  1.0548 -0.5178  0.4681
  206MOL0     C27697   3.091   2.344   5.254 -0.4138 -0.0656 -0.2265
  206MOL0     C27698   2.956   2.376   5.196 -0.1171  0.1676 -0.1598
  206MOL0     O27699   2.933   2.518   5.202 -0.1763 -0.8109 -0.5663
  206MOL0     C27700   2.805   2.569   5.212 -0.5701 -0.0866  0.5083
  206MOL0     C27701   2.797   2.702   5.234 -0.0609 -0.9129 -0.5920
  206MOL0     C27702   2.673   2.775   5.236  0.5582 -0.1414  0.8672
  206MOL0     C27703   2.552   2.700   5.222 -0.3059 -0.5625  0.5148
  206MOL0     C27704   2.415   2.759   5.224 -0.2867 -0.0745  0.4836
  206MOL0     O27705   2.312   2.671   5.230 -1.1045  0.1231  0.2160
  206MOL0     C27706   2.191   2.706   5.180  0.1114 -0.2981 -0.7695
  206MOL0     C27707   2.167   2.686   5.046 -0.2968 -0.4170 -0.4138
  206MOL0     C27708   2.048   2.732   4.989  0.0165 -0.6324  0.6733
  206MOL0     C27709   1.939   2.784   5.067 -0.0345 -1.6731 -0.7356
  206MOL0     O27710   1.819   2.826   5.022 -0.4635  0.0663  0.0614
  206MOL0     C27711   1.790   2.830   4.882  0.0249  0.2787  0.3202
  206MOL0     C27712   1.646   2.873   4.855 -1.0123  0.6218 -0.0887
  206MOL0     C27713   1.633   3.031   4.872 -0.4666  0.3026 -0.4570
  206MOL0     C27714   1.498   3.083   4.825 -0.1441 -0.2856  0.6764
  206MOL0     C27715   1.469   3.222   4.872 -0.8104  0.2961 -0.3858
  206MOL0     C27716   1.331   3.276   4.843 -0.6447 -0.7193  0.5446
  206MOL0     C27717   1.208   3.203   4.899  0.3674 -0.2181 -0.1352
  206MOL0     C27718   1.070   3.272   4.883  0.3410  0.2285  0.2627
  206MOL0    Cl27719   0.928   3.181   4.945  0.3510  0.2017 -0.3422
  206MOL0     C27720   1.964   2.802   5.206 -0.1460 -0.3779 -0.0716
  206MOL0     C27721   2.087   2.759   5.264 -0.0706  0.5310 -0.1353
  206MOL0     O27722   2.397   2.879   5.202 -0.6861 -0.0162  0.4960
  206MOL0     C27723   2.557   2.561   5.199  0.8807 -0.2368 -0.5320
  206MOL0     C27724   2.688   2.492   5.195  0.6003 -0.7432  0.2115
  206MOL0     N27725   3.327   2.099   5.366  0.5316  0.4421 -0.1412
  206MOL0     N27726   3.442   2.081   5.310 -0.3636 -0.6129 -0.0076
  206MOL0     C27727   4.666   2.015   5.246  0.2641 -0.5068 -0.0677
  206MOL0     C27728   4.801   2.025   5.278  0.3443  0.2415 -0.3061
  206MOL0     C27729   5.172   2.052   5.516 -0.6218  0.3564 -0.5223
  206MOL0     C27730   5.239   1.937   5.482  0.7540 -0.2605  0.1498
  206MOL0     C27731   5.367   1.915   5.525  0.1359 -0.3501 -0.4775
  206MOL0     C27732   5.435   1.996   5.617 -0.2465  0.9370  0.0532
  206MOL0     O27733   5.558   1.968   5.680 -0.0665 -0.1136  0.2095
  206MOL0     C27734   5.599   1.831   5.689  0.2976  0.3424  0.4108
  206MOL0     C27735   5.711   1.825   5.804  0.3329 -0.6154 -0.3108
  206MOL0     C27736   5.821   1.927   5.792  1.0276  0.3385  0.4604
  206MOL0     C27737   5.919   1.927   5.897 -0.3869  0.0557 -0.1220
  206MOL0     C27738   6.000   1.804   5.910  0.0100  0.0416 -0.6464
  206MOL0     C27739   6.063   1.699   5.920  0.1031 -0.8102  0.0536
  206MOL0     C27740   5.374   2.109   5.652  0.1013 -0.6381  0.8154
  206MOL0     C27741   5.243   2.139   5.606 -0.2262  0.3215  0.9391
  206MOL0     C27742   5.166   2.253   5.678 -0.4249  0.8201 -0.3140
  206MOL0     H27743   4.803   1.860   5.568  1.0350 -0.6998 -0.8449
  206MOL0     H27744   4.549   1.862   5.527 -0.4910 -0.8575 -0.5577
  206MOL0     H27745   4.365   1.942   5.497 -2.5731  3.4644  4.7409
  206MOL0     H27746   4.364   2.113   5.448 -1.1763 -0.9075  2.0283
  206MOL0     H27747   4.204   1.887   5.330  0.3548  0.6921 -0.4829
  206MOL0     H27748   4.189   2.058   5.278  2.4853  0.3217 -0.7409
  206MOL0     H27749   4.132   1.981   5.571  0.4266  0.1842 -0.4168
  206MOL0     H27750   4.023   1.938   5.441 -0.0448  0.4004  0.9706
  206MOL0     H27751   4.117   2.208   5.518  0.8721 -0.4197 -2.3155
  206MOL0     H27752   4.026   2.190   5.370 -0.1551  0.4620  0.0546
  206MOL0     H27753   3.907   2.080   5.628 -1.4009 -2.1741 -1.6052
  206MOL0     H27754   3.901   2.254   5.601  1.7564  3.2776 -4.3972
  206MOL0     H27755   3.815   2.046   5.381  4.2625  1.2745 -0.0686
  206MOL0     H27756   3.697   2.096   5.508  0.3609  1.5422  1.1479
  206MOL0     H27757   3.836   2.274   5.304  0.6453  0.5635 -0.7083
  206MOL0     H27758   3.728   2.335   5.421  1.5513 -0.3190 -0.0344
  206MOL0     H27759   3.631   2.305   5.200  0.1884 -1.2839 -1.8626
  206MOL0     H27760   3.660   2.142   5.191  0.6809  0.4025 -0.0050
  206MOL0     H27761   3.454   2.387   5.429  1.0778  0.5457 -3.4342
  206MOL0     H27762   3.111   2.184   5.480 -1.8544  2.9943  0.6935
  206MOL0     H27763   3.207   2.306   5.580  2.7663 -1.5407 -0.0268
  206MOL0     H27764   3.011   2.375   5.456  0.8574 -0.9915  0.1523
  206MOL0     H27765   3.148   2.473   5.401 -3.3437  1.5023 -1.9922
  206MOL0     H27766   3.085   2.238   5.228 -1.2713  1.0400 -6.0513
  206MOL0     H27767   3.176   2.396   5.208 -1.0431  0.8520 -0.3629
  206MOL0     H27768   2.884   2.320   5.256  0.3892 -1.4786 -1.0090
  206MOL0     H27769   2.954   2.354   5.088 -1.8395  1.3612 -0.4222
  206MOL0     H27770   2.889   2.755   5.255 -0.1011 -0.2796 -1.9377
  206MOL0     H27771   2.665   2.883   5.248  0.6267  0.1351 -1.1588
  206MOL0     H27772   2.244   2.639   4.986 -0.2326  0.4581 -1.0454
  206MOL0     H27773   2.038   2.714   4.883  3.3249  1.1141 -0.0792
  206MOL0     H27774   1.858   2.882   4.815  0.9791 -1.2609  0.0321
  206MOL0     H27775   1.806   2.724   4.856 -0.7171 -0.1131  1.4016
  206MOL0     H27776   1.634   2.857   4.747  2.6623  0.6065 -0.6247
  206MOL0     H27777   1.572   2.820   4.914  1.4736 -1.3756  1.4527
  206MOL0     H27778   1.654   3.052   4.977  2.4602 -0.3678 -0.8100
  206MOL0     H27779   1.713   3.070   4.809 -1.7161  1.3385 -1.4436
  206MOL0     H27780   1.427   3.012   4.868  1.9250 -1.0765  3.0168
  206MOL0     H27781   1.494   3.094   4.716 -1.3371  1.0998  0.8269
  206MOL0     H27782   1.540   3.287   4.819 -0.3201 -0.7566 -1.0693
  206MOL0     H27783   1.493   3.226   4.978 -1.0862  1.1829 -0.3487
  206MOL0     H27784   1.337   3.378   4.883 -0.5438 -0.7750  0.6717
  206MOL0     H27785   1.319   3.284   4.735  0.8051  2.0252  0.4977
  206MOL0     H27786   1.218   3.182   5.006 -1.6081  1.0282  0.3566
  206MOL0     H27787   1.209   3.109   4.844  0.2287 -0.3295  0.0539
  206MOL0     H27788   1.072   3.374   4.923  0.3023 -0.6494  2.6646
  206MOL0     H27789   1.062   3.286   4.775  0.4538  1.9933  0.4418
  206MOL0     H27790   1.888   2.858   5.259  2.6060  2.5695  1.0650
  206MOL0     H27791   2.105   2.774   5.370  3.1193 -0.9026 -0.3417
  206MOL0     H27792   2.467   2.501   5.190  0.6767  0.0743 -0.5538
  206MOL0     H27793   2.693   2.384   5.187  0.3494 -0.6920 -0.7405
  206MOL0     H27794   4.630   2.060   5.154  2.0542  0.4297 -0.3518
  206MOL0     H27795   4.873   2.071   5.212 -3.1834  2.0962 -3.2537
  206MOL0     H27796   5.200   1.859   5.418  2.1066 -1.9245  1.2661
  206MOL0     H27797   5.422   1.826   5.496  2.6765  0.8350  0.4206
  206MOL0     H27798   5.627   1.796   5.589 -1.3853 -0.7040  0.2679
  206MOL0     H27799   5.516   1.770   5.725 -0.4074  0.3778 -1.0886
  206MOL0     H27800   5.761   1.727   5.798  0.7399 -0.4051 -0.3633
  206MOL0     H27801   5.662   1.837   5.901 -1.9998 -1.4799 -1.3082
  206MOL0     H27802   5.775   2.026   5.786 -0.6107 -0.4469 -0.6588
  206MOL0     H27803   5.880   1.919   5.700 -0.4708 -2.3380 -0.4081
  206MOL0     H27804   5.992   2.008   5.884  1.6826 -1.7223 -0.1423
  206MOL0     H27805   5.874   1.931   5.996  0.8214 -2.0049  0.5748
  206MOL0     H27806   6.116   1.608   5.902 -1.1468 -1.2829 -1.4401
  206MOL0     H27807   5.417   2.174   5.727 -1.3414  0.0963  1.0450
  206MOL0     H27808   5.216   2.286   5.770 -2.1322 -0.5830  1.1936
  206MOL0     H27809   5.156   2.331   5.602 -2.2381  0.1947 -0.7435
  206MOL0     H27810   5.070   2.216   5.714 -0.1760 -0.3856 -0.8467
  207MOL0     O27811   9.539   1.411   0.253  0.0370  0.0194 -0.4904
  207MOL0     C27812   9.449   1.348   0.206 -0.6017  0.6908 -0.7782
  207MOL0     O27813   9.468   1.255   0.095  0.0902  0.1742  0.9726
  207MOL0     C27814   9.596   1.240   0.046 -0.2112  1.0677  0.2135
  207MOL0     C27815   9.615   1.193  -0.086 -0.7186  0.4298 -0.1476
  207MOL0     C27816   9.743   1.154  -0.128  0.3311 -0.3405 -0.1009
  207MOL0     C27817   9.857   1.169  -0.043  0.6459 -0.2268  0.1682
  207MOL0     O27818   9.986   1.131  -0.083 -0.5559  0.1942 -0.5989
  207MOL0     C27819  10.096   1.177  -0.004  0.2246  0.4970 -0.2403
  207MOL0     C27820  10.214   1.169  -0.102  1.0139  0.9596  0.0626
  207MOL0     C27821  10.322   1.277  -0.068  0.0500 -0.5831 -0.2663
  207MOL0     C27822  10.425   1.303  -0.181 -0.2454  0.9557 -0.2911
  207MOL0     C27823  10.504   1.435  -0.149  0.5116  0.1300 -1.1254
  207MOL0     C27824  10.605   1.477  -0.251 -0.1445  1.2433  0.1103
  207MOL0     C27825  10.535   1.526  -0.379  0.2457  0.3790  0.0675
  207MOL0     C27826  10.613   1.624  -0.480 -0.5147  0.6028  0.2484
  207MOL0     N27827  10.740   1.569  -0.526  0.8382  0.4232  0.2259
  207MOL0     C27828  10.765   1.462  -0.600 -0.3985  0.6161  0.6259
  207MOL0     C27829  10.896   1.456  -0.629  0.5712  0.1149 -0.3795
  207MOL0     C27830  10.981   1.354  -0.704 -0.0846 -0.2298 -0.1651
  207MOL0     C27831  11.057   1.429  -0.819 -0.7109 -0.1893  0.6180
  207MOL0     C27832  11.196   1.480  -0.769  0.3524 -0.4763 -0.3124
  207MOL0     C27833  11.277   1.549  -0.870  0.3232 -0.3300  0.4539
  207MOL0     O27834  11.290   1.491  -0.999  0.0713 -0.1587 -0.1900
  207MOL0     C27835  11.408   1.425  -1.036 -0.5212  0.5516 -0.1608
  207MOL0     C27836  11.418   1.388  -1.168  0.9319 -0.5814  0.7738
  207MOL0     C27837  11.535   1.336  -1.227  0.3520  0.1220 -0.1168
  207MOL0     C27838  11.644   1.298  -1.147 -0.2692  0.3365 -0.0993
  207MOL0     C27839  11.766   1.231  -1.201  0.3369 -0.3730  0.0900
  207MOL0     O27840  11.800   1.244  -1.332  0.3088  0.8658  0.4394
  207MOL0     C27841  11.896   1.160  -1.379  0.1095  0.0862 -0.4605
  207MOL0     C27842  12.020   1.147  -1.314  0.3181  0.1600  1.2441
  207MOL0     C27843  12.126   1.061  -1.354  0.3728 -0.0815 -0.2404
  207MOL0     C27844  12.105   0.983  -1.466 -0.3427 -0.1472  0.6037
  207MOL0     O27845  12.210   0.903  -1.505  0.8898 -0.3834 -0.1814
  207MOL0     C27846  12.173   0.792  -1.566  0.4766  0.5056  0.2511
  207MOL0     C27847  12.275   0.673  -1.554 -0.2912 -0.1828 -0.4094
  207MOL0     C27848  12.409   0.703  -1.631  0.2965  0.2552 -0.8967
  207MOL0     C27849  12.485   0.571  -1.651  0.6559  0.8896  1.0040
  207MOL0     C27850  12.622   0.596  -1.712  0.0035 -0.2061  0.5028
  207MOL0     C27851  12.707   0.467  -1.736  0.0431 -0.0469  0.1485
  207MOL0     C27852  12.824   0.502  -1.831  0.2476 -0.1478  0.2745
  207MOL0     C27853  12.916   0.378  -1.858  0.1976 -0.7113 -0.4300
  207MOL0    Cl27854  12.814   0.254  -1.933  0.1679 -0.6409  0.0223
  207MOL0     C27855  11.984   1.002  -1.536 -0.6583 -0.4725  0.4029
  207MOL0     C27856  11.880   1.091  -1.497 -0.9767 -0.3593  0.3399
  207MOL0     O27857  11.836   1.182  -1.114  0.1643 -0.1472  0.4483
  207MOL0     C27858  11.629   1.331  -1.003 -0.0115  0.8011  0.1846
  207MOL0     C27859  11.519   1.396  -0.955  1.1666  0.0761  0.2306
  207MOL0     N27860  10.953   1.554  -0.553 -0.6338  0.5213 -0.5989
  207MOL0     N27861  10.866   1.621  -0.494  0.7230 -0.3631 -0.1190
  207MOL0     C27862   9.830   1.185   0.089 -0.1298 -0.7801 -0.2769
  207MOL0     C27863   9.703   1.222   0.134 -0.4718  0.4174  0.2163
  207MOL0     C27864   9.310   1.375   0.253  0.6959 -0.5065 -0.3526
  207MOL0     C27865   9.212   1.279   0.214  0.4770 -0.0439  0.0730
  207MOL0     C27866   9.082   1.291   0.248  0.5071 -0.3041  0.5375
  207MOL0     C27867   9.031   1.417   0.281  0.6614 -0.4046  0.7607
  207MOL0     O27868   8.893   1.443   0.300 -0.2368 -0.0965 -0.7859
  207MOL0     C27869   8.803   1.364   0.223 -0.5795  0.5006  1.1799
  207MOL0     C27870   8.667   1.430   0.220 -0.9396 -0.2821 -0.0887
  207MOL0     C27871   8.610   1.464   0.359  0.1239  0.5393  0.4846
  207MOL0     C27872   8.485   1.537   0.336  0.1749  0.6465  0.1386
  207MOL0     C27873   8.365   1.461   0.296 -0.1355  0.3238 -0.2692
  207MOL0     C27874   8.261   1.414   0.260  1.1261 -0.8295 -0.0158
  207MOL0     C27875   9.123   1.504   0.331  0.8046 -0.4933  0.2888
  207MOL0     C27876   9.256   1.492   0.334 -0.3496  0.0604 -0.7072
  207MOL0     C27877   9.340   1.609   0.377 -0.4441  0.3846  0.2043
  207MOL0     H27878   9.524   1.198  -0.145 -0.7688  0.5415 -0.0615
  207MOL0     H27879   9.765   1.137  -0.233  0.9567 -0.8086  0.1011
  207MOL0     H27880  10.066   1.279   0.022 -2.0604  0.0673 -0.9536
  207MOL0     H27881  10.108   1.107   0.079 -2.1828 -2.1064 -1.8944
  207MOL0     H27882  10.178   1.189  -0.204 -3.2171 -1.4943  0.8631
  207MOL0     H27883  10.259   1.070  -0.094  0.4690  0.8508  2.6851
  207MOL0     H27884  10.373   1.237   0.021  0.5164  1.3662  0.3974
  207MOL0     H27885  10.285   1.372  -0.028  2.6862  0.5346 -0.2687
  207MOL0     H27886  10.503   1.227  -0.176  2.5153  3.6999  2.3147
  207MOL0     H27887  10.363   1.303  -0.272 -3.7975 -1.3445  1.8973
  207MOL0     H27888  10.438   1.522  -0.142  0.6638  0.2911 -1.6260
  207MOL0     H27889  10.542   1.426  -0.047 -2.3208  0.2866  0.0368
  207MOL0     H27890  10.665   1.561  -0.216  2.4507 -0.7077  0.6919
  207MOL0     H27891  10.672   1.393  -0.274  1.6195  2.6205 -0.0186
  207MOL0     H27892  10.441   1.573  -0.350  0.7183  1.8457 -0.6927
  207MOL0     H27893  10.498   1.437  -0.432 -0.0025  0.3651  0.2606
  207MOL0     H27894  10.545   1.648  -0.562 -1.4756 -1.4629  0.3876
  207MOL0     H27895  10.631   1.720  -0.431  0.6115  1.8573 -2.4256
  207MOL0     H27896  10.681   1.406  -0.642 -0.0246 -0.2377  0.9798
  207MOL0     H27897  11.043   1.298  -0.633  0.7165  3.7791  2.6218
  207MOL0     H27898  10.916   1.284  -0.758 -0.5241  1.0123 -1.2900
  207MOL0     H27899  11.084   1.362  -0.901 -1.2963  0.0611  0.2200
  207MOL0     H27900  11.002   1.517  -0.853 -1.5596 -1.6813 -2.1286
  207MOL0     H27901  11.245   1.389  -0.732 -1.0944 -0.3511  2.1317
  207MOL0     H27902  11.183   1.549  -0.686 -1.1012  2.1169 -2.5244
  207MOL0     H27903  11.372   1.586  -0.831 -0.8815  1.6134  1.7065
  207MOL0     H27904  11.233   1.648  -0.885 -0.8242 -0.6151  1.7203
  207MOL0     H27905  11.339   1.426  -1.232  0.7333 -1.6652  0.3634
  207MOL0     H27906  11.529   1.345  -1.335 -1.0687  0.7167 -0.0189
  207MOL0     H27907  12.026   1.202  -1.220 -3.2926  2.1723  0.4468
  207MOL0     H27908  12.212   1.074  -1.290  0.1712  2.6504 -0.3799
  207MOL0     H27909  12.076   0.759  -1.530 -0.3330 -0.4934 -2.5430
  207MOL0     H27910  12.167   0.814  -1.673 -0.6453  2.7108  0.7212
  207MOL0     H27911  12.295   0.641  -1.452  0.6130  0.0531 -0.5045
  207MOL0     H27912  12.231   0.589  -1.607 -2.8787  0.1936  0.9924
  207MOL0     H27913  12.387   0.751  -1.727 -0.8035  2.4515  0.3745
  207MOL0     H27914  12.477   0.773  -1.581  1.5921 -2.5559  1.6120
  207MOL0     H27915  12.422   0.518  -1.724  1.0775  1.8718 -0.1124
  207MOL0     H27916  12.503   0.513  -1.561  1.9017  2.0722  1.5496
  207MOL0     H27917  12.680   0.659  -1.645 -0.1870 -2.0407  2.5100
  207MOL0     H27918  12.611   0.652  -1.805 -0.0748 -0.0677  0.5958
  207MOL0     H27919  12.746   0.432  -1.640 -2.0193 -0.5568  0.8580
  207MOL0     H27920  12.643   0.387  -1.774  1.0335 -1.4153  1.2796
  207MOL0     H27921  12.887   0.583  -1.794 -1.8263  2.5805 -1.7739
  207MOL0     H27922  12.781   0.532  -1.927 -1.7206 -0.0163  1.1633
  207MOL0     H27923  13.005   0.395  -1.920  1.0135 -2.6683  0.1388
  207MOL0     H27924  12.955   0.352  -1.759 -2.8702  0.9350  1.3582
  207MOL0     H27925  11.966   0.940  -1.623 -2.9361 -2.1402  1.9419
  207MOL0     H27926  11.781   1.106  -1.540 -1.0337 -0.8578  0.2948
  207MOL0     H27927  11.709   1.298  -0.937 -0.5719  0.4970  0.7182
  207MOL0     H27928  11.515   1.417  -0.849 -1.1441 -1.0742  0.4239
  207MOL0     H27929   9.905   1.165   0.164 -1.8036 -1.3664  1.3269
  207MOL0     H27930   9.689   1.219   0.242 -1.5817 -0.5649  0.0677
  207MOL0     H27931   9.214   1.180   0.169 -3.4636 -0.2792  0.0496
  207MOL0     H27932   9.002   1.222   0.223 -1.7456  2.4111 -0.3539
  207MOL0     H27933   8.795   1.263   0.265 -0.1218 -0.8599 -1.7389
  207MOL0     H27934   8.835   1.354   0.119 -2.0883 -1.0456  0.8184
  207MOL0     H27935   8.607   1.349   0.176  1.1273 -2.1329  0.3082
  207MOL0     H27936   8.684   1.521   0.162  1.1665 -1.5232 -1.5621
  207MOL0     H27937   8.686   1.520   0.414  1.0130 -1.3229  1.2503
  207MOL0     H27938   8.577   1.373   0.410 -0.7849  2.2687  3.2413
  207MOL0     H27939   8.458   1.575   0.435 -0.2099  2.5294 -0.6547
  207MOL0     H27940   8.497   1.619   0.265 -0.8511  2.4995  2.0343
  207MOL0     H27941   8.164   1.371   0.245  0.2544 -0.3426  3.3938
  207MOL0     H27942   9.076   1.592   0.372  0.6589  0.2293 -1.3275
  207MOL0     H27943   9.402   1.657   0.301 -0.7778  1.2998  0.5086
  207MOL0     H27944   9.274   1.691   0.402 -3.8084 -1.8257 -0.7732
  207MOL0     H27945   9.400   1.579   0.464  1.2905  2.2242 -0.2793
  208MOL0     O27946   1.105   5.899   5.401 -1.0391 -0.5961  0.9192
  208MOL0     C27947   1.142   5.977   5.494 -0.9830  0.7456 -0.2756
  208MOL0     O27948   1.263   6.020   5.518 -0.6289 -0.1877 -0.2963
  208MOL0     C27949   1.367   5.976   5.434  0.1230  0.1629 -0.0613
  208MOL0     C27950   1.404   5.851   5.385 -0.3145  0.1648 -0.1913
  208MOL0     C27951   1.512   5.821   5.303 -0.0813  0.4421  0.5292
  208MOL0     C27952   1.590   5.926   5.266 -0.0874 -0.6470  0.1633
  208MOL0     O27953   1.697   5.891   5.190  0.1127  0.0243 -0.3424
  208MOL0     C27954   1.770   5.988   5.116 -0.9806 -0.0478  0.8663
  208MOL0     C27955   1.861   5.904   5.025 -0.5206  0.3818 -0.4407
  208MOL0     C27956   1.967   5.844   5.111  0.4237  0.1618  0.4608
  208MOL0     C27957   2.077   5.777   5.032 -0.3936  0.6356 -0.0488
  208MOL0     C27958   2.167   5.702   5.124  0.0462 -0.5938 -0.1699
  208MOL0     C27959   2.287   5.640   5.063  0.5586 -0.6724 -0.3926
  208MOL0     C27960   2.407   5.738   5.060  0.6374 -0.4525  0.8016
  208MOL0     C27961   2.549   5.682   5.016 -0.1386 -0.1630  0.2449
  208MOL0     N27962   2.547   5.602   4.891  0.9930 -0.5320 -0.1597
  208MOL0     C27963   2.502   5.472   4.879 -0.1269 -0.2544 -0.3034
  208MOL0     C27964   2.516   5.446   4.744 -0.0083 -0.7123 -0.9533
  208MOL0     C27965   2.490   5.311   4.663 -0.0529 -0.4092 -0.9574
  208MOL0     C27966   2.620   5.237   4.638  0.8362  0.2718  0.9859
  208MOL0     C27967   2.699   5.200   4.765 -0.4716 -0.2661  0.2053
  208MOL0     C27968   2.829   5.142   4.724 -0.2925 -0.4414 -0.1602
  208MOL0     O27969   2.910   5.089   4.831 -0.4387  0.2250  0.7157
  208MOL0     C27970   3.040   5.039   4.817 -0.2036 -0.2998  1.0842
  208MOL0     C27971   3.121   5.057   4.703 -0.8747  0.2876  0.3346
  208MOL0     C27972   3.246   5.002   4.677  0.1476 -0.0322 -1.0095
  208MOL0     C27973   3.287   4.908   4.787 -0.8060 -0.4740 -0.1218
  208MOL0     C27974   3.409   4.825   4.784 -0.5734  0.6691 -0.6725
  208MOL0     O27975   3.504   4.858   4.683 -0.1222  0.3247  0.5092
  208MOL0     C27976   3.615   4.786   4.661 -0.7101  0.0062  0.2622
  208MOL0     C27977   3.625   4.722   4.534 -0.0373  0.1217  0.2265
  208MOL0     C27978   3.747   4.662   4.499 -0.1777  0.9336  0.6112
  208MOL0     C27979   3.857   4.675   4.583  0.2784  0.7791  0.7871
  208MOL0     O27980   3.985   4.637   4.549 -0.3213  0.4925 -0.0936
  208MOL0     C27981   4.002   4.532   4.446 -0.2027  0.0940 -0.7663
  208MOL0     C27982   4.154   4.492   4.440 -0.5503  0.1925 -0.7573
  208MOL0     C27983   4.193   4.400   4.555 -0.1336  0.0229 -0.1903
  208MOL0     C27984   4.318   4.315   4.523  0.5765 -0.1931 -0.0665
  208MOL0     C27985   4.441   4.401   4.496 -0.9470  0.2315 -1.0731
  208MOL0     C27986   4.551   4.322   4.427 -0.8529 -0.5566 -0.4493
  208MOL0     C27987   4.680   4.422   4.392  0.4592  0.5383  0.4570
  208MOL0     C27988   4.752   4.369   4.275 -0.3373 -0.5015  0.0249
  208MOL0    Cl27989   4.629   4.370   4.146 -0.0249  0.0134 -0.1729
  208MOL0     C27990   3.855   4.754   4.696  0.6330  0.4310 -0.3848
  208MOL0     C27991   3.730   4.803   4.739 -0.0096 -0.3125 -1.6933
  208MOL0     O27992   3.424   4.726   4.863 -0.1361 -0.3405 -0.2564
  208MOL0     C27993   3.211   4.894   4.905  0.8727  0.1239  1.2026
  208MOL0     C27994   3.090   4.953   4.924 -0.1764 -0.5244  0.2393
  208MOL0     N27995   2.560   5.556   4.689  0.6860 -0.2083 -0.2723
  208MOL0     N27996   2.579   5.655   4.769  0.5538  0.1217 -1.1362
  208MOL0     C27997   1.567   6.051   5.314  0.0280  0.3602 -0.6125
  208MOL0     C27998   1.462   6.080   5.402 -0.1704 -0.0142 -1.1085
  208MOL0     C27999   1.037   6.035   5.570 -0.1037  0.6319 -1.1501
  208MOL0     C28000   1.052   6.167   5.634  0.5281 -0.4017  0.7578
  208MOL0     C28001   0.948   6.226   5.714  0.1780  0.3607  0.1094
  208MOL0     C28002   0.830   6.159   5.732 -0.4681 -0.1408 -0.1360
  208MOL0     O28003   0.717   6.217   5.791 -0.4981 -0.1331 -0.0696
  208MOL0     C28004   0.714   6.353   5.826 -0.8264  0.1197  0.0568
  208MOL0     C28005   0.572   6.397   5.860 -0.2015  0.5352  0.5394
  208MOL0     C28006   0.557   6.455   5.994  0.0065  0.8290  0.3438
  208MOL0     C28007   0.413   6.503   6.015 -0.1162  0.7024  0.4272
  208MOL0     C28008   0.403   6.506   6.162  0.4670  0.1137  0.0852
  208MOL0     C28009   0.389   6.522   6.279  0.3709  0.1123  0.5132
  208MOL0     C28010   0.826   6.028   5.685  0.4230  0.9613 -0.4801
  208MOL0     C28011   0.915   5.962   5.604 -0.8415  0.5832  0.2111
  208MOL0     C28012   0.879   5.832   5.541 -0.9220 -0.4664 -0.3466
  208MOL0     H28013   1.343   5.769   5.423 -0.5531  0.5144  0.1963
  208MOL0     H28014   1.535   5.721   5.266 -0.6639  0.7737 -0.7842
  208MOL0     H28015   1.703   6.060   5.068  0.2527  0.5270 -0.0491
  208MOL0     H28016   1.840   6.038   5.183 -1.0686 -1.0840  1.7528
  208MOL0     H28017   1.907   5.970   4.951 -1.3963  0.4553 -0.9234
  208MOL0     H28018   1.807   5.828   4.968  0.7277 -0.5686 -0.3962
  208MOL0     H28019   1.927   5.786   5.194  1.7625  1.9470  2.4931
  208MOL0     H28020   2.017   5.927   5.164 -2.5411  1.3333  1.6347
  208MOL0     H28021   2.033   5.706   4.963 -1.4808  3.4395 -2.4476
  208MOL0     H28022   2.134   5.845   4.968 -1.3006  1.7557  0.2784
  208MOL0     H28023   2.195   5.759   5.213 -0.8570  0.1142 -0.3175
  208MOL0     H28024   2.099   5.630   5.171  2.9306 -2.2960  1.6674
  208MOL0     H28025   2.301   5.541   5.106 -4.6167 -0.7260  1.9245
  208MOL0     H28026   2.261   5.627   4.957 -0.9897 -4.5133  0.3267
  208MOL0     H28027   2.416   5.794   5.153 -2.0130  2.8024 -0.6767
  208MOL0     H28028   2.380   5.810   4.983 -1.8244 -1.2384  0.8502
  208MOL0     H28029   2.624   5.762   5.012 -1.4519  1.0941 -0.4143
  208MOL0     H28030   2.564   5.606   5.093  0.6387 -1.9922 -1.6420
  208MOL0     H28031   2.485   5.393   4.953 -0.4728  0.7819  0.7594
  208MOL0     H28032   2.426   5.253   4.730 -0.7642  0.5306 -0.7934
  208MOL0     H28033   2.441   5.333   4.567 -1.1814  1.4977 -0.0077
  208MOL0     H28034   2.596   5.145   4.582  0.2035  1.9875 -1.7936
  208MOL0     H28035   2.687   5.291   4.571  3.7769 -2.0635  1.8155
  208MOL0     H28036   2.639   5.140   4.835  2.0548 -1.5721  1.3651
  208MOL0     H28037   2.724   5.291   4.820 -0.1606 -0.9623  1.2626
  208MOL0     H28038   2.893   5.217   4.675  0.8044 -0.3111  1.3883
  208MOL0     H28039   2.803   5.063   4.654 -0.7675 -0.5076  0.0943
  208MOL0     H28040   3.083   5.110   4.617 -0.2081 -0.2068 -0.2764
  208MOL0     H28041   3.294   5.018   4.581  0.3295 -1.2606 -1.1398
  208MOL0     H28042   3.543   4.724   4.463 -1.9264  0.6145  2.3144
  208MOL0     H28043   3.750   4.607   4.405  4.0600  0.6110  0.7544
  208MOL0     H28044   3.949   4.439   4.467 -0.6272  0.3346 -0.7710
  208MOL0     H28045   3.966   4.568   4.349 -2.7352  0.9377  0.3929
  208MOL0     H28046   4.174   4.445   4.343  1.6545  1.6937 -1.1203
  208MOL0     H28047   4.223   4.577   4.443  0.0851 -0.3029  2.6682
  208MOL0     H28048   4.205   4.461   4.644 -0.7553  1.5030 -1.0716
  208MOL0     H28049   4.116   4.323   4.567  2.6130 -3.0984 -1.0836
  208MOL0     H28050   4.306   4.250   4.435  1.2456 -1.7303  0.9249
  208MOL0     H28051   4.331   4.234   4.596 -2.6716 -1.2140 -0.4596
  208MOL0     H28052   4.481   4.454   4.583  0.5298  2.3535 -2.9443
  208MOL0     H28053   4.408   4.478   4.426 -4.4804  0.0428  0.1730
  208MOL0     H28054   4.590   4.250   4.500  0.7077  2.1824  1.6371
  208MOL0     H28055   4.519   4.270   4.337 -0.3252 -2.1102  0.2304
  208MOL0     H28056   4.747   4.429   4.479  3.5002  2.2447 -1.8113
  208MOL0     H28057   4.638   4.519   4.363 -1.9865 -0.0815  1.6267
  208MOL0     H28058   4.843   4.428   4.258 -0.9178  0.4240  0.1059
  208MOL0     H28059   4.785   4.268   4.303  0.7367 -0.1368  0.1171
  208MOL0     H28060   3.946   4.764   4.754  0.3758 -0.9863  0.3118
  208MOL0     H28061   3.728   4.873   4.823 -2.1371  1.1126 -2.8354
  208MOL0     H28062   3.241   4.826   4.983  2.6272 -2.2995 -1.3746
  208MOL0     H28063   3.021   4.917   5.000 -2.1998 -0.4806 -1.4936
  208MOL0     H28064   1.628   6.131   5.272 -0.7588  0.4847 -1.5889
  208MOL0     H28065   1.439   6.184   5.423  0.1087 -0.3281  1.0445
  208MOL0     H28066   1.140   6.227   5.615 -0.5190  1.0198  0.1711
  208MOL0     H28067   0.971   6.328   5.745  3.6199  0.5215 -2.3253
  208MOL0     H28068   0.760   6.424   5.756  0.9422  2.4769  3.3224
  208MOL0     H28069   0.784   6.356   5.910 -0.5838  1.9100 -0.1674
  208MOL0     H28070   0.510   6.308   5.847  0.8697 -0.4460  1.8583
  208MOL0     H28071   0.538   6.473   5.788  1.0261  0.0651 -0.5707
  208MOL0     H28072   0.617   6.544   6.015  0.1054  0.3396  2.3134
  208MOL0     H28073   0.577   6.377   6.068 -2.0997  0.0397  0.1345
  208MOL0     H28074   0.398   6.593   5.954 -1.0296 -1.4685 -2.7479
  208MOL0     H28075   0.340   6.432   5.978 -0.5478  0.0582  2.3959
  208MOL0     H28076   0.377   6.539   6.384  1.7335  1.4736  0.4826
  208MOL0     H28077   0.736   5.970   5.705  0.7467  0.0839 -1.4795
  208MOL0     H28078   0.862   5.839   5.433 -4.9876  0.5704  0.1887
  208MOL0     H28079   0.951   5.752   5.559 -0.6051 -0.3146 -0.9104
  208MOL0     H28080   0.784   5.791   5.576 -0.9552  1.0015  1.4271
  209MOL0     O28081   4.756  10.906   6.462 -0.2386  0.3922 -0.2475
  209MOL0     C28082   4.712  10.811   6.533  0.2074 -0.0830  0.3652
  209MOL0     O28083   4.763  10.690   6.546  0.3776 -0.3452  0.1620
  209MOL0     C28084   4.889  10.676   6.487  0.7307  0.2783  0.0097
  209MOL0     C28085   5.001  10.746   6.541  0.9941  0.5463  1.2267
  209MOL0     C28086   5.126  10.724   6.489 -0.2027  0.1998 -0.0999
  209MOL0     C28087   5.154  10.622   6.396  0.3812 -0.0143 -0.6183
  209MOL0     O28088   5.280  10.584   6.363 -0.3052  0.1540 -0.3354
  209MOL0     C28089   5.397  10.648   6.416 -0.2713 -0.3541 -0.2635
  209MOL0     C28090   5.509  10.558   6.366  0.8183  1.0125 -0.3898
  209MOL0     C28091   5.636  10.582   6.449 -0.7184  0.0615 -0.4191
  209MOL0     C28092   5.749  10.508   6.378 -0.3534 -0.3465 -0.1808
  209MOL0     C28093   5.881  10.547   6.440  0.3103 -0.2116 -0.0950
  209MOL0     C28094   5.898  10.500   6.587 -0.1233  0.3275  0.3614
  209MOL0     C28095   6.045  10.536   6.621 -0.3372  0.7635 -0.2856
  209MOL0     C28096   6.065  10.515   6.767  0.2818 -0.2235  0.9672
  209MOL0     N28097   6.209  10.551   6.791  0.5039  0.3246  0.2058
  209MOL0     C28098   6.301  10.465   6.848  0.6700 -0.2964  0.0898
  209MOL0     C28099   6.399  10.537   6.905  0.0239 -0.3761  1.4142
  209MOL0     C28100   6.529  10.486   6.972  0.5203 -0.0847  1.0010
  209MOL0     C28101   6.489  10.473   7.123 -1.1139 -0.7815 -0.8510
  209MOL0     C28102   6.598  10.447   7.232 -0.8652 -0.2896  0.0503
  209MOL0     C28103   6.694  10.566   7.249 -0.3775 -0.1327  0.3698
  209MOL0     O28104   6.829  10.510   7.233  0.5785  0.5660  0.1012
  209MOL0     C28105   6.933  10.584   7.282  1.0944 -0.3226 -0.5562
  209MOL0     C28106   7.058  10.519   7.307  1.0493 -0.3618 -0.3212
  209MOL0     C28107   7.161  10.590   7.355  0.1977  0.1951  0.3984
  209MOL0     C28108   7.150  10.724   7.377  0.7709  1.2328 -0.7004
  209MOL0     C28109   7.266  10.787   7.427 -0.1879  0.2592 -0.6023
  209MOL0     O28110   7.383  10.718   7.435 -0.9583 -0.3396  0.2854
  209MOL0     C28111   7.503  10.758   7.502 -0.1743 -0.3630  0.1666
  209MOL0     C28112   7.609  10.683   7.474  0.2076  0.4645  0.6470
  209MOL0     C28113   7.741  10.705   7.539  0.7810  0.3521  0.4380
  209MOL0     C28114   7.753  10.808   7.626 -0.3895 -0.5073  0.1968
  209MOL0     O28115   7.876  10.820   7.686 -0.1813  0.6288 -0.5214
  209MOL0     C28116   7.906  10.934   7.769  0.1128  0.2416 -0.5922
  209MOL0     C28117   8.043  10.923   7.838  0.3234  0.8200  0.5111
  209MOL0     C28118   8.066  10.790   7.910  0.3221  0.4312 -0.1687
  209MOL0     C28119   8.196  10.796   7.968 -0.2548 -0.6828  0.7049
  209MOL0     C28120   8.236  10.681   8.062 -0.2496  0.0719 -0.1663
  209MOL0     C28121   8.386  10.695   8.098 -0.1324 -0.6488 -0.2636
  209MOL0     C28122   8.414  10.576   8.181 -0.8787 -0.2872 -0.2106
  209MOL0     C28123   8.558  10.559   8.206  0.2182  0.8127 -0.5078
  209MOL0    Cl28124   8.572  10.424   8.304  0.0344  0.2368 -0.2023
  209MOL0     C28125   7.650  10.905   7.645  0.0901  0.6122 -0.1846
  209MOL0     C28126   7.525  10.879   7.580 -0.5320  0.6834 -0.4008
  209MOL0     O28127   7.256  10.907   7.437 -0.6918 -0.3434 -0.1861
  209MOL0     C28128   7.021  10.789   7.363 -1.2149 -0.3809  0.1454
  209MOL0     C28129   6.917  10.716   7.305 -0.1737 -0.9345 -0.8000
  209MOL0     N28130   6.353  10.663   6.909  0.4875 -0.5897  0.4761
  209MOL0     N28131   6.241  10.671   6.845 -0.8582 -0.3898 -0.2649
  209MOL0     C28132   5.045  10.545   6.349 -0.6631 -0.8680  0.3330
  209MOL0     C28133   4.914  10.568   6.396  0.0282 -0.0020  0.7973
  209MOL0     C28134   4.586  10.844   6.615  0.4195  0.1874  0.7238
  209MOL0     C28135   4.523  10.972   6.601 -0.8960 -0.2727 -0.0973
  209MOL0     C28136   4.408  11.002   6.673  0.3951 -0.8754  0.0822
  209MOL0     C28137   4.345  10.916   6.759  0.3463  0.2818  0.1676
  209MOL0     O28138   4.245  10.971   6.834 -1.2311 -0.0176 -0.8809
  209MOL0     C28139   4.157  10.885   6.912 -0.3771 -0.4359  0.0390
  209MOL0     C28140   4.028  10.960   6.952 -0.8391  0.6193  0.0121
  209MOL0     C28141   3.955  10.988   6.820  0.0332 -0.8588 -0.7021
  209MOL0     C28142   3.850  11.102   6.844  0.8033  0.5334  0.5427
  209MOL0     C28143   3.721  11.037   6.866 -0.3663  0.6239  0.2146
  209MOL0     C28144   3.624  10.972   6.882 -0.0565 -0.5318  0.1596
  209MOL0     C28145   4.401  10.791   6.776  0.0117  0.3920 -0.2303
  209MOL0     C28146   4.525  10.751   6.709  0.2627 -0.4143 -0.8598
  209MOL0     C28147   4.580  10.608   6.750  0.3433 -0.3544 -0.7581
  209MOL0     H28148   4.984  10.827   6.611 -0.7361  2.6658 -1.4731
  209MOL0     H28149   5.207  10.784   6.531  0.5467  2.3750 -4.1577
  209MOL0     H28150   5.417  10.747   6.373  2.3190 -1.1274 -1.0633
  209MOL0     H28151   5.385  10.659   6.524 -0.9942 -0.6492 -0.3102
  209MOL0     H28152   5.531  10.563   6.259 -1.2712  2.2121 -0.8129
  209MOL0     H28153   5.485  10.454   6.388  0.4738  1.1142 -0.2785
  209MOL0     H28154   5.625  10.554   6.554  2.8223 -1.8705 -0.3925
  209MOL0     H28155   5.674  10.685   6.443  1.3771 -0.6453 -0.3864
  209MOL0     H28156   5.734  10.401   6.399 -0.4317  0.1879  2.9229
  209MOL0     H28157   5.749  10.516   6.269 -2.0703  0.5774 -0.1472
  209MOL0     H28158   5.963  10.507   6.380 -1.3415 -1.8931 -1.3800
  209MOL0     H28159   5.881  10.656   6.435 -0.1292 -0.0656  2.1007
  209MOL0     H28160   5.831  10.547   6.659  1.7317  1.4790  1.4267
  209MOL0     H28161   5.875  10.394   6.576 -2.3275  0.9085 -1.3896
  209MOL0     H28162   6.069  10.634   6.581  0.5949  0.7183  0.1282
  209MOL0     H28163   6.116  10.470   6.570  0.6665  1.4264  0.2374
  209MOL0     H28164   5.990  10.581   6.812  0.1391 -0.0156  0.4277
  209MOL0     H28165   6.062  10.410   6.797  2.7840 -0.4084  0.7981
  209MOL0     H28166   6.304  10.357   6.838 -2.1942 -0.3173 -1.7141
  209MOL0     H28167   6.561  10.386   6.942 -1.9519 -0.3735 -0.9705
  209MOL0     H28168   6.612  10.557   6.968  0.2723  0.2646  1.7336
  209MOL0     H28169   6.420  10.554   7.146  0.1418  0.7316 -2.1357
  209MOL0     H28170   6.433  10.380   7.135  2.3485 -2.8155  1.1483
  209MOL0     H28171   6.648  10.354   7.202 -2.6479 -0.8621 -1.3061
  209MOL0     H28172   6.545  10.434   7.326 -4.4610  1.3576 -1.5453
  209MOL0     H28173   6.682  10.613   7.347  2.4321 -0.5297  1.0029
  209MOL0     H28174   6.662  10.636   7.171  4.1834  0.0416 -1.6290
  209MOL0     H28175   7.067  10.411   7.303  0.8084 -0.3907 -0.0896
  209MOL0     H28176   7.245  10.527   7.381 -1.2091 -2.0307 -0.2056
  209MOL0     H28177   7.605  10.592   7.415 -0.0650  2.4021 -2.5593
  209MOL0     H28178   7.816  10.627   7.536  0.6031  0.1547 -2.8271
  209MOL0     H28179   7.922  11.029   7.717  3.0379  1.4993  2.3197
  209MOL0     H28180   7.827  10.949   7.843 -0.9994 -1.8456 -1.2863
  209MOL0     H28181   8.126  10.953   7.773  0.4442  1.1193  0.7953
  209MOL0     H28182   8.039  11.007   7.909 -2.8962  3.4291 -2.4128
  209MOL0     H28183   7.989  10.790   7.988 -0.8595 -2.4832 -1.2251
  209MOL0     H28184   8.055  10.696   7.856  1.5379 -0.1186  0.4783
  209MOL0     H28185   8.210  10.894   8.015  4.4127  1.0570 -3.4312
  209MOL0     H28186   8.263  10.810   7.883 -1.8450 -0.6286 -0.5979
  209MOL0     H28187   8.232  10.594   7.995 -0.3808  1.3075 -1.8364
  209MOL0     H28188   8.160  10.667   8.139 -0.9299  1.5933 -0.5233
  209MOL0     H28189   8.457  10.688   8.015  0.8021 -0.6375  0.5171
  209MOL0     H28190   8.392  10.785   8.161 -2.1703 -0.1765 -0.6662
  209MOL0     H28191   8.385  10.484   8.129  2.1842 -1.3882 -0.1931
  209MOL0     H28192   8.361  10.584   8.276 -0.5333 -2.4642  0.2035
  209MOL0     H28193   8.614  10.542   8.113  1.5755  0.1488  0.4055
  209MOL0     H28194   8.594  10.654   8.247 -0.7522  0.5855  0.9249
  209MOL0     H28195   7.647  10.988   7.715 -3.0459 -0.6929  1.4318
  209MOL0     H28196   7.451  10.954   7.609 -1.1856  0.0755 -0.4773
  209MOL0     H28197   7.001  10.893   7.386 -0.1533 -0.2078  0.3660
  209MOL0     H28198   6.826  10.774   7.301  0.8885  0.8509 -0.4198
  209MOL0     H28199   5.064  10.468   6.274 -2.1478 -1.1590  0.2234
  209MOL0     H28200   4.830  10.509   6.360  0.2777  1.1645 -1.9904
  209MOL0     H28201   4.556  11.042   6.525  0.8664 -0.6270  0.2803
  209MOL0     H28202   4.359  11.098   6.670 -1.8563 -1.9959 -1.9499
  209MOL0     H28203   4.196  10.841   7.004 -1.8118 -0.5465  0.6161
  209MOL0     H28204   4.131  10.798   6.851  1.0924 -1.6236  1.0442
  209MOL0     H28205   4.060  11.048   7.008 -2.1580  1.9361 -1.1971
  209MOL0     H28206   3.957  10.899   7.009  0.3348  0.1726  1.0211
  209MOL0     H28207   3.915  10.899   6.770 -2.3293 -1.0247  1.3227
  209MOL0     H28208   4.031  11.036   6.757 -1.3805  2.6769  0.0720
  209MOL0     H28209   3.880  11.173   6.922  0.8228 -0.2580  1.2690
  209MOL0     H28210   3.831  11.148   6.746 -1.3626  0.7392  1.0120
  209MOL0     H28211   3.530  10.920   6.886  0.2732 -1.0671  1.7272
  209MOL0     H28212   4.358  10.721   6.847 -2.0928 -0.3288 -2.0980
  209MOL0     H28213   4.564  10.596   6.858 -0.6303  1.0115 -0.7237
  209MOL0     H28214   4.530  10.539   6.682 -0.2813 -1.0876  0.4210
  209MOL0     H28215   4.688  10.600   6.732 -0.0224 -1.3251 -2.7423
  210MOL0     O28216   0.523   6.055   2.950 -0.6026  0.1254 -0.2357
  210MOL0     C28217   0.472   6.028   2.844 -0.0374  0.3588  0.2215
  210MOL0     O28218   0.341   6.061   2.814 -0.1060  0.2902 -0.1041
  210MOL0     C28219   0.258   6.101   2.912  0.3039  0.9628  0.1010
  210MOL0     C28220   0.266   6.045   3.041 -0.0906  0.1172 -0.0932
  210MOL0     C28221   0.168   6.074   3.140 -0.5990  0.0378 -0.0423
  210MOL0     C28222   0.057   6.155   3.112 -0.4528  0.1944 -0.1679
  210MOL0     O28223  -0.042   6.171   3.201 -0.2091  0.6121  0.6355
  210MOL0     C28224  -0.152   6.252   3.170 -0.1676 -0.4823  0.6286
  210MOL0     C28225  -0.204   6.320   3.299  0.4320  0.0425  0.3192
  210MOL0     C28226  -0.355   6.329   3.310  0.0756  0.3029  0.1566
  210MOL0     C28227  -0.393   6.394   3.440 -0.4057 -0.4746  0.3135
  210MOL0     C28228  -0.533   6.455   3.459 -0.1798 -0.4838 -0.2399
  210MOL0     C28229  -0.649   6.355   3.468  0.0357  0.1695 -0.6149
  210MOL0     C28230  -0.787   6.430   3.452  0.3103  0.1520 -0.4641
  210MOL0     C28231  -0.898   6.318   3.444  0.2427 -0.0560  0.9561
  210MOL0     N28232  -1.024   6.394   3.450 -0.1553 -0.1592 -0.7669
  210MOL0     C28233  -1.103   6.428   3.560 -0.4692 -0.3017 -0.7293
  210MOL0     C28234  -1.210   6.488   3.503 -0.3915 -0.0083  0.1978
  210MOL0     C28235  -1.326   6.524   3.585  0.5903 -0.7924 -0.5336
  210MOL0     C28236  -1.436   6.411   3.579  0.1783 -0.3083 -1.0274
  210MOL0     C28237  -1.382   6.296   3.670 -0.4242  0.1970 -0.4553
  210MOL0     C28238  -1.489   6.177   3.674 -0.4705  0.2468 -0.0823
  210MOL0     O28239  -1.516   6.123   3.543 -0.8447 -0.6438 -0.1751
  210MOL0     C28240  -1.617   6.035   3.521 -0.4226 -0.2834  0.4647
  210MOL0     C28241  -1.660   5.947   3.620 -0.5811  0.6406 -0.4414
  210MOL0     C28242  -1.746   5.840   3.591 -0.4105 -0.3538 -0.7799
  210MOL0     C28243  -1.780   5.815   3.459 -0.4138  0.5801 -0.2331
  210MOL0     C28244  -1.865   5.692   3.436  0.3162 -0.2540  0.1711
  210MOL0     O28245  -1.923   5.682   3.312  0.4749 -0.1830 -0.7277
  210MOL0     C28246  -1.986   5.565   3.271 -0.6035  0.1381  0.0885
  210MOL0     C28247  -2.116   5.571   3.227 -0.4902  0.5765  0.5911
  210MOL0     C28248  -2.192   5.458   3.195 -0.0086  0.4287  0.3332
  210MOL0     C28249  -2.146   5.335   3.246 -0.6227  0.0047  1.0465
  210MOL0     O28250  -2.214   5.218   3.262  0.2310 -0.9103 -0.0384
  210MOL0     C28251  -2.340   5.211   3.198  0.7184  0.2940  0.3974
  210MOL0     C28252  -2.454   5.257   3.284 -1.0106 -0.2486 -0.7060
  210MOL0     C28253  -2.580   5.217   3.212 -0.4201 -0.6879 -0.5650
  210MOL0     C28254  -2.702   5.246   3.303  0.0874 -0.7973 -0.2556
  210MOL0     C28255  -2.712   5.384   3.357  0.8854  0.4751 -0.3889
  210MOL0     C28256  -2.852   5.429   3.420 -0.5548 -0.0237 -0.2666
  210MOL0     C28257  -2.974   5.419   3.333 -0.4561 -0.8068 -0.5769
  210MOL0     C28258  -3.097   5.365   3.404  0.3713  0.2459  0.3403
  210MOL0    Cl28259  -3.258   5.410   3.335  0.1740 -0.0557 -0.8919
  210MOL0     C28260  -2.014   5.321   3.291  0.3017  0.1480  1.0513
  210MOL0     C28261  -1.934   5.435   3.293  0.6588 -0.2564 -0.2737
  210MOL0     O28262  -1.889   5.620   3.534  0.2997  0.3523 -0.0877
  210MOL0     C28263  -1.732   5.892   3.351 -0.5260 -0.3205 -0.2767
  210MOL0     C28264  -1.649   6.004   3.378 -0.6994  1.1012 -0.8034
  210MOL0     N28265  -1.187   6.501   3.366 -0.3710  0.0091  0.0633
  210MOL0     N28266  -1.079   6.446   3.336 -0.2539  0.1559 -0.5275
  210MOL0     C28267   0.050   6.202   2.982 -0.3513  0.4261 -0.0530
  210MOL0     C28268   0.150   6.181   2.893  0.0794 -0.7413 -0.2023
  210MOL0     C28269   0.561   5.967   2.737  0.0532 -0.2098 -0.6209
  210MOL0     C28270   0.511   5.961   2.605  0.0074  0.2909 -0.3392
  210MOL0     C28271   0.589   5.911   2.498  0.8340 -0.9135 -0.8992
  210MOL0     C28272   0.719   5.865   2.524  0.1298 -0.3784 -0.3759
  210MOL0     O28273   0.790   5.809   2.425  0.0221 -0.6381 -0.0318
  210MOL0     C28274   0.746   5.822   2.283 -0.0196  0.0444  0.5617
  210MOL0     C28275   0.854   5.763   2.188  0.4088 -0.0601 -0.0681
  210MOL0     C28276   0.956   5.879   2.153  1.1761 -0.6919  0.1654
  210MOL0     C28277   1.099   5.833   2.129  0.1631  0.4664  0.1709
  210MOL0     C28278   1.184   5.940   2.077  0.5107 -0.2879  0.4418
  210MOL0     C28279   1.251   6.033   2.030 -0.0457  0.3273 -0.0218
  210MOL0     C28280   0.763   5.861   2.655 -0.5118 -0.2445 -1.1462
  210MOL0     C28281   0.684   5.908   2.765 -0.3823 -1.5847 -0.0209
  210MOL0     C28282   0.756   5.903   2.902  1.1328 -0.6174  0.0157
  210MOL0     H28283   0.339   5.970   3.069 -0.4325 -0.0298  0.4230
  210MOL0     H28284   0.187   6.035   3.240  0.2284 -0.9166 -0.5577
  210MOL0     H28285  -0.133   6.343   3.113  1.5543 -1.1038  0.1505
  210MOL0     H28286  -0.236   6.192   3.134 -1.4723  0.2396  2.3521
  210MOL0     H28287  -0.148   6.413   3.318  0.0027  0.4867 -0.4937
  210MOL0     H28288  -0.173   6.251   3.377  0.4225 -0.7754 -0.3932
  210MOL0     H28289  -0.418   6.240   3.299 -2.1557  2.0953 -3.2763
  210MOL0     H28290  -0.388   6.403   3.237  0.4196  2.4740  2.1077
  210MOL0     H28291  -0.377   6.316   3.515  1.5085  0.9467  1.4548
  210MOL0     H28292  -0.320   6.472   3.462  0.9440 -1.7673  0.5801
  210MOL0     H28293  -0.519   6.504   3.556 -0.7058 -1.7895  0.5262
  210MOL0     H28294  -0.549   6.528   3.379  0.5192 -2.6508 -2.4856
  210MOL0     H28295  -0.633   6.290   3.381  0.2955 -1.4796  0.6242
  210MOL0     H28296  -0.640   6.302   3.563  0.4330  1.2527 -0.0355
  210MOL0     H28297  -0.793   6.508   3.376  0.3035  2.7363  2.0479
  210MOL0     H28298  -0.811   6.484   3.543 -0.8080  1.1920 -1.3506
  210MOL0     H28299  -0.898   6.269   3.346 -1.0163 -0.1213  0.9831
  210MOL0     H28300  -0.885   6.240   3.519  1.3575  0.9259  1.8279
  210MOL0     H28301  -1.091   6.399   3.664 -1.2856 -1.9859 -1.0620
  210MOL0     H28302  -1.293   6.543   3.687  1.2550  1.9354 -1.1823
  210MOL0     H28303  -1.362   6.621   3.548 -0.2181 -0.1218  1.8554
  210MOL0     H28304  -1.534   6.441   3.616  0.4884 -0.2751 -0.1908
  210MOL0     H28305  -1.440   6.379   3.475  2.1362 -1.2265 -0.8664
  210MOL0     H28306  -1.355   6.340   3.766  6.2437 -0.7930 -1.4177
  210MOL0     H28307  -1.288   6.254   3.633 -0.6335 -0.0358 -0.7296
  210MOL0     H28308  -1.589   6.212   3.703 -1.9374  0.3580 -4.5438
  210MOL0     H28309  -1.447   6.110   3.750 -1.7675  3.0198  3.4038
  210MOL0     H28310  -1.628   5.950   3.723  0.7377  2.4550 -0.8574
  210MOL0     H28311  -1.773   5.788   3.682 -3.0642  1.2613 -0.5289
  210MOL0     H28312  -2.172   5.664   3.220 -1.2810  0.1331  0.9390
  210MOL0     H28313  -2.293   5.482   3.163  0.3967  1.5553 -0.1751
  210MOL0     H28314  -2.355   5.258   3.101  1.7568  2.4625  1.2337
  210MOL0     H28315  -2.352   5.102   3.188  2.8326 -0.2214  2.4643
  210MOL0     H28316  -2.455   5.204   3.380  0.2541  1.6078  0.3871
  210MOL0     H28317  -2.449   5.365   3.300  5.4097 -0.3611  0.3379
  210MOL0     H28318  -2.594   5.269   3.117 -1.2094 -1.4384 -0.8716
  210MOL0     H28319  -2.584   5.112   3.181 -3.8162 -1.1643  1.0631
  210MOL0     H28320  -2.712   5.183   3.392 -2.2306 -2.3314 -1.5135
  210MOL0     H28321  -2.792   5.227   3.244  2.4943  0.1229 -4.6289
  210MOL0     H28322  -2.689   5.461   3.282 -1.7912  1.3719 -0.4060
  210MOL0     H28323  -2.643   5.396   3.440 -3.0177  0.4481  3.1907
  210MOL0     H28324  -2.863   5.380   3.517  1.6169 -2.1788 -1.0171
  210MOL0     H28325  -2.836   5.534   3.446  3.9559 -0.3369 -0.8985
  210MOL0     H28326  -2.954   5.354   3.247  1.0557 -3.4595  1.6072
  210MOL0     H28327  -2.993   5.522   3.302 -0.8291 -0.6026  0.3206
  210MOL0     H28328  -3.096   5.256   3.394  0.3086  0.2997 -0.2768
  210MOL0     H28329  -3.091   5.386   3.511  2.6979 -0.9701  0.5155
  210MOL0     H28330  -1.980   5.225   3.329 -2.0615 -0.7564  1.0481
  210MOL0     H28331  -1.833   5.422   3.331  1.3231 -1.6677 -2.3540
  210MOL0     H28332  -1.759   5.849   3.256  2.0353 -2.1758 -0.2533
  210MOL0     H28333  -1.611   6.067   3.297 -1.0122  0.8351 -1.1617
  210MOL0     H28334  -0.035   6.257   2.944 -1.3343 -1.4257 -0.6747
  210MOL0     H28335   0.132   6.228   2.797 -2.7972  0.3526  0.7702
  210MOL0     H28336   0.411   5.998   2.588 -0.7227 -0.5139  1.8845
  210MOL0     H28337   0.535   5.900   2.404  0.3428  1.5853 -0.9776
  210MOL0     H28338   0.726   5.925   2.252  0.1041  0.1513  0.8346
  210MOL0     H28339   0.648   5.777   2.265  0.3480 -0.7420  0.5053
  210MOL0     H28340   0.807   5.746   2.091 -2.6702  0.3596  1.2279
  210MOL0     H28341   0.902   5.669   2.216  1.2226  0.9667  2.2749
  210MOL0     H28342   0.966   5.950   2.236 -0.3201  0.5207 -0.6291
  210MOL0     H28343   0.916   5.921   2.060  0.0487 -5.5680 -1.8278
  210MOL0     H28344   1.129   5.792   2.226  3.4413 -0.7296 -1.1910
  210MOL0     H28345   1.099   5.763   2.045 -3.9562  2.3537 -1.6841
  210MOL0     H28346   1.295   6.116   1.979 -3.5098  0.4995 -3.1680
  210MOL0     H28347   0.862   5.820   2.674 -1.7357 -1.8674  2.7228
  210MOL0     H28348   0.827   5.819   2.908  0.8480 -1.0488 -1.9404
  210MOL0     H28349   0.810   5.995   2.925 -0.1260 -0.2258  1.5257
  210MOL0     H28350   0.682   5.888   2.981 -2.5889  3.7779 -2.1375
  211MOL0     O28351   5.674   6.644  10.540 -0.6131  0.2018 -0.3735
  211MOL0     C28352   5.570   6.596  10.574  0.2751  0.5652  0.9037
  211MOL0     O28353   5.502   6.506  10.499  0.1146 -0.2916 -0.8861
  211MOL0     C28354   5.572   6.463  10.384  0.1142  0.0482  0.1913
  211MOL0     C28355   5.654   6.352  10.379  0.0567 -0.5883  0.7079
  211MOL0     C28356   5.735   6.329  10.265 -0.2742  1.1705  0.9891
  211MOL0     C28357   5.736   6.417  10.156 -1.3650 -0.3346  0.4088
  211MOL0     O28358   5.821   6.372  10.056 -0.3398  0.4479  0.1983
  211MOL0     C28359   5.839   6.461   9.940  0.4673  0.9474  0.2178
  211MOL0     C28360   5.913   6.381   9.832  1.3420 -0.0102  0.1000
  211MOL0     C28361   5.951   6.447   9.698  0.0463 -0.1930  0.1367
  211MOL0     C28362   6.043   6.566   9.721 -0.1005 -0.0749  0.5119
  211MOL0     C28363   6.087   6.617   9.587  0.9401 -0.6869  0.2904
  211MOL0     C28364   6.167   6.755   9.601 -0.4545 -0.3909  0.4198
  211MOL0     C28365   6.186   6.812   9.459  0.4035  0.3911  0.4812
  211MOL0     C28366   6.054   6.856   9.388  0.3667  0.1363  0.2840
  211MOL0     N28367   6.089   6.921   9.263  0.7529  0.2872 -0.5135
  211MOL0     C28368   6.120   6.850   9.147  0.5332  0.1458  0.3497
  211MOL0     C28369   6.103   6.940   9.043 -0.9637  0.1257 -0.1079
  211MOL0     C28370   6.128   6.911   8.903 -1.0153  0.2082 -0.3428
  211MOL0     C28371   6.002   6.838   8.855  0.7129  0.7401 -0.1525
  211MOL0     C28372   6.022   6.765   8.725 -0.3195 -0.2857  0.0083
  211MOL0     C28373   6.094   6.836   8.610 -0.5287 -0.0044  0.4918
  211MOL0     O28374   6.047   6.779   8.490 -0.4605  0.3167  0.3331
  211MOL0     C28375   6.144   6.791   8.394  0.0876 -0.3137  0.4143
  211MOL0     C28376   6.235   6.688   8.369 -0.2229  0.2554 -0.6778
  211MOL0     C28377   6.336   6.713   8.274  0.2664  0.0602  0.5973
  211MOL0     C28378   6.351   6.834   8.200 -0.1099 -0.2540 -0.1261
  211MOL0     C28379   6.467   6.871   8.111  0.4206  0.3749  0.9639
  211MOL0     O28380   6.546   6.768   8.052  1.0818  0.1189 -0.1617
  211MOL0     C28381   6.645   6.803   7.974  0.1475  0.3862  0.1817
  211MOL0     C28382   6.774   6.785   8.023 -0.0776 -0.0754 -0.7313
  211MOL0     C28383   6.890   6.801   7.950  0.5193 -0.7065 -0.6163
  211MOL0     C28384   6.883   6.830   7.815  0.4376  0.3562  0.2000
  211MOL0     O28385   7.003   6.863   7.748  0.0721  0.4941 -0.3242
  211MOL0     C28386   7.005   6.866   7.603 -0.8049 -0.9981  0.4711
  211MOL0     C28387   7.144   6.899   7.545 -0.2838 -0.3909 -0.3567
  211MOL0     C28388   7.197   7.046   7.546  0.1002  0.5069  0.2101
  211MOL0     C28389   7.347   7.046   7.568  0.1306  0.1347  0.2500
  211MOL0     C28390   7.430   7.178   7.560 -0.8452  0.4364  0.3940
  211MOL0     C28391   7.579   7.148   7.550 -0.0498  0.2552 -0.3506
  211MOL0     C28392   7.662   7.274   7.521  0.4813  0.1706  0.4180
  211MOL0     C28393   7.805   7.225   7.503  0.3444 -0.4639  0.1857
  211MOL0    Cl28394   7.924   7.356   7.506 -0.2549 -0.2288 -0.2132
  211MOL0     C28395   6.754   6.845   7.762  0.0693 -0.0623  0.3722
  211MOL0     C28396   6.636   6.841   7.839 -0.1322  0.0160 -0.0050
  211MOL0     O28397   6.477   6.989   8.084 -0.1961  0.7439 -0.0425
  211MOL0     C28398   6.249   6.924   8.223  0.2282  0.8889 -0.2259
  211MOL0     C28399   6.143   6.905   8.313 -0.9015  0.0076 -0.6858
  211MOL0     N28400   6.067   7.059   9.098  0.0501 -0.9688 -0.7335
  211MOL0     N28401   6.061   7.048   9.231 -0.1844  0.5822 -0.2408
  211MOL0     C28402   5.646   6.526  10.150 -0.0284  0.7527 -0.7754
  211MOL0     C28403   5.576   6.545  10.276 -0.4822  0.6687 -0.2334
  211MOL0     C28404   5.493   6.650  10.692  0.5772  0.1558  0.2649
  211MOL0     C28405   5.353   6.614  10.706  0.3304 -0.9913 -0.3688
  211MOL0     C28406   5.269   6.662  10.809 -0.6804  0.1104 -0.0515
  211MOL0     C28407   5.316   6.756  10.904  0.1715  0.4163 -0.8972
  211MOL0     O28408   5.245   6.794  11.015 -0.1321  0.3875 -0.7490
  211MOL0     C28409   5.099   6.780  11.017  0.1439  0.2665 -0.5187
  211MOL0     C28410   5.022   6.917  11.040  0.9135 -0.5633  0.0118
  211MOL0     C28411   5.027   7.025  10.926 -0.6028  0.1985  0.4708
  211MOL0     C28412   4.949   7.155  10.952 -0.2956  0.2683  0.1772
  211MOL0     C28413   4.972   7.241  11.070 -1.1190  0.2943  0.0219
  211MOL0     C28414   5.016   7.312  11.165 -0.2958  0.0494  1.2402
  211MOL0     C28415   5.455   6.796  10.885 -0.2573  0.4793 -0.0304
  211MOL0     C28416   5.542   6.746  10.786  0.4897  0.2735 -0.0195
  211MOL0     C28417   5.673   6.821  10.778  0.2738  0.2248  0.2780
  211MOL0     H28418   5.659   6.280  10.460  1.1473 -1.1543  0.1709
  211MOL0     H28419   5.794   6.238  10.257 -1.4406  0.5565 -1.1611
  211MOL0     H28420   5.747   6.500   9.896 -1.4452 -2.1798  1.1193
  211MOL0     H28421   5.895   6.548   9.974 -0.6616  2.6881 -2.0938
  211MOL0     H28422   5.849   6.300   9.793  1.9440 -0.5839  0.2765
  211MOL0     H28423   5.999   6.330   9.875  1.0330 -0.3615  0.3171
  211MOL0     H28424   5.869   6.476   9.632  0.6968 -5.7822 -3.8302
  211MOL0     H28425   6.007   6.377   9.635 -0.0219  1.0992 -1.4381
  211MOL0     H28426   5.996   6.643   9.783  3.7897  4.4033 -1.4801
  211MOL0     H28427   6.132   6.536   9.778  0.3917  2.1763  1.0141
  211MOL0     H28428   6.153   6.550   9.531 -0.9530  0.6709 -3.9554
  211MOL0     H28429   5.995   6.630   9.529  0.3120 -1.1686  1.1417
  211MOL0     H28430   6.101   6.820   9.660 -1.7252  0.0106 -1.3545
  211MOL0     H28431   6.263   6.744   9.651 -0.3979  0.0834  0.4208
  211MOL0     H28432   6.250   6.755   9.392 -0.0999 -0.2919  0.5755
  211MOL0     H28433   6.242   6.906   9.460  2.8272 -0.8128 -3.2386
  211MOL0     H28434   6.005   6.761   9.367 -1.2372  1.0970 -0.5223
  211MOL0     H28435   5.990   6.915   9.454 -0.5903  1.2209 -1.5380
  211MOL0     H28436   6.145   6.745   9.134 -0.4769 -0.1065  0.3286
  211MOL0     H28437   6.162   6.998   8.846  0.1033  0.9331  1.3440
  211MOL0     H28438   6.208   6.835   8.897 -1.1932  0.1035 -1.6660
  211MOL0     H28439   5.959   6.767   8.926 -1.3600 -0.5334 -2.5147
  211MOL0     H28440   5.926   6.915   8.842  3.0961  2.8309 -3.0925
  211MOL0     H28441   5.919   6.746   8.693 -1.4909  1.4299  2.3991
  211MOL0     H28442   6.070   6.668   8.736  0.1997 -0.1456 -0.9425
  211MOL0     H28443   6.201   6.818   8.624 -0.3910  1.3885  1.5005
  211MOL0     H28444   6.056   6.938   8.614  0.7686  0.5117  0.1948
  211MOL0     H28445   6.247   6.593   8.418  1.5067 -0.8430 -3.0381
  211MOL0     H28446   6.405   6.630   8.267  0.4049 -0.1359  3.2454
  211MOL0     H28447   6.792   6.744   8.122  1.7706 -1.6069 -1.6222
  211MOL0     H28448   6.989   6.782   7.991  1.1337  1.6952 -0.8215
  211MOL0     H28449   6.970   6.772   7.559  3.5333 -1.9199 -1.4845
  211MOL0     H28450   6.937   6.944   7.565 -0.7441 -1.7306 -1.2458
  211MOL0     H28451   7.221   6.845   7.600 -0.6449  0.5876  1.1614
  211MOL0     H28452   7.141   6.869   7.439  0.3514  3.4764 -1.6165
  211MOL0     H28453   7.184   7.083   7.444  3.4490  2.5174  0.3491
  211MOL0     H28454   7.144   7.104   7.622 -2.8017  1.5049 -2.4006
  211MOL0     H28455   7.391   6.978   7.495 -0.7300  0.7437 -0.8672
  211MOL0     H28456   7.372   7.007   7.667  0.0264  0.4657  0.4077
  211MOL0     H28457   7.415   7.250   7.641  1.4247  1.2262  0.1695
  211MOL0     H28458   7.395   7.218   7.465  1.5177 -0.2601 -0.8573
  211MOL0     H28459   7.627   7.087   7.627 -1.9595 -1.2376 -0.2642
  211MOL0     H28460   7.589   7.092   7.456  3.2183  1.4790 -0.8743
  211MOL0     H28461   7.667   7.342   7.607  1.9287  1.2925 -0.5047
  211MOL0     H28462   7.630   7.337   7.438 -1.4296 -1.1566  0.0920
  211MOL0     H28463   7.827   7.146   7.576  1.3963 -1.2530 -0.9502
  211MOL0     H28464   7.810   7.182   7.403  2.4365  2.2128 -0.9646
  211MOL0     H28465   6.754   6.871   7.657 -0.9807  1.3999  0.7049
  211MOL0     H28466   6.541   6.855   7.788  1.1848 -0.4305 -2.7448
  211MOL0     H28467   6.256   7.025   8.184 -0.4737  1.3379  0.7693
  211MOL0     H28468   6.066   6.981   8.309  0.9525  1.9954 -0.5827
  211MOL0     H28469   5.642   6.590  10.063  1.1748 -0.2565 -1.6050
  211MOL0     H28470   5.512   6.631  10.292 -1.7536 -0.0338 -1.3619
  211MOL0     H28471   5.294   6.553  10.639 -0.4932 -0.9229  0.2751
  211MOL0     H28472   5.172   6.616  10.826 -0.6656  0.1627  0.1690
  211MOL0     H28473   5.065   6.721  11.103  0.1127 -0.7284 -1.1983
  211MOL0     H28474   5.059   6.745  10.922 -0.0899 -0.3086 -0.2178
  211MOL0     H28475   5.055   6.965  11.132 -0.8008 -0.2370  0.4939
  211MOL0     H28476   4.920   6.889  11.070  0.7009 -2.2608 -2.0093
  211MOL0     H28477   4.989   6.968  10.841  2.0486 -2.5495  0.9155
  211MOL0     H28478   5.133   7.042  10.904 -0.7893  1.7380  0.6396
  211MOL0     H28479   4.946   7.220  10.864  1.3250  0.8484  0.5291
  211MOL0     H28480   4.845   7.119  10.957  0.3216 -1.6802 -0.1191
  211MOL0     H28481   5.049   7.373  11.247 -1.6319  2.5426  0.0439
  211MOL0     H28482   5.481   6.881  10.947  1.4044  1.9074 -2.5137
  211MOL0     H28483   5.680   6.893  10.861  2.0760 -0.2183  0.5430
  211MOL0     H28484   5.757   6.752  10.778  0.7400  0.7515 -1.1328
  211MOL0     H28485   5.681   6.877  10.684 -0.9911  0.5355  0.3350
  212MOL0     O28486   1.033   2.676   2.872  0.6796 -0.2066 -0.1526
  212MOL0     C28487   1.008   2.795   2.838 -0.0727 -1.0896 -0.5680
  212MOL0     O28488   0.890   2.847   2.789 -0.4717 -0.1097  0.5654
  212MOL0     C28489   0.774   2.770   2.815  0.1169 -0.3327 -0.0003
  212MOL0     C28490   0.751   2.701   2.929 -0.0439  1.3158 -1.0678
  212MOL0     C28491   0.631   2.628   2.940  0.9775  0.3646 -0.1876
  212MOL0     C28492   0.524   2.638   2.845  0.0397  0.0995 -1.1914
  212MOL0     O28493   0.412   2.567   2.881  0.1393  0.2751 -0.2727
  212MOL0     C28494   0.294   2.593   2.806 -0.1329 -0.0888  0.1449
  212MOL0     C28495   0.275   2.496   2.683  0.3109 -0.3476 -0.0311
  212MOL0     C28496   0.155   2.549   2.588  0.0258 -0.2534 -0.0018
  212MOL0     C28497   0.179   2.526   2.438  0.2730  0.2000  0.0896
  212MOL0     C28498   0.200   2.371   2.408 -0.6855 -0.5622  0.1604
  212MOL0     C28499   0.208   2.342   2.255  0.4524 -0.0964  0.1110
  212MOL0     C28500   0.081   2.390   2.182 -0.6473 -0.9907 -0.2623
  212MOL0     C28501   0.065   2.336   2.037 -0.3955 -0.0848  1.4851
  212MOL0     N28502   0.162   2.397   1.940 -0.2336  0.4834 -0.1758
  212MOL0     C28503   0.283   2.345   1.924  0.1357 -0.9831  0.8180
  212MOL0     C28504   0.348   2.432   1.846 -0.9279 -0.8584  0.6971
  212MOL0     C28505   0.495   2.433   1.811 -0.0035  0.1410  1.9285
  212MOL0     C28506   0.527   2.435   1.666 -0.0687 -0.2277  0.2909
  212MOL0     C28507   0.679   2.443   1.636  0.5890  0.3052  0.5680
  212MOL0     C28508   0.769   2.365   1.723 -0.9013 -0.1726 -0.8394
  212MOL0     O28509   0.903   2.412   1.689  0.3728 -0.4591 -0.6695
  212MOL0     C28510   1.014   2.357   1.753 -0.7598  0.3497  0.0214
  212MOL0     C28511   1.022   2.275   1.868 -0.4575 -0.9436 -0.0730
  212MOL0     C28512   1.140   2.218   1.919  0.0122 -1.2138  0.6641
  212MOL0     C28513   1.264   2.242   1.852  0.1748 -0.0322 -0.2700
  212MOL0     C28514   1.388   2.186   1.908 -0.8236  0.3141  0.5608
  212MOL0     O28515   1.383   2.113   2.018  0.2691  0.3410  0.4559
  212MOL0     C28516   1.484   2.020   2.030  0.0170  0.2472  0.3270
  212MOL0     C28517   1.452   1.894   1.984 -0.0707 -0.3647  0.1680
  212MOL0     C28518   1.546   1.797   1.952 -0.6563  0.2407  0.4595
  212MOL0     C28519   1.683   1.819   1.982 -0.3769  0.2345 -0.8827
  212MOL0     O28520   1.792   1.739   1.963  0.2492  0.3356 -0.3190
  212MOL0     C28521   1.762   1.613   1.899 -0.3880  0.0836  0.3566
  212MOL0     C28522   1.892   1.544   1.872 -0.3522 -0.0681  0.6330
  212MOL0     C28523   1.944   1.496   2.009 -0.0165  0.0260  0.8102
  212MOL0     C28524   1.870   1.387   2.082  0.3395  0.2896  0.0333
  212MOL0     C28525   1.822   1.257   2.003  0.8648  0.1519  0.0432
  212MOL0     C28526   1.932   1.191   1.918 -1.6248  0.4846  0.4281
  212MOL0     C28527   1.875   1.090   1.823 -0.1846  0.2086 -0.0086
  212MOL0     C28528   1.974   1.004   1.751  0.7825  0.4634 -0.4495
  212MOL0    Cl28529   1.884   0.881   1.667  0.5150 -0.5815 -0.2881
  212MOL0     C28530   1.711   1.945   2.038 -0.5407  0.2747  0.4254
  212MOL0     C28531   1.620   2.045   2.047  0.2591  0.7826 -0.9081
  212MOL0     O28532   1.482   2.209   1.837  0.4063 -0.1469  0.1914
  212MOL0     C28533   1.265   2.321   1.733 -0.0310  0.3791  0.5038
  212MOL0     C28534   1.142   2.379   1.685 -0.6811 -0.4251  0.3167
  212MOL0     N28535   0.258   2.524   1.794 -0.4139  0.4030 -0.9763
  212MOL0     N28536   0.144   2.503   1.858 -0.0903  1.0756  0.5787
  212MOL0     C28537   0.545   2.713   2.732 -0.0175  0.1235 -0.1247
  212MOL0     C28538   0.666   2.787   2.721 -0.2067 -0.1688 -0.5529
  212MOL0     C28539   1.122   2.886   2.804 -0.1100 -0.5026 -0.0457
  212MOL0     C28540   1.092   3.022   2.774 -0.1981  0.7555 -0.3365
  212MOL0     C28541   1.189   3.113   2.739 -0.3993 -0.1657 -0.6225
  212MOL0     C28542   1.323   3.079   2.732 -0.1727  0.0827 -0.4730
  212MOL0     O28543   1.417   3.174   2.699 -0.3494  0.2064  0.3758
  212MOL0     C28544   1.545   3.132   2.661  0.0176 -0.8193 -0.3682
  212MOL0     C28545   1.619   3.267   2.662 -1.0097  0.3021 -0.4031
  212MOL0     C28546   1.773   3.247   2.647  0.8017  1.0759  0.1934
  212MOL0     C28547   1.844   3.358   2.717 -0.7303 -1.2095 -0.8073
  212MOL0     C28548   1.983   3.335   2.682  0.4023  0.0714 -0.2499
  212MOL0     C28549   2.101   3.321   2.646 -0.0133 -0.6508  0.6609
  212MOL0     C28550   1.350   2.943   2.760  0.6642 -0.4898  0.0939
  212MOL0     C28551   1.255   2.846   2.802 -0.3360  1.0272  0.0779
  212MOL0     C28552   1.303   2.706   2.841 -0.0898 -1.0424 -0.4001
  212MOL0     H28553   0.831   2.689   3.001 -0.0396  0.2854 -1.2300
  212MOL0     H28554   0.603   2.567   3.025  0.9391  2.0759  1.0775
  212MOL0     H28555   0.207   2.573   2.869  0.0250 -0.3936  0.2693
  212MOL0     H28556   0.298   2.696   2.770 -0.0902 -1.2460 -3.5976
  212MOL0     H28557   0.254   2.392   2.710 -1.0888 -0.2828 -0.7971
  212MOL0     H28558   0.368   2.486   2.626  2.7294 -0.5586  3.6426
  212MOL0     H28559   0.146   2.657   2.606  0.2929  0.0235 -1.3712
  212MOL0     H28560   0.059   2.502   2.605 -0.2985 -0.0518 -1.1513
  212MOL0     H28561   0.098   2.571   2.381  2.0978  3.6355 -0.0168
  212MOL0     H28562   0.267   2.585   2.411  1.2091  0.3117  3.0351
  212MOL0     H28563   0.294   2.340   2.454 -1.0078  0.1604  1.3285
  212MOL0     H28564   0.114   2.314   2.445 -1.7109  0.3578 -0.7445
  212MOL0     H28565   0.303   2.375   2.212  1.5714 -1.1502  1.6495
  212MOL0     H28566   0.227   2.235   2.243  3.3765  0.4087 -0.5925
  212MOL0     H28567   0.075   2.499   2.174  0.7621 -0.9016 -0.4034
  212MOL0     H28568  -0.008   2.359   2.236 -1.1524 -0.4090 -0.7330
  212MOL0     H28569   0.056   2.227   2.033 -0.6960 -0.0370 -1.6041
  212MOL0     H28570  -0.034   2.371   2.005 -0.1978 -1.5242 -0.9009
  212MOL0     H28571   0.322   2.256   1.972 -2.3019 -2.1336  0.8526
  212MOL0     H28572   0.535   2.523   1.859 -0.3483  0.5503  1.4610
  212MOL0     H28573   0.546   2.345   1.852  2.3778 -0.5666 -1.9724
  212MOL0     H28574   0.478   2.347   1.623 -0.0193 -0.1647  0.1058
  212MOL0     H28575   0.471   2.517   1.621 -0.8983 -0.7660  0.3176
  212MOL0     H28576   0.715   2.546   1.647  0.7147  0.4782 -1.1643
  212MOL0     H28577   0.690   2.411   1.532  2.0397  0.3668  0.6847
  212MOL0     H28578   0.761   2.257   1.705 -0.0105 -0.2766 -0.6686
  212MOL0     H28579   0.764   2.382   1.831 -2.0576 -1.9505 -0.5708
  212MOL0     H28580   0.937   2.254   1.931 -1.3868 -0.8600 -1.2706
  212MOL0     H28581   1.147   2.159   2.010  1.9556 -2.3395 -0.1491
  212MOL0     H28582   1.347   1.866   1.986 -0.1205 -0.1552  0.5155
  212MOL0     H28583   1.512   1.708   1.899  0.2009  1.6130 -2.6214
  212MOL0     H28584   1.691   1.556   1.959 -1.5634  0.9496 -0.1621
  212MOL0     H28585   1.721   1.648   1.803  1.1370  0.5811 -0.1331
  212MOL0     H28586   1.877   1.466   1.797  2.5240  0.0627 -0.1831
  212MOL0     H28587   1.959   1.619   1.829  1.6495 -0.6621  2.5244
  212MOL0     H28588   2.049   1.467   2.010 -0.5230 -1.8794  1.3382
  212MOL0     H28589   1.945   1.581   2.079  0.3638  1.2757 -0.6649
  212MOL0     H28590   1.774   1.429   2.114  0.5581  0.3221  0.6505
  212MOL0     H28591   1.931   1.370   2.171 -1.0382  2.4231  1.5053
  212MOL0     H28592   1.741   1.291   1.937  1.8708  1.7261 -0.4104
  212MOL0     H28593   1.787   1.187   2.080  3.4336  1.3721  2.4593
  212MOL0     H28594   1.982   1.260   1.850  0.5354 -2.1095 -0.7803
  212MOL0     H28595   1.999   1.147   1.992 -1.8343  0.1673  0.4308
  212MOL0     H28596   1.817   1.149   1.752  1.9032 -0.6458 -2.5892
  212MOL0     H28597   1.815   1.026   1.889 -2.8071  2.5900  0.1185
  212MOL0     H28598   2.021   1.072   1.679 -3.3339  3.3499 -0.7624
  212MOL0     H28599   2.044   0.948   1.814 -1.3052  0.8126  2.3401
  212MOL0     H28600   1.813   1.967   2.067 -0.9577  0.0822  2.1608
  212MOL0     H28601   1.650   2.144   2.082  1.6191  0.3281 -0.7289
  212MOL0     H28602   1.358   2.332   1.678  0.6621  1.3684  1.8245
  212MOL0     H28603   1.135   2.435   1.593  0.8971 -4.2277 -2.3981
  212MOL0     H28604   0.473   2.727   2.651  1.3584  1.7380 -1.1474
  212MOL0     H28605   0.682   2.854   2.637  1.9220  1.5181  1.0832
  212MOL0     H28606   0.996   3.072   2.767  1.9354  5.3446 -0.0528
  212MOL0     H28607   1.160   3.216   2.724  2.2932  0.6509 -0.8306
  212MOL0     H28608   1.540   3.090   2.560  1.8212  0.0082 -0.8457
  212MOL0     H28609   1.581   3.061   2.735  1.2526  0.9881  0.8540
  212MOL0     H28610   1.593   3.323   2.752 -1.8599  1.3292 -1.2508
  212MOL0     H28611   1.584   3.319   2.572  1.9754 -1.9018 -3.0544
  212MOL0     H28612   1.793   3.238   2.540  0.6231  0.1560  0.2314
  212MOL0     H28613   1.812   3.151   2.682 -0.9716  0.9125  1.9049
  212MOL0     H28614   1.816   3.455   2.676  0.9680 -0.3709 -0.0783
  212MOL0     H28615   1.846   3.359   2.826  1.1166 -3.9860 -0.6909
  212MOL0     H28616   2.200   3.318   2.605 -0.5273 -1.6866 -0.5669
  212MOL0     H28617   1.453   2.909   2.756  1.0076  0.5200  0.1043
  212MOL0     H28618   1.412   2.701   2.832 -0.2725 -1.6342 -3.4542
  212MOL0     H28619   1.273   2.698   2.945 -0.1832  1.0516 -0.2211
  212MOL0     H28620   1.267   2.628   2.773  0.3935 -0.3250 -1.5179
  213MOL0     O28621   7.434   0.225   4.895  0.5850  0.1004 -0.0955
  213MOL0     C28622   7.388   0.318   4.961 -0.3914 -1.0798  0.7239
  213MOL0     O28623   7.437   0.355   5.082  0.1661  0.5425 -0.2722
  213MOL0     C28624   7.553   0.292   5.121 -0.0552  0.5581 -0.9036
  213MOL0     C28625   7.678   0.351   5.095 -0.0012  0.6318 -0.4556
  213MOL0     C28626   7.792   0.297   5.156 -0.1231 -0.3268 -0.7169
  213MOL0     C28627   7.783   0.186   5.239 -0.1560  1.0472  0.3097
  213MOL0     O28628   7.887   0.134   5.318 -0.1487 -0.2065 -0.1499
  213MOL0     C28629   7.947   0.019   5.260 -0.6993  0.4995  0.6506
  213MOL0     C28630   8.044  -0.043   5.356  0.6870  0.2933 -0.7647
  213MOL0     C28631   8.157  -0.112   5.278 -0.0767 -0.6600  0.1200
  213MOL0     C28632   8.278  -0.129   5.357 -0.4794  0.0214 -0.8381
  213MOL0     C28633   8.379  -0.228   5.296 -0.3129  0.4972  0.0126
  213MOL0     C28634   8.515  -0.237   5.370  0.1022 -0.1508 -0.1627
  213MOL0     C28635   8.505  -0.325   5.498 -0.1640 -0.3042 -1.0329
  213MOL0     C28636   8.640  -0.352   5.568  0.8098  0.0234  0.2020
  213MOL0     N28637   8.746  -0.385   5.475 -0.5110  0.3086  0.1284
  213MOL0     C28638   8.826  -0.290   5.421  0.1957 -0.2537  0.1404
  213MOL0     C28639   8.905  -0.362   5.338 -0.6273  0.3704 -0.0935
  213MOL0     C28640   9.020  -0.312   5.250  0.6652  0.3020  0.8540
  213MOL0     C28641   9.150  -0.306   5.320  0.2636  0.7921  0.3560
  213MOL0     C28642   9.255  -0.258   5.227 -1.0800 -0.0168  0.9540
  213MOL0     C28643   9.393  -0.244   5.286  0.7682 -0.1795 -0.1042
  213MOL0     O28644   9.378  -0.195   5.423  0.2099 -0.2175  0.1326
  213MOL0     C28645   9.478  -0.123   5.481 -0.1693  0.0254  0.6219
  213MOL0     C28646   9.451  -0.016   5.560  0.4832 -0.2434 -0.4944
  213MOL0     C28647   9.550   0.066   5.616 -0.1466  0.2097 -0.2602
  213MOL0     C28648   9.679   0.047   5.574 -0.1734 -0.3073  0.0219
  213MOL0     C28649   9.775   0.151   5.635  0.4879 -0.1192  0.0120
  213MOL0     O28650   9.713   0.258   5.692  0.0316  0.0319 -0.4020
  213MOL0     C28651   9.771   0.384   5.686  0.0463 -0.4281 -0.3591
  213MOL0     C28652   9.894   0.393   5.757  0.1755  0.2414 -0.0307
  213MOL0     C28653   9.967   0.514   5.759  0.3823 -0.9098  0.5580
  213MOL0     C28654   9.915   0.624   5.684  0.3287  0.3964  0.7630
  213MOL0     O28655   9.970   0.745   5.705  1.2410  0.2709 -0.3688
  213MOL0     C28656  10.012   0.805   5.584  0.2352  0.4119  0.3510
  213MOL0     C28657  10.133   0.730   5.529  0.3812 -1.0222  0.1830
  213MOL0     C28658  10.216   0.835   5.443  0.4515 -0.6979  0.0687
  213MOL0     C28659  10.330   0.752   5.388  0.7873 -0.5594  0.3642
  213MOL0     C28660  10.443   0.846   5.343  0.7090  0.0003 -0.1888
  213MOL0     C28661  10.541   0.783   5.245  0.1081  0.7169  0.0317
  213MOL0     C28662  10.489   0.798   5.104  0.1250 -0.7135  0.2646
  213MOL0     C28663  10.589   0.797   4.994 -0.0777 -0.3714 -0.6768
  213MOL0    Cl28664  10.673   0.638   4.983  0.3099  0.4709 -0.1503
  213MOL0     C28665   9.791   0.607   5.611  0.7621  0.4020 -0.1186
  213MOL0     C28666   9.718   0.491   5.620  0.8340 -0.1463 -0.6570
  213MOL0     O28667   9.895   0.147   5.606 -0.1155  0.2822 -0.0805
  213MOL0     C28668   9.711  -0.055   5.488 -0.2026 -0.1240 -0.9680
  213MOL0     C28669   9.615  -0.147   5.450  0.3117 -0.6277 -0.5892
  213MOL0     N28670   8.881  -0.499   5.355  0.4211 -0.2875 -0.2923
  213MOL0     N28671   8.779  -0.508   5.433  0.5108 -0.3098  0.6264
  213MOL0     C28672   7.658   0.127   5.252  0.0416 -0.5109  0.2151
  213MOL0     C28673   7.544   0.179   5.201  0.0006  0.5524 -0.3015
  213MOL0     C28674   7.283   0.406   4.901 -0.5066 -0.3429 -0.3915
  213MOL0     C28675   7.245   0.519   4.979  0.5577  0.2421 -0.6737
  213MOL0     C28676   7.154   0.613   4.929 -0.0426  0.1668 -0.4651
  213MOL0     C28677   7.096   0.595   4.802  1.5189 -0.2550 -0.1773
  213MOL0     O28678   7.006   0.693   4.764 -0.0650 -0.7556  0.1542
  213MOL0     C28679   6.947   0.679   4.638 -0.1730  0.1536  0.3589
  213MOL0     C28680   6.827   0.603   4.646 -0.7989 -0.0903  0.6867
  213MOL0     C28681   6.791   0.546   4.502 -0.0964  0.1983  0.7534
  213MOL0     C28682   6.650   0.576   4.452  0.6689  0.1335  0.2173
  213MOL0     C28683   6.610   0.722   4.448  0.6685 -0.0687 -0.0886
  213MOL0     C28684   6.591   0.844   4.440  1.2417  0.2482 -0.7922
  213MOL0     C28685   7.124   0.471   4.737  1.0990  0.7256 -0.4898
  213MOL0     C28686   7.226   0.379   4.777  0.8083 -0.2053  0.0337
  213MOL0     C28687   7.235   0.248   4.706 -0.9461 -1.1616  1.0917
  213MOL0     H28688   7.687   0.435   5.027  0.8732  0.2882 -0.7818
  213MOL0     H28689   7.885   0.354   5.153 -0.9637  1.0429 -2.4780
  213MOL0     H28690   7.872  -0.054   5.228  1.8802 -3.2424  2.3973
  213MOL0     H28691   8.009   0.062   5.181 -1.0171 -1.3806 -0.6898
  213MOL0     H28692   7.978  -0.113   5.408  1.1904  0.3096 -0.0911
  213MOL0     H28693   8.082   0.025   5.432 -3.6403 -1.2727  3.2614
  213MOL0     H28694   8.193  -0.060   5.189 -1.0250  2.0123  1.1996
  213MOL0     H28695   8.117  -0.209   5.247 -3.6069  0.3987  0.8415
  213MOL0     H28696   8.334  -0.035   5.360 -0.7501  0.1939 -1.0687
  213MOL0     H28697   8.259  -0.164   5.459 -1.5937 -0.3451 -1.1590
  213MOL0     H28698   8.337  -0.329   5.295 -1.3137  0.8943 -1.2256
  213MOL0     H28699   8.402  -0.206   5.191  1.5514 -0.4990  0.1712
  213MOL0     H28700   8.585  -0.280   5.299 -0.6042  0.2968 -1.1603
  213MOL0     H28701   8.564  -0.144   5.399 -1.7264  0.7835  0.1330
  213MOL0     H28702   8.476  -0.427   5.472  3.4748 -2.3789  2.0183
  213MOL0     H28703   8.435  -0.271   5.562 -0.1262  0.3071 -1.4940
  213MOL0     H28704   8.667  -0.265   5.630  0.5039  0.1622  0.1430
  213MOL0     H28705   8.628  -0.432   5.641 -1.0011  0.6986  0.6972
  213MOL0     H28706   8.823  -0.184   5.445  0.2596 -0.3026  0.3629
  213MOL0     H28707   9.034  -0.382   5.168  2.8051  0.9659  0.5918
  213MOL0     H28708   8.984  -0.221   5.201 -2.8098 -0.7577  1.1363
  213MOL0     H28709   9.138  -0.238   5.406 -2.1991 -1.4825  1.9726
  213MOL0     H28710   9.179  -0.405   5.356 -0.5150  0.4523  0.0642
  213MOL0     H28711   9.229  -0.164   5.179 -4.7068 -2.1383 -1.7537
  213MOL0     H28712   9.260  -0.326   5.141 -0.1054  0.8579  0.2951
  213MOL0     H28713   9.455  -0.175   5.228 -0.0397  1.8905  1.3616
  213MOL0     H28714   9.428  -0.348   5.283  1.3631 -0.0883  2.0881
  213MOL0     H28715   9.349   0.009   5.585  0.3810 -2.8830  2.4189
  213MOL0     H28716   9.505   0.147   5.672 -0.7206  0.4132 -1.0024
  213MOL0     H28717   9.929   0.307   5.814 -2.7719 -0.7467  0.4847
  213MOL0     H28718  10.060   0.542   5.806  0.5376  0.2897 -0.4109
  213MOL0     H28719   9.940   0.816   5.502 -0.3153  3.7017  1.1104
  213MOL0     H28720  10.047   0.907   5.603 -0.1115  0.4733  0.6633
  213MOL0     H28721  10.200   0.684   5.604 -0.4874 -0.8494  1.0811
  213MOL0     H28722  10.106   0.646   5.464 -1.3641 -0.7365  0.5066
  213MOL0     H28723  10.163   0.880   5.359 -0.8494 -0.6838  0.8739
  213MOL0     H28724  10.259   0.914   5.505 -1.6479  1.0046 -0.5296
  213MOL0     H28725  10.296   0.715   5.291 -0.9403  1.4162  0.1655
  213MOL0     H28726  10.352   0.675   5.463 -2.0067 -2.7336 -0.9042
  213MOL0     H28727  10.501   0.874   5.431 -0.2646  1.1983  0.0969
  213MOL0     H28728  10.398   0.934   5.295 -1.8754 -1.8900 -1.4886
  213MOL0     H28729  10.633   0.838   5.265 -2.3152  4.3151  2.8138
  213MOL0     H28730  10.565   0.682   5.278  0.4016  0.8252  0.1535
  213MOL0     H28731  10.434   0.891   5.090  0.3757 -0.7050 -0.7757
  213MOL0     H28732  10.413   0.720   5.095 -0.3363 -0.0376 -3.2028
  213MOL0     H28733  10.530   0.816   4.904 -0.8714 -1.9794 -0.5346
  213MOL0     H28734  10.662   0.877   5.009 -1.4215  0.9113 -0.6945
  213MOL0     H28735   9.751   0.685   5.547  1.7855 -1.1092 -2.7432
  213MOL0     H28736   9.616   0.494   5.581  0.9657  3.3427 -1.0129
  213MOL0     H28737   9.811  -0.064   5.448 -0.9083 -0.0939 -2.8706
  213MOL0     H28738   9.657  -0.218   5.380  1.0243  2.6024 -3.7247
  213MOL0     H28739   7.653   0.034   5.308  2.5760 -3.1157 -3.3695
  213MOL0     H28740   7.447   0.130   5.207  0.1156 -0.3642 -3.7470
  213MOL0     H28741   7.280   0.557   5.075 -1.3101 -2.1143  1.0774
  213MOL0     H28742   7.137   0.701   4.990  1.9255  0.0250  0.3434
  213MOL0     H28743   7.020   0.637   4.569 -0.1278 -0.8078  0.9769
  213MOL0     H28744   6.942   0.780   4.596 -0.8714 -0.9198 -2.2913
  213MOL0     H28745   6.741   0.660   4.681  1.0992  3.0315  0.6691
  213MOL0     H28746   6.855   0.524   4.716  3.3870  1.1996  0.8113
  213MOL0     H28747   6.814   0.440   4.490  1.6507  0.4731  1.3885
  213MOL0     H28748   6.859   0.589   4.428  0.9342  0.9379  2.0929
  213MOL0     H28749   6.655   0.537   4.350  2.5821 -1.1072  0.7309
  213MOL0     H28750   6.571   0.519   4.501  0.1521  1.0167  0.4270
  213MOL0     H28751   6.552   0.944   4.447  0.2982 -0.0612 -1.3910
  213MOL0     H28752   7.084   0.441   4.640  3.1692 -1.4118 -0.7850
  213MOL0     H28753   7.165   0.246   4.623  0.7426  2.9157 -0.7152
  213MOL0     H28754   7.330   0.248   4.652 -0.1748  1.3269  2.2590
  213MOL0     H28755   7.218   0.163   4.773 -0.9716 -1.7838  0.3021
  214MOL0     O28756   1.866  10.921   0.356 -0.3781 -0.4128  0.0322
  214MOL0     C28757   1.864  10.958   0.235 -0.3217  0.0603 -0.9262
  214MOL0     O28758   1.976  11.006   0.166  0.1820  0.1187 -0.3370
  214MOL0     C28759   2.093  11.002   0.240  0.2000  0.8300 -1.0906
  214MOL0     C28760   2.171  10.891   0.223 -0.7739 -0.0664 -0.5728
  214MOL0     C28761   2.297  10.883   0.271 -0.4601 -0.6132 -0.1861
  214MOL0     C28762   2.336  10.978   0.358 -0.1447  0.0037  0.1215
  214MOL0     O28763   2.459  10.971   0.410  0.3649  0.1478  0.1958
  214MOL0     C28764   2.539  11.089   0.408  0.6049 -0.0397  0.5512
  214MOL0     C28765   2.639  11.079   0.300 -0.1295 -0.9746  0.9982
  214MOL0     C28766   2.697  11.214   0.260  0.1523  0.1239  0.1711
  214MOL0     C28767   2.828  11.191   0.181 -0.4807  0.5237 -0.5521
  214MOL0     C28768   2.918  11.319   0.166  0.4348  0.5430 -0.1931
  214MOL0     C28769   3.055  11.288   0.107 -1.0171  0.4265  0.1200
  214MOL0     C28770   3.146  11.400   0.083 -0.0377 -0.4464  0.1233
  214MOL0     C28771   3.144  11.500   0.204  0.0080 -0.0903  0.7307
  214MOL0     N28772   3.201  11.438   0.317 -0.3580  0.1861 -0.4220
  214MOL0     C28773   3.334  11.411   0.333  0.2214  0.0405 -0.3384
  214MOL0     C28774   3.350  11.392   0.466  0.2248 -0.6450 -0.0239
  214MOL0     C28775   3.483  11.346   0.516  0.2709  0.4103 -0.8964
  214MOL0     C28776   3.581  11.461   0.504  0.6538  0.1286  0.3478
  214MOL0     C28777   3.726  11.406   0.506 -0.3427 -0.0621 -0.3382
  214MOL0     C28778   3.826  11.519   0.467  0.6806 -0.6215 -0.2886
  214MOL0     O28779   3.805  11.629   0.562  0.0572 -0.6207  0.0396
  214MOL0     C28780   3.894  11.736   0.572  0.2905  0.0092 -0.7317
  214MOL0     C28781   3.895  11.821   0.688  1.2547  0.0634  0.2067
  214MOL0     C28782   3.993  11.915   0.711 -0.8384 -0.4078  0.5510
  214MOL0     C28783   4.099  11.917   0.616 -0.6012 -0.0118 -0.5644
  214MOL0     C28784   4.214  12.001   0.640  0.6976 -0.4964 -0.5914
  214MOL0     O28785   4.233  12.049   0.764 -0.4893 -0.1772  0.3677
  214MOL0     C28786   4.339  12.141   0.788 -1.0216  0.0989  0.2142
  214MOL0     C28787   4.456  12.149   0.718 -1.0505  0.6651 -0.1282
  214MOL0     C28788   4.559  12.228   0.760 -0.2179 -0.3997 -0.4176
  214MOL0     C28789   4.549  12.312   0.869 -1.1341 -0.5774 -0.7280
  214MOL0     O28790   4.642  12.388   0.927 -0.4790 -0.3425  0.1395
  214MOL0     C28791   4.774  12.325   0.918  0.7981 -0.8039  0.5481
  214MOL0     C28792   4.870  12.402   1.008  0.0168 -0.4598 -0.5290
  214MOL0     C28793   5.005  12.338   1.032  0.5575  0.3726  0.7105
  214MOL0     C28794   5.110  12.458   1.035 -0.0881 -0.4196  1.4127
  214MOL0     C28795   5.236  12.428   1.108  0.4644  0.1691  0.6476
  214MOL0     C28796   5.344  12.539   1.095 -0.6016  0.8955  0.0943
  214MOL0     C28797   5.454  12.522   1.201 -0.4425 -0.7367 -0.2542
  214MOL0     C28798   5.580  12.584   1.151  0.2228 -0.5636  0.2560
  214MOL0    Cl28799   5.696  12.576   1.270 -0.1372 -0.2540  0.2053
  214MOL0     C28800   4.424  12.323   0.927  0.0001 -0.3530 -0.1004
  214MOL0     C28801   4.321  12.241   0.884  0.4414 -0.4045 -0.6425
  214MOL0     O28802   4.268  12.034   0.528 -0.3228  0.0887 -0.0871
  214MOL0     C28803   4.089  11.845   0.497 -0.3002  1.1487  0.0663
  214MOL0     C28804   3.981  11.759   0.467 -0.1082  0.9823 -1.0390
  214MOL0     N28805   3.232  11.425   0.527 -0.4774  0.0216 -0.0732
  214MOL0     N28806   3.145  11.449   0.441  0.5758 -0.6632  0.4506
  214MOL0     C28807   2.255  11.087   0.389  0.2019  0.1893 -0.4033
  214MOL0     C28808   2.134  11.108   0.322 -0.4774  0.2956  0.4471
  214MOL0     C28809   1.739  10.940   0.159 -0.2533  0.7413  0.3461
  214MOL0     C28810   1.708  11.052   0.081 -0.3434  0.6431  0.4005
  214MOL0     C28811   1.591  11.045  -0.002 -0.1764 -0.5601 -1.5209
  214MOL0     C28812   1.516  10.936  -0.011 -0.5421  1.1061  0.1769
  214MOL0     O28813   1.410  10.933  -0.092  0.4457  0.1657 -0.5356
  214MOL0     C28814   1.288  10.957  -0.012  0.4958  0.1134  0.2904
  214MOL0     C28815   1.193  11.048  -0.084  0.3452 -0.8731  0.4162
  214MOL0     C28816   1.140  10.980  -0.211  1.0840 -0.9976 -0.4895
  214MOL0     C28817   1.025  11.056  -0.280 -0.4419 -1.2145  0.1942
  214MOL0     C28818   1.078  11.196  -0.310  0.1237 -0.8342  0.2166
  214MOL0     C28819   1.105  11.308  -0.329  0.0596 -0.3734 -0.6207
  214MOL0     C28820   1.544  10.829   0.074  0.0503 -0.4804  0.5517
  214MOL0     C28821   1.652  10.830   0.155 -0.5634  0.5220  0.0493
  214MOL0     C28822   1.672  10.707   0.238 -1.0346  0.1789 -0.3065
  214MOL0     H28823   2.128  10.816   0.156 -0.9827 -3.3151  2.8482
  214MOL0     H28824   2.367  10.803   0.250  1.5962  1.4313 -1.6980
  214MOL0     H28825   2.485  11.180   0.381 -0.1538 -0.5677  0.2457
  214MOL0     H28826   2.586  11.095   0.507 -0.2815 -2.6918  1.2236
  214MOL0     H28827   2.591  11.041   0.210 -0.8510  2.0060  0.0192
  214MOL0     H28828   2.717  11.006   0.325  0.4597 -1.5786 -2.2033
  214MOL0     H28829   2.725  11.272   0.349  3.9953  1.6115 -1.7492
  214MOL0     H28830   2.625  11.271   0.201 -0.3583  1.7771  2.2737
  214MOL0     H28831   2.894  11.123   0.236 -0.0104  0.8201 -0.7441
  214MOL0     H28832   2.808  11.134   0.090  1.3112 -1.7317  0.3638
  214MOL0     H28833   2.863  11.390   0.104 -0.6473  0.3456  0.5085
  214MOL0     H28834   2.916  11.362   0.267 -0.0814 -0.0652  0.0583
  214MOL0     H28835   3.107  11.208   0.160 -1.4191  0.7052  0.9433
  214MOL0     H28836   3.040  11.245   0.007  1.5561  0.2187 -0.2581
  214MOL0     H28837   3.127  11.449  -0.013 -0.2674 -1.3070 -0.2817
  214MOL0     H28838   3.249  11.366   0.073 -0.8236 -2.7277 -0.8454
  214MOL0     H28839   3.208  11.577   0.160 -3.3006  0.2679 -4.2926
  214MOL0     H28840   3.040  11.524   0.228 -0.3070 -1.2443  0.5703
  214MOL0     H28841   3.417  11.404   0.264  4.3528  2.2111  3.8372
  214MOL0     H28842   3.455  11.315   0.617 -1.2551  1.1420 -1.0608
  214MOL0     H28843   3.516  11.259   0.459  2.1834  0.2556  0.3575
  214MOL0     H28844   3.583  11.513   0.408  0.6500 -0.9306 -0.2442
  214MOL0     H28845   3.561  11.520   0.594  0.8787 -0.2419  0.6430
  214MOL0     H28846   3.727  11.333   0.424  2.0135  2.0298 -2.3679
  214MOL0     H28847   3.763  11.367   0.601  2.9804  2.8571 -0.2277
  214MOL0     H28848   3.793  11.558   0.370 -1.2735  0.0882  0.6068
  214MOL0     H28849   3.929  11.483   0.464  1.7196  2.2019 -1.6022
  214MOL0     H28850   3.810  11.811   0.755 -0.0657 -3.3442 -1.7015
  214MOL0     H28851   3.973  11.978   0.797 -1.0602 -0.7691  0.7660
  214MOL0     H28852   4.483  12.072   0.646  4.5852  0.6016  1.6428
  214MOL0     H28853   4.650  12.222   0.701 -0.4661 -1.7059 -0.6926
  214MOL0     H28854   4.763  12.221   0.952 -0.2017 -1.4587 -1.6215
  214MOL0     H28855   4.816  12.320   0.818  3.9452 -1.5176  1.7882
  214MOL0     H28856   4.887  12.498   0.959  0.2679 -0.1043  0.2346
  214MOL0     H28857   4.814  12.430   1.098 -0.8151  1.2857 -1.5335
  214MOL0     H28858   4.995  12.290   1.130 -2.8116  0.0549  0.3099
  214MOL0     H28859   5.035  12.265   0.956 -2.7237  0.2867 -0.6550
  214MOL0     H28860   5.064  12.548   1.075  1.8406  0.8603  0.8623
  214MOL0     H28861   5.133  12.483   0.931 -0.2899  1.2530  1.7479
  214MOL0     H28862   5.264  12.328   1.073 -2.2450 -0.9866  1.5106
  214MOL0     H28863   5.210  12.425   1.215 -1.9435 -1.2256  0.0874
  214MOL0     H28864   5.396  12.549   1.000 -1.4326 -1.0475 -0.6274
  214MOL0     H28865   5.284  12.625   1.126 -0.5233  0.5842  1.1748
  214MOL0     H28866   5.477  12.416   1.218 -1.1625 -1.1444 -1.6949
  214MOL0     H28867   5.415  12.573   1.289 -2.3085  1.5846 -2.2727
  214MOL0     H28868   5.619  12.523   1.068  0.6918 -0.9670  0.7681
  214MOL0     H28869   5.552  12.684   1.117 -1.8480 -0.8149  1.0846
  214MOL0     H28870   4.414  12.401   1.002 -0.2831  0.2777 -0.7795
  214MOL0     H28871   4.222  12.253   0.928  0.0088 -3.6029 -0.5208
  214MOL0     H28872   4.160  11.856   0.416 -2.8566  1.5886 -2.2767
  214MOL0     H28873   3.975  11.696   0.379 -0.6608  1.1049 -1.0905
  214MOL0     H28874   2.290  11.159   0.463 -0.4746  1.0039 -0.8686
  214MOL0     H28875   2.073  11.197   0.337  2.2417  2.3544  0.0831
  214MOL0     H28876   1.759  11.148   0.089  0.0956  0.4904 -0.4557
  214MOL0     H28877   1.561  11.141  -0.044 -1.6670  0.0273  0.6933
  214MOL0     H28878   1.324  10.988   0.086  4.6014 -3.1260  0.0835
  214MOL0     H28879   1.237  10.862   0.002  1.1644 -0.7413 -2.4203
  214MOL0     H28880   1.249  11.139  -0.104 -1.6570  0.1014 -1.0703
  214MOL0     H28881   1.107  11.069  -0.019  0.0753 -3.1911  0.9114
  214MOL0     H28882   1.107  10.880  -0.180  0.9746 -0.4192  1.3753
  214MOL0     H28883   1.223  10.971  -0.282  0.7588 -2.6319 -0.7138
  214MOL0     H28884   0.976  11.002  -0.361  1.0294 -0.6250 -1.1444
  214MOL0     H28885   0.944  11.079  -0.209 -1.8228 -0.2315 -1.6259
  214MOL0     H28886   1.124  11.408  -0.362 -0.3555  0.0312  0.3174
  214MOL0     H28887   1.474  10.746   0.070 -0.0287 -0.3901 -0.0936
  214MOL0     H28888   1.667  10.615   0.179 -0.3904  0.7083 -1.2130
  214MOL0     H28889   1.775  10.699   0.273 -1.0742 -2.5131 -0.5628
  214MOL0     H28890   1.617  10.697   0.332 -1.2062  0.2581 -0.3970
  215MOL0     O28891   8.037   2.346   7.603  0.3762 -0.5744  0.4934
  215MOL0     C28892   8.083   2.272   7.516 -0.4288  0.2569 -0.1270
  215MOL0     O28893   8.006   2.188   7.440  0.1762 -0.5257  0.3279
  215MOL0     C28894   7.867   2.175   7.459  0.7790 -0.9982  0.3693
  215MOL0     C28895   7.817   2.050   7.485 -0.1813  0.4475  0.6259
  215MOL0     C28896   7.681   2.025   7.511  0.3099 -0.0306  0.6557
  215MOL0     C28897   7.591   2.135   7.515 -0.2085  0.4807  0.8027
  215MOL0     O28898   7.452   2.122   7.530 -0.5546 -0.0224  0.9306
  215MOL0     C28899   7.412   1.996   7.580  0.5969  0.0533  0.3996
  215MOL0     C28900   7.265   1.982   7.611 -0.3361  1.3939  1.0854
  215MOL0     C28901   7.202   2.074   7.720  1.0405  0.1683 -0.4196
  215MOL0     C28902   7.046   2.060   7.752 -0.9285  0.7508 -0.2750
  215MOL0     C28903   7.004   2.154   7.872 -0.1801  0.4177  0.1828
  215MOL0     C28904   6.855   2.138   7.911 -0.2404  0.1003 -0.5451
  215MOL0     C28905   6.825   1.988   7.933 -0.0364  0.5916 -0.0831
  215MOL0     C28906   6.699   1.970   8.020 -0.2544 -0.2663  0.7680
  215MOL0     N28907   6.576   2.028   7.957  0.3133  0.9713 -0.4106
  215MOL0     C28908   6.467   2.088   8.024  0.5197  0.0470  0.1102
  215MOL0     C28909   6.367   2.105   7.931 -0.8935 -0.5527 -0.6514
  215MOL0     C28910   6.244   2.192   7.970  0.1298  0.3245 -0.2439
  215MOL0     C28911   6.131   2.100   7.999  0.2520 -0.1647  0.7359
  215MOL0     C28912   6.069   2.015   7.885 -0.4384  0.7048  0.3747
  215MOL0     C28913   5.927   1.956   7.928 -0.0033  0.0355  0.1873
  215MOL0     O28914   5.829   2.058   7.910 -0.0747 -0.4357  0.1330
  215MOL0     C28915   5.708   2.048   7.970  1.0327 -0.1660  0.4554
  215MOL0     C28916   5.668   1.955   8.067  0.2894 -0.1469 -0.1950
  215MOL0     C28917   5.539   1.959   8.127  0.2022  0.1595  0.2506
  215MOL0     C28918   5.439   2.052   8.088 -0.4381  0.5132  0.9576
  215MOL0     C28919   5.306   2.057   8.147  0.1682 -0.3599 -0.4964
  215MOL0     O28920   5.274   1.951   8.221 -0.2345  0.0650  0.3540
  215MOL0     C28921   5.149   1.950   8.275  0.8167 -0.9112 -0.7768
  215MOL0     C28922   5.049   1.877   8.202 -0.1402 -0.1298 -0.8947
  215MOL0     C28923   4.912   1.880   8.235  0.1896 -0.8361 -0.1918
  215MOL0     C28924   4.869   1.965   8.339 -0.1233  0.4313 -0.6724
  215MOL0     O28925   4.737   1.967   8.382 -0.3932  0.5569  0.3411
  215MOL0     C28926   4.631   1.931   8.284 -0.9799  0.3436 -0.1807
  215MOL0     C28927   4.503   1.972   8.353 -0.4965  1.3678 -0.4479
  215MOL0     C28928   4.377   1.933   8.286  0.5537  0.3355 -0.1194
  215MOL0     C28929   4.258   1.967   8.373  0.6067  0.0224 -1.4113
  215MOL0     C28930   4.126   1.899   8.336  0.4521 -0.4420 -0.1222
  215MOL0     C28931   4.084   1.927   8.193 -0.1608  0.8862  0.2667
  215MOL0     C28932   3.973   1.836   8.149 -0.4575 -0.0148  0.2229
  215MOL0     C28933   3.846   1.881   8.215  0.6425  0.7867  0.1387
  215MOL0    Cl28934   3.709   1.771   8.172  0.2415  0.0399 -0.0242
  215MOL0     C28935   4.973   2.040   8.404 -0.2660 -0.1566 -0.2905
  215MOL0     C28936   5.105   2.029   8.378 -0.8866  0.5047  0.5157
  215MOL0     O28937   5.231   2.147   8.109 -0.5166 -0.0875  0.4518
  215MOL0     C28938   5.485   2.142   7.985  0.6073 -0.4535  0.4546
  215MOL0     C28939   5.606   2.142   7.925  0.2677  0.2092 -0.2495
  215MOL0     N28940   6.413   2.058   7.813 -0.3479 -0.1538  0.9767
  215MOL0     N28941   6.535   2.011   7.824 -0.1975 -0.1080  0.6012
  215MOL0     C28942   7.639   2.264   7.500  0.3502  0.2686  0.3072
  215MOL0     C28943   7.778   2.288   7.479  0.1034  0.2387 -0.0877
  215MOL0     C28944   8.230   2.268   7.500 -1.0001 -0.3180  0.3889
  215MOL0     C28945   8.306   2.329   7.601  0.7395 -0.3377 -0.0950
  215MOL0     C28946   8.436   2.315   7.613  0.1189 -0.1158 -0.1746
  215MOL0     C28947   8.505   2.252   7.510 -0.0794  0.1605  0.3049
  215MOL0     O28948   8.636   2.240   7.521 -1.2244  0.1052  0.2748
  215MOL0     C28949   8.720   2.345   7.571  0.1223 -0.4121 -0.2230
  215MOL0     C28950   8.866   2.331   7.539  0.4280 -0.4610  0.6520
  215MOL0     C28951   8.890   2.264   7.400 -0.6566  0.1633  0.1721
  215MOL0     C28952   9.017   2.322   7.333 -0.4675 -0.4541 -0.1642
  215MOL0     C28953   9.142   2.311   7.423  0.3165  1.0785  0.1574
  215MOL0     C28954   9.241   2.303   7.500  1.7352  0.4269  0.6646
  215MOL0     C28955   8.441   2.206   7.392  0.2492  0.1310 -0.3523
  215MOL0     C28956   8.303   2.215   7.384  0.6425  0.4359 -0.0583
  215MOL0     C28957   8.228   2.171   7.266 -0.9631 -1.1287  0.6443
  215MOL0     H28958   7.882   1.963   7.482  1.1981  1.4433  0.6493
  215MOL0     H28959   7.654   1.920   7.509  2.5054 -0.7059 -2.7326
  215MOL0     H28960   7.424   1.924   7.498 -4.7621  0.8173 -1.4154
  215MOL0     H28961   7.466   1.980   7.674  2.7493  2.5525 -0.2836
  215MOL0     H28962   7.241   1.879   7.639  1.0179  1.0985  1.2144
  215MOL0     H28963   7.202   2.000   7.523 -2.6861 -1.4663  2.0219
  215MOL0     H28964   7.226   2.179   7.700 -0.7221  0.2391 -2.5828
  215MOL0     H28965   7.247   2.056   7.818 -3.0556  1.5859  1.9537
  215MOL0     H28966   6.980   2.085   7.669 -0.7997 -1.4275 -1.1003
  215MOL0     H28967   7.032   1.959   7.793  0.6992  0.6041  0.0019
  215MOL0     H28968   7.072   2.129   7.954 -0.0669 -1.3380 -0.4127
  215MOL0     H28969   7.011   2.258   7.840 -3.4820  1.0999  1.3024
  215MOL0     H28970   6.847   2.202   7.999 -0.0092  0.0058 -0.4544
  215MOL0     H28971   6.782   2.173   7.838 -2.1293  0.0304  1.2458
  215MOL0     H28972   6.911   1.947   7.987 -0.2549 -2.8441 -2.0739
  215MOL0     H28973   6.813   1.943   7.834  0.9374  0.8559 -0.3321
  215MOL0     H28974   6.676   1.863   8.027 -2.9724  0.3134  2.0261
  215MOL0     H28975   6.701   2.008   8.122 -1.4295 -2.0123  1.4784
  215MOL0     H28976   6.474   2.114   8.129  3.7022  0.6782 -0.1699
  215MOL0     H28977   6.271   2.251   8.058 -0.0568 -0.0808  0.0901
  215MOL0     H28978   6.214   2.260   7.890 -1.7831 -0.9312 -0.6636
  215MOL0     H28979   6.165   2.025   8.071  0.5441 -0.0430  0.7276
  215MOL0     H28980   6.063   2.155   8.064  0.1642 -0.3052  0.7630
  215MOL0     H28981   6.124   1.922   7.865 -1.3487  0.5215 -1.6023
  215MOL0     H28982   6.051   2.064   7.789 -0.3881 -0.4123 -0.2203
  215MOL0     H28983   5.941   1.928   8.033 -0.4584  0.9054  0.4859
  215MOL0     H28984   5.900   1.865   7.874 -0.2601  0.6791 -0.7848
  215MOL0     H28985   5.734   1.886   8.119 -1.4196 -1.1135  0.7969
  215MOL0     H28986   5.509   1.887   8.202 -0.4160  1.3256  1.1551
  215MOL0     H28987   5.085   1.811   8.123 -1.6130 -2.3077  0.1440
  215MOL0     H28988   4.844   1.812   8.184  0.2060  0.7562 -2.4970
  215MOL0     H28989   4.636   1.992   8.193  0.1119  1.2278  0.4442
  215MOL0     H28990   4.642   1.824   8.268 -0.4562  0.1437  1.3720
  215MOL0     H28991   4.499   1.929   8.454 -0.4393 -0.9567 -1.3945
  215MOL0     H28992   4.502   2.079   8.378 -2.8126  1.1151  0.8185
  215MOL0     H28993   4.367   1.995   8.196 -1.9055  3.0309  1.8393
  215MOL0     H28994   4.377   1.828   8.254 -3.8352  0.1379  0.0006
  215MOL0     H28995   4.245   2.076   8.371  3.0398  0.3835 -0.7825
  215MOL0     H28996   4.270   1.936   8.478 -1.4160 -0.9646 -1.4157
  215MOL0     H28997   4.049   1.947   8.397  0.9879 -1.1028  1.1129
  215MOL0     H28998   4.147   1.793   8.351  2.3045 -0.8610 -4.3945
  215MOL0     H28999   4.053   2.032   8.193  1.5215  1.4190  0.0311
  215MOL0     H29000   4.163   1.921   8.118  2.1505 -0.2677  2.5964
  215MOL0     H29001   3.993   1.731   8.171 -0.4440 -0.1812 -0.5331
  215MOL0     H29002   3.971   1.850   8.040  2.4568  0.9251  0.2142
  215MOL0     H29003   3.856   1.874   8.324 -0.0839  2.7076  0.3705
  215MOL0     H29004   3.846   1.982   8.174  0.2696 -0.5606 -3.5370
  215MOL0     H29005   4.942   2.103   8.487 -1.2978 -3.4137  2.0137
  215MOL0     H29006   5.176   2.085   8.440  0.6917  1.1440 -1.7359
  215MOL0     H29007   5.404   2.202   7.945  0.8768  0.1083  0.7402
  215MOL0     H29008   5.645   2.205   7.847  0.6836  0.1228 -0.1168
  215MOL0     H29009   7.571   2.349   7.501  0.8902  0.7259 -0.5177
  215MOL0     H29010   7.813   2.390   7.481  1.3778 -0.1891  1.0226
  215MOL0     H29011   8.253   2.370   7.686 -1.6603 -3.2790  0.0121
  215MOL0     H29012   8.484   2.332   7.708 -0.8034 -0.0723  0.2941
  215MOL0     H29013   8.714   2.362   7.679  1.0323  1.2935 -0.4014
  215MOL0     H29014   8.688   2.440   7.528  1.5737 -0.9887 -2.8000
  215MOL0     H29015   8.918   2.271   7.615  1.6988  0.0831  0.2394
  215MOL0     H29016   8.908   2.432   7.540  1.0134 -0.6511 -1.1036
  215MOL0     H29017   8.804   2.271   7.333  0.6413 -3.4131 -2.1879
  215MOL0     H29018   8.911   2.157   7.416 -1.9475 -0.4078 -1.5549
  215MOL0     H29019   9.040   2.280   7.235  1.0393 -0.7501  0.2816
  215MOL0     H29020   9.000   2.428   7.311  0.4359 -0.3432 -0.3972
  215MOL0     H29021   9.334   2.309   7.553  1.1389  1.2760  1.6542
  215MOL0     H29022   8.491   2.173   7.302 -0.5203  0.5408 -0.9429
  215MOL0     H29023   8.284   2.193   7.174 -1.4975  1.3200  0.8321
  215MOL0     H29024   8.191   2.068   7.265 -0.6771 -1.2404 -0.4841
  215MOL0     H29025   8.144   2.239   7.248 -0.3621 -0.4754  0.2570
  216MOL0     O29026  10.911   1.082   8.229 -0.5001  0.0739  0.7322
  216MOL0     C29027  10.865   1.115   8.123  0.4701  0.1253 -0.5111
  216MOL0     O29028  10.933   1.139   8.005 -0.0035  0.3792  0.0799
  216MOL0     C29029  11.068   1.116   7.984 -1.0906 -0.3097 -0.2064
  216MOL0     C29030  11.116   1.155   7.857 -0.1624 -0.1733 -0.2667
  216MOL0     C29031  11.244   1.124   7.829 -0.3184 -0.0565  0.1514
  216MOL0     C29032  11.337   1.067   7.915 -0.3007  0.7672  0.6538
  216MOL0     O29033  11.465   1.051   7.876  0.4910  0.0732  0.6990
  216MOL0     C29034  11.562   0.961   7.941  0.3858  0.2671  0.1850
  216MOL0     C29035  11.693   0.972   7.887  0.1085 -0.2288 -0.3070
  216MOL0     C29036  11.795   0.862   7.919 -0.0143 -0.4007  0.0609
  216MOL0     C29037  11.938   0.924   7.902  0.3451  0.9705 -0.5847
  216MOL0     C29038  12.031   0.816   7.952 -0.4086 -0.3248 -0.8853
  216MOL0     C29039  12.029   0.682   7.887  0.0715  0.6680  0.0459
  216MOL0     C29040  12.053   0.686   7.741  0.2615 -0.3110 -0.0272
  216MOL0     C29041  12.105   0.547   7.695  0.5341  0.3004  0.2307
  216MOL0     N29042  12.141   0.537   7.548  0.8963  0.8009 -0.3743
  216MOL0     C29043  12.247   0.466   7.495 -0.5240  0.2287  0.3739
  216MOL0     C29044  12.227   0.449   7.361 -0.1284 -0.0035 -0.4390
  216MOL0     C29045  12.330   0.388   7.260 -0.3220  0.0758  0.6869
  216MOL0     C29046  12.435   0.500   7.219  0.1132  0.3564 -0.1146
  216MOL0     C29047  12.369   0.602   7.124  0.0581  0.1202  0.1815
  216MOL0     C29048  12.452   0.722   7.095 -1.0387 -0.8207  0.0162
  216MOL0     O29049  12.489   0.775   7.220 -0.1221  0.0541  0.8893
  216MOL0     C29050  12.608   0.838   7.229 -0.9312 -0.3069  0.1143
  216MOL0     C29051  12.670   0.909   7.124  0.4863  0.4080 -0.1140
  216MOL0     C29052  12.782   0.987   7.146 -0.0136 -0.8449 -0.3487
  216MOL0     C29053  12.850   0.991   7.265 -0.2480  1.0993 -0.0991
  216MOL0     C29054  12.977   1.077   7.274  0.6158  0.0237  0.4400
  216MOL0     O29055  13.034   1.135   7.170  0.6406  0.2235  0.2697
  216MOL0     C29056  13.158   1.183   7.173 -1.2365  0.5915  0.3353
  216MOL0     C29057  13.263   1.109   7.239 -0.1353  0.0707 -0.3576
  216MOL0     C29058  13.394   1.167   7.261  0.5729  0.2953  0.1109
  216MOL0     C29059  13.412   1.293   7.196 -0.0227  0.0933  0.1241
  216MOL0     O29060  13.530   1.361   7.203  0.1246  0.0686 -0.7527
  216MOL0     C29061  13.656   1.301   7.238  0.1925  0.5016  0.3896
  216MOL0     C29062  13.760   1.396   7.194 -0.4061  0.1197 -0.2624
  216MOL0     C29063  13.901   1.350   7.236  1.1508  0.5572  0.1812
  216MOL0     C29064  14.006   1.470   7.215 -0.3598  0.4099 -0.7074
  216MOL0     C29065  14.129   1.430   7.307 -0.5635 -0.8932  0.4551
  216MOL0     C29066  14.245   1.526   7.311  0.0973  0.2122 -0.1772
  216MOL0     C29067  14.381   1.464   7.335 -0.0075 -0.2847 -0.4232
  216MOL0     C29068  14.387   1.406   7.486 -0.5808  0.6094  0.1827
  216MOL0    Cl29069  14.470   1.257   7.497  0.5867 -0.0664 -0.2998
  216MOL0     C29070  13.317   1.351   7.120  0.2089  0.7234  0.3536
  216MOL0     C29071  13.185   1.306   7.114  0.2132  0.9933 -0.9296
  216MOL0     O29072  13.017   1.075   7.386  0.1399 -0.0198  0.4036
  216MOL0     C29073  12.793   0.914   7.371 -0.1141 -0.3531 -0.1920
  216MOL0     C29074  12.665   0.846   7.357 -0.3701  1.0323 -0.1585
  216MOL0     N29075  12.103   0.508   7.341  0.1641  0.2942  0.1819
  216MOL0     N29076  12.064   0.566   7.446  1.0015  0.4250 -0.1055
  216MOL0     C29077  11.295   1.035   8.045 -0.4511 -0.3969  0.2558
  216MOL0     C29078  11.160   1.060   8.082  0.4459  0.1071 -0.1074
  216MOL0     C29079  10.710   1.132   8.114 -0.1776 -0.5484  0.4666
  216MOL0     C29080  10.646   1.108   7.989 -0.2330  0.8549 -0.2585
  216MOL0     C29081  10.512   1.114   7.980  0.4288  0.2323  0.4260
  216MOL0     C29082  10.437   1.130   8.093 -0.2907 -0.5100  0.1894
  216MOL0     O29083  10.301   1.172   8.086 -0.0645  0.4875  0.4671
  216MOL0     C29084  10.228   1.152   7.964  0.4703  0.2640 -0.4506
  216MOL0     C29085  10.255   1.261   7.861  0.0670 -0.4384 -0.2773
  216MOL0     C29086  10.194   1.222   7.730  0.8057  0.0330 -0.1014
  216MOL0     C29087  10.253   1.301   7.609 -0.2184 -0.3118  0.4474
  216MOL0     C29088  10.165   1.308   7.492  0.3801  0.3117 -0.2260
  216MOL0     C29089  10.087   1.307   7.403 -0.1819 -0.5330 -0.2177
  216MOL0     C29090  10.496   1.159   8.211 -0.0510  1.1162 -0.7230
  216MOL0     C29091  10.627   1.174   8.219  0.6246  0.4450  0.2233
  216MOL0     C29092  10.681   1.212   8.352  0.3473  0.4220 -0.0151
  216MOL0     H29093  11.050   1.197   7.782 -0.4257 -0.1400 -0.0204
  216MOL0     H29094  11.272   1.154   7.728 -1.3663  2.7291  0.5814
  216MOL0     H29095  11.580   0.998   8.042  0.1553  2.8419 -0.6503
  216MOL0     H29096  11.517   0.861   7.935 -0.4444  0.7260 -2.5435
  216MOL0     H29097  11.724   1.071   7.921  1.9662 -0.9196  0.1408
  216MOL0     H29098  11.689   0.965   7.778  0.6593  1.2331 -0.4480
  216MOL0     H29099  11.777   0.778   7.852  3.7224 -0.4484 -1.1484
  216MOL0     H29100  11.790   0.820   8.019  4.1868 -0.4494  0.4405
  216MOL0     H29101  11.964   0.955   7.800  1.3129  0.5091 -0.4910
  216MOL0     H29102  11.958   1.007   7.970 -1.9963  0.2038  1.1834
  216MOL0     H29103  12.133   0.852   7.940  0.0470 -0.5472  1.6682
  216MOL0     H29104  12.015   0.800   8.059 -1.4530  1.9340 -0.6417
  216MOL0     H29105  12.103   0.620   7.939 -1.6945  1.3092  3.6223
  216MOL0     H29106  11.932   0.633   7.902  0.5283 -0.7518 -1.3262
  216MOL0     H29107  12.125   0.760   7.705  1.2241  0.0288  2.4105
  216MOL0     H29108  11.958   0.719   7.698  1.3926  1.0055 -1.6278
  216MOL0     H29109  12.203   0.528   7.742  1.3317 -0.4444 -1.6405
  216MOL0     H29110  12.033   0.470   7.724 -0.6632  1.5130  0.5653
  216MOL0     H29111  12.335   0.424   7.543 -0.1385  0.7761  0.1606
  216MOL0     H29112  12.384   0.308   7.312  1.1125 -0.9854 -2.2328
  216MOL0     H29113  12.280   0.356   7.168 -0.1508 -1.3816  1.0757
  216MOL0     H29114  12.473   0.542   7.312 -1.3184 -1.3170  1.3005
  216MOL0     H29115  12.514   0.444   7.167  0.2476  1.5872 -1.2872
  216MOL0     H29116  12.269   0.637   7.154 -0.0454  0.6239 -0.7008
  216MOL0     H29117  12.358   0.547   7.030 -0.5280  0.4702  0.0417
  216MOL0     H29118  12.396   0.794   7.034 -0.0097  1.2018  1.3447
  216MOL0     H29119  12.541   0.694   7.038 -0.3245  2.7836 -0.9081
  216MOL0     H29120  12.626   0.908   7.024 -1.7146 -0.3782  0.8029
  216MOL0     H29121  12.829   1.044   7.066  2.1661 -2.3778 -0.2420
  216MOL0     H29122  13.246   1.007   7.272  3.4530  0.0786  2.1621
  216MOL0     H29123  13.472   1.116   7.316  0.0811 -1.9688 -1.1982
  216MOL0     H29124  13.663   1.263   7.340  1.3214 -0.1787  0.0781
  216MOL0     H29125  13.664   1.207   7.183  1.5027  1.4294 -1.1094
  216MOL0     H29126  13.747   1.417   7.088  0.5814 -3.2011 -1.1684
  216MOL0     H29127  13.745   1.487   7.254  1.8333  0.4340 -0.1046
  216MOL0     H29128  13.899   1.319   7.341  0.9208 -0.2906 -0.0685
  216MOL0     H29129  13.914   1.260   7.175 -2.4095 -0.1040  0.2008
  216MOL0     H29130  13.962   1.563   7.251  2.4469  1.0715  1.3830
  216MOL0     H29131  14.044   1.485   7.113  0.2002 -1.7020 -0.8625
  216MOL0     H29132  14.176   1.335   7.280  0.5730 -0.7741  1.9037
  216MOL0     H29133  14.098   1.404   7.409  1.0994 -1.2215  0.9119
  216MOL0     H29134  14.247   1.579   7.215 -0.8949 -1.2230 -1.0459
  216MOL0     H29135  14.227   1.605   7.384  3.8090  0.2327  0.9059
  216MOL0     H29136  14.461   1.537   7.325  1.4969 -2.0034 -1.6856
  216MOL0     H29137  14.405   1.393   7.255  2.6103  1.1773 -1.0631
  216MOL0     H29138  14.444   1.460   7.562  0.5529 -1.6581  1.0498
  216MOL0     H29139  14.284   1.381   7.511 -0.2511  0.3219  1.2994
  216MOL0     H29140  13.348   1.450   7.087  2.7524  0.3107  1.2949
  216MOL0     H29141  13.103   1.355   7.063 -1.1808  0.1013  0.3636
  216MOL0     H29142  12.843   0.921   7.467  3.4725  0.2042 -1.9386
  216MOL0     H29143  12.633   0.795   7.447 -0.1324  0.3281 -0.4722
  216MOL0     H29144  11.370   1.003   8.117  0.5946  0.4388 -0.4299
  216MOL0     H29145  11.135   1.039   8.185  2.4971 -0.6127  0.3108
  216MOL0     H29146  10.693   1.076   7.897 -2.7056  0.0716 -1.3455
  216MOL0     H29147  10.465   1.085   7.887  2.0013  1.9294 -0.9675
  216MOL0     H29148  10.122   1.164   7.987  0.8249  0.4090  1.1756
  216MOL0     H29149  10.254   1.053   7.924  2.0765  0.9239 -1.1439
  216MOL0     H29150  10.361   1.285   7.852  0.6553 -1.7310  2.2151
  216MOL0     H29151  10.206   1.357   7.882  0.6809  0.5057 -2.8138
  216MOL0     H29152  10.087   1.235   7.744  0.5167 -0.8610 -1.2929
  216MOL0     H29153  10.204   1.116   7.705  0.2468  0.4851 -2.5273
  216MOL0     H29154  10.284   1.402   7.640  2.1741 -1.4577  2.0760
  216MOL0     H29155  10.352   1.258   7.590 -0.2170 -0.1044 -0.0300
  216MOL0     H29156  10.021   1.306   7.319  0.9014 -2.5000 -1.1169
  216MOL0     H29157  10.430   1.169   8.297  0.8011 -0.7179  0.2084
  216MOL0     H29158  10.606   1.251   8.422 -1.1862  1.5277 -2.1856
  216MOL0     H29159  10.717   1.122   8.403  2.7229  1.3837  0.1522
  216MOL0     H29160  10.767   1.281   8.355  0.6623  0.0188  0.7534
  217MOL0     O29161   4.596   5.222   4.284 -0.2145  0.2508 -0.1659
  217MOL0     C29162   4.524   5.322   4.264  0.3189  0.3721 -0.6366
  217MOL0     O29163   4.537   5.404   4.160 -0.2539 -0.9481  0.2724
  217MOL0     C29164   4.659   5.401   4.096  0.3272 -0.6054 -0.3079
  217MOL0     C29165   4.664   5.367   3.962  0.7809 -0.4443 -0.6149
  217MOL0     C29166   4.781   5.374   3.894  0.7755  0.2603  0.3268
  217MOL0     C29167   4.896   5.440   3.955 -0.2633  1.0454  0.4785
  217MOL0     O29168   5.010   5.463   3.886  0.4715  0.1086 -0.3884
  217MOL0     C29169   5.010   5.491   3.743 -0.3952 -0.7770 -0.4239
  217MOL0     C29170   5.142   5.560   3.700  0.3926 -0.8270  0.7007
  217MOL0     C29171   5.139   5.564   3.546 -0.8076  0.9822 -0.1635
  217MOL0     C29172   5.274   5.604   3.487  0.2734 -1.4641  0.2467
  217MOL0     C29173   5.261   5.608   3.334 -0.1649 -0.0101 -0.0414
  217MOL0     C29174   5.278   5.471   3.259 -0.5082 -0.7896  0.1853
  217MOL0     C29175   5.429   5.423   3.271 -1.3010  0.4142 -0.1769
  217MOL0     C29176   5.453   5.295   3.193 -0.8924  0.0772  0.6617
  217MOL0     N29177   5.599   5.268   3.169 -0.6471  0.5193 -0.4323
  217MOL0     C29178   5.647   5.243   3.049  1.1078 -0.8129  0.6725
  217MOL0     C29179   5.781   5.231   3.066  0.0417  0.2987  0.7260
  217MOL0     C29180   5.896   5.224   2.956 -0.3356 -0.3262  0.8105
  217MOL0     C29181   6.014   5.128   2.989 -0.1720  1.0459  0.8730
  217MOL0     C29182   5.959   4.984   2.966 -0.1405 -0.4787 -0.1650
  217MOL0     C29183   6.062   4.871   2.992 -1.2327 -0.6557 -0.4278
  217MOL0     O29184   6.188   4.879   2.917 -0.5489 -0.3712  0.2128
  217MOL0     C29185   6.291   4.804   2.970  0.3596 -0.0587  0.3977
  217MOL0     C29186   6.421   4.843   2.937 -0.4421  0.3494 -0.0064
  217MOL0     C29187   6.531   4.777   3.000 -0.0998  0.1329  0.6520
  217MOL0     C29188   6.505   4.668   3.092 -0.8116 -0.2337  0.0323
  217MOL0     C29189   6.626   4.621   3.165 -0.1286  1.0442  0.0516
  217MOL0     O29190   6.744   4.687   3.132 -0.0552 -0.6850 -0.0298
  217MOL0     C29191   6.863   4.634   3.164  0.2696  0.1150 -0.2353
  217MOL0     C29192   6.962   4.708   3.227 -0.3077 -0.0728 -0.0859
  217MOL0     C29193   7.084   4.652   3.262 -0.2794 -0.6601  0.2617
  217MOL0     C29194   7.108   4.517   3.235  0.0884  1.0768 -0.5035
  217MOL0     O29195   7.240   4.467   3.261  0.8920 -1.0112  0.0054
  217MOL0     C29196   7.289   4.336   3.232  0.8977  0.3545 -0.0268
  217MOL0     C29197   7.446   4.324   3.245 -1.0209 -0.4732 -0.8868
  217MOL0     C29198   7.510   4.186   3.238 -0.0027  0.5178 -0.4011
  217MOL0     C29199   7.667   4.175   3.274 -0.2605 -0.4866 -0.1513
  217MOL0     C29200   7.767   4.224   3.174 -0.4567  0.6479  0.1381
  217MOL0     C29201   7.915   4.224   3.226 -0.4968  0.1862  0.1731
  217MOL0     C29202   8.012   4.306   3.128  0.1795 -0.3071 -0.0364
  217MOL0     C29203   8.149   4.343   3.179 -0.3059 -0.1745 -0.7961
  217MOL0    Cl29204   8.283   4.328   3.053  0.7562 -0.2146 -0.1807
  217MOL0     C29205   7.008   4.439   3.162 -0.2929  0.1106  0.2842
  217MOL0     C29206   6.887   4.499   3.128 -0.2038 -0.4097  0.6186
  217MOL0     O29207   6.612   4.523   3.247 -0.3385  0.0647 -0.4216
  217MOL0     C29208   6.379   4.614   3.100 -1.0466 -0.5666 -0.0464
  217MOL0     C29209   6.272   4.687   3.044 -0.3823 -0.4151 -0.3865
  217MOL0     N29210   5.810   5.245   3.200 -0.6087 -0.3354 -0.8657
  217MOL0     N29211   5.696   5.271   3.262  0.5405  0.0798 -0.0740
  217MOL0     C29212   4.887   5.472   4.094  0.6155  0.3309  0.0568
  217MOL0     C29213   4.768   5.449   4.161  0.0846  1.1108 -0.5467
  217MOL0     C29214   4.406   5.344   4.353 -0.1344  0.3530 -0.8790
  217MOL0     C29215   4.422   5.318   4.500 -0.4250 -0.8827  0.6270
  217MOL0     C29216   4.322   5.332   4.587  0.6361  0.3127 -0.1531
  217MOL0     C29217   4.198   5.376   4.542  0.7899  0.6685 -0.3721
  217MOL0     O29218   4.081   5.382   4.620 -0.4539  0.4371 -0.6963
  217MOL0     C29219   4.091   5.330   4.750  0.1603  0.5484 -0.1511
  217MOL0     C29220   3.956   5.342   4.821  0.4221  0.8852 -0.0759
  217MOL0     C29221   3.842   5.295   4.722 -0.2003 -0.4512  0.0177
  217MOL0     C29222   3.716   5.278   4.799  0.2493 -0.3145 -0.3848
  217MOL0     C29223   3.596   5.293   4.714 -0.2765  0.7113 -0.4255
  217MOL0     C29224   3.488   5.289   4.653  0.5225  0.6390 -0.0193
  217MOL0     C29225   4.176   5.406   4.408 -0.2295 -0.4340  0.8032
  217MOL0     C29226   4.279   5.386   4.307  0.1466  0.1109 -0.0906
  217MOL0     C29227   4.244   5.409   4.158  0.4245  0.2421 -0.3297
  217MOL0     H29228   4.570   5.328   3.924 -0.2576 -1.6059  2.7865
  217MOL0     H29229   4.781   5.337   3.792  1.9928 -1.4582  0.9015
  217MOL0     H29230   5.003   5.399   3.684  2.7991 -2.2993  1.3154
  217MOL0     H29231   4.930   5.560   3.715 -0.8540 -1.9480 -2.1786
  217MOL0     H29232   5.225   5.501   3.740  1.5849 -0.2990 -0.8905
  217MOL0     H29233   5.159   5.663   3.732 -1.0871  0.4344 -2.1885
  217MOL0     H29234   5.056   5.629   3.518 -2.6409 -0.6767  1.1508
  217MOL0     H29235   5.115   5.467   3.502 -0.7437  0.5580  0.7146
  217MOL0     H29236   5.308   5.703   3.519 -1.5806 -1.0022  0.9177
  217MOL0     H29237   5.349   5.538   3.531  3.3378  0.8346 -1.1014
  217MOL0     H29238   5.159   5.643   3.317 -0.4671 -1.4091 -1.4162
  217MOL0     H29239   5.336   5.674   3.290  1.5839 -1.9298 -0.1604
  217MOL0     H29240   5.210   5.394   3.296 -1.7017 -0.5052 -1.3232
  217MOL0     H29241   5.255   5.492   3.154  0.5411  1.8869  0.4114
  217MOL0     H29242   5.451   5.395   3.375  1.3668 -0.1858 -0.8178
  217MOL0     H29243   5.504   5.495   3.238  0.3159 -1.2582 -0.3243
  217MOL0     H29244   5.409   5.211   3.248  1.1073 -0.4959  1.5065
  217MOL0     H29245   5.406   5.303   3.095  3.2362  0.4308 -1.5346
  217MOL0     H29246   5.601   5.249   2.951  1.5010 -0.0543  0.5266
  217MOL0     H29247   5.851   5.195   2.860  0.4945  2.7528 -0.6241
  217MOL0     H29248   5.934   5.325   2.939  0.2981 -0.7938 -0.7693
  217MOL0     H29249   6.105   5.141   2.929 -0.3136  1.9771  0.8556
  217MOL0     H29250   6.040   5.134   3.095 -0.0360 -0.4514  0.9469
  217MOL0     H29251   5.920   4.968   2.865 -3.4119 -0.0052  0.9197
  217MOL0     H29252   5.870   4.961   3.026  0.0231  1.3239  0.8232
  217MOL0     H29253   6.012   4.776   2.970 -0.3428 -1.3659  0.5287
  217MOL0     H29254   6.085   4.883   3.098  2.1926  2.4058 -1.3201
  217MOL0     H29255   6.446   4.923   2.868 -0.9852 -0.9379 -1.7635
  217MOL0     H29256   6.628   4.818   2.976 -0.4592  1.0141  0.6458
  217MOL0     H29257   6.948   4.813   3.253  4.1794  1.0539 -1.2313
  217MOL0     H29258   7.163   4.703   3.317  0.4000 -2.3501  0.8985
  217MOL0     H29259   7.240   4.274   3.307  0.7931  1.6694  1.0239
  217MOL0     H29260   7.261   4.312   3.129 -0.2015  4.7301 -0.9738
  217MOL0     H29261   7.496   4.376   3.163  2.5120 -2.2546 -0.0242
  217MOL0     H29262   7.468   4.366   3.343 -0.0876 -3.9059  0.5306
  217MOL0     H29263   7.455   4.125   3.310 -1.6650 -1.5087 -3.1925
  217MOL0     H29264   7.505   4.132   3.143 -1.6318 -1.9766  1.0052
  217MOL0     H29265   7.690   4.074   3.310 -1.2719  0.5243  3.8663
  217MOL0     H29266   7.676   4.243   3.359 -1.4747  1.5437 -1.5551
  217MOL0     H29267   7.742   4.327   3.147  0.8823  0.2307 -3.3286
  217MOL0     H29268   7.756   4.169   3.080 -1.3279  2.8325 -1.1111
  217MOL0     H29269   7.927   4.270   3.325 -1.0499 -1.7559  1.1888
  217MOL0     H29270   7.942   4.119   3.240 -1.3733 -0.0630  0.0722
  217MOL0     H29271   7.962   4.395   3.088  2.8450  1.3375 -0.0255
  217MOL0     H29272   8.017   4.243   3.039 -1.9082 -0.6847  0.0682
  217MOL0     H29273   8.136   4.441   3.227  2.3719  0.2990 -0.9040
  217MOL0     H29274   8.170   4.280   3.266  0.9960  0.8889 -0.2965
  217MOL0     H29275   7.028   4.335   3.141  0.4670  0.1346  0.8436
  217MOL0     H29276   6.807   4.450   3.072 -2.7327  4.1100 -0.2208
  217MOL0     H29277   6.350   4.541   3.175  0.3837 -0.9341  0.1850
  217MOL0     H29278   6.172   4.646   3.059 -0.8619  0.2503 -1.6263
  217MOL0     H29279   4.971   5.523   4.141  0.8136  0.0163  0.0467
  217MOL0     H29280   4.766   5.468   4.267  0.9415  4.7037 -1.0487
  217MOL0     H29281   4.523   5.297   4.533 -0.9422  0.6945  3.5523
  217MOL0     H29282   4.348   5.316   4.691 -0.0403  1.9580  0.3022
  217MOL0     H29283   4.166   5.380   4.813 -0.5328 -0.7941  1.8154
  217MOL0     H29284   4.120   5.225   4.751 -1.9314 -0.0779  0.7920
  217MOL0     H29285   3.935   5.443   4.857  1.0101  1.6144 -1.7186
  217MOL0     H29286   3.960   5.277   4.909  3.3063  0.6435 -0.3191
  217MOL0     H29287   3.863   5.197   4.679  3.0016 -1.0939  2.7105
  217MOL0     H29288   3.833   5.369   4.642  2.1581 -0.5513 -0.3838
  217MOL0     H29289   3.718   5.182   4.852 -0.7530  0.7673  1.7282
  217MOL0     H29290   3.709   5.357   4.874  1.4479 -0.9417  0.4290
  217MOL0     H29291   3.401   5.293   4.590  0.9748  1.5937 -0.6146
  217MOL0     H29292   4.078   5.437   4.373  0.6704  0.4873 -1.0562
  217MOL0     H29293   4.309   5.473   4.099  0.2470 -0.1127 -0.9228
  217MOL0     H29294   4.249   5.311   4.109  2.7950 -0.1112  0.4867
  217MOL0     H29295   4.144   5.454   4.155  0.8586  1.7188  2.9527
  218MOL0     O29296   6.063   3.598   4.445  0.8394 -0.5195 -0.1447
  218MOL0     C29297   6.131   3.633   4.539 -0.0703 -0.7658 -0.5441
  218MOL0     O29298   6.081   3.639   4.667  0.0230 -0.4977 -0.1316
  218MOL0     C29299   5.959   3.588   4.702  0.3700  0.3006 -0.2092
  218MOL0     C29300   5.859   3.677   4.734  0.8392 -0.3545  0.2380
  218MOL0     C29301   5.731   3.639   4.774 -0.1421 -0.1965 -1.1705
  218MOL0     C29302   5.694   3.504   4.769  0.7829 -0.1268  0.1864
  218MOL0     O29303   5.570   3.463   4.822 -0.2744 -0.3857 -0.3083
  218MOL0     C29304   5.494   3.378   4.730  0.4006 -0.3904 -0.6628
  218MOL0     C29305   5.358   3.364   4.802  0.1839  0.0227 -0.3638
  218MOL0     C29306   5.275   3.251   4.731  0.0885 -0.4540 -0.3869
  218MOL0     C29307   5.209   3.285   4.595 -0.7071  0.1672  0.2005
  218MOL0     C29308   5.118   3.177   4.538  1.0072 -0.0866  0.5336
  218MOL0     C29309   5.183   3.046   4.509 -0.4219  0.2416 -0.6546
  218MOL0     C29310   5.289   3.068   4.403  0.5962 -0.7754 -0.6736
  218MOL0     C29311   5.360   2.934   4.376  1.0739 -0.0785 -0.2103
  218MOL0     N29312   5.458   2.950   4.276 -0.0104 -0.0261  0.5078
  218MOL0     C29313   5.591   2.941   4.288  0.0690  0.3247 -0.2308
  218MOL0     C29314   5.648   2.968   4.172 -0.2551 -0.6620  0.3695
  218MOL0     C29315   5.784   2.940   4.146 -0.8484 -0.1093  0.5069
  218MOL0     C29316   5.840   3.036   4.036  0.6285  0.0933 -0.4341
  218MOL0     C29317   5.991   3.010   4.015 -0.0017  0.6324  0.6306
  218MOL0     C29318   6.021   2.865   3.955  0.1651 -0.0505 -0.7221
  218MOL0     O29319   6.160   2.863   3.931 -0.6267 -0.0327  0.2109
  218MOL0     C29320   6.231   2.781   4.022  0.5883 -0.2008 -0.5429
  218MOL0     C29321   6.358   2.742   3.980 -0.1680 -0.2924 -0.8404
  218MOL0     C29322   6.444   2.671   4.064 -0.4554 -0.0627 -0.1187
  218MOL0     C29323   6.403   2.635   4.190 -0.6882  0.7962 -0.7202
  218MOL0     C29324   6.497   2.560   4.278 -0.7039  0.0702  0.3513
  218MOL0     O29325   6.485   2.574   4.409 -0.5473 -0.3956 -0.3932
  218MOL0     C29326   6.554   2.486   4.485 -0.6553  0.1309  0.3210
  218MOL0     C29327   6.695   2.503   4.489  0.4722 -0.0931 -0.1428
  218MOL0     C29328   6.771   2.416   4.569  0.3445  0.3655  0.2543
  218MOL0     C29329   6.713   2.316   4.651 -0.0714  0.8462  0.2362
  218MOL0     O29330   6.800   2.226   4.703  0.4498 -0.1451 -0.7542
  218MOL0     C29331   6.773   2.195   4.843  0.3107  0.6851 -0.2842
  218MOL0     C29332   6.894   2.126   4.898  0.2645 -0.5510 -0.4432
  218MOL0     C29333   6.867   2.065   5.040  0.1016 -0.5495  0.0186
  218MOL0     C29334   6.791   1.930   5.022 -0.6849 -0.0775  0.5974
  218MOL0     C29335   6.804   1.820   5.133  0.2931  0.1482  0.1109
  218MOL0     C29336   6.727   1.866   5.255 -0.1274  0.1208  0.3740
  218MOL0     C29337   6.733   1.770   5.380  0.2198 -0.7790  0.5998
  218MOL0     C29338   6.710   1.849   5.500 -0.9054  0.1329 -0.6631
  218MOL0    Cl29339   6.739   1.731   5.643  0.3702 -0.3436 -1.0066
  218MOL0     C29340   6.572   2.304   4.643 -0.4312  0.1709 -0.0130
  218MOL0     C29341   6.488   2.395   4.568 -0.6871  0.6476  0.3484
  218MOL0     O29342   6.576   2.482   4.217 -0.0969  0.6766 -0.0720
  218MOL0     C29343   6.276   2.675   4.240  0.0922 -0.7445  0.5689
  218MOL0     C29344   6.188   2.752   4.155 -1.1313 -0.0683 -1.0947
  218MOL0     N29345   5.541   2.993   4.085  0.2352 -0.2230 -1.0204
  218MOL0     N29346   5.426   2.986   4.149  0.6996 -0.0517  0.0243
  218MOL0     C29347   5.795   3.412   4.724  0.2915 -0.6156  0.3214
  218MOL0     C29348   5.930   3.451   4.701 -0.3575  0.4226 -0.3129
  218MOL0     C29349   6.265   3.674   4.515  0.3619 -0.6772 -0.2144
  218MOL0     C29350   6.352   3.670   4.634  0.3196  0.3275  0.0801
  218MOL0     C29351   6.481   3.721   4.627 -0.1981 -0.1602  0.0798
  218MOL0     C29352   6.529   3.779   4.512  0.1374  0.4744  0.1253
  218MOL0     O29353   6.651   3.839   4.511 -0.2737  0.3906  0.2741
  218MOL0     C29354   6.680   3.946   4.424 -0.5540 -0.3511 -0.3956
  218MOL0     C29355   6.788   4.044   4.471 -0.2793 -0.1340  0.2754
  218MOL0     C29356   6.744   4.139   4.579  0.2137  0.5196 -0.1065
  218MOL0     C29357   6.848   4.171   4.690  0.0651  0.0514  0.6733
  218MOL0     C29358   6.967   4.250   4.655 -0.5419  0.2686 -0.2881
  218MOL0     C29359   7.059   4.317   4.616  1.3445 -0.8917  0.7605
  218MOL0     C29360   6.451   3.779   4.399  0.0223  0.4406  0.3507
  218MOL0     C29361   6.319   3.726   4.401  0.9813 -0.5773  0.0698
  218MOL0     C29362   6.236   3.759   4.276  0.3300  0.6548  0.0337
  218MOL0     H29363   5.885   3.782   4.746 -2.1525  0.7061 -1.5770
  218MOL0     H29364   5.663   3.713   4.815 -0.5030 -1.1328 -0.0313
  218MOL0     H29365   5.469   3.438   4.642 -1.5445 -0.8246 -0.4471
  218MOL0     H29366   5.543   3.284   4.703  0.4495 -0.8542  0.9308
  218MOL0     H29367   5.292   3.452   4.799 -0.4317 -0.4582 -1.2222
  218MOL0     H29368   5.362   3.342   4.909  0.8351  1.4599 -0.0682
  218MOL0     H29369   5.203   3.213   4.804 -1.5376 -0.4597 -1.9293
  218MOL0     H29370   5.352   3.174   4.716  2.2548  2.1811 -4.8321
  218MOL0     H29371   5.142   3.368   4.621 -5.1731 -3.9451  3.5451
  218MOL0     H29372   5.273   3.328   4.518 -3.2333  0.3432 -1.9275
  218MOL0     H29373   5.050   3.153   4.620  0.2294  0.3548  0.0323
  218MOL0     H29374   5.059   3.210   4.451  0.6267  0.9810  1.1804
  218MOL0     H29375   5.238   3.005   4.594  1.4635 -1.0194 -2.3732
  218MOL0     H29376   5.110   2.973   4.473  0.1442 -1.7968  1.9903
  218MOL0     H29377   5.361   3.140   4.442 -1.4112  1.1499 -0.2894
  218MOL0     H29378   5.247   3.110   4.311  5.2387  2.9884 -1.4449
  218MOL0     H29379   5.401   2.894   4.469 -0.3830  0.4366  0.6848
  218MOL0     H29380   5.285   2.865   4.337 -0.0146  1.7215 -1.4685
  218MOL0     H29381   5.639   2.924   4.384 -1.9075 -0.7657  0.6154
  218MOL0     H29382   5.847   2.950   4.235 -1.5760  0.1209  1.0124
  218MOL0     H29383   5.785   2.837   4.109 -2.0381 -0.0712  0.3317
  218MOL0     H29384   5.793   3.011   3.940 -0.6503  0.0430  0.1932
  218MOL0     H29385   5.825   3.136   4.078 -3.8551 -0.4146 -0.3393
  218MOL0     H29386   6.041   3.035   4.109 -0.7844 -0.0840  1.2578
  218MOL0     H29387   6.033   3.084   3.946 -0.7944 -0.5345 -1.1744
  218MOL0     H29388   5.975   2.862   3.856  0.1897  2.2579 -0.8407
  218MOL0     H29389   5.978   2.781   4.011 -1.9994 -0.4684 -2.8638
  218MOL0     H29390   6.399   2.774   3.885  1.4231  1.3000  0.3142
  218MOL0     H29391   6.540   2.649   4.019  0.6208  1.9289  1.0363
  218MOL0     H29392   6.741   2.589   4.441 -0.1401 -0.0481 -0.6610
  218MOL0     H29393   6.879   2.429   4.574  0.4091  0.2160 -0.5875
  218MOL0     H29394   6.748   2.288   4.895  2.3773 -0.4833  3.1477
  218MOL0     H29395   6.690   2.126   4.855  0.6979  0.0722 -1.0653
  218MOL0     H29396   6.931   2.048   4.830 -1.1186 -1.6548  0.0257
  218MOL0     H29397   6.977   2.196   4.910 -2.1692  2.2884  1.0139
  218MOL0     H29398   6.961   2.042   5.091 -0.5397  0.8130  1.9381
  218MOL0     H29399   6.823   2.137   5.109 -0.3383 -1.9433  1.2246
  218MOL0     H29400   6.823   1.882   4.929  1.2303  2.4892 -0.1953
  218MOL0     H29401   6.684   1.944   5.010 -0.6199  0.4518  0.6275
  218MOL0     H29402   6.911   1.798   5.146  1.1555  2.5817 -1.9892
  218MOL0     H29403   6.761   1.727   5.096  3.3096 -1.2728 -0.1051
  218MOL0     H29404   6.762   1.965   5.287  2.0448 -0.1374 -0.9670
  218MOL0     H29405   6.627   1.885   5.214  2.0872 -0.8121 -6.8652
  218MOL0     H29406   6.832   1.724   5.375  0.8003  0.6026 -2.8522
  218MOL0     H29407   6.650   1.697   5.378  0.8953 -1.6357  2.0403
  218MOL0     H29408   6.769   1.940   5.516  0.2767 -0.5664 -0.9336
  218MOL0     H29409   6.604   1.878   5.496 -1.1593 -0.6531 -0.0243
  218MOL0     H29410   6.537   2.235   4.718  0.5998  1.4107  1.6800
  218MOL0     H29411   6.381   2.398   4.585 -0.2955  2.3418  3.1542
  218MOL0     H29412   6.233   2.657   4.338 -2.2059 -0.7538 -0.3729
  218MOL0     H29413   6.103   2.794   4.209 -0.5275 -2.6725  2.2241
  218MOL0     H29414   5.764   3.308   4.735  0.5019 -0.5642  1.5532
  218MOL0     H29415   5.993   3.370   4.666 -0.7829 -2.2363  4.3202
  218MOL0     H29416   6.320   3.618   4.724  2.5339  1.0897  1.3683
  218MOL0     H29417   6.551   3.715   4.710  1.2235  1.8861 -0.8815
  218MOL0     H29418   6.587   3.996   4.395 -2.7198 -3.6704  0.2631
  218MOL0     H29419   6.716   3.892   4.336  0.7920 -4.3428  2.3458
  218MOL0     H29420   6.810   4.103   4.382  0.2526  0.2173  0.6400
  218MOL0     H29421   6.876   3.985   4.497  1.4516  2.1275 -0.2199
  218MOL0     H29422   6.658   4.091   4.627  0.3224 -0.1043 -0.5329
  218MOL0     H29423   6.714   4.232   4.529  0.7135  2.2898  2.6658
  218MOL0     H29424   6.801   4.224   4.774  1.0399  1.3135  0.4501
  218MOL0     H29425   6.896   4.078   4.720  2.6059  1.2328  0.5495
  218MOL0     H29426   7.137   4.363   4.558  0.7019  1.3699  1.6110
  218MOL0     H29427   6.498   3.823   4.312  0.0332 -0.1042  0.0734
  218MOL0     H29428   6.170   3.844   4.296 -1.6837 -0.7995 -0.2354
  218MOL0     H29429   6.288   3.798   4.188  2.2835  1.1454  1.3265
  218MOL0     H29430   6.180   3.674   4.237  1.4650  1.4734 -3.8249
  219MOL0     O29431   2.967   9.137   5.045  0.4090 -0.0695  0.4344
  219MOL0     C29432   2.901   9.132   5.143  0.0162  1.0303 -0.0546
  219MOL0     O29433   2.945   9.104   5.266  0.2533  0.1018  0.1234
  219MOL0     C29434   3.083   9.097   5.284  1.2587  0.7734  0.4914
  219MOL0     C29435   3.140   8.974   5.314 -0.9730 -0.1263  0.2039
  219MOL0     C29436   3.285   8.964   5.347 -0.8434 -0.7416  0.4883
  219MOL0     C29437   3.365   9.084   5.339 -0.2742  0.2363 -0.1107
  219MOL0     O29438   3.501   9.094   5.368 -0.3147  0.1309  0.7897
  219MOL0     C29439   3.569   8.972   5.389  0.0408  0.6021 -0.2318
  219MOL0     C29440   3.550   8.925   5.536 -0.3736  1.0143  0.1357
  219MOL0     C29441   3.629   8.797   5.559 -0.1682  0.3005 -0.0425
  219MOL0     C29442   3.571   8.664   5.493 -0.3135 -0.4743  0.0690
  219MOL0     C29443   3.671   8.560   5.512 -0.6894  0.9368 -0.0703
  219MOL0     C29444   3.805   8.560   5.422 -0.1541 -0.3253 -0.3016
  219MOL0     C29445   3.891   8.430   5.431  0.5795  0.5872 -0.0949
  219MOL0     C29446   4.041   8.441   5.392  0.4505  0.5010 -0.0315
  219MOL0     N29447   4.117   8.313   5.411 -0.1337 -0.2126 -0.1695
  219MOL0     C29448   4.224   8.267   5.339 -0.0920  0.2139  0.0185
  219MOL0     C29449   4.235   8.138   5.376  0.6582 -1.0563  0.8488
  219MOL0     C29450   4.349   8.045   5.334  1.5288 -0.3592 -0.3868
  219MOL0     C29451   4.479   8.092   5.402 -0.5312  0.2377  1.0341
  219MOL0     C29452   4.459   8.118   5.552 -0.2605 -0.6679  0.0173
  219MOL0     C29453   4.596   8.123   5.622 -0.7803 -0.1755  0.1696
  219MOL0     O29454   4.671   8.243   5.597 -0.2081 -0.6474 -0.4472
  219MOL0     C29455   4.797   8.256   5.657  0.3428 -0.0053 -0.2616
  219MOL0     C29456   4.881   8.362   5.619  0.5855  0.0269 -0.4145
  219MOL0     C29457   5.001   8.377   5.691  0.2761 -0.0648 -0.2165
  219MOL0     C29458   5.058   8.273   5.770  1.3150  0.5601 -1.1362
  219MOL0     C29459   5.189   8.284   5.830  0.0009  0.5007  0.6316
  219MOL0     O29460   5.271   8.375   5.777 -0.5840  0.0049 -0.2644
  219MOL0     C29461   5.405   8.363   5.779  0.1037  0.2466 -0.1229
  219MOL0     C29462   5.480   8.397   5.896 -0.2486 -0.3816  0.5013
  219MOL0     C29463   5.620   8.387   5.887 -0.6062  0.2814 -1.5781
  219MOL0     C29464   5.692   8.347   5.777  0.3942  0.5279  0.5041
  219MOL0     O29465   5.824   8.345   5.792 -0.0587  0.0746 -0.8933
  219MOL0     C29466   5.905   8.259   5.715 -0.2347  0.4454  0.2971
  219MOL0     C29467   6.048   8.283   5.755  1.2022 -1.0021 -0.0721
  219MOL0     C29468   6.099   8.429   5.724  0.3734 -0.2105 -0.0485
  219MOL0     C29469   6.088   8.460   5.572  0.2064 -0.2359 -0.7805
  219MOL0     C29470   6.190   8.559   5.513  0.2549 -0.3231  0.3771
  219MOL0     C29471   6.189   8.551   5.360 -0.2069 -0.0750  1.1474
  219MOL0     C29472   6.246   8.671   5.277 -0.4342 -0.0329 -0.2333
  219MOL0     C29473   6.260   8.644   5.131  0.2882  0.5647  0.1480
  219MOL0    Cl29474   6.102   8.582   5.059 -0.7662 -0.1666 -0.1766
  219MOL0     C29475   5.617   8.318   5.661 -0.4159 -0.1411 -0.7847
  219MOL0     C29476   5.473   8.318   5.668 -0.3211 -0.0431  0.2680
  219MOL0     O29477   5.209   8.212   5.924  0.7515  0.5400 -0.1536
  219MOL0     C29478   4.972   8.160   5.792 -0.2532  0.6747 -0.9152
  219MOL0     C29479   4.846   8.153   5.739 -0.5876 -0.4731  0.6712
  219MOL0     N29480   4.138   8.104   5.458  0.4352  0.4900  0.2440
  219MOL0     N29481   4.061   8.208   5.474  0.7485  0.5360  0.1023
  219MOL0     C29482   3.308   9.204   5.296  0.8798 -0.1315 -0.6510
  219MOL0     C29483   3.171   9.215   5.270 -0.0987  1.1004  0.4239
  219MOL0     C29484   2.753   9.153   5.153 -0.6240  0.1771  0.8953
  219MOL0     C29485   2.678   9.062   5.226  0.3498 -0.1862  0.0853
  219MOL0     C29486   2.536   9.073   5.233 -0.2388  0.5427  1.0266
  219MOL0     C29487   2.482   9.163   5.147 -0.0939 -1.4704  0.0154
  219MOL0     O29488   2.348   9.190   5.141  0.5440 -0.1507  0.3437
  219MOL0     C29489   2.260   9.067   5.148  0.6145  1.2832 -0.2519
  219MOL0     C29490   2.119   9.104   5.092 -0.5512  0.6824 -0.1840
  219MOL0     C29491   2.050   9.204   5.186 -0.4559 -0.0857 -0.4787
  219MOL0     C29492   1.918   9.241   5.121  0.6670  0.7803 -0.5950
  219MOL0     C29493   1.939   9.333   5.002  0.4688 -0.3110 -0.3251
  219MOL0     C29494   1.943   9.418   4.916  0.1501 -0.2483  0.4658
  219MOL0     C29495   2.553   9.255   5.063 -0.4061 -0.5804 -0.8979
  219MOL0     C29496   2.692   9.249   5.068  0.3781 -1.3857 -1.0018
  219MOL0     C29497   2.755   9.357   4.992 -0.8913  0.0672  0.7757
  219MOL0     H29498   3.083   8.882   5.322 -1.6575  0.2776  0.0302
  219MOL0     H29499   3.327   8.875   5.392  0.6170  0.8926  2.5971
  219MOL0     H29500   3.536   8.900   5.313  1.1881  0.1357 -0.3040
  219MOL0     H29501   3.678   8.981   5.388  0.3246  0.5580  5.1496
  219MOL0     H29502   3.448   8.906   5.571  0.2107  1.0727  1.9704
  219MOL0     H29503   3.590   8.995   5.610 -1.9066  1.8032  0.2589
  219MOL0     H29504   3.639   8.782   5.667 -0.4371  4.0679  0.6160
  219MOL0     H29505   3.732   8.818   5.528  0.4329  0.4725  1.8998
  219MOL0     H29506   3.467   8.649   5.525 -0.3125  0.7794  0.7468
  219MOL0     H29507   3.556   8.674   5.385 -0.0172  0.8378  0.1260
  219MOL0     H29508   3.699   8.543   5.617 -1.1207 -2.5667 -0.3854
  219MOL0     H29509   3.620   8.465   5.496  0.1418  0.7339 -1.6973
  219MOL0     H29510   3.766   8.570   5.321 -1.6144  3.7665  0.4696
  219MOL0     H29511   3.869   8.645   5.448  0.7088 -1.0921  0.1121
  219MOL0     H29512   3.833   8.357   5.375  0.1861  0.9315 -0.1423
  219MOL0     H29513   3.877   8.397   5.535 -1.1940  1.5987  0.0281
  219MOL0     H29514   4.055   8.467   5.287  0.1162 -0.2422 -0.2641
  219MOL0     H29515   4.075   8.516   5.464 -0.2742 -0.2261  1.0922
  219MOL0     H29516   4.291   8.329   5.279  0.9106 -2.0843 -1.3799
  219MOL0     H29517   4.318   7.943   5.359  0.7290  0.0543  0.3716
  219MOL0     H29518   4.368   8.040   5.227  0.6821  0.8079 -0.6068
  219MOL0     H29519   4.554   8.014   5.384 -0.5543  1.0589 -3.7001
  219MOL0     H29520   4.506   8.190   5.362 -0.9512  0.5720  1.5509
  219MOL0     H29521   4.401   8.034   5.592  0.6106 -0.6850  1.3115
  219MOL0     H29522   4.394   8.205   5.564  1.3853  0.8607 -1.5466
  219MOL0     H29523   4.657   8.037   5.595  2.6702  2.3429 -0.7076
  219MOL0     H29524   4.579   8.126   5.730  1.5600  1.9856  0.5667
  219MOL0     H29525   4.835   8.436   5.555  1.3402  2.2275  1.4535
  219MOL0     H29526   5.060   8.468   5.684  1.2002 -0.5774  0.6679
  219MOL0     H29527   5.423   8.427   5.983 -2.4348 -1.6028 -0.4462
  219MOL0     H29528   5.676   8.397   5.979 -0.1590 -1.0104 -1.6920
  219MOL0     H29529   5.881   8.154   5.737  1.0887 -0.1452 -0.8983
  219MOL0     H29530   5.889   8.279   5.609  0.8644 -0.9691 -0.1696
  219MOL0     H29531   6.060   8.261   5.862 -1.8161 -0.1026  0.5620
  219MOL0     H29532   6.104   8.212   5.694  0.9922  0.2778 -1.8196
  219MOL0     H29533   6.040   8.505   5.776 -1.1163 -2.1976  1.3109
  219MOL0     H29534   6.205   8.432   5.750  0.0118  0.4778  1.3925
  219MOL0     H29535   5.986   8.494   5.551 -0.0824  0.0597  0.9652
  219MOL0     H29536   6.098   8.363   5.523  1.0325 -0.2299 -0.6400
  219MOL0     H29537   6.294   8.533   5.539 -0.0569 -1.3262  0.6676
  219MOL0     H29538   6.167   8.660   5.546  0.7433 -0.8549  2.5033
  219MOL0     H29539   6.247   8.462   5.335 -0.6966 -0.1223  0.1355
  219MOL0     H29540   6.084   8.545   5.330 -0.2589  0.6256  1.1573
  219MOL0     H29541   6.342   8.699   5.322 -1.5225  1.3315  1.3155
  219MOL0     H29542   6.180   8.758   5.284 -0.7238 -0.2612 -0.0867
  219MOL0     H29543   6.303   8.732   5.081  0.6662  0.8315  0.9249
  219MOL0     H29544   6.332   8.563   5.122  0.1617  0.5438 -0.7542
  219MOL0     H29545   5.664   8.272   5.575  1.6082 -0.0276  0.2069
  219MOL0     H29546   5.426   8.283   5.576 -0.7533  0.7193  0.1919
  219MOL0     H29547   5.005   8.082   5.859 -0.9048  1.5382  0.4645
  219MOL0     H29548   4.791   8.061   5.755 -1.9404  0.1526 -0.1617
  219MOL0     H29549   3.377   9.287   5.284  0.7661  0.6737  3.1963
  219MOL0     H29550   3.125   9.311   5.250 -0.6908  0.9362  0.9824
  219MOL0     H29551   2.733   8.991   5.287  0.5390  1.8133  2.3919
  219MOL0     H29552   2.475   9.016   5.302 -1.2516  1.2994  0.7758
  219MOL0     H29553   2.257   9.032   5.252 -0.9122  2.5568  0.1715
  219MOL0     H29554   2.293   8.984   5.085 -1.7570  0.5307 -0.6080
  219MOL0     H29555   2.062   9.012   5.104  1.0767 -0.4230 -0.5531
  219MOL0     H29556   2.123   9.129   4.985 -2.3472  1.2126 -0.1654
  219MOL0     H29557   2.106   9.296   5.205 -0.7233 -0.2241  1.0931
  219MOL0     H29558   2.020   9.138   5.268 -1.5256 -1.2786 -1.7712
  219MOL0     H29559   1.855   9.154   5.101  0.6962  0.1815  1.6655
  219MOL0     H29560   1.862   9.294   5.199  2.0942  0.6350  0.5678
  219MOL0     H29561   1.958   9.504   4.853  0.4727 -1.7716 -1.6450
  219MOL0     H29562   2.512   9.327   4.994  2.8143 -0.6898 -3.1608
  219MOL0     H29563   2.816   9.418   5.060 -0.1736  2.1752 -1.5960
  219MOL0     H29564   2.813   9.304   4.916 -1.7187 -1.6420  1.2931
  219MOL0     H29565   2.691   9.424   4.934 -0.9018 -0.8050 -0.2438
  220MOL0     O29566  11.347   4.020   4.562  0.1151 -0.5134 -0.6326
  220MOL0     C29567  11.335   4.048   4.681 -0.6299  0.0814  0.0552
  220MOL0     O29568  11.436   4.109   4.753 -0.1321  0.3898 -0.1740
  220MOL0     C29569  11.566   4.126   4.706 -0.4781 -0.1980  0.4675
  220MOL0     C29570  11.636   4.242   4.738  0.3429 -0.3901 -0.6018
  220MOL0     C29571  11.762   4.279   4.694 -0.4166  0.8142 -0.2140
  220MOL0     C29572  11.829   4.190   4.610  0.0008 -0.2652  0.0833
  220MOL0     O29573  11.948   4.218   4.539 -0.7919  0.0508  0.0172
  220MOL0     C29574  11.982   4.356   4.513 -0.5931  0.3168  0.0874
  220MOL0     C29575  12.097   4.361   4.416  1.2498 -0.5895  0.0286
  220MOL0     C29576  12.108   4.505   4.360 -1.1749  0.5633  0.0607
  220MOL0     C29577  12.210   4.519   4.250 -0.6180  0.6712  0.6001
  220MOL0     C29578  12.353   4.525   4.302 -0.0642  0.9737 -0.1487
  220MOL0     C29579  12.446   4.520   4.176 -0.1069 -0.5784  0.5533
  220MOL0     C29580  12.586   4.552   4.227  0.1898  0.7164 -0.1496
  220MOL0     C29581  12.665   4.582   4.101 -0.5576  0.0084  0.3136
  220MOL0     N29582  12.805   4.610   4.140 -0.1666 -1.2158  0.9984
  220MOL0     C29583  12.915   4.569   4.061 -0.5904  0.1399  0.4735
  220MOL0     C29584  13.019   4.656   4.100 -0.3207  1.1445  0.3868
  220MOL0     C29585  13.166   4.648   4.044 -0.0490 -0.6727  0.0530
  220MOL0     C29586  13.269   4.581   4.132  0.0029 -1.0850  0.2239
  220MOL0     C29587  13.398   4.669   4.128 -0.6003  0.8546 -0.1040
  220MOL0     C29588  13.537   4.599   4.145  0.0493 -0.4233 -0.7482
  220MOL0     O29589  13.641   4.697   4.175  0.2449 -0.2424 -0.3983
  220MOL0     C29590  13.764   4.653   4.185  1.1441 -0.2234 -0.4818
  220MOL0     C29591  13.843   4.673   4.302  0.0342 -1.0816  0.3857
  220MOL0     C29592  13.973   4.629   4.310 -0.7083 -0.1344  0.1786
  220MOL0     C29593  14.033   4.569   4.205 -0.9150  0.1539 -0.6260
  220MOL0     C29594  14.186   4.544   4.201 -0.7731 -0.0835  0.9331
  220MOL0     O29595  14.248   4.564   4.315 -0.7233 -0.4131 -0.4853
  220MOL0     C29596  14.389   4.524   4.319 -0.4081 -0.5514 -0.0412
  220MOL0     C29597  14.428   4.403   4.260  0.1759  0.3231 -0.3468
  220MOL0     C29598  14.557   4.367   4.239  0.8930  0.1963  0.0353
  220MOL0     C29599  14.658   4.457   4.285  0.0681 -0.2045  0.0428
  220MOL0     O29600  14.790   4.439   4.271  0.2330 -0.0145 -0.4640
  220MOL0     C29601  14.823   4.303   4.309  0.1573  0.3530 -0.4305
  220MOL0     C29602  14.979   4.290   4.329  0.2815 -0.3164  0.2286
  220MOL0     C29603  15.054   4.314   4.196  1.0543  0.6913  0.0931
  220MOL0     C29604  15.205   4.338   4.193  0.3105  0.0369 -1.0719
  220MOL0     C29605  15.276   4.351   4.056  0.1146 -0.3353  1.0750
  220MOL0     C29606  15.418   4.395   4.088 -0.0752 -0.1755  0.4812
  220MOL0     C29607  15.518   4.377   3.969  0.1600 -0.1100 -0.1797
  220MOL0     C29608  15.664   4.409   4.001  0.1070  0.1558  0.2033
  220MOL0    Cl29609  15.687   4.555   4.101 -0.1675 -0.0635 -0.3069
  220MOL0     C29610  14.614   4.577   4.346 -0.3966 -0.2275 -0.4386
  220MOL0     C29611  14.478   4.617   4.368 -0.1982  0.0400  0.1953
  220MOL0     O29612  14.244   4.511   4.092  0.3563  0.9487 -0.8475
  220MOL0     C29613  13.960   4.550   4.087  0.3513 -0.0604  0.4995
  220MOL0     C29614  13.824   4.586   4.081 -1.1271  0.4255 -0.2414
  220MOL0     N29615  12.967   4.743   4.188 -0.4144 -0.2870  0.1693
  220MOL0     N29616  12.845   4.718   4.211 -0.0141 -0.0942 -0.2817
  220MOL0     C29617  11.767   4.066   4.585 -0.1597  0.2796 -0.4153
  220MOL0     C29618  11.635   4.040   4.619  0.1847  0.3017 -1.0279
  220MOL0     C29619  11.205   4.027   4.765  0.4532 -0.0011  0.1701
  220MOL0     C29620  11.177   4.124   4.862  0.8036  0.3080  0.3787
  220MOL0     C29621  11.067   4.107   4.945 -0.0010 -0.4749 -0.1134
  220MOL0     C29622  10.984   3.996   4.938  0.1977 -0.6202  0.3673
  220MOL0     O29623  10.868   3.989   5.009 -0.0667 -0.1425 -0.3848
  220MOL0     C29624  10.743   4.009   4.942 -1.0018  0.3502  0.6715
  220MOL0     C29625  10.672   3.877   4.961 -0.0226 -0.6596  0.3597
  220MOL0     C29626  10.530   3.890   4.911 -0.8435  0.1561 -0.4070
  220MOL0     C29627  10.450   3.762   4.950  0.3772 -0.2102  0.5935
  220MOL0     C29628  10.308   3.781   4.916  1.5383  0.1507  0.1243
  220MOL0     C29629  10.184   3.817   4.893 -0.1287  0.3335  0.1833
  220MOL0     C29630  11.016   3.900   4.843  1.0917 -0.0796 -0.6767
  220MOL0     C29631  11.126   3.915   4.751  0.4311 -0.0359  0.4087
  220MOL0     C29632  11.155   3.816   4.633 -0.6376 -0.1752  0.5973
  220MOL0     H29633  11.583   4.312   4.803 -0.1352 -2.3979  1.2703
  220MOL0     H29634  11.797   4.380   4.716 -0.7521  0.5915  1.4102
  220MOL0     H29635  11.892   4.401   4.470 -0.5390 -0.9330 -1.4399
  220MOL0     H29636  12.011   4.396   4.611 -2.4210  0.5209  0.5856
  220MOL0     H29637  12.079   4.283   4.341 -0.8461  0.6988 -0.8810
  220MOL0     H29638  12.193   4.342   4.465  0.9588 -0.0829  0.8143
  220MOL0     H29639  12.126   4.571   4.445 -2.0194  0.0867  0.6325
  220MOL0     H29640  12.013   4.534   4.314 -0.4215  2.1842 -0.5299
  220MOL0     H29641  12.201   4.431   4.185 -0.1663 -0.5751  2.1552
  220MOL0     H29642  12.187   4.597   4.177 -2.4132 -0.3941 -0.0445
  220MOL0     H29643  12.373   4.616   4.360 -1.6313  0.1346  1.8433
  220MOL0     H29644  12.381   4.443   4.368  1.9768  0.9469 -0.9876
  220MOL0     H29645  12.440   4.418   4.136  1.3534 -1.1194  1.6448
  220MOL0     H29646  12.418   4.591   4.098  2.9259 -1.7765 -1.8459
  220MOL0     H29647  12.627   4.479   4.297 -1.0801  2.0419  2.1427
  220MOL0     H29648  12.579   4.642   4.290 -1.0665 -0.6000  1.6719
  220MOL0     H29649  12.676   4.486   4.049 -0.5130 -1.1858  2.4074
  220MOL0     H29650  12.627   4.664   4.040 -0.8297  0.2334  0.7843
  220MOL0     H29651  12.906   4.476   4.006  1.6383  0.1145  0.0858
  220MOL0     H29652  13.164   4.594   3.949  0.3601 -1.7115  0.6264
  220MOL0     H29653  13.195   4.750   4.019 -1.6821  0.9560  3.9723
  220MOL0     H29654  13.227   4.561   4.231 -3.8680  0.5588 -0.9049
  220MOL0     H29655  13.303   4.491   4.079  1.6810  0.4212 -1.4117
  220MOL0     H29656  13.387   4.745   4.206 -1.4811  1.3869 -0.7308
  220MOL0     H29657  13.412   4.725   4.034 -0.1330  0.0981 -0.4946
  220MOL0     H29658  13.551   4.551   4.047  2.2180  1.2829 -1.3307
  220MOL0     H29659  13.538   4.526   4.227 -0.6435 -1.3524 -1.5320
  220MOL0     H29660  13.789   4.713   4.388  1.2183  2.6411 -0.3831
  220MOL0     H29661  14.028   4.651   4.401  0.2514  3.0401 -1.0306
  220MOL0     H29662  14.359   4.327   4.227  1.2705 -0.9585  0.2215
  220MOL0     H29663  14.567   4.271   4.190 -0.4152 -1.1041  2.1511
  220MOL0     H29664  14.777   4.278   4.405  1.6621  2.5912  0.9674
  220MOL0     H29665  14.793   4.236   4.228 -0.2451 -1.2148  0.9631
  220MOL0     H29666  14.999   4.367   4.404 -1.8610 -0.7747  1.3471
  220MOL0     H29667  14.991   4.192   4.375 -3.1900 -0.4307  1.1387
  220MOL0     H29668  15.032   4.234   4.124  0.2699  0.9317  0.0518
  220MOL0     H29669  15.008   4.408   4.161 -1.2880 -0.0798  0.8790
  220MOL0     H29670  15.243   4.263   4.263  0.8534  2.2435  1.1612
  220MOL0     H29671  15.236   4.424   4.253  0.0532 -1.8495  2.0063
  220MOL0     H29672  15.232   4.427   3.991  1.4474  0.6757  1.3361
  220MOL0     H29673  15.269   4.259   3.996  1.3490  1.6806 -2.4440
  220MOL0     H29674  15.424   4.499   4.120  1.5282  0.3773 -1.4407
  220MOL0     H29675  15.450   4.339   4.176 -1.2758  0.0555  1.0877
  220MOL0     H29676  15.483   4.453   3.899  1.7314  1.2514  0.4669
  220MOL0     H29677  15.510   4.273   3.934 -0.8770 -0.3405  0.6753
  220MOL0     H29678  15.710   4.317   4.040  1.2158  0.4903 -0.2792
  220MOL0     H29679  15.716   4.429   3.907 -2.7021  0.5684 -1.3754
  220MOL0     H29680  14.686   4.651   4.378 -0.5805 -0.7515  1.3222
  220MOL0     H29681  14.459   4.720   4.396 -0.6275 -0.2058  0.8181
  220MOL0     H29682  14.006   4.486   4.013 -0.5768 -0.7019  0.4475
  220MOL0     H29683  13.774   4.553   3.990  2.4425 -2.7505 -1.3069
  220MOL0     H29684  11.804   3.991   4.516 -1.1153  0.8228 -1.5484
  220MOL0     H29685  11.594   3.943   4.593 -3.7637  0.9259  1.8630
  220MOL0     H29686  11.231   4.217   4.876 -0.2081  0.8371  0.9328
  220MOL0     H29687  11.030   4.181   5.014 -1.7502 -1.1736 -0.2448
  220MOL0     H29688  10.749   4.009   4.833  0.5464 -1.3169  0.6932
  220MOL0     H29689  10.693   4.100   4.976  1.5156  2.6450 -1.3290
  220MOL0     H29690  10.674   3.850   5.067  0.9454  1.5457  0.9734
  220MOL0     H29691  10.727   3.808   4.897 -0.3152 -0.1141 -0.4955
  220MOL0     H29692  10.517   3.895   4.803 -4.1987 -1.9035 -0.2566
  220MOL0     H29693  10.478   3.972   4.961  0.8693  1.9824 -1.5089
  220MOL0     H29694  10.487   3.691   4.875  3.8797  0.9631  1.0497
  220MOL0     H29695  10.468   3.736   5.054  1.8028  0.6730  0.5902
  220MOL0     H29696  10.087   3.841   4.856  0.0118  0.4429 -0.1112
  220MOL0     H29697  10.950   3.814   4.838 -1.7839  1.5535  3.2975
  220MOL0     H29698  11.257   3.779   4.618 -0.4501  0.2170  0.9060
  220MOL0     H29699  11.101   3.723   4.652 -3.7201  1.2552 -0.5768
  220MOL0     H29700  11.124   3.856   4.536  2.2022  1.5633  0.2776
  221MOL0     O29701   1.239   3.834   7.735 -0.0704 -0.3660  0.7059
  221MOL0     C29702   1.192   3.787   7.837  0.1779 -0.5603 -0.4418
  221MOL0     O29703   1.245   3.683   7.909 -0.4863  0.0803 -0.1117
  221MOL0     C29704   1.362   3.623   7.872  1.1319 -0.3305  0.7510
  221MOL0     C29705   1.482   3.690   7.876  0.3781  0.0263 -0.5155
  221MOL0     C29706   1.601   3.634   7.839  0.5555  0.1052  0.7764
  221MOL0     C29707   1.614   3.498   7.809  0.3396  0.0360 -0.2073
  221MOL0     O29708   1.728   3.433   7.787  0.0525  0.7346 -0.6352
  221MOL0     C29709   1.846   3.496   7.750 -0.5385 -0.5894  0.3481
  221MOL0     C29710   1.839   3.559   7.613 -0.3537  0.1287  0.5730
  221MOL0     C29711   1.945   3.669   7.596  0.1037  0.5694  0.5725
  221MOL0     C29712   2.082   3.602   7.571  0.4089 -0.1809 -0.1379
  221MOL0     C29713   2.194   3.696   7.523 -1.1237 -0.5469  0.0783
  221MOL0     C29714   2.329   3.646   7.574 -0.8810  0.0999  0.2086
  221MOL0     C29715   2.458   3.720   7.511 -0.4558  0.2941 -0.6192
  221MOL0     C29716   2.540   3.625   7.432 -0.3893  1.5230  0.8345
  221MOL0     N29717   2.662   3.689   7.376  0.0766  0.2563 -0.5274
  221MOL0     C29718   2.791   3.653   7.383 -0.3358 -0.1854  0.1102
  221MOL0     C29719   2.864   3.754   7.327 -0.4223  0.4805 -0.6914
  221MOL0     C29720   3.017   3.780   7.333  1.1262  0.1354 -0.0598
  221MOL0     C29721   3.081   3.833   7.464  0.6961 -0.2755  0.5850
  221MOL0     C29722   3.054   3.982   7.488 -0.6884  0.1828  0.2640
  221MOL0     C29723   3.088   4.030   7.626 -0.3052  0.3421  0.7329
  221MOL0     O29724   3.226   4.002   7.651 -0.2850 -0.3564 -0.6130
  221MOL0     C29725   3.276   4.046   7.771 -0.5099 -0.4820  0.2592
  221MOL0     C29726   3.423   4.044   7.789  0.7940  0.6714 -0.0554
  221MOL0     C29727   3.491   4.076   7.908  0.9283 -0.5175  0.2661
  221MOL0     C29728   3.410   4.124   8.015 -0.1388 -0.3192  0.5466
  221MOL0     C29729   3.478   4.165   8.142  0.1704  0.5121  0.0764
  221MOL0     O29730   3.611   4.196   8.132  0.5133 -0.6425 -1.2029
  221MOL0     C29731   3.691   4.172   8.241 -0.1396 -0.3353  0.0003
  221MOL0     C29732   3.800   4.260   8.255  0.3103 -0.0233 -0.4915
  221MOL0     C29733   3.889   4.241   8.357  0.0557  0.1176  0.0035
  221MOL0     C29734   3.870   4.138   8.459  0.3407 -0.0822 -0.7718
  221MOL0     O29735   3.969   4.104   8.551 -0.4223 -0.3303 -0.3162
  221MOL0     C29736   4.071   4.205   8.579 -0.2259  0.7998 -0.1354
  221MOL0     C29737   4.166   4.141   8.692  1.2092  0.0056 -0.1243
  221MOL0     C29738   4.222   3.999   8.646  0.7824  0.4510  1.0365
  221MOL0     C29739   4.340   3.954   8.740 -0.6902 -0.9796 -0.2855
  221MOL0     C29740   4.330   3.814   8.798 -0.7211  0.5725 -0.1728
  221MOL0     C29741   4.202   3.791   8.879 -0.1909 -0.6318  0.6077
  221MOL0     C29742   4.228   3.679   8.985 -0.1571 -0.2830 -0.3319
  221MOL0     C29743   4.097   3.633   9.056 -0.7303  0.2939 -0.4009
  221MOL0    Cl29744   4.143   3.516   9.188 -0.4657 -0.1225  0.7003
  221MOL0     C29745   3.769   4.048   8.433 -0.0636  0.4647  0.0974
  221MOL0     C29746   3.681   4.056   8.328 -0.8934 -0.1773  0.5334
  221MOL0     O29747   3.408   4.192   8.236 -0.7908 -0.3999 -0.5791
  221MOL0     C29748   3.270   4.120   8.005  0.4833  0.5902  0.0429
  221MOL0     C29749   3.199   4.082   7.883  0.5242  0.1527  0.3686
  221MOL0     N29750   2.775   3.850   7.274  0.9650  0.0175 -0.3709
  221MOL0     N29751   2.658   3.795   7.298 -0.1704 -0.2972 -0.0776
  221MOL0     C29752   1.488   3.423   7.805  0.1141 -0.3812 -1.0231
  221MOL0     C29753   1.359   3.492   7.839 -0.7410  0.9328 -0.4986
  221MOL0     C29754   1.056   3.812   7.868 -0.1317  0.6350  0.6812
  221MOL0     C29755   0.970   3.701   7.874  0.8149 -0.9147 -0.3304
  221MOL0     C29756   0.832   3.721   7.897  0.2903  0.2171  0.6744
  221MOL0     C29757   0.772   3.853   7.887  0.5502  0.9902 -1.0186
  221MOL0     O29758   0.644   3.893   7.918  0.2421 -0.3661  0.0943
  221MOL0     C29759   0.542   3.798   7.929 -0.3633  0.2612  0.3073
  221MOL0     C29760   0.410   3.866   7.944 -0.2446  0.1244  0.0731
  221MOL0     C29761   0.380   3.908   8.093  0.3275  0.3752  0.5271
  221MOL0     C29762   0.246   3.983   8.108  0.0001  0.2136 -0.1230
  221MOL0     C29763   0.129   3.919   8.157 -0.4605  0.2614  0.2625
  221MOL0     C29764   0.036   3.863   8.191  0.5315  0.3210  0.1284
  221MOL0     C29765   0.864   3.960   7.880  0.2928  0.2202  0.6757
  221MOL0     C29766   1.001   3.943   7.864  0.2058  0.3504 -0.0955
  221MOL0     C29767   1.084   4.069   7.862  0.2054  0.0690 -0.0758
  221MOL0     H29768   1.478   3.792   7.913  2.6140  0.2771 -0.8598
  221MOL0     H29769   1.690   3.695   7.843 -0.1811  1.1726  1.2234
  221MOL0     H29770   1.872   3.574   7.823  1.1004 -2.0210  1.3605
  221MOL0     H29771   1.919   3.415   7.756  1.3118  0.8489 -1.2943
  221MOL0     H29772   1.746   3.612   7.586 -1.0731 -1.5368 -0.3898
  221MOL0     H29773   1.852   3.474   7.545  0.4025 -0.9672  2.0457
  221MOL0     H29774   1.942   3.730   7.687 -2.5373 -0.8074  1.5243
  221MOL0     H29775   1.926   3.735   7.511  0.1141 -2.3137 -1.8174
  221MOL0     H29776   2.109   3.551   7.664 -3.0040 -1.5929  0.2498
  221MOL0     H29777   2.068   3.535   7.486  4.8734  2.3674 -3.3058
  221MOL0     H29778   2.189   3.709   7.414 -2.7071 -1.8391 -0.0326
  221MOL0     H29779   2.177   3.794   7.570 -0.8290  0.7077 -2.2482
  221MOL0     H29780   2.336   3.655   7.682 -1.0589 -0.0498  0.2322
  221MOL0     H29781   2.351   3.544   7.540  0.6671  0.3824  0.3149
  221MOL0     H29782   2.515   3.758   7.596 -0.4434 -1.0375 -0.0060
  221MOL0     H29783   2.433   3.809   7.452 -0.6040  1.3597  0.9861
  221MOL0     H29784   2.571   3.542   7.496  1.2864  1.0893 -0.4724
  221MOL0     H29785   2.481   3.596   7.344 -0.9576  2.5016  0.8792
  221MOL0     H29786   2.844   3.583   7.447  2.4625  2.2266  0.6629
  221MOL0     H29787   3.071   3.688   7.308  0.8232 -1.2215  3.6614
  221MOL0     H29788   3.043   3.838   7.244  2.1993  0.4283  0.4290
  221MOL0     H29789   3.038   3.771   7.543 -0.7480  1.4310  1.1879
  221MOL0     H29790   3.187   3.818   7.444  0.2083 -2.8571 -0.5333
  221MOL0     H29791   2.946   3.987   7.477 -0.6949 -3.2702 -3.1491
  221MOL0     H29792   3.114   4.041   7.418  3.0014 -3.0882  0.2928
  221MOL0     H29793   3.025   3.970   7.693 -1.4837  1.0741  0.3269
  221MOL0     H29794   3.048   4.131   7.641 -1.8767 -0.1876  0.2971
  221MOL0     H29795   3.472   4.004   7.701  0.3012  1.6627 -0.7913
  221MOL0     H29796   3.599   4.081   7.921  0.7449  0.7107  1.4009
  221MOL0     H29797   3.812   4.339   8.180  0.3317 -0.9615 -1.5028
  221MOL0     H29798   3.966   4.317   8.363  1.8221 -1.6872  2.9081
  221MOL0     H29799   4.132   4.239   8.495 -0.8785  1.6267 -0.2871
  221MOL0     H29800   4.022   4.292   8.624 -1.9337  0.3420 -1.0222
  221MOL0     H29801   4.245   4.216   8.698 -1.6980  3.2164  0.5931
  221MOL0     H29802   4.112   4.136   8.786  1.2110  1.9135 -0.0003
  221MOL0     H29803   4.141   3.925   8.646 -0.7027  1.8575 -2.5957
  221MOL0     H29804   4.254   4.024   8.544  0.5561 -0.0898  0.8318
  221MOL0     H29805   4.363   4.027   8.818  0.0253 -0.7033 -0.7493
  221MOL0     H29806   4.433   3.960   8.683  0.5979 -1.3512  1.6622
  221MOL0     H29807   4.416   3.789   8.861 -1.7049 -0.5417  0.7720
  221MOL0     H29808   4.321   3.744   8.714  1.0273  1.9726 -1.6127
  221MOL0     H29809   4.165   3.886   8.919  2.3137 -0.8035  3.6889
  221MOL0     H29810   4.130   3.744   8.811  1.1319 -1.2173 -0.4453
  221MOL0     H29811   4.301   3.716   9.057 -0.4870 -0.9706  0.3608
  221MOL0     H29812   4.285   3.598   8.938  0.9126 -0.2053  0.7875
  221MOL0     H29813   4.031   3.712   9.091 -1.0602 -0.0504 -0.2342
  221MOL0     H29814   4.034   3.574   8.989  0.7512 -0.1972 -1.4325
  221MOL0     H29815   3.756   3.961   8.497 -1.3942 -1.8899 -3.1579
  221MOL0     H29816   3.614   3.972   8.313 -0.3040 -0.3156 -1.7834
  221MOL0     H29817   3.200   4.143   8.084 -1.5323  0.1291 -1.5176
  221MOL0     H29818   3.091   4.066   7.878  0.3978  1.2405 -2.9175
  221MOL0     H29819   1.476   3.319   7.780 -0.5864 -0.4964 -0.2591
  221MOL0     H29820   1.266   3.436   7.835 -2.3920  3.6002 -1.8369
  221MOL0     H29821   1.014   3.602   7.868  0.8230 -0.8817 -0.8534
  221MOL0     H29822   0.766   3.636   7.914 -0.8307  1.1733  1.2207
  221MOL0     H29823   0.562   3.724   8.007  1.6982 -0.6627 -1.0254
  221MOL0     H29824   0.553   3.744   7.835  1.3525  0.8684  0.1301
  221MOL0     H29825   0.333   3.796   7.910  0.0150  0.1238 -0.5257
  221MOL0     H29826   0.407   3.955   7.880  1.1360  0.6975  0.7633
  221MOL0     H29827   0.462   3.975   8.121 -0.7490  1.3622  1.4027
  221MOL0     H29828   0.382   3.829   8.168  2.4222 -0.4471 -0.3257
  221MOL0     H29829   0.271   4.072   8.166 -1.5970 -0.4444  1.6773
  221MOL0     H29830   0.218   4.022   8.010 -0.5211  0.3249  0.0681
  221MOL0     H29831  -0.059   3.816   8.210  0.0553  0.8011 -0.9493
  221MOL0     H29832   0.826   4.060   7.897  0.2506  0.2382  0.4783
  221MOL0     H29833   1.176   4.054   7.919 -0.0714  0.9497  0.6271
  221MOL0     H29834   1.112   4.084   7.757  0.1551 -0.2619 -0.1359
  221MOL0     H29835   1.032   4.156   7.905  0.9999  0.5375 -0.0438
  222MOL0     O29836   4.158   6.484  11.130 -0.7868 -0.1906  0.0593
  222MOL0     C29837   4.145   6.399  11.213  0.2245  0.4893 -0.1717
  222MOL0     O29838   4.237   6.307  11.252 -0.3872 -0.4579  0.0186
  222MOL0     C29839   4.343   6.279  11.170  0.3610  0.4811  0.1727
  222MOL0     C29840   4.358   6.153  11.115 -0.8281  0.3313 -0.2232
  222MOL0     C29841   4.469   6.115  11.038 -0.2072 -0.5364 -0.6987
  222MOL0     C29842   4.558   6.218  11.006  0.2040  0.3086 -0.6854
  222MOL0     O29843   4.668   6.206  10.936 -0.8358 -0.8833  0.8136
  222MOL0     C29844   4.734   6.081  10.946  0.0322  0.8717 -0.3033
  222MOL0     C29845   4.851   6.070  10.848  0.0643  0.0930  0.6448
  222MOL0     C29846   4.992   6.110  10.907 -0.4122  0.4110  0.2660
  222MOL0     C29847   4.996   6.199  11.029  0.6159  0.8883 -0.0579
  222MOL0     C29848   5.128   6.262  11.024 -0.6592 -1.3860  0.4776
  222MOL0     C29849   5.155   6.348  11.151 -0.9203 -0.2582  0.3822
  222MOL0     C29850   5.270   6.440  11.138  0.1998  0.6139  0.5739
  222MOL0     C29851   5.400   6.363  11.122  0.1063 -0.5928 -0.4701
  222MOL0     N29852   5.516   6.438  11.156 -0.8952  0.0891  0.4835
  222MOL0     C29853   5.552   6.572  11.130  0.0605 -0.3496  0.2919
  222MOL0     C29854   5.677   6.581  11.161 -0.2866 -0.2540  0.8474
  222MOL0     C29855   5.767   6.696  11.167 -0.6172 -0.9600  0.0881
  222MOL0     C29856   5.700   6.828  11.224  0.3030  0.4555 -0.5456
  222MOL0     C29857   5.764   6.857  11.365  0.0577  0.3574 -0.4275
  222MOL0     C29858   5.715   6.753  11.468  0.4951 -0.1611  0.0477
  222MOL0     O29859   5.573   6.788  11.495 -0.0155  0.1384 -0.2729
  222MOL0     C29860   5.481   6.689  11.489  0.0643  0.2442 -0.6090
  222MOL0     C29861   5.488   6.555  11.519  0.3447 -0.4294 -0.5238
  222MOL0     C29862   5.375   6.469  11.535 -0.2412  0.5728  0.2216
  222MOL0     C29863   5.244   6.514  11.514 -0.1918 -0.0124  0.4112
  222MOL0     C29864   5.124   6.420  11.526  0.4171 -0.4263  0.4306
  222MOL0     O29865   5.015   6.474  11.474  0.7482 -0.1765 -0.7641
  222MOL0     C29866   4.894   6.415  11.511 -0.5528  0.1595 -0.4827
  222MOL0     C29867   4.841   6.415  11.642 -0.0267  0.2214 -1.0974
  222MOL0     C29868   4.717   6.350  11.667 -0.5091 -0.3069  1.1014
  222MOL0     C29869   4.643   6.307  11.553  0.1192  0.1884  0.9813
  222MOL0     O29870   4.520   6.250  11.582  0.1721 -0.5681  0.2197
  222MOL0     C29871   4.423   6.233  11.473  0.5700 -0.1273 -0.1239
  222MOL0     C29872   4.306   6.164  11.535 -0.3147 -0.3521 -0.1996
  222MOL0     C29873   4.237   6.238  11.651 -0.0343  0.3286  0.0773
  222MOL0     C29874   4.147   6.153  11.736 -0.9795  0.1558 -0.7612
  222MOL0     C29875   4.010   6.126  11.672 -0.7093  0.0711 -0.3495
  222MOL0     C29876   3.890   6.167  11.762  0.2414 -0.4176  0.4139
  222MOL0     C29877   3.860   6.316  11.743 -0.6080 -0.1968 -0.1874
  222MOL0     C29878   3.731   6.358  11.806 -0.5037 -0.1569  0.3130
  222MOL0    Cl29879   3.702   6.533  11.782 -0.4605 -0.4777  0.1077
  222MOL0     C29880   4.696   6.306  11.424 -0.5494 -0.8477 -0.2926
  222MOL0     C29881   4.822   6.367  11.405  0.3660 -0.0508  0.0542
  222MOL0     O29882   5.135   6.319  11.595  0.9162 -0.8102 -0.3649
  222MOL0     C29883   5.241   6.653  11.479 -0.2355  0.5263  0.4527
  222MOL0     C29884   5.354   6.741  11.469  1.1029 -0.0051  0.2429
  222MOL0     N29885   5.724   6.456  11.196  0.7436  0.0996  0.1206
  222MOL0     N29886   5.621   6.377  11.200 -0.4703 -0.5053 -0.3098
  222MOL0     C29887   4.538   6.349  11.063  0.1469 -0.4254  0.5840
  222MOL0     C29888   4.430   6.374  11.149 -0.8927 -0.9091 -0.1272
  222MOL0     C29889   4.020   6.390  11.291 -0.2202 -0.1290  0.0588
  222MOL0     C29890   3.938   6.280  11.263  0.2568  0.2885 -0.0428
  222MOL0     C29891   3.804   6.277  11.314 -0.9374 -0.4095 -0.0500
  222MOL0     C29892   3.747   6.376  11.397 -0.0592 -1.4279  0.1190
  222MOL0     O29893   3.624   6.374  11.461 -0.0855  0.8407  0.8192
  222MOL0     C29894   3.554   6.247  11.476  0.5111 -0.6512 -0.8286
  222MOL0     C29895   3.433   6.247  11.385 -0.0855 -0.5437 -0.1283
  222MOL0     C29896   3.327   6.136  11.416 -0.1564 -1.1701  0.3988
  222MOL0     C29897   3.263   6.155  11.555 -0.7808  0.0171 -0.2820
  222MOL0     C29898   3.203   6.282  11.581 -0.9559 -0.4833  1.0582
  222MOL0     C29899   3.171   6.398  11.587 -0.2016 -0.9996  0.8407
  222MOL0     C29900   3.826   6.494  11.403  0.1717 -0.1865 -0.1509
  222MOL0     C29901   3.958   6.504  11.362 -0.1429  1.0151  0.4443
  222MOL0     C29902   4.020   6.643  11.369 -0.6445 -0.2637  0.2540
  222MOL0     H29903   4.284   6.077  11.137 -0.7553  0.2503 -0.2536
  222MOL0     H29904   4.472   6.013  11.003  0.5353 -0.6729 -0.2632
  222MOL0     H29905   4.763   6.063  11.050  1.9984  1.6005 -0.6946
  222MOL0     H29906   4.671   6.000  10.906  0.1170  0.3055  0.6705
  222MOL0     H29907   4.835   6.135  10.761  0.1492  0.0945  0.6314
  222MOL0     H29908   4.861   5.968  10.812 -0.6712 -0.2705  1.4144
  222MOL0     H29909   5.049   6.155  10.825  1.9909  0.3860  1.8517
  222MOL0     H29910   5.046   6.018  10.931  0.5953  1.0695  0.5779
  222MOL0     H29911   4.906   6.261  11.031 -0.6330 -0.8529  1.6196
  222MOL0     H29912   4.986   6.133  11.116 -2.5354 -1.7807 -2.1681
  222MOL0     H29913   5.204   6.184  11.007 -0.7586 -1.3565 -0.1136
  222MOL0     H29914   5.135   6.333  10.942  1.5684 -1.7890  0.2631
  222MOL0     H29915   5.067   6.408  11.177  0.5848  0.7887  3.5612
  222MOL0     H29916   5.191   6.293  11.238  2.8790 -1.7693 -1.9071
  222MOL0     H29917   5.265   6.499  11.230 -3.5923 -2.4767  2.6759
  222MOL0     H29918   5.255   6.507  11.052  0.6924  1.1517  0.9063
  222MOL0     H29919   5.405   6.280  11.194  0.7209 -1.6381 -1.6741
  222MOL0     H29920   5.409   6.327  11.019 -0.2704  1.9691 -1.4565
  222MOL0     H29921   5.477   6.645  11.101  1.6308  0.6886 -1.3163
  222MOL0     H29922   5.857   6.673  11.225  1.1958  1.6323 -1.4600
  222MOL0     H29923   5.802   6.703  11.064 -0.6451  1.3496  0.1855
  222MOL0     H29924   5.729   6.901  11.147 -2.2184  0.0880 -1.9620
  222MOL0     H29925   5.591   6.820  11.222  0.2601  0.9252 -0.3441
  222MOL0     H29926   5.749   6.960  11.396  1.5595  0.9275 -1.4599
  222MOL0     H29927   5.872   6.839  11.358  0.1041  1.1346 -2.4187
  222MOL0     H29928   5.772   6.760  11.561 -0.4017 -0.2127  0.6140
  222MOL0     H29929   5.722   6.648  11.438 -1.4648 -1.0228  2.3319
  222MOL0     H29930   5.584   6.513  11.546 -0.2251 -2.1434 -1.0398
  222MOL0     H29931   5.407   6.371  11.568  1.1295  0.7844 -0.4003
  222MOL0     H29932   4.897   6.468  11.719  0.2644  0.6801 -1.6148
  222MOL0     H29933   4.679   6.344  11.768 -1.5436 -0.3317  0.7250
  222MOL0     H29934   4.396   6.330  11.431 -1.0049 -1.8413 -3.4131
  222MOL0     H29935   4.460   6.169  11.392  2.0655  0.1708  0.2994
  222MOL0     H29936   4.232   6.164  11.455 -1.2589 -1.2747  0.6552
  222MOL0     H29937   4.342   6.064  11.561  3.7103  1.2463  1.3139
  222MOL0     H29938   4.320   6.271  11.713  1.0864  1.0540 -1.7452
  222MOL0     H29939   4.197   6.328  11.603  0.7364  0.1627 -0.9196
  222MOL0     H29940   4.137   6.194  11.837  0.8064 -1.4243  0.1354
  222MOL0     H29941   4.202   6.058  11.745 -0.8527  0.2468 -0.5863
  222MOL0     H29942   4.000   6.018  11.659  0.2794  0.0546 -1.0176
  222MOL0     H29943   4.008   6.177  11.576 -3.9972  0.8638  0.0155
  222MOL0     H29944   3.802   6.117  11.720  0.5995 -0.4213 -0.3636
  222MOL0     H29945   3.900   6.128  11.863 -1.1998 -1.2511  0.2467
  222MOL0     H29946   3.849   6.323  11.634  0.9132 -5.4787 -0.9869
  222MOL0     H29947   3.939   6.374  11.792 -0.1040 -2.2866  1.6120
  222MOL0     H29948   3.648   6.299  11.765 -1.1779 -0.2435  1.7370
  222MOL0     H29949   3.733   6.332  11.912  0.6279  0.2059  0.3912
  222MOL0     H29950   4.643   6.273  11.334  0.4217 -0.3921 -1.0524
  222MOL0     H29951   4.859   6.380  11.304  1.9399 -3.0164  0.1307
  222MOL0     H29952   5.144   6.698  11.463 -0.5609 -0.2552  0.2033
  222MOL0     H29953   5.329   6.844  11.448  0.5221 -0.6177 -2.3503
  222MOL0     H29954   4.600   6.435  11.039 -1.0096  0.0388 -0.9007
  222MOL0     H29955   4.417   6.470  11.199  0.4479 -1.5224  1.4848
  222MOL0     H29956   3.959   6.197  11.196  3.7669  1.5165 -0.6897
  222MOL0     H29957   3.743   6.188  11.303  0.4815 -1.2876 -1.4028
  222MOL0     H29958   3.521   6.269  11.578 -0.7388  0.0716 -1.3726
  222MOL0     H29959   3.619   6.160  11.466 -0.3411 -1.8666  2.7042
  222MOL0     H29960   3.458   6.241  11.279 -0.3551  1.8683 -0.3708
  222MOL0     H29961   3.389   6.345  11.401 -0.4440 -0.6552 -0.4208
  222MOL0     H29962   3.382   6.044  11.397 -1.2142 -1.4857 -1.2901
  222MOL0     H29963   3.249   6.140  11.340  0.5690 -2.1382 -0.4274
  222MOL0     H29964   3.189   6.076  11.569 -0.1763 -0.3247  1.1800
  222MOL0     H29965   3.346   6.144  11.625  1.7113  0.1329 -2.9863
  222MOL0     H29966   3.138   6.499  11.599  1.8428 -0.1828  0.0674
  222MOL0     H29967   3.792   6.589  11.441  1.2927 -0.0272  0.5345
  222MOL0     H29968   3.955   6.723  11.333  1.3479  0.4552 -2.0252
  222MOL0     H29969   4.029   6.679  11.472  0.6025  6.4748 -1.6999
  222MOL0     H29970   4.118   6.643  11.320 -0.4685 -1.6741  0.5639
  223MOL0     O29971   5.494   2.874   4.682 -0.1540  0.5834  0.0463
  223MOL0     C29972   5.579   2.816   4.747  0.6366 -0.0902  0.4051
  223MOL0     O29973   5.665   2.721   4.697 -0.0296 -0.7705  0.3152
  223MOL0     C29974   5.670   2.685   4.566  0.0536 -0.4336  0.1950
  223MOL0     C29975   5.797   2.686   4.510  0.0459  0.4538  0.2876
  223MOL0     C29976   5.830   2.626   4.386 -0.1388  0.2092 -0.3032
  223MOL0     C29977   5.723   2.578   4.311 -0.1551 -0.6256 -0.1780
  223MOL0     O29978   5.733   2.537   4.186  0.4082  0.2133 -0.3089
  223MOL0     C29979   5.867   2.529   4.136 -0.3097 -0.3036 -0.1902
  223MOL0     C29980   5.856   2.506   3.987  0.5790  0.5249 -0.2415
  223MOL0     C29981   5.987   2.480   3.935  0.0667 -0.3644 -0.7494
  223MOL0     C29982   5.986   2.489   3.786 -0.2317  0.4441  0.3872
  223MOL0     C29983   6.113   2.420   3.718  0.3707 -0.1561  0.2195
  223MOL0     C29984   6.252   2.502   3.726 -0.4834 -0.3116 -0.3129
  223MOL0     C29985   6.368   2.449   3.635  0.5087 -0.1808  0.1320
  223MOL0     C29986   6.495   2.529   3.649 -0.1771 -0.2664  0.6926
  223MOL0     N29987   6.584   2.499   3.540 -0.0659 -0.1785 -0.5016
  223MOL0     C29988   6.580   2.560   3.423  1.0416 -0.4912  0.3855
  223MOL0     C29989   6.687   2.528   3.355  0.7376  0.6728  0.4483
  223MOL0     C29990   6.720   2.599   3.226  1.2749 -0.1565 -0.8475
  223MOL0     C29991   6.729   2.509   3.100 -0.3484 -0.3701 -0.1719
  223MOL0     C29992   6.853   2.428   3.106 -0.1286  0.0245 -0.3174
  223MOL0     C29993   6.962   2.504   3.039 -0.8428 -0.0231  0.9624
  223MOL0     O29994   7.082   2.420   3.025 -0.0051 -0.6955 -0.3540
  223MOL0     C29995   7.205   2.468   3.049 -1.2874  0.5083  0.1943
  223MOL0     C29996   7.236   2.558   3.149  0.4822 -0.4740  1.8112
  223MOL0     C29997   7.373   2.602   3.172 -0.1030  0.2014  0.9805
  223MOL0     C29998   7.477   2.547   3.092 -1.1756  0.3043 -0.5713
  223MOL0     C29999   7.614   2.590   3.122  0.0138  0.4293  0.4418
  223MOL0     O30000   7.633   2.677   3.225  0.1588 -0.2641  0.4271
  223MOL0     C30001   7.764   2.718   3.250  0.4775  0.4551 -0.2038
  223MOL0     C30002   7.823   2.838   3.196 -0.6679  0.5203 -0.7354
  223MOL0     C30003   7.938   2.885   3.268  0.1873 -0.2184  0.1726
  223MOL0     C30004   7.997   2.821   3.375  1.1598 -0.2085 -0.2219
  223MOL0     O30005   8.097   2.891   3.438 -0.0117  0.3150  0.8193
  223MOL0     C30006   8.120   2.872   3.575 -0.6790  0.7860 -0.6552
  223MOL0     C30007   8.253   2.950   3.604  0.5115 -0.3245  0.2317
  223MOL0     C30008   8.274   3.103   3.567 -0.5550  0.7287 -0.6668
  223MOL0     C30009   8.167   3.193   3.654 -0.4214  1.0319 -0.3428
  223MOL0     C30010   8.153   3.348   3.626 -1.3046  0.3904 -0.3088
  223MOL0     C30011   8.055   3.423   3.707  0.8685  0.3034 -0.4470
  223MOL0     C30012   7.907   3.413   3.656 -0.2725 -0.3184  0.7687
  223MOL0     C30013   7.800   3.441   3.768  0.1502  0.2242  0.2234
  223MOL0    Cl30014   7.640   3.387   3.715 -0.0274  0.2312  0.2596
  223MOL0     C30015   7.942   2.693   3.405 -0.2449  0.2128 -0.3032
  223MOL0     C30016   7.826   2.650   3.347 -0.4872  0.2099 -1.3948
  223MOL0     O30017   7.702   2.537   3.052 -0.2948  0.0598  0.2229
  223MOL0     C30018   7.433   2.458   2.996 -0.4303  0.3811  0.0544
  223MOL0     C30019   7.303   2.419   2.966 -0.0345  0.1361 -0.7013
  223MOL0     N30020   6.758   2.442   3.441 -0.3678 -1.1495 -0.0768
  223MOL0     N30021   6.699   2.424   3.554  0.9870  0.0679  0.0222
  223MOL0     C30022   5.597   2.586   4.361  1.3986 -0.0284 -1.2137
  223MOL0     C30023   5.569   2.620   4.495  0.1822 -0.3898 -0.7640
  223MOL0     C30024   5.601   2.870   4.889  0.5630 -0.8206  0.1259
  223MOL0     C30025   5.573   3.011   4.911 -0.4030 -0.4066  0.2369
  223MOL0     C30026   5.588   3.067   5.034 -0.8275 -0.2187 -0.3119
  223MOL0     C30027   5.625   2.982   5.141  0.8655  0.0026  0.0977
  223MOL0     O30028   5.608   3.035   5.268 -0.4590  0.8504 -0.1406
  223MOL0     C30029   5.615   2.949   5.378 -0.1173  0.2921 -0.6748
  223MOL0     C30030   5.763   2.948   5.416 -0.4431  0.2494 -0.3528
  223MOL0     C30031   5.784   2.846   5.537  0.4237 -0.2710  0.0876
  223MOL0     C30032   5.920   2.856   5.607 -0.6672 -0.0914 -0.5544
  223MOL0     C30033   6.032   2.920   5.540 -0.5564  0.0111  0.9920
  223MOL0     C30034   6.119   2.978   5.484 -0.4787  0.3527 -0.0663
  223MOL0     C30035   5.666   2.854   5.117  1.0191  0.2062  0.8642
  223MOL0     C30036   5.651   2.796   4.996  0.0091  0.7205  0.1614
  223MOL0     C30037   5.668   2.645   4.996 -0.3057 -0.1163  0.3337
  223MOL0     H30038   5.878   2.718   4.575 -0.0514  0.3848  0.4444
  223MOL0     H30039   5.936   2.626   4.360 -0.3034 -0.2530 -1.0000
  223MOL0     H30040   5.915   2.625   4.153 -2.3116  0.4578  1.6929
  223MOL0     H30041   5.930   2.462   4.196  2.2604  0.9920 -1.2916
  223MOL0     H30042   5.791   2.574   3.930 -3.2071 -2.4849  0.0649
  223MOL0     H30043   5.804   2.411   3.972  0.2275  0.7813 -0.6674
  223MOL0     H30044   6.030   2.387   3.973  2.5867  1.5613  1.5321
  223MOL0     H30045   6.050   2.558   3.978 -0.4866 -0.6882  0.6868
  223MOL0     H30046   5.900   2.436   3.742 -0.3417 -0.3077  1.4932
  223MOL0     H30047   5.983   2.595   3.760  1.4703 -0.1800 -2.9467
  223MOL0     H30048   6.129   2.317   3.751 -1.3093 -1.0945 -1.6376
  223MOL0     H30049   6.089   2.420   3.611 -0.3529  0.2815  0.3793
  223MOL0     H30050   6.239   2.609   3.706 -2.1020 -0.9734 -3.2518
  223MOL0     H30051   6.288   2.479   3.827  0.9760 -4.0062 -1.5138
  223MOL0     H30052   6.335   2.457   3.531  3.1882  0.1177 -0.7892
  223MOL0     H30053   6.385   2.342   3.649 -1.1398 -0.6025 -0.8746
  223MOL0     H30054   6.472   2.635   3.664  0.1344  0.1256 -1.3656
  223MOL0     H30055   6.551   2.496   3.737  0.6149 -0.3868  0.1556
  223MOL0     H30056   6.497   2.623   3.392 -0.4819 -3.2596 -1.5932
  223MOL0     H30057   6.653   2.680   3.196  2.9303  0.5156 -3.0192
  223MOL0     H30058   6.814   2.652   3.243  1.3235 -0.4762 -0.0651
  223MOL0     H30059   6.644   2.441   3.091  0.6541 -1.4931 -1.6982
  223MOL0     H30060   6.734   2.571   3.010 -2.2604  0.5137  0.2954
  223MOL0     H30061   6.825   2.330   3.064  0.5886  0.2720 -1.4109
  223MOL0     H30062   6.884   2.415   3.210 -1.6201 -0.6062  0.0699
  223MOL0     H30063   6.985   2.596   3.095  0.7431  1.8401 -2.4213
  223MOL0     H30064   6.936   2.552   2.944  0.5087  2.1169  1.5901
  223MOL0     H30065   7.153   2.596   3.209  0.4655  1.8014  0.4669
  223MOL0     H30066   7.379   2.674   3.252 -1.4956  1.3825  0.0773
  223MOL0     H30067   7.780   2.907   3.124 -0.0760  1.3407 -0.3244
  223MOL0     H30068   7.972   2.982   3.232  0.5134 -0.2666  0.3486
  223MOL0     H30069   8.043   2.923   3.634  1.2436  2.2892  0.7084
  223MOL0     H30070   8.138   2.767   3.599 -3.0063  0.5954  0.5304
  223MOL0     H30071   8.269   2.941   3.712  1.2574 -1.9507  0.0177
  223MOL0     H30072   8.329   2.898   3.544 -2.5410 -2.0820 -2.4537
  223MOL0     H30073   8.375   3.143   3.575 -0.7749  1.0313  0.7523
  223MOL0     H30074   8.262   3.123   3.459  4.4597 -0.4279 -1.6791
  223MOL0     H30075   8.211   3.184   3.754  0.5347 -1.9290 -0.9530
  223MOL0     H30076   8.069   3.144   3.656  0.2286 -0.3323  2.4429
  223MOL0     H30077   8.123   3.366   3.523 -1.3995  2.4428  0.0394
  223MOL0     H30078   8.246   3.402   3.648 -1.3291  0.8733 -1.3426
  223MOL0     H30079   8.055   3.379   3.807  4.8689  1.0850  0.0584
  223MOL0     H30080   8.089   3.527   3.716 -1.6294  1.0210  2.6750
  223MOL0     H30081   7.885   3.313   3.616 -0.9029  0.0656  0.1287
  223MOL0     H30082   7.897   3.487   3.576  2.3418  1.2642  1.7874
  223MOL0     H30083   7.823   3.376   3.852 -0.1565 -1.4777 -0.9686
  223MOL0     H30084   7.796   3.548   3.792 -1.1574  0.1131  0.5481
  223MOL0     H30085   7.975   2.622   3.481 -2.1099  0.0335  0.4009
  223MOL0     H30086   7.780   2.556   3.377  1.9567 -0.4820  0.5548
  223MOL0     H30087   7.507   2.418   2.927 -0.9834  0.1837 -0.4319
  223MOL0     H30088   7.270   2.353   2.887 -1.1176 -0.8905  0.5688
  223MOL0     H30089   5.512   2.542   4.310 -0.0236 -1.2524  1.9067
  223MOL0     H30090   5.468   2.610   4.531 -0.2513 -0.2009 -1.8878
  223MOL0     H30091   5.543   3.069   4.824 -2.3812 -3.4318 -1.2699
  223MOL0     H30092   5.576   3.169   5.070  1.4251 -0.9600  3.0667
  223MOL0     H30093   5.585   2.848   5.348  3.0860 -0.2419 -2.5432
  223MOL0     H30094   5.541   2.978   5.453  1.6229 -0.4183  1.4201
  223MOL0     H30095   5.797   3.047   5.450  2.1551 -1.5465  2.9130
  223MOL0     H30096   5.826   2.910   5.335  0.0344 -1.2925  0.6946
  223MOL0     H30097   5.759   2.744   5.506 -1.1163  0.1289 -0.1129
  223MOL0     H30098   5.700   2.861   5.605 -1.7273  2.7423 -2.8529
  223MOL0     H30099   5.903   2.902   5.705  2.5592  1.5419 -0.6369
  223MOL0     H30100   5.950   2.753   5.625 -0.4087 -0.1604 -1.3326
  223MOL0     H30101   6.206   3.016   5.435  1.8604 -2.0666  1.8846
  223MOL0     H30102   5.707   2.791   5.195 -0.5918 -2.0022  0.0272
  223MOL0     H30103   5.763   2.619   4.948  0.4446 -1.1368  2.2426
  223MOL0     H30104   5.655   2.594   5.092 -0.1180 -1.7823 -0.4840
  223MOL0     H30105   5.584   2.608   4.937  0.4407  0.5632 -1.1944
  224MOL0     O30106   2.420   7.612   9.468  0.0880 -0.2804 -0.2684
  224MOL0     C30107   2.429   7.510   9.395  0.5956  0.2085  0.5630
  224MOL0     O30108   2.527   7.423   9.386 -0.4745  0.5347  0.0705
  224MOL0     C30109   2.656   7.462   9.401  0.4581 -0.4206 -0.1090
  224MOL0     C30110   2.717   7.432   9.524  0.2312  0.0024 -0.1621
  224MOL0     C30111   2.848   7.471   9.535 -0.7453 -0.4029  0.0332
  224MOL0     C30112   2.917   7.533   9.432 -0.3201 -1.2643  0.0716
  224MOL0     O30113   3.042   7.568   9.464 -0.1530  0.1103  0.4097
  224MOL0     C30114   3.135   7.563   9.357  0.1028 -0.2563 -0.2591
  224MOL0     C30115   3.277   7.548   9.397  0.2826  0.2336  1.3322
  224MOL0     C30116   3.366   7.609   9.293  0.7792 -0.7741 -0.3949
  224MOL0     C30117   3.499   7.563   9.316 -0.8841 -0.4699  0.2881
  224MOL0     C30118   3.590   7.589   9.197  0.1937  0.1735  0.4744
  224MOL0     C30119   3.725   7.506   9.207 -0.0118 -0.8294  0.4766
  224MOL0     C30120   3.794   7.525   9.070 -0.2577 -0.3401  0.4891
  224MOL0     C30121   3.926   7.446   9.063  0.2756 -0.0615  0.0631
  224MOL0     N30122   4.018   7.506   8.966  0.8550  0.4879  0.6363
  224MOL0     C30123   4.059   7.443   8.846  0.2948 -0.6370 -0.7786
  224MOL0     C30124   4.169   7.515   8.806 -0.4058  0.8691 -0.8095
  224MOL0     C30125   4.255   7.507   8.678  1.3797 -0.3610 -0.4165
  224MOL0     C30126   4.305   7.367   8.648  0.4873 -0.0640 -0.7926
  224MOL0     C30127   4.385   7.295   8.760 -0.3133  0.0421  0.0488
  224MOL0     C30128   4.514   7.371   8.801 -0.5133 -0.7386  0.2207
  224MOL0     O30129   4.588   7.387   8.677  0.1617  0.5798  0.5354
  224MOL0     C30130   4.710   7.447   8.684 -0.5330  0.4844 -0.3190
  224MOL0     C30131   4.775   7.470   8.808 -0.1185  0.9808 -0.0958
  224MOL0     C30132   4.891   7.545   8.811 -0.4710 -0.0756 -0.6059
  224MOL0     C30133   4.954   7.600   8.698  0.0958 -0.9113  0.2704
  224MOL0     C30134   5.084   7.668   8.712 -0.2439 -0.8556 -0.0006
  224MOL0     O30135   5.121   7.717   8.841 -0.2787 -0.2678  0.5328
  224MOL0     C30136   5.260   7.762   8.865  0.3363  0.4945  0.0415
  224MOL0     C30137   5.285   7.857   8.968  0.2184  0.1543  0.4134
  224MOL0     C30138   5.418   7.893   9.001  0.2931 -0.3539  0.5043
  224MOL0     C30139   5.529   7.833   8.938 -0.2090  0.1832  0.0408
  224MOL0     O30140   5.663   7.876   8.963  0.2671  0.2181  1.0534
  224MOL0     C30141   5.767   7.810   8.893 -0.3150  0.4521  0.1533
  224MOL0     C30142   5.893   7.852   8.969 -0.1079  0.0937  0.8590
  224MOL0     C30143   6.024   7.786   8.918 -0.9268  0.3650 -0.5451
  224MOL0     C30144   6.107   7.882   8.839 -0.4806 -0.9053  0.5346
  224MOL0     C30145   6.219   7.824   8.753 -0.7450 -0.0142  0.3227
  224MOL0     C30146   6.292   7.932   8.669  0.6737 -0.0411  0.1422
  224MOL0     C30147   6.412   7.878   8.589  0.4997 -0.1632  0.3595
  224MOL0     C30148   6.367   7.794   8.461  0.0555  0.0583  0.2707
  224MOL0    Cl30149   6.316   7.634   8.522 -0.2677 -0.1995 -0.6265
  224MOL0     C30150   5.502   7.745   8.835  0.2058  0.0092 -0.3511
  224MOL0     C30151   5.373   7.710   8.797  0.6406  0.5844  0.3905
  224MOL0     O30152   5.140   7.702   8.608 -0.2821  1.1030  0.3718
  224MOL0     C30153   4.902   7.560   8.577 -0.5778  0.6862  0.0033
  224MOL0     C30154   4.778   7.491   8.566  0.4370 -0.0794 -0.3799
  224MOL0     N30155   4.181   7.627   8.886 -0.5565 -0.1187 -0.0111
  224MOL0     N30156   4.088   7.625   8.975 -0.2919 -0.1897 -0.4286
  224MOL0     C30157   2.855   7.549   9.307  1.0711 -0.9964 -1.4162
  224MOL0     C30158   2.724   7.519   9.298 -0.4047 -0.7396  0.4543
  224MOL0     C30159   2.309   7.462   9.333 -0.5175 -0.0556  0.1891
  224MOL0     C30160   2.304   7.466   9.190 -0.0629  0.2951  0.0256
  224MOL0     C30161   2.191   7.428   9.111 -0.4615  0.5231 -0.7698
  224MOL0     C30162   2.076   7.379   9.181 -0.8644 -0.5667  0.6333
  224MOL0     O30163   1.983   7.333   9.093  0.2276 -0.3527  0.0228
  224MOL0     C30164   1.848   7.338   9.143  0.3922  0.6532  0.2945
  224MOL0     C30165   1.748   7.339   9.028  0.0035 -0.7134  0.2361
  224MOL0     C30166   1.617   7.410   9.062  1.0150  0.2386 -0.5336
  224MOL0     C30167   1.533   7.436   8.939 -0.0473 -1.1300 -0.3052
  224MOL0     C30168   1.604   7.537   8.857  0.2087 -0.3949 -0.2236
  224MOL0     C30169   1.659   7.628   8.796  0.0993 -0.1673  0.3017
  224MOL0     C30170   2.077   7.395   9.320  0.7319  0.7444  0.3718
  224MOL0     C30171   2.189   7.419   9.400 -0.4408  0.4489 -0.8052
  224MOL0     C30172   2.193   7.382   9.547 -0.0325  0.6728 -0.1877
  224MOL0     H30173   2.679   7.376   9.608 -0.1519 -0.0048 -0.3410
  224MOL0     H30174   2.905   7.446   9.624  0.9672 -0.1314 -0.9524
  224MOL0     H30175   3.115   7.481   9.288 -0.3430 -0.6318  0.3031
  224MOL0     H30176   3.126   7.657   9.302 -1.7410 -0.3048 -0.1076
  224MOL0     H30177   3.286   7.441   9.420 -3.1079 -0.4041  0.3049
  224MOL0     H30178   3.282   7.597   9.495 -1.1722  2.0589  0.5505
  224MOL0     H30179   3.349   7.717   9.297  1.2826 -0.7306  1.5512
  224MOL0     H30180   3.333   7.570   9.196  0.3492  1.0379 -1.0096
  224MOL0     H30181   3.532   7.614   9.407 -2.0188 -0.6923  0.8430
  224MOL0     H30182   3.498   7.454   9.326 -1.5494 -0.5271 -0.2928
  224MOL0     H30183   3.545   7.543   9.109  2.0079 -1.0149  0.1178
  224MOL0     H30184   3.597   7.697   9.179 -0.4552  0.0595 -0.5623
  224MOL0     H30185   3.777   7.552   9.291  0.1903 -0.6679  0.2668
  224MOL0     H30186   3.710   7.402   9.237  2.9851 -1.2940  0.6721
  224MOL0     H30187   3.825   7.628   9.053  0.5190 -0.6440  0.0243
  224MOL0     H30188   3.724   7.504   8.989 -1.7562 -0.9162  1.8550
  224MOL0     H30189   3.964   7.460   9.165 -0.6381  0.2130  0.3773
  224MOL0     H30190   3.894   7.343   9.046  1.1323 -0.5375  1.1794
  224MOL0     H30191   4.003   7.360   8.803  0.4677 -0.6756 -0.9298
  224MOL0     H30192   4.205   7.553   8.593 -0.7659  2.2267  2.0286
  224MOL0     H30193   4.351   7.558   8.694  0.7571  2.7888 -4.9315
  224MOL0     H30194   4.224   7.298   8.622 -0.4867 -0.2330  2.2647
  224MOL0     H30195   4.371   7.381   8.562 -2.5484  0.5743 -3.1839
  224MOL0     H30196   4.404   7.193   8.724  0.4339  0.4566 -0.7789
  224MOL0     H30197   4.322   7.286   8.849 -1.5671  0.1894 -0.8002
  224MOL0     H30198   4.555   7.300   8.873 -3.9033 -1.2171  1.8318
  224MOL0     H30199   4.502   7.473   8.839 -1.1511  1.1176 -4.2922
  224MOL0     H30200   4.742   7.439   8.906 -0.9233  1.9499 -0.0494
  224MOL0     H30201   4.932   7.557   8.911 -1.2336  2.5924 -0.5237
  224MOL0     H30202   5.212   7.899   9.036  1.0109  4.3119 -1.0003
  224MOL0     H30203   5.429   7.968   9.079 -1.7525  2.2915 -1.5484
  224MOL0     H30204   5.746   7.702   8.896 -0.5629  0.5209  1.5297
  224MOL0     H30205   5.778   7.833   8.786 -4.2404  0.4685 -0.3752
  224MOL0     H30206   5.911   7.959   8.969  0.9342 -0.0790  0.2660
  224MOL0     H30207   5.884   7.821   9.074  3.8281  1.5704  1.7738
  224MOL0     H30208   6.073   7.740   9.004 -0.4978  1.6899 -0.0435
  224MOL0     H30209   5.995   7.703   8.853 -0.8121 -1.1993  1.3097
  224MOL0     H30210   6.161   7.952   8.903  2.3468 -2.1797 -0.3124
  224MOL0     H30211   6.041   7.935   8.769  2.0671  1.8312 -0.0185
  224MOL0     H30212   6.169   7.754   8.686  1.8771 -1.0020 -0.7270
  224MOL0     H30213   6.285   7.763   8.815 -1.3422  1.0097  2.0453
  224MOL0     H30214   6.222   7.980   8.600  1.4817 -1.7106 -2.0007
  224MOL0     H30215   6.327   8.021   8.722  2.0531  1.0811 -2.4362
  224MOL0     H30216   6.475   7.812   8.650  2.1204 -0.5432 -1.5974
  224MOL0     H30217   6.477   7.962   8.561  1.6216 -1.1188 -0.0279
  224MOL0     H30218   6.287   7.834   8.399  0.7227  0.5526 -0.2904
  224MOL0     H30219   6.454   7.784   8.396 -2.1309 -1.9527 -2.5962
  224MOL0     H30220   5.573   7.718   8.758  0.1118  0.3287 -0.5518
  224MOL0     H30221   5.351   7.643   8.715 -4.2462  1.1480  0.9579
  224MOL0     H30222   4.945   7.592   8.483 -0.3662  2.9257  0.7983
  224MOL0     H30223   4.722   7.482   8.473 -2.3182  3.8293  0.6542
  224MOL0     H30224   2.900   7.579   9.214  0.0706  0.8400 -1.3438
  224MOL0     H30225   2.673   7.521   9.202  1.6756  1.9397 -0.7214
  224MOL0     H30226   2.392   7.497   9.135 -1.5555 -0.5040 -2.9954
  224MOL0     H30227   2.193   7.419   9.002  2.0985 -5.4768 -0.5714
  224MOL0     H30228   1.833   7.421   9.214 -0.4466  0.0988  0.7871
  224MOL0     H30229   1.834   7.248   9.203  0.5231  2.1272  2.6803
  224MOL0     H30230   1.723   7.235   9.004  2.3042 -0.8571 -1.9785
  224MOL0     H30231   1.802   7.386   8.945 -1.2540  0.7857  0.2287
  224MOL0     H30232   1.625   7.504   9.117 -0.7908 -0.0749  0.3504
  224MOL0     H30233   1.547   7.353   9.124  0.0606  1.9298 -0.0061
  224MOL0     H30234   1.515   7.339   8.892 -0.1910 -0.5534 -1.4779
  224MOL0     H30235   1.441   7.476   8.981  0.1582 -1.6378  0.6559
  224MOL0     H30236   1.713   7.694   8.730  0.0704 -1.6033 -1.2334
  224MOL0     H30237   1.996   7.354   9.379  2.4888 -2.7519  0.6231
  224MOL0     H30238   2.116   7.435   9.604  0.9894  3.5449 -1.2767
  224MOL0     H30239   2.169   7.276   9.558  0.0322  0.4946 -1.5598
  224MOL0     H30240   2.290   7.400   9.594  0.2640 -0.3849 -0.3763
  225MOL0     O30241   7.301   0.012   9.321 -0.1453 -0.9961  0.5783
  225MOL0     C30242   7.276  -0.094   9.260  0.2933  0.3421 -0.7977
  225MOL0     O30243   7.353  -0.199   9.263  0.4954 -0.2285 -0.4591
  225MOL0     C30244   7.445  -0.206   9.361  0.4263  0.1583 -0.8504
  225MOL0     C30245   7.410  -0.253   9.492  0.2947  0.0348  0.6923
  225MOL0     C30246   7.502  -0.281   9.591 -0.6503  0.6785  0.0867
  225MOL0     C30247   7.638  -0.264   9.564 -0.5119  0.0361 -0.5768
  225MOL0     O30248   7.735  -0.299   9.660 -0.7105  0.4007 -0.0869
  225MOL0     C30249   7.720  -0.247   9.786 -0.0754  0.1079  0.1172
  225MOL0     C30250   7.671  -0.340   9.900 -0.5540  0.5656  0.1907
  225MOL0     C30251   7.742  -0.480   9.892 -1.2415 -1.0868  0.7138
  225MOL0     C30252   7.681  -0.558  10.006 -0.1340  0.0615 -0.3546
  225MOL0     C30253   7.744  -0.701  10.002  0.2450 -0.4871  0.2116
  225MOL0     C30254   7.690  -0.800  10.102  0.2156  0.7136  0.3182
  225MOL0     C30255   7.705  -0.782  10.255 -0.4539 -0.0302  0.0434
  225MOL0     C30256   7.846  -0.804  10.312 -0.0893  0.1340  0.3145
  225MOL0     N30257   7.943  -0.709  10.262 -0.2864  0.4299  0.0888
  225MOL0     C30258   7.947  -0.575  10.294  0.0384 -0.0237  0.3525
  225MOL0     C30259   8.055  -0.522  10.229  0.2276 -0.2321 -0.1674
  225MOL0     C30260   8.093  -0.379  10.244 -0.1712 -0.0259  0.3607
  225MOL0     C30261   8.210  -0.345  10.335 -0.1038 -0.2826  0.0609
  225MOL0     C30262   8.345  -0.417  10.297  0.5992  0.3991  0.3684
  225MOL0     C30263   8.455  -0.373  10.391  0.2831  0.2071 -0.3592
  225MOL0     O30264   8.483  -0.233  10.379  0.6106  0.2215 -0.1678
  225MOL0     C30265   8.613  -0.202  10.414 -0.1622 -0.4740  0.1958
  225MOL0     C30266   8.685  -0.259  10.510 -0.4892 -0.1657 -1.0282
  225MOL0     C30267   8.815  -0.229  10.551  0.4797  0.0693  0.0986
  225MOL0     C30268   8.882  -0.135  10.469 -1.3471  0.5884 -0.5899
  225MOL0     C30269   9.009  -0.093  10.526 -0.2434 -0.4569  0.1688
  225MOL0     O30270   9.051  -0.147  10.645  0.1993 -0.2909  0.1302
  225MOL0     C30271   9.186  -0.157  10.672  0.1193 -0.3604  0.6751
  225MOL0     C30272   9.273  -0.216  10.575 -0.6069  0.1811  0.3614
  225MOL0     C30273   9.405  -0.257  10.613 -0.3090 -0.3884  0.0587
  225MOL0     C30274   9.447  -0.234  10.744 -0.3257 -0.7233 -0.2837
  225MOL0     O30275   9.579  -0.271  10.764 -0.2297  0.0923  1.0225
  225MOL0     C30276   9.652  -0.215  10.878  0.7841  0.6399 -0.3786
  225MOL0     C30277   9.797  -0.235  10.882  0.5684  0.7327 -0.0909
  225MOL0     C30278   9.837  -0.377  10.868  0.2976 -0.4165 -0.4047
  225MOL0     C30279   9.982  -0.382  10.891 -0.4971  0.1143 -0.6094
  225MOL0     C30280  10.038  -0.503  10.824 -0.0503  0.5062  0.6111
  225MOL0     C30281  10.182  -0.537  10.875  0.0813 -0.0458  0.6947
  225MOL0     C30282  10.170  -0.604  11.018  0.3966 -1.0718 -0.0228
  225MOL0     C30283  10.310  -0.617  11.069 -0.2544  0.1539 -0.4971
  225MOL0    Cl30284  10.327  -0.684  11.240  0.7807 -0.0048  0.0740
  225MOL0     C30285   9.368  -0.167  10.835 -0.4391  0.5930 -1.1151
  225MOL0     C30286   9.235  -0.135  10.803  0.3262 -0.4919  0.3009
  225MOL0     O30287   9.060   0.000  10.463 -0.1559 -0.0399  0.1366
  225MOL0     C30288   8.816  -0.087  10.354 -0.1978 -0.0257 -0.6789
  225MOL0     C30289   8.680  -0.115  10.325 -0.6001 -0.2570  0.7342
  225MOL0     N30290   8.103  -0.622  10.140 -0.5643  0.4999  0.6586
  225MOL0     N30291   8.041  -0.731  10.168  0.2197 -0.1465 -0.2667
  225MOL0     C30292   7.672  -0.219   9.440  0.2010 -0.9447  0.1220
  225MOL0     C30293   7.580  -0.198   9.335 -0.7591  0.2671  0.2583
  225MOL0     C30294   7.160  -0.096   9.166 -0.1913 -0.6539  0.0471
  225MOL0     C30295   7.160  -0.204   9.074 -0.0135 -0.3135 -0.2761
  225MOL0     C30296   7.051  -0.230   8.994  0.3109  0.6876 -0.0354
  225MOL0     C30297   6.945  -0.137   8.984 -1.5064  0.1436 -0.1505
  225MOL0     O30298   6.832  -0.146   8.902  0.0565 -0.0700 -0.1676
  225MOL0     C30299   6.833  -0.236   8.790  0.2584  0.0435  0.9141
  225MOL0     C30300   6.691  -0.226   8.728 -0.1572 -0.1443 -0.3350
  225MOL0     C30301   6.662  -0.080   8.690 -0.5856 -0.1718  0.0986
  225MOL0     C30302   6.532  -0.066   8.606  0.5346 -0.2272  0.0889
  225MOL0     C30303   6.416  -0.071   8.688  0.7413 -0.2473 -0.0988
  225MOL0     C30304   6.318  -0.069   8.764  0.3688 -0.6506 -0.4464
  225MOL0     C30305   6.944  -0.025   9.063 -0.1876 -0.3988 -0.0099
  225MOL0     C30306   7.049  -0.002   9.155  0.5642  1.1252  0.0768
  225MOL0     C30307   7.029   0.103   9.259 -0.5143  0.2668  0.4389
  225MOL0     H30308   7.305  -0.270   9.514 -0.0849 -3.5032 -2.6874
  225MOL0     H30309   7.448  -0.301   9.683 -0.8564  1.0758  0.0538
  225MOL0     H30310   7.811  -0.190   9.806 -0.3131  0.0370  1.5355
  225MOL0     H30311   7.648  -0.165   9.777 -0.2850 -0.0417  0.4153
  225MOL0     H30312   7.563  -0.345   9.911 -0.7070  2.6074 -0.0720
  225MOL0     H30313   7.706  -0.276   9.982  0.8929 -1.7213  1.5053
  225MOL0     H30314   7.848  -0.459   9.910 -2.0578  2.4730  2.3067
  225MOL0     H30315   7.725  -0.529   9.795  0.7837 -0.1412 -0.1756
  225MOL0     H30316   7.704  -0.501  10.097 -0.5643  0.6069 -0.5779
  225MOL0     H30317   7.572  -0.568  10.001 -0.1519  0.1378 -0.1542
  225MOL0     H30318   7.736  -0.738   9.900 -1.7375 -2.6407  1.0540
  225MOL0     H30319   7.850  -0.674  10.009  0.9135 -1.7257 -3.2129
  225MOL0     H30320   7.584  -0.811  10.075  0.1452 -0.3046  0.9511
  225MOL0     H30321   7.732  -0.898  10.079 -0.9276 -0.4710  2.8776
  225MOL0     H30322   7.631  -0.834  10.315 -1.9707  2.4645  0.4787
  225MOL0     H30323   7.676  -0.677  10.261 -0.3901  0.1913 -2.6254
  225MOL0     H30324   7.847  -0.791  10.420  0.9671  1.7430  0.1464
  225MOL0     H30325   7.881  -0.906  10.294  2.4131  0.7690  1.2056
  225MOL0     H30326   7.871  -0.531  10.357 -2.8177 -1.8013 -1.6569
  225MOL0     H30327   8.121  -0.340  10.145  0.3766 -0.1683  0.4526
  225MOL0     H30328   8.005  -0.322  10.275  0.5880  2.4038 -1.5495
  225MOL0     H30329   8.221  -0.236  10.334 -1.4667 -0.0931 -2.7367
  225MOL0     H30330   8.189  -0.366  10.440  0.5884  3.8047  1.1663
  225MOL0     H30331   8.377  -0.407  10.193 -0.3010 -1.1212 -0.0785
  225MOL0     H30332   8.331  -0.525  10.301 -2.4759  0.4268 -3.3001
  225MOL0     H30333   8.544  -0.424  10.354 -1.1681 -0.7936 -2.6760
  225MOL0     H30334   8.428  -0.399  10.494 -1.1879 -0.5768 -0.9147
  225MOL0     H30335   8.636  -0.320  10.585  0.3418  1.2841  0.7683
  225MOL0     H30336   8.850  -0.262  10.648  2.0684  0.8696 -0.1622
  225MOL0     H30337   9.245  -0.246  10.475  1.1376 -0.4333  0.0152
  225MOL0     H30338   9.461  -0.303  10.533 -0.6415 -0.2759 -0.2412
  225MOL0     H30339   9.650  -0.107  10.864  3.8890  0.8341 -0.1500
  225MOL0     H30340   9.604  -0.255  10.968 -0.3988  2.9469  0.0867
  225MOL0     H30341   9.831  -0.186  10.790  1.8943  1.3600  0.7022
  225MOL0     H30342   9.840  -0.189  10.971 -1.3208  1.2600  0.5914
  225MOL0     H30343   9.789  -0.430  10.950 -0.6234  0.7771 -0.1396
  225MOL0     H30344   9.820  -0.417  10.767 -0.7255  1.6608 -1.1249
  225MOL0     H30345  10.008  -0.371  10.997  0.7666  2.8806 -1.1187
  225MOL0     H30346  10.034  -0.295  10.850 -0.2923  1.0927  1.5894
  225MOL0     H30347  10.032  -0.503  10.715 -0.4276 -1.7032  0.5719
  225MOL0     H30348   9.975  -0.590  10.847  1.9224 -1.0601  0.3506
  225MOL0     H30349  10.242  -0.596  10.804  0.4428 -2.4284  2.8499
  225MOL0     H30350  10.245  -0.448  10.889  1.2768 -0.7170 -0.2639
  225MOL0     H30351  10.126  -0.704  11.010  1.3741 -1.6536  1.3823
  225MOL0     H30352  10.110  -0.543  11.085  4.7655  0.6029  2.8293
  225MOL0     H30353  10.374  -0.683  11.010  2.4763 -0.2658  2.6084
  225MOL0     H30354  10.358  -0.519  11.085  3.2261 -1.4984  0.1765
  225MOL0     H30355   9.407  -0.159  10.936  0.6362 -0.3408 -1.4484
  225MOL0     H30356   9.178  -0.104  10.890 -0.0329  0.7791 -0.3542
  225MOL0     H30357   8.865  -0.019  10.286 -0.9997 -0.9808 -2.2598
  225MOL0     H30358   8.630  -0.077  10.237  0.5162 -0.8289 -0.1641
  225MOL0     H30359   7.778  -0.222   9.418  0.2206 -1.8054  0.2912
  225MOL0     H30360   7.610  -0.178   9.233 -0.2367 -0.6800  0.2076
  225MOL0     H30361   7.246  -0.269   9.079 -1.6323 -2.4874  1.8371
  225MOL0     H30362   7.055  -0.324   8.940 -1.9834 -1.7543  3.6321
  225MOL0     H30363   6.841  -0.336   8.834 -0.6690 -0.3497  0.2104
  225MOL0     H30364   6.917  -0.222   8.722 -0.0847 -4.4224 -0.8144
  225MOL0     H30365   6.613  -0.280   8.783 -1.6894 -2.5929 -4.4201
  225MOL0     H30366   6.695  -0.280   8.633  1.6989 -1.0220  0.1902
  225MOL0     H30367   6.747  -0.029   8.645  0.5852 -1.0763  1.2242
  225MOL0     H30368   6.650  -0.023   8.783 -2.3705  0.1506 -0.2950
  225MOL0     H30369   6.525   0.035   8.566 -0.2166  1.5107  4.1738
  225MOL0     H30370   6.517  -0.139   8.525  0.8175 -1.0407  0.7478
  225MOL0     H30371   6.236  -0.085   8.831 -0.9046  1.3061 -1.4359
  225MOL0     H30372   6.859   0.041   9.052 -0.5743 -0.8982 -0.0488
  225MOL0     H30373   7.055   0.077   9.362 -2.6585  0.0176  0.9605
  225MOL0     H30374   7.076   0.196   9.224 -2.6165  1.5718  0.8591
  225MOL0     H30375   6.923   0.127   9.250  0.2103  3.7108 -0.8013
  226MOL0     O30376   3.764   4.059  10.009 -0.9508  0.3356 -0.4621
  226MOL0     C30377   3.740   3.967  10.088  0.1558  0.7192  0.4024
  226MOL0     O30378   3.801   3.951  10.209 -0.3059  1.0370 -1.1175
  226MOL0     C30379   3.888   4.047  10.255 -0.0016 -0.1143  1.2798
  226MOL0     C30380   3.846   4.176  10.290 -0.1688  0.0895 -0.6103
  226MOL0     C30381   3.931   4.265  10.368  0.1005  0.0117 -0.2913
  226MOL0     C30382   4.063   4.219  10.398  0.0341 -0.0757  0.1733
  226MOL0     O30383   4.153   4.278  10.476 -0.5184 -0.2097 -0.4232
  226MOL0     C30384   4.144   4.417  10.513  0.8596 -0.3671  0.6629
  226MOL0     C30385   4.263   4.453  10.592  1.6445 -0.5733 -1.4828
  226MOL0     C30386   4.264   4.601  10.630 -0.3142  0.0944  0.3864
  226MOL0     C30387   4.395   4.637  10.703  0.0335 -0.6857  0.6936
  226MOL0     C30388   4.391   4.779  10.763  0.2496 -0.0034 -0.6534
  226MOL0     C30389   4.531   4.818  10.816  0.4267 -0.5750  0.3024
  226MOL0     C30390   4.642   4.841  10.714 -0.4823  0.2065  0.1833
  226MOL0     C30391   4.769   4.894  10.779  0.2220  0.2586 -0.1364
  226MOL0     N30392   4.892   4.895  10.690  0.7629 -0.1789  0.0583
  226MOL0     C30393   4.958   4.787  10.649 -0.3342  0.3092 -0.3586
  226MOL0     C30394   5.072   4.830  10.588  0.7947  0.2160  0.6422
  226MOL0     C30395   5.182   4.738  10.552 -0.6012  0.5586 -0.7409
  226MOL0     C30396   5.237   4.639  10.657 -0.1117  0.4927 -0.6724
  226MOL0     C30397   5.321   4.714  10.762 -0.0036 -0.2871 -0.0214
  226MOL0     C30398   5.464   4.698  10.731 -0.6827  0.7117  0.2778
  226MOL0     O30399   5.503   4.757  10.612 -0.8700  0.1176  0.1930
  226MOL0     C30400   5.624   4.724  10.555 -0.1996 -0.9453 -0.9518
  226MOL0     C30401   5.649   4.787  10.436 -0.3005 -0.5695  0.7225
  226MOL0     C30402   5.773   4.760  10.372  0.4059 -0.8733 -0.2711
  226MOL0     C30403   5.869   4.676  10.427 -0.4323  0.3332 -0.7218
  226MOL0     C30404   5.999   4.646  10.350  1.0119  0.2650 -1.3635
  226MOL0     O30405   6.079   4.545  10.399 -0.2413  0.1816 -0.1367
  226MOL0     C30406   6.191   4.523  10.322 -0.1690  0.3620 -0.2780
  226MOL0     C30407   6.305   4.606  10.342  0.5459 -0.1982 -0.5134
  226MOL0     C30408   6.417   4.612  10.270 -0.2710  0.0847  0.7868
  226MOL0     C30409   6.429   4.496  10.186  1.1001 -0.3180  0.5814
  226MOL0     O30410   6.539   4.456  10.119 -0.4034 -0.4510  0.2788
  226MOL0     C30411   6.628   4.555  10.060 -0.0223  0.0483 -0.6096
  226MOL0     C30412   6.694   4.491   9.931  1.2149 -0.4210 -0.1537
  226MOL0     C30413   6.789   4.592   9.858 -0.0098  0.0888  0.0180
  226MOL0     C30414   6.830   4.536   9.723 -0.9650  0.7189  0.4677
  226MOL0     C30415   6.913   4.630   9.641 -1.0225 -0.8701  0.4105
  226MOL0     C30416   6.928   4.599   9.492  0.0790  0.6649 -0.2449
  226MOL0     C30417   7.008   4.700   9.413 -0.2721 -0.6022 -0.2658
  226MOL0     C30418   6.983   4.672   9.271  0.2312  0.0155  0.2073
  226MOL0    Cl30419   7.122   4.596   9.213  0.0228 -0.4358  0.2548
  226MOL0     C30420   6.316   4.410  10.165  0.1759  0.0618  0.0308
  226MOL0     C30421   6.197   4.427  10.223  0.1606 -0.1891  0.1809
  226MOL0     O30422   6.015   4.704  10.246  0.8814 -0.1272  0.6410
  226MOL0     C30423   5.842   4.615  10.554 -0.4074 -0.2446 -0.3860
  226MOL0     C30424   5.719   4.636  10.617 -0.0143 -0.2258  0.0099
  226MOL0     N30425   5.065   4.966  10.588 -0.5174 -0.3903  0.1324
  226MOL0     N30426   4.958   5.006  10.653 -0.1028 -0.1261  0.1826
  226MOL0     C30427   4.107   4.093  10.356  0.7277  0.0967 -1.3176
  226MOL0     C30428   4.020   4.005  10.290 -1.0022 -0.3781  0.1207
  226MOL0     C30429   3.622   3.889  10.062  0.6599  0.1036 -0.1554
  226MOL0     C30430   3.517   3.942   9.983  0.2481 -0.1986 -0.9440
  226MOL0     C30431   3.393   3.878   9.979 -0.7500  0.1818  0.0596
  226MOL0     C30432   3.371   3.757  10.045  0.7015 -0.2320 -0.4825
  226MOL0     O30433   3.252   3.697  10.046  0.0071 -0.1755 -0.3286
  226MOL0     C30434   3.141   3.766   9.987  0.6470 -0.1573  0.3269
  226MOL0     C30435   3.001   3.718  10.014  0.8508 -0.2391 -0.4530
  226MOL0     C30436   2.976   3.681  10.156  0.2955  0.3417 -0.0102
  226MOL0     C30437   2.825   3.663  10.178 -0.1685  0.1111  0.2112
  226MOL0     C30438   2.785   3.524  10.148  0.4272 -0.3930  1.2773
  226MOL0     C30439   2.739   3.410  10.141  0.5529 -0.2945  0.0302
  226MOL0     C30440   3.479   3.699  10.111 -0.5617  0.3413  0.1756
  226MOL0     C30441   3.598   3.770  10.128  0.1223 -0.3198 -0.8100
  226MOL0     C30442   3.701   3.690  10.206 -0.5304 -0.2708 -0.4676
  226MOL0     H30443   3.743   4.205  10.269  0.3328  3.3103  0.6637
  226MOL0     H30444   3.882   4.359  10.394  1.1776  0.6731 -0.5630
  226MOL0     H30445   4.153   4.490  10.432  1.6634  0.0233  1.0947
  226MOL0     H30446   4.053   4.437  10.571  0.7472  2.9715 -0.4803
  226MOL0     H30447   4.349   4.431  10.527  3.8628  2.2537  0.2443
  226MOL0     H30448   4.259   4.394  10.683 -0.9037  0.3226 -0.9341
  226MOL0     H30449   4.185   4.622  10.703 -1.6453 -0.0793 -0.9659
  226MOL0     H30450   4.246   4.662  10.541 -2.1182 -3.9701 -2.3223
  226MOL0     H30451   4.418   4.569  10.784 -1.0376 -0.1207  1.5058
  226MOL0     H30452   4.476   4.626  10.630  1.3183  0.6403  1.8455
  226MOL0     H30453   4.358   4.859  10.696  0.9571 -0.1997 -1.2514
  226MOL0     H30454   4.318   4.774  10.844 -3.0001 -0.5712 -3.3664
  226MOL0     H30455   4.524   4.902  10.886  0.1722  0.0738 -0.4898
  226MOL0     H30456   4.564   4.732  10.875 -0.3739 -0.2631  1.2219
  226MOL0     H30457   4.613   4.908  10.633  0.3056 -0.9083 -1.0530
  226MOL0     H30458   4.674   4.753  10.657  2.3900  1.3019 -0.0448
  226MOL0     H30459   4.742   4.994  10.815  0.5912 -0.1163  1.2437
  226MOL0     H30460   4.788   4.837  10.870  0.7392 -0.4538 -0.6854
  226MOL0     H30461   4.945   4.685  10.685 -0.3247  0.4078 -0.0749
  226MOL0     H30462   5.148   4.683  10.464 -0.9140 -0.3681 -0.0654
  226MOL0     H30463   5.262   4.802  10.514 -0.7052  1.4995  0.5555
  226MOL0     H30464   5.162   4.580  10.710  0.2101  2.2153  1.9178
  226MOL0     H30465   5.291   4.567  10.596  1.0375  1.5834 -0.9885
  226MOL0     H30466   5.303   4.663  10.858  2.4341 -1.3757 -0.0635
  226MOL0     H30467   5.281   4.814  10.782 -1.2142 -1.1991  2.6477
  226MOL0     H30468   5.494   4.593  10.734  1.6272  1.2843 -0.7830
  226MOL0     H30469   5.531   4.743  10.805 -0.3017  1.0785 -0.2849
  226MOL0     H30470   5.587   4.861  10.388  2.9806  0.7458 -1.9066
  226MOL0     H30471   5.788   4.809  10.276  2.5990  0.5083  0.7025
  226MOL0     H30472   6.301   4.689  10.413  0.1852  0.4785 -1.3137
  226MOL0     H30473   6.496   4.686  10.282  0.4916 -0.6454  0.3432
  226MOL0     H30474   6.574   4.644  10.025  0.7528  1.3204  1.2237
  226MOL0     H30475   6.716   4.584  10.118  0.0863 -1.2843 -0.0687
  226MOL0     H30476   6.741   4.399   9.967 -1.4650 -1.3310  1.2856
  226MOL0     H30477   6.613   4.451   9.869  0.4953 -0.2994  0.6902
  226MOL0     H30478   6.734   4.685   9.837 -0.7119 -0.2014  0.5251
  226MOL0     H30479   6.876   4.614   9.920 -1.6511  0.9645  2.1711
  226MOL0     H30480   6.738   4.511   9.669 -1.9359  3.7606  0.5072
  226MOL0     H30481   6.891   4.446   9.738 -0.7317  1.0586  1.7282
  226MOL0     H30482   7.006   4.651   9.694 -1.0157  1.7482 -0.4837
  226MOL0     H30483   6.871   4.731   9.643 -1.3340 -0.9849 -0.0912
  226MOL0     H30484   6.970   4.498   9.493  0.9895  1.0156  1.3011
  226MOL0     H30485   6.833   4.589   9.439  0.7717  1.2184 -1.6251
  226MOL0     H30486   7.112   4.692   9.446  1.1372  1.0225 -3.8854
  226MOL0     H30487   6.965   4.796   9.444 -1.1962 -1.1611  0.2463
  226MOL0     H30488   6.896   4.613   9.241 -0.2811  1.9993 -2.5714
  226MOL0     H30489   6.973   4.761   9.209  1.8871 -0.7642 -1.2810
  226MOL0     H30490   6.328   4.325  10.098 -1.1579 -0.3005  0.2326
  226MOL0     H30491   6.103   4.375  10.208 -1.2849  2.1008  0.7076
  226MOL0     H30492   5.910   4.550  10.608  1.5729  3.5910  2.2116
  226MOL0     H30493   5.691   4.598  10.715 -1.6673  3.1751  1.0147
  226MOL0     H30494   4.204   4.053  10.384 -0.5766 -0.4248  3.2834
  226MOL0     H30495   4.054   3.907  10.259  1.4032  0.8362 -1.4237
  226MOL0     H30496   3.529   4.027   9.918 -0.6197 -0.5348 -1.5550
  226MOL0     H30497   3.311   3.923   9.925 -1.4585 -2.0103 -0.8194
  226MOL0     H30498   3.155   3.758   9.879  0.9411  1.3783  0.2250
  226MOL0     H30499   3.138   3.872  10.016  0.0861  0.4910 -1.9157
  226MOL0     H30500   2.975   3.632   9.952 -2.8408 -0.2883  0.8878
  226MOL0     H30501   2.937   3.799   9.979  0.9809  0.3331  0.5806
  226MOL0     H30502   3.000   3.775  10.206 -1.6126  1.3673 -0.9285
  226MOL0     H30503   3.040   3.608  10.205  1.3299  1.3693  0.2059
  226MOL0     H30504   2.809   3.672  10.286  1.3948  2.2166  0.3205
  226MOL0     H30505   2.774   3.735  10.112 -1.2754 -0.4487  0.4300
  226MOL0     H30506   2.705   3.309  10.135 -0.1604 -0.1170  0.8925
  226MOL0     H30507   3.459   3.603  10.157 -4.8158 -1.1035 -3.9170
  226MOL0     H30508   3.663   3.594  10.241 -0.2546 -1.2232 -2.5822
  226MOL0     H30509   3.780   3.658  10.137 -0.6010 -0.3205 -0.5259
  226MOL0     H30510   3.752   3.740  10.289 -0.6343 -0.2883 -0.3947
  227MOL0     O30511   5.789   9.498   6.027  0.4933  0.2941  0.3690
  227MOL0     C30512   5.805   9.370   6.033  0.1647 -0.9183  0.1615
  227MOL0     O30513   5.926   9.308   6.047  0.5162  0.2810  0.7714
  227MOL0     C30514   6.027   9.374   6.113  0.2783 -0.3976  0.1538
  227MOL0     C30515   6.135   9.422   6.038 -1.2564  0.8614  0.7520
  227MOL0     C30516   6.241   9.475   6.109  0.1083  0.9077  0.9279
  227MOL0     C30517   6.228   9.496   6.247 -1.8435  0.5432  0.8059
  227MOL0     O30518   6.321   9.577   6.305  0.0723  0.8315  0.1484
  227MOL0     C30519   6.459   9.534   6.282 -0.4516  0.5559 -0.1869
  227MOL0     C30520   6.548   9.554   6.397  0.2546 -0.1967  0.0056
  227MOL0     C30521   6.679   9.484   6.366  0.9144 -1.0414  0.3569
  227MOL0     C30522   6.694   9.371   6.464  1.1691 -0.3681  0.5556
  227MOL0     C30523   6.829   9.295   6.459 -1.0637 -0.1737  0.0712
  227MOL0     C30524   6.930   9.386   6.526  0.0811 -0.3930  0.8871
  227MOL0     C30525   7.067   9.352   6.466  1.0069 -0.2210  0.6080
  227MOL0     C30526   7.178   9.395   6.563  0.8874  0.5344 -0.5038
  227MOL0     N30527   7.166   9.322   6.690  0.5346 -0.2021  0.0208
  227MOL0     C30528   7.180   9.187   6.699 -0.2717  0.5301 -0.5220
  227MOL0     C30529   7.158   9.155   6.827 -0.6317  0.5289  0.3847
  227MOL0     C30530   7.145   9.018   6.898 -0.2617  0.5096 -0.5462
  227MOL0     C30531   7.215   9.011   7.029 -0.6009 -0.2510  0.0692
  227MOL0     C30532   7.152   9.093   7.143  0.0625 -0.8771  0.4963
  227MOL0     C30533   7.243   9.105   7.260  0.9747  0.9207 -1.0950
  227MOL0     O30534   7.194   9.187   7.370  0.1556  0.0366 -0.9004
  227MOL0     C30535   7.225   9.322   7.384  0.6733 -0.3767  0.7561
  227MOL0     C30536   7.275   9.389   7.277  0.0639  0.7249  0.2430
  227MOL0     C30537   7.303   9.523   7.298  0.8412  0.0369 -0.3879
  227MOL0     C30538   7.283   9.589   7.423 -0.0327  0.5209 -0.1966
  227MOL0     C30539   7.312   9.736   7.424  0.2149 -0.1027  0.5812
  227MOL0     O30540   7.299   9.797   7.304 -0.5050 -0.0725 -0.3866
  227MOL0     C30541   7.317   9.931   7.272  0.4107 -0.1738  0.5761
  227MOL0     C30542   7.352  10.037   7.365 -1.2305 -0.0517 -0.5349
  227MOL0     C30543   7.371  10.173   7.325  0.2025 -0.4915  0.1676
  227MOL0     C30544   7.363  10.205   7.188  0.2457  0.2094 -0.1412
  227MOL0     O30545   7.413  10.324   7.142 -0.2969  0.1456 -0.2538
  227MOL0     C30546   7.348  10.403   7.039 -0.3170 -0.3559 -0.3767
  227MOL0     C30547   7.364  10.553   7.057 -0.5428 -0.4697 -0.0460
  227MOL0     C30548   7.297  10.627   6.939 -0.0032  0.5541 -0.4729
  227MOL0     C30549   7.160  10.578   6.905 -0.7271  0.0606  0.0793
  227MOL0     C30550   7.104  10.663   6.799 -0.1625  0.1677  0.4860
  227MOL0     C30551   6.953  10.633   6.779 -0.0265  0.1479 -1.2941
  227MOL0     C30552   6.890  10.744   6.699 -0.3634 -0.3299  0.0772
  227MOL0     C30553   6.946  10.757   6.551 -0.5975 -0.1591 -0.1440
  227MOL0    Cl30554   6.918  10.617   6.440 -0.0242 -0.1500  0.0847
  227MOL0     C30555   7.320  10.105   7.102 -0.3805  0.3810  0.4964
  227MOL0     C30556   7.291   9.972   7.138  0.4031 -0.2857 -0.9151
  227MOL0     O30557   7.328   9.786   7.536 -0.3374 -0.5471  1.0196
  227MOL0     C30558   7.235   9.515   7.529 -0.2090 -0.5706 -0.2215
  227MOL0     C30559   7.205   9.376   7.511 -0.3435 -0.2687  0.2547
  227MOL0     N30560   7.147   9.279   6.896  0.4408  0.4916  0.1323
  227MOL0     N30561   7.150   9.376   6.813 -0.2651  0.3005  0.1055
  227MOL0     C30562   6.104   9.474   6.312 -0.6613  0.4397 -0.1727
  227MOL0     C30563   6.009   9.401   6.250 -0.5120  0.4537  0.1407
  227MOL0     C30564   5.678   9.286   6.039 -0.2022  0.8383 -0.6415
  227MOL0     C30565   5.684   9.148   6.078 -0.0318 -0.5752 -0.4291
  227MOL0     C30566   5.572   9.069   6.092 -0.1026 -0.0880  0.1219
  227MOL0     C30567   5.445   9.119   6.064 -0.2018 -0.2017  1.6871
  227MOL0     O30568   5.339   9.050   6.097 -0.1948  0.6699  0.0904
  227MOL0     C30569   5.312   9.074   6.235  0.5071 -0.9479  0.2578
  227MOL0     C30570   5.188   8.997   6.249 -0.0748  0.0538  0.2408
  227MOL0     C30571   5.061   9.040   6.163 -0.1510 -0.6142 -0.3165
  227MOL0     C30572   4.946   8.948   6.204  0.3791  0.9525  0.1248
  227MOL0     C30573   4.814   8.976   6.143  0.2079 -0.2347 -0.3667
  227MOL0     C30574   4.714   9.019   6.088 -0.5977  0.2288 -0.1812
  227MOL0     C30575   5.437   9.256   6.034  0.3259  0.9083 -1.2614
  227MOL0     C30576   5.549   9.336   6.010 -0.0696 -0.0365 -0.4641
  227MOL0     C30577   5.516   9.473   5.968 -0.1546  0.1210 -0.9595
  227MOL0     H30578   6.124   9.400   5.932  0.1635  0.3429  0.6946
  227MOL0     H30579   6.333   9.498   6.056 -1.2696  2.3483 -1.0200
  227MOL0     H30580   6.462   9.429   6.253 -0.6246  0.2044  1.0401
  227MOL0     H30581   6.496   9.595   6.198 -1.1198 -1.0180 -1.6724
  227MOL0     H30582   6.500   9.512   6.486 -1.2765 -2.1763 -1.6718
  227MOL0     H30583   6.563   9.662   6.409 -4.9059  0.8297 -0.4592
  227MOL0     H30584   6.763   9.555   6.368 -0.3941  0.7291 -2.0214
  227MOL0     H30585   6.676   9.435   6.268 -1.6755 -0.5809  0.1385
  227MOL0     H30586   6.676   9.400   6.568 -1.1890  2.4475 -0.4860
  227MOL0     H30587   6.611   9.301   6.451  1.0484 -0.1578  0.1792
  227MOL0     H30588   6.828   9.196   6.506  1.7282  0.0207  0.7384
  227MOL0     H30589   6.863   9.281   6.356 -0.6302  2.8536 -0.2796
  227MOL0     H30590   6.903   9.489   6.505 -0.9034 -0.7135  0.5117
  227MOL0     H30591   6.921   9.373   6.634  0.4315  2.4918  1.3421
  227MOL0     H30592   7.072   9.404   6.370  1.9071  0.8016  1.1880
  227MOL0     H30593   7.071   9.244   6.448  0.5880 -0.4662  1.8369
  227MOL0     H30594   7.276   9.372   6.520  2.8866  1.3020  3.2953
  227MOL0     H30595   7.173   9.501   6.590  2.0282  0.6091 -0.5620
  227MOL0     H30596   7.188   9.109   6.624 -1.1300 -1.1068  0.9803
  227MOL0     H30597   7.038   9.003   6.911  0.0005 -1.5380 -0.2897
  227MOL0     H30598   7.173   8.925   6.846  0.0339 -0.0527  0.6007
  227MOL0     H30599   7.202   8.906   7.057 -0.8106 -1.6506 -4.5337
  227MOL0     H30600   7.323   9.027   7.022 -0.1424 -3.4512 -3.5133
  227MOL0     H30601   7.055   9.047   7.161 -1.9261  1.3350 -3.3129
  227MOL0     H30602   7.119   9.191   7.107  1.6942 -0.5662 -0.2393
  227MOL0     H30603   7.345   9.136   7.238  1.0101  0.9556 -0.8856
  227MOL0     H30604   7.263   9.002   7.289  0.6080  0.6381 -1.8013
  227MOL0     H30605   7.302   9.333   7.189 -1.3262 -1.3542  1.0721
  227MOL0     H30606   7.339   9.572   7.208 -0.9461 -0.6673 -1.5425
  227MOL0     H30607   7.391  10.021   7.465  1.9346 -0.6421 -1.7543
  227MOL0     H30608   7.403  10.250   7.395 -0.3537  0.7847 -0.9266
  227MOL0     H30609   7.385  10.374   6.940 -3.3232  1.8146 -2.3408
  227MOL0     H30610   7.242  10.380   7.051 -0.0422 -1.5425 -0.1423
  227MOL0     H30611   7.314  10.589   7.148  2.0226 -0.5982  1.5148
  227MOL0     H30612   7.470  10.576   7.068 -0.7768  0.1137  1.2314
  227MOL0     H30613   7.309  10.735   6.955  2.5943  0.1930  0.4917
  227MOL0     H30614   7.362  10.608   6.854 -3.1896 -1.9000 -2.6004
  227MOL0     H30615   7.102  10.577   6.998 -2.7829 -0.0568 -1.1488
  227MOL0     H30616   7.149  10.474   6.874 -0.8497 -0.1544  0.8111
  227MOL0     H30617   7.151  10.628   6.706 -0.7415 -1.0509  0.6395
  227MOL0     H30618   7.120  10.771   6.811  0.1555 -0.0720  2.5781
  227MOL0     H30619   6.936  10.535   6.734 -0.7413 -0.4337  0.1742
  227MOL0     H30620   6.903  10.626   6.876 -0.6561  1.1713 -1.5249
  227MOL0     H30621   6.891  10.841   6.750 -3.9834  0.1126 -0.4396
  227MOL0     H30622   6.784  10.718   6.706 -0.7661  0.9610 -0.9823
  227MOL0     H30623   6.898  10.846   6.509 -0.9558 -0.2668  0.0330
  227MOL0     H30624   7.053  10.773   6.569 -0.0194 -1.5236 -2.0314
  227MOL0     H30625   7.308  10.125   6.996  2.5968  2.7244  0.4938
  227MOL0     H30626   7.249   9.903   7.066  0.2059  3.3519 -4.6241
  227MOL0     H30627   7.227   9.554   7.630 -0.7611  0.7285 -0.7435
  227MOL0     H30628   7.157   9.310   7.583  0.3690 -2.6770 -1.3954
  227MOL0     H30629   6.087   9.513   6.412  0.6973 -0.0134  0.2527
  227MOL0     H30630   5.923   9.360   6.302  1.2615  0.1384  3.0756
  227MOL0     H30631   5.785   9.110   6.093  0.6901  1.6700  0.9821
  227MOL0     H30632   5.585   8.965   6.122  0.7627 -1.8305 -5.1671
  227MOL0     H30633   5.284   9.178   6.256 -1.3577 -1.0942 -1.1943
  227MOL0     H30634   5.390   9.038   6.302 -1.0601 -0.0425  2.7152
  227MOL0     H30635   5.167   8.996   6.357 -0.2809  0.1176  0.2017
  227MOL0     H30636   5.206   8.893   6.222  0.3328 -0.5252  2.5093
  227MOL0     H30637   5.091   9.028   6.058  0.8911 -1.0424  0.0158
  227MOL0     H30638   5.045   9.145   6.187  3.2773 -0.1929  0.5365
  227MOL0     H30639   4.983   8.846   6.196  1.9700  1.5188 -0.2192
  227MOL0     H30640   4.928   8.964   6.311  0.6360  1.3459  0.1160
  227MOL0     H30641   4.637   9.063   6.028  0.8307 -0.2482 -2.4604
  227MOL0     H30642   5.338   9.299   6.042  0.8556  1.9546  0.1333
  227MOL0     H30643   5.573   9.490   5.876  1.3702 -1.4149 -0.3449
  227MOL0     H30644   5.409   9.485   5.949 -0.9014 -4.0541 -0.2405
  227MOL0     H30645   5.553   9.549   6.038 -0.0844 -1.0152  0.2607
  228MOL0     O30646   6.714   5.588   0.999  0.0699  0.5675 -0.3205
  228MOL0     C30647   6.665   5.660   1.086 -1.2994  0.5991  0.0500
  228MOL0     O30648   6.736   5.722   1.178 -0.2810  0.2033 -0.2374
  228MOL0     C30649   6.862   5.779   1.154 -0.2966  1.1939 -0.1818
  228MOL0     C30650   6.938   5.793   1.031  0.4863 -0.1887 -0.5802
  228MOL0     C30651   7.067   5.847   1.039  0.1583  0.0254  0.3890
  228MOL0     C30652   7.117   5.898   1.164  1.3479  0.9227 -0.5834
  228MOL0     O30653   7.242   5.957   1.158 -0.4615 -0.0897  0.0229
  228MOL0     C30654   7.307   5.947   1.279 -0.0272 -0.5850 -0.4937
  228MOL0     C30655   7.452   5.967   1.249  0.3091 -0.1967 -0.3273
  228MOL0     C30656   7.507   5.850   1.164  0.3824 -0.3763 -0.4012
  228MOL0     C30657   7.653   5.887   1.116  0.6415 -0.9004  0.3273
  228MOL0     C30658   7.711   5.790   1.011 -0.0912  0.6242 -0.1920
  228MOL0     C30659   7.739   5.648   1.073  0.0519 -0.8589  0.0221
  228MOL0     C30660   7.860   5.628   1.161  0.4211 -0.2285  0.3272
  228MOL0     C30661   7.838   5.495   1.230 -0.1129 -0.6661 -0.1390
  228MOL0     N30662   7.944   5.470   1.327 -0.4605 -0.7452 -0.3785
  228MOL0     C30663   7.933   5.513   1.455 -0.6097 -0.2191  1.1285
  228MOL0     C30664   8.061   5.508   1.506  0.1636  0.7442 -0.0795
  228MOL0     C30665   8.099   5.558   1.640  0.3118 -0.0702  0.2954
  228MOL0     C30666   8.217   5.654   1.637  0.6020 -0.7531  0.0979
  228MOL0     C30667   8.188   5.795   1.583  0.8881  0.0488 -0.9210
  228MOL0     C30668   8.316   5.863   1.552 -1.0320 -0.7194 -0.1806
  228MOL0     O30669   8.390   5.907   1.669  0.8881  0.2527  0.2431
  228MOL0     C30670   8.515   5.950   1.635  0.4345  0.0326  0.6044
  228MOL0     C30671   8.626   5.864   1.604  0.1784 -0.1941 -0.3679
  228MOL0     C30672   8.749   5.921   1.565 -0.0281 -0.4538 -0.0326
  228MOL0     C30673   8.767   6.062   1.569 -0.2970  0.3840  0.3322
  228MOL0     C30674   8.899   6.118   1.542 -0.6216 -1.2285 -0.3139
  228MOL0     O30675   8.927   6.231   1.604 -0.2846 -0.1645 -0.0614
  228MOL0     C30676   9.056   6.278   1.590 -0.2555 -0.6587  0.2786
  228MOL0     C30677   9.117   6.331   1.707 -0.1668 -0.3697  0.5593
  228MOL0     C30678   9.243   6.387   1.702  0.1313 -0.6788  0.8055
  228MOL0     C30679   9.318   6.386   1.584 -0.7479 -0.2318  0.2572
  228MOL0     O30680   9.442   6.441   1.583  0.0278 -0.3943 -0.7910
  228MOL0     C30681   9.531   6.431   1.704  0.1237 -0.0970 -0.2288
  228MOL0     C30682   9.674   6.452   1.659 -1.0062 -0.4852  0.1060
  228MOL0     C30683   9.715   6.350   1.554 -0.5990  1.0857  0.7231
  228MOL0     C30684   9.865   6.377   1.510  0.1973  0.2281 -0.0691
  228MOL0     C30685   9.907   6.278   1.401 -0.3771  0.0502  0.2786
  228MOL0     C30686  10.049   6.303   1.367 -0.6681 -0.0855  0.4795
  228MOL0     C30687  10.107   6.205   1.270  0.0808 -0.3523 -0.0026
  228MOL0     C30688  10.220   6.245   1.187 -0.1667  0.1418 -0.2772
  228MOL0    Cl30689  10.156   6.353   1.065  0.3326  0.0716  0.0968
  228MOL0     C30690   9.266   6.343   1.471 -0.3400 -0.4929 -0.4569
  228MOL0     C30691   9.132   6.296   1.460  0.6439  0.8381 -0.8508
  228MOL0     O30692   8.976   6.058   1.467  0.4079 -0.1974 -0.9862
  228MOL0     C30693   8.655   6.141   1.601 -0.1511 -0.3570  0.6505
  228MOL0     C30694   8.527   6.090   1.621  0.6851  1.1092 -0.5167
  228MOL0     N30695   8.146   5.462   1.407  0.1632 -0.7169  0.4461
  228MOL0     N30696   8.073   5.437   1.301 -1.2159  0.0955 -0.1759
  228MOL0     C30697   7.041   5.877   1.282  0.6053  0.3213  0.4900
  228MOL0     C30698   6.916   5.833   1.274  0.4637 -0.2547 -0.2560
  228MOL0     C30699   6.517   5.673   1.085 -0.3582 -0.4247 -0.7620
  228MOL0     C30700   6.463   5.778   1.172 -0.0310  0.7436  1.4205
  228MOL0     C30701   6.324   5.801   1.177  0.4581 -0.8552  0.1541
  228MOL0     C30702   6.241   5.725   1.093  0.3743 -0.4574  0.6795
  228MOL0     O30703   6.106   5.748   1.074 -0.7485 -0.1538  0.0733
  228MOL0     C30704   6.078   5.855   0.989  0.0454 -0.3840 -0.2434
  228MOL0     C30705   5.935   5.855   0.922  0.0367  0.2292 -0.8263
  228MOL0     C30706   5.828   5.902   1.016  0.2002 -0.4521  0.3044
  228MOL0     C30707   5.771   5.788   1.103 -1.2298  0.4041  0.4903
  228MOL0     C30708   5.655   5.837   1.174  0.1630  0.8160  0.0238
  228MOL0     C30709   5.567   5.898   1.230  0.0732  0.4363  0.2596
  228MOL0     C30710   6.285   5.611   1.024 -0.3841 -0.0454 -0.0878
  228MOL0     C30711   6.419   5.591   1.013  0.0370 -0.0968 -0.1111
  228MOL0     C30712   6.462   5.472   0.929  0.3213  0.7098  1.0740
  228MOL0     H30713   6.898   5.756   0.937 -2.2958  1.5694 -0.2080
  228MOL0     H30714   7.113   5.850   0.940 -0.8397 -0.8622 -0.1288
  228MOL0     H30715   7.273   6.030   1.341  1.1543 -0.2892 -0.2146
  228MOL0     H30716   7.288   5.851   1.328 -1.4184 -0.4594 -0.7591
  228MOL0     H30717   7.511   5.981   1.340 -4.3176  3.8163  2.6005
  228MOL0     H30718   7.452   6.068   1.206  1.3421  1.1043  2.4706
  228MOL0     H30719   7.439   5.841   1.079  1.2412  0.5286 -1.2208
  228MOL0     H30720   7.510   5.760   1.225  0.7017  0.4534  0.8440
  228MOL0     H30721   7.647   5.985   1.068  1.1157 -1.1050 -0.1572
  228MOL0     H30722   7.711   5.901   1.208  1.3618 -0.8800 -0.1241
  228MOL0     H30723   7.633   5.781   0.935 -5.5752  0.0056  4.7761
  228MOL0     H30724   7.805   5.832   0.974 -0.0648  0.8816  0.1670
  228MOL0     H30725   7.653   5.622   1.135 -1.2510 -1.9078 -2.0912
  228MOL0     H30726   7.740   5.589   0.981 -1.9994  1.0339 -1.3189
  228MOL0     H30727   7.875   5.707   1.236 -4.7012  1.1075  0.3345
  228MOL0     H30728   7.948   5.617   1.097  1.3185 -0.6644  1.5885
  228MOL0     H30729   7.738   5.489   1.274 -0.2695  1.0346 -0.2132
  228MOL0     H30730   7.834   5.419   1.151 -1.3648 -1.2405  0.4453
  228MOL0     H30731   7.850   5.547   1.517 -1.4233 -0.0415 -0.0276
  228MOL0     H30732   8.014   5.605   1.690 -1.1005 -0.6147 -1.4525
  228MOL0     H30733   8.106   5.468   1.701  2.2684  0.7541  1.3735
  228MOL0     H30734   8.267   5.669   1.733  0.0852 -2.5880  0.6913
  228MOL0     H30735   8.299   5.606   1.583  1.3869 -2.2673  2.4718
  228MOL0     H30736   8.129   5.859   1.650  2.0317 -0.4632  0.6262
  228MOL0     H30737   8.134   5.794   1.488 -3.3139  1.1915  1.1872
  228MOL0     H30738   8.296   5.950   1.488 -1.7154  0.0637  1.0469
  228MOL0     H30739   8.372   5.795   1.488 -2.2464  1.2052 -3.5093
  228MOL0     H30740   8.618   5.756   1.614  2.9355 -0.5266 -0.8817
  228MOL0     H30741   8.828   5.862   1.521  1.6835  1.2427  0.6145
  228MOL0     H30742   9.054   6.339   1.795 -0.5552  0.7896  0.1834
  228MOL0     H30743   9.292   6.437   1.785  2.7504 -2.0343  0.2077
  228MOL0     H30744   9.507   6.515   1.770  2.4731 -0.8802  1.7958
  228MOL0     H30745   9.515   6.337   1.758 -1.0299 -0.7054 -1.5880
  228MOL0     H30746   9.690   6.556   1.630  1.1145 -0.5351  0.8878
  228MOL0     H30747   9.755   6.443   1.732  0.4527 -2.1557 -1.6137
  228MOL0     H30748   9.692   6.245   1.576 -1.8238  1.5569  1.8144
  228MOL0     H30749   9.650   6.374   1.469  0.3210 -4.0898 -1.8746
  228MOL0     H30750   9.937   6.380   1.592  2.0827  3.8408 -1.6173
  228MOL0     H30751   9.874   6.478   1.469  0.7327  0.1846 -0.0684
  228MOL0     H30752   9.842   6.281   1.313 -0.0289 -0.0691  0.0165
  228MOL0     H30753   9.904   6.176   1.440  2.4044 -0.0077  0.5681
  228MOL0     H30754  10.048   6.403   1.321  0.6985 -1.1845 -2.1768
  228MOL0     H30755  10.120   6.304   1.450  0.7544 -1.3643 -0.6471
  228MOL0     H30756  10.029   6.167   1.203  1.3237 -1.4318 -0.8774
  228MOL0     H30757  10.147   6.127   1.335  4.2482  0.7215 -0.9868
  228MOL0     H30758  10.303   6.301   1.229  1.4215 -1.3656 -1.2733
  228MOL0     H30759  10.261   6.156   1.139  1.4736  0.6238  0.1802
  228MOL0     H30760   9.341   6.342   1.392  3.5709  1.0447  2.8951
  228MOL0     H30761   9.085   6.281   1.363 -1.6023  2.9977 -0.2236
  228MOL0     H30762   8.653   6.249   1.591 -1.4966 -0.1508  2.6085
  228MOL0     H30763   8.434   6.145   1.626  0.7923  1.2664 -0.1892
  228MOL0     H30764   7.075   5.911   1.379 -1.8657  1.1614  1.1350
  228MOL0     H30765   6.854   5.818   1.363  0.2911  0.7647 -0.1978
  228MOL0     H30766   6.530   5.836   1.235  0.2198  2.1253 -0.0561
  228MOL0     H30767   6.289   5.890   1.227 -0.7324 -0.9674 -0.4240
  228MOL0     H30768   6.143   5.844   0.901 -1.3682  3.5671 -2.0338
  228MOL0     H30769   6.099   5.953   1.032 -0.2878 -0.5392  0.2772
  228MOL0     H30770   5.914   5.755   0.883  2.4511 -0.8469  0.4202
  228MOL0     H30771   5.932   5.927   0.839 -2.2873  1.0220 -0.1268
  228MOL0     H30772   5.745   5.934   0.952  0.3658 -4.1502 -2.0831
  228MOL0     H30773   5.865   5.983   1.079 -0.7181 -0.8038  1.3353
  228MOL0     H30774   5.748   5.693   1.054 -0.4765 -0.6266  2.0299
  228MOL0     H30775   5.840   5.760   1.183 -3.9915  1.1470  3.3629
  228MOL0     H30776   5.491   5.956   1.278  1.8929  1.6740  1.7762
  228MOL0     H30777   6.215   5.554   0.964 -0.4065  2.1288 -2.2633
  228MOL0     H30778   6.521   5.504   0.842 -0.9931  0.8145  0.1904
  228MOL0     H30779   6.526   5.411   0.993  2.8182  0.7690 -1.1687
  228MOL0     H30780   6.375   5.415   0.897  1.6337 -1.8715  1.8581
  229MOL0     O30781   4.135   4.243  11.169  0.5165 -0.4567 -0.5582
  229MOL0     C30782   4.121   4.280  11.051  0.5867  0.3439  0.3844
  229MOL0     O30783   4.171   4.385  10.990  0.2138 -0.3983 -0.0121
  229MOL0     C30784   4.233   4.480  11.065  0.5371  0.8584  0.1522
  229MOL0     C30785   4.374   4.487  11.070 -0.2665  0.3785 -0.0202
  229MOL0     C30786   4.437   4.583  11.159 -0.4027  0.1533  0.0399
  229MOL0     C30787   4.359   4.656  11.244  0.4386  0.5305 -0.5982
  229MOL0     O30788   4.436   4.731  11.332 -1.1289  0.2660 -0.7696
  229MOL0     C30789   4.371   4.836  11.411 -0.8410  0.0473  0.6198
  229MOL0     C30790   4.494   4.883  11.495  0.2466  0.0451 -0.0580
  229MOL0     C30791   4.591   4.959  11.399  0.4914  0.4135  0.0352
  229MOL0     C30792   4.699   5.031  11.469 -0.3948  0.3370 -0.5100
  229MOL0     C30793   4.811   4.929  11.512  0.3100 -0.4382  0.3454
  229MOL0     C30794   4.918   5.000  11.607  0.5086  0.8905 -0.1698
  229MOL0     C30795   4.906   4.992  11.762  0.1625  0.8182  0.3989
  229MOL0     C30796   5.039   5.002  11.827  0.2883 -0.4181 -0.0412
  229MOL0     N30797   5.112   4.881  11.809 -0.1588 -0.2966  0.3684
  229MOL0     C30798   5.071   4.756  11.853 -0.4257 -0.0281 -0.6832
  229MOL0     C30799   5.164   4.673  11.802 -0.2761 -0.6094  0.7215
  229MOL0     C30800   5.163   4.525  11.827 -0.2572  0.1398 -0.1787
  229MOL0     C30801   5.196   4.500  11.969  0.1424  0.2989  0.2405
  229MOL0     C30802   5.210   4.345  11.992  0.2875  0.0161 -0.1651
  229MOL0     C30803   5.301   4.292  12.105 -0.4418  0.3035 -0.3683
  229MOL0     O30804   5.428   4.354  12.098 -0.4063  0.6258 -0.5394
  229MOL0     C30805   5.529   4.294  12.171  0.0315 -1.2590  0.5229
  229MOL0     C30806   5.658   4.330  12.136  0.2391  1.5818 -0.0054
  229MOL0     C30807   5.766   4.270  12.202  0.4540 -0.6362  0.2577
  229MOL0     C30808   5.742   4.179  12.305  0.9632 -0.6372 -1.0581
  229MOL0     C30809   5.856   4.122  12.386 -0.4495 -1.0886 -0.5277
  229MOL0     O30810   5.976   4.185  12.366  0.0367 -0.4885 -0.8836
  229MOL0     C30811   6.080   4.134  12.440 -1.0671  0.4974  0.7509
  229MOL0     C30812   6.189   4.082  12.362 -0.4740  0.7251 -0.9209
  229MOL0     C30813   6.311   4.032  12.422  0.9643  0.2583  0.4647
  229MOL0     C30814   6.318   4.045  12.566  0.4440 -0.2649  0.5630
  229MOL0     O30815   6.429   4.012  12.644  0.4907 -0.1270 -0.0724
  229MOL0     C30816   6.498   3.893  12.614 -0.8069  0.3770  0.4491
  229MOL0     C30817   6.648   3.893  12.660  0.3855 -0.7311  0.2352
  229MOL0     C30818   6.736   3.955  12.551 -0.4946  0.4124 -0.8481
  229MOL0     C30819   6.882   3.943  12.605  0.6312 -0.5228  1.0447
  229MOL0     C30820   6.988   3.993  12.498  0.0535  1.0380  0.0094
  229MOL0     C30821   6.995   4.147  12.480  0.4975  0.1557 -0.3730
  229MOL0     C30822   7.087   4.183  12.363 -0.0216 -0.4786 -0.6793
  229MOL0     C30823   7.145   4.324  12.382  0.2510  0.1521 -0.0140
  229MOL0    Cl30824   7.245   4.348  12.518  0.0070 -0.1297  0.2173
  229MOL0     C30825   6.214   4.103  12.636  0.2994 -0.1832  0.7540
  229MOL0     C30826   6.092   4.140  12.574 -0.1288 -0.3916  0.9025
  229MOL0     O30827   5.836   4.031  12.463 -0.1694  0.5219  0.3901
  229MOL0     C30828   5.609   4.148  12.343 -0.1636  0.3518 -0.4090
  229MOL0     C30829   5.502   4.215  12.286 -0.2084  0.4344  0.1237
  229MOL0     N30830   5.264   4.739  11.730  0.5165 -0.9121  0.0611
  229MOL0     N30831   5.232   4.863  11.741 -0.0120 -0.5203 -0.4020
  229MOL0     C30832   4.216   4.652  11.238  0.1604  0.0651  0.0750
  229MOL0     C30833   4.161   4.562  11.149  0.1897 -0.0568 -0.3536
  229MOL0     C30834   4.056   4.176  10.963  0.1810  0.0562 -0.2030
  229MOL0     C30835   4.072   4.177  10.823 -0.8912  0.0939  0.1707
  229MOL0     C30836   3.992   4.104  10.732 -0.0215  0.7561  1.0118
  229MOL0     C30837   3.890   4.014  10.769 -0.0163  0.2061  0.1543
  229MOL0     O30838   3.814   3.937  10.679  0.0097  0.2310  0.4359
  229MOL0     C30839   3.895   3.863  10.586  0.3755 -1.1578  0.0257
  229MOL0     C30840   3.966   3.741  10.640 -0.3616  0.1608  0.1103
  229MOL0     C30841   4.043   3.659  10.535  0.1363 -0.7652  0.1284
  229MOL0     C30842   4.127   3.552  10.594 -0.0727 -0.6292  0.6915
  229MOL0     C30843   4.050   3.435  10.623  0.0397  0.5830  0.7496
  229MOL0     C30844   3.981   3.340  10.653  0.0591 -0.1820 -0.1642
  229MOL0     C30845   3.880   3.997  10.912 -0.2333 -0.6833 -0.5188
  229MOL0     C30846   3.950   4.082  11.008 -0.3707 -0.5331 -0.0344
  229MOL0     C30847   3.897   4.080  11.146 -0.7188  0.3474 -0.0524
  229MOL0     H30848   4.432   4.419  11.008  0.4577 -0.7177  1.7996
  229MOL0     H30849   4.545   4.588  11.162 -0.4162  1.9608 -1.0768
  229MOL0     H30850   4.332   4.915  11.346  3.8881 -0.3103 -3.2643
  229MOL0     H30851   4.290   4.797  11.473 -0.6726  2.6506  2.6295
  229MOL0     H30852   4.542   4.796  11.542  0.0439 -0.4153 -0.6986
  229MOL0     H30853   4.456   4.944  11.578  1.9892  0.7513  0.2652
  229MOL0     H30854   4.535   5.042  11.355 -1.2045 -1.0583 -0.6950
  229MOL0     H30855   4.624   4.897  11.316  2.4947  0.4965  0.7153
  229MOL0     H30856   4.738   5.112  11.407 -1.8866  0.9591 -0.6771
  229MOL0     H30857   4.655   5.068  11.563 -1.8088 -1.3638 -0.4491
  229MOL0     H30858   4.761   4.841  11.555  3.4167 -3.9142 -2.5072
  229MOL0     H30859   4.856   4.885  11.422 -2.9572  0.3072 -1.8134
  229MOL0     H30860   5.015   4.954  11.586 -0.7310 -1.6714 -0.6094
  229MOL0     H30861   4.939   5.102  11.573  2.4784  0.4852 -0.3218
  229MOL0     H30862   4.856   4.897  11.779 -0.3980  1.1096  0.4218
  229MOL0     H30863   4.839   5.075  11.786 -1.1354 -0.0343 -0.2058
  229MOL0     H30864   5.096   5.087  11.789 -0.4396 -0.3793 -1.0915
  229MOL0     H30865   5.021   5.019  11.934 -1.4236 -0.4732 -0.2834
  229MOL0     H30866   4.994   4.731  11.925  1.9803  1.1810  2.5571
  229MOL0     H30867   5.063   4.490  11.800 -0.1802  0.8827 -1.4822
  229MOL0     H30868   5.236   4.478  11.760  0.1219 -0.6809  0.7908
  229MOL0     H30869   5.284   4.551  12.009  1.1261 -1.2537  0.1571
  229MOL0     H30870   5.103   4.532  12.016 -0.1469  1.2799 -0.9641
  229MOL0     H30871   5.252   4.297  11.904  0.8130  0.9054 -0.4059
  229MOL0     H30872   5.108   4.312  12.014  0.9372 -0.5713  2.3262
  229MOL0     H30873   5.308   4.183  12.098  1.7575  0.3228  0.8095
  229MOL0     H30874   5.251   4.312  12.200 -0.3642 -2.6231  0.3992
  229MOL0     H30875   5.679   4.395  12.051  3.2932 -0.5487 -1.0279
  229MOL0     H30876   5.864   4.299  12.166  3.2251 -4.7871  3.5171
  229MOL0     H30877   6.177   4.063  12.256 -0.0744 -2.7117 -0.4533
  229MOL0     H30878   6.390   3.978  12.370  0.2648 -0.7057  0.3656
  229MOL0     H30879   6.451   3.810  12.668  2.3300 -1.9746 -0.1929
  229MOL0     H30880   6.499   3.858  12.511 -0.0438 -1.5413  1.0536
  229MOL0     H30881   6.658   3.967  12.740 -0.7817  1.1637 -1.3031
  229MOL0     H30882   6.682   3.794  12.693 -1.0359 -1.2834  0.0975
  229MOL0     H30883   6.723   3.900  12.458 -4.6879  2.0700 -1.4775
  229MOL0     H30884   6.708   4.059  12.532  1.7602  1.2761  0.1926
  229MOL0     H30885   6.898   3.836  12.623  1.8503 -0.4979  0.2069
  229MOL0     H30886   6.900   3.998  12.698  0.4597  0.3787  0.5545
  229MOL0     H30887   6.981   3.947  12.399  0.5385 -1.0299  0.8806
  229MOL0     H30888   7.083   3.952  12.532 -0.4105 -0.2938 -0.2621
  229MOL0     H30889   6.898   4.191  12.455  0.4793  0.1788 -0.2604
  229MOL0     H30890   7.044   4.202  12.561  0.1153  2.3698 -1.5439
  229MOL0     H30891   7.039   4.200  12.266  0.7228  4.7407 -0.4242
  229MOL0     H30892   7.164   4.106  12.353  0.9098 -0.1926  3.0150
  229MOL0     H30893   7.202   4.340  12.289 -0.4480 -0.9893 -0.6635
  229MOL0     H30894   7.067   4.400  12.390  1.4850  1.3640  0.8634
  229MOL0     H30895   6.223   4.113  12.744 -0.2323 -3.0881  1.1771
  229MOL0     H30896   6.011   4.184  12.632 -0.2172 -0.1088  0.5711
  229MOL0     H30897   5.596   4.078  12.426  4.0819 -2.0462 -1.4624
  229MOL0     H30898   5.409   4.176  12.327  0.3707 -1.1223  0.0240
  229MOL0     H30899   4.146   4.700  11.305 -2.5414  0.3112 -2.7013
  229MOL0     H30900   4.053   4.563  11.152  0.1856 -1.4635  1.4292
  229MOL0     H30901   4.152   4.233  10.774  1.9458 -3.3789  0.3639
  229MOL0     H30902   4.021   4.113  10.628 -2.2551  0.6559  0.3357
  229MOL0     H30903   3.961   3.934  10.533  2.0292 -2.5473  0.1464
  229MOL0     H30904   3.833   3.836  10.500 -1.6365 -0.2425  1.1050
  229MOL0     H30905   3.881   3.683  10.678 -2.0352  1.2135 -1.8591
  229MOL0     H30906   4.035   3.759  10.723  0.5138 -3.5529  0.3710
  229MOL0     H30907   4.114   3.723  10.481  0.1094 -2.0750 -1.5537
  229MOL0     H30908   3.971   3.625  10.460 -0.9286  2.1051 -0.2565
  229MOL0     H30909   4.212   3.525  10.530 -1.0989 -1.4603 -0.3504
  229MOL0     H30910   4.164   3.601  10.685 -1.2622  2.7331 -0.4708
  229MOL0     H30911   3.926   3.256  10.690 -0.2568  0.5590  1.0923
  229MOL0     H30912   3.811   3.921  10.947 -1.9195  1.5165  1.2028
  229MOL0     H30913   3.798   4.035  11.150 -0.7616  0.3815 -0.7062
  229MOL0     H30914   3.974   4.020  11.196  2.8501  3.7282 -0.9537
  229MOL0     H30915   3.891   4.178  11.194  1.6714  1.1297 -1.1942
  230MOL0     O30916   5.324   0.694   5.765  0.2236 -0.5496  0.3941
  230MOL0     C30917   5.215   0.758   5.791  0.3629 -0.8223 -0.3105
  230MOL0     O30918   5.201   0.842   5.891 -0.2470 -0.0283 -0.2819
  230MOL0     C30919   5.299   0.860   5.978 -0.3280 -0.3748 -0.2728
  230MOL0     C30920   5.406   0.951   5.940  0.2928 -0.0853 -1.1567
  230MOL0     C30921   5.516   0.955   6.021  0.0634  0.3072 -0.3552
  230MOL0     C30922   5.541   0.867   6.125  0.6997  0.1922 -0.0813
  230MOL0     O30923   5.652   0.880   6.206 -0.2377 -0.0886  1.0775
  230MOL0     C30924   5.702   0.766   6.269 -0.8556 -0.0151 -0.8852
  230MOL0     C30925   5.849   0.794   6.336  0.3354  0.5095 -0.3830
  230MOL0     C30926   5.936   0.818   6.215 -0.4013  1.1690  0.7044
  230MOL0     C30927   6.086   0.823   6.247 -0.3329  0.3401  0.1323
  230MOL0     C30928   6.153   0.679   6.250  0.6205 -0.0614  0.4111
  230MOL0     C30929   6.294   0.699   6.269 -0.5953  0.2623 -0.7020
  230MOL0     C30930   6.369   0.571   6.305 -0.2132 -0.0649 -0.0156
  230MOL0     C30931   6.517   0.576   6.309 -0.1622  0.2833  0.0025
  230MOL0     N30932   6.583   0.638   6.430  0.7162 -0.1122 -0.0693
  230MOL0     C30933   6.553   0.625   6.564 -0.0111  0.0800  0.2202
  230MOL0     C30934   6.655   0.683   6.628 -0.5946 -0.1976 -0.5753
  230MOL0     C30935   6.667   0.660   6.775 -0.1153 -0.5604 -0.5467
  230MOL0     C30936   6.719   0.783   6.846  0.8969 -0.0767 -0.3059
  230MOL0     C30937   6.605   0.854   6.932 -0.4538  0.7692 -0.2051
  230MOL0     C30938   6.644   0.980   6.996 -0.2736 -0.1640 -0.2262
  230MOL0     O30939   6.745   0.948   7.093 -0.6934 -0.0261  0.1670
  230MOL0     C30940   6.861   1.010   7.118  0.0285  0.6241 -0.4688
  230MOL0     C30941   6.964   0.931   7.175 -0.7667  0.1534  0.1919
  230MOL0     C30942   7.099   0.987   7.197  0.4608 -0.0499 -0.4289
  230MOL0     C30943   7.121   1.121   7.159  0.1120 -0.3554 -0.0013
  230MOL0     C30944   7.248   1.190   7.196 -0.6231 -0.4725  0.2180
  230MOL0     O30945   7.329   1.133   7.292  0.5076 -0.5542 -0.5311
  230MOL0     C30946   7.448   1.189   7.326  1.1908  0.4423  1.1373
  230MOL0     C30947   7.560   1.155   7.243 -0.1130 -0.7879 -0.5098
  230MOL0     C30948   7.685   1.202   7.279 -0.3644  0.0071  0.0365
  230MOL0     C30949   7.704   1.264   7.402  0.1657 -0.1864  0.9864
  230MOL0     O30950   7.835   1.293   7.425 -0.3668  0.8648  0.9466
  230MOL0     C30951   7.876   1.237   7.548  0.2754 -0.3055  0.8638
  230MOL0     C30952   8.021   1.209   7.554  0.0280 -0.7369  0.3544
  230MOL0     C30953   8.109   1.339   7.551 -0.0654  0.5493 -0.5512
  230MOL0     C30954   8.251   1.318   7.515 -0.5951 -0.2167  0.0644
  230MOL0     C30955   8.336   1.235   7.614 -0.1340 -0.2508 -0.1159
  230MOL0     C30956   8.488   1.285   7.606  1.0466 -0.3121  0.7859
  230MOL0     C30957   8.504   1.424   7.684  0.4279  1.0477 -0.4136
  230MOL0     C30958   8.619   1.516   7.634 -0.8749  0.0584 -0.3958
  230MOL0    Cl30959   8.772   1.419   7.630  0.0282 -0.0135  0.3453
  230MOL0     C30960   7.586   1.297   7.480 -0.1331  0.5917  0.6713
  230MOL0     C30961   7.460   1.263   7.441  0.2641  0.1695  0.6318
  230MOL0     O30962   7.272   1.292   7.136 -0.2576 -0.1127  0.6155
  230MOL0     C30963   7.016   1.197   7.102 -0.7018 -0.5239 -0.2042
  230MOL0     C30964   6.896   1.138   7.074 -0.2250  1.1366 -0.6181
  230MOL0     N30965   6.758   0.729   6.542  0.6250  0.1169  0.6754
  230MOL0     N30966   6.707   0.699   6.429 -0.0062 -0.9009 -1.0252
  230MOL0     C30967   5.431   0.786   6.167  0.2608  0.0578 -0.0977
  230MOL0     C30968   5.318   0.776   6.096 -1.1144  0.4840 -0.4051
  230MOL0     C30969   5.096   0.744   5.695 -0.5008  0.3268  0.2322
  230MOL0     C30970   5.108   0.661   5.573  0.0998 -0.1889  0.0121
  230MOL0     C30971   4.996   0.646   5.487 -0.4821 -0.0257 -0.3324
  230MOL0     C30972   4.869   0.701   5.514 -0.4378  0.6296  0.0799
  230MOL0     O30973   4.752   0.685   5.449 -0.3064 -0.5169 -0.0449
  230MOL0     C30974   4.724   0.566   5.367  0.0338  0.1548 -0.0079
  230MOL0     C30975   4.634   0.473   5.460  0.3195 -0.3986  0.5498
  230MOL0     C30976   4.550   0.379   5.379  0.0945  0.4094 -0.0103
  230MOL0     C30977   4.481   0.285   5.474  0.7614  0.6187  0.3276
  230MOL0     C30978   4.572   0.202   5.546  0.2383 -0.4271 -0.3828
  230MOL0     C30979   4.661   0.132   5.576  0.7183  0.5225  0.5557
  230MOL0     C30980   4.858   0.783   5.627 -0.4884 -0.0865 -1.4036
  230MOL0     C30981   4.966   0.803   5.722  0.0801  0.2663  0.7988
  230MOL0     C30982   4.934   0.882   5.840 -0.3953 -0.1948  0.4315
  230MOL0     H30983   5.393   1.001   5.845 -0.6518  1.4562 -0.2470
  230MOL0     H30984   5.589   1.030   5.992  2.5582 -1.7156  0.3674
  230MOL0     H30985   5.644   0.736   6.356  1.7029  0.5823  1.1599
  230MOL0     H30986   5.701   0.675   6.207  1.1898 -0.3148 -0.5483
  230MOL0     H30987   5.867   0.704   6.396 -2.0719  0.8941  1.0088
  230MOL0     H30988   5.843   0.886   6.395 -3.1131  1.1908 -1.5464
  230MOL0     H30989   5.898   0.900   6.155 -0.8304  1.1700  0.9767
  230MOL0     H30990   5.917   0.734   6.147  2.9313 -0.5520  1.6320
  230MOL0     H30991   6.128   0.887   6.169  2.1070 -1.8856 -0.5313
  230MOL0     H30992   6.093   0.872   6.344  1.5356 -0.8645  0.6620
  230MOL0     H30993   6.114   0.619   6.333  0.5029 -1.6424 -0.7316
  230MOL0     H30994   6.113   0.636   6.157  0.5612 -0.2435  0.5197
  230MOL0     H30995   6.348   0.730   6.179  0.3325 -0.0067 -0.2481
  230MOL0     H30996   6.317   0.776   6.343  2.1505  0.3475 -1.5229
  230MOL0     H30997   6.351   0.487   6.236  0.2348 -1.3312  1.3540
  230MOL0     H30998   6.333   0.531   6.401  2.0809 -0.3495  0.7795
  230MOL0     H30999   6.553   0.473   6.301 -1.4958 -0.1686 -0.3064
  230MOL0     H31000   6.557   0.615   6.215 -1.5875 -1.3023 -1.3206
  230MOL0     H31001   6.464   0.587   6.613 -1.7078 -0.0009 -2.7145
  230MOL0     H31002   6.574   0.619   6.816 -0.8661  1.4856 -0.0745
  230MOL0     H31003   6.737   0.579   6.795 -0.9603 -0.9804  0.9404
  230MOL0     H31004   6.801   0.756   6.913  1.0563  2.8389  0.8469
  230MOL0     H31005   6.753   0.858   6.773 -2.5135  1.0953 -0.8442
  230MOL0     H31006   6.559   0.785   7.004 -1.5674  1.3755 -0.3074
  230MOL0     H31007   6.522   0.878   6.864 -1.7453  1.5138  1.5563
  230MOL0     H31008   6.552   1.024   7.037 -0.5586 -1.1016  0.1676
  230MOL0     H31009   6.689   1.045   6.921 -0.2119 -0.6302 -0.5987
  230MOL0     H31010   6.941   0.832   7.212  0.5230  0.0263  0.7171
  230MOL0     H31011   7.180   0.929   7.238 -0.1854 -1.8671 -1.5793
  230MOL0     H31012   7.539   1.108   7.147  0.6765  0.6840 -1.4547
  230MOL0     H31013   7.765   1.184   7.208 -0.5362  0.5199 -0.2924
  230MOL0     H31014   7.828   1.294   7.629  0.4553 -0.6904  1.2447
  230MOL0     H31015   7.828   1.139   7.548 -2.8583  1.0822  1.8281
  230MOL0     H31016   8.050   1.139   7.633 -1.0095 -2.4687 -0.7259
  230MOL0     H31017   8.029   1.140   7.469  1.3054 -3.6408  2.6506
  230MOL0     H31018   8.063   1.414   7.486 -2.5089  1.1702  1.7136
  230MOL0     H31019   8.105   1.378   7.653  0.6326  0.3805 -0.4528
  230MOL0     H31020   8.294   1.419   7.509  0.4045 -0.4762  2.1786
  230MOL0     H31021   8.254   1.259   7.423 -0.2520 -0.2396  0.0870
  230MOL0     H31022   8.325   1.128   7.594 -0.1674 -0.4010  0.6856
  230MOL0     H31023   8.296   1.242   7.715 -0.5799  2.0291 -0.3905
  230MOL0     H31024   8.556   1.216   7.656  1.9695  1.4805  2.1323
  230MOL0     H31025   8.509   1.291   7.499  0.2101 -0.0132  0.6361
  230MOL0     H31026   8.520   1.388   7.786 -2.8213 -0.5428 -0.3256
  230MOL0     H31027   8.407   1.474   7.686 -1.1167 -1.5165  3.9335
  230MOL0     H31028   8.593   1.554   7.535 -2.3522 -0.7950 -0.3567
  230MOL0     H31029   8.634   1.604   7.697  2.7141  0.2576 -1.3189
  230MOL0     H31030   7.595   1.357   7.570  1.4576 -1.1990  1.7666
  230MOL0     H31031   7.371   1.283   7.499  0.3164 -1.5522  1.3717
  230MOL0     H31032   7.036   1.299   7.071  2.5206 -1.0223 -0.0903
  230MOL0     H31033   6.830   1.204   7.018 -2.0580 -0.1436 -0.0497
  230MOL0     H31034   5.423   0.735   6.262 -0.2894 -0.7274 -0.5569
  230MOL0     H31035   5.244   0.703   6.128  0.1955  0.0196  1.8276
  230MOL0     H31036   5.206   0.617   5.558  0.7920  1.2908  0.0098
  230MOL0     H31037   5.007   0.596   5.391 -0.1557  1.1206 -0.9045
  230MOL0     H31038   4.816   0.518   5.333  0.7945  1.2596  0.4133
  230MOL0     H31039   4.674   0.605   5.278 -0.7548  1.2086  0.8505
  230MOL0     H31040   4.573   0.536   5.526  2.0571  2.4003 -0.3251
  230MOL0     H31041   4.708   0.429   5.527  1.9219  0.5416 -0.5267
  230MOL0     H31042   4.609   0.324   5.306 -3.6066 -2.7482 -0.9613
  230MOL0     H31043   4.481   0.444   5.324  2.1768  2.7755  0.0046
  230MOL0     H31044   4.424   0.348   5.542 -0.9219 -0.7825  0.2920
  230MOL0     H31045   4.411   0.221   5.420  2.9576 -0.7094 -1.1209
  230MOL0     H31046   4.728   0.049   5.577  0.1722  0.0328 -0.8070
  230MOL0     H31047   4.768   0.843   5.634  1.7889  3.7679 -1.9112
  230MOL0     H31048   4.975   0.841   5.934  1.4339  5.6626  2.6316
  230MOL0     H31049   4.978   0.981   5.824  0.1646 -0.5736 -0.4050
  230MOL0     H31050   4.827   0.898   5.856 -0.4280 -1.5312  1.9189
  231MOL0     O31051   0.347   3.640   4.551  0.7199 -0.3918  0.2580
  231MOL0     C31052   0.295   3.616   4.657 -0.2594  0.4337 -0.0377
  231MOL0     O31053   0.353   3.638   4.778  0.4381 -0.3841  0.4475
  231MOL0     C31054   0.483   3.666   4.779  0.3087  0.4404 -0.3492
  231MOL0     C31055   0.573   3.565   4.812  0.4442  0.0235  0.3909
  231MOL0     C31056   0.710   3.581   4.812 -0.0727  0.6103  0.3309
  231MOL0     C31057   0.767   3.705   4.792  0.3144  0.3198 -0.3273
  231MOL0     O31058   0.902   3.744   4.794 -0.7583  0.0926  0.4492
  231MOL0     C31059   1.013   3.650   4.783 -0.4921  0.3554 -0.0359
  231MOL0     C31060   1.137   3.732   4.768 -0.4046 -0.4904 -0.4131
  231MOL0     C31061   1.269   3.647   4.748  0.0542  0.2998  0.3419
  231MOL0     C31062   1.386   3.739   4.727 -0.4626  0.0924 -0.5369
  231MOL0     C31063   1.512   3.648   4.701  0.5457 -0.1665  0.6027
  231MOL0     C31064   1.585   3.626   4.833 -0.6378  0.0857 -0.9447
  231MOL0     C31065   1.721   3.551   4.818 -0.3632  0.2321  0.3650
  231MOL0     C31066   1.758   3.502   4.957 -0.8196 -0.1920 -0.6199
  231MOL0     N31067   1.894   3.442   4.950  0.6919 -0.0024 -0.1854
  231MOL0     C31068   1.928   3.327   4.884  0.3588 -0.7122  0.5781
  231MOL0     C31069   2.062   3.329   4.880  0.4496  0.1431 -0.3039
  231MOL0     C31070   2.134   3.206   4.843  0.4310 -0.4370  0.0563
  231MOL0     C31071   2.256   3.173   4.931 -0.0038  0.1369 -0.1079
  231MOL0     C31072   2.392   3.228   4.887 -0.3652 -0.1487  0.3838
  231MOL0     C31073   2.496   3.203   4.996 -0.0990  0.2136  0.0314
  231MOL0     O31074   2.615   3.266   4.944  0.1393 -0.3893  0.4851
  231MOL0     C31075   2.737   3.198   4.975  0.3981 -0.2776 -0.3045
  231MOL0     C31076   2.759   3.102   5.072 -0.7387  0.1304  0.6380
  231MOL0     C31077   2.883   3.048   5.091 -0.4963 -0.2189  0.2530
  231MOL0     C31078   2.992   3.079   5.013 -1.1316 -0.0493  0.0142
  231MOL0     C31079   3.113   3.001   5.031 -0.0689  0.6703 -0.5901
  231MOL0     O31080   3.109   2.883   5.104  0.0799 -0.2510  0.2319
  231MOL0     C31081   3.231   2.821   5.148 -0.5261 -1.0636 -0.5153
  231MOL0     C31082   3.349   2.807   5.076 -0.3225 -0.9062  0.6832
  231MOL0     C31083   3.464   2.745   5.130  0.0883  0.7363 -0.2240
  231MOL0     C31084   3.464   2.699   5.266 -0.1931  0.5841  0.1027
  231MOL0     O31085   3.568   2.628   5.314  0.9132  0.3639  0.1396
  231MOL0     C31086   3.671   2.720   5.354 -0.5338  0.7765 -0.5759
  231MOL0     C31087   3.796   2.705   5.270 -0.3861  0.3174  0.6027
  231MOL0     C31088   3.864   2.568   5.286  0.4971 -0.4160  0.3184
  231MOL0     C31089   3.988   2.562   5.196 -0.3600  0.6747  1.0366
  231MOL0     C31090   4.073   2.433   5.223 -0.0150 -0.0095 -0.7055
  231MOL0     C31091   4.192   2.437   5.123 -0.4989 -0.0566  0.5767
  231MOL0     C31092   4.248   2.294   5.139 -0.7678  0.4347  0.1149
  231MOL0     C31093   4.378   2.262   5.067 -0.9079 -0.5058  0.7579
  231MOL0    Cl31094   4.514   2.366   5.135  0.2681  0.4091  0.0609
  231MOL0     C31095   3.342   2.715   5.334 -0.0226  0.1859 -0.2081
  231MOL0     C31096   3.232   2.774   5.285 -0.0172  0.0871  0.7167
  231MOL0     O31097   3.217   3.059   4.991 -0.5039 -0.0092 -0.2393
  231MOL0     C31098   2.975   3.180   4.914 -0.2059  0.6953 -0.0803
  231MOL0     C31099   2.850   3.236   4.894  0.1194 -0.3527  0.2009
  231MOL0     N31100   2.108   3.435   4.945  0.0067 -1.1354  0.4587
  231MOL0     N31101   2.007   3.499   5.005  0.0919  0.2773  0.3967
  231MOL0     C31102   0.673   3.809   4.765  0.5479  0.3950  0.2891
  231MOL0     C31103   0.532   3.795   4.763  0.5256 -0.2375  0.3388
  231MOL0     C31104   0.166   3.548   4.636  0.1515  0.2997 -1.1591
  231MOL0     C31105   0.137   3.483   4.514 -0.0240 -0.3408  0.2792
  231MOL0     C31106   0.023   3.393   4.501  0.1525 -0.2837  0.0494
  231MOL0     C31107  -0.066   3.376   4.609  0.1359 -0.2489  0.5089
  231MOL0     O31108  -0.153   3.275   4.593  0.0356  0.1947 -0.7346
  231MOL0     C31109  -0.251   3.251   4.697 -0.4745 -0.3196  0.7078
  231MOL0     C31110  -0.377   3.333   4.663  0.2580  0.5218 -0.3717
  231MOL0     C31111  -0.426   3.354   4.518  0.0462  0.9519 -1.0969
  231MOL0     C31112  -0.559   3.426   4.500 -0.3902 -0.4152 -0.6294
  231MOL0     C31113  -0.547   3.558   4.551  0.0203 -0.8172  0.4621
  231MOL0     C31114  -0.560   3.675   4.588  0.0880 -0.0393  0.5286
  231MOL0     C31115  -0.049   3.460   4.719 -0.7308  0.1054 -0.1020
  231MOL0     C31116   0.069   3.543   4.738  1.0699 -0.2359 -0.3044
  231MOL0     C31117   0.073   3.629   4.857 -0.3722 -0.0908 -1.0265
  231MOL0     H31118   0.531   3.467   4.831 -0.4669  0.1356 -0.9238
  231MOL0     H31119   0.781   3.500   4.826  0.2425 -0.1243 -4.0233
  231MOL0     H31120   1.021   3.592   4.875 -1.2955 -1.5548 -1.1270
  231MOL0     H31121   1.011   3.580   4.699 -2.5924  2.2169 -1.6800
  231MOL0     H31122   1.141   3.779   4.867 -3.4218  0.4018 -0.6382
  231MOL0     H31123   1.131   3.805   4.687  1.8899  1.2003  0.8189
  231MOL0     H31124   1.258   3.574   4.667  1.3421  0.0056  0.4145
  231MOL0     H31125   1.273   3.583   4.836 -0.6153 -2.1803 -1.3102
  231MOL0     H31126   1.370   3.802   4.639 -2.8456 -1.6839 -1.4576
  231MOL0     H31127   1.404   3.803   4.814 -1.0795 -1.1727  0.5517
  231MOL0     H31128   1.473   3.563   4.644 -0.6070 -1.1893  2.8127
  231MOL0     H31129   1.577   3.713   4.641 -1.5357  1.0027 -0.4632
  231MOL0     H31130   1.591   3.720   4.888 -0.7174  0.0122 -0.8101
  231MOL0     H31131   1.527   3.545   4.878 -2.2039  1.4765 -0.3682
  231MOL0     H31132   1.804   3.601   4.766 -1.5384 -0.4447 -2.3677
  231MOL0     H31133   1.704   3.457   4.764 -1.7991  1.2911 -1.1293
  231MOL0     H31134   1.761   3.586   5.027 -2.2577 -0.5725 -0.0603
  231MOL0     H31135   1.682   3.424   4.972  0.1610 -1.8145 -3.3548
  231MOL0     H31136   1.865   3.240   4.869 -1.0552 -0.3875  3.8303
  231MOL0     H31137   2.061   3.127   4.862 -0.4333  1.0855  3.9902
  231MOL0     H31138   2.158   3.204   4.736 -1.6475 -0.4549 -0.4468
  231MOL0     H31139   2.221   3.203   5.031 -2.0044  1.2543 -1.0884
  231MOL0     H31140   2.264   3.064   4.933  1.4133  0.2208  1.7953
  231MOL0     H31141   2.382   3.334   4.864 -0.2868 -0.2734 -0.2567
  231MOL0     H31142   2.419   3.186   4.789  1.1426  0.5553  0.4676
  231MOL0     H31143   2.516   3.096   5.005 -1.2058  0.0372  0.5738
  231MOL0     H31144   2.462   3.251   5.088 -0.4050 -1.9603  1.0966
  231MOL0     H31145   2.688   3.079   5.151  0.6235 -2.5717  1.2033
  231MOL0     H31146   2.875   2.968   5.163 -0.4877 -0.8776 -0.4646
  231MOL0     H31147   3.360   2.849   4.977  4.9222 -0.6338  1.0754
  231MOL0     H31148   3.547   2.732   5.062 -0.0491  0.5289 -0.3551
  231MOL0     H31149   3.634   2.822   5.365  2.1962  1.5777  2.7956
  231MOL0     H31150   3.697   2.690   5.456  2.1452  1.0935 -1.1001
  231MOL0     H31151   3.770   2.724   5.165  0.9449 -3.0785 -0.4580
  231MOL0     H31152   3.863   2.789   5.291  0.5342  0.4093 -2.2802
  231MOL0     H31153   3.900   2.557   5.388 -0.7541 -0.7143  0.7518
  231MOL0     H31154   3.790   2.496   5.251 -1.8689  2.9427 -2.3385
  231MOL0     H31155   4.045   2.653   5.214 -1.5890  1.6757 -0.0051
  231MOL0     H31156   3.961   2.581   5.092 -2.6623  1.0620  1.6545
  231MOL0     H31157   4.005   2.351   5.197  1.7026 -1.6375 -0.3178
  231MOL0     H31158   4.099   2.443   5.328  0.8172  2.1755 -1.0617
  231MOL0     H31159   4.148   2.437   5.022  0.9875 -1.2505 -0.1086
  231MOL0     H31160   4.262   2.518   5.141  2.2272 -2.1149 -0.1459
  231MOL0     H31161   4.175   2.216   5.114  1.2439 -2.3674  2.4485
  231MOL0     H31162   4.265   2.291   5.247 -1.2474  1.4926  0.2431
  231MOL0     H31163   4.391   2.157   5.097  0.9533 -0.4174  0.3967
  231MOL0     H31164   4.376   2.272   4.958  0.0454  0.2629  0.7971
  231MOL0     H31165   3.345   2.681   5.437  3.4752  1.4810  0.2533
  231MOL0     H31166   3.138   2.791   5.337 -0.1874 -1.6597  1.0317
  231MOL0     H31167   3.052   3.215   4.846 -1.7208  0.2428 -2.0909
  231MOL0     H31168   2.840   3.310   4.815 -3.4121 -1.0760 -0.2246
  231MOL0     H31169   0.708   3.911   4.762 -1.6860  1.2662  1.5513
  231MOL0     H31170   0.461   3.876   4.749  0.5989  0.2342  2.3937
  231MOL0     H31171   0.192   3.499   4.422  1.9946 -2.5681  0.9972
  231MOL0     H31172   0.010   3.333   4.412 -2.0048 -2.3982  1.6526
  231MOL0     H31173  -0.205   3.275   4.794  2.5567  2.7840 -1.2659
  231MOL0     H31174  -0.266   3.143   4.689  0.9964 -0.5534  0.7658
  231MOL0     H31175  -0.368   3.432   4.709  1.9704  1.2977 -2.2264
  231MOL0     H31176  -0.455   3.282   4.719  0.6190  0.6380  0.2448
  231MOL0     H31177  -0.433   3.261   4.461 -2.1423  0.2419  0.2020
  231MOL0     H31178  -0.346   3.415   4.476  1.9852 -0.6271  0.1294
  231MOL0     H31179  -0.578   3.433   4.393 -1.2614  1.0028 -0.4207
  231MOL0     H31180  -0.639   3.371   4.551 -0.4833  0.2648 -0.0122
  231MOL0     H31181  -0.578   3.777   4.616 -0.0036 -0.2150  1.1444
  231MOL0     H31182  -0.130   3.466   4.791 -1.2603  0.4857 -0.7231
  231MOL0     H31183   0.157   3.607   4.923 -1.9591  0.2740  1.2270
  231MOL0     H31184   0.058   3.731   4.818  2.1066  0.8921  0.3930
  231MOL0     H31185  -0.008   3.606   4.927 -1.0341 -1.6145 -2.2288
  232MOL0     O31186  10.064   0.996  10.320 -0.6624 -0.0470  0.0480
  232MOL0     C31187  10.019   0.899  10.255  0.0998  0.8118 -0.5098
  232MOL0     O31188  10.085   0.782  10.229  0.7333 -0.4430  0.0302
  232MOL0     C31189  10.218   0.792  10.256 -0.0248  0.7612 -1.0446
  232MOL0     C31190  10.260   0.816  10.380 -0.4435  0.2745  0.4317
  232MOL0     C31191  10.395   0.809  10.409  0.1019 -0.0149  0.1248
  232MOL0     C31192  10.489   0.783  10.307 -0.1970  0.4989  0.5729
  232MOL0     O31193  10.619   0.778  10.335 -0.2098 -0.3943  1.3878
  232MOL0     C31194  10.681   0.908  10.352  0.2882 -0.1400  1.1018
  232MOL0     C31195  10.826   0.884  10.388  0.3499  0.5931  0.1396
  232MOL0     C31196  10.916   1.002  10.415  0.4709 -0.5759  0.1539
  232MOL0     C31197  11.054   0.945  10.446  0.1172 -0.3909  0.3589
  232MOL0     C31198  11.152   1.057  10.485  0.7988  0.6167 -0.1812
  232MOL0     C31199  11.281   0.988  10.530  0.0725  0.1209  0.6782
  232MOL0     C31200  11.397   1.095  10.554 -0.7096 -1.2376 -0.2168
  232MOL0     C31201  11.532   1.034  10.570 -0.3653 -0.8446 -0.0139
  232MOL0     N31202  11.545   0.937  10.683  0.4899 -0.0793 -0.0552
  232MOL0     C31203  11.522   0.801  10.667 -0.1642 -0.3068 -0.5650
  232MOL0     C31204  11.494   0.756  10.791 -1.4856  0.4227  0.1044
  232MOL0     C31205  11.485   0.615  10.833 -0.2925 -0.0483 -0.6775
  232MOL0     C31206  11.615   0.541  10.841  0.0803 -0.2311  0.1737
  232MOL0     C31207  11.730   0.612  10.917  0.0557  0.8725 -0.1237
  232MOL0     C31208  11.854   0.525  10.924  0.0394  0.2073 -0.4000
  232MOL0     O31209  11.968   0.592  10.964 -0.7227 -0.6180  0.0020
  232MOL0     C31210  12.088   0.518  10.973  1.0414  0.0335 -0.1483
  232MOL0     C31211  12.122   0.404  10.897  0.1491  0.1721 -0.4790
  232MOL0     C31212  12.256   0.360  10.895  0.5824  1.3721 -0.4307
  232MOL0     C31213  12.355   0.413  10.975  0.4310  0.1167 -0.2929
  232MOL0     C31214  12.498   0.382  10.961 -0.2808  0.3005 -0.2102
  232MOL0     O31215  12.579   0.418  11.073 -0.0781  0.5188 -0.1066
  232MOL0     C31216  12.718   0.400  11.068  1.0551 -0.4782  0.2579
  232MOL0     C31217  12.793   0.355  10.959  1.0653  0.4521 -0.0058
  232MOL0     C31218  12.929   0.331  10.986  0.3801 -0.2971  0.5095
  232MOL0     C31219  12.983   0.353  11.112 -0.9448 -0.8278  0.1273
  232MOL0     O31220  13.112   0.328  11.147 -0.0067 -0.4633  0.1825
  232MOL0     C31221  13.213   0.316  11.040 -0.6962  0.1816  0.0352
  232MOL0     C31222  13.358   0.311  11.092 -0.3319  0.3811  0.8551
  232MOL0     C31223  13.447   0.247  10.988  0.2860  0.0085 -0.2882
  232MOL0     C31224  13.592   0.234  11.041  0.4561 -0.1911 -0.3367
  232MOL0     C31225  13.659   0.367  11.043  0.5843 -0.5458 -0.1565
  232MOL0     C31226  13.809   0.386  11.013 -0.4266  0.3460 -0.2532
  232MOL0     C31227  13.904   0.320  11.105 -0.1290  0.2032  0.2695
  232MOL0     C31228  14.049   0.326  11.037  0.0938 -0.0163 -0.2387
  232MOL0    Cl31229  14.098   0.484  10.977 -0.5897 -0.0879 -0.6615
  232MOL0     C31230  12.908   0.396  11.213 -0.0215 -0.6717  0.2748
  232MOL0     C31231  12.775   0.417  11.194  0.2219 -0.4291 -0.3450
  232MOL0     O31232  12.530   0.310  10.867 -0.2612  0.2579 -0.7358
  232MOL0     C31233  12.315   0.524  11.056 -0.8199  1.5790 -0.5800
  232MOL0     C31234  12.189   0.576  11.055  0.0931 -0.0430  0.0975
  232MOL0     N31235  11.481   0.868  10.872 -0.3163 -0.6636 -0.1266
  232MOL0     N31236  11.501   0.976  10.809  1.2673 -0.1923  0.1340
  232MOL0     C31237  10.443   0.743  10.179  0.8433 -0.1391 -0.1262
  232MOL0     C31238  10.306   0.743  10.154 -0.1079  0.0379  0.4706
  232MOL0     C31239   9.878   0.912  10.194  0.4453 -0.2832  0.0659
  232MOL0     C31240   9.798   0.801  10.193 -0.7715  1.0233  0.3388
  232MOL0     C31241   9.674   0.795  10.135  0.0866 -0.7130  0.4053
  232MOL0     C31242   9.627   0.910  10.085  0.7278 -1.2117  0.5855
  232MOL0     O31243   9.507   0.910  10.015  0.1409 -1.3824  0.1347
  232MOL0     C31244   9.391   0.913  10.101 -0.5388  0.2804 -0.3013
  232MOL0     C31245   9.266   0.882  10.013 -0.6904 -0.5114  0.2552
  232MOL0     C31246   9.137   0.840  10.094 -0.6688 -0.2145 -0.1507
  232MOL0     C31247   9.097   0.944  10.195 -0.4207  0.2324 -0.1054
  232MOL0     C31248   9.020   0.889  10.306  0.2763  0.3143 -1.2010
  232MOL0     C31249   8.966   0.828  10.398  0.0550  0.2325 -0.8018
  232MOL0     C31250   9.695   1.034  10.095 -0.1558 -0.1335  0.0708
  232MOL0     C31251   9.826   1.035  10.140  0.4650  0.6989 -0.3115
  232MOL0     C31252   9.906   1.160  10.132  0.4641  0.1837  0.4411
  232MOL0     H31253  10.192   0.834  10.463  1.1132  0.7521  1.6551
  232MOL0     H31254  10.433   0.850  10.502  1.8274 -0.0112 -0.5436
  232MOL0     H31255  10.676   0.950  10.251  1.3250 -4.6480 -1.0827
  232MOL0     H31256  10.642   0.981  10.423 -0.2427 -0.5723  1.2640
  232MOL0     H31257  10.870   0.821  10.310  0.8803  0.8987  0.1893
  232MOL0     H31258  10.813   0.820  10.475 -2.0069  0.3087 -0.3305
  232MOL0     H31259  10.873   1.062  10.495 -4.9099 -0.1239 -2.5883
  232MOL0     H31260  10.913   1.069  10.329  0.9955  1.1235  1.4062
  232MOL0     H31261  11.051   0.886  10.538  2.8379 -1.0408  0.1235
  232MOL0     H31262  11.080   0.886  10.357  1.6390  3.2068 -1.7814
  232MOL0     H31263  11.167   1.130  10.404  0.4614 -0.4778 -1.2585
  232MOL0     H31264  11.102   1.113  10.565 -1.6695  1.7899 -2.3962
  232MOL0     H31265  11.251   0.933  10.620 -0.9262 -1.2793 -0.4650
  232MOL0     H31266  11.310   0.920  10.450 -1.2916  0.4395 -0.1135
  232MOL0     H31267  11.369   1.160  10.637 -0.4859 -0.9037 -0.4015
  232MOL0     H31268  11.401   1.160  10.466 -0.5941 -1.8234 -0.6523
  232MOL0     H31269  11.556   0.987  10.475 -0.5208  1.6825 -1.3938
  232MOL0     H31270  11.605   1.113  10.591 -1.8593  0.2548  1.2916
  232MOL0     H31271  11.531   0.751  10.571 -1.4466  1.0568 -1.4583
  232MOL0     H31272  11.438   0.612  10.931  1.9479  1.2605  0.5340
  232MOL0     H31273  11.413   0.559  10.774 -0.7110 -2.0517  1.5857
  232MOL0     H31274  11.589   0.442  10.882  0.2539 -0.7301 -0.8953
  232MOL0     H31275  11.650   0.526  10.739 -0.3259  2.3347 -0.4121
  232MOL0     H31276  11.701   0.642  11.018  2.9882  0.2895  1.0074
  232MOL0     H31277  11.770   0.699  10.865  1.5941 -0.1292 -0.6942
  232MOL0     H31278  11.869   0.479  10.826 -0.5389  2.0079 -1.3759
  232MOL0     H31279  11.823   0.444  10.991  1.4733  0.1779  0.2778
  232MOL0     H31280  12.046   0.350  10.840 -3.2142  0.6899  3.1065
  232MOL0     H31281  12.284   0.276  10.832 -0.0099  1.0379 -0.2521
  232MOL0     H31282  12.767   0.322  10.859  4.6875 -0.1420 -0.8617
  232MOL0     H31283  12.991   0.277  10.916 -0.0037 -2.8588  2.0209
  232MOL0     H31284  13.191   0.231  10.975 -1.5913  0.4017  0.0300
  232MOL0     H31285  13.192   0.403  10.977 -2.3048  0.7178  1.2441
  232MOL0     H31286  13.392   0.411  11.121 -0.8306  1.2368 -1.3617
  232MOL0     H31287  13.357   0.246  11.181 -2.7540 -0.9412 -0.0491
  232MOL0     H31288  13.408   0.149  10.960  0.0105  0.0077  0.0808
  232MOL0     H31289  13.441   0.308  10.898  0.8826  0.4368 -0.0418
  232MOL0     H31290  13.648   0.170  10.973  0.6905  0.4038 -0.7121
  232MOL0     H31291  13.594   0.191  11.142 -1.2757 -1.2467 -0.7133
  232MOL0     H31292  13.639   0.410  11.142  2.1979 -0.3540  0.1233
  232MOL0     H31293  13.611   0.439  10.976  0.4173 -0.4004  0.1136
  232MOL0     H31294  13.820   0.344  10.912 -0.2528  2.7164 -1.2894
  232MOL0     H31295  13.838   0.491  11.010  0.5791  0.0762 -0.6967
  232MOL0     H31296  13.866   0.218  11.116 -0.3261  0.2689  0.1889
  232MOL0     H31297  13.904   0.378  11.198 -1.4471 -1.7368  1.5515
  232MOL0     H31298  14.111   0.286  11.118  1.2379  0.8631 -0.6533
  232MOL0     H31299  14.063   0.249  10.961 -1.3425  0.9287 -1.5126
  232MOL0     H31300  12.966   0.395  11.305  0.8703 -0.9596 -0.2772
  232MOL0     H31301  12.697   0.442  11.265 -2.0530 -2.1144 -2.0900
  232MOL0     H31302  12.391   0.571  11.117  1.0723 -1.5313 -0.3148
  232MOL0     H31303  12.163   0.667  11.108  0.8529  0.9414 -1.1711
  232MOL0     H31304  10.521   0.721  10.107  1.1198 -2.9546  0.8926
  232MOL0     H31305  10.277   0.704  10.056  1.3023  0.6444 -0.2109
  232MOL0     H31306   9.840   0.710  10.236 -0.3224  1.8038  1.5935
  232MOL0     H31307   9.621   0.702  10.118  0.1052 -0.5224 -0.7706
  232MOL0     H31308   9.382   1.015  10.140  0.7526  0.7846 -1.2858
  232MOL0     H31309   9.402   0.842  10.184 -1.7120  0.3731 -0.0528
  232MOL0     H31310   9.289   0.794   9.953 -0.6874 -1.1236  1.1329
  232MOL0     H31311   9.245   0.959   9.938  0.6139 -2.0521 -1.7840
  232MOL0     H31312   9.159   0.745  10.144  0.6707 -0.1234 -0.5205
  232MOL0     H31313   9.054   0.814  10.028 -0.1714 -2.9942  0.1870
  232MOL0     H31314   9.191   0.990  10.227  1.2754 -1.9265 -1.6488
  232MOL0     H31315   9.032   1.015  10.142 -2.1119  0.4469  2.1275
  232MOL0     H31316   8.909   0.763  10.462 -0.8515  1.1070 -0.7049
  232MOL0     H31317   9.670   1.130  10.052  3.8054  0.7050 -0.7519
  232MOL0     H31318   9.845   1.245  10.100 -0.4774  0.1826  2.0853
  232MOL0     H31319   9.944   1.190  10.230 -2.6646  0.4900  1.6880
  232MOL0     H31320   9.998   1.159  10.073  1.8918 -1.4967  2.5074
  233MOL0     O31321   4.597   2.114   0.323 -0.0079 -0.3291  1.0037
  233MOL0     C31322   4.611   2.014   0.388 -0.4545  0.9068  0.5097
  233MOL0     O31323   4.714   1.979   0.463 -1.3537  0.4188 -0.3242
  233MOL0     C31324   4.835   2.028   0.428 -0.4430 -0.1390 -0.3798
  233MOL0     C31325   4.896   2.028   0.300  0.0459  0.0203 -0.0958
  233MOL0     C31326   5.027   2.074   0.279 -0.1017  0.1263  0.0835
  233MOL0     C31327   5.091   2.133   0.386  0.2489 -0.0229  0.1638
  233MOL0     O31328   5.225   2.175   0.368 -0.1224  0.2291 -0.3068
  233MOL0     C31329   5.292   2.284   0.440  0.2408 -0.7211  0.0231
  233MOL0     C31330   5.434   2.328   0.375 -0.1114 -0.2544 -1.0944
  233MOL0     C31331   5.527   2.340   0.497 -0.4756  0.2571  0.6400
  233MOL0     C31332   5.577   2.204   0.553 -0.6118 -0.4147  0.3142
  233MOL0     C31333   5.713   2.221   0.618  0.9147 -0.0590 -0.5266
  233MOL0     C31334   5.825   2.241   0.520 -0.8616 -0.4240 -0.7565
  233MOL0     C31335   5.944   2.296   0.603  0.7128  0.1238  0.5899
  233MOL0     C31336   6.072   2.294   0.528 -0.1809  0.9056 -0.4395
  233MOL0     N31337   6.180   2.367   0.597 -0.0173 -0.3697 -0.0561
  233MOL0     C31338   6.205   2.502   0.590  1.0404  0.4020  0.2872
  233MOL0     C31339   6.324   2.507   0.658  0.6207 -0.1879 -0.4484
  233MOL0     C31340   6.403   2.635   0.674 -0.1642  0.0673  0.0698
  233MOL0     C31341   6.508   2.653   0.572  0.2645 -0.4225  0.7377
  233MOL0     C31342   6.539   2.801   0.548 -0.8166  0.4751  0.6473
  233MOL0     C31343   6.688   2.827   0.507 -0.0769  0.5784  0.3965
  233MOL0     O31344   6.770   2.793   0.617 -0.2328  0.6755 -0.3187
  233MOL0     C31345   6.901   2.780   0.600  0.6180 -0.1477 -0.5636
  233MOL0     C31346   6.962   2.737   0.721 -0.5227 -0.0306  0.7010
  233MOL0     C31347   7.097   2.697   0.724 -0.3189 -0.3234 -0.2545
  233MOL0     C31348   7.177   2.706   0.607 -0.1959 -0.1090  0.0324
  233MOL0     C31349   7.301   2.638   0.599  0.1024  0.0850  0.2716
  233MOL0     O31350   7.349   2.613   0.726  0.0895 -0.2315 -0.5600
  233MOL0     C31351   7.483   2.580   0.745  0.6118  0.3524  0.1531
  233MOL0     C31352   7.510   2.579   0.879 -0.5608 -0.4171 -0.1085
  233MOL0     C31353   7.648   2.553   0.927  0.0382 -0.5747 -0.8781
  233MOL0     C31354   7.750   2.526   0.834  0.7166  0.3356  0.1523
  233MOL0     O31355   7.883   2.493   0.865 -0.5666  0.4245 -0.2326
  233MOL0     C31356   7.906   2.458   1.001 -0.2589  0.9655  0.7469
  233MOL0     C31357   8.053   2.433   1.040  0.2799  0.4551 -0.3516
  233MOL0     C31358   8.061   2.391   1.186 -0.2528 -0.3512  0.4650
  233MOL0     C31359   7.991   2.270   1.227 -0.1382 -0.0534  0.9941
  233MOL0     C31360   8.036   2.213   1.366  0.3130  0.2223 -0.1148
  233MOL0     C31361   8.180   2.154   1.361 -0.0042  0.3675  0.5055
  233MOL0     C31362   8.236   2.137   1.496  0.8423 -0.1149 -0.0048
  233MOL0     C31363   8.299   2.262   1.548  0.2047  1.2708  0.4258
  233MOL0    Cl31364   8.397   2.358   1.434 -0.4831  0.5888  0.5517
  233MOL0     C31365   7.716   2.538   0.703  0.3997  0.1503 -0.0882
  233MOL0     C31366   7.587   2.567   0.652 -0.3776 -0.5320 -0.1002
  233MOL0     O31367   7.361   2.639   0.493 -0.0875 -0.2920 -0.3612
  233MOL0     C31368   7.118   2.761   0.492  0.5744  0.3223  0.0204
  233MOL0     C31369   6.981   2.802   0.484  0.7734 -1.2219 -0.1846
  233MOL0     N31370   6.380   2.384   0.698 -0.3748 -0.3079  0.6091
  233MOL0     N31371   6.283   2.309   0.665 -0.6934 -0.2109  0.1632
  233MOL0     C31372   5.029   2.153   0.508  0.0685 -0.0734 -0.3488
  233MOL0     C31373   4.904   2.092   0.527  0.3040  0.1949  0.0673
  233MOL0     C31374   4.499   1.906   0.383  0.0172  0.3183  0.4943
  233MOL0     C31375   4.524   1.783   0.446 -0.0719  0.0902  0.2662
  233MOL0     C31376   4.436   1.679   0.431 -0.3404 -0.1284 -0.0692
  233MOL0     C31377   4.310   1.690   0.377 -0.0874 -0.3796 -0.5906
  233MOL0     O31378   4.224   1.586   0.394  0.0045 -0.1104 -0.2621
  233MOL0     C31379   4.100   1.585   0.309 -0.4119  0.0100 -0.2497
  233MOL0     C31380   4.058   1.438   0.314 -0.2800  0.9556  0.3062
  233MOL0     C31381   3.923   1.414   0.228 -0.7219  0.1190  0.2356
  233MOL0     C31382   3.869   1.271   0.227  0.2762 -1.0702  0.1065
  233MOL0     C31383   3.796   1.234   0.352  1.1712  0.0092  0.4971
  233MOL0     C31384   3.722   1.204   0.450  0.1567 -0.5004 -0.3570
  233MOL0     C31385   4.289   1.814   0.311  0.2841 -0.0781  0.7161
  233MOL0     C31386   4.378   1.922   0.314  0.1542  0.7586  0.2990
  233MOL0     C31387   4.331   2.048   0.250 -0.4370 -0.5121 -0.6958
  233MOL0     H31388   4.847   1.984   0.213  1.2529 -0.1114 -0.7412
  233MOL0     H31389   5.055   2.085   0.175  1.4523  1.6955  0.6277
  233MOL0     H31390   5.221   2.367   0.429  1.9234  0.5932 -1.6964
  233MOL0     H31391   5.302   2.248   0.543 -2.3253  2.2083  1.4571
  233MOL0     H31392   5.438   2.425   0.323  3.5610  0.1682 -0.2501
  233MOL0     H31393   5.464   2.243   0.314  0.8239 -1.0851  0.4623
  233MOL0     H31394   5.486   2.395   0.583 -2.2968 -0.7566  0.4681
  233MOL0     H31395   5.612   2.394   0.455  1.8950 -4.0526 -0.6909
  233MOL0     H31396   5.505   2.157   0.620  0.5451 -1.1663  1.0599
  233MOL0     H31397   5.583   2.147   0.460  2.4035 -1.0133  0.7571
  233MOL0     H31398   5.721   2.314   0.677 -0.3169 -0.1607 -0.1615
  233MOL0     H31399   5.720   2.145   0.696 -0.4225  1.4775  1.2108
  233MOL0     H31400   5.859   2.143   0.483  1.1400  0.7048 -2.0905
  233MOL0     H31401   5.789   2.300   0.436 -0.3382  2.6411  1.0422
  233MOL0     H31402   5.943   2.229   0.690  0.2286 -1.0749 -0.3220
  233MOL0     H31403   5.928   2.396   0.645 -1.3162 -0.5006  1.4628
  233MOL0     H31404   6.103   2.191   0.508  0.3879  1.1159 -0.6703
  233MOL0     H31405   6.052   2.334   0.428 -1.1944  1.5006 -0.0183
  233MOL0     H31406   6.149   2.588   0.554  3.4979  2.4040  0.9608
  233MOL0     H31407   6.336   2.720   0.654 -0.6105 -0.5873 -1.3859
  233MOL0     H31408   6.451   2.649   0.771  1.7655  0.4482 -0.9041
  233MOL0     H31409   6.599   2.600   0.601  0.0884 -1.0437  0.1813
  233MOL0     H31410   6.483   2.615   0.473 -1.0262  2.4961 -0.1832
  233MOL0     H31411   6.527   2.856   0.641 -1.8804  1.0621  0.1788
  233MOL0     H31412   6.466   2.847   0.481 -1.7858  2.2803  2.8149
  233MOL0     H31413   6.713   2.932   0.489  4.2042 -0.2272  0.5890
  233MOL0     H31414   6.723   2.765   0.424  2.0573 -0.2678  1.8512
  233MOL0     H31415   6.897   2.721   0.806 -2.7860 -0.9710 -1.0871
  233MOL0     H31416   7.133   2.647   0.813  1.0713 -0.0883 -0.6581
  233MOL0     H31417   7.438   2.620   0.949  0.5151 -0.0001  0.8022
  233MOL0     H31418   7.668   2.548   1.034 -0.9256 -2.3826 -0.7420
  233MOL0     H31419   7.876   2.536   1.073 -1.6750 -0.9736  2.3743
  233MOL0     H31420   7.846   2.368   1.017  0.8531  0.4276  2.0882
  233MOL0     H31421   8.085   2.357   0.968 -2.2360  0.2426 -1.3400
  233MOL0     H31422   8.114   2.521   1.021 -0.4077  1.5001  1.9034
  233MOL0     H31423   8.170   2.384   1.199 -0.4512  0.0868  2.7201
  233MOL0     H31424   8.028   2.473   1.250  2.2721  0.1033  1.2904
  233MOL0     H31425   7.999   2.198   1.145  2.7068  0.6300  0.5871
  233MOL0     H31426   7.888   2.305   1.241 -0.2002  1.4344 -2.3150
  233MOL0     H31427   7.965   2.148   1.418  1.7451 -0.8124  0.6012
  233MOL0     H31428   8.039   2.297   1.437  0.9732  0.6122 -0.5957
  233MOL0     H31429   8.174   2.056   1.313  2.4773  0.5394 -0.3050
  233MOL0     H31430   8.249   2.212   1.298 -1.1073  1.8313  0.5857
  233MOL0     H31431   8.317   2.065   1.478  1.8331  0.9991 -0.1102
  233MOL0     H31432   8.155   2.097   1.558  0.9137  1.5676  1.2357
  233MOL0     H31433   8.221   2.329   1.584  2.1199  2.3554  2.8467
  233MOL0     H31434   8.357   2.232   1.635 -1.3505 -0.4248  0.9332
  233MOL0     H31435   7.807   2.543   0.645  1.4430 -0.9112  1.3822
  233MOL0     H31436   7.576   2.571   0.544 -0.1883 -0.4542 -0.1171
  233MOL0     H31437   7.189   2.770   0.411  0.3277 -1.0555 -0.3809
  233MOL0     H31438   6.945   2.867   0.404  2.9489  0.2859 -0.0370
  233MOL0     H31439   5.074   2.205   0.593  1.0484  0.3190 -1.0840
  233MOL0     H31440   4.859   2.089   0.626  0.5582  0.3672  0.1885
  233MOL0     H31441   4.613   1.780   0.508  0.0133  1.2038  0.2151
  233MOL0     H31442   4.460   1.583   0.475 -0.1405  0.6617  1.6506
  233MOL0     H31443   4.123   1.621   0.208 -0.2416  0.2068 -0.1385
  233MOL0     H31444   4.030   1.652   0.359 -1.0207  0.6876 -1.9250
  233MOL0     H31445   4.056   1.409   0.420  2.3153 -1.2632 -0.1246
  233MOL0     H31446   4.132   1.367   0.275 -2.3581 -1.5730  0.6307
  233MOL0     H31447   3.953   1.442   0.127 -0.5459 -0.0100  0.2522
  233MOL0     H31448   3.841   1.480   0.261 -2.8406 -2.8174  1.2506
  233MOL0     H31449   3.801   1.252   0.143  0.4778 -2.9795  0.3339
  233MOL0     H31450   3.951   1.202   0.206  1.2582 -0.3423  1.3927
  233MOL0     H31451   3.660   1.157   0.523  0.7169  0.4555  0.7604
  233MOL0     H31452   4.201   1.817   0.247  0.5675 -3.5816 -0.0307
  233MOL0     H31453   4.236   2.036   0.197 -0.2020 -0.6104 -1.1006
  233MOL0     H31454   4.308   2.115   0.333  3.0497 -1.2414  1.0336
  233MOL0     H31455   4.389   2.097   0.171  0.6648 -2.0936 -0.9221
  234MOL0     O31456   8.212   1.945   8.252 -0.8047 -0.1094  0.3329
  234MOL0     C31457   8.183   1.934   8.132 -0.2398  0.4831 -0.1129
  234MOL0     O31458   8.264   1.952   8.025  0.5515 -0.0118 -0.5359
  234MOL0     C31459   8.387   2.008   8.033  0.5512 -0.0513  0.2991
  234MOL0     C31460   8.423   2.104   7.935  0.9029 -0.4700 -1.6010
  234MOL0     C31461   8.555   2.157   7.941 -0.6556  0.0693 -0.0644
  234MOL0     C31462   8.650   2.111   8.036  0.3891  0.0136  0.1370
  234MOL0     O31463   8.786   2.143   8.038 -0.7675 -0.7964  0.3937
  234MOL0     C31464   8.828   2.262   7.972 -0.7574  0.2744 -0.5634
  234MOL0     C31465   8.975   2.275   7.979  1.0628  0.2144 -0.5366
  234MOL0     C31466   9.020   2.389   7.897 -0.0516  0.6941 -0.6836
  234MOL0     C31467   9.174   2.391   7.872 -0.5080  0.1494 -1.2036
  234MOL0     C31468   9.262   2.397   7.996  0.1722 -0.1584  0.4437
  234MOL0     C31469   9.396   2.312   7.979 -0.6502 -0.3979  0.1867
  234MOL0     C31470   9.514   2.348   8.071  0.7160  0.4219  0.3035
  234MOL0     C31471   9.474   2.356   8.211  0.1885 -0.2107 -0.3922
  234MOL0     N31472   9.601   2.362   8.276 -0.7721 -0.9458 -0.7916
  234MOL0     C31473   9.670   2.484   8.302  0.1252 -0.4740  0.1037
  234MOL0     C31474   9.764   2.440   8.389 -0.5405  0.3194 -0.2518
  234MOL0     C31475   9.861   2.522   8.466 -0.5791 -0.1957  0.4379
  234MOL0     C31476   9.983   2.561   8.395 -0.2508 -0.1520  0.1474
  234MOL0     C31477  10.099   2.456   8.403 -0.0044  0.1615 -0.4446
  234MOL0     C31478  10.215   2.510   8.327 -0.0811 -0.1408  0.2349
  234MOL0     O31479  10.265   2.641   8.369 -0.4095  0.2620 -0.1672
  234MOL0     C31480  10.399   2.634   8.417  1.3099  0.6265 -0.6643
  234MOL0     C31481  10.491   2.596   8.327 -0.1350 -0.4192 -0.6264
  234MOL0     C31482  10.627   2.575   8.372 -0.1906 -0.0345  0.6483
  234MOL0     C31483  10.663   2.608   8.499  0.0415 -0.8147  0.3807
  234MOL0     C31484  10.805   2.598   8.544  0.4569 -0.1598  0.6279
  234MOL0     O31485  10.833   2.611   8.680  0.3789 -0.2445  0.2114
  234MOL0     C31486  10.955   2.619   8.739  0.9744 -0.2391  0.1045
  234MOL0     C31487  11.083   2.590   8.687 -0.2774  0.2071 -0.1924
  234MOL0     C31488  11.204   2.602   8.759 -0.0362  0.1459  0.3643
  234MOL0     C31489  11.202   2.653   8.890 -0.0105  0.1534  0.6900
  234MOL0     O31490  11.329   2.657   8.951 -0.0375 -0.0248 -0.3977
  234MOL0     C31491  11.333   2.644   9.096 -0.5909 -0.0099 -0.7172
  234MOL0     C31492  11.492   2.613   9.126  0.9129 -1.4961 -0.1861
  234MOL0     C31493  11.502   2.570   9.270 -0.0035 -0.0310 -0.5193
  234MOL0     C31494  11.649   2.578   9.322 -0.2216 -0.5521  0.9825
  234MOL0     C31495  11.653   2.541   9.468 -0.1129  0.6712 -0.0022
  234MOL0     C31496  11.774   2.576   9.540  0.4536 -0.7366 -0.4141
  234MOL0     C31497  11.879   2.472   9.526  0.2858  0.4805 -0.9426
  234MOL0     C31498  11.968   2.480   9.645  0.0075 -0.4908 -0.1587
  234MOL0    Cl31499  12.057   2.324   9.647 -0.4516  0.0513  0.0782
  234MOL0     C31500  11.075   2.682   8.950  0.0664  0.3755 -1.0337
  234MOL0     C31501  10.958   2.664   8.872  0.0876 -1.0080 -0.4578
  234MOL0     O31502  10.884   2.574   8.465  0.6130  0.0380  0.1394
  234MOL0     C31503  10.562   2.639   8.592 -0.8864 -0.8487  0.2728
  234MOL0     C31504  10.427   2.649   8.552  1.1311 -0.5738 -0.3011
  234MOL0     N31505   9.764   2.296   8.407 -0.1977 -0.6549 -0.1464
  234MOL0     N31506   9.663   2.254   8.336 -0.4532 -1.1113  0.6255
  234MOL0     C31507   8.614   2.002   8.108  0.6701 -0.4534 -0.2481
  234MOL0     C31508   8.483   1.957   8.112  0.3472 -0.4406 -0.2308
  234MOL0     C31509   8.037   1.912   8.105 -0.0063 -0.2341  0.0154
  234MOL0     C31510   7.995   1.941   7.975  0.0175 -0.3910  0.2331
  234MOL0     C31511   7.861   1.941   7.941 -0.4058 -0.6383 -0.2507
  234MOL0     C31512   7.760   1.929   8.046 -1.0515  0.2112 -0.2179
  234MOL0     O31513   7.627   1.936   8.003 -0.1537  0.1419  0.7604
  234MOL0     C31514   7.530   1.885   8.091 -0.1870 -0.1132 -0.1665
  234MOL0     C31515   7.404   1.824   8.034 -0.2598  0.1485 -0.1242
  234MOL0     C31516   7.268   1.887   8.069 -0.2511  0.1594 -0.4754
  234MOL0     C31517   7.222   1.862   8.215  0.2277 -1.1258  0.5581
  234MOL0     C31518   7.109   1.953   8.225 -1.4835 -0.3776  0.0062
  234MOL0     C31519   7.021   2.035   8.232 -0.4027  0.6739 -0.1389
  234MOL0     C31520   7.797   1.894   8.172 -0.1589 -0.1728  0.2997
  234MOL0     C31521   7.935   1.866   8.199 -0.0548  0.6340  0.8744
  234MOL0     C31522   7.949   1.813   8.345  0.0351 -0.3829 -0.4082
  234MOL0     H31523   8.347   2.136   7.864 -2.4920  0.1171  1.9591
  234MOL0     H31524   8.583   2.229   7.865  1.1802  0.0136  0.4985
  234MOL0     H31525   8.811   2.258   7.864  0.6486 -0.3429 -0.7833
  234MOL0     H31526   8.785   2.359   8.001 -0.0673  0.5402 -0.4195
  234MOL0     H31527   9.023   2.178   7.965 -1.1981 -0.7588 -2.2128
  234MOL0     H31528   8.992   2.291   8.086  0.0769 -0.8997 -0.1917
  234MOL0     H31529   8.984   2.476   7.952  1.1612  0.9375 -0.2570
  234MOL0     H31530   8.978   2.396   7.796 -0.1910 -1.8845 -0.8876
  234MOL0     H31531   9.203   2.297   7.824  1.9242 -0.3424  1.0164
  234MOL0     H31532   9.195   2.478   7.809 -0.3991  0.0717 -1.2773
  234MOL0     H31533   9.281   2.501   8.024 -0.9678 -0.6396  3.2643
  234MOL0     H31534   9.204   2.355   8.078 -0.5497  0.9893  0.5485
  234MOL0     H31535   9.375   2.204   7.986 -0.9391 -0.2524  4.6980
  234MOL0     H31536   9.434   2.332   7.878 -0.1140 -0.9216  0.2735
  234MOL0     H31537   9.557   2.444   8.042  1.9190  0.3396  1.6970
  234MOL0     H31538   9.594   2.274   8.060  1.0419  0.6201  1.2316
  234MOL0     H31539   9.429   2.453   8.232  3.0354  0.5010  3.7120
  234MOL0     H31540   9.406   2.271   8.224 -1.4075  0.7147 -2.2254
  234MOL0     H31541   9.658   2.584   8.261  0.4031  1.0025  3.2629
  234MOL0     H31542   9.816   2.614   8.502  1.6987  1.2792 -0.2815
  234MOL0     H31543   9.895   2.474   8.558  2.5512  0.7289 -0.1349
  234MOL0     H31544   9.966   2.571   8.287 -0.5594 -1.6545  0.0229
  234MOL0     H31545  10.023   2.653   8.437 -0.8528  0.2924 -0.2446
  234MOL0     H31546  10.077   2.356   8.365 -1.6660  0.0231  0.7602
  234MOL0     H31547  10.113   2.450   8.511  1.3905  1.5541 -0.5128
  234MOL0     H31548  10.184   2.526   8.224  0.5168 -0.7510 -0.0438
  234MOL0     H31549  10.293   2.434   8.326  0.7311  0.6426  1.1746
  234MOL0     H31550  10.464   2.586   8.222  0.2782  2.8523 -1.1558
  234MOL0     H31551  10.701   2.533   8.304 -1.0335 -0.9978  0.3025
  234MOL0     H31552  11.092   2.538   8.593 -2.7400 -3.8639  1.5522
  234MOL0     H31553  11.294   2.566   8.711  1.3834  0.5415  2.5763
  234MOL0     H31554  11.291   2.728   9.151  0.4289  0.5760 -0.8177
  234MOL0     H31555  11.267   2.562   9.126 -1.9377  0.2695 -2.7383
  234MOL0     H31556  11.524   2.533   9.058  0.3018 -1.4584 -0.5210
  234MOL0     H31557  11.550   2.701   9.098 -0.8421 -0.8463 -1.9722
  234MOL0     H31558  11.446   2.640   9.332  2.4895  0.9841  0.7500
  234MOL0     H31559  11.465   2.469   9.291  3.3749 -1.1399  0.8395
  234MOL0     H31560  11.683   2.681   9.303 -4.7237  0.7891 -1.4376
  234MOL0     H31561  11.711   2.505   9.270 -3.0330 -0.8634 -2.3162
  234MOL0     H31562  11.626   2.436   9.483 -0.0375  0.7319  0.5808
  234MOL0     H31563  11.573   2.604   9.508 -0.9993  0.4314 -1.3241
  234MOL0     H31564  11.809   2.668   9.492  2.5980 -1.7787 -0.9925
  234MOL0     H31565  11.747   2.600   9.643 -1.9810 -0.0389 -1.1713
  234MOL0     H31566  11.935   2.495   9.435  0.2486 -0.0927 -1.1182
  234MOL0     H31567  11.832   2.374   9.521 -0.8031  0.8065  1.5697
  234MOL0     H31568  12.033   2.567   9.633 -0.2066  0.3912  3.8808
  234MOL0     H31569  11.908   2.492   9.735  1.9323 -0.1641  1.1438
  234MOL0     H31570  11.068   2.717   9.052 -0.9121 -0.5049 -0.7793
  234MOL0     H31571  10.862   2.688   8.918  0.6879 -0.6546  0.6604
  234MOL0     H31572  10.576   2.643   8.700  3.5822 -5.1434  0.2141
  234MOL0     H31573  10.352   2.674   8.626  3.2204  0.5309  1.5674
  234MOL0     H31574   8.685   1.958   8.178  2.1274  0.8217 -0.8707
  234MOL0     H31575   8.460   1.880   8.186  3.3548 -0.8673  0.3721
  234MOL0     H31576   8.063   1.964   7.894  0.6487  1.7695  1.2991
  234MOL0     H31577   7.828   1.959   7.839 -2.6966 -1.7497  0.2256
  234MOL0     H31578   7.500   1.965   8.160  0.5346  1.1308 -1.2301
  234MOL0     H31579   7.576   1.804   8.148  0.6877  1.4087  1.3755
  234MOL0     H31580   7.402   1.715   8.040  2.8423 -0.0774 -1.2533
  234MOL0     H31581   7.426   1.831   7.927  0.3884 -2.9620 -0.2781
  234MOL0     H31582   7.195   1.860   7.992 -1.0731  0.9374  0.0119
  234MOL0     H31583   7.290   1.994   8.062 -1.6528  0.3595 -3.0019
  234MOL0     H31584   7.196   1.758   8.236  1.5276 -1.2416  1.7226
  234MOL0     H31585   7.294   1.910   8.282 -3.7564  5.3612  1.1387
  234MOL0     H31586   6.954   2.119   8.232 -0.1123  0.9346  1.1841
  234MOL0     H31587   7.740   1.881   8.263  3.2374  1.6335  2.9612
  234MOL0     H31588   7.886   1.724   8.347  1.5816 -1.6943 -3.6130
  234MOL0     H31589   8.052   1.778   8.347 -0.7412 -2.9662 -1.4844
  234MOL0     H31590   7.914   1.896   8.407 -1.9492 -2.1503  0.9740
  235MOL0     O31591   0.528   8.953  10.500 -0.0854  0.3423  0.0085
  235MOL0     C31592   0.429   9.033  10.496  0.0067 -0.0186 -0.1690
  235MOL0     O31593   0.298   8.994  10.525 -0.3778  0.1048 -0.2674
  235MOL0     C31594   0.271   8.864  10.547  0.7419 -0.5203 -0.3726
  235MOL0     C31595   0.273   8.811  10.673  0.6750  0.0001 -0.4917
  235MOL0     C31596   0.234   8.678  10.704 -0.0144 -0.3051 -0.1097
  235MOL0     C31597   0.194   8.592  10.592 -0.5924  0.1381  0.5719
  235MOL0     O31598   0.179   8.457  10.623 -0.7328  0.7450  0.3914
  235MOL0     C31599   0.217   8.360  10.522  0.6641 -0.3619  0.3690
  235MOL0     C31600   0.218   8.222  10.582  0.4897  0.6225 -0.6046
  235MOL0     C31601   0.322   8.224  10.696 -0.1002 -0.2115  0.5687
  235MOL0     C31602   0.353   8.078  10.732 -0.7240 -0.2509 -0.2532
  235MOL0     C31603   0.439   7.991  10.643  0.2029 -0.1058 -0.8624
  235MOL0     C31604   0.465   7.853  10.705  0.5803  0.4373 -0.5766
  235MOL0     C31605   0.514   7.747  10.615 -0.0989 -0.2665  0.6892
  235MOL0     C31606   0.659   7.759  10.586 -0.9080  0.0402  0.0478
  235MOL0     N31607   0.746   7.736  10.712  0.0516  0.5823  0.8838
  235MOL0     C31608   0.734   7.627  10.798 -0.7003 -0.1840 -0.3845
  235MOL0     C31609   0.768   7.682  10.916 -0.4788  0.4303 -0.5494
  235MOL0     C31610   0.754   7.601  11.039 -0.6702  0.1456  0.3581
  235MOL0     C31611   0.889   7.583  11.115 -0.8083 -0.4895 -0.5336
  235MOL0     C31612   1.000   7.544  11.012 -0.2584 -0.7281 -0.8199
  235MOL0     C31613   1.128   7.529  11.094 -0.4538  0.5944 -0.8210
  235MOL0     O31614   1.243   7.519  11.012  0.2990 -0.1475 -0.0379
  235MOL0     C31615   1.317   7.633  11.013  0.2376  0.0390 -0.4266
  235MOL0     C31616   1.265   7.756  10.978 -0.7068  0.5665  0.1373
  235MOL0     C31617   1.350   7.871  10.964 -0.4464 -0.1173 -0.1841
  235MOL0     C31618   1.486   7.865  10.990  0.9733  0.3281 -0.1225
  235MOL0     C31619   1.575   7.977  10.989  0.0359 -0.2737  0.2814
  235MOL0     O31620   1.675   7.985  11.082  0.1236  0.9119 -0.3806
  235MOL0     C31621   1.768   8.086  11.084 -0.5101 -0.0931 -0.9856
  235MOL0     C31622   1.765   8.213  11.025  0.1284 -0.2614  0.3328
  235MOL0     C31623   1.869   8.306  11.052  1.5267 -1.1367 -0.1574
  235MOL0     C31624   1.971   8.278  11.147 -0.1469  0.1564 -0.2356
  235MOL0     O31625   2.063   8.363  11.192 -0.5026  0.5854  1.5885
  235MOL0     C31626   2.034   8.505  11.204  0.8193  0.0108  0.0346
  235MOL0     C31627   2.161   8.571  11.250  0.5686 -0.6686 -0.3030
  235MOL0     C31628   2.156   8.730  11.245 -0.4401  0.5599 -0.0551
  235MOL0     C31629   2.301   8.770  11.292 -0.0673  0.1332  0.2557
  235MOL0     C31630   2.295   8.902  11.379  0.1504 -0.3676  0.5063
  235MOL0     C31631   2.434   8.964  11.379 -1.2079  0.3402 -0.9978
  235MOL0     C31632   2.437   9.097  11.449  0.8283  0.5880  0.9827
  235MOL0     C31633   2.429   9.084  11.603 -0.1333 -0.0471  0.0378
  235MOL0    Cl31634   2.575   8.999  11.667 -0.3028  0.5484  0.1533
  235MOL0     C31635   1.965   8.153  11.195 -0.2190  0.5800  0.6051
  235MOL0     C31636   1.874   8.053  11.164  0.3556  0.1271  0.9596
  235MOL0     O31637   1.558   8.054  10.894  0.6167  0.0250 -0.0926
  235MOL0     C31638   1.538   7.747  11.042  0.0280  0.5752  0.3372
  235MOL0     C31639   1.452   7.636  11.055  0.4765  0.0918 -0.2208
  235MOL0     N31640   0.806   7.814  10.898  0.3810 -0.5068 -1.1400
  235MOL0     N31641   0.797   7.845  10.776 -0.1380 -0.1019  0.2742
  235MOL0     C31642   0.191   8.650  10.463  0.2331 -0.0097 -0.8503
  235MOL0     C31643   0.230   8.777  10.447 -0.7823 -0.5620 -0.5571
  235MOL0     C31644   0.449   9.183  10.504  0.4984 -0.4039 -0.3953
  235MOL0     C31645   0.334   9.269  10.522  1.1228  0.1675 -0.3783
  235MOL0     C31646   0.335   9.409  10.530  1.0858 -0.8923 -0.7938
  235MOL0     C31647   0.457   9.470  10.550 -0.4165 -0.4111 -0.4314
  235MOL0     O31648   0.478   9.603  10.590  0.2925  1.0515 -0.0195
  235MOL0     C31649   0.370   9.701  10.593  0.3624 -0.4557  0.6247
  235MOL0     C31650   0.334   9.715  10.740 -0.4102 -0.4650  0.1044
  235MOL0     C31651   0.215   9.804  10.765  0.0785  0.4275  0.2133
  235MOL0     C31652   0.197   9.802  10.914 -0.0718 -0.6852 -0.3391
  235MOL0     C31653   0.091   9.898  10.957  0.9405  0.1012  0.0913
  235MOL0     C31654  -0.002   9.965  10.991 -0.5890 -0.0495 -0.3913
  235MOL0     C31655   0.572   9.396  10.542 -0.0726  0.5117 -0.0606
  235MOL0     C31656   0.572   9.262  10.503  0.1411 -0.3782  0.0488
  235MOL0     C31657   0.706   9.209  10.472 -0.2468 -0.0259 -0.2121
  235MOL0     H31658   0.298   8.881  10.752 -0.9182  0.2393 -0.1693
  235MOL0     H31659   0.247   8.642  10.805  2.3971  0.3969 -0.0993
  235MOL0     H31660   0.152   8.355  10.433 -0.4729 -1.1773  1.2109
  235MOL0     H31661   0.318   8.387  10.491  0.6865 -0.2669  0.5240
  235MOL0     H31662   0.261   8.158  10.505 -1.0745 -2.4865  0.9063
  235MOL0     H31663   0.118   8.184  10.604 -1.0054  3.9122 -1.1822
  235MOL0     H31664   0.274   8.269  10.784 -2.3461 -0.9368 -0.2281
  235MOL0     H31665   0.405   8.291  10.672 -1.7231  2.7286  2.4649
  235MOL0     H31666   0.390   8.094  10.834 -0.6624 -1.5646 -0.0576
  235MOL0     H31667   0.264   8.021  10.757 -1.0229  0.2479 -0.1515
  235MOL0     H31668   0.384   7.981  10.549  0.4482  0.4917 -1.0777
  235MOL0     H31669   0.535   8.041  10.622  0.0895  0.4762 -0.0320
  235MOL0     H31670   0.528   7.875  10.792 -0.4778  3.1868 -0.4214
  235MOL0     H31671   0.370   7.814  10.742  1.0811  0.3735  0.7212
  235MOL0     H31672   0.457   7.748  10.522 -1.4129 -4.8543  1.2425
  235MOL0     H31673   0.491   7.648  10.655  0.2717 -1.2235 -1.3413
  235MOL0     H31674   0.682   7.694  10.501 -0.7990  1.6499 -1.1980
  235MOL0     H31675   0.674   7.861  10.552 -1.4443  0.9191  2.2859
  235MOL0     H31676   0.693   7.529  10.778 -1.0538  0.1922 -1.5712
  235MOL0     H31677   0.678   7.647  11.103 -1.2043 -0.8011  0.4209
  235MOL0     H31678   0.713   7.504  11.009 -4.7972  1.9722 -0.6878
  235MOL0     H31679   0.910   7.677  11.168 -3.1460 -1.4649  2.3717
  235MOL0     H31680   0.893   7.503  11.190  2.1618  0.3368  0.3259
  235MOL0     H31681   1.023   7.637  10.960  0.3661  1.5647  3.0926
  235MOL0     H31682   0.976   7.457  10.950  1.1000 -1.0378 -0.9297
  235MOL0     H31683   1.120   7.440  11.157  1.2659  1.5108  0.7801
  235MOL0     H31684   1.133   7.603  11.174 -0.6449 -0.0527 -0.2012
  235MOL0     H31685   1.163   7.780  10.951 -1.2396 -1.6491 -0.0463
  235MOL0     H31686   1.309   7.969  10.945 -0.1266  0.2127  0.7606
  235MOL0     H31687   1.688   8.239  10.954 -0.6716  2.0091  1.9174
  235MOL0     H31688   1.866   8.407  11.013 -0.5105 -0.8445  0.6101
  235MOL0     H31689   2.003   8.553  11.111 -0.1818  0.6737  0.6978
  235MOL0     H31690   1.956   8.511  11.280  1.0635  0.6710  0.2457
  235MOL0     H31691   2.178   8.539  11.353 -0.6990  1.2777  0.5699
  235MOL0     H31692   2.240   8.528  11.187  0.4098 -1.8881  0.3041
  235MOL0     H31693   2.122   8.774  11.150  0.4515  1.4951  0.0436
  235MOL0     H31694   2.083   8.770  11.316 -1.5342  1.7372 -1.7416
  235MOL0     H31695   2.368   8.776  11.206  0.0590  0.6689  0.3868
  235MOL0     H31696   2.344   8.698  11.362  0.8322  1.4468  1.0962
  235MOL0     H31697   2.257   8.885  11.481 -1.7451  0.1000 -0.0766
  235MOL0     H31698   2.226   8.971  11.329  0.3348  0.1580  0.9671
  235MOL0     H31699   2.509   8.899  11.426 -0.8637  1.4101 -0.0090
  235MOL0     H31700   2.459   8.974  11.273  0.8193  1.4969 -0.4700
  235MOL0     H31701   2.353   9.161  11.422  1.3594  0.8799 -0.0366
  235MOL0     H31702   2.527   9.144  11.408  0.0321  1.8813  0.6483
  235MOL0     H31703   2.426   9.174  11.665  0.2070  0.4182 -0.6177
  235MOL0     H31704   2.337   9.027  11.623  0.6538 -1.1450  0.6585
  235MOL0     H31705   2.048   8.130  11.262  1.3748  3.4914 -0.1711
  235MOL0     H31706   1.872   7.959  11.218  1.9376 -0.5716 -0.1251
  235MOL0     H31707   1.640   7.745  11.080  0.6660  1.4837 -1.1929
  235MOL0     H31708   1.482   7.537  11.087  1.0202 -1.0625 -3.8535
  235MOL0     H31709   0.147   8.605  10.374  1.2609  0.1224 -1.4462
  235MOL0     H31710   0.227   8.824  10.349  1.4341  0.4864 -0.2036
  235MOL0     H31711   0.240   9.214  10.524  2.3345 -2.0204  0.2940
  235MOL0     H31712   0.247   9.472  10.527  2.8888  1.7444 -2.3074
  235MOL0     H31713   0.281   9.666  10.539 -0.2289 -2.7523  2.8678
  235MOL0     H31714   0.404   9.797  10.553 -1.0547  1.1036  2.8815
  235MOL0     H31715   0.424   9.762  10.779 -0.0187 -0.4566 -0.7984
  235MOL0     H31716   0.316   9.620  10.791 -2.1170 -1.1252 -1.5974
  235MOL0     H31717   0.124   9.773  10.713 -1.8903  2.5564  2.2000
  235MOL0     H31718   0.234   9.906  10.731 -0.3320  1.2987  2.4228
  235MOL0     H31719   0.173   9.700  10.946 -0.7890 -0.7308 -0.9903
  235MOL0     H31720   0.291   9.832  10.961 -0.1146  0.5490 -0.9922
  235MOL0     H31721  -0.079  10.035  11.017  0.9126  1.5641 -0.0774
  235MOL0     H31722   0.667   9.449  10.540 -0.9223  2.0986 -0.4453
  235MOL0     H31723   0.719   9.100  10.481 -0.3709  0.0152  0.5052
  235MOL0     H31724   0.722   9.211  10.364  0.8111  1.8605 -0.0551
  235MOL0     H31725   0.780   9.264  10.531  0.5856 -3.3140  2.1151
  236MOL0     O31726   4.154   7.131   9.895 -0.1380 -0.4645 -0.2911
  236MOL0     C31727   4.087   7.028   9.880  0.0497 -0.5208  0.0840
  236MOL0     O31728   4.135   6.904   9.865 -0.0473 -0.0348 -0.2637
  236MOL0     C31729   4.256   6.879   9.811  0.2788 -0.0788  0.2746
  236MOL0     C31730   4.378   6.897   9.859 -0.4130 -0.7896  0.3314
  236MOL0     C31731   4.492   6.860   9.785 -0.0738  0.6699  0.0929
  236MOL0     C31732   4.482   6.805   9.656 -0.6085  0.3302 -1.2305
  236MOL0     O31733   4.590   6.774   9.574 -0.3838  0.5445 -0.1460
  236MOL0     C31734   4.714   6.744   9.641  0.5805  0.3146 -0.5596
  236MOL0     C31735   4.815   6.857   9.664  0.1790 -0.3992  0.4030
  236MOL0     C31736   4.863   6.942   9.548 -0.0771  0.2352  0.2655
  236MOL0     C31737   4.752   7.022   9.478 -0.3905 -0.1289  0.6898
  236MOL0     C31738   4.809   7.146   9.411 -0.2281 -0.9198  0.3851
  236MOL0     C31739   4.861   7.106   9.270 -0.2574 -0.8293  0.2298
  236MOL0     C31740   4.883   7.233   9.188  0.1401 -0.2151  0.5380
  236MOL0     C31741   4.936   7.184   9.046 -0.1448  0.5927 -0.5664
  236MOL0     N31742   4.826   7.147   8.954 -0.6384  0.4678 -0.4927
  236MOL0     C31743   4.847   7.152   8.821 -0.5879 -0.8228  0.1068
  236MOL0     C31744   4.733   7.114   8.766  0.1991 -0.0919  0.2282
  236MOL0     C31745   4.722   7.101   8.620 -0.1524  0.2327  1.1398
  236MOL0     C31746   4.579   7.045   8.572 -0.4609 -0.0466  0.0865
  236MOL0     C31747   4.582   6.945   8.452 -0.0212  0.7807  0.2625
  236MOL0     C31748   4.692   6.838   8.447 -0.1984 -0.3531 -1.1488
  236MOL0     O31749   4.693   6.772   8.573  0.2686 -0.5140 -0.1424
  236MOL0     C31750   4.636   6.651   8.570 -0.3803 -0.5169 -0.4946
  236MOL0     C31751   4.520   6.638   8.647  0.4564 -0.1167 -0.2560
  236MOL0     C31752   4.451   6.526   8.659 -0.1263  0.2090  0.3190
  236MOL0     C31753   4.501   6.403   8.596  1.4873 -0.3166 -0.0382
  236MOL0     C31754   4.417   6.278   8.592 -0.4073 -0.7333 -0.3642
  236MOL0     O31755   4.295   6.287   8.643  0.5136 -0.6089  1.0676
  236MOL0     C31756   4.221   6.190   8.697 -0.2620  1.2045 -1.0779
  236MOL0     C31757   4.258   6.049   8.727 -0.5508 -0.2443 -0.5698
  236MOL0     C31758   4.171   5.959   8.777  0.6984  0.4636  0.5941
  236MOL0     C31759   4.041   5.989   8.810  0.7188 -0.3380  0.2164
  236MOL0     O31760   3.962   5.915   8.894 -0.4171 -0.3513  0.8403
  236MOL0     C31761   3.912   5.804   8.813 -0.0246  0.6134 -0.8578
  236MOL0     C31762   3.769   5.843   8.772 -0.1816 -0.3085  0.3536
  236MOL0     C31763   3.678   5.850   8.891 -0.8184 -0.0836 -1.0343
  236MOL0     C31764   3.534   5.867   8.840  0.2729 -0.1676  0.0110
  236MOL0     C31765   3.445   5.879   8.956 -0.3666  0.3621  0.5894
  236MOL0     C31766   3.299   5.872   8.927  0.8104 -1.2922  0.5585
  236MOL0     C31767   3.221   5.892   9.064  0.1641 -0.2206  0.2504
  236MOL0     C31768   3.072   5.892   9.034  0.1413 -0.1969  0.4214
  236MOL0    Cl31769   2.963   5.882   9.179 -0.0168  0.2990 -0.1837
  236MOL0     C31770   4.003   6.122   8.788 -0.3709 -0.3504 -0.5339
  236MOL0     C31771   4.091   6.222   8.745 -0.7530 -1.0566 -0.1819
  236MOL0     O31772   4.471   6.178   8.545  0.2415  0.0844 -0.1149
  236MOL0     C31773   4.625   6.417   8.522  0.0548  1.5223 -0.2891
  236MOL0     C31774   4.690   6.537   8.512 -0.3826 -1.0311 -0.4365
  236MOL0     N31775   4.646   7.084   8.868 -0.3374  0.1923  0.1689
  236MOL0     N31776   4.700   7.110   8.989  0.3932 -0.0403 -0.0763
  236MOL0     C31777   4.353   6.787   9.609  0.1525 -0.2193  0.2671
  236MOL0     C31778   4.245   6.821   9.687 -0.2651 -0.2515 -0.1967
  236MOL0     C31779   3.947   7.040   9.903  0.1009 -1.0358  0.3337
  236MOL0     C31780   3.862   6.936   9.856  0.4964  0.0186  1.2438
  236MOL0     C31781   3.722   6.941   9.863 -0.6577 -0.0136 -0.2113
  236MOL0     C31782   3.668   7.031   9.956 -0.2600 -0.5055  0.0475
  236MOL0     O31783   3.536   7.031   9.995  0.3217  0.1157 -0.0696
  236MOL0     C31784   3.430   6.992   9.909 -1.1034  0.7502 -0.1151
  236MOL0     C31785   3.367   6.853   9.940  0.7923  0.3971  0.5395
  236MOL0     C31786   3.272   6.810   9.828  0.4855 -1.2952  0.2248
  236MOL0     C31787   3.170   6.705   9.862  0.2364 -0.1811  0.0692
  236MOL0     C31788   3.041   6.733   9.795 -0.0131 -0.4118  0.5750
  236MOL0     C31789   2.928   6.748   9.741  0.0079 -0.0549  0.0056
  236MOL0     C31790   3.743   7.138  10.009 -0.3561  0.6166 -1.2733
  236MOL0     C31791   3.884   7.140   9.987  0.2818  0.5771 -0.3092
  236MOL0     C31792   3.946   7.265  10.033 -0.8130  0.7155 -0.7658
  236MOL0     H31793   4.393   6.954   9.950  2.7971 -0.3612 -0.3547
  236MOL0     H31794   4.592   6.871   9.827 -0.6320 -2.5253  2.6500
  236MOL0     H31795   4.692   6.694   9.735 -0.3877 -0.1127 -0.9904
  236MOL0     H31796   4.764   6.662   9.589 -0.5996 -0.6108 -0.2805
  236MOL0     H31797   4.893   6.794   9.708  0.6899 -0.5473 -0.6609
  236MOL0     H31798   4.781   6.925   9.742 -1.0934  2.4651 -2.4401
  236MOL0     H31799   4.910   6.884   9.468  2.1612  1.6427  0.4598
  236MOL0     H31800   4.947   7.005   9.577  0.3757 -0.1908 -0.1121
  236MOL0     H31801   4.705   6.960   9.401  1.9955 -0.0897 -0.8999
  236MOL0     H31802   4.674   7.042   9.551 -0.6470  2.6910 -0.2341
  236MOL0     H31803   4.723   7.213   9.406  1.0109  1.0168  2.9028
  236MOL0     H31804   4.891   7.197   9.462  1.5070 -4.3972  1.4479
  236MOL0     H31805   4.949   7.042   9.268 -0.7625 -1.5160 -0.8194
  236MOL0     H31806   4.778   7.053   9.221 -1.0820  0.4315  0.2213
  236MOL0     H31807   4.949   7.305   9.238  1.8188  0.6953 -2.7293
  236MOL0     H31808   4.792   7.294   9.179 -0.3288 -1.1040 -1.0035
  236MOL0     H31809   4.985   7.271   9.003 -1.0596  0.1321 -2.6844
  236MOL0     H31810   5.006   7.100   9.041 -1.2440 -0.3473 -5.9046
  236MOL0     H31811   4.942   7.188   8.784 -0.0485 -1.3051  0.9757
  236MOL0     H31812   4.743   7.188   8.557 -0.8556 -0.6717 -0.4116
  236MOL0     H31813   4.797   7.024   8.599 -1.5827 -1.0104  0.3470
  236MOL0     H31814   4.535   6.982   8.649  1.2143 -1.9478 -0.4335
  236MOL0     H31815   4.513   7.130   8.551  0.0378  0.1933 -0.5679
  236MOL0     H31816   4.588   7.012   8.366  0.8299  0.6055  0.1782
  236MOL0     H31817   4.488   6.890   8.451  1.2493 -1.5514  1.3283
  236MOL0     H31818   4.791   6.884   8.441  0.3184 -0.8441  2.0070
  236MOL0     H31819   4.682   6.771   8.360  0.9497 -1.0872 -0.7412
  236MOL0     H31820   4.495   6.724   8.709 -1.7256 -0.1222 -1.0627
  236MOL0     H31821   4.361   6.529   8.719 -0.4708  0.5429 -0.2077
  236MOL0     H31822   4.364   6.029   8.715 -0.5907 -1.9746  1.3174
  236MOL0     H31823   4.213   5.860   8.793 -1.1195 -0.5811 -0.6683
  236MOL0     H31824   3.971   5.787   8.722 -0.9428  2.1234 -1.7925
  236MOL0     H31825   3.914   5.715   8.875 -0.4839  0.9223 -0.3881
  236MOL0     H31826   3.755   5.934   8.712  2.4352 -0.3310 -0.4151
  236MOL0     H31827   3.747   5.759   8.706  2.7905 -0.4905 -0.5686
  236MOL0     H31828   3.681   5.766   8.961 -3.2549  0.9362  0.4647
  236MOL0     H31829   3.712   5.941   8.942 -1.4325 -1.7049  2.5572
  236MOL0     H31830   3.503   5.778   8.784 -3.7052  0.0026  1.6892
  236MOL0     H31831   3.515   5.950   8.771 -1.0546 -3.1494 -3.5078
  236MOL0     H31832   3.473   5.969   9.013  1.8288 -0.8291  1.5611
  236MOL0     H31833   3.465   5.802   9.031 -3.3708  0.6848  1.8495
  236MOL0     H31834   3.274   5.947   8.852 -0.0310 -0.5239  1.5785
  236MOL0     H31835   3.269   5.774   8.886  0.1776 -0.2270 -1.7060
  236MOL0     H31836   3.253   5.988   9.108  3.1170 -0.6232 -0.8221
  236MOL0     H31837   3.239   5.810   9.133  1.6932  0.2703  0.4674
  236MOL0     H31838   3.051   5.979   8.972  2.5795 -0.2025 -0.4714
  236MOL0     H31839   3.055   5.800   8.977  3.5047 -2.4777  2.7049
  236MOL0     H31840   3.901   6.139   8.822 -0.4524 -1.4105 -0.2134
  236MOL0     H31841   4.047   6.320   8.728  1.2025 -0.3878 -1.7220
  236MOL0     H31842   4.667   6.323   8.487 -1.1592  1.3518 -1.3661
  236MOL0     H31843   4.789   6.541   8.469  0.0092 -0.3193  0.4988
  236MOL0     H31844   4.326   6.753   9.509 -3.1207  1.7844  0.3125
  236MOL0     H31845   4.146   6.798   9.648  0.2831 -1.3376 -0.9801
  236MOL0     H31846   3.901   6.849   9.804  1.9411 -0.4576  3.0296
  236MOL0     H31847   3.667   6.859   9.819 -1.2836 -0.2782  1.0322
  236MOL0     H31848   3.468   6.997   9.807 -0.7995  1.7585  0.0389
  236MOL0     H31849   3.348   7.065   9.911  1.4366  3.9294 -2.7261
  236MOL0     H31850   3.317   6.851  10.037  2.9327 -2.7891  1.7774
  236MOL0     H31851   3.440   6.772   9.952  0.0060 -0.3634  0.3651
  236MOL0     H31852   3.322   6.775   9.736  1.3516 -1.3475  0.7017
  236MOL0     H31853   3.216   6.902   9.810  2.1495  0.0937  1.7749
  236MOL0     H31854   3.213   6.608   9.833  1.2658  0.0566  0.7506
  236MOL0     H31855   3.159   6.714   9.971  3.3873  1.4799  0.3735
  236MOL0     H31856   2.831   6.778   9.705 -0.1867 -0.0120  0.5546
  236MOL0     H31857   3.690   7.214  10.066  0.7272 -0.3244  1.0996
  236MOL0     H31858   3.975   7.331   9.951  1.3611  1.9794  0.8842
  236MOL0     H31859   3.877   7.318  10.099 -2.1852 -2.0554  0.1782
  236MOL0     H31860   4.034   7.254  10.097 -2.1020  0.5337  1.0620
  237MOL0     O31861   6.593   1.578   3.963 -0.4221  0.1063 -0.0872
  237MOL0     C31862   6.547   1.657   4.048  0.2871 -0.3047 -0.1167
  237MOL0     O31863   6.618   1.762   4.100  0.7181 -0.4944 -0.0239
  237MOL0     C31864   6.748   1.791   4.066  0.0388  0.0977 -0.2348
  237MOL0     C31865   6.796   1.822   3.935 -0.0178 -0.3883 -1.1015
  237MOL0     C31866   6.932   1.852   3.922 -0.2337  0.1478 -0.4176
  237MOL0     C31867   7.021   1.856   4.026 -1.3193 -0.5189  0.7815
  237MOL0     O31868   7.155   1.873   3.989 -0.2309 -0.5968  0.4238
  237MOL0     C31869   7.244   1.777   4.051 -0.4574 -1.2099 -0.5378
  237MOL0     C31870   7.383   1.785   3.988  0.6936 -0.1370  0.0742
  237MOL0     C31871   7.493   1.712   4.075  0.0076  0.0594 -0.5292
  237MOL0     C31872   7.630   1.705   3.992 -0.0664  0.3318  0.3509
  237MOL0     C31873   7.715   1.623   4.081 -0.3472 -0.6627 -0.4407
  237MOL0     C31874   7.862   1.598   4.038 -1.0234 -0.1347  0.6235
  237MOL0     C31875   7.897   1.619   3.885  0.5681  0.5749 -0.1869
  237MOL0     C31876   8.038   1.565   3.859 -0.0454 -0.3036 -0.2007
  237MOL0     N31877   8.143   1.660   3.896 -0.3680 -0.3180 -0.5961
  237MOL0     C31878   8.172   1.772   3.816  0.9203 -0.7049 -0.7977
  237MOL0     C31879   8.269   1.844   3.878  0.8664 -0.4103  0.6935
  237MOL0     C31880   8.324   1.981   3.834 -0.7718 -0.0348  0.6291
  237MOL0     C31881   8.479   1.994   3.859  0.3544 -0.5023  0.6923
  237MOL0     C31882   8.518   2.146   3.844 -0.2943  0.5020 -0.3247
  237MOL0     C31883   8.670   2.161   3.861 -0.8538 -0.5898  0.7786
  237MOL0     O31884   8.739   2.153   3.742  0.6426  0.1274 -0.0953
  237MOL0     C31885   8.869   2.187   3.735  0.3229 -0.0579  0.2248
  237MOL0     C31886   8.962   2.144   3.827  1.2072 -1.1611  0.0396
  237MOL0     C31887   9.100   2.174   3.809 -0.4396  0.4528 -0.2456
  237MOL0     C31888   9.145   2.232   3.689  0.0080  0.1190 -0.0229
  237MOL0     C31889   9.287   2.244   3.660 -0.1243 -0.2155 -0.9741
  237MOL0     O31890   9.343   2.358   3.609 -0.3315  0.6770  0.2957
  237MOL0     C31891   9.482   2.383   3.605 -0.7783 -0.5895 -1.0679
  237MOL0     C31892   9.583   2.322   3.684 -0.4149  0.7309 -0.8145
  237MOL0     C31893   9.713   2.342   3.665 -0.2509 -0.2034  1.3756
  237MOL0     C31894   9.762   2.432   3.568  0.5360  0.4236  0.2154
  237MOL0     O31895   9.889   2.467   3.538  0.5403 -0.1925 -0.0066
  237MOL0     C31896   9.987   2.429   3.636 -0.0223 -0.2429  0.6138
  237MOL0     C31897  10.136   2.468   3.627  0.3145  0.2831  1.0607
  237MOL0     C31898  10.209   2.404   3.505  0.0976  0.7567 -1.2496
  237MOL0     C31899  10.345   2.469   3.505  0.4497 -0.1943 -1.1852
  237MOL0     C31900  10.442   2.395   3.414  0.2699  0.2150 -0.4414
  237MOL0     C31901  10.584   2.455   3.442 -0.1087  0.4710 -0.9460
  237MOL0     C31902  10.579   2.610   3.396 -0.8166 -0.8485 -0.4967
  237MOL0     C31903  10.723   2.664   3.373  0.5383  0.7493 -0.4014
  237MOL0    Cl31904  10.748   2.836   3.325  0.0915  0.3967  0.6844
  237MOL0     C31905   9.669   2.500   3.489  0.6755  1.3784 -0.4306
  237MOL0     C31906   9.527   2.480   3.512 -0.0226 -0.6646 -0.2320
  237MOL0     O31907   9.343   2.142   3.683  0.4257  0.1305 -0.2626
  237MOL0     C31908   9.053   2.277   3.599  0.1479 -0.2026 -0.1250
  237MOL0     C31909   8.914   2.255   3.626 -0.0596 -0.4254  0.4103
  237MOL0     N31910   8.295   1.787   3.997  0.6962  0.4709 -0.5574
  237MOL0     N31911   8.228   1.675   4.010 -0.8550  0.1078 -0.1405
  237MOL0     C31912   6.976   1.849   4.157  0.3553  0.2581  0.0402
  237MOL0     C31913   6.839   1.813   4.176  0.0673 -0.0313  0.3242
  237MOL0     C31914   6.404   1.639   4.103  0.6211  0.6384  0.4317
  237MOL0     C31915   6.328   1.543   4.031  0.1517  0.4123 -0.9425
  237MOL0     C31916   6.198   1.523   4.060 -0.5043  0.4965 -0.0063
  237MOL0     C31917   6.133   1.600   4.158  0.4220  0.9122  0.4931
  237MOL0     O31918   6.005   1.556   4.174 -0.7682 -0.3101  0.3814
  237MOL0     C31919   5.940   1.599   4.288 -0.4984  0.4780 -0.4959
  237MOL0     C31920   5.791   1.544   4.301  0.2398 -0.1430 -0.4280
  237MOL0     C31921   5.715   1.570   4.173  0.7068  0.1768 -0.0056
  237MOL0     C31922   5.570   1.515   4.197  0.0173 -0.2003  1.0597
  237MOL0     C31923   5.546   1.375   4.222  0.9773  0.4460  0.9969
  237MOL0     C31924   5.525   1.259   4.255  0.7886 -0.6841  0.0551
  237MOL0     C31925   6.206   1.676   4.243 -0.6218 -0.5787  0.0721
  237MOL0     C31926   6.341   1.700   4.216 -0.4487 -0.7656  0.0571
  237MOL0     C31927   6.417   1.792   4.313  0.2259  0.4402 -1.0750
  237MOL0     H31928   6.734   1.815   3.846  0.5565 -2.1837 -1.3926
  237MOL0     H31929   6.980   1.862   3.825  3.8815 -1.3918  1.2692
  237MOL0     H31930   7.251   1.790   4.159 -1.1575 -0.0447 -0.6194
  237MOL0     H31931   7.190   1.682   4.040 -3.5222  0.0372  2.2412
  237MOL0     H31932   7.405   1.891   3.974 -0.4987 -0.0227 -1.1222
  237MOL0     H31933   7.383   1.741   3.888 -1.4309 -1.6234  0.6512
  237MOL0     H31934   7.468   1.610   4.103  0.1256  0.4880  1.2511
  237MOL0     H31935   7.512   1.768   4.167  4.9439 -3.0000  0.6901
  237MOL0     H31936   7.610   1.645   3.902 -0.3031 -1.3940  1.5103
  237MOL0     H31937   7.663   1.801   3.952 -0.2894 -0.1649 -1.1015
  237MOL0     H31938   7.718   1.659   4.184 -3.5457  0.4722 -0.6562
  237MOL0     H31939   7.674   1.522   4.090 -0.7630 -0.4405  0.2102
  237MOL0     H31940   7.915   1.671   4.100 -2.3056  0.8785  0.5594
  237MOL0     H31941   7.896   1.497   4.062 -0.0788  0.1325  0.4164
  237MOL0     H31942   7.882   1.725   3.864 -0.5128  0.5793  0.5517
  237MOL0     H31943   7.817   1.567   3.832 -1.7700  2.1911  1.5867
  237MOL0     H31944   8.057   1.470   3.909  0.6295  0.2593  0.6352
  237MOL0     H31945   8.052   1.550   3.751 -0.6826 -3.6135  0.0877
  237MOL0     H31946   8.122   1.808   3.727  2.3502  2.3369 -0.5295
  237MOL0     H31947   8.306   2.020   3.734 -1.5179 -0.3962  0.6109
  237MOL0     H31948   8.267   2.050   3.897 -1.2862  0.2798 -0.1634
  237MOL0     H31949   8.505   1.961   3.960 -0.7711  3.2197  2.3879
  237MOL0     H31950   8.526   1.929   3.785 -0.7984 -2.3579  1.5148
  237MOL0     H31951   8.463   2.191   3.927 -0.2069 -1.5395  0.9159
  237MOL0     H31952   8.491   2.184   3.745 -0.9032  0.6376 -0.1088
  237MOL0     H31953   8.701   2.078   3.925  0.2769  0.4798  1.6595
  237MOL0     H31954   8.692   2.263   3.893  0.4096  0.1057 -2.0059
  237MOL0     H31955   8.936   2.094   3.920 -2.6764  1.4237  0.5669
  237MOL0     H31956   9.162   2.128   3.885 -0.9891 -1.6075 -0.9650
  237MOL0     H31957   9.559   2.250   3.762 -0.3387  2.5489  0.9635
  237MOL0     H31958   9.781   2.280   3.723 -0.5978 -2.4270 -0.4416
  237MOL0     H31959   9.940   2.469   3.726 -3.4776  0.5917 -1.3959
  237MOL0     H31960   9.993   2.320   3.641 -3.1107 -0.5275 -0.3288
  237MOL0     H31961  10.152   2.576   3.620 -1.6356  0.5938  0.7957
  237MOL0     H31962  10.180   2.436   3.722  2.6129 -0.7559 -0.2524
  237MOL0     H31963  10.208   2.297   3.525  0.7057  0.9285 -0.2535
  237MOL0     H31964  10.151   2.430   3.416  0.4524 -0.3881 -1.8239
  237MOL0     H31965  10.385   2.468   3.607  0.8089 -0.1605 -1.3226
  237MOL0     H31966  10.324   2.570   3.466  1.5976  0.0806 -1.1290
  237MOL0     H31967  10.410   2.405   3.310  0.8885 -0.6445 -0.7309
  237MOL0     H31968  10.436   2.289   3.444 -3.7251  0.9028  1.9466
  237MOL0     H31969  10.617   2.440   3.545  1.3705 -0.9493 -1.5892
  237MOL0     H31970  10.659   2.403   3.382  1.7382  0.7402  1.0242
  237MOL0     H31971  10.546   2.667   3.483  1.8984  1.8514 -1.0695
  237MOL0     H31972  10.526   2.625   3.302  3.0434  0.7368 -2.6373
  237MOL0     H31973  10.774   2.648   3.469 -1.4092 -4.0842  0.1137
  237MOL0     H31974  10.759   2.593   3.298 -2.3386 -0.1901 -1.0368
  237MOL0     H31975   9.709   2.567   3.414  4.8370 -4.2085 -3.9305
  237MOL0     H31976   9.449   2.524   3.451 -0.9097 -1.7234  0.0938
  237MOL0     H31977   9.085   2.312   3.501  3.1147  0.8570  1.1148
  237MOL0     H31978   8.845   2.293   3.552 -0.3695  2.1734  1.9117
  237MOL0     H31979   7.045   1.872   4.237 -0.1704 -0.5526  0.7336
  237MOL0     H31980   6.791   1.814   4.274 -3.5382  0.8819 -1.2694
  237MOL0     H31981   6.357   1.496   3.937 -2.2621  0.6886 -1.8973
  237MOL0     H31982   6.140   1.451   4.004  0.7029  0.1861 -0.9072
  237MOL0     H31983   5.943   1.708   4.299 -0.2504  0.3505  0.9616
  237MOL0     H31984   6.001   1.569   4.374 -2.4385 -3.6253 -0.3303
  237MOL0     H31985   5.742   1.575   4.394 -1.2941 -4.1375  0.2764
  237MOL0     H31986   5.795   1.438   4.326  1.0666  0.2229  1.1441
  237MOL0     H31987   5.762   1.523   4.085  1.7696 -0.2787  0.7800
  237MOL0     H31988   5.724   1.678   4.155  2.3730  0.3639  1.6181
  237MOL0     H31989   5.520   1.570   4.277 -0.4210  1.1041 -0.0927
  237MOL0     H31990   5.533   1.535   4.096  3.1342 -2.3289 -0.6916
  237MOL0     H31991   5.525   1.158   4.289 -0.8935 -1.6194 -2.4625
  237MOL0     H31992   6.166   1.719   4.334 -1.4372 -1.5245  0.1803
  237MOL0     H31993   6.456   1.877   4.256  0.4320  0.4095 -0.9811
  237MOL0     H31994   6.353   1.842   4.385 -1.0554  0.6005 -2.2858
  237MOL0     H31995   6.495   1.742   4.371 -2.1025 -0.9320  1.0806
  238MOL0     O31996   5.729   1.281   7.463  0.6973  0.0856  0.2207
  238MOL0     C31997   5.649   1.338   7.540  1.0739 -0.4011 -0.1523
  238MOL0     O31998   5.644   1.342   7.678 -0.0016 -0.4849  0.4245
  238MOL0     C31999   5.761   1.297   7.731 -0.0885 -0.1016 -1.0046
  238MOL0     C32000   5.764   1.174   7.805 -0.0142  0.4460  0.5171
  238MOL0     C32001   5.882   1.134   7.862 -1.1091  0.0917  0.0512
  238MOL0     C32002   6.001   1.200   7.856  0.4751 -1.3378  0.2712
  238MOL0     O32003   6.110   1.156   7.923  0.0590  0.1921 -0.4604
  238MOL0     C32004   6.225   1.233   7.912  0.2772 -0.1769  0.4074
  238MOL0     C32005   6.330   1.184   8.013  0.2208  0.1542 -0.4617
  238MOL0     C32006   6.476   1.212   7.994  0.6280 -1.0833  0.6471
  238MOL0     C32007   6.572   1.165   8.112  0.5476  0.4555 -0.4387
  238MOL0     C32008   6.715   1.170   8.079 -1.1707 -0.1032  0.3410
  238MOL0     C32009   6.813   1.115   8.187  0.6200 -0.3015  0.1869
  238MOL0     C32010   6.940   1.075   8.104  0.2436 -0.7940 -0.9693
  238MOL0     C32011   7.058   1.035   8.200 -0.0882 -0.4043  0.6672
  238MOL0     N32012   7.112   1.149   8.280  0.2135  0.4171  0.6868
  238MOL0     C32013   7.212   1.236   8.229  0.9039  1.1144  0.2647
  238MOL0     C32014   7.226   1.333   8.312 -0.3250 -0.4719  0.5236
  238MOL0     C32015   7.337   1.438   8.305  1.3201  0.0257  0.1129
  238MOL0     C32016   7.450   1.393   8.396 -0.1454 -0.1591 -0.7403
  238MOL0     C32017   7.517   1.259   8.333  0.2658 -0.6608 -0.2364
  238MOL0     C32018   7.623   1.202   8.431 -0.7654 -0.1194  0.5834
  238MOL0     O32019   7.724   1.128   8.360 -0.3948  0.3185  0.0625
  238MOL0     C32020   7.858   1.167   8.363  0.4947  0.1598 -0.7395
  238MOL0     C32021   7.929   1.167   8.245  1.6286 -1.0233  0.6259
  238MOL0     C32022   8.057   1.229   8.231 -0.7041  0.0165 -0.7344
  238MOL0     C32023   8.117   1.285   8.346 -0.0330  0.7747 -0.1415
  238MOL0     C32024   8.239   1.355   8.331 -0.7590 -0.1940 -0.5683
  238MOL0     O32025   8.265   1.429   8.445 -0.1260 -0.8877 -0.6030
  238MOL0     C32026   8.376   1.510   8.448  0.4096 -0.9154  0.0955
  238MOL0     C32027   8.503   1.454   8.440  0.3954 -0.7218 -0.5570
  238MOL0     C32028   8.614   1.536   8.444 -0.3646 -0.1948 -1.5940
  238MOL0     C32029   8.607   1.675   8.458 -0.6086  0.5024  0.6714
  238MOL0     O32030   8.722   1.755   8.467  0.1946  0.1969  0.3776
  238MOL0     C32031   8.726   1.900   8.481 -1.0970 -0.0428 -0.0301
  238MOL0     C32032   8.878   1.938   8.487 -0.4693  0.5155  0.1880
  238MOL0     C32033   8.895   2.087   8.515  0.3616 -0.8979 -0.0287
  238MOL0     C32034   9.046   2.114   8.515 -0.4190 -0.9515  0.0791
  238MOL0     C32035   9.084   2.262   8.534 -0.2059 -0.5784  0.0002
  238MOL0     C32036   9.229   2.292   8.575  0.6639  0.9895 -0.6229
  238MOL0     C32037   9.281   2.427   8.540  0.9033  0.4217  0.0651
  238MOL0     C32038   9.413   2.450   8.609 -0.9214  0.3800  0.1723
  238MOL0    Cl32039   9.484   2.616   8.586 -0.0271 -0.3651 -0.7204
  238MOL0     C32040   8.481   1.731   8.468 -0.3000  0.1890  1.0223
  238MOL0     C32041   8.359   1.650   8.454 -0.6229 -0.2721 -0.7830
  238MOL0     O32042   8.318   1.329   8.241  0.4469 -0.6438 -0.2626
  238MOL0     C32043   8.039   1.299   8.466 -0.2397  0.2178  0.4400
  238MOL0     C32044   7.916   1.234   8.470  0.2692  0.3692  0.5301
  238MOL0     N32045   7.134   1.320   8.409 -0.4878  0.2502 -0.4674
  238MOL0     N32046   7.057   1.215   8.382 -0.5720  0.3484 -0.4907
  238MOL0     C32047   6.004   1.313   7.765 -0.2655 -0.1197 -0.2802
  238MOL0     C32048   5.889   1.354   7.709 -0.7773  0.5404  0.6448
  238MOL0     C32049   5.551   1.433   7.471  0.2258 -0.2511  0.3192
  238MOL0     C32050   5.414   1.432   7.527  0.4318  0.1893  0.6943
  238MOL0     C32051   5.320   1.505   7.453  0.6251 -0.6178  0.7039
  238MOL0     C32052   5.353   1.600   7.356 -0.1606 -0.5216  0.5490
  238MOL0     O32053   5.248   1.674   7.309  0.0603 -0.6351 -0.3457
  238MOL0     C32054   5.282   1.794   7.238  0.7748  0.7816  0.0110
  238MOL0     C32055   5.154   1.838   7.181  1.1250 -1.3097 -0.2157
  238MOL0     C32056   5.059   1.892   7.299  0.2234 -0.0444  1.4883
  238MOL0     C32057   4.930   1.967   7.254  0.5313  0.1033 -0.1448
  238MOL0     C32058   4.858   1.885   7.153 -1.0093 -0.0999  0.4872
  238MOL0     C32059   4.783   1.839   7.065  0.3258 -0.5668 -0.3371
  238MOL0     C32060   5.487   1.609   7.317 -0.0275  0.5226  0.4428
  238MOL0     C32061   5.584   1.518   7.363 -0.6493 -0.0564  0.2262
  238MOL0     C32062   5.726   1.530   7.303 -0.3830 -0.5023 -0.1902
  238MOL0     H32063   5.677   1.114   7.831  0.4406  0.1182  1.3001
  238MOL0     H32064   5.879   1.040   7.916  3.0517  0.0922  0.5776
  238MOL0     H32065   6.267   1.217   7.812  0.0785  0.6112  0.1907
  238MOL0     H32066   6.202   1.338   7.936  0.8112 -0.4999  2.5500
  238MOL0     H32067   6.319   1.075   8.021  2.2787 -0.0867 -0.4810
  238MOL0     H32068   6.295   1.233   8.105 -0.7732  0.4556 -0.9818
  238MOL0     H32069   6.493   1.319   7.974  1.0560 -1.3217 -0.3580
  238MOL0     H32070   6.519   1.153   7.912  0.5957  1.9544 -1.7864
  238MOL0     H32071   6.553   1.204   8.212  2.3085 -3.2599  1.5708
  238MOL0     H32072   6.535   1.064   8.131 -3.1419  1.9930  1.5445
  238MOL0     H32073   6.721   1.104   7.992 -2.2625 -1.2726  1.1118
  238MOL0     H32074   6.733   1.277   8.063 -1.4507 -0.0545  0.3522
  238MOL0     H32075   6.831   1.191   8.264 -1.9174  1.9290 -1.2560
  238MOL0     H32076   6.769   1.026   8.233 -0.1891  0.5010  0.9900
  238MOL0     H32077   6.971   1.163   8.047  1.5791 -0.4082  0.2664
  238MOL0     H32078   6.915   0.997   8.032 -5.1414  0.3506 -0.7488
  238MOL0     H32079   7.036   0.958   8.274 -0.4635  0.6956  1.7180
  238MOL0     H32080   7.137   0.994   8.135  0.1863  1.1419 -0.0255
  238MOL0     H32081   7.265   1.216   8.136 -1.0203  0.0099 -0.6607
  238MOL0     H32082   7.367   1.453   8.201 -1.9698 -1.2707 -1.1717
  238MOL0     H32083   7.292   1.530   8.343  0.3959 -0.9833  1.5580
  238MOL0     H32084   7.516   1.480   8.399  0.5459 -0.6897  1.4775
  238MOL0     H32085   7.412   1.381   8.498 -0.8797  2.4681 -0.6523
  238MOL0     H32086   7.574   1.284   8.243 -1.0968  0.3736 -0.8585
  238MOL0     H32087   7.441   1.183   8.314 -0.7627 -0.2492  1.9731
  238MOL0     H32088   7.565   1.146   8.505 -1.3808  2.0295  1.8170
  238MOL0     H32089   7.668   1.290   8.477 -1.8779  0.1524  1.1928
  238MOL0     H32090   7.887   1.123   8.155  1.7249 -0.9759  0.5582
  238MOL0     H32091   8.105   1.233   8.134  0.1039 -1.0850 -0.3928
  238MOL0     H32092   8.519   1.347   8.434  1.0710 -0.5939 -1.1697
  238MOL0     H32093   8.713   1.494   8.437 -1.2315 -2.7879  0.4110
  238MOL0     H32094   8.677   1.954   8.399 -1.2882  1.7498  1.1960
  238MOL0     H32095   8.680   1.936   8.574 -1.1610  1.1518 -0.5059
  238MOL0     H32096   8.922   1.879   8.567 -2.4694 -0.2827  0.7646
  238MOL0     H32097   8.921   1.907   8.391  0.4793  1.1403  0.4065
  238MOL0     H32098   8.839   2.142   8.439  0.9000  0.4725  0.5392
  238MOL0     H32099   8.867   2.108   8.618 -1.2598  0.0191 -0.6255
  238MOL0     H32100   9.092   2.072   8.425  0.7199 -0.3037  0.3355
  238MOL0     H32101   9.082   2.053   8.599 -0.4698 -0.2452  0.6302
  238MOL0     H32102   9.007   2.320   8.586 -1.8008 -1.3949 -1.3426
  238MOL0     H32103   9.074   2.289   8.428  0.2866 -1.9822 -0.4267
  238MOL0     H32104   9.234   2.269   8.682  0.2188 -0.0405 -0.8079
  238MOL0     H32105   9.296   2.214   8.537  1.2835  2.1706 -2.0524
  238MOL0     H32106   9.208   2.492   8.590  0.9764 -1.4918  2.8883
  238MOL0     H32107   9.283   2.444   8.432 -2.4112  0.3685 -0.1261
  238MOL0     H32108   9.393   2.431   8.715  1.7357  2.0811  1.0546
  238MOL0     H32109   9.489   2.377   8.581  1.0303  0.1854  5.0628
  238MOL0     H32110   8.473   1.839   8.464 -1.5684  0.1396 -3.7207
  238MOL0     H32111   8.265   1.704   8.465 -1.6686 -2.1545  0.0911
  238MOL0     H32112   8.072   1.358   8.551  0.3675 -0.2105  0.5077
  238MOL0     H32113   7.863   1.241   8.565  0.2255 -2.4475  0.8109
  238MOL0     H32114   6.095   1.370   7.746 -0.9302  0.5783 -1.5078
  238MOL0     H32115   5.880   1.441   7.644 -2.4504 -0.9557 -1.2705
  238MOL0     H32116   5.366   1.374   7.605 -2.6984  1.8080  0.1548
  238MOL0     H32117   5.213   1.493   7.462 -0.1032  2.4299 -1.8742
  238MOL0     H32118   5.349   1.785   7.152  1.2427 -0.4791  0.4821
  238MOL0     H32119   5.314   1.878   7.301 -0.7190  2.4140 -1.3316
  238MOL0     H32120   5.110   1.762   7.116 -0.0763 -1.0391  0.2622
  238MOL0     H32121   5.160   1.932   7.126 -0.7165  0.5316  2.4959
  238MOL0     H32122   5.123   1.964   7.350  1.3270  1.1095 -1.3136
  238MOL0     H32123   5.042   1.803   7.360 -1.2327 -0.4989  0.4978
  238MOL0     H32124   4.859   1.985   7.335  2.5182  3.0506  1.1039
  238MOL0     H32125   4.966   2.065   7.220 -1.6165  0.3813 -1.8189
  238MOL0     H32126   4.724   1.777   7.001 -3.7095  0.1358  2.3244
  238MOL0     H32127   5.517   1.682   7.242 -2.0625 -1.7758 -2.9049
  238MOL0     H32128   5.800   1.518   7.383  0.5237 -0.9103 -1.0641
  238MOL0     H32129   5.742   1.455   7.225 -0.6312  1.3863 -2.1344
  238MOL0     H32130   5.749   1.631   7.269 -1.8840 -0.1246 -0.1530
  239MOL0     O32131   5.313   8.734   1.785 -0.8977 -0.9983 -0.2592
  239MOL0     C32132   5.229   8.656   1.760  0.9159 -0.3814 -0.0178
  239MOL0     O32133   5.248   8.524   1.756 -0.1513  0.1871 -0.4621
  239MOL0     C32134   5.371   8.460   1.738  0.5057 -0.5936  0.2415
  239MOL0     C32135   5.481   8.515   1.674 -0.4622  0.2325  1.5999
  239MOL0     C32136   5.602   8.447   1.659 -0.0394 -0.3224  1.0833
  239MOL0     C32137   5.619   8.327   1.717  1.2653  0.7269 -1.0331
  239MOL0     O32138   5.746   8.278   1.704  0.5749 -0.1054  0.4629
  239MOL0     C32139   5.773   8.181   1.803  0.7454  1.2008 -0.2356
  239MOL0     C32140   5.919   8.187   1.824 -0.0535 -0.5627 -0.3088
  239MOL0     C32141   5.963   8.104   1.949 -0.2162  0.3501  0.4056
  239MOL0     C32142   6.090   8.012   1.913  0.1583 -0.4702  0.4339
  239MOL0     C32143   6.137   7.952   2.046  1.1295  0.8162  0.0826
  239MOL0     C32144   6.261   7.862   2.036  0.8874 -0.2898 -0.0514
  239MOL0     C32145   6.391   7.928   1.978 -0.3431 -0.3331 -0.5718
  239MOL0     C32146   6.498   7.821   1.937 -0.6847 -0.1036 -0.8496
  239MOL0     N32147   6.635   7.882   1.919 -0.2463  0.1046 -0.5340
  239MOL0     C32148   6.653   7.998   1.848 -0.7872 -0.3343 -0.1328
  239MOL0     C32149   6.793   8.012   1.848 -0.4490  0.2959  0.4210
  239MOL0     C32150   6.853   8.143   1.794 -0.9935  0.9781 -1.0033
  239MOL0     C32151   7.006   8.143   1.812 -0.5933 -0.7463  0.3958
  239MOL0     C32152   7.068   8.274   1.774 -0.1098 -0.8637 -0.3381
  239MOL0     C32153   7.220   8.262   1.803 -0.8052  0.5102  0.5605
  239MOL0     O32154   7.302   8.360   1.732 -0.5496 -0.9591  0.5652
  239MOL0     C32155   7.432   8.370   1.773  0.1850  0.1985  0.5958
  239MOL0     C32156   7.500   8.267   1.843 -0.9236 -0.5514 -0.0268
  239MOL0     C32157   7.645   8.272   1.859  1.1682  0.2728 -1.1343
  239MOL0     C32158   7.717   8.380   1.802  0.7806  0.0839  1.3315
  239MOL0     C32159   7.865   8.391   1.805 -0.4765  1.1534  0.7391
  239MOL0     O32160   7.927   8.309   1.899 -0.6550 -0.5022  0.2868
  239MOL0     C32161   8.065   8.287   1.889  0.3250 -0.3598 -0.3328
  239MOL0     C32162   8.120   8.236   1.773 -0.3641  0.2855 -0.5476
  239MOL0     C32163   8.261   8.203   1.764  0.2221 -0.2621 -0.6427
  239MOL0     C32164   8.337   8.230   1.874 -0.1897  0.0919 -0.3419
  239MOL0     O32165   8.469   8.212   1.850 -0.1084 -0.1841  0.7362
  239MOL0     C32166   8.566   8.276   1.936 -0.3990  0.4375  0.1242
  239MOL0     C32167   8.712   8.263   1.894  0.3615  0.3120 -0.3403
  239MOL0     C32168   8.817   8.298   1.998 -0.1022  0.3956 -0.5629
  239MOL0     C32169   8.948   8.216   1.977  0.9644 -0.1884 -0.4256
  239MOL0     C32170   9.060   8.251   2.071  0.1428  0.8648 -0.7761
  239MOL0     C32171   9.190   8.175   2.038 -0.5463 -0.6932  0.0097
  239MOL0     C32172   9.300   8.219   2.134  0.0085  0.1338  0.0703
  239MOL0     C32173   9.439   8.167   2.095 -0.1404 -0.3935 -0.1299
  239MOL0    Cl32174   9.561   8.238   2.199  0.5092 -0.1259  0.0141
  239MOL0     C32175   8.282   8.281   2.000  0.1156 -1.0740 -0.4876
  239MOL0     C32176   8.145   8.312   1.998  0.9119 -0.3759  0.8690
  239MOL0     O32177   7.922   8.467   1.731  0.5773 -0.4037  0.3762
  239MOL0     C32178   7.641   8.477   1.729  0.3824 -0.1885  0.7055
  239MOL0     C32179   7.498   8.478   1.716 -0.2546 -0.3448 -0.4364
  239MOL0     N32180   6.853   7.906   1.915  0.2144 -0.2605 -0.5598
  239MOL0     N32181   6.757   7.828   1.954 -0.4524  0.0489 -0.3277
  239MOL0     C32182   5.506   8.256   1.773  0.3696  0.2957  0.1429
  239MOL0     C32183   5.384   8.326   1.788 -0.4389  0.1233  0.2287
  239MOL0     C32184   5.095   8.703   1.740  0.6382  0.3004 -0.4959
  239MOL0     C32185   4.998   8.624   1.675  0.5274 -0.8489  0.0968
  239MOL0     C32186   4.867   8.669   1.654 -0.1357  0.3790  0.5835
  239MOL0     C32187   4.819   8.799   1.699 -0.8535 -0.2100  0.8622
  239MOL0     O32188   4.698   8.855   1.657  0.1180  0.3004  0.0215
  239MOL0     C32189   4.601   8.756   1.617  0.4301  0.3803 -0.7044
  239MOL0     C32190   4.471   8.828   1.622 -0.5048  0.4083  0.8517
  239MOL0     C32191   4.347   8.735   1.600 -0.5989 -1.1007  0.1856
  239MOL0     C32192   4.205   8.800   1.593  0.0661  0.1091 -0.8088
  239MOL0     C32193   4.098   8.701   1.553  0.8280 -0.6858  0.2196
  239MOL0     C32194   4.015   8.614   1.540 -0.8385  0.4385 -1.1626
  239MOL0     C32195   4.914   8.879   1.757 -0.6550 -0.1971 -0.0066
  239MOL0     C32196   5.043   8.833   1.779 -0.0680  0.3866 -0.0242
  239MOL0     C32197   5.116   8.929   1.868 -0.3175 -0.4025  0.0742
  239MOL0     H32198   5.472   8.613   1.628 -1.4928 -0.9365 -0.9036
  239MOL0     H32199   5.686   8.492   1.607 -2.0951  0.6310 -1.6746
  239MOL0     H32200   5.719   8.196   1.897  1.5996  0.4099  0.3980
  239MOL0     H32201   5.756   8.082   1.759 -0.2054  1.9481 -1.6269
  239MOL0     H32202   5.958   8.286   1.849  0.2563 -1.3643  2.7708
  239MOL0     H32203   5.975   8.163   1.733 -3.0197 -0.4206 -2.2920
  239MOL0     H32204   5.884   8.037   1.985 -1.2140  1.5321  0.4852
  239MOL0     H32205   5.987   8.170   2.033  0.4783  1.8211 -0.8922
  239MOL0     H32206   6.067   7.927   1.849  0.5809 -0.2805  0.0261
  239MOL0     H32207   6.177   8.065   1.873  0.5965 -1.1627  0.4366
  239MOL0     H32208   6.158   8.030   2.119 -0.5735 -0.9914  2.6949
  239MOL0     H32209   6.058   7.888   2.088  1.6796  0.8115  1.1440
  239MOL0     H32210   6.277   7.838   2.141 -2.2637 -1.1886  0.3241
  239MOL0     H32211   6.226   7.772   1.984 -0.8795  0.7371 -0.7257
  239MOL0     H32212   6.436   7.981   2.063 -1.7381  1.7696 -1.0752
  239MOL0     H32213   6.371   8.003   1.901 -3.2671  0.1486  0.5144
  239MOL0     H32214   6.503   7.756   2.025 -0.6048 -1.7330 -2.0209
  239MOL0     H32215   6.466   7.750   1.860 -0.1255 -0.2438 -0.9562
  239MOL0     H32216   6.591   8.076   1.805  1.3220  0.3291 -2.1890
  239MOL0     H32217   6.815   8.178   1.697  3.4505  1.2712 -2.8762
  239MOL0     H32218   6.808   8.216   1.862  5.2733  4.7305 -0.0229
  239MOL0     H32219   7.032   8.125   1.917  0.3862 -0.5581  0.1991
  239MOL0     H32220   7.050   8.064   1.751 -1.6021  0.3996 -1.9595
  239MOL0     H32221   7.024   8.362   1.821 -1.6317 -2.6154  1.7335
  239MOL0     H32222   7.060   8.298   1.667  0.3552  0.3792 -0.1059
  239MOL0     H32223   7.256   8.165   1.767 -0.1859  0.8387  0.2760
  239MOL0     H32224   7.237   8.269   1.911 -0.3619 -0.4128  0.5573
  239MOL0     H32225   7.458   8.173   1.878 -1.0918 -0.0127  1.2903
  239MOL0     H32226   7.704   8.189   1.896  0.2982  0.1205 -0.0298
  239MOL0     H32227   8.068   8.221   1.679 -2.2282 -2.8549  0.8354
  239MOL0     H32228   8.314   8.158   1.681  2.4294 -0.6684  0.8929
  239MOL0     H32229   8.539   8.382   1.941 -1.5211  0.3592 -2.6718
  239MOL0     H32230   8.554   8.242   2.039  0.3804  0.7813  0.3375
  239MOL0     H32231   8.717   8.161   1.856 -4.1860 -0.7846  1.2954
  239MOL0     H32232   8.726   8.340   1.818  0.2396  2.1574  1.4214
  239MOL0     H32233   8.826   8.407   1.989 -0.6337  0.4631 -0.3570
  239MOL0     H32234   8.787   8.289   2.103  0.0208  2.7858 -0.2575
  239MOL0     H32235   8.983   8.232   1.875 -0.3510  1.1094 -0.6872
  239MOL0     H32236   8.924   8.111   1.996  1.2043  0.1150  1.8489
  239MOL0     H32237   9.020   8.227   2.170 -1.4350  0.9018 -1.3772
  239MOL0     H32238   9.082   8.358   2.067  2.2840  0.6054  1.5731
  239MOL0     H32239   9.167   8.069   2.045  1.4574 -1.2026 -0.4334
  239MOL0     H32240   9.221   8.185   1.933  0.7505  1.1393  0.5100
  239MOL0     H32241   9.264   8.180   2.229 -2.7320 -1.4788 -1.4893
  239MOL0     H32242   9.302   8.328   2.137  1.5623  0.1095  0.7225
  239MOL0     H32243   9.429   8.061   2.117 -2.6197 -0.2110 -0.0733
  239MOL0     H32244   9.462   8.168   1.988 -0.9110 -0.1036 -0.2977
  239MOL0     H32245   8.331   8.302   2.095  2.8969 -0.2483 -1.9992
  239MOL0     H32246   8.102   8.336   2.095  1.4208 -0.3646  1.0969
  239MOL0     H32247   7.693   8.560   1.683 -0.0808 -1.1733 -1.7632
  239MOL0     H32248   7.437   8.562   1.683  0.3115 -0.2915 -1.3900
  239MOL0     H32249   5.512   8.153   1.805  1.1901  0.3901  0.3233
  239MOL0     H32250   5.307   8.273   1.845  0.2925 -0.3790  0.7733
  239MOL0     H32251   5.029   8.531   1.628 -1.1742 -0.3583 -2.1679
  239MOL0     H32252   4.811   8.615   1.579 -0.3199  2.1322 -0.5858
  239MOL0     H32253   4.598   8.671   1.686 -1.9867  0.9244 -0.0409
  239MOL0     H32254   4.615   8.709   1.520  0.1850 -1.4815  0.1121
  239MOL0     H32255   4.468   8.909   1.549 -0.3175 -0.7007 -0.4214
  239MOL0     H32256   4.466   8.869   1.723 -0.4049 -0.1364  1.0799
  239MOL0     H32257   4.348   8.666   1.684  1.3093 -1.8211 -0.3838
  239MOL0     H32258   4.352   8.674   1.509  0.5373 -1.7547  0.6690
  239MOL0     H32259   4.183   8.827   1.697 -0.1065 -1.5149 -0.3971
  239MOL0     H32260   4.190   8.888   1.530 -1.6309 -0.8917 -1.8869
  239MOL0     H32261   3.949   8.530   1.527 -2.8798  1.3095  2.2824
  239MOL0     H32262   4.878   8.981   1.771 -1.7467 -0.8149  2.0367
  239MOL0     H32263   5.145   8.890   1.967  2.7269  0.1031 -0.5120
  239MOL0     H32264   5.211   8.959   1.824 -1.4207  0.2193 -2.0426
  239MOL0     H32265   5.065   9.019   1.903  1.6438  0.1607  1.6629
  240MOL0     O32266   8.011   1.658   7.702  0.0828 -0.1337  0.0005
  240MOL0     C32267   7.979   1.670   7.584 -0.0740 -0.5109  0.2820
  240MOL0     O32268   8.060   1.704   7.479 -0.2954 -0.0838 -0.1333
  240MOL0     C32269   8.186   1.749   7.496  0.1754 -0.4985 -0.4524
  240MOL0     C32270   8.220   1.843   7.598 -0.5934 -0.0715 -0.3378
  240MOL0     C32271   8.358   1.862   7.616  0.2447  0.3241 -0.4832
  240MOL0     C32272   8.452   1.807   7.528  0.7160 -0.5869 -0.2307
  240MOL0     O32273   8.581   1.848   7.528  0.2343 -0.2986  0.7386
  240MOL0     C32274   8.642   1.888   7.658 -0.0691  0.3717 -0.0137
  240MOL0     C32275   8.785   1.901   7.624 -0.1088 -0.4553 -0.0230
  240MOL0     C32276   8.862   1.983   7.736  1.3198  0.0563  0.1592
  240MOL0     C32277   8.873   1.912   7.872 -0.4345 -0.3369 -0.9431
  240MOL0     C32278   8.957   1.781   7.864 -0.2578 -0.0369 -0.2766
  240MOL0     C32279   8.981   1.722   8.008 -0.0367 -0.0792 -0.1279
  240MOL0     C32280   9.047   1.584   8.013  0.1350  0.2406 -0.2180
  240MOL0     C32281   9.041   1.520   8.149 -1.4858 -0.2542  0.4161
  240MOL0     N32282   9.148   1.574   8.237  0.1883  0.5129  0.3451
  240MOL0     C32283   9.274   1.513   8.256  0.1148  0.1250  0.4866
  240MOL0     C32284   9.336   1.594   8.352  0.0641  0.5144 -0.2647
  240MOL0     C32285   9.467   1.569   8.413  0.3426  0.4092 -0.6953
  240MOL0     C32286   9.478   1.620   8.562  0.4326  0.2273 -0.3134
  240MOL0     C32287   9.628   1.600   8.593 -0.3423  1.0025 -0.8190
  240MOL0     C32288   9.656   1.676   8.711 -1.1393  0.5944  0.2429
  240MOL0     O32289   9.795   1.679   8.752 -0.1333 -0.0290  0.4064
  240MOL0     C32290   9.885   1.775   8.707 -0.5012  0.4668  0.4044
  240MOL0     C32291  10.021   1.762   8.741  0.7126  1.3448 -0.4803
  240MOL0     C32292  10.119   1.848   8.690  1.2564  0.2266 -0.4064
  240MOL0     C32293  10.083   1.969   8.631 -0.8318  0.9250  0.0464
  240MOL0     C32294  10.186   2.064   8.588 -0.1167 -0.5126 -0.3525
  240MOL0     O32295  10.311   2.021   8.579  0.0927 -0.3529  0.2070
  240MOL0     C32296  10.406   2.104   8.520 -0.2697  0.3484 -0.6817
  240MOL0     C32297  10.399   2.170   8.395  0.5160  0.1628  0.4764
  240MOL0     C32298  10.511   2.222   8.330  0.8301 -0.2090 -0.0230
  240MOL0     C32299  10.638   2.196   8.381  0.1792 -0.0989  0.0052
  240MOL0     O32300  10.754   2.240   8.320 -0.8399 -0.2073 -0.3883
  240MOL0     C32301  10.880   2.245   8.390 -0.1259 -0.4348  0.0345
  240MOL0     C32302  10.983   2.280   8.279 -0.0036 -0.5966  0.9262
  240MOL0     C32303  11.121   2.222   8.296  0.6935  0.5405  0.2666
  240MOL0     C32304  11.190   2.305   8.410  0.3176  0.2652  0.4468
  240MOL0     C32305  11.333   2.275   8.449 -0.3281  0.6416  0.4890
  240MOL0     C32306  11.439   2.366   8.387 -0.2940  0.2405  1.2437
  240MOL0     C32307  11.472   2.310   8.248 -0.9083  0.1777 -0.2274
  240MOL0     C32308  11.585   2.400   8.191 -0.1952  0.8831 -0.0232
  240MOL0    Cl32309  11.614   2.356   8.022  0.4797  0.1105 -0.2793
  240MOL0     C32310  10.648   2.141   8.515  0.4663  0.0242 -0.0125
  240MOL0     C32311  10.535   2.102   8.583 -0.1032 -0.3901 -0.1112
  240MOL0     O32312  10.145   2.169   8.536  0.0058  0.0840 -0.3517
  240MOL0     C32313   9.946   1.986   8.612 -0.2343 -0.3435  0.2384
  240MOL0     C32314   9.849   1.887   8.632  0.0845 -0.9222  0.0576
  240MOL0     N32315   9.259   1.704   8.371 -0.4242 -0.5241  0.1239
  240MOL0     N32316   9.148   1.694   8.307  0.1140  0.5045  0.7554
  240MOL0     C32317   8.411   1.730   7.420 -0.6584  0.6785  0.4850
  240MOL0     C32318   8.271   1.700   7.402 -0.4588  0.0249  0.7800
  240MOL0     C32319   7.829   1.678   7.566  0.8257 -0.4245  0.4523
  240MOL0     C32320   7.741   1.692   7.678 -0.2618  0.3656  0.1921
  240MOL0     C32321   7.603   1.704   7.660 -0.1157 -0.4331 -0.1074
  240MOL0     C32322   7.538   1.667   7.536 -0.2037  1.2763 -0.0447
  240MOL0     O32323   7.398   1.673   7.536 -0.3724 -0.2312 -0.4018
  240MOL0     C32324   7.332   1.625   7.420  0.2455 -0.0908  0.3373
  240MOL0     C32325   7.188   1.664   7.405  0.0825 -0.8567  0.5905
  240MOL0     C32326   7.108   1.580   7.502 -0.5659  0.5344  0.2935
  240MOL0     C32327   6.961   1.602   7.473  0.0201 -0.1867 -0.0385
  240MOL0     C32328   6.892   1.637   7.597  0.3465 -0.4076 -0.1189
  240MOL0     C32329   6.839   1.678   7.698  0.0937 -0.1905 -0.0715
  240MOL0     C32330   7.621   1.634   7.435 -0.0966  0.0251 -0.3044
  240MOL0     C32331   7.762   1.638   7.445 -0.2681 -0.9436 -0.4328
  240MOL0     C32332   7.835   1.610   7.325  0.4673  0.4288  0.5145
  240MOL0     H32333   8.146   1.900   7.654 -1.7884  1.5849 -3.3863
  240MOL0     H32334   8.377   1.932   7.696  1.4572 -3.1354  2.5185
  240MOL0     H32335   8.590   1.974   7.702 -2.6180 -1.1680  0.2373
  240MOL0     H32336   8.647   1.810   7.735  0.2250  0.5317  0.1318
  240MOL0     H32337   8.792   1.966   7.536  1.0143  0.0570  0.4293
  240MOL0     H32338   8.827   1.801   7.618 -2.5802 -1.5377 -0.4264
  240MOL0     H32339   8.814   2.082   7.734 -1.5794 -1.2540 -0.6849
  240MOL0     H32340   8.963   2.006   7.700  0.1780  2.0432 -2.0466
  240MOL0     H32341   8.936   1.976   7.933  0.4110 -1.3565 -0.7150
  240MOL0     H32342   8.783   1.881   7.927  1.8634 -2.5462  1.9520
  240MOL0     H32343   8.909   1.708   7.798  0.9235 -0.7325 -0.3913
  240MOL0     H32344   9.059   1.795   7.828  0.8710  0.0678  2.6365
  240MOL0     H32345   9.041   1.790   8.069 -0.3516 -1.8789  2.3304
  240MOL0     H32346   8.887   1.717   8.064  0.8189  0.2518  1.4027
  240MOL0     H32347   9.149   1.610   7.986  0.9693  0.5319  2.8204
  240MOL0     H32348   8.992   1.518   7.945 -2.0488 -0.5553  2.1601
  240MOL0     H32349   8.951   1.562   8.193 -0.0023  2.4060  1.1253
  240MOL0     H32350   9.053   1.412   8.143  2.1144 -0.0740  1.6277
  240MOL0     H32351   9.309   1.418   8.218  1.4457  0.5687  0.5625
  240MOL0     H32352   9.494   1.463   8.411 -1.0567 -0.1168  2.4508
  240MOL0     H32353   9.545   1.619   8.354 -1.1806  0.7572 -2.4949
  240MOL0     H32354   9.462   1.727   8.572  3.2355  0.8087 -1.1959
  240MOL0     H32355   9.415   1.556   8.624  2.8436 -1.1571  0.8553
  240MOL0     H32356   9.697   1.628   8.513  0.5063  2.2189  0.2850
  240MOL0     H32357   9.648   1.494   8.612 -0.3532  1.1605  0.1344
  240MOL0     H32358   9.603   1.630   8.795  1.0754 -1.1751  0.7661
  240MOL0     H32359   9.604   1.772   8.707 -2.6241 -0.0326  2.5321
  240MOL0     H32360  10.042   1.683   8.812 -1.9604  3.2060  2.7115
  240MOL0     H32361  10.222   1.821   8.709  1.7674  2.5586  0.5579
  240MOL0     H32362  10.299   2.177   8.352 -0.4417 -4.6916  1.2852
  240MOL0     H32363  10.508   2.266   8.230 -1.9050 -4.5679 -2.1928
  240MOL0     H32364  10.889   2.326   8.463  0.7997 -0.8468  0.3908
  240MOL0     H32365  10.908   2.147   8.428  0.9173  1.0612  3.4684
  240MOL0     H32366  10.933   2.251   8.186  1.4376  0.8691 -0.3630
  240MOL0     H32367  10.984   2.389   8.264 -0.8266 -0.7240 -0.1869
  240MOL0     H32368  11.105   2.114   8.311  0.4716 -0.1159 -3.7580
  240MOL0     H32369  11.174   2.236   8.202 -0.8648 -1.0343 -0.9246
  240MOL0     H32370  11.127   2.278   8.495 -0.0659 -3.8778 -0.9144
  240MOL0     H32371  11.178   2.411   8.384 -0.3589  0.3587  1.1046
  240MOL0     H32372  11.346   2.167   8.442 -2.6493  0.2706  1.1600
  240MOL0     H32373  11.337   2.283   8.559  1.6314  1.8093  0.3880
  240MOL0     H32374  11.417   2.473   8.389  1.1324  0.7858 -2.7054
  240MOL0     H32375  11.533   2.344   8.438  1.0846 -0.1654 -1.3031
  240MOL0     H32376  11.388   2.306   8.178 -1.3515 -1.5964  0.3623
  240MOL0     H32377  11.499   2.206   8.268 -1.2783 -0.2427 -1.7912
  240MOL0     H32378  11.560   2.506   8.186 -1.9064  0.4612 -1.6346
  240MOL0     H32379  11.674   2.385   8.253 -0.6236 -1.9888  0.0499
  240MOL0     H32380  10.741   2.124   8.569 -1.4571 -1.7131  3.0503
  240MOL0     H32381  10.550   2.058   8.680 -1.3614 -1.0888 -0.2071
  240MOL0     H32382   9.912   2.071   8.554  1.0740  0.0836  0.0484
  240MOL0     H32383   9.744   1.902   8.609  0.4184  2.7751  0.3530
  240MOL0     H32384   8.477   1.680   7.350 -3.2089 -3.4281  0.6904
  240MOL0     H32385   8.241   1.640   7.316  2.5064 -0.0503 -0.2941
  240MOL0     H32386   7.783   1.706   7.777  0.9042  2.4382 -0.5262
  240MOL0     H32387   7.540   1.711   7.748 -1.2073 -1.0571 -0.8077
  240MOL0     H32388   7.346   1.517   7.415  0.6354 -0.0122 -0.4270
  240MOL0     H32389   7.373   1.675   7.332 -2.0934  0.1728 -0.6642
  240MOL0     H32390   7.169   1.628   7.303 -0.1140 -1.5215  0.8613
  240MOL0     H32391   7.167   1.771   7.415 -0.9344 -0.7260 -1.9349
  240MOL0     H32392   7.126   1.601   7.608  0.2390  1.7318 -0.0642
  240MOL0     H32393   7.139   1.475   7.496  1.0076  0.9414  0.8073
  240MOL0     H32394   6.950   1.687   7.405 -1.0201  1.4930  2.1085
  240MOL0     H32395   6.914   1.522   7.416  1.5791  2.2223 -5.4300
  240MOL0     H32396   6.795   1.723   7.785  3.8272  2.6506  0.5754
  240MOL0     H32397   7.576   1.612   7.339 -1.3024  2.1344 -0.2883
  240MOL0     H32398   7.901   1.689   7.287  0.9269  0.0588  0.5345
  240MOL0     H32399   7.902   1.524   7.336 -2.0640 -1.7436 -0.1354
  240MOL0     H32400   7.768   1.564   7.252  1.3018  1.5652 -1.0259
  241MOL0     O32401   7.905   6.578  10.187  0.3203  0.2273  0.0405
  241MOL0     C32402   7.904   6.569  10.063  0.2443  0.0283  0.4841
  241MOL0     O32403   8.021   6.555   9.998 -0.1942 -0.6431  0.0011
  241MOL0     C32404   8.146   6.581  10.044  0.4561 -0.5134  0.7833
  241MOL0     C32405   8.166   6.658  10.158 -0.4676  0.8485  0.1768
  241MOL0     C32406   8.294   6.671  10.210  0.6189 -0.2179 -0.0486
  241MOL0     C32407   8.404   6.599  10.162  0.0221  0.2155 -0.5612
  241MOL0     O32408   8.524   6.612  10.231 -0.4246 -0.4521 -0.3222
  241MOL0     C32409   8.633   6.536  10.175  0.1306  0.6159 -0.1394
  241MOL0     C32410   8.752   6.545  10.273  0.0777  0.6229  0.1108
  241MOL0     C32411   8.731   6.459  10.397 -0.8830  0.3103 -0.1845
  241MOL0     C32412   8.843   6.478  10.497 -1.6168 -0.1276  0.4143
  241MOL0     C32413   8.831   6.392  10.620 -0.5914 -1.0669  0.2846
  241MOL0     C32414   8.979   6.366  10.673  0.4061 -0.5078 -0.6711
  241MOL0     C32415   8.979   6.279  10.800 -0.2499  1.0790 -0.2627
  241MOL0     C32416   8.895   6.154  10.799  0.4615  0.3989 -0.3290
  241MOL0     N32417   8.947   6.070  10.688  0.2601 -0.0214 -0.9794
  241MOL0     C32418   9.060   6.005  10.706 -0.2553  0.7059  0.5269
  241MOL0     C32419   9.094   5.951  10.584  0.1632  0.7058 -0.0546
  241MOL0     C32420   9.234   5.893  10.552 -0.1532  0.0766  0.8186
  241MOL0     C32421   9.269   5.932  10.406  0.1092  0.0995 -0.0959
  241MOL0     C32422   9.425   5.936  10.392  0.2836 -0.5872 -0.0845
  241MOL0     C32423   9.492   5.796  10.376 -0.3409 -0.7942  0.3813
  241MOL0     O32424   9.621   5.809  10.311 -0.7632 -0.3866 -0.0304
  241MOL0     C32425   9.731   5.823  10.392 -0.7551  0.6546  0.3918
  241MOL0     C32426   9.729   5.836  10.531 -0.1342 -0.8178  1.0115
  241MOL0     C32427   9.852   5.827  10.601 -0.4303 -0.4728  0.0334
  241MOL0     C32428   9.979   5.814  10.531  0.0439 -0.4979  0.6519
  241MOL0     C32429  10.095   5.794  10.612  0.3322  0.4664 -0.0168
  241MOL0     O32430  10.221   5.797  10.556  0.2230  0.3416 -0.9089
  241MOL0     C32431  10.339   5.759  10.612  0.6188  0.0885  0.1665
  241MOL0     C32432  10.446   5.830  10.591  0.5640  0.0475 -0.1027
  241MOL0     C32433  10.573   5.792  10.641 -0.8152  0.5564 -0.3746
  241MOL0     C32434  10.587   5.676  10.716  0.0490 -0.4764 -0.9274
  241MOL0     O32435  10.712   5.648  10.774  0.0084  0.6013  0.3013
  241MOL0     C32436  10.735   5.512  10.826  1.3437  0.2534  0.1483
  241MOL0     C32437  10.863   5.513  10.904  0.1848  0.5966 -0.6382
  241MOL0     C32438  10.979   5.511  10.811  0.5737  0.0259 -0.7023
  241MOL0     C32439  11.114   5.543  10.885 -0.0033 -0.5575 -0.5282
  241MOL0     C32440  11.229   5.600  10.802 -0.2547  0.1088  1.2269
  241MOL0     C32441  11.307   5.507  10.711  0.0550 -0.6031  0.2602
  241MOL0     C32442  11.362   5.379  10.768 -0.4708  0.5259 -0.6176
  241MOL0     C32443  11.458   5.309  10.678  0.4115  0.0363 -0.3170
  241MOL0    Cl32444  11.623   5.393  10.658  0.0291 -0.5968  0.7470
  241MOL0     C32445  10.472   5.590  10.732  0.2374  0.1525  0.1282
  241MOL0     C32446  10.349   5.635  10.679 -0.4285 -0.1250  0.2943
  241MOL0     O32447  10.074   5.777  10.735  0.1247  0.1290 -1.0144
  241MOL0     C32448   9.975   5.821  10.390  0.5012 -0.2052 -0.0510
  241MOL0     C32449   9.854   5.833  10.326  0.3124 -0.0189  0.2986
  241MOL0     N32450   8.990   5.978  10.500 -0.0603 -0.6206  0.0366
  241MOL0     N32451   8.902   6.044  10.565  0.2668 -0.2574  0.5617
  241MOL0     C32452   8.385   6.523  10.047  1.3878  0.2230  0.7576
  241MOL0     C32453   8.254   6.508   9.995 -0.1380 -0.1577 -0.4923
  241MOL0     C32454   7.767   6.547   9.999  0.7372  0.0275  0.1910
  241MOL0     C32455   7.755   6.484   9.870 -0.0738 -0.0477  0.4697
  241MOL0     C32456   7.628   6.473   9.807 -0.1426 -0.5507  0.1471
  241MOL0     C32457   7.514   6.486   9.878 -0.9611 -0.7509  0.1965
  241MOL0     O32458   7.388   6.444   9.844  0.6674  0.0460  0.4179
  241MOL0     C32459   7.369   6.374   9.717  0.2377  0.1535 -0.2948
  241MOL0     C32460   7.226   6.405   9.688  0.6129  1.0288 -0.0390
  241MOL0     C32461   7.184   6.363   9.549  0.8440  0.7821 -0.2518
  241MOL0     C32462   7.035   6.365   9.519 -0.1730 -0.0995 -0.0998
  241MOL0     C32463   6.943   6.311   9.624 -0.9227 -0.4020 -0.7766
  241MOL0     C32464   6.864   6.262   9.700  0.3678 -0.5628 -0.7578
  241MOL0     C32465   7.521   6.541  10.001 -0.0951 -0.3580  0.0738
  241MOL0     C32466   7.642   6.578  10.059  0.1749  0.5049  0.2493
  241MOL0     C32467   7.632   6.643  10.193 -0.1860 -0.6149 -0.3375
  241MOL0     H32468   8.085   6.718  10.198 -3.8220 -2.2412 -1.3635
  241MOL0     H32469   8.298   6.731  10.300 -4.0044  0.4288 -0.0198
  241MOL0     H32470   8.621   6.428  10.180 -1.3852  0.8143  2.0055
  241MOL0     H32471   8.663   6.572  10.076  0.2038  1.1851  0.0857
  241MOL0     H32472   8.759   6.650  10.301 -0.7106  0.4077  1.1951
  241MOL0     H32473   8.843   6.517  10.219  0.2329 -3.2295  2.0363
  241MOL0     H32474   8.727   6.353  10.369  2.9807 -0.0181 -0.0681
  241MOL0     H32475   8.635   6.477  10.446 -1.5237 -1.2477 -0.8197
  241MOL0     H32476   8.940   6.460  10.450 -0.0580  3.4126  1.8822
  241MOL0     H32477   8.843   6.585  10.521  3.5536 -0.1213  1.5677
  241MOL0     H32478   8.760   6.441  10.688 -2.6073 -1.9792 -1.0709
  241MOL0     H32479   8.797   6.291  10.597  0.7414 -1.4232 -0.2452
  241MOL0     H32480   9.035   6.309  10.599  1.5348 -1.1110  0.6137
  241MOL0     H32481   9.034   6.460  10.689 -0.3654  0.1136 -1.5498
  241MOL0     H32482   8.936   6.343  10.878 -0.3742 -0.4986  1.0049
  241MOL0     H32483   9.084   6.252  10.816 -0.1869  1.2563 -0.3655
  241MOL0     H32484   8.925   6.109  10.894  0.2071  0.8497 -0.0377
  241MOL0     H32485   8.786   6.159  10.800  0.1293 -2.9847 -2.0456
  241MOL0     H32486   9.121   6.003  10.795  1.1731  0.3295 -0.4319
  241MOL0     H32487   9.309   5.913  10.629  1.2988 -3.2644  0.4255
  241MOL0     H32488   9.216   5.785  10.551  0.1349  0.0032 -1.2050
  241MOL0     H32489   9.230   5.851  10.345  0.1505  0.7716 -1.0448
  241MOL0     H32490   9.219   6.026  10.380  1.3859  0.9859  0.5157
  241MOL0     H32491   9.471   5.984  10.478  1.7688 -0.1278 -1.0987
  241MOL0     H32492   9.435   5.998  10.302 -0.2380  0.8731  0.8187
  241MOL0     H32493   9.417   5.745  10.316 -1.2493 -0.9828  1.6369
  241MOL0     H32494   9.492   5.750  10.476 -1.8118  1.4444  1.5022
  241MOL0     H32495   9.638   5.851  10.588 -1.0557  0.1536 -0.6337
  241MOL0     H32496   9.850   5.827  10.710  0.4069  1.8950  0.1241
  241MOL0     H32497  10.441   5.926  10.541  1.1216 -0.2406 -0.7176
  241MOL0     H32498  10.663   5.850  10.622 -0.9372  1.4723  1.6053
  241MOL0     H32499  10.657   5.488  10.899  1.3630 -0.9176 -0.1938
  241MOL0     H32500  10.729   5.434  10.749 -2.5548 -0.9054  1.3871
  241MOL0     H32501  10.866   5.600  10.970  0.6553  2.0313 -2.4833
  241MOL0     H32502  10.857   5.423  10.967 -1.8593 -0.5427 -2.3456
  241MOL0     H32503  10.985   5.411  10.766  1.1351  0.2170 -1.0732
  241MOL0     H32504  10.979   5.571  10.720 -0.7149  2.2314  0.6772
  241MOL0     H32505  11.151   5.475  10.963  0.5767  1.2377  0.8270
  241MOL0     H32506  11.083   5.623  10.952 -3.0568 -1.6003 -0.5569
  241MOL0     H32507  11.304   5.653  10.862  1.0459  1.2880 -1.2563
  241MOL0     H32508  11.190   5.685  10.745  0.6934  0.8946  1.7056
  241MOL0     H32509  11.234   5.469  10.638  1.6763 -4.3397  0.3270
  241MOL0     H32510  11.387   5.560  10.657 -1.0661 -1.4399 -2.4249
  241MOL0     H32511  11.286   5.301  10.778  1.6346 -2.1529 -3.6011
  241MOL0     H32512  11.395   5.387  10.872 -0.7056 -0.1585 -0.4825
  241MOL0     H32513  11.470   5.203  10.702 -3.3313 -0.3998  0.3006
  241MOL0     H32514  11.406   5.310  10.582 -0.7655  1.9068  0.2842
  241MOL0     H32515  10.476   5.503  10.797 -4.2731  0.3512  1.0525
  241MOL0     H32516  10.266   5.566  10.691 -0.7850  0.1256 -0.5895
  241MOL0     H32517  10.072   5.828  10.343  0.9838  1.3115  1.1131
  241MOL0     H32518   9.861   5.844  10.219  0.4141 -2.9964 -0.0730
  241MOL0     H32519   8.461   6.452  10.014  0.1459 -0.3770 -0.9255
  241MOL0     H32520   8.243   6.445   9.908 -1.2695  0.7120 -1.0147
  241MOL0     H32521   7.843   6.461   9.811  1.7976  1.4732  2.4901
  241MOL0     H32522   7.634   6.431   9.707  0.3938 -1.9551  0.7428
  241MOL0     H32523   7.382   6.265   9.725  1.7284  0.1284 -2.1923
  241MOL0     H32524   7.432   6.421   9.640 -1.5033  0.2212 -1.7437
  241MOL0     H32525   7.192   6.509   9.695  3.4085  2.2824 -2.8045
  241MOL0     H32526   7.170   6.342   9.757 -0.9278  0.1380 -2.0208
  241MOL0     H32527   7.204   6.256   9.542 -2.0281  0.2651 -2.0834
  241MOL0     H32528   7.238   6.423   9.475  2.0990 -1.2847 -1.0837
  241MOL0     H32529   7.004   6.469   9.503 -1.2781 -0.7491 -2.8216
  241MOL0     H32530   7.024   6.306   9.428 -1.1889 -2.2385  1.3373
  241MOL0     H32531   6.790   6.224   9.767  0.9434  0.4473  0.4978
  241MOL0     H32532   7.429   6.547  10.060 -0.9939  2.0243 -1.4321
  241MOL0     H32533   7.542   6.704  10.197 -2.3140 -3.5350 -0.7472
  241MOL0     H32534   7.623   6.568  10.272  1.0756  2.0356  2.5521
  241MOL0     H32535   7.715   6.709  10.219  0.6577 -1.1459 -1.5573
  242MOL0     O32536   5.059   1.406   8.098  0.0698  0.5426 -0.0299
  242MOL0     C32537   5.041   1.475   8.201  0.5568  0.9578  0.1361
  242MOL0     O32538   5.133   1.552   8.264  0.4237  0.2282  0.3743
  242MOL0     C32539   5.269   1.548   8.237  0.8651 -0.5536  0.0820
  242MOL0     C32540   5.357   1.496   8.328 -0.2076  0.3919  0.0748
  242MOL0     C32541   5.495   1.506   8.301  0.0251  0.8257  0.2141
  242MOL0     C32542   5.541   1.547   8.175  0.6444 -0.4845 -0.3270
  242MOL0     O32543   5.666   1.527   8.128 -0.4300 -1.1304  0.0229
  242MOL0     C32544   5.765   1.476   8.219 -0.5541 -0.4889  0.5606
  242MOL0     C32545   5.876   1.403   8.135  0.2943 -1.1704 -0.0465
  242MOL0     C32546   5.976   1.503   8.073  0.1487 -0.5395  0.1537
  242MOL0     C32547   6.075   1.543   8.174 -0.5114 -0.0241 -0.0307
  242MOL0     C32548   6.187   1.635   8.121  1.1079 -0.0969  0.0915
  242MOL0     C32549   6.274   1.586   8.005  0.1311 -0.5511  0.3629
  242MOL0     C32550   6.394   1.670   7.985  0.6174  0.2027 -0.7062
  242MOL0     C32551   6.505   1.634   7.881 -0.2807 -0.4784  0.3569
  242MOL0     N32552   6.445   1.616   7.752  0.8188 -0.1272 -0.0992
  242MOL0     C32553   6.379   1.712   7.676 -1.0020  0.6772 -0.5200
  242MOL0     C32554   6.309   1.652   7.578 -0.4312  0.3862  0.3551
  242MOL0     C32555   6.222   1.710   7.470 -0.0204  0.2750 -0.2590
  242MOL0     C32556   6.103   1.790   7.517 -0.1714 -1.0026 -0.9153
  242MOL0     C32557   5.997   1.815   7.407  0.8706 -0.8256 -0.3837
  242MOL0     C32558   5.861   1.852   7.462  1.0503 -0.2718  0.0304
  242MOL0     O32559   5.805   1.754   7.550  0.4149 -0.0744  0.8766
  242MOL0     C32560   5.675   1.784   7.597 -0.1437 -0.3576  0.1648
  242MOL0     C32561   5.590   1.891   7.556 -0.5840 -0.7451  0.6711
  242MOL0     C32562   5.453   1.890   7.590 -0.3905  0.2282 -0.3706
  242MOL0     C32563   5.399   1.804   7.689 -0.3833  0.2969  0.0952
  242MOL0     C32564   5.261   1.823   7.729  0.1771 -0.7972  0.2025
  242MOL0     O32565   5.188   1.933   7.679  0.0248  0.1380 -0.0470
  242MOL0     C32566   5.061   1.942   7.732 -0.0842  0.1163  0.2976
  242MOL0     C32567   5.053   2.016   7.853 -0.4121 -1.0588  0.3655
  242MOL0     C32568   4.927   2.038   7.914  0.1299 -0.1427 -0.2005
  242MOL0     C32569   4.813   1.982   7.861 -0.4583  0.0917 -0.0763
  242MOL0     O32570   4.687   2.005   7.899  0.3371  0.3970 -0.4642
  242MOL0     C32571   4.647   2.129   7.884  0.3829 -0.0868 -0.2672
  242MOL0     C32572   4.506   2.155   7.942  0.0952  0.2076 -0.7113
  242MOL0     C32573   4.397   2.061   7.917  0.5993  0.3434  0.2588
  242MOL0     C32574   4.365   2.060   7.766 -0.2613  0.8674 -0.7187
  242MOL0     C32575   4.216   2.062   7.718 -0.0955  0.3276 -1.0643
  242MOL0     C32576   4.147   1.929   7.745 -0.3249  1.0202 -0.3794
  242MOL0     C32577   4.017   1.925   7.666 -0.3291  0.3829 -0.1741
  242MOL0     C32578   3.957   1.784   7.670  0.7151  0.8479  0.7448
  242MOL0    Cl32579   3.905   1.719   7.827 -0.2088  0.3410  0.0037
  242MOL0     C32580   4.827   1.914   7.737 -0.3921  0.2536  0.1091
  242MOL0     C32581   4.946   1.905   7.667 -0.1334  0.0944  0.0175
  242MOL0     O32582   5.211   1.742   7.803 -0.2527 -0.2621  0.2632
  242MOL0     C32583   5.479   1.705   7.732  0.1875 -0.6310 -0.6480
  242MOL0     C32584   5.614   1.697   7.694  0.1089 -0.5777  1.5664
  242MOL0     N32585   6.317   1.516   7.605 -0.2941  0.3854  0.2699
  242MOL0     N32586   6.387   1.497   7.711 -0.7834 -0.2972 -0.2327
  242MOL0     C32587   5.449   1.600   8.081 -0.4653  0.0714 -0.8452
  242MOL0     C32588   5.317   1.605   8.115  1.3557 -1.3851 -0.0392
  242MOL0     C32589   4.913   1.457   8.270  0.5711 -0.5442 -0.1564
  242MOL0     C32590   4.900   1.546   8.377  0.6028 -0.3783 -0.0284
  242MOL0     C32591   4.788   1.539   8.460  0.2107 -1.5740 -0.9667
  242MOL0     C32592   4.686   1.448   8.430  0.1817 -0.2346 -0.6004
  242MOL0     O32593   4.589   1.460   8.517  0.1433  0.4072 -0.0580
  242MOL0     C32594   4.460   1.460   8.463  0.1537  1.4084 -0.4885
  242MOL0     C32595   4.361   1.530   8.546 -0.2546 -0.1782 -0.6705
  242MOL0     C32596   4.222   1.544   8.487  0.5763 -0.3612  0.1736
  242MOL0     C32597   4.125   1.605   8.590 -0.1757  0.1378 -0.5212
  242MOL0     C32598   3.989   1.593   8.553 -0.2007  0.5138  0.0416
  242MOL0     C32599   3.872   1.575   8.539  0.6756  0.4154  0.6325
  242MOL0     C32600   4.703   1.354   8.322 -0.4485  0.0009 -1.3430
  242MOL0     C32601   4.809   1.363   8.238 -0.0535  0.1665 -0.2169
  242MOL0     C32602   4.813   1.274   8.115 -0.0353  0.0549 -0.2420
  242MOL0     H32603   5.319   1.458   8.422 -0.8821 -2.8773 -1.3478
  242MOL0     H32604   5.557   1.464   8.380  1.1419  2.1534  0.1000
  242MOL0     H32605   5.796   1.561   8.280  0.6286 -0.1876 -0.4130
  242MOL0     H32606   5.724   1.407   8.294 -0.5965  1.1473  2.1049
  242MOL0     H32607   5.820   1.348   8.058 -0.2097 -2.1108  0.9675
  242MOL0     H32608   5.928   1.326   8.193 -0.5014 -0.8569  1.0997
  242MOL0     H32609   5.924   1.593   8.037  1.4604  0.3989  0.5253
  242MOL0     H32610   6.012   1.464   7.978 -2.4912  0.6397 -1.4430
  242MOL0     H32611   6.030   1.603   8.253  0.6396 -1.1808  1.5706
  242MOL0     H32612   6.116   1.452   8.218 -1.7325  0.0930  1.4098
  242MOL0     H32613   6.139   1.731   8.100  0.4113 -0.8084 -1.7588
  242MOL0     H32614   6.253   1.654   8.206 -0.7503  0.3922  1.4848
  242MOL0     H32615   6.307   1.483   8.013  0.8992 -0.4850 -1.4681
  242MOL0     H32616   6.211   1.605   7.917 -2.0952  3.9807  2.5667
  242MOL0     H32617   6.449   1.676   8.080  3.5554  0.9619 -2.3174
  242MOL0     H32618   6.353   1.769   7.963 -1.1376 -0.4776 -0.6346
  242MOL0     H32619   6.589   1.705   7.877 -0.4014 -0.1412  2.7703
  242MOL0     H32620   6.550   1.538   7.908  2.4126  0.7663  0.6191
  242MOL0     H32621   6.392   1.818   7.692  0.0190  0.7545 -1.7052
  242MOL0     H32622   6.287   1.775   7.412  0.1393  0.0950 -0.2831
  242MOL0     H32623   6.190   1.635   7.397 -0.6531  0.5439 -0.2628
  242MOL0     H32624   6.058   1.739   7.602  0.0431  0.4492  0.1132
  242MOL0     H32625   6.138   1.888   7.552  1.4614 -1.0966 -2.1668
  242MOL0     H32626   5.979   1.723   7.350  3.7420 -1.4324 -0.4680
  242MOL0     H32627   6.030   1.878   7.323 -0.0273 -2.6573 -2.2048
  242MOL0     H32628   5.794   1.874   7.378  0.1864  2.4024  1.2917
  242MOL0     H32629   5.854   1.948   7.514 -2.8925  1.6382 -3.3907
  242MOL0     H32630   5.621   1.963   7.480 -0.5078 -0.6783  0.7653
  242MOL0     H32631   5.386   1.961   7.543  0.7596  1.3478 -0.3545
  242MOL0     H32632   5.141   2.067   7.888 -0.4831 -0.2664 -0.5723
  242MOL0     H32633   4.918   2.098   8.004  0.0906  3.0827 -2.1873
  242MOL0     H32634   4.712   2.198   7.938 -0.3764  0.8600 -0.5230
  242MOL0     H32635   4.656   2.149   7.777  0.4159 -0.2861 -0.3009
  242MOL0     H32636   4.510   2.175   8.049  2.7350 -2.5067 -0.1627
  242MOL0     H32637   4.463   2.251   7.913 -1.1497 -0.0811  0.0916
  242MOL0     H32638   4.419   1.965   7.964 -1.1522 -0.7471 -0.9994
  242MOL0     H32639   4.308   2.096   7.971 -0.1952  0.2963 -0.9734
  242MOL0     H32640   4.410   1.975   7.714 -2.3142 -1.6904  1.3864
  242MOL0     H32641   4.413   2.147   7.720  3.9815 -0.6588  0.3755
  242MOL0     H32642   4.195   2.075   7.612 -2.0400  1.0515 -0.6474
  242MOL0     H32643   4.164   2.137   7.779  1.0180 -1.0060  1.6940
  242MOL0     H32644   4.214   1.855   7.700 -1.2594  0.0313 -0.1829
  242MOL0     H32645   4.129   1.925   7.853  5.8848  1.1064  1.0675
  242MOL0     H32646   4.028   1.947   7.559  1.7781 -2.9980 -0.7842
  242MOL0     H32647   3.947   1.992   7.717  1.9240  2.2328  0.7028
  242MOL0     H32648   3.867   1.801   7.611  0.7718 -0.9548  0.0945
  242MOL0     H32649   4.021   1.707   7.626 -0.8023 -0.1488  0.2382
  242MOL0     H32650   4.739   1.886   7.680  1.1576  1.0195 -2.9306
  242MOL0     H32651   4.941   1.867   7.566 -2.4929 -1.0583  0.4798
  242MOL0     H32652   5.437   1.635   7.803  1.7141 -0.2640  0.6789
  242MOL0     H32653   5.664   1.616   7.746  0.6167 -2.6874 -1.8588
  242MOL0     H32654   5.486   1.641   7.988  2.6703 -2.1984 -0.7602
  242MOL0     H32655   5.245   1.651   8.048  0.2288 -2.7535  0.1780
  242MOL0     H32656   4.985   1.600   8.418  0.0209 -0.1151  0.8609
  242MOL0     H32657   4.787   1.600   8.550 -1.4828 -2.7871 -0.1089
  242MOL0     H32658   4.436   1.354   8.463 -0.0042  1.4446 -1.1582
  242MOL0     H32659   4.458   1.501   8.362 -1.4098 -1.7013 -1.8375
  242MOL0     H32660   4.391   1.635   8.545 -1.9768  0.4016  1.4674
  242MOL0     H32661   4.355   1.475   8.640  3.2756 -2.1784 -1.4275
  242MOL0     H32662   4.193   1.441   8.463  3.8527 -2.2463  3.3898
  242MOL0     H32663   4.222   1.609   8.399 -1.0710 -0.9821 -0.3299
  242MOL0     H32664   4.142   1.552   8.684 -0.8671  0.5388 -0.1693
  242MOL0     H32665   4.145   1.712   8.602 -1.2931  0.2312  0.7756
  242MOL0     H32666   3.769   1.544   8.536  1.1916 -1.3469 -1.0459
  242MOL0     H32667   4.632   1.278   8.291 -1.1721 -1.6094  3.5345
  242MOL0     H32668   4.909   1.225   8.096  0.3230  0.7255 -0.1699
  242MOL0     H32669   4.733   1.200   8.124 -1.1631  1.2079 -0.4174
  242MOL0     H32670   4.790   1.337   8.029  1.8304  0.5645 -0.4127
  243MOL0     O32671   3.975  10.865   1.436 -0.1249  0.1577  0.1074
  243MOL0     C32672   3.992  10.739   1.421  0.3405 -0.1354  0.5651
  243MOL0     O32673   3.891  10.650   1.433 -0.4330  0.5328 -0.8079
  243MOL0     C32674   3.760  10.678   1.464 -0.0171 -0.4566 -0.0253
  243MOL0     C32675   3.659  10.591   1.415 -0.3970  0.3973 -0.3739
  243MOL0     C32676   3.528  10.615   1.447 -1.1732  0.3836 -0.1051
  243MOL0     C32677   3.492  10.721   1.531 -0.4829 -0.5270 -0.6921
  243MOL0     O32678   3.362  10.756   1.559 -0.2058  0.5477 -0.6688
  243MOL0     C32679   3.320  10.872   1.639 -0.5504  0.3194 -0.1819
  243MOL0     C32680   3.165  10.870   1.640 -0.1917  0.3658 -0.3425
  243MOL0     C32681   3.099  10.968   1.732  0.1090  0.2550  0.0052
  243MOL0     C32682   3.115  11.110   1.672 -0.2050  0.4130  0.3107
  243MOL0     C32683   3.086  11.207   1.779  0.0655  0.0672 -1.0484
  243MOL0     C32684   3.129  11.353   1.762  0.0012  0.8825 -0.6976
  243MOL0     C32685   3.170  11.425   1.889  0.1573 -0.3019 -0.3963
  243MOL0     C32686   3.081  11.415   2.014 -0.6796 -0.5218  0.1966
  243MOL0     N32687   3.094  11.523   2.115 -0.7981 -0.0531 -0.7724
  243MOL0     C32688   3.035  11.650   2.106  0.6120 -0.6391  0.1002
  243MOL0     C32689   3.041  11.700   2.230  0.0429  0.0474 -0.6572
  243MOL0     C32690   2.987  11.828   2.277 -0.5681 -0.5322 -0.4835
  243MOL0     C32691   2.932  11.837   2.422  0.0413  0.5825  0.4363
  243MOL0     C32692   3.027  11.788   2.526 -0.0791  0.1027  0.0737
  243MOL0     C32693   2.965  11.813   2.677  0.2708 -0.8391 -0.5222
  243MOL0     O32694   3.053  11.801   2.784 -0.3212 -0.5703 -0.1544
  243MOL0     C32695   3.142  11.902   2.803 -1.0075 -0.8121 -0.1521
  243MOL0     C32696   3.147  12.028   2.754  0.3939 -0.2137  0.1948
  243MOL0     C32697   3.244  12.116   2.794 -0.5294  0.3819  1.4078
  243MOL0     C32698   3.336  12.094   2.908  0.2103  0.6303  0.4982
  243MOL0     C32699   3.437  12.191   2.955  0.1543  1.5423  0.5738
  243MOL0     O32700   3.433  12.320   2.902 -0.5458 -0.7089 -0.4489
  243MOL0     C32701   3.538  12.397   2.949 -0.3297 -0.2153  0.3061
  243MOL0     C32702   3.515  12.487   3.050 -0.3277 -0.0778  0.2463
  243MOL0     C32703   3.609  12.583   3.084 -0.1685 -0.0517  0.6093
  243MOL0     C32704   3.745  12.588   3.027 -0.6656 -0.4228 -0.0003
  243MOL0     O32705   3.831  12.685   3.071 -0.3274 -0.2431  0.2722
  243MOL0     C32706   3.952  12.722   3.005 -0.7157 -0.3083  0.9695
  243MOL0     C32707   3.999  12.848   3.067  0.5068  0.4902  0.2314
  243MOL0     C32708   4.146  12.871   3.039  0.1074 -0.0949  0.1631
  243MOL0     C32709   4.178  13.013   3.091 -0.4212  0.3730  0.7445
  243MOL0     C32710   4.310  13.065   3.044 -0.1017  0.1804 -0.6710
  243MOL0     C32711   4.366  13.177   3.121 -0.7238  0.7239  0.9226
  243MOL0     C32712   4.407  13.284   3.019 -0.2029  0.1885  0.9167
  243MOL0     C32713   4.482  13.404   3.087  0.2954 -0.2665  0.5187
  243MOL0    Cl32714   4.431  13.562   3.030  0.3223 -0.4775 -0.4855
  243MOL0     C32715   3.766  12.484   2.929  0.2776 -0.4861  0.1584
  243MOL0     C32716   3.664  12.397   2.892 -0.4660  0.4491  0.5565
  243MOL0     O32717   3.513  12.154   3.043  0.2894  0.4219  0.4601
  243MOL0     C32718   3.324  11.967   2.962  0.0967 -0.1826 -0.1856
  243MOL0     C32719   3.223  11.882   2.904 -0.2020  0.9741 -0.7571
  243MOL0     N32720   3.132  11.622   2.293  0.1939  0.2204 -1.0542
  243MOL0     N32721   3.158  11.513   2.238  0.4059 -0.1884  0.5375
  243MOL0     C32722   3.598  10.793   1.589 -0.0864  0.3483 -0.1509
  243MOL0     C32723   3.729  10.780   1.556  0.2381  0.1188  0.0490
  243MOL0     C32724   4.127  10.693   1.375  0.0831  1.5680  0.1322
  243MOL0     C32725   4.222  10.789   1.351 -0.3374  0.5731 -0.1839
  243MOL0     C32726   4.348  10.766   1.301  0.0708  0.4633 -0.1020
  243MOL0     C32727   4.396  10.636   1.290 -0.5566  0.2891  0.1711
  243MOL0     O32728   4.534  10.618   1.270  0.9889 -1.0364 -0.4817
  243MOL0     C32729   4.590  10.490   1.238  0.0000 -0.2458 -0.6867
  243MOL0     C32730   4.744  10.490   1.228  0.1717 -1.2639  0.0202
  243MOL0     C32731   4.791  10.569   1.108  0.1206  0.1354 -0.2948
  243MOL0     C32732   4.934  10.619   1.117  1.3450 -0.1901 -0.1768
  243MOL0     C32733   4.993  10.633   0.989 -1.0844 -0.3206  0.9722
  243MOL0     C32734   5.058  10.628   0.884 -0.8085 -0.0324 -0.1193
  243MOL0     C32735   4.303  10.530   1.307 -0.0157 -0.3717 -0.5661
  243MOL0     C32736   4.172  10.558   1.349 -0.2660 -0.0333  0.6291
  243MOL0     C32737   4.078  10.448   1.367  0.8111  0.3017  1.0806
  243MOL0     H32738   3.676  10.501   1.356  0.6151  0.4985 -0.2554
  243MOL0     H32739   3.458  10.543   1.406 -1.0853  0.7396 -0.9055
  243MOL0     H32740   3.367  10.867   1.738  0.2152 -0.6521 -0.5850
  243MOL0     H32741   3.347  10.965   1.588 -1.8202 -0.4712 -2.4229
  243MOL0     H32742   3.142  10.771   1.681 -0.8743 -0.7742 -3.2486
  243MOL0     H32743   3.126  10.884   1.539 -1.7017  1.8287  0.3921
  243MOL0     H32744   3.154  10.962   1.827  1.3920  0.9358 -0.6629
  243MOL0     H32745   2.994  10.955   1.758  0.1395 -1.6417 -0.6645
  243MOL0     H32746   3.219  11.128   1.643  0.1666 -0.6789  0.9064
  243MOL0     H32747   3.051  11.122   1.585 -0.3614 -1.3323  0.1395
  243MOL0     H32748   2.978  11.203   1.797 -0.0109  0.9449 -1.2870
  243MOL0     H32749   3.145  11.166   1.861  1.6225  0.2733 -2.0122
  243MOL0     H32750   3.210  11.354   1.689 -1.5542  1.5895 -2.5228
  243MOL0     H32751   3.052  11.403   1.702 -0.3006  0.3479 -0.7734
  243MOL0     H32752   3.183  11.532   1.866  1.4288 -0.9230 -3.0097
  243MOL0     H32753   3.271  11.389   1.910 -0.2196 -0.4668  1.2837
  243MOL0     H32754   2.986  11.413   1.960  0.6526 -1.2687 -2.3129
  243MOL0     H32755   3.104  11.319   2.061  2.5798 -0.5239 -1.1657
  243MOL0     H32756   2.993  11.682   2.012 -1.5056  1.5591  1.6694
  243MOL0     H32757   3.066  11.903   2.277  1.1547 -2.2629  0.1325
  243MOL0     H32758   2.909  11.867   2.211  0.3622  1.5822 -0.4271
  243MOL0     H32759   2.905  11.941   2.443 -0.9428  0.3090  0.6067
  243MOL0     H32760   2.843  11.773   2.420  0.4344 -0.2410  3.9071
  243MOL0     H32761   3.123  11.841   2.520 -0.4455  0.7403 -0.2632
  243MOL0     H32762   3.044  11.680   2.516 -1.6991 -0.3397  1.5237
  243MOL0     H32763   2.878  11.747   2.683  0.7422 -1.4610 -0.4951
  243MOL0     H32764   2.924  11.915   2.676 -2.2338 -1.5860  3.7075
  243MOL0     H32765   3.080  12.063   2.677  0.3424 -0.0025  0.3351
  243MOL0     H32766   3.268  12.199   2.729 -0.9963 -1.8453 -1.8131
  243MOL0     H32767   3.418  12.501   3.097 -0.1276 -0.5655  0.8280
  243MOL0     H32768   3.583  12.647   3.168 -0.2927  0.0384  0.5030
  243MOL0     H32769   4.021  12.640   3.023  0.1983  0.4662  1.0552
  243MOL0     H32770   3.939  12.743   2.898  1.8810 -0.9489  0.4611
  243MOL0     H32771   3.932  12.928   3.034 -0.5670 -0.7920 -0.8137
  243MOL0     H32772   3.991  12.813   3.170  0.1126 -3.4755 -0.9824
  243MOL0     H32773   4.205  12.794   3.089  1.8741 -1.0782 -3.0780
  243MOL0     H32774   4.165  12.871   2.931  2.8254  0.3062  0.5640
  243MOL0     H32775   4.191  13.005   3.199  0.1281  1.1177  0.7348
  243MOL0     H32776   4.104  13.091   3.072  0.1047  1.1334  1.7620
  243MOL0     H32777   4.297  13.081   2.936 -2.3549 -0.4080 -0.5319
  243MOL0     H32778   4.381  12.982   3.056 -0.3565 -0.1885 -1.6234
  243MOL0     H32779   4.295  13.225   3.188 -0.8086  2.8998 -0.6357
  243MOL0     H32780   4.456  13.143   3.174 -2.2069 -0.0940  3.0473
  243MOL0     H32781   4.322  13.316   2.957 -0.4968 -2.0210  0.0632
  243MOL0     H32782   4.481  13.250   2.946  0.1081 -0.2383  1.4179
  243MOL0     H32783   4.466  13.398   3.195  1.7768  1.7304  0.9016
  243MOL0     H32784   4.590  13.400   3.067  0.3120 -0.9131  0.7100
  243MOL0     H32785   3.854  12.488   2.865  1.4932  0.2045  1.7951
  243MOL0     H32786   3.682  12.322   2.815  0.4560  0.5322  0.6925
  243MOL0     H32787   3.396  11.933   3.035 -0.3156 -2.4518 -0.7594
  243MOL0     H32788   3.220  11.780   2.941  0.5988  1.2008 -0.0247
  243MOL0     H32789   3.571  10.858   1.671  0.7947 -0.7613  1.0775
  243MOL0     H32790   3.809  10.838   1.599 -0.2961  1.7693 -1.0878
  243MOL0     H32791   4.191  10.892   1.357 -1.3291  0.2247  1.0481
  243MOL0     H32792   4.409  10.856   1.291 -1.3522  1.2908 -2.0272
  243MOL0     H32793   4.540  10.462   1.145  0.5597 -1.6586 -0.5873
  243MOL0     H32794   4.569  10.410   1.310  0.3188 -1.2694 -1.7162
  243MOL0     H32795   4.784  10.390   1.207 -1.4154 -2.3900  2.0064
  243MOL0     H32796   4.783  10.528   1.322 -3.2926  0.8516  0.7899
  243MOL0     H32797   4.715  10.644   1.086 -0.0347  1.1065  3.0076
  243MOL0     H32798   4.789  10.503   1.021  0.2879  0.1369 -0.2998
  243MOL0     H32799   4.935  10.715   1.170 -0.6311  0.6651 -1.5586
  243MOL0     H32800   4.991  10.549   1.179  2.3273 -0.3746 -1.2671
  243MOL0     H32801   5.123  10.606   0.802 -0.3505 -0.0397  0.2377
  243MOL0     H32802   4.333  10.430   1.278 -0.5631 -0.3688 -1.1480
  243MOL0     H32803   4.035  10.440   1.467  1.1485 -1.1374  1.1271
  243MOL0     H32804   3.995  10.463   1.298  0.6846 -2.2056  0.5847
  243MOL0     H32805   4.121  10.350   1.348  1.4004  0.6290  0.6933
  244MOL0     O32806   2.493  10.351   1.322 -0.7577  0.4807 -0.0747
  244MOL0     C32807   2.396  10.424   1.339 -0.9016 -0.3735 -0.0227
  244MOL0     O32808   2.402  10.542   1.412 -0.6850  0.9499  0.1302
  244MOL0     C32809   2.529  10.570   1.457  0.4485  0.6537 -0.6689
  244MOL0     C32810   2.558  10.536   1.592 -0.0955  0.1874  0.3244
  244MOL0     C32811   2.677  10.567   1.655 -0.7641 -0.0762 -0.0610
  244MOL0     C32812   2.777  10.633   1.576 -1.1882  0.1889 -0.5359
  244MOL0     O32813   2.899  10.672   1.629  0.1012 -0.1979 -0.6652
  244MOL0     C32814   2.984  10.550   1.645 -0.5147  0.2038  0.5895
  244MOL0     C32815   3.032  10.494   1.516 -0.3042  0.3512  0.7274
  244MOL0     C32816   3.075  10.341   1.527 -0.4020  0.0373 -0.3472
  244MOL0     C32817   3.206  10.329   1.608  0.5280  0.4388 -0.5932
  244MOL0     C32818   3.268  10.186   1.591 -0.0708  0.2116  0.0991
  244MOL0     C32819   3.358  10.191   1.461  0.4031 -1.1917  0.6207
  244MOL0     C32820   3.391  10.047   1.440 -1.0201 -0.1279  0.5845
  244MOL0     C32821   3.497  10.035   1.336  0.6092  0.4814  0.4492
  244MOL0     N32822   3.630  10.094   1.369 -0.0197  0.5151 -0.4262
  244MOL0     C32823   3.707  10.054   1.479  0.0797 -0.2472  0.8203
  244MOL0     C32824   3.807  10.142   1.485 -0.3520  0.2006  0.1533
  244MOL0     C32825   3.912  10.135   1.599  0.1554 -0.9181  1.0800
  244MOL0     C32826   4.044  10.082   1.539  0.6658  0.2610  0.1405
  244MOL0     C32827   4.158  10.086   1.642  0.1937 -0.9715 -0.4803
  244MOL0     C32828   4.288  10.048   1.588  0.5207 -0.7077 -0.0650
  244MOL0     O32829   4.282   9.918   1.540 -1.3674 -0.0143  0.1054
  244MOL0     C32830   4.398   9.852   1.500  0.1241 -0.8036  0.4697
  244MOL0     C32831   4.526   9.913   1.500  0.3420 -0.2299  0.2999
  244MOL0     C32832   4.642   9.845   1.447  0.6653 -1.0152 -0.1157
  244MOL0     C32833   4.639   9.716   1.392 -0.6518  0.6511  0.5731
  244MOL0     C32834   4.766   9.656   1.358  0.5889  0.2484  0.0944
  244MOL0     O32835   4.881   9.732   1.369 -0.4496 -0.1154 -0.5825
  244MOL0     C32836   5.001   9.673   1.330 -0.0664 -0.6784 -1.3809
  244MOL0     C32837   5.066   9.577   1.399  0.7394  0.6687 -0.7915
  244MOL0     C32838   5.190   9.532   1.354  0.2102 -0.0719  0.5079
  244MOL0     C32839   5.260   9.596   1.256 -0.4145 -0.5736  0.3491
  244MOL0     O32840   5.396   9.573   1.224  0.0520 -0.5570 -0.3741
  244MOL0     C32841   5.478   9.483   1.300  0.2938  0.1937  0.3960
  244MOL0     C32842   5.615   9.490   1.243  0.4654  0.0766 -0.0300
  244MOL0     C32843   5.717   9.408   1.320 -0.5442  0.3175 -0.9370
  244MOL0     C32844   5.863   9.419   1.269  0.1383 -0.0971 -0.8707
  244MOL0     C32845   5.914   9.567   1.258  0.1158 -0.0044 -0.7647
  244MOL0     C32846   5.933   9.637   1.397 -0.3211 -0.1299  0.4613
  244MOL0     C32847   6.077   9.685   1.413  1.0336 -0.2310 -0.6263
  244MOL0     C32848   6.086   9.724   1.564  0.7275  0.2488 -0.2075
  244MOL0    Cl32849   5.974   9.853   1.598 -0.0117 -0.0468  0.0202
  244MOL0     C32850   5.191   9.677   1.173  0.8576  0.7438 -0.0127
  244MOL0     C32851   5.056   9.715   1.204 -0.2697  0.3522 -0.2165
  244MOL0     O32852   4.764   9.541   1.310 -0.1772 -0.5366  0.2683
  244MOL0     C32853   4.515   9.659   1.380  1.2770  0.5855 -1.0585
  244MOL0     C32854   4.397   9.718   1.445  0.1892 -0.4529  0.1312
  244MOL0     N32855   3.794  10.232   1.376  0.3665  0.7828 -0.2078
  244MOL0     N32856   3.696  10.191   1.303 -0.2689  0.1181  0.1936
  244MOL0     C32857   2.747  10.677   1.446  0.8383  0.2906  0.0188
  244MOL0     C32858   2.622  10.642   1.386  1.3681 -0.1903 -0.0712
  244MOL0     C32859   2.276  10.389   1.271 -0.3549 -0.3672 -0.2674
  244MOL0     C32860   2.189  10.299   1.326 -0.1425  0.5764 -1.1884
  244MOL0     C32861   2.066  10.267   1.255  0.4260 -0.8816 -0.4830
  244MOL0     C32862   2.042  10.321   1.133  0.0458  0.1562  0.1561
  244MOL0     O32863   1.925  10.288   1.069  0.1312  0.7972  0.0723
  244MOL0     C32864   1.894  10.273   0.927  0.2606  0.1406  0.5896
  244MOL0     C32865   1.749  10.213   0.918  0.2621  0.4182  0.0840
  244MOL0     C32866   1.652  10.261   1.027 -0.0610  0.2714  0.0415
  244MOL0     C32867   1.511  10.191   1.016 -0.2255  0.2648  0.1985
  244MOL0     C32868   1.430  10.233   0.899 -0.7206 -0.6817  0.6675
  244MOL0     C32869   1.345  10.246   0.813 -0.1500  0.0932  0.0654
  244MOL0     C32870   2.136  10.404   1.072  0.2591 -0.6497 -0.2340
  244MOL0     C32871   2.251  10.440   1.144  0.7337 -0.0773 -0.8520
  244MOL0     C32872   2.338  10.533   1.063  1.0289  0.1739 -0.9169
  244MOL0     H32873   2.485  10.469   1.637  0.7164 -1.0897 -0.1919
  244MOL0     H32874   2.699  10.542   1.758  1.0550  1.6624  0.0365
  244MOL0     H32875   3.068  10.583   1.706  0.5083  1.3483 -1.3229
  244MOL0     H32876   2.927  10.477   1.703 -4.5652  2.4870 -0.1999
  244MOL0     H32877   3.106  10.555   1.463 -2.8106  1.3800 -1.8807
  244MOL0     H32878   2.944  10.477   1.453 -1.2558 -2.7932  2.6945
  244MOL0     H32879   3.096  10.316   1.423 -0.6365 -1.3030 -0.0950
  244MOL0     H32880   2.990  10.280   1.559  0.2796 -0.3951  0.7071
  244MOL0     H32881   3.269  10.409   1.570 -0.3673  3.0000  2.7765
  244MOL0     H32882   3.194  10.355   1.714  2.1464  1.4702 -0.6304
  244MOL0     H32883   3.325  10.168   1.682  0.3505 -0.3158 -0.2666
  244MOL0     H32884   3.188  10.115   1.570 -0.8539  0.0996  3.0046
  244MOL0     H32885   3.309  10.233   1.373 -1.0535 -1.4706  1.2732
  244MOL0     H32886   3.443  10.258   1.478  0.8667 -0.2622 -4.0037
  244MOL0     H32887   3.308   9.980   1.415 -3.4994  2.0642  2.3782
  244MOL0     H32888   3.436  10.006   1.531  0.5119  1.7256  0.7302
  244MOL0     H32889   3.516   9.927   1.336  3.7877  0.8411 -2.8804
  244MOL0     H32890   3.463  10.069   1.238 -2.2325  0.6701  1.4179
  244MOL0     H32891   3.685   9.987   1.561  1.0200 -1.0121  0.4704
  244MOL0     H32892   3.926  10.232   1.647 -3.8770  0.1626  0.4996
  244MOL0     H32893   3.869  10.065   1.671 -1.3943 -1.5671 -0.3781
  244MOL0     H32894   4.030   9.977   1.512 -1.1564  0.1725  1.2850
  244MOL0     H32895   4.070  10.151   1.458 -3.1597  1.6710 -0.0936
  244MOL0     H32896   4.134  10.023   1.729 -0.3761 -0.4243 -0.2340
  244MOL0     H32897   4.160  10.193   1.664 -0.0581 -0.7222 -1.5922
  244MOL0     H32898   4.367  10.058   1.663  0.7156  0.7640 -0.4387
  244MOL0     H32899   4.300  10.121   1.508 -0.9554  0.1766  0.4882
  244MOL0     H32900   4.537  10.007   1.553  0.2456  1.2653 -2.1774
  244MOL0     H32901   4.740   9.890   1.458 -0.0516  1.1698 -1.8961
  244MOL0     H32902   5.025   9.534   1.490 -1.7049  0.7670 -1.7804
  244MOL0     H32903   5.241   9.464   1.422 -0.7185 -1.3892 -0.0756
  244MOL0     H32904   5.477   9.518   1.404  3.0675  1.3633  0.1382
  244MOL0     H32905   5.445   9.379   1.299 -1.1591  0.5741  2.2852
  244MOL0     H32906   5.618   9.457   1.139  0.8994 -0.5542  0.1787
  244MOL0     H32907   5.636   9.597   1.256  0.6151  0.1451 -0.7659
  244MOL0     H32908   5.702   9.440   1.424  0.6149  0.0708 -0.6762
  244MOL0     H32909   5.693   9.303   1.306  1.0752 -0.6696  2.6220
  244MOL0     H32910   5.865   9.388   1.164 -2.3247  0.2456 -1.0857
  244MOL0     H32911   5.925   9.369   1.344 -1.7450 -2.1763 -0.6149
  244MOL0     H32912   5.865   9.631   1.185  2.2531  0.3177 -2.0158
  244MOL0     H32913   6.015   9.560   1.215  2.4750  3.0336  3.5344
  244MOL0     H32914   5.867   9.723   1.402 -0.9660 -0.6236  0.5540
  244MOL0     H32915   5.903   9.573   1.480  4.4260 -1.5529  1.4278
  244MOL0     H32916   6.100   9.769   1.347 -1.7868 -1.1941 -3.0359
  244MOL0     H32917   6.148   9.606   1.386  0.0967 -0.4256 -2.7026
  244MOL0     H32918   6.073   9.642   1.635 -2.5600  0.2965 -0.6251
  244MOL0     H32919   6.188   9.760   1.581  1.6143 -0.4895 -3.2654
  244MOL0     H32920   5.228   9.721   1.081 -1.1783 -2.1231 -2.3907
  244MOL0     H32921   4.996   9.779   1.139 -1.4736 -0.5892 -0.0700
  244MOL0     H32922   4.503   9.569   1.320  1.6262  0.9339 -1.6555
  244MOL0     H32923   4.297   9.676   1.440  0.0474 -0.0553 -0.4882
  244MOL0     H32924   2.822  10.731   1.389 -0.2524  2.6787  0.6903
  244MOL0     H32925   2.595  10.682   1.290  2.6227  3.1951  0.8624
  244MOL0     H32926   2.220  10.257   1.421 -0.1366  1.2870 -0.8765
  244MOL0     H32927   1.981  10.207   1.287 -2.5331  2.6931 -0.9781
  244MOL0     H32928   1.958  10.200   0.877  1.2359  0.8747  0.7276
  244MOL0     H32929   1.905  10.373   0.883  0.2997 -0.5366 -1.0060
  244MOL0     H32930   1.760  10.105   0.928  0.2650  0.2661 -1.4682
  244MOL0     H32931   1.711  10.232   0.818 -2.9820  0.3973  1.1929
  244MOL0     H32932   1.632  10.367   1.006 -3.0018 -0.2015  0.0026
  244MOL0     H32933   1.687  10.246   1.130 -3.0786 -1.5919  0.9372
  244MOL0     H32934   1.526  10.083   1.026  0.8924  0.5217  1.4972
  244MOL0     H32935   1.456  10.235   1.100 -1.7603 -0.1681 -0.5307
  244MOL0     H32936   1.273  10.244   0.733 -0.2782  0.6912  0.1602
  244MOL0     H32937   2.111  10.454   0.979  1.0736  3.4676  1.4912
  244MOL0     H32938   2.280  10.602   1.001  0.8045  2.5650  1.7357
  244MOL0     H32939   2.398  10.596   1.130  0.2096 -0.1993  0.2118
  244MOL0     H32940   2.406  10.482   0.995  0.7578 -0.1693 -0.9355
  245MOL0     O32941  10.862   7.132   2.287  0.1826  0.6482 -0.5436
  245MOL0     C32942  10.908   7.114   2.177  0.1741 -0.2942  0.0819
  245MOL0     O32943  10.829   7.076   2.079 -0.2846 -0.0829  0.0391
  245MOL0     C32944  10.691   7.089   2.080 -0.1207  0.0374 -0.0854
  245MOL0     C32945  10.626   7.181   2.000 -0.6179  0.2861  0.4543
  245MOL0     C32946  10.490   7.198   2.008  0.5370 -0.1154  0.8713
  245MOL0     C32947  10.410   7.124   2.097  0.2557 -0.4433  0.7273
  245MOL0     O32948  10.273   7.143   2.105  0.5770  0.0733  0.0538
  245MOL0     C32949  10.217   7.272   2.084  0.4675  0.0889  0.6296
  245MOL0     C32950  10.177   7.302   1.941 -0.7597 -1.0531  0.7202
  245MOL0     C32951  10.102   7.442   1.925  0.5184 -1.3395 -0.7826
  245MOL0     C32952  10.186   7.555   1.860 -0.3841 -0.8825 -0.3627
  245MOL0     C32953  10.099   7.678   1.808 -0.7320  0.5140 -0.0843
  245MOL0     C32954  10.197   7.767   1.728  0.3682  0.3602  0.0066
  245MOL0     C32955  10.115   7.875   1.652  0.1713  0.2459  0.3173
  245MOL0     C32956  10.210   7.950   1.550  1.1516 -0.9322 -0.0759
  245MOL0     N32957  10.288   8.049   1.621 -0.1243  0.0332  0.3746
  245MOL0     C32958  10.245   8.174   1.642 -0.0444  0.3119  0.3745
  245MOL0     C32959  10.336   8.232   1.727  0.4387 -0.4320  0.4266
  245MOL0     C32960  10.327   8.372   1.764  0.2670 -0.8691 -0.5462
  245MOL0     C32961  10.452   8.409   1.841  0.2020  0.1321 -0.5420
  245MOL0     C32962  10.452   8.554   1.879 -0.2126 -0.5989 -0.6525
  245MOL0     C32963  10.576   8.640   1.837 -0.1198  0.5126 -0.3689
  245MOL0     O32964  10.694   8.570   1.885  0.4743  0.4091  0.2289
  245MOL0     C32965  10.827   8.610   1.866 -0.5158 -0.0701  0.9563
  245MOL0     C32966  10.934   8.517   1.880 -0.3252 -0.5009  0.5060
  245MOL0     C32967  11.071   8.554   1.857  0.7427  0.1072  0.2969
  245MOL0     C32968  11.099   8.686   1.819 -0.2464  0.0872 -0.3488
  245MOL0     C32969  11.242   8.729   1.812 -0.7260  0.4781 -0.5461
  245MOL0     O32970  11.335   8.653   1.882  0.1914 -0.2164  0.5965
  245MOL0     C32971  11.462   8.689   1.843  0.0078  0.0953 -1.0340
  245MOL0     C32972  11.522   8.796   1.917 -0.5902 -0.0835  0.4063
  245MOL0     C32973  11.658   8.823   1.891  0.4015 -0.1654  0.1164
  245MOL0     C32974  11.725   8.765   1.781  0.4880 -0.6493  0.7407
  245MOL0     O32975  11.860   8.800   1.775 -0.1552 -0.2509  0.3513
  245MOL0     C32976  11.920   8.766   1.647  0.3720  0.6264  0.0951
  245MOL0     C32977  12.053   8.839   1.631  0.7658  0.2546  1.0297
  245MOL0     C32978  12.124   8.769   1.521  0.4555  0.7540  0.9019
  245MOL0     C32979  12.257   8.845   1.506  0.0158  0.0099  0.1938
  245MOL0     C32980  12.350   8.766   1.413 -1.1733 -0.0277 -0.3642
  245MOL0     C32981  12.491   8.835   1.426 -0.1693 -0.5514 -0.0252
  245MOL0     C32982  12.593   8.771   1.329 -0.3833  0.0469 -0.8610
  245MOL0     C32983  12.729   8.838   1.359  0.1239 -0.3075  0.6184
  245MOL0    Cl32984  12.796   8.764   1.510  0.2174 -0.3466  0.2431
  245MOL0     C32985  11.657   8.665   1.709 -0.0965  0.2070  1.0277
  245MOL0     C32986  11.529   8.627   1.743  0.5361 -0.1892  0.9579
  245MOL0     O32987  11.268   8.842   1.765  0.0916  0.0176 -0.4432
  245MOL0     C32988  10.993   8.776   1.798 -0.4957 -1.0041  0.2522
  245MOL0     C32989  10.859   8.737   1.821 -0.6023 -0.0796  0.3248
  245MOL0     N32990  10.428   8.134   1.762  0.7267 -0.4647  0.6425
  245MOL0     N32991  10.401   8.028   1.693  0.1187 -0.3266 -0.3120
  245MOL0     C32992  10.471   7.023   2.168 -0.8892 -0.0387 -0.3785
  245MOL0     C32993  10.608   7.008   2.163  0.4660 -0.5672  0.8654
  245MOL0     C32994  11.060   7.118   2.154 -0.4600  0.2943  0.2031
  245MOL0     C32995  11.140   7.119   2.264  0.0509 -0.9670 -0.7471
  245MOL0     C32996  11.288   7.116   2.257  0.5910 -0.2972 -0.7442
  245MOL0     C32997  11.345   7.108   2.132 -0.2479  0.3625  0.8763
  245MOL0     O32998  11.479   7.111   2.117  0.2160  0.4036  0.3680
  245MOL0     C32999  11.538   7.101   1.985  0.4454 -0.1217  0.5092
  245MOL0     C33000  11.685   7.061   2.022 -0.7436 -0.0831  0.1642
  245MOL0     C33001  11.777   7.069   1.898  0.1909  0.0285  0.0421
  245MOL0     C33002  11.914   7.018   1.933 -0.3221 -0.3084 -0.7390
  245MOL0     C33003  11.985   7.120   2.018  0.2646  0.2675  0.1541
  245MOL0     C33004  12.022   7.195   2.104 -0.1831 -0.1326 -0.2108
  245MOL0     C33005  11.260   7.124   2.020 -1.0496 -0.4055 -0.1911
  245MOL0     C33006  11.122   7.122   2.022  0.1317 -0.8163 -0.3540
  245MOL0     C33007  11.046   7.138   1.893  0.3193  0.3251 -1.2759
  245MOL0     H33008  10.699   7.245   1.952  0.1190  0.6164  1.9381
  245MOL0     H33009  10.441   7.278   1.954 -0.8714 -1.6267 -0.2244
  245MOL0     H33010  10.125   7.286   2.141 -0.0732 -1.3878  0.1706
  245MOL0     H33011  10.285   7.350   2.120  1.8401 -0.9649  0.4002
  245MOL0     H33012  10.100   7.232   1.908 -1.0264 -0.1437 -0.6600
  245MOL0     H33013  10.258   7.293   1.869 -0.4158  0.8279  0.8268
  245MOL0     H33014  10.053   7.470   2.019  2.5578  0.4879 -0.1973
  245MOL0     H33015  10.026   7.430   1.847  0.6407  1.6759 -1.4788
  245MOL0     H33016  10.236   7.603   1.945  0.1004 -0.6455 -0.7769
  245MOL0     H33017  10.259   7.521   1.786  0.2321 -0.2060 -0.0855
  245MOL0     H33018  10.022   7.645   1.738  0.0894 -0.0929 -0.7211
  245MOL0     H33019  10.055   7.729   1.894  0.3183 -2.8208  2.6769
  245MOL0     H33020  10.270   7.806   1.799 -0.1889 -0.9828  1.3817
  245MOL0     H33021  10.248   7.705   1.654 -0.2590  0.4957 -0.5465
  245MOL0     H33022  10.077   7.949   1.723 -1.7060  0.7137 -1.0826
  245MOL0     H33023  10.030   7.829   1.601  0.0762  1.5707 -0.7968
  245MOL0     H33024  10.270   7.879   1.492  1.1309 -2.0461  1.2270
  245MOL0     H33025  10.146   7.999   1.476  3.8972  1.4942 -1.0578
  245MOL0     H33026  10.155   8.225   1.611  0.8133  3.6823  2.8515
  245MOL0     H33027  10.314   8.431   1.673 -0.9139 -2.1263 -1.2316
  245MOL0     H33028  10.237   8.382   1.824 -0.7578  2.3374 -2.3454
  245MOL0     H33029  10.468   8.349   1.931  0.9643  1.2938  0.1239
  245MOL0     H33030  10.533   8.387   1.771 -0.1974  1.9673 -1.6568
  245MOL0     H33031  10.437   8.579   1.985 -0.4251 -1.5326 -0.4560
  245MOL0     H33032  10.365   8.598   1.831  0.0845  1.3531  0.4501
  245MOL0     H33033  10.568   8.736   1.888  2.2354  1.1282 -1.0253
  245MOL0     H33034  10.589   8.654   1.729 -1.0257  0.6513 -0.4656
  245MOL0     H33035  10.921   8.411   1.897  3.7855 -1.0053  1.6887
  245MOL0     H33036  11.152   8.485   1.877  2.3755  1.5979 -0.8399
  245MOL0     H33037  11.461   8.847   1.992 -1.0874  3.6716 -2.2244
  245MOL0     H33038  11.715   8.895   1.949 -2.2902  0.2222  2.4486
  245MOL0     H33039  11.934   8.658   1.644  0.6598  0.6256  1.1165
  245MOL0     H33040  11.842   8.780   1.571  0.3626  1.8430  0.3011
  245MOL0     H33041  12.028   8.943   1.605  0.4847  0.0567  0.5032
  245MOL0     H33042  12.096   8.840   1.732 -3.3557 -1.7951  3.0698
  245MOL0     H33043  12.138   8.665   1.551 -1.6309  0.2776  0.4174
  245MOL0     H33044  12.077   8.777   1.423 -0.9938 -0.1005  1.4854
  245MOL0     H33045  12.311   8.860   1.600 -0.9743 -3.8502  1.5521
  245MOL0     H33046  12.249   8.940   1.452  1.7479  0.0714 -0.0117
  245MOL0     H33047  12.313   8.756   1.311  1.1197 -2.6845 -1.0356
  245MOL0     H33048  12.355   8.665   1.454  2.1328  0.7902  1.6081
  245MOL0     H33049  12.486   8.939   1.393 -0.4883 -0.5508  0.0282
  245MOL0     H33050  12.527   8.833   1.529  1.6903 -2.6769 -0.6274
  245MOL0     H33051  12.566   8.775   1.224 -1.8444 -2.0627 -0.6235
  245MOL0     H33052  12.608   8.665   1.353 -1.2395 -0.3698 -2.0697
  245MOL0     H33053  12.798   8.797   1.286 -2.0514  0.7838 -2.2160
  245MOL0     H33054  12.730   8.947   1.369 -2.7073 -0.3327  2.6068
  245MOL0     H33055  11.696   8.603   1.629 -2.3410  0.8440 -0.6458
  245MOL0     H33056  11.478   8.549   1.687 -0.2895  0.7824  0.2968
  245MOL0     H33057  11.016   8.874   1.758  2.8708 -1.7050  0.1348
  245MOL0     H33058  10.781   8.809   1.796  2.8520  4.1097  0.3514
  245MOL0     H33059  10.412   6.958   2.232  0.0497  1.0650  1.7534
  245MOL0     H33060  10.667   6.928   2.208  0.4094 -0.8079  0.5157
  245MOL0     H33061  11.103   7.112   2.366  1.1189 -1.2219 -0.3608
  245MOL0     H33062  11.355   7.107   2.342 -0.0382  0.3402 -0.1601
  245MOL0     H33063  11.529   7.192   1.925 -4.7124 -0.2987  0.5025
  245MOL0     H33064  11.499   7.022   1.919  0.5005  0.9945 -0.8993
  245MOL0     H33065  11.682   6.965   2.074 -0.9383  0.4156  1.0999
  245MOL0     H33066  11.723   7.119   2.107  0.5302 -1.8726  0.8966
  245MOL0     H33067  11.801   7.162   1.846  2.1328 -1.3755 -1.7359
  245MOL0     H33068  11.740   7.008   1.815  1.1679 -0.2743 -0.1893
  245MOL0     H33069  11.907   6.917   1.976 -3.4951 -0.4699 -1.3507
  245MOL0     H33070  11.970   7.012   1.840 -0.5348  0.8048 -0.9537
  245MOL0     H33071  12.061   7.269   2.170  1.0350  1.6393 -2.7403
  245MOL0     H33072  11.306   7.116   1.922  0.8711 -2.3971  0.8016
  245MOL0     H33073  10.993   7.044   1.878 -1.3298  0.7976  0.9603
  245MOL0     H33074  10.975   7.221   1.889 -0.9933 -0.3623  3.0521
  245MOL0     H33075  11.111   7.161   1.808 -2.7628  2.2401 -3.3209
  246MOL0     O33076   1.673   5.466  10.310  0.0500 -0.3990 -0.8168
  246MOL0     C33077   1.630   5.582  10.302 -0.2711 -0.6199  0.1518
  246MOL0     O33078   1.690   5.685  10.225 -0.3658 -0.3137  0.2871
  246MOL0     C33079   1.779   5.646  10.138 -0.3612 -0.2494  0.4837
  246MOL0     C33080   1.913   5.688  10.156 -0.0256  0.2048 -0.2356
  246MOL0     C33081   2.017   5.653  10.059  0.6001 -0.5340 -0.1189
  246MOL0     C33082   1.980   5.572   9.949 -0.7181  0.2638  0.1729
  246MOL0     O33083   2.071   5.531   9.857 -0.1035  0.2160 -0.2844
  246MOL0     C33084   2.178   5.622   9.818 -0.3639  0.3810 -0.1168
  246MOL0     C33085   2.200   5.595   9.673  0.1215 -0.5751 -0.2051
  246MOL0     C33086   2.325   5.672   9.625 -0.0922 -0.2997 -0.1910
  246MOL0     C33087   2.293   5.705   9.477  0.0033  0.7258  0.0686
  246MOL0     C33088   2.396   5.805   9.433 -0.2801  1.0881 -0.2888
  246MOL0     C33089   2.537   5.750   9.406 -0.8809  0.1840 -0.1653
  246MOL0     C33090   2.628   5.860   9.356 -0.3472 -0.6912  0.4399
  246MOL0     C33091   2.639   5.998   9.437  0.9876 -0.4804 -0.1556
  246MOL0     N33092   2.701   5.984   9.568  0.0204 -0.1774 -0.2152
  246MOL0     C33093   2.641   5.978   9.695 -0.0899 -0.1180 -0.2595
  246MOL0     C33094   2.718   5.895   9.766 -0.0424  0.3787 -0.0935
  246MOL0     C33095   2.710   5.832   9.909  0.3271 -0.4842  0.1301
  246MOL0     C33096   2.776   5.935  10.006 -0.5304 -0.1794 -0.4034
  246MOL0     C33097   2.744   5.914  10.159 -0.0875  0.5501  0.8380
  246MOL0     C33098   2.832   6.001  10.257 -0.4687 -0.2161  0.3458
  246MOL0     O33099   2.964   5.995  10.209  0.4204  0.4434  0.6710
  246MOL0     C33100   3.050   6.078  10.282 -0.4329  0.3915  0.2235
  246MOL0     C33101   3.187   6.038  10.278 -0.1323  1.4404 -0.0112
  246MOL0     C33102   3.288   6.099  10.356  0.0346  0.4039 -0.6384
  246MOL0     C33103   3.255   6.221  10.422 -0.1635 -0.3442  0.4640
  246MOL0     C33104   3.368   6.293  10.475  0.4088  0.0173  0.4581
  246MOL0     O33105   3.490   6.263  10.426 -0.1830  0.3472 -0.4495
  246MOL0     C33106   3.595   6.320  10.494  0.8281  0.5965 -0.1513
  246MOL0     C33107   3.641   6.444  10.468  0.3503 -0.5320 -0.4668
  246MOL0     C33108   3.739   6.500  10.540 -0.2081 -0.4207 -1.1039
  246MOL0     C33109   3.801   6.434  10.650 -0.4718 -0.0698 -0.3987
  246MOL0     O33110   3.903   6.484  10.731 -0.3691  0.8568  0.3388
  246MOL0     C33111   3.937   6.622  10.741 -0.1769  0.0618 -0.1876
  246MOL0     C33112   4.081   6.650  10.682  0.2900 -0.2060 -0.4647
  246MOL0     C33113   4.188   6.562  10.750 -0.2970  0.1256  0.8281
  246MOL0     C33114   4.311   6.561  10.656 -0.5311  0.1795 -0.2314
  246MOL0     C33115   4.441   6.494  10.718  0.6093 -0.1566  0.2073
  246MOL0     C33116   4.552   6.478  10.619  1.1497 -0.5676 -0.0728
  246MOL0     C33117   4.540   6.342  10.550 -0.8273  0.4420  0.4140
  246MOL0     C33118   4.643   6.344  10.437 -0.0803 -0.5944  0.1340
  246MOL0    Cl33119   4.629   6.179  10.354  0.0343  0.0538 -0.0549
  246MOL0     C33120   3.750   6.308  10.684 -1.0238  0.2028  0.1222
  246MOL0     C33121   3.636   6.262  10.613  0.2242 -0.2597 -1.2568
  246MOL0     O33122   3.344   6.387  10.552  0.4401 -0.1298 -0.5944
  246MOL0     C33123   3.117   6.267  10.424 -0.2011  0.2335 -0.5480
  246MOL0     C33124   3.015   6.193  10.359 -0.9713  0.0661  0.8320
  246MOL0     N33125   2.833   5.855   9.694 -0.3019  0.1776  0.1154
  246MOL0     N33126   2.816   5.908   9.579  0.1933 -0.1998  1.4219
  246MOL0     C33127   1.848   5.537   9.933 -0.1008  0.4398  0.0752
  246MOL0     C33128   1.750   5.577  10.018  0.4736 -0.3459  0.5244
  246MOL0     C33129   1.489   5.596  10.356 -0.0518 -0.0396 -0.4794
  246MOL0     C33130   1.450   5.522  10.469  0.7362 -0.0698  0.1116
  246MOL0     C33131   1.332   5.556  10.540 -0.5734  0.1208 -0.1356
  246MOL0     C33132   1.242   5.651  10.487 -0.1241  1.2840 -0.9180
  246MOL0     O33133   1.126   5.663  10.555 -0.4256  0.5927 -0.7195
  246MOL0     C33134   1.030   5.757  10.511 -0.4849 -0.8944 -0.4608
  246MOL0     C33135   0.909   5.768  10.605 -1.4548  0.3362  0.9400
  246MOL0     C33136   0.864   5.630  10.636  0.3659  0.3301  1.1615
  246MOL0     C33137   0.731   5.644  10.731  0.4754  0.2387  0.3160
  246MOL0     C33138   0.658   5.513  10.724  0.3225  0.7877 -0.5047
  246MOL0     C33139   0.579   5.420  10.726  0.3009  0.2571  0.5377
  246MOL0     C33140   1.265   5.702  10.363  0.4087 -0.2162 -0.3601
  246MOL0     C33141   1.392   5.681  10.298 -0.0554 -0.7211  0.0441
  246MOL0     C33142   1.414   5.783  10.184 -0.3382 -0.6302  0.1334
  246MOL0     H33143   1.942   5.743  10.245 -1.3227 -1.4010  1.2283
  246MOL0     H33144   2.119   5.683  10.080  0.1702  0.3419  0.8505
  246MOL0     H33145   2.179   5.729   9.840  0.2223  0.4821 -0.6173
  246MOL0     H33146   2.268   5.585   9.868  0.5119  0.3065 -1.6637
  246MOL0     H33147   2.114   5.628   9.616  1.4777  0.5813 -1.6596
  246MOL0     H33148   2.205   5.487   9.659  2.5010 -0.5580  0.0992
  246MOL0     H33149   2.406   5.599   9.621 -0.0160 -0.1677 -1.3853
  246MOL0     H33150   2.350   5.762   9.683  0.1042 -1.9983  2.5652
  246MOL0     H33151   2.300   5.617   9.412 -1.0497  0.6694  0.0194
  246MOL0     H33152   2.191   5.741   9.460 -0.3039 -0.1976 -0.0932
  246MOL0     H33153   2.358   5.844   9.338  0.6492  1.3407 -0.5610
  246MOL0     H33154   2.398   5.885   9.508 -2.6736  1.1678 -0.2157
  246MOL0     H33155   2.588   5.719   9.498  1.8400 -0.2721 -1.7098
  246MOL0     H33156   2.526   5.664   9.340  0.0348 -2.5789  2.9878
  246MOL0     H33157   2.591   5.881   9.255 -0.6079  0.8831  0.8372
  246MOL0     H33158   2.729   5.820   9.361  0.0804  0.2889 -0.0733
  246MOL0     H33159   2.699   6.066   9.375  2.4719 -0.4499  1.2573
  246MOL0     H33160   2.534   6.023   9.459  0.4069 -3.3256  0.7476
  246MOL0     H33161   2.543   6.012   9.727 -0.5007 -1.0783 -0.4441
  246MOL0     H33162   2.603   5.817   9.924  0.0863  0.0647 -0.9266
  246MOL0     H33163   2.763   5.737   9.911  3.7624  1.2806  0.5781
  246MOL0     H33164   2.884   5.935   9.993 -0.2878 -1.9471  1.1639
  246MOL0     H33165   2.738   6.037   9.994 -0.6596  0.0129  1.3355
  246MOL0     H33166   2.770   5.809  10.176 -2.1372 -0.1686 -0.0940
  246MOL0     H33167   2.636   5.921  10.174 -0.7866  2.4950 -3.5884
  246MOL0     H33168   2.809   5.960  10.356 -2.3540 -0.4078 -0.1282
  246MOL0     H33169   2.794   6.101  10.238  0.8155 -0.0947 -2.0233
  246MOL0     H33170   3.210   5.954  10.212  0.0108  1.4445  0.0324
  246MOL0     H33171   3.391   6.065  10.358 -0.1373 -0.1082 -0.1839
  246MOL0     H33172   3.588   6.503  10.394 -0.4764  2.6944  2.4719
  246MOL0     H33173   3.774   6.600  10.517  1.5979 -1.2362 -2.1316
  246MOL0     H33174   3.870   6.689  10.687 -1.9375  0.0456  1.8340
  246MOL0     H33175   3.938   6.655  10.845  1.4988 -1.5567  0.3734
  246MOL0     H33176   4.072   6.640  10.574  0.6084 -1.7766 -0.3632
  246MOL0     H33177   4.121   6.751  10.697  0.9877 -0.5945  0.4433
  246MOL0     H33178   4.217   6.616  10.841  2.5273  2.8586 -1.4688
  246MOL0     H33179   4.150   6.463  10.774 -1.1745  0.4715  0.9108
  246MOL0     H33180   4.340   6.663  10.632 -2.6189  0.6561 -0.9888
  246MOL0     H33181   4.276   6.523  10.559 -2.7677  3.6368 -0.9453
  246MOL0     H33182   4.413   6.395  10.755 -1.5350  0.4863  0.3848
  246MOL0     H33183   4.479   6.550  10.804 -1.5027 -1.3314  1.9765
  246MOL0     H33184   4.536   6.556  10.545 -0.6582 -1.2156 -0.3893
  246MOL0     H33185   4.647   6.491  10.673  0.4034 -0.1074  1.1677
  246MOL0     H33186   4.439   6.328  10.511 -1.0887 -2.4114  1.8343
  246MOL0     H33187   4.564   6.258  10.615  0.0554 -0.5844 -1.1804
  246MOL0     H33188   4.611   6.424  10.370  0.0297 -1.6892 -1.2786
  246MOL0     H33189   4.747   6.367  10.465 -0.6493  0.2386  1.6826
  246MOL0     H33190   3.777   6.248  10.771 -1.1762  2.0182  1.4751
  246MOL0     H33191   3.593   6.165  10.635 -1.9770  0.3876 -2.3500
  246MOL0     H33192   3.092   6.355  10.482  3.1803  1.0198 -0.0658
  246MOL0     H33193   2.912   6.226  10.367 -0.9082  0.2494  0.8979
  246MOL0     H33194   1.826   5.498   9.834 -0.7691  0.9567  0.0169
  246MOL0     H33195   1.648   5.561   9.985  0.3504  0.5221  0.4764
  246MOL0     H33196   1.516   5.449  10.515  1.4440  1.6150  1.9085
  246MOL0     H33197   1.310   5.519  10.640  0.3202 -1.8412 -0.6321
  246MOL0     H33198   1.001   5.718  10.413  0.3542 -0.2332 -0.9809
  246MOL0     H33199   1.066   5.859  10.498 -0.4145 -0.4778  2.3517
  246MOL0     H33200   0.834   5.843  10.579 -1.7435 -0.1601  0.2951
  246MOL0     H33201   0.963   5.806  10.692  0.3444  1.3513 -0.5543
  246MOL0     H33202   0.940   5.574  10.691  1.2842  0.3056 -0.0773
  246MOL0     H33203   0.828   5.574  10.549 -4.3814  4.0119  0.3417
  246MOL0     H33204   0.764   5.678  10.829  0.8607 -3.7154  1.7457
  246MOL0     H33205   0.656   5.718  10.701 -0.9976 -0.5541  1.9210
  246MOL0     H33206   0.501   5.352  10.754  0.8707  0.3830  2.5562
  246MOL0     H33207   1.188   5.772  10.331 -3.0178 -2.1849  2.8818
  246MOL0     H33208   1.450   5.736  10.092 -0.0938  0.0531 -0.1292
  246MOL0     H33209   1.320   5.834  10.159 -0.3016 -1.5172 -1.9753
  246MOL0     H33210   1.491   5.857  10.208  0.2159 -0.8078 -1.0318
  247MOL0     O33211   0.614   0.443   4.763  0.1274  0.6166  1.0558
  247MOL0     C33212   0.689   0.361   4.820  0.0684  0.1947  0.4716
  247MOL0     O33213   0.656   0.273   4.912 -0.3315 -0.3257 -0.6713
  247MOL0     C33214   0.528   0.249   4.955  0.5429  0.0393  1.0460
  247MOL0     C33215   0.484   0.263   5.086 -0.0534  0.0025  0.3714
  247MOL0     C33216   0.342   0.255   5.105 -0.5063 -0.1444  0.6169
  247MOL0     C33217   0.244   0.234   5.013 -0.5448 -0.6405 -0.1301
  247MOL0     O33218   0.112   0.258   5.044  1.1230  0.8327  0.3555
  247MOL0     C33219   0.026   0.282   4.925  0.6589  0.2472 -0.2194
  247MOL0     C33220  -0.112   0.351   4.959 -0.4601 -0.0444  0.1997
  247MOL0     C33221  -0.193   0.254   5.040 -0.5574  0.0074 -0.2353
  247MOL0     C33222  -0.326   0.312   5.071  0.1335 -0.4365 -0.5877
  247MOL0     C33223  -0.426   0.228   5.144  0.7613 -0.0486  0.7822
  247MOL0     C33224  -0.557   0.308   5.168 -1.3372  1.0114  0.3457
  247MOL0     C33225  -0.650   0.217   5.247  0.4760  0.0072 -0.3704
  247MOL0     C33226  -0.791   0.283   5.262  0.2564  0.1518 -0.1860
  247MOL0     N33227  -0.851   0.267   5.130  0.1446  0.1565 -0.6946
  247MOL0     C33228  -0.941   0.358   5.082 -0.3322 -0.4542  0.4799
  247MOL0     C33229  -1.004   0.300   4.979 -0.0767  0.1603 -0.1693
  247MOL0     C33230  -1.103   0.369   4.897  0.5925  0.1490 -0.8414
  247MOL0     C33231  -1.042   0.494   4.827 -0.5008  1.0551 -0.0395
  247MOL0     C33232  -0.912   0.455   4.748  0.7052  0.7030 -0.7094
  247MOL0     C33233  -0.860   0.568   4.658  0.0199  0.1036 -0.5492
  247MOL0     O33234  -0.802   0.508   4.535  0.4050 -0.5121  0.2444
  247MOL0     C33235  -0.675   0.449   4.538  0.9247  0.6631  0.2937
  247MOL0     C33236  -0.587   0.465   4.643 -0.9112 -0.9584 -0.6554
  247MOL0     C33237  -0.452   0.431   4.630  0.4592  0.0692  0.4399
  247MOL0     C33238  -0.408   0.381   4.505 -0.3317  0.7163  0.6904
  247MOL0     C33239  -0.263   0.344   4.479 -0.4518 -0.1257  0.7319
  247MOL0     O33240  -0.176   0.362   4.578  0.3834 -0.2550 -0.5145
  247MOL0     C33241  -0.054   0.309   4.560  0.0609  0.1948  0.8681
  247MOL0     C33242   0.051   0.393   4.582 -0.9343 -1.6845  0.8479
  247MOL0     C33243   0.182   0.350   4.564 -0.4060 -0.1882  0.4483
  247MOL0     C33244   0.209   0.215   4.546  0.4571 -0.3574  0.1593
  247MOL0     O33245   0.330   0.159   4.533  0.1225 -0.4314  0.2710
  247MOL0     C33246   0.440   0.244   4.489  0.4433  0.8376 -0.5169
  247MOL0     C33247   0.561   0.155   4.486  0.7948  0.1183 -0.0416
  247MOL0     C33248   0.697   0.218   4.428 -0.1744 -0.5563 -0.0685
  247MOL0     C33249   0.803   0.109   4.419  0.2699 -0.2569  0.2956
  247MOL0     C33250   0.943   0.172   4.408  0.3125 -0.3632 -0.3753
  247MOL0     C33251   1.046   0.061   4.385  0.4122 -0.7376  0.6186
  247MOL0     C33252   1.181   0.119   4.424 -0.0091  0.0097 -0.9336
  247MOL0     C33253   1.281   0.011   4.466  0.2675  0.2730  0.2273
  247MOL0    Cl33254   1.424   0.075   4.540 -0.0183  0.1947  0.1388
  247MOL0     C33255   0.094   0.134   4.552 -0.9280  0.0161 -0.5918
  247MOL0     C33256  -0.034   0.175   4.547 -0.0907 -0.3913  0.2916
  247MOL0     O33257  -0.240   0.304   4.370  0.5454  0.8202 -0.3945
  247MOL0     C33258  -0.507   0.350   4.399  0.4640  0.5952  0.0640
  247MOL0     C33259  -0.638   0.390   4.421 -0.4304  0.9925  0.4324
  247MOL0     N33260  -0.947   0.174   4.958 -0.0605 -0.4269 -0.5285
  247MOL0     N33261  -0.867   0.151   5.059 -0.2942  0.2736  0.7824
  247MOL0     C33262   0.291   0.203   4.883 -0.3649 -0.5513  0.2783
  247MOL0     C33263   0.432   0.208   4.865  0.1816 -0.4022  0.7673
  247MOL0     C33264   0.833   0.382   4.788  0.7133  0.4507 -0.3233
  247MOL0     C33265   0.889   0.516   4.775  0.5334  0.4669  0.1853
  247MOL0     C33266   1.021   0.532   4.749  0.2384 -0.2064 -0.4495
  247MOL0     C33267   1.109   0.420   4.748  0.7291  0.9066  0.2326
  247MOL0     O33268   1.238   0.445   4.736 -0.3600 -0.3029 -0.2229
  247MOL0     C33269   1.350   0.363   4.791  0.6216 -0.2395  0.1084
  247MOL0     C33270   1.394   0.400   4.934 -0.1095 -0.5190  0.1005
  247MOL0     C33271   1.462   0.532   4.939  0.1134 -0.2200  0.2278
  247MOL0     C33272   1.430   0.598   5.079 -0.8896 -0.4395  1.0724
  247MOL0     C33273   1.492   0.524   5.185  0.4449  0.0932 -0.2200
  247MOL0     C33274   1.550   0.432   5.253 -0.1459 -0.3965 -0.5240
  247MOL0     C33275   1.056   0.286   4.763 -0.9386 -0.1873 -0.6365
  247MOL0     C33276   0.915   0.266   4.777 -0.3233 -0.4103  0.7676
  247MOL0     C33277   0.871   0.118   4.760 -0.3083  0.4097  0.6198
  247MOL0     H33278   0.553   0.289   5.165  1.6828 -1.2277 -0.6699
  247MOL0     H33279   0.310   0.275   5.207 -1.1700 -1.1520  0.6182
  247MOL0     H33280   0.081   0.349   4.859  1.0059  0.3847  0.2132
  247MOL0     H33281   0.001   0.191   4.869  0.0174  0.5936 -0.5152
  247MOL0     H33282  -0.175   0.375   4.873  1.2583 -0.6150 -1.2606
  247MOL0     H33283  -0.082   0.444   5.008  1.3781  0.0915 -1.0878
  247MOL0     H33284  -0.138   0.241   5.133 -0.7548  2.7721  0.3710
  247MOL0     H33285  -0.204   0.158   4.990 -0.3354 -0.3953  0.4776
  247MOL0     H33286  -0.311   0.412   5.113  0.8925 -0.3583 -1.0202
  247MOL0     H33287  -0.377   0.330   4.976 -0.1287  2.7231  0.0380
  247MOL0     H33288  -0.443   0.148   5.072  0.0094  2.4623 -2.0364
  247MOL0     H33289  -0.391   0.185   5.238  2.8844  0.1820  0.1487
  247MOL0     H33290  -0.534   0.391   5.236  2.5930 -0.1957  0.7538
  247MOL0     H33291  -0.609   0.339   5.077  0.1236  0.9751 -0.5344
  247MOL0     H33292  -0.604   0.198   5.344 -0.0724 -0.8032 -0.2565
  247MOL0     H33293  -0.667   0.120   5.199  1.3746 -0.2395 -0.1948
  247MOL0     H33294  -0.850   0.243   5.345 -0.2742  2.2687  0.5216
  247MOL0     H33295  -0.793   0.389   5.286 -1.6257  0.5869 -2.0021
  247MOL0     H33296  -0.954   0.461   5.113  0.5350 -1.2298  3.8341
  247MOL0     H33297  -1.142   0.313   4.811  2.0692 -3.6934  0.7823
  247MOL0     H33298  -1.188   0.404   4.957  0.2064  1.3898 -2.0629
  247MOL0     H33299  -1.117   0.541   4.762 -1.7281 -0.6282  0.0684
  247MOL0     H33300  -1.032   0.563   4.911 -0.5351  2.2234 -0.9749
  247MOL0     H33301  -0.944   0.369   4.690  1.1598  1.5855 -2.3193
  247MOL0     H33302  -0.827   0.433   4.814  0.5243 -0.9242 -0.9888
  247MOL0     H33303  -0.808   0.651   4.707  1.6457 -1.4870  0.5614
  247MOL0     H33304  -0.952   0.617   4.625  0.1991  1.0325  0.2979
  247MOL0     H33305  -0.606   0.524   4.732  1.0643  1.6646 -1.8228
  247MOL0     H33306  -0.390   0.446   4.718 -1.4027  0.6037  1.7234
  247MOL0     H33307   0.038   0.498   4.610  1.8139 -1.1325  0.3158
  247MOL0     H33308   0.268   0.417   4.567 -1.7532  1.6307 -0.0541
  247MOL0     H33309   0.408   0.284   4.392 -0.3053  1.7228  0.0747
  247MOL0     H33310   0.465   0.328   4.555 -0.3584  1.0368 -0.4575
  247MOL0     H33311   0.574   0.119   4.588  0.3532  1.2216  0.4274
  247MOL0     H33312   0.538   0.066   4.427 -4.7636  1.9921 -1.3645
  247MOL0     H33313   0.657   0.268   4.339 -2.8880  1.1207  1.9509
  247MOL0     H33314   0.737   0.305   4.481 -2.0111  0.6091 -0.5062
  247MOL0     H33315   0.779   0.058   4.324 -1.2389  5.0877 -2.6158
  247MOL0     H33316   0.817   0.046   4.507  0.5481 -0.1749  0.3077
  247MOL0     H33317   0.952   0.205   4.512 -1.4998  0.4299 -0.4244
  247MOL0     H33318   0.950   0.257   4.340 -2.1547 -0.0387 -0.2942
  247MOL0     H33319   1.026  -0.030   4.442  2.1663 -1.0931  0.7106
  247MOL0     H33320   1.064   0.028   4.282  1.2799  1.0012  0.1745
  247MOL0     H33321   1.169   0.189   4.508 -1.3880 -0.7761 -0.4528
  247MOL0     H33322   1.235   0.172   4.344  1.0039  1.3828  0.5980
  247MOL0     H33323   1.240  -0.067   4.531 -0.9590 -1.6695 -2.6283
  247MOL0     H33324   1.313  -0.038   4.374 -1.6246  1.5008 -1.1753
  247MOL0     H33325   0.104   0.026   4.557 -0.0266  0.1372  0.7102
  247MOL0     H33326  -0.116   0.104   4.536 -0.5433  0.1629  0.0427
  247MOL0     H33327  -0.474   0.301   4.308  0.6140 -1.4619  1.1538
  247MOL0     H33328  -0.704   0.383   4.335 -0.3758  1.0974  0.3816
  247MOL0     H33329   0.225   0.190   4.798  0.8063 -1.1913 -0.5675
  247MOL0     H33330   0.460   0.186   4.762  0.9566  0.6929  0.7283
  247MOL0     H33331   0.814   0.594   4.784 -0.0348  0.3423 -2.5447
  247MOL0     H33332   1.066   0.631   4.740 -1.2749  0.5328 -0.1213
  247MOL0     H33333   1.439   0.381   4.731  0.0174  1.5197 -0.3272
  247MOL0     H33334   1.320   0.257   4.789  3.1313 -1.1047  2.1720
  247MOL0     H33335   1.458   0.324   4.980 -1.1023 -2.4083 -1.4798
  247MOL0     H33336   1.307   0.399   5.001  0.0864 -0.8092  0.3542
  247MOL0     H33337   1.406   0.590   4.865  0.7465 -0.3396 -0.3537
  247MOL0     H33338   1.568   0.522   4.913 -0.5357 -1.1786 -2.3825
  247MOL0     H33339   1.465   0.700   5.066 -0.2315 -0.8013 -0.2612
  247MOL0     H33340   1.325   0.623   5.099  0.2679  3.4795  3.2157
  247MOL0     H33341   1.602   0.348   5.295 -0.2711  0.7779  2.2524
  247MOL0     H33342   1.112   0.195   4.741 -1.6237 -1.1028  1.1687
  247MOL0     H33343   0.764   0.107   4.737  0.2716  0.6670 -2.8112
  247MOL0     H33344   0.920   0.060   4.682  0.1157 -1.7993  2.4362
  247MOL0     H33345   0.912   0.071   4.849  0.2101 -0.0417  0.1524
  248MOL0     O33346   4.308   9.710   8.984  0.9061 -0.8713 -0.3410
  248MOL0     C33347   4.250   9.609   9.031 -0.2404 -0.1699  0.3512
  248MOL0     O33348   4.317   9.503   9.091 -0.3784  0.7679  0.0668
  248MOL0     C33349   4.452   9.475   9.081 -0.2304 -0.0621  0.0306
  248MOL0     C33350   4.537   9.496   8.968  0.7576  0.7604 -0.2044
  248MOL0     C33351   4.663   9.437   8.959 -0.1034 -0.9721 -0.2243
  248MOL0     C33352   4.714   9.363   9.064 -0.1653  0.5707 -0.7825
  248MOL0     O33353   4.834   9.295   9.064 -0.0633 -0.1740 -0.5359
  248MOL0     C33354   4.883   9.228   8.955 -0.0545 -0.5340  0.1579
  248MOL0     C33355   5.013   9.154   8.992 -0.1160  1.0617  0.3646
  248MOL0     C33356   5.131   9.234   9.044  0.2965  0.6139  0.4830
  248MOL0     C33357   5.152   9.367   8.961 -0.1606 -0.2373 -0.3448
  248MOL0     C33358   5.261   9.451   9.017 -1.0212 -0.3758  0.0103
  248MOL0     C33359   5.256   9.595   8.962  0.1398 -0.6185 -0.8579
  248MOL0     C33360   5.357   9.687   9.036  0.5137  0.8034  0.4616
  248MOL0     C33361   5.507   9.639   9.012  0.1460  0.3610  0.6806
  248MOL0     N33362   5.590   9.671   9.122  0.3562 -0.1884 -0.6706
  248MOL0     C33363   5.673   9.772   9.132  0.4846 -0.0397  0.0317
  248MOL0     C33364   5.723   9.757   9.251  0.3150  0.0962 -0.1824
  248MOL0     C33365   5.833   9.848   9.292  0.2226 -0.5207  0.1428
  248MOL0     C33366   5.970   9.787   9.256  0.4727 -0.0441  0.7873
  248MOL0     C33367   6.019   9.680   9.342 -0.4174  0.2518 -0.2132
  248MOL0     C33368   6.010   9.702   9.492  0.0942  0.0951 -0.9646
  248MOL0     O33369   6.092   9.809   9.526  0.5844 -1.2130 -0.0360
  248MOL0     C33370   6.129   9.842   9.655 -0.4807  0.0835 -0.0159
  248MOL0     C33371   6.068   9.785   9.769 -0.4621  0.2564 -0.0521
  248MOL0     C33372   6.104   9.824   9.904 -0.4276  0.6928 -0.5628
  248MOL0     C33373   6.198   9.921   9.931  0.1954  0.2283 -0.2207
  248MOL0     C33374   6.225   9.969  10.075 -0.1212  0.6299  0.5315
  248MOL0     O33375   6.303  10.072  10.086  0.6296  0.3785  0.5357
  248MOL0     C33376   6.347  10.115  10.206 -0.4164 -0.3766  0.0947
  248MOL0     C33377   6.258  10.156  10.306 -0.4756  0.5332  0.8208
  248MOL0     C33378   6.321  10.212  10.418  0.2796 -0.3532 -0.2766
  248MOL0     C33379   6.454  10.219  10.441 -0.1223  0.6281 -0.3686
  248MOL0     O33380   6.526  10.252  10.556  0.4751  0.2775  0.6095
  248MOL0     C33381   6.477  10.376  10.616 -0.0330  0.3057  0.0574
  248MOL0     C33382   6.580  10.444  10.702 -0.2194  0.0865  0.0002
  248MOL0     C33383   6.634  10.343  10.799  0.2977 -0.2250 -0.1748
  248MOL0     C33384   6.720  10.415  10.905  1.0834 -0.2960 -0.2554
  248MOL0     C33385   6.760  10.336  11.021  0.4764  1.2487  0.2458
  248MOL0     C33386   6.835  10.433  11.118  0.1370  0.5480 -0.7789
  248MOL0     C33387   6.844  10.365  11.262  0.4359 -1.1525  0.8978
  248MOL0     C33388   6.960  10.419  11.340  0.0455  0.5220 -0.3314
  248MOL0    Cl33389   6.954  10.604  11.324  0.2183 -0.2883  0.4096
  248MOL0     C33390   6.537  10.192  10.336 -0.3324 -0.1320  0.1287
  248MOL0     C33391   6.486  10.139  10.215  0.8748  0.5072  1.2320
  248MOL0     O33392   6.186   9.898  10.166  0.2202  0.1007 -0.9117
  248MOL0     C33393   6.259   9.982   9.822 -0.7912  1.2944  0.8226
  248MOL0     C33394   6.222   9.941   9.686 -0.3120 -0.0580  0.2664
  248MOL0     N33395   5.659   9.652   9.317 -0.1737  0.1519 -0.5472
  248MOL0     N33396   5.569   9.609   9.241  0.6909  0.4416 -0.3937
  248MOL0     C33397   4.636   9.349   9.184  0.2519 -1.1129  0.2873
  248MOL0     C33398   4.508   9.405   9.188  0.0455  0.3213  0.4347
  248MOL0     C33399   4.105   9.603   9.029  0.4306  0.7429 -0.6549
  248MOL0     C33400   4.039   9.553   9.142  0.1010  0.3439 -0.5226
  248MOL0     C33401   3.898   9.546   9.151  0.9397  0.3836  0.0189
  248MOL0     C33402   3.817   9.597   9.043  0.1313  0.2167 -0.8097
  248MOL0     O33403   3.678   9.594   9.046 -0.5052  0.6372  0.6513
  248MOL0     C33404   3.599   9.628   8.927  0.1519 -0.4419 -0.5865
  248MOL0     C33405   3.451   9.587   8.955 -0.8772  0.0037 -0.4994
  248MOL0     C33406   3.372   9.613   8.819 -0.0141  0.2950 -0.2551
  248MOL0     C33407   3.220   9.577   8.829 -0.7467 -0.0712 -0.1232
  248MOL0     C33408   3.201   9.441   8.878 -0.5849 -0.1286 -1.2452
  248MOL0     C33409   3.205   9.325   8.927 -0.6759 -0.6345 -0.0583
  248MOL0     C33410   3.890   9.644   8.931  0.1577 -0.3478  0.3990
  248MOL0     C33411   4.026   9.644   8.920 -0.3964 -0.0464  0.2024
  248MOL0     C33412   4.091   9.701   8.793  0.0598 -0.2936  0.0078
  248MOL0     H33413   4.501   9.547   8.879 -0.1424 -3.1635 -2.3549
  248MOL0     H33414   4.730   9.464   8.878 -0.7137  1.4038  0.0088
  248MOL0     H33415   4.819   9.147   8.918  1.2841 -2.1117  1.1855
  248MOL0     H33416   4.903   9.298   8.873  0.5225  0.2035  0.9154
  248MOL0     H33417   5.049   9.090   8.911  0.3282 -0.2261  1.5468
  248MOL0     H33418   4.980   9.075   9.060 -0.7321 -0.4456 -1.5792
  248MOL0     H33419   5.217   9.168   9.029 -0.6349 -0.2407 -1.4152
  248MOL0     H33420   5.121   9.256   9.151 -1.7612  1.5128  0.1542
  248MOL0     H33421   5.168   9.336   8.857  0.1337 -0.9686 -0.0893
  248MOL0     H33422   5.058   9.422   8.959 -1.2161 -1.9631 -0.4025
  248MOL0     H33423   5.252   9.454   9.126 -0.1881 -0.6632  0.0870
  248MOL0     H33424   5.358   9.411   8.987 -1.3668 -1.9712  0.9498
  248MOL0     H33425   5.269   9.602   8.853 -0.3894 -0.0904 -0.8943
  248MOL0     H33426   5.155   9.634   8.977  1.2641  0.9795  4.0929
  248MOL0     H33427   5.328   9.680   9.142 -2.0399  1.1256 -0.1547
  248MOL0     H33428   5.341   9.790   9.003  4.1425  0.1105 -4.4130
  248MOL0     H33429   5.522   9.531   9.000 -2.1047 -0.0028  0.5799
  248MOL0     H33430   5.545   9.688   8.922 -0.2580 -0.2103  0.1888
  248MOL0     H33431   5.715   9.850   9.070  1.4129 -0.3503  0.2481
  248MOL0     H33432   5.818   9.939   9.232 -0.9010 -1.9426 -1.8191
  248MOL0     H33433   5.830   9.862   9.401  3.3991 -2.3187  0.6023
  248MOL0     H33434   5.973   9.756   9.151  1.0886  1.3101  0.3800
  248MOL0     H33435   6.035   9.874   9.255 -4.0307  3.7300  0.1547
  248MOL0     H33436   6.124   9.659   9.320  0.3634  2.3250  1.2757
  248MOL0     H33437   5.966   9.589   9.314 -0.2816  0.9415 -3.0847
  248MOL0     H33438   6.054   9.612   9.535 -0.0165  0.3612 -0.2817
  248MOL0     H33439   5.905   9.713   9.522 -0.9719 -3.0918 -3.0738
  248MOL0     H33440   6.004   9.697   9.765  1.7921 -1.8024  3.5999
  248MOL0     H33441   6.058   9.770   9.985 -0.3411  1.3798 -0.0456
  248MOL0     H33442   6.150  10.154  10.306 -0.5012 -1.8783 -0.7100
  248MOL0     H33443   6.259  10.255  10.497 -1.8418 -1.1602 -1.4190
  248MOL0     H33444   6.440  10.449  10.544 -0.7741  1.0962  1.2007
  248MOL0     H33445   6.393  10.345  10.679 -0.4946  1.6926  0.1488
  248MOL0     H33446   6.660  10.485  10.639 -0.3922 -1.7484 -1.5153
  248MOL0     H33447   6.536  10.525  10.761 -1.5562 -0.4767 -0.1752
  248MOL0     H33448   6.550  10.291  10.847 -0.5436  0.5142 -0.8028
  248MOL0     H33449   6.703  10.276  10.748 -0.1963 -1.3377  0.5696
  248MOL0     H33450   6.652  10.486  10.951 -0.8713 -0.7179 -2.3372
  248MOL0     H33451   6.809  10.458  10.857  0.0094  2.5619  0.1640
  248MOL0     H33452   6.814  10.247  10.987  1.2593  2.6569 -2.5425
  248MOL0     H33453   6.676  10.302  11.081  0.3918  2.3243  0.7641
  248MOL0     H33454   6.932  10.459  11.073 -0.4512  3.4177 -0.5871
  248MOL0     H33455   6.773  10.522  11.130 -0.8995 -0.3063  0.4911
  248MOL0     H33456   6.849  10.255  11.263  1.9365 -1.1435 -0.8784
  248MOL0     H33457   6.750  10.401  11.306  0.2582  0.3240 -0.6035
  248MOL0     H33458   6.957  10.386  11.444  0.6544 -0.1952 -0.5335
  248MOL0     H33459   7.059  10.384  11.310  0.2148  1.3611 -0.7745
  248MOL0     H33460   6.643  10.213  10.344 -0.6079  2.8063 -2.2499
  248MOL0     H33461   6.539  10.118  10.123 -0.1679  2.8038 -0.0011
  248MOL0     H33462   6.338  10.054   9.841  1.2947  0.1810 -2.6634
  248MOL0     H33463   6.276   9.976   9.599 -0.6166 -2.9783 -1.2110
  248MOL0     H33464   4.667   9.293   9.271 -1.3247  0.2718  1.8300
  248MOL0     H33465   4.437   9.372   9.263 -0.6273 -2.4547 -1.2916
  248MOL0     H33466   4.098   9.514   9.224 -1.4558  0.0468  0.5054
  248MOL0     H33467   3.839   9.507   9.233 -0.6070  1.9646 -0.2808
  248MOL0     H33468   3.631   9.573   8.838  1.3440  0.5224 -0.7846
  248MOL0     H33469   3.612   9.735   8.908 -0.2425 -0.1064  0.9154
  248MOL0     H33470   3.410   9.639   9.042  2.6351 -0.4936  1.6379
  248MOL0     H33471   3.454   9.479   8.972  3.8220 -0.4838 -2.7554
  248MOL0     H33472   3.415   9.569   8.728 -0.7661  1.6126 -1.2821
  248MOL0     H33473   3.385   9.720   8.803  0.7236  0.3629  0.6966
  248MOL0     H33474   3.168   9.648   8.893 -0.5933  2.0662 -2.2362
  248MOL0     H33475   3.192   9.587   8.724 -0.3709 -0.0910 -0.2272
  248MOL0     H33476   3.193   9.222   8.956  0.9242 -0.8621 -0.1393
  248MOL0     H33477   3.830   9.670   8.844  0.4362  0.8377  0.5519
  248MOL0     H33478   4.127   9.801   8.819 -0.7820  0.9256 -3.1140
  248MOL0     H33479   4.163   9.628   8.757 -1.4324 -1.5702 -0.4746
  248MOL0     H33480   4.014   9.726   8.719 -2.1586  0.2559  2.3482
  249MOL0     O33481   1.881   9.000  11.198  0.1182 -0.5953 -0.4165
  249MOL0     C33482   1.773   9.009  11.249  0.8463  0.2443  0.8515
  249MOL0     O33483   1.742   9.106  11.348  0.3597  0.2821  0.3248
  249MOL0     C33484   1.832   9.183  11.420 -0.4169 -0.2302 -0.2270
  249MOL0     C33485   1.819   9.326  11.445 -0.5510  0.4164 -0.4955
  249MOL0     C33486   1.884   9.401  11.542 -0.8419  0.2613 -0.3235
  249MOL0     C33487   1.989   9.337  11.607 -1.0927  0.1204  0.0792
  249MOL0     O33488   2.057   9.398  11.714  0.3885  1.0026  0.3862
  249MOL0     C33489   2.157   9.486  11.669  0.7712  0.0171  0.1757
  249MOL0     C33490   2.244   9.524  11.791 -0.0804  0.7033  0.4380
  249MOL0     C33491   2.353   9.419  11.820 -0.0957  0.1837 -1.0000
  249MOL0     C33492   2.442   9.442  11.947  0.3345  0.4406  0.7463
  249MOL0     C33493   2.524   9.567  11.920  0.1197 -0.4571 -0.1651
  249MOL0     C33494   2.665   9.540  11.849  0.2135 -0.2998 -0.5253
  249MOL0     C33495   2.723   9.678  11.811  0.3983  0.8962 -0.0434
  249MOL0     C33496   2.864   9.662  11.759  0.4391 -0.4381  0.3359
  249MOL0     N33497   2.910   9.793  11.703  0.1759 -0.1607  0.0005
  249MOL0     C33498   2.841   9.914  11.694 -0.1658  0.4056  0.5905
  249MOL0     C33499   2.934  10.012  11.681  0.2000 -0.2251  0.3767
  249MOL0     C33500   2.903  10.162  11.685  0.1111  0.4931 -0.0946
  249MOL0     C33501   2.822  10.202  11.565 -0.2700 -0.5171 -0.3327
  249MOL0     C33502   2.892  10.177  11.434 -0.3765 -0.5862 -0.7305
  249MOL0     C33503   2.815  10.227  11.310  0.0274 -0.0647 -0.9483
  249MOL0     O33504   2.828  10.365  11.289 -0.3832 -0.0325  0.1703
  249MOL0     C33505   2.947  10.413  11.247 -0.4976 -0.2231 -0.0914
  249MOL0     C33506   3.042  10.476  11.333  0.5599 -0.4908 -0.2717
  249MOL0     C33507   3.155  10.535  11.280 -0.8524  0.7868 -0.8194
  249MOL0     C33508   3.175  10.522  11.144 -0.2332 -0.0457 -0.8349
  249MOL0     C33509   3.304  10.568  11.091 -0.0076 -0.0732  1.1473
  249MOL0     O33510   3.363  10.675  11.155  1.0739  0.5222 -0.7765
  249MOL0     C33511   3.491  10.716  11.128  0.3457 -0.5075  1.1075
  249MOL0     C33512   3.596  10.669  11.203  0.0352  0.0496 -0.5421
  249MOL0     C33513   3.719  10.726  11.188 -0.9205 -0.7236  0.1535
  249MOL0     C33514   3.740  10.838  11.103  1.2226 -0.6633  0.5190
  249MOL0     O33515   3.851  10.911  11.098 -0.1049 -0.8251 -0.1902
  249MOL0     C33516   3.857  11.027  11.183 -1.2535  0.4399 -0.5615
  249MOL0     C33517   3.990  11.093  11.162 -0.1298 -0.0337 -0.1486
  249MOL0     C33518   4.055  11.162  11.285 -0.0605  0.2109  0.5892
  249MOL0     C33519   4.208  11.169  11.262  1.1368  0.8447  0.3828
  249MOL0     C33520   4.280  11.274  11.337 -1.4528 -0.5072  0.9813
  249MOL0     C33521   4.423  11.268  11.279  0.2454  0.1623 -0.7277
  249MOL0     C33522   4.519  11.372  11.340 -0.1891  0.2875  0.2810
  249MOL0     C33523   4.555  11.320  11.479 -0.6017 -0.6803 -0.7810
  249MOL0    Cl33524   4.650  11.452  11.549  0.2301 -0.4457  0.0365
  249MOL0     C33525   3.639  10.874  11.014 -0.0551 -0.7559 -0.2789
  249MOL0     C33526   3.516  10.810  11.020  0.6658  0.7446 -0.2771
  249MOL0     O33527   3.352  10.507  10.999 -0.3166  0.4680 -0.2637
  249MOL0     C33528   3.084  10.454  11.055 -1.5695 -0.1894 -0.0935
  249MOL0     C33529   2.976  10.399  11.109  0.4423 -0.6959  0.3235
  249MOL0     N33530   3.055   9.949  11.664  0.0990 -0.7551  0.2629
  249MOL0     N33531   3.037   9.827  11.684 -0.6600 -0.0124  0.4227
  249MOL0     C33532   2.014   9.196  11.584  0.2400 -0.6166  1.0364
  249MOL0     C33533   1.940   9.124  11.490 -1.2480 -0.2453 -0.1834
  249MOL0     C33534   1.650   8.945  11.188  0.2687  0.0956 -0.0393
  249MOL0     C33535   1.528   9.011  11.209 -0.0536 -0.4007 -0.1215
  249MOL0     C33536   1.414   8.957  11.144  0.1761  0.2630 -0.6817
  249MOL0     C33537   1.424   8.833  11.077 -0.3020  0.6065 -0.5704
  249MOL0     O33538   1.317   8.767  11.025 -0.2501 -0.1030  0.4085
  249MOL0     C33539   1.187   8.829  11.048 -0.5814  0.4979 -0.3929
  249MOL0     C33540   1.081   8.725  11.002  0.2431 -0.2835 -0.7474
  249MOL0     C33541   0.976   8.803  10.922  0.7870  0.5052  0.3163
  249MOL0     C33542   0.869   8.704  10.890  0.7230 -0.1916 -0.8289
  249MOL0     C33543   0.761   8.769  10.810 -0.0418 -0.0130 -1.1135
  249MOL0     C33544   0.664   8.828  10.756 -0.5782 -0.0832  0.1499
  249MOL0     C33545   1.540   8.757  11.076 -0.0549  0.0668 -1.3391
  249MOL0     C33546   1.654   8.820  11.126 -0.5686  0.6797 -0.3590
  249MOL0     C33547   1.778   8.741  11.104 -0.0374 -0.5690  0.6601
  249MOL0     H33548   1.735   9.369  11.392 -1.2649 -2.3627 -1.8297
  249MOL0     H33549   1.855   9.506  11.552 -3.6214 -0.4203 -0.5881
  249MOL0     H33550   2.210   9.437  11.587  0.8369  2.7247 -1.5143
  249MOL0     H33551   2.123   9.574  11.614  1.7169  1.2216  1.4570
  249MOL0     H33552   2.178   9.539  11.877 -0.4916  1.2474  0.0320
  249MOL0     H33553   2.274   9.625  11.763 -1.3858  0.4389 -2.2464
  249MOL0     H33554   2.426   9.411  11.739  0.7135  0.1929 -0.2821
  249MOL0     H33555   2.306   9.320  11.817 -2.0887  1.0747 -0.7653
  249MOL0     H33556   2.376   9.473  12.029  0.5003  1.0260  0.6676
  249MOL0     H33557   2.498   9.354  11.980  0.5080 -0.1274 -0.9574
  249MOL0     H33558   2.463   9.640  11.867 -0.7229 -1.1510 -0.1691
  249MOL0     H33559   2.554   9.604  12.018  0.7946 -2.2515  0.3595
  249MOL0     H33560   2.735   9.484  11.912  0.6682  1.0476  0.2079
  249MOL0     H33561   2.640   9.485  11.758 -1.4780 -1.0123  0.3412
  249MOL0     H33562   2.723   9.742  11.900  1.3892  3.0802 -1.5254
  249MOL0     H33563   2.656   9.717  11.734 -3.4486 -2.5842  1.2328
  249MOL0     H33564   2.933   9.634  11.839  1.5536  0.6571 -0.2155
  249MOL0     H33565   2.853   9.584  11.684 -1.1051 -0.9776  1.0706
  249MOL0     H33566   2.733   9.924  11.704 -0.0638  0.2516  2.2551
  249MOL0     H33567   2.846  10.190  11.774 -2.1033  0.3405 -1.3814
  249MOL0     H33568   3.002  10.208  11.686  2.0230 -3.2202 -0.1628
  249MOL0     H33569   2.738  10.133  11.560  0.3683 -1.3659  0.3469
  249MOL0     H33570   2.786  10.305  11.578 -0.2823 -0.6248  0.5322
  249MOL0     H33571   2.927  10.075  11.418  1.0546 -0.0949 -0.8821
  249MOL0     H33572   2.984  10.237  11.435 -0.6958 -0.0638  1.0289
  249MOL0     H33573   2.710  10.198  11.313 -0.4380  0.7769 -4.6058
  249MOL0     H33574   2.859  10.175  11.224 -0.1064  0.6073 -1.4283
  249MOL0     H33575   3.028  10.487  11.441  1.1094  1.6198 -0.3657
  249MOL0     H33576   3.232  10.576  11.345 -1.5564 -0.4440  0.8851
  249MOL0     H33577   3.572  10.594  11.277 -0.1092  1.6100  1.0693
  249MOL0     H33578   3.801  10.698  11.252 -1.6741  0.8189  1.8946
  249MOL0     H33579   3.773  11.093  11.161 -2.2069 -0.2972  0.7114
  249MOL0     H33580   3.841  10.990  11.285  2.4281 -0.4968 -0.1651
  249MOL0     H33581   4.067  11.025  11.124  0.2734  0.7902 -0.8552
  249MOL0     H33582   3.968  11.174  11.091 -1.1564  0.2887  0.5255
  249MOL0     H33583   4.006  11.260  11.293 -4.0580 -1.4607 -0.9710
  249MOL0     H33584   4.027  11.106  11.375  2.3417 -0.5465  0.9394
  249MOL0     H33585   4.227  11.164  11.155  1.0308 -2.6458  0.4091
  249MOL0     H33586   4.250  11.076  11.302 -1.8252 -1.1325 -0.7591
  249MOL0     H33587   4.264  11.252  11.443 -2.5030 -0.5611  0.8294
  249MOL0     H33588   4.231  11.366  11.306 -2.6861 -1.3918  0.1752
  249MOL0     H33589   4.469  11.170  11.292 -0.7784 -0.6792 -2.9707
  249MOL0     H33590   4.428  11.281  11.171  0.1377 -3.3803 -1.2745
  249MOL0     H33591   4.473  11.472  11.346 -0.9994 -0.1363  1.2822
  249MOL0     H33592   4.613  11.378  11.284 -0.3559 -1.0855 -0.1784
  249MOL0     H33593   4.464  11.311  11.540 -0.9790  0.1421 -1.2046
  249MOL0     H33594   4.605  11.223  11.478  2.1613  0.5854  0.9871
  249MOL0     H33595   3.662  10.953  10.942  0.1884  1.6053  2.2329
  249MOL0     H33596   3.430  10.824  10.956 -1.4965 -3.9528  1.1463
  249MOL0     H33597   3.112  10.456  10.950 -2.4656 -2.4894 -0.4566
  249MOL0     H33598   2.907  10.361  11.034 -0.6716  1.1059  0.3628
  249MOL0     H33599   2.092   9.151  11.645  0.4082  1.2501  2.2624
  249MOL0     H33600   1.956   9.020  11.465 -2.0191  0.3442 -3.5211
  249MOL0     H33601   1.526   9.111  11.251  3.3097 -0.0234 -0.6369
  249MOL0     H33602   1.321   9.013  11.149 -0.8497 -1.3088 -1.2905
  249MOL0     H33603   1.175   8.923  10.994 -1.6208 -0.2571 -1.5264
  249MOL0     H33604   1.174   8.849  11.155 -0.0506  2.5451 -0.6715
  249MOL0     H33605   1.028   8.673  11.083  3.4844 -1.8665  0.5285
  249MOL0     H33606   1.124   8.640  10.949 -0.2228 -1.9669  1.4074
  249MOL0     H33607   1.009   8.850  10.828 -0.6319 -1.3596 -1.1912
  249MOL0     H33608   0.928   8.883  10.980  1.5741 -0.0072  1.7003
  249MOL0     H33609   0.913   8.625  10.829 -0.7425 -1.2371 -0.6022
  249MOL0     H33610   0.835   8.652  10.981  0.4358  1.6596  0.1792
  249MOL0     H33611   0.582   8.866  10.699 -0.4389  1.0114  0.6510
  249MOL0     H33612   1.547   8.665  11.019  4.4539  1.5498 -3.6281
  249MOL0     H33613   1.854   8.799  11.051 -0.0343 -0.0704  1.1909
  249MOL0     H33614   1.826   8.717  11.200 -0.2873 -0.4669  0.8128
  249MOL0     H33615   1.755   8.643  11.063 -3.4938  0.8997 -1.3711
  250MOL0     O33616  10.416   0.347   2.273  0.0522  0.3585 -0.6160
  250MOL0     C33617  10.457   0.454   2.317  0.5442 -0.2830 -0.1191
  250MOL0     O33618  10.587   0.477   2.348 -0.3975  0.6432 -0.0320
  250MOL0     C33619  10.689   0.402   2.297  0.5313 -0.1574 -1.5426
  250MOL0     C33620  10.798   0.361   2.378  0.1295 -0.2317 -0.8725
  250MOL0     C33621  10.900   0.286   2.318  0.8791  0.4330  0.1154
  250MOL0     C33622  10.898   0.248   2.176  0.3127 -0.5851 -1.2484
  250MOL0     O33623  10.990   0.163   2.122 -0.1646 -0.3702 -0.1851
  250MOL0     C33624  11.124   0.173   2.177  0.2308 -0.1908  0.5294
  250MOL0     C33625  11.224   0.111   2.087  0.2369  0.0041 -0.5815
  250MOL0     C33626  11.366   0.139   2.147 -0.0811 -0.2450  0.2539
  250MOL0     C33627  11.475   0.136   2.042 -0.7254  0.4849  0.6909
  250MOL0     C33628  11.613   0.153   2.102  0.0626 -0.6863  0.1544
  250MOL0     C33629  11.724   0.137   1.990  0.7972 -0.3010  0.5545
  250MOL0     C33630  11.866   0.122   2.059  0.0843 -0.4101 -0.5455
  250MOL0     C33631  11.997   0.152   1.979  0.4096 -0.1512 -0.0647
  250MOL0     N33632  12.008   0.080   1.846  0.5945 -0.0753 -0.1070
  250MOL0     C33633  11.977  -0.053   1.831 -0.0342  0.2666  0.1702
  250MOL0     C33634  11.987  -0.077   1.700 -0.2882  0.8960 -0.2052
  250MOL0     C33635  11.995  -0.214   1.641  0.0914 -0.7907 -0.1264
  250MOL0     C33636  11.850  -0.241   1.607 -0.5374  0.5947  0.5707
  250MOL0     C33637  11.835  -0.376   1.525 -0.5996 -0.1375 -0.3782
  250MOL0     C33638  11.831  -0.360   1.372  0.3519 -0.1396  0.7081
  250MOL0     O33639  11.762  -0.462   1.299  0.2036 -0.0413 -0.1158
  250MOL0     C33640  11.626  -0.453   1.279  0.5404  0.7971 -0.7196
  250MOL0     C33641  11.580  -0.516   1.163  0.8167 -0.1617  0.4122
  250MOL0     C33642  11.441  -0.528   1.132 -0.1560 -0.0722  0.5099
  250MOL0     C33643  11.347  -0.471   1.219 -0.6602 -0.9123  0.5196
  250MOL0     C33644  11.206  -0.493   1.205  0.7592  0.0824  1.1356
  250MOL0     O33645  11.147  -0.503   1.331 -0.4286  0.1573 -0.2730
  250MOL0     C33646  11.037  -0.576   1.363 -0.1478 -0.1088 -0.1004
  250MOL0     C33647  10.940  -0.536   1.455 -0.1821  0.1059  0.9023
  250MOL0     C33648  10.821  -0.609   1.468  0.8821 -0.4462  0.7718
  250MOL0     C33649  10.790  -0.724   1.397 -0.3570 -0.1567  0.7736
  250MOL0     O33650  10.668  -0.789   1.403  0.8839  0.1113  1.0482
  250MOL0     C33651  10.570  -0.753   1.298 -0.0269  0.3291  0.6383
  250MOL0     C33652  10.551  -0.869   1.205 -0.0269  0.1692  0.2278
  250MOL0     C33653  10.469  -0.975   1.263  0.9251  0.2341 -0.4156
  250MOL0     C33654  10.496  -1.121   1.209 -0.2341 -0.1279 -0.0811
  250MOL0     C33655  10.430  -1.241   1.277  0.3890  0.1688 -0.2007
  250MOL0     C33656  10.279  -1.223   1.302  0.4735  0.2200 -0.0936
  250MOL0     C33657  10.197  -1.232   1.176  0.7412  0.4764 -0.4075
  250MOL0     C33658  10.050  -1.289   1.184  0.4929  0.0595 -0.2528
  250MOL0    Cl33659   9.935  -1.169   1.231 -0.0835 -0.2393 -0.2091
  250MOL0     C33660  10.888  -0.762   1.305 -0.1261  0.6701 -0.3716
  250MOL0     C33661  11.003  -0.694   1.288  0.3088 -0.1510 -0.5282
  250MOL0     O33662  11.159  -0.536   1.097 -0.7811 -0.3136  0.4459
  250MOL0     C33663  11.395  -0.381   1.317 -0.2457 -0.2681  0.6745
  250MOL0     C33664  11.534  -0.380   1.352  0.2978 -1.3647 -0.7707
  250MOL0     N33665  12.015   0.035   1.635  0.7116  0.2506  0.2640
  250MOL0     N33666  12.036   0.130   1.725  0.0202 -0.2596 -0.5326
  250MOL0     C33667  10.790   0.296   2.109  0.0053 -0.6345 -0.2786
  250MOL0     C33668  10.691   0.369   2.163  0.1974 -0.7555 -0.7252
  250MOL0     C33669  10.357   0.561   2.341 -0.0313  0.0821  0.1120
  250MOL0     C33670  10.410   0.692   2.359  0.1856  0.9832  0.4705
  250MOL0     C33671  10.329   0.794   2.390  0.2620 -0.1437 -0.1965
  250MOL0     C33672  10.184   0.784   2.391 -0.9547 -0.3853 -0.5820
  250MOL0     O33673  10.104   0.893   2.433  0.0761  0.7939 -0.0344
  250MOL0     C33674  10.067   0.972   2.313 -0.9409 -0.8938  0.0614
  250MOL0     C33675   9.930   1.031   2.319  0.6409  0.1415 -0.6802
  250MOL0     C33676   9.888   1.118   2.210  0.6705 -0.6942 -0.1507
  250MOL0     C33677   9.728   1.127   2.202 -0.1655  0.2187  0.2047
  250MOL0     C33678   9.667   1.005   2.154  0.4235 -0.0633 -0.1259
  250MOL0     C33679   9.627   0.901   2.113 -0.0566  0.3905  0.4697
  250MOL0     C33680  10.133   0.665   2.349  0.7422  0.4194  0.2933
  250MOL0     C33681  10.213   0.553   2.343  0.5359  0.4363 -0.7103
  250MOL0     C33682  10.146   0.421   2.364 -0.9881 -0.7921 -0.0816
  250MOL0     H33683  10.792   0.397   2.480 -3.4558 -1.6425 -0.4221
  250MOL0     H33684  10.970   0.254   2.395 -0.6208  1.9217  2.2201
  250MOL0     H33685  11.148   0.280   2.178 -1.5937  0.2638  2.4896
  250MOL0     H33686  11.120   0.110   2.267  1.6957 -0.7076  0.2617
  250MOL0     H33687  11.228   0.152   1.986  1.5217 -1.6685 -1.2512
  250MOL0     H33688  11.191   0.007   2.079 -0.6750  0.4342 -3.9048
  250MOL0     H33689  11.384   0.061   2.222  1.3212 -0.1840  0.0039
  250MOL0     H33690  11.365   0.237   2.195 -2.9133  0.3900 -0.8825
  250MOL0     H33691  11.473   0.047   1.979 -1.6784  1.0933 -0.1801
  250MOL0     H33692  11.469   0.211   1.963  2.9674 -2.9732 -3.3956
  250MOL0     H33693  11.627   0.248   2.155  1.0326 -1.0355  0.5493
  250MOL0     H33694  11.629   0.080   2.182 -0.2488 -2.7860 -1.5907
  250MOL0     H33695  11.701   0.049   1.930 -4.5200  1.0683  0.1246
  250MOL0     H33696  11.716   0.220   1.918 -2.3390 -0.3828  0.6763
  250MOL0     H33697  11.872   0.024   2.107 -0.7398 -0.3228 -0.2513
  250MOL0     H33698  11.872   0.196   2.139  3.2744  0.1521 -1.1596
  250MOL0     H33699  11.989   0.258   1.955  2.1801 -0.3156 -1.6044
  250MOL0     H33700  12.088   0.128   2.035  0.0754  1.9269  1.5024
  250MOL0     H33701  11.975  -0.122   1.914  3.5911 -0.8237 -0.4547
  250MOL0     H33702  12.057  -0.218   1.551 -1.1904 -0.4309 -1.0519
  250MOL0     H33703  12.031  -0.280   1.720  0.2976 -0.3280  0.1641
  250MOL0     H33704  11.784  -0.240   1.694 -2.7469  0.3162 -1.0051
  250MOL0     H33705  11.806  -0.162   1.546 -0.6062  0.9676  1.1017
  250MOL0     H33706  11.737  -0.418   1.550 -0.7093 -0.1990 -0.9078
  250MOL0     H33707  11.921  -0.433   1.561  0.9205  1.9203 -0.5762
  250MOL0     H33708  11.937  -0.368   1.344  0.8875 -1.1668  2.8241
  250MOL0     H33709  11.784  -0.266   1.343 -2.7763 -1.2798  1.6557
  250MOL0     H33710  11.657  -0.556   1.097 -0.7250  1.9955 -2.9529
  250MOL0     H33711  11.413  -0.592   1.049  0.8959 -0.1075  0.1647
  250MOL0     H33712  10.953  -0.452   1.522  1.1664  1.1732 -0.6108
  250MOL0     H33713  10.745  -0.578   1.538  1.3562  0.1595  1.0328
  250MOL0     H33714  10.483  -0.719   1.354 -0.4964 -1.6488  1.2076
  250MOL0     H33715  10.603  -0.671   1.233 -1.0944 -1.2486 -2.0787
  250MOL0     H33716  10.502  -0.831   1.115 -0.3770 -0.3631  0.1897
  250MOL0     H33717  10.652  -0.901   1.180  0.2223  0.6452  0.5914
  250MOL0     H33718  10.478  -0.974   1.372 -2.4710  0.1193 -0.0412
  250MOL0     H33719  10.363  -0.953   1.250  0.4664 -1.0558  0.9294
  250MOL0     H33720  10.604  -1.137   1.223 -0.0475  0.7806 -0.3764
  250MOL0     H33721  10.461  -1.122   1.106 -0.4918 -1.0087  0.0107
  250MOL0     H33722  10.479  -1.277   1.368  2.0887  0.7087 -0.8637
  250MOL0     H33723  10.437  -1.328   1.212 -0.0482 -0.3042  0.3682
  250MOL0     H33724  10.251  -1.306   1.367  2.3493 -0.1236  0.3210
  250MOL0     H33725  10.263  -1.134   1.364 -2.7631 -1.1016  1.1659
  250MOL0     H33726  10.249  -1.295   1.104 -0.5119 -0.5470 -0.4495
  250MOL0     H33727  10.189  -1.127   1.146  1.7071  0.9146  0.7870
  250MOL0     H33728  10.022  -1.317   1.082  2.8132 -0.8544 -0.7035
  250MOL0     H33729  10.043  -1.375   1.251  0.4809  1.3985  1.5169
  250MOL0     H33730  10.869  -0.851   1.246  0.4255 -2.5809  3.9367
  250MOL0     H33731  11.077  -0.737   1.220 -0.9126 -3.9221  0.2745
  250MOL0     H33732  11.326  -0.318   1.372 -2.5331 -1.6411 -0.4968
  250MOL0     H33733  11.578  -0.336   1.440 -1.1086 -1.6353  0.1063
  250MOL0     H33734  10.785   0.271   2.004 -0.7235  0.3476 -0.4901
  250MOL0     H33735  10.612   0.399   2.095 -3.0714 -3.0949  1.7107
  250MOL0     H33736  10.514   0.721   2.348  0.2289  0.3394 -1.1816
  250MOL0     H33737  10.382   0.886   2.410  0.1014  0.0682 -0.7205
  250MOL0     H33738  10.070   0.907   2.225  0.1109  0.4986 -0.9771
  250MOL0     H33739  10.146   1.048   2.309 -0.6249 -1.2375 -0.3216
  250MOL0     H33740   9.927   1.085   2.414  0.0721  0.3340 -0.8044
  250MOL0     H33741   9.859   0.948   2.334  3.2418 -2.2145 -0.4903
  250MOL0     H33742   9.900   1.061   2.117 -2.2660 -4.9850  1.7978
  250MOL0     H33743   9.925   1.221   2.204 -0.7068 -0.1940 -0.3163
  250MOL0     H33744   9.694   1.144   2.304 -0.3824  1.5732 -0.0713
  250MOL0     H33745   9.688   1.204   2.136  1.9144  0.4092 -0.9228
  250MOL0     H33746   9.579   0.810   2.085  2.2474 -0.8442  0.2320
  250MOL0     H33747  10.030   0.633   2.345  1.6870 -2.9114 -2.7081
  250MOL0     H33748  10.039   0.436   2.381 -0.6296 -1.4944  3.7462
  250MOL0     H33749  10.175   0.355   2.282  3.1335  0.1777  0.3803
  250MOL0     H33750  10.187   0.383   2.458 -3.7463 -2.2699  0.6277
  251MOL0     O33751  10.874   7.553   7.924  0.3213  0.5922  0.5983
  251MOL0     C33752  10.763   7.606   7.935 -0.3189 -0.5170  0.6908
  251MOL0     O33753  10.741   7.732   7.959  0.5384 -0.0726  0.1587
  251MOL0     C33754  10.846   7.818   7.968 -0.2717  0.6014 -0.2548
  251MOL0     C33755  10.881   7.885   7.855 -0.1471  0.9553 -0.4203
  251MOL0     C33756  10.982   7.984   7.855 -1.1717  0.4451 -0.7811
  251MOL0     C33757  11.025   8.020   7.985 -0.7110  0.1296 -0.6266
  251MOL0     O33758  11.104   8.131   8.006 -0.9948  0.3183  0.2080
  251MOL0     C33759  11.068   8.253   7.944 -0.0296 -0.1551  0.0155
  251MOL0     C33760  10.931   8.307   7.988  0.1720  0.6134 -0.5033
  251MOL0     C33761  10.919   8.302   8.143  0.5199  0.0942  0.4043
  251MOL0     C33762  10.844   8.425   8.198 -0.2425 -0.9645  0.6220
  251MOL0     C33763  10.838   8.418   8.349 -0.8124 -0.0754 -0.8349
  251MOL0     C33764  10.701   8.361   8.388  0.8810 -0.4056  0.1398
  251MOL0     C33765  10.708   8.332   8.538 -0.1705  0.0514 -0.5769
  251MOL0     C33766  10.585   8.281   8.595  0.3610  0.4064 -0.2182
  251MOL0     N33767  10.551   8.144   8.558 -0.2107 -0.4165  0.0201
  251MOL0     C33768  10.610   8.032   8.606  0.0022 -0.0311 -0.3719
  251MOL0     C33769  10.516   7.929   8.584 -0.8013  0.4652  0.4333
  251MOL0     C33770  10.535   7.783   8.617  0.2918 -0.2174 -1.1875
  251MOL0     C33771  10.406   7.700   8.611 -0.2977 -0.2385  0.0287
  251MOL0     C33772  10.305   7.706   8.723  0.1690  0.0818  0.1172
  251MOL0     C33773  10.169   7.629   8.693 -0.1015 -1.0985 -0.2177
  251MOL0     O33774  10.071   7.662   8.788 -1.0748 -0.4357  0.1655
  251MOL0     C33775   9.939   7.651   8.761 -0.4829  0.1761  0.0870
  251MOL0     C33776   9.858   7.705   8.853  0.0844  0.0253  0.2250
  251MOL0     C33777   9.720   7.684   8.843  0.6592 -0.0228 -0.7420
  251MOL0     C33778   9.652   7.611   8.745 -0.5594  0.2911 -0.9897
  251MOL0     C33779   9.507   7.588   8.754  0.0571  1.0715  0.3712
  251MOL0     O33780   9.457   7.532   8.645 -0.7476 -0.1695 -0.0378
  251MOL0     C33781   9.335   7.484   8.653  0.7624 -1.0021 -0.0401
  251MOL0     C33782   9.230   7.574   8.626  0.0061  0.0725  0.2531
  251MOL0     C33783   9.095   7.522   8.610 -0.6601 -1.1529 -0.3409
  251MOL0     C33784   9.069   7.392   8.648 -0.0026  0.7282 -0.4040
  251MOL0     O33785   8.935   7.368   8.655 -0.4798  0.4951 -0.7340
  251MOL0     C33786   8.891   7.265   8.750  0.3578 -1.1117  0.0665
  251MOL0     C33787   8.742   7.266   8.732  0.6871  0.4028  0.1750
  251MOL0     C33788   8.671   7.207   8.856  0.0871  0.0194  0.6531
  251MOL0     C33789   8.516   7.212   8.849 -0.1079  0.6267  0.0470
  251MOL0     C33790   8.448   7.150   8.975  0.2484 -0.6647  0.2172
  251MOL0     C33791   8.305   7.109   8.932 -0.0483 -0.0588  0.2931
  251MOL0     C33792   8.201   7.213   8.895 -0.2332  0.7624  0.2838
  251MOL0     C33793   8.177   7.320   9.006 -0.7769  0.6017 -0.3235
  251MOL0    Cl33794   8.038   7.426   8.954  0.2182  0.0099 -0.1963
  251MOL0     C33795   9.174   7.300   8.676 -0.0746 -1.0089 -0.3040
  251MOL0     C33796   9.308   7.342   8.663  0.2826 -0.3522  0.0139
  251MOL0     O33797   9.445   7.611   8.856  0.1476 -0.3839 -0.6607
  251MOL0     C33798   9.743   7.558   8.655  0.7206 -0.2429 -0.1864
  251MOL0     C33799   9.880   7.584   8.657 -0.3140 -0.6101  0.8544
  251MOL0     N33800  10.412   7.985   8.518 -0.0053  0.2557 -0.2173
  251MOL0     N33801  10.431   8.116   8.495  0.3200 -0.6518 -0.9196
  251MOL0     C33802  10.988   7.947   8.101  0.1804 -0.0493 -1.0106
  251MOL0     C33803  10.898   7.838   8.093  0.0534 -0.1712  0.1447
  251MOL0     C33804  10.647   7.516   7.903  0.2982 -0.7246 -1.3568
  251MOL0     C33805  10.530   7.581   7.867 -0.8635  0.4730 -0.5657
  251MOL0     C33806  10.414   7.514   7.848 -0.0519 -0.1190  0.3267
  251MOL0     C33807  10.409   7.377   7.857  0.3116 -0.2073 -0.0847
  251MOL0     O33808  10.296   7.295   7.849 -0.2862  0.0394 -0.2234
  251MOL0     C33809  10.166   7.353   7.824  0.6168  0.4654  0.3867
  251MOL0     C33810  10.161   7.376   7.667 -0.6478 -0.1619 -0.4200
  251MOL0     C33811  10.097   7.268   7.588  0.4567 -0.3509  0.0139
  251MOL0     C33812  10.127   7.122   7.628 -0.5580  0.3669  0.6946
  251MOL0     C33813  10.271   7.094   7.603 -0.5461 -0.2062 -0.4741
  251MOL0     C33814  10.385   7.068   7.586 -0.2729 -0.0601  0.7371
  251MOL0     C33815  10.526   7.308   7.896 -0.3483  0.9242  0.1288
  251MOL0     C33816  10.642   7.374   7.927 -0.7789  0.2512  0.6322
  251MOL0     C33817  10.746   7.283   8.000  0.8664  0.2659  0.0647
  251MOL0     H33818  10.835   7.851   7.763 -0.4209  0.5141 -0.1215
  251MOL0     H33819  11.008   8.044   7.768 -2.1766  1.3124 -0.5118
  251MOL0     H33820  11.154   8.316   7.970  0.3790  0.1128 -1.8234
  251MOL0     H33821  11.073   8.238   7.836 -0.6836  0.1607 -0.0612
  251MOL0     H33822  10.846   8.249   7.952 -2.3508  2.8667  1.3981
  251MOL0     H33823  10.908   8.410   7.957 -3.3010  0.1205  0.0505
  251MOL0     H33824  11.021   8.316   8.179  0.5124  2.6898 -0.3792
  251MOL0     H33825  10.868   8.213   8.182 -1.4855  0.6683 -0.7502
  251MOL0     H33826  10.912   8.509   8.183  1.0670 -1.8109  1.6125
  251MOL0     H33827  10.749   8.455   8.154 -0.7254 -2.5093  0.5661
  251MOL0     H33828  10.915   8.351   8.388 -2.3140 -1.1336  0.4594
  251MOL0     H33829  10.858   8.520   8.385  2.4975 -1.2051  0.8863
  251MOL0     H33830  10.622   8.436   8.379 -0.6359 -1.9269  0.2862
  251MOL0     H33831  10.664   8.276   8.331 -1.6621  1.8177 -1.7695
  251MOL0     H33832  10.735   8.420   8.597  1.5277 -0.8471  0.0580
  251MOL0     H33833  10.784   8.256   8.559  0.7820  1.2387  0.4348
  251MOL0     H33834  10.589   8.272   8.704 -3.5811 -1.1796 -0.0241
  251MOL0     H33835  10.503   8.346   8.564  1.7554  2.2122 -0.2451
  251MOL0     H33836  10.695   8.001   8.666 -1.2336 -0.1688  1.3808
  251MOL0     H33837  10.615   7.741   8.556 -2.2325 -2.0111 -3.5125
  251MOL0     H33838  10.578   7.766   8.716  1.5701 -0.1666 -1.7207
  251MOL0     H33839  10.347   7.727   8.523 -0.3272  1.4160  0.5271
  251MOL0     H33840  10.431   7.594   8.611 -1.1352 -0.4792 -1.4508
  251MOL0     H33841  10.294   7.813   8.747  2.8259  0.3518  0.4662
  251MOL0     H33842  10.348   7.661   8.813 -0.7505  0.2260  0.6474
  251MOL0     H33843  10.195   7.523   8.690  2.0562 -0.5965 -0.2254
  251MOL0     H33844  10.135   7.664   8.595 -0.7500 -1.9070 -0.2997
  251MOL0     H33845   9.897   7.765   8.934 -2.5697  1.2748  0.7015
  251MOL0     H33846   9.667   7.742   8.919 -0.2424  1.8071 -2.6789
  251MOL0     H33847   9.247   7.681   8.624  0.8606 -0.0556  0.0269
  251MOL0     H33848   9.018   7.584   8.565  0.5803 -0.5043 -1.6842
  251MOL0     H33849   8.942   7.171   8.724  1.0386 -0.2319 -1.9531
  251MOL0     H33850   8.915   7.299   8.851 -0.7301 -0.1790  0.0264
  251MOL0     H33851   8.716   7.370   8.712  1.8472  0.3448 -1.9110
  251MOL0     H33852   8.733   7.206   8.640 -0.5296  1.0297 -0.1253
  251MOL0     H33853   8.689   7.099   8.867 -0.1642 -0.1867 -0.8192
  251MOL0     H33854   8.704   7.270   8.939 -1.3898  3.6229 -1.2722
  251MOL0     H33855   8.481   7.148   8.767 -0.1935 -2.4125  2.2728
  251MOL0     H33856   8.487   7.317   8.840  0.1310  0.6853 -0.0532
  251MOL0     H33857   8.443   7.221   9.058 -0.6260 -0.4823  0.0246
  251MOL0     H33858   8.509   7.069   9.015  4.5289  0.8649 -2.5158
  251MOL0     H33859   8.312   7.048   8.841  0.0210  0.3615  0.0184
  251MOL0     H33860   8.274   7.039   9.010  0.1171 -0.5015 -0.0335
  251MOL0     H33861   8.106   7.172   8.860  0.0292  0.1578  0.2721
  251MOL0     H33862   8.248   7.257   8.807 -2.6497  1.6856 -0.6238
  251MOL0     H33863   8.148   7.267   9.097 -1.0662  1.8417  0.3321
  251MOL0     H33864   8.272   7.374   9.018 -0.0745 -0.0672 -2.3510
  251MOL0     H33865   9.162   7.196   8.703 -1.4208 -0.8192 -0.0809
  251MOL0     H33866   9.392   7.277   8.682  1.4065  0.6350 -1.3317
  251MOL0     H33867   9.708   7.504   8.568 -0.2484 -2.8391  1.6839
  251MOL0     H33868   9.943   7.545   8.578  0.7381  0.5095  1.1061
  251MOL0     H33869  11.028   7.976   8.197  0.6750 -1.3887 -0.7930
  251MOL0     H33870  10.869   7.777   8.178  0.7683  1.2959  1.5037
  251MOL0     H33871  10.544   7.688   7.856  0.6214  0.4717  0.9347
  251MOL0     H33872  10.322   7.568   7.830 -0.8157 -1.2746  0.6742
  251MOL0     H33873  10.152   7.445   7.881  2.1122 -0.2134  1.9232
  251MOL0     H33874  10.082   7.286   7.844 -0.1823 -1.1412 -5.9653
  251MOL0     H33875  10.265   7.383   7.635  0.0193 -2.7318  0.8720
  251MOL0     H33876  10.125   7.477   7.646  0.5213  0.7138  1.5204
  251MOL0     H33877  10.118   7.288   7.482  1.5233 -1.5157 -0.0079
  251MOL0     H33878   9.991   7.287   7.609  0.7706  0.0189  1.3673
  251MOL0     H33879  10.102   7.095   7.731 -1.0260  1.6559  0.9350
  251MOL0     H33880  10.068   7.058   7.562 -0.8883  1.3763 -0.0160
  251MOL0     H33881  10.484   7.032   7.570  0.3356  0.5352  2.7834
  251MOL0     H33882  10.519   7.201   7.911 -1.2595  0.8312 -0.8726
  251MOL0     H33883  10.731   7.282   8.108 -2.7400  0.3245 -0.3243
  251MOL0     H33884  10.745   7.185   7.951  3.1177 -1.7058  3.5245
  251MOL0     H33885  10.851   7.310   7.982  0.7186  0.3574 -0.7106
  252MOL0     O33886   7.236   3.935   5.171 -0.3867 -1.0171  0.4645
  252MOL0     C33887   7.255   3.838   5.246  0.3192  0.1262 -0.3762
  252MOL0     O33888   7.373   3.770   5.243  0.1061  0.1708  0.1519
  252MOL0     C33889   7.463   3.794   5.146  0.7235  0.6443  0.0459
  252MOL0     C33890   7.420   3.795   5.008  0.7525 -0.8434  0.5244
  252MOL0     C33891   7.511   3.828   4.906 -0.4178  0.2111 -0.1896
  252MOL0     C33892   7.643   3.855   4.932  0.0979 -0.0991  0.2175
  252MOL0     O33893   7.746   3.890   4.850  0.4399 -0.9174 -0.8542
  252MOL0     C33894   7.741   3.875   4.712  0.4154  0.1014  0.3560
  252MOL0     C33895   7.790   3.741   4.674 -0.1110 -0.5862 -0.3576
  252MOL0     C33896   7.940   3.725   4.668 -0.9247 -0.2867  0.0107
  252MOL0     C33897   7.984   3.581   4.682  0.1059  0.9716 -0.1741
  252MOL0     C33898   8.133   3.548   4.677 -1.0067 -0.0318 -0.3912
  252MOL0     C33899   8.158   3.392   4.685  0.2543 -0.2395 -0.0186
  252MOL0     C33900   8.314   3.360   4.702  0.4151  0.4090  0.3444
  252MOL0     C33901   8.354   3.222   4.704  0.2434  1.2859 -0.1961
  252MOL0     N33902   8.504   3.205   4.705 -0.7792  1.0489 -0.3482
  252MOL0     C33903   8.601   3.281   4.774 -0.1092 -0.0221 -0.3231
  252MOL0     C33904   8.719   3.258   4.710  0.4288 -0.9385  0.0907
  252MOL0     C33905   8.849   3.325   4.732 -0.0614  0.4532  0.1751
  252MOL0     C33906   8.869   3.446   4.642  0.3177  0.1480 -1.0224
  252MOL0     C33907   8.860   3.417   4.492  0.6229 -0.1114 -0.3332
  252MOL0     C33908   8.903   3.527   4.398 -0.1741  0.0718  0.5385
  252MOL0     O33909   9.029   3.577   4.424 -0.1329 -0.9527 -0.0998
  252MOL0     C33910   9.145   3.511   4.379 -0.7329 -0.3333  0.6235
  252MOL0     C33911   9.154   3.407   4.292 -0.6535  0.5599  0.5760
  252MOL0     C33912   9.275   3.370   4.225 -0.1573 -0.2920  0.0581
  252MOL0     C33913   9.398   3.426   4.257 -0.4652 -0.0201 -0.2819
  252MOL0     C33914   9.520   3.401   4.177  0.6181  0.5016 -0.3944
  252MOL0     O33915   9.636   3.464   4.215  0.4130 -1.2725 -0.3011
  252MOL0     C33916   9.743   3.443   4.141  0.0550  0.1543  0.4243
  252MOL0     C33917   9.749   3.489   4.004  0.3922 -0.3429 -0.0632
  252MOL0     C33918   9.882   3.482   3.932  0.5995  0.4199  0.2845
  252MOL0     C33919   9.997   3.438   4.000 -0.6642 -0.8482 -0.0082
  252MOL0     O33920  10.110   3.422   3.923 -0.2492  0.0780 -0.1910
  252MOL0     C33921  10.231   3.495   3.963 -0.1262  0.0592 -0.6023
  252MOL0     C33922  10.230   3.642   3.966 -0.5717 -0.8590  0.3520
  252MOL0     C33923  10.185   3.695   3.827 -0.8645  0.8964 -0.0224
  252MOL0     C33924  10.128   3.839   3.843  0.1575 -0.0960  0.4707
  252MOL0     C33925   9.975   3.835   3.853 -0.2465  0.5732  0.9266
  252MOL0     C33926   9.915   3.969   3.869  1.0371 -0.7033 -0.7135
  252MOL0     C33927   9.765   3.948   3.854  0.0336 -0.7124 -0.1817
  252MOL0     C33928   9.688   4.083   3.880 -0.3994  0.3148 -0.2281
  252MOL0    Cl33929   9.515   4.045   3.883 -0.0557 -0.7829  0.3598
  252MOL0     C33930   9.984   3.389   4.129 -0.2929  0.1671  0.1050
  252MOL0     C33931   9.861   3.394   4.195 -0.1349  0.1165 -0.3841
  252MOL0     O33932   9.513   3.323   4.081  0.9018 -0.3320 -0.2314
  252MOL0     C33933   9.388   3.522   4.364 -1.1453 -0.3059 -0.6375
  252MOL0     C33934   9.269   3.570   4.412 -1.2217 -0.6048  0.2319
  252MOL0     N33935   8.692   3.169   4.611 -0.0553 -0.4412 -0.2328
  252MOL0     N33936   8.567   3.148   4.601 -0.7023 -0.3115 -0.2607
  252MOL0     C33937   7.679   3.857   5.070 -1.0890  1.3465  0.5472
  252MOL0     C33938   7.593   3.817   5.172 -0.2370  0.1044  0.0839
  252MOL0     C33939   7.150   3.776   5.334 -0.1024 -0.6313  0.6958
  252MOL0     C33940   7.192   3.681   5.423 -0.8259  0.3981  0.3696
  252MOL0     C33941   7.101   3.622   5.511 -0.1240  0.0967 -0.0248
  252MOL0     C33942   6.966   3.656   5.505 -1.2885 -0.8725 -0.0545
  252MOL0     O33943   6.884   3.599   5.592  0.1294  0.1749 -0.7786
  252MOL0     C33944   6.744   3.597   5.551  0.0663 -0.3671  0.4533
  252MOL0     C33945   6.681   3.491   5.634  0.7134 -0.3215  0.8008
  252MOL0     C33946   6.534   3.494   5.626 -0.2679  0.1636 -0.0023
  252MOL0     C33947   6.465   3.356   5.649  0.5776 -0.1442 -0.0497
  252MOL0     C33948   6.497   3.259   5.543 -1.0868  0.2406 -0.3375
  252MOL0     C33949   6.519   3.166   5.460 -0.1594 -1.2962 -0.3714
  252MOL0     C33950   6.926   3.754   5.417  0.3881  0.0694 -0.9188
  252MOL0     C33951   7.014   3.813   5.335  0.3703 -0.8377 -0.2055
  252MOL0     C33952   6.968   3.929   5.246 -0.5753 -0.5061  0.0475
  252MOL0     H33953   7.314   3.774   4.994  1.2071 -4.0044  1.0212
  252MOL0     H33954   7.466   3.837   4.807  2.5047  0.9130 -1.5786
  252MOL0     H33955   7.647   3.894   4.659 -0.7667  0.7250  2.5501
  252MOL0     H33956   7.813   3.946   4.670  1.7520 -2.1993 -1.4932
  252MOL0     H33957   7.751   3.713   4.575  0.0414 -0.4962 -0.4432
  252MOL0     H33958   7.746   3.670   4.744 -2.2227 -0.0881 -1.0997
  252MOL0     H33959   7.991   3.773   4.752 -0.1504 -1.7313  0.4011
  252MOL0     H33960   7.986   3.772   4.580 -1.1421 -0.8147 -0.3952
  252MOL0     H33961   7.953   3.551   4.782  1.3351 -0.4514 -0.1929
  252MOL0     H33962   7.931   3.509   4.618  2.0893  1.3182 -2.3611
  252MOL0     H33963   8.187   3.584   4.589  0.0625  0.2150  0.3360
  252MOL0     H33964   8.188   3.603   4.754 -0.9159  2.0700 -1.8778
  252MOL0     H33965   8.094   3.352   4.764  0.1860  0.5882  0.3547
  252MOL0     H33966   8.125   3.353   4.588  0.5790 -0.9967  0.1668
  252MOL0     H33967   8.345   3.394   4.801  0.0135  1.0760  0.2421
  252MOL0     H33968   8.363   3.414   4.621  1.2091  0.4780  0.8629
  252MOL0     H33969   8.310   3.175   4.792 -1.2336 -0.2319 -1.6564
  252MOL0     H33970   8.306   3.171   4.620  0.3418  2.5421 -1.0448
  252MOL0     H33971   8.591   3.352   4.856  0.7759 -1.0896  0.7412
  252MOL0     H33972   8.851   3.345   4.840  0.0816  2.1012 -0.0983
  252MOL0     H33973   8.924   3.249   4.710 -1.1371 -0.7937  0.7257
  252MOL0     H33974   8.786   3.514   4.666 -1.6124 -2.2757 -0.3387
  252MOL0     H33975   8.957   3.500   4.678  0.1273  0.2037 -0.6323
  252MOL0     H33976   8.758   3.387   4.467  0.2051 -0.1348  1.3163
  252MOL0     H33977   8.934   3.339   4.470 -0.4209 -1.5232  0.8866
  252MOL0     H33978   8.822   3.601   4.409  1.5986  1.9515  1.8372
  252MOL0     H33979   8.900   3.503   4.292  0.5945  0.3472  0.4539
  252MOL0     H33980   9.060   3.366   4.256 -0.7848  1.0985  0.2919
  252MOL0     H33981   9.265   3.293   4.149  2.5870 -0.0816 -0.6280
  252MOL0     H33982   9.661   3.534   3.959  2.0026  0.4523 -2.6243
  252MOL0     H33983   9.892   3.517   3.829  1.7451  1.8091  0.8242
  252MOL0     H33984  10.260   3.452   4.059 -1.2779 -0.0888 -0.2981
  252MOL0     H33985  10.321   3.466   3.909  1.1637  0.8587  1.0355
  252MOL0     H33986  10.156   3.670   4.042 -0.2856 -1.4845  0.8733
  252MOL0     H33987  10.324   3.689   3.997 -1.4213  1.2788 -0.1685
  252MOL0     H33988  10.279   3.699   3.771 -0.7169  1.3310  0.2503
  252MOL0     H33989  10.112   3.629   3.780 -0.2795  0.4290 -0.2945
  252MOL0     H33990  10.151   3.895   3.752 -2.2458 -1.4630 -1.1182
  252MOL0     H33991  10.162   3.893   3.931  1.5729 -0.1469 -0.0239
  252MOL0     H33992   9.954   3.774   3.941  3.5899 -1.0132  0.9267
  252MOL0     H33993   9.929   3.781   3.769 -2.5639  2.1810  1.0652
  252MOL0     H33994   9.944   4.008   3.967  1.3717  2.1359 -1.8783
  252MOL0     H33995   9.935   4.053   3.802 -0.6357  1.1295  0.9521
  252MOL0     H33996   9.730   3.876   3.928  0.0946  0.4404  0.9991
  252MOL0     H33997   9.751   3.906   3.753  2.6433  0.2555 -1.0227
  252MOL0     H33998   9.715   4.133   3.973 -2.3887  2.4232 -0.6915
  252MOL0     H33999   9.706   4.149   3.794 -2.0210  0.1202 -0.7367
  252MOL0     H34000  10.068   3.335   4.174  0.5506 -0.9393 -2.6079
  252MOL0     H34001   9.866   3.361   4.298 -2.7666  1.0934  0.1241
  252MOL0     H34002   9.478   3.559   4.411 -1.3026 -1.8576  0.9888
  252MOL0     H34003   9.258   3.647   4.488  0.4156  0.4176 -0.5088
  252MOL0     H34004   7.778   3.897   5.090  0.0234 -1.6346  1.5380
  252MOL0     H34005   7.632   3.814   5.274 -2.5660  2.2963  1.1460
  252MOL0     H34006   7.298   3.675   5.442 -1.0731 -1.7613  1.4661
  252MOL0     H34007   7.133   3.550   5.585 -2.1746 -0.7425  0.1085
  252MOL0     H34008   6.730   3.567   5.447 -2.1501 -1.5083  1.0258
  252MOL0     H34009   6.702   3.697   5.563  1.8223  0.9159 -2.6984
  252MOL0     H34010   6.712   3.505   5.738  1.9530 -0.4254  0.4607
  252MOL0     H34011   6.720   3.400   5.586  2.2564 -0.3190  1.9806
  252MOL0     H34012   6.520   3.530   5.524  0.6943 -4.2777 -1.9314
  252MOL0     H34013   6.495   3.564   5.701  2.2587 -0.3322  1.9269
  252MOL0     H34014   6.491   3.319   5.749 -0.8691  0.2748  0.4976
  252MOL0     H34015   6.359   3.380   5.649  0.1898 -1.7200  0.6770
  252MOL0     H34016   6.545   3.081   5.400  1.2483 -1.0808 -0.0823
  252MOL0     H34017   6.824   3.786   5.398  0.3660  1.0537  0.6679
  252MOL0     H34018   6.864   3.950   5.270 -1.4801 -3.6560 -0.7116
  252MOL0     H34019   7.036   4.012   5.269  1.7186 -1.7363 -1.8355
  252MOL0     H34020   6.992   3.905   5.142  0.3487  2.6548 -0.5781
  253MOL0     O34021   9.987   3.306  10.336 -0.0120  0.5788  0.5367
  253MOL0     C34022  10.041   3.405  10.381 -0.6998  0.2398  0.1359
  253MOL0     O34023   9.983   3.504  10.455 -0.4356 -0.1288 -0.4559
  253MOL0     C34024   9.857   3.482  10.507  0.0157 -0.7403  0.1642
  253MOL0     C34025   9.738   3.480  10.431  0.6588  0.3186  0.4783
  253MOL0     C34026   9.613   3.473  10.497  0.5156 -1.0807  0.4728
  253MOL0     C34027   9.596   3.478  10.634 -0.5408 -0.0942 -0.2341
  253MOL0     O34028   9.472   3.465  10.699  0.0366  0.5492 -0.5231
  253MOL0     C34029   9.464   3.467  10.838  0.5369  0.3260  0.4457
  253MOL0     C34030   9.318   3.455  10.897  0.0036  0.0888  0.9015
  253MOL0     C34031   9.265   3.596  10.927  0.7317  0.2343 -0.5158
  253MOL0     C34032   9.118   3.580  10.981  0.9663 -0.6347  0.0947
  253MOL0     C34033   9.045   3.711  11.012  0.7147  0.1275  0.4743
  253MOL0     C34034   8.896   3.682  10.978 -0.0130 -0.2247  1.1649
  253MOL0     C34035   8.810   3.805  11.013 -1.1181 -0.5864 -0.1960
  253MOL0     C34036   8.668   3.779  10.964  0.5169  0.0294 -0.4351
  253MOL0     N34037   8.575   3.896  10.981  0.3071 -0.0650  0.1903
  253MOL0     C34038   8.558   3.949  11.104  0.0967 -0.0943  0.0225
  253MOL0     C34039   8.453   4.036  11.080 -0.2117  0.6087  0.8412
  253MOL0     C34040   8.406   4.138  11.181  0.1418  0.6664  0.2468
  253MOL0     C34041   8.483   4.278  11.203 -0.0760  0.6992  0.0786
  253MOL0     C34042   8.609   4.242  11.279 -0.7729 -0.3598  0.0504
  253MOL0     C34043   8.691   4.364  11.306 -0.9990 -0.3541  0.0161
  253MOL0     O34044   8.812   4.321  11.374 -0.0976 -0.2465  0.1427
  253MOL0     C34045   8.892   4.414  11.433 -0.2909  0.2012  0.4672
  253MOL0     C34046   8.889   4.546  11.392 -0.4590 -0.1698  0.2951
  253MOL0     C34047   8.993   4.627  11.438 -0.1582  0.4224  0.7913
  253MOL0     C34048   9.098   4.585  11.530 -0.3023  1.1956 -0.1133
  253MOL0     C34049   9.215   4.672  11.566 -0.3987  0.3083 -0.7909
  253MOL0     O34050   9.214   4.795  11.505  0.0067 -0.5052 -0.5695
  253MOL0     C34051   9.317   4.880  11.537  0.6151 -0.0351  0.1945
  253MOL0     C34052   9.311   4.970  11.644 -0.4315  0.2739 -0.2258
  253MOL0     C34053   9.422   5.047  11.668 -0.8153  0.5235 -0.1435
  253MOL0     C34054   9.532   5.033  11.586  0.5740 -0.1947  0.6995
  253MOL0     O34055   9.640   5.105  11.620  0.0872 -0.3363 -0.1020
  253MOL0     C34056   9.731   5.004  11.672 -0.1514 -0.3501  1.0692
  253MOL0     C34057   9.845   5.084  11.741 -0.8135 -0.1457 -0.5162
  253MOL0     C34058   9.951   4.990  11.799 -0.4683  0.3678 -0.8653
  253MOL0     C34059  10.072   5.061  11.866 -0.1307 -0.5980 -0.0879
  253MOL0     C34060  10.137   4.962  11.963 -0.4734 -0.2852  0.6044
  253MOL0     C34061  10.270   5.020  12.020  0.0189  0.0347 -0.1214
  253MOL0     C34062  10.370   4.932  12.076 -0.8788 -0.3890  0.2862
  253MOL0     C34063  10.518   4.976  12.038 -0.1767  0.4184 -0.1721
  253MOL0    Cl34064  10.551   4.948  11.863 -0.6356 -0.0901 -0.1062
  253MOL0     C34065   9.530   4.946  11.469 -0.5439 -0.2961 -0.1857
  253MOL0     C34066   9.413   4.874  11.446 -0.6177  0.0232  0.2229
  253MOL0     O34067   9.300   4.629  11.647 -0.5485 -0.0403  1.0033
  253MOL0     C34068   9.090   4.453  11.567  0.0643 -0.4278  0.5789
  253MOL0     C34069   8.987   4.366  11.526  0.1623  0.0239  0.6028
  253MOL0     N34070   8.424   4.030  10.942  0.0922 -0.5350  0.3954
  253MOL0     N34071   8.507   3.950  10.881  0.9394 -0.7621 -0.2971
  253MOL0     C34072   9.713   3.484  10.709  0.6097  1.0068  0.5391
  253MOL0     C34073   9.840   3.492  10.647  0.1895 -0.2054 -1.8013
  253MOL0     C34074  10.183   3.421  10.356 -0.3848  0.5176 -0.3413
  253MOL0     C34075  10.274   3.341  10.432  1.2299 -0.1033  0.7654
  253MOL0     C34076  10.405   3.336  10.406  0.3041  0.4438  0.4512
  253MOL0     C34077  10.460   3.416  10.298  0.0019 -0.2023 -0.0166
  253MOL0     O34078  10.585   3.398  10.258 -0.2664  0.3637  0.1399
  253MOL0     C34079  10.678   3.436  10.360  0.2462  0.5487  0.1585
  253MOL0     C34080  10.827   3.401  10.330  0.5212 -0.5721  1.3482
  253MOL0     C34081  10.889   3.501  10.228 -0.1587  0.1642  0.6060
  253MOL0     C34082  11.036   3.475  10.202  0.4317 -0.8051  0.2727
  253MOL0     C34083  11.086   3.587  10.125 -0.5311  0.1402  0.0204
  253MOL0     C34084  11.148   3.667  10.056  0.3349 -0.3047  0.1175
  253MOL0     C34085  10.368   3.491  10.218 -0.5337 -0.1074 -0.2112
  253MOL0     C34086  10.228   3.496  10.246  0.1253 -0.3888 -0.4671
  253MOL0     C34087  10.138   3.581  10.161  0.4183 -0.5640 -0.0186
  253MOL0     H34088   9.736   3.492  10.323  1.6984 -0.5554  0.3444
  253MOL0     H34089   9.524   3.468  10.435  0.1608 -2.1985  1.0508
  253MOL0     H34090   9.516   3.387  10.891  0.8076 -0.2302 -0.6325
  253MOL0     H34091   9.508   3.559  10.876  0.1051  0.2850  1.0672
  253MOL0     H34092   9.326   3.395  10.988 -0.2381  0.4324  1.1542
  253MOL0     H34093   9.251   3.416  10.820  0.0207 -0.0946  0.9789
  253MOL0     H34094   9.279   3.654  10.835  3.6994 -0.1696 -0.4133
  253MOL0     H34095   9.304   3.659  11.008  0.4684  1.1141 -1.0528
  253MOL0     H34096   9.062   3.515  10.913  1.1995 -1.8262  1.0128
  253MOL0     H34097   9.125   3.515  11.069  1.9312 -0.1482  0.3989
  253MOL0     H34098   9.066   3.746  11.113  0.3714 -1.1189  0.9985
  253MOL0     H34099   9.081   3.784  10.938  1.8802 -1.0496 -0.1689
  253MOL0     H34100   8.888   3.658  10.871  1.3287  1.9441  0.4917
  253MOL0     H34101   8.850   3.599  11.032 -2.1583 -1.3873 -2.0987
  253MOL0     H34102   8.851   3.883  10.948  1.3092  0.8101  2.7999
  253MOL0     H34103   8.817   3.848  11.113  0.2546  0.2023 -0.6082
  253MOL0     H34104   8.677   3.746  10.860  1.0117 -0.9208 -0.1051
  253MOL0     H34105   8.627   3.689  11.010 -1.1781 -0.1822 -2.2171
  253MOL0     H34106   8.619   3.930  11.192 -0.9073 -0.5058  0.6399
  253MOL0     H34107   8.306   4.167  11.150 -0.6500 -0.9472  1.1353
  253MOL0     H34108   8.391   4.082  11.274  0.3245 -1.2827 -0.8503
  253MOL0     H34109   8.506   4.305  11.099 -3.2183  2.6318 -0.2592
  253MOL0     H34110   8.418   4.355  11.247  0.2362  1.7768 -1.2682
  253MOL0     H34111   8.668   4.167  11.224  2.0187  1.5966  0.1483
  253MOL0     H34112   8.583   4.209  11.381 -1.0032  1.4997  0.6189
  253MOL0     H34113   8.634   4.439  11.361  0.7364  1.1206 -0.0941
  253MOL0     H34114   8.711   4.405  11.207 -4.3450  1.6387 -0.0029
  253MOL0     H34115   8.820   4.580  11.315 -1.5242 -1.3603  0.6966
  253MOL0     H34116   8.981   4.728  11.399 -0.7592 -0.3235 -1.0988
  253MOL0     H34117   9.215   4.978  11.694 -1.3077 -1.8049 -1.4696
  253MOL0     H34118   9.426   5.118  11.750 -0.5216 -0.9124  1.1423
  253MOL0     H34119   9.683   4.932  11.739 -0.8002 -0.8449  0.0932
  253MOL0     H34120   9.774   4.942  11.593  0.8082  1.4625  0.1167
  253MOL0     H34121   9.890   5.148  11.665 -3.4592 -1.3329 -3.2866
  253MOL0     H34122   9.798   5.152  11.813 -0.3927 -1.9520  1.5852
  253MOL0     H34123   9.901   4.928  11.875 -0.5660 -0.7937 -1.8522
  253MOL0     H34124   9.986   4.913  11.730 -2.1747 -1.9502  0.6867
  253MOL0     H34125  10.041   5.151  11.920 -0.5460 -0.3940 -0.6560
  253MOL0     H34126  10.136   5.078  11.779 -3.0651 -0.1536 -2.3103
  253MOL0     H34127  10.155   4.868  11.911 -2.5879 -0.8203  0.7442
  253MOL0     H34128  10.077   4.936  12.051 -1.2036  0.1796  0.2545
  253MOL0     H34129  10.316   5.082  11.941  0.3389  0.6096  0.5071
  253MOL0     H34130  10.240   5.089  12.099 -2.0362  0.0307 -0.8203
  253MOL0     H34131  10.356   4.826  12.051  0.5361 -0.5484  0.0650
  253MOL0     H34132  10.366   4.937  12.185  0.4645 -0.3538  0.3521
  253MOL0     H34133  10.541   5.077  12.074 -2.2337 -0.0816  2.9452
  253MOL0     H34134  10.587   4.913  12.095 -0.2037 -0.7639 -1.4052
  253MOL0     H34135   9.608   4.939  11.395 -0.3999 -1.7052  0.0755
  253MOL0     H34136   9.408   4.802  11.365 -0.0472  1.8415 -1.5278
  253MOL0     H34137   9.168   4.422  11.636  2.2408  1.4170 -0.8784
  253MOL0     H34138   8.984   4.268  11.573  1.0843  0.1577  0.9545
  253MOL0     H34139   9.710   3.499  10.817 -1.7209  1.5207  0.4568
  253MOL0     H34140   9.926   3.518  10.707 -1.0195  1.6497 -0.7634
  253MOL0     H34141  10.234   3.275  10.509  1.9106 -0.7088  0.6136
  253MOL0     H34142  10.476   3.276  10.462  1.8583  2.6422  1.0039
  253MOL0     H34143  10.671   3.378  10.452 -1.1926  4.4121  2.7778
  253MOL0     H34144  10.657   3.537  10.398 -3.7316 -1.6257  4.9028
  253MOL0     H34145  10.827   3.302  10.283 -0.2651 -0.0348  0.1727
  253MOL0     H34146  10.895   3.408  10.415  1.8284 -2.5855  0.5270
  253MOL0     H34147  10.885   3.602  10.269  0.9963  0.4089  0.1775
  253MOL0     H34148  10.840   3.502  10.130  2.9203 -2.4761 -1.1995
  253MOL0     H34149  11.092   3.465  10.295  2.1002  2.4942 -0.2094
  253MOL0     H34150  11.048   3.380  10.149 -1.2140 -0.9137  0.0248
  253MOL0     H34151  11.188   3.752  10.005 -0.4011 -0.6107 -1.0133
  253MOL0     H34152  10.409   3.564  10.150 -3.1577  0.9798 -0.7447
  253MOL0     H34153  10.103   3.671  10.213  1.7812  2.0041 -3.1278
  253MOL0     H34154  10.198   3.623  10.079  0.3253  0.5969  0.4841
  253MOL0     H34155  10.056   3.531  10.108  2.5633 -0.9782 -3.2343
  254MOL0     O34156  11.318   5.190   0.360  0.4752  0.4451  0.6574
  254MOL0     C34157  11.230   5.262   0.397  0.2919 -0.3039 -0.4843
  254MOL0     O34158  11.240   5.333   0.511  0.1728  0.0083  0.2654
  254MOL0     C34159  11.362   5.375   0.556 -0.3057 -0.4016  0.0449
  254MOL0     C34160  11.475   5.420   0.486 -0.1831  0.1235 -0.1535
  254MOL0     C34161  11.597   5.450   0.561  0.1064  0.3532 -0.2590
  254MOL0     C34162  11.582   5.463   0.702 -0.1662 -0.0302 -0.6223
  254MOL0     O34163  11.685   5.506   0.792  0.3353 -0.4942  0.1665
  254MOL0     C34164  11.827   5.520   0.751  0.4748  1.0306 -0.2510
  254MOL0     C34165  11.872   5.378   0.709 -0.0355  0.2889 -0.5716
  254MOL0     C34166  12.021   5.375   0.681 -0.0066 -0.5575 -0.6438
  254MOL0     C34167  12.077   5.478   0.579 -0.6844  0.3601  0.2309
  254MOL0     C34168  12.226   5.453   0.557  0.4503 -0.6516 -1.1992
  254MOL0     C34169  12.269   5.493   0.413 -0.5119  0.2441  0.0496
  254MOL0     C34170  12.423   5.468   0.390  0.0427  0.1623 -1.2611
  254MOL0     C34171  12.457   5.510   0.249 -0.2935 -1.0081 -0.3273
  254MOL0     N34172  12.591   5.474   0.208 -0.2572  0.7670  0.2699
  254MOL0     C34173  12.696   5.474   0.291 -0.5059  0.5040 -0.0418
  254MOL0     C34174  12.794   5.403   0.235  1.0570 -0.3275 -0.7729
  254MOL0     C34175  12.922   5.359   0.296 -0.6857 -0.9247 -0.2842
  254MOL0     C34176  12.957   5.215   0.321 -0.3544 -0.2982  0.1194
  254MOL0     C34177  13.043   5.144   0.213 -0.4677  0.2582  0.0657
  254MOL0     C34178  13.073   5.004   0.252  0.2394  0.1533  1.0595
  254MOL0     O34179  13.152   4.954   0.147  0.2044  0.4245  1.0415
  254MOL0     C34180  13.275   4.899   0.178 -0.9051 -0.1763  0.5227
  254MOL0     C34181  13.374   4.947   0.266  0.0325  0.1620  0.1531
  254MOL0     C34182  13.496   4.880   0.288  0.1872  0.9145 -0.3990
  254MOL0     C34183  13.529   4.769   0.217 -0.5023  0.6167 -1.3172
  254MOL0     C34184  13.656   4.696   0.243 -0.0584  0.1679  0.6775
  254MOL0     O34185  13.749   4.763   0.321 -0.3959 -0.4725 -0.5329
  254MOL0     C34186  13.871   4.703   0.346 -0.7135 -1.1517 -0.2487
  254MOL0     C34187  13.901   4.572   0.389 -0.5100 -0.4421 -0.1795
  254MOL0     C34188  14.035   4.540   0.425 -0.6268 -0.2460 -0.0981
  254MOL0     C34189  14.138   4.638   0.415  0.4975  0.6696 -0.5071
  254MOL0     O34190  14.279   4.617   0.442  0.1972 -0.6228  0.1409
  254MOL0     C34191  14.315   4.497   0.373 -0.2301 -0.1330 -0.9965
  254MOL0     C34192  14.465   4.484   0.348  0.2266 -0.5614 -0.2247
  254MOL0     C34193  14.529   4.615   0.293  0.8976 -0.0693 -0.3859
  254MOL0     C34194  14.672   4.591   0.251 -0.6565  0.0830  0.1086
  254MOL0     C34195  14.749   4.717   0.211 -0.0689  0.3687 -0.5482
  254MOL0     C34196  14.825   4.793   0.325 -0.2046  1.0565 -0.3505
  254MOL0     C34197  14.936   4.878   0.276 -0.5516  0.1495  0.6234
  254MOL0     C34198  14.990   4.987   0.373 -0.1610 -0.6618 -0.5840
  254MOL0    Cl34199  15.025   5.135   0.277 -0.6122 -0.1648 -0.1784
  254MOL0     C34200  14.106   4.766   0.367 -0.2097 -0.3232 -0.1262
  254MOL0     C34201  13.973   4.799   0.334 -0.3671  0.1434 -0.1313
  254MOL0     O34202  13.676   4.589   0.180 -0.9614 -0.9713 -0.0838
  254MOL0     C34203  13.444   4.728   0.109 -0.5620 -1.4248  0.2357
  254MOL0     C34204  13.321   4.793   0.089  0.8906  0.5485  0.3998
  254MOL0     N34205  12.753   5.354   0.112  0.2732 -0.0636 -0.1953
  254MOL0     N34206  12.631   5.391   0.102  0.1485 -0.6625  0.4350
  254MOL0     C34207  11.468   5.420   0.768  0.6269 -0.0895 -0.6649
  254MOL0     C34208  11.363   5.367   0.689  0.4009  0.0929 -0.3810
  254MOL0     C34209  11.101   5.273   0.315  0.0354  0.4452 -0.5681
  254MOL0     C34210  11.068   5.169   0.228  0.7973 -0.1263 -0.8697
  254MOL0     C34211  10.941   5.149   0.171  0.5387 -0.7788  0.8151
  254MOL0     C34212  10.842   5.245   0.201 -0.1749 -0.7373  0.1309
  254MOL0     O34213  10.719   5.228   0.152 -0.1969  0.6465 -0.3465
  254MOL0     C34214  10.630   5.343   0.126  0.0161  0.1590  0.2817
  254MOL0     C34215  10.527   5.377   0.232 -0.5178  0.2005 -0.2512
  254MOL0     C34216  10.431   5.471   0.178  0.5172 -0.4923 -0.1342
  254MOL0     C34217  10.349   5.550   0.284 -1.0717 -0.0270 -0.5469
  254MOL0     C34218  10.248   5.471   0.352  0.1390 -0.0410 -0.3226
  254MOL0     C34219  10.159   5.421   0.407  0.7835  0.0500  0.6353
  254MOL0     C34220  10.872   5.347   0.281  0.9903 -0.9058  0.5425
  254MOL0     C34221  11.003   5.371   0.334 -0.0444 -1.0738 -0.0806
  254MOL0     C34222  11.032   5.497   0.414  0.4617  0.2941 -0.0606
  254MOL0     H34223  11.473   5.423   0.378 -4.1522  1.1216 -0.1967
  254MOL0     H34224  11.687   5.482   0.511  0.4078  0.0984  0.1106
  254MOL0     H34225  11.833   5.585   0.664  0.9692  0.1465 -0.8918
  254MOL0     H34226  11.901   5.556   0.824  0.3741  0.6359  0.0504
  254MOL0     H34227  11.820   5.336   0.623  0.0344  1.6436 -1.3079
  254MOL0     H34228  11.853   5.303   0.786  1.6994 -0.1435 -0.5162
  254MOL0     H34229  12.047   5.277   0.638 -2.3697 -1.9229  0.7775
  254MOL0     H34230  12.071   5.377   0.778 -0.4980 -1.0753 -0.3699
  254MOL0     H34231  12.024   5.465   0.485 -1.6963 -1.0596  0.9627
  254MOL0     H34232  12.079   5.582   0.615  1.5527  0.1522  0.8421
  254MOL0     H34233  12.272   5.523   0.628 -2.2404  0.4496 -0.4277
  254MOL0     H34234  12.254   5.349   0.573 -4.0202 -1.6808  1.5532
  254MOL0     H34235  12.219   5.442   0.330  1.5426 -1.0313 -0.4788
  254MOL0     H34236  12.255   5.601   0.404  1.3367  0.6462  1.3258
  254MOL0     H34237  12.455   5.365   0.408  4.3173  1.7365  1.8748
  254MOL0     H34238  12.486   5.521   0.462  0.5169  2.2014 -3.0803
  254MOL0     H34239  12.386   5.474   0.174 -2.6206  1.3587  0.5960
  254MOL0     H34240  12.452   5.619   0.254  2.5479 -0.7918 -0.3955
  254MOL0     H34241  12.702   5.498   0.396 -1.4321 -1.3406  0.4722
  254MOL0     H34242  13.012   5.388   0.241 -1.2706 -0.5582 -1.0646
  254MOL0     H34243  12.929   5.416   0.389  1.2644  1.9434 -2.0260
  254MOL0     H34244  13.013   5.208   0.415  0.4514 -1.0281 -0.3973
  254MOL0     H34245  12.859   5.169   0.339 -0.8649  0.9459  0.6124
  254MOL0     H34246  13.137   5.196   0.195 -1.1083  1.2296 -0.5500
  254MOL0     H34247  13.000   5.151   0.113 -0.4954  1.4120  0.1444
  254MOL0     H34248  12.975   4.957   0.239  0.0333  0.2386  2.2213
  254MOL0     H34249  13.097   5.008   0.358 -0.9061 -0.7417  1.3773
  254MOL0     H34250  13.358   5.035   0.327  0.8980  1.9269 -2.0159
  254MOL0     H34251  13.554   4.918   0.371 -2.4431  0.5529  1.7315
  254MOL0     H34252  13.819   4.500   0.385 -0.7087 -0.1624 -1.3691
  254MOL0     H34253  14.053   4.437   0.453  0.3567  0.2278  1.1205
  254MOL0     H34254  14.279   4.407   0.423 -3.2810  1.6285  0.2543
  254MOL0     H34255  14.268   4.497   0.274  2.0312  2.2648 -2.1999
  254MOL0     H34256  14.507   4.473   0.449  0.4034 -1.4050 -0.3842
  254MOL0     H34257  14.492   4.398   0.287 -0.9108 -1.7406  0.8542
  254MOL0     H34258  14.467   4.648   0.210 -0.2834 -2.0392 -0.3520
  254MOL0     H34259  14.530   4.700   0.361 -1.8705  2.3671 -3.1173
  254MOL0     H34260  14.678   4.520   0.168  0.7029  1.3078 -0.9188
  254MOL0     H34261  14.734   4.547   0.329  3.3270  0.7617 -2.3830
  254MOL0     H34262  14.681   4.787   0.162 -1.7721 -0.7769  0.1081
  254MOL0     H34263  14.817   4.682   0.133 -3.0775 -2.3334 -2.2017
  254MOL0     H34264  14.761   4.832   0.404 -0.1961  0.2977  0.0437
  254MOL0     H34265  14.879   4.709   0.370 -2.9562  0.2483  1.7018
  254MOL0     H34266  14.902   4.938   0.191  0.4983  1.2058  0.9245
  254MOL0     H34267  15.018   4.818   0.237 -1.6391 -2.0707  1.5880
  254MOL0     H34268  14.913   5.021   0.443  0.5418  0.2634 -0.2333
  254MOL0     H34269  15.069   4.945   0.436 -1.0817 -0.7488  0.5477
  254MOL0     H34270  14.182   4.843   0.356 -1.2753  0.4263 -3.3453
  254MOL0     H34271  13.952   4.901   0.305  1.4985  0.0260 -2.1442
  254MOL0     H34272  13.482   4.659   0.035  1.8381  0.7381 -0.6931
  254MOL0     H34273  13.244   4.769   0.017 -0.2720  1.9156  1.1261
  254MOL0     H34274  11.456   5.426   0.876  0.1324  0.3636 -0.7396
  254MOL0     H34275  11.273   5.332   0.738  1.2497 -0.3742  0.8800
  254MOL0     H34276  11.154   5.109   0.199 -0.5290 -0.5535 -4.4333
  254MOL0     H34277  10.924   5.060   0.111  0.0599  0.4546 -0.9642
  254MOL0     H34278  10.577   5.307   0.038 -2.5867  1.6435  1.1170
  254MOL0     H34279  10.690   5.430   0.096 -1.1762  1.0493  0.3934
  254MOL0     H34280  10.577   5.418   0.320  0.1563 -0.1222 -0.4762
  254MOL0     H34281  10.481   5.281   0.257  1.0443 -0.5171  0.0181
  254MOL0     H34282  10.361   5.418   0.112  1.9751 -1.2092 -1.1655
  254MOL0     H34283  10.476   5.545   0.112 -1.6781  0.2289 -0.9291
  254MOL0     H34284  10.416   5.603   0.353  1.5784 -2.7128 -0.8441
  254MOL0     H34285  10.299   5.627   0.225  0.9751  1.9736  0.1708
  254MOL0     H34286  10.086   5.365   0.462  1.7489 -1.2764  0.6124
  254MOL0     H34287  10.792   5.420   0.292  1.6005 -0.2573  0.7712
  254MOL0     H34288  10.949   5.565   0.391  0.9828  0.4072 -1.7863
  254MOL0     H34289  11.031   5.479   0.522  1.6649  0.5109  0.0059
  254MOL0     H34290  11.122   5.547   0.378  1.5138 -1.7150 -0.3800
  255MOL0     O34291   9.190   9.289   2.916 -0.4933 -0.1429  0.7009
  255MOL0     C34292   9.136   9.346   2.824  0.0629 -1.3020  0.3869
  255MOL0     O34293   9.208   9.427   2.739 -0.0414 -0.2991 -0.3124
  255MOL0     C34294   9.337   9.471   2.775 -0.0440 -0.4140 -0.3109
  255MOL0     C34295   9.425   9.493   2.668 -0.2125 -0.3229 -0.7369
  255MOL0     C34296   9.562   9.521   2.695  0.6581 -0.0347 -0.0557
  255MOL0     C34297   9.611   9.536   2.821 -0.7982  0.3346  0.8622
  255MOL0     O34298   9.746   9.537   2.828  0.7774 -0.4707  0.2018
  255MOL0     C34299   9.813   9.551   2.960 -0.5588 -0.6380 -0.6834
  255MOL0     C34300   9.963   9.520   2.949 -0.8973 -0.1626  0.4722
  255MOL0     C34301  10.028   9.613   2.843 -0.6799 -0.0900  0.6924
  255MOL0     C34302  10.179   9.603   2.832 -0.1564 -0.6584  0.3408
  255MOL0     C34303  10.255   9.730   2.781  0.1678  1.1947  0.7044
  255MOL0     C34304  10.401   9.695   2.762 -0.2130  0.4631 -1.1680
  255MOL0     C34305  10.458   9.794   2.660  0.3473  0.2016  0.6181
  255MOL0     C34306  10.600   9.764   2.628  0.0192  0.2013  0.8297
  255MOL0     N34307  10.681   9.884   2.608 -0.2299  0.2954 -0.5347
  255MOL0     C34308  10.708   9.932   2.484  0.1121  0.0019 -0.5477
  255MOL0     C34309  10.800  10.024   2.497 -0.4412  0.3216  0.1316
  255MOL0     C34310  10.875  10.106   2.388 -0.3121  0.3387  0.6029
  255MOL0     C34311  10.966  10.209   2.461  0.4991  0.3692 -0.2051
  255MOL0     C34312  11.051  10.300   2.381 -0.0428 -0.2016  0.1380
  255MOL0     C34313  11.167  10.227   2.318 -1.3380 -0.1885  1.2527
  255MOL0     O34314  11.260  10.153   2.396 -0.4307 -0.6197  0.1896
  255MOL0     C34315  11.340  10.064   2.325 -0.5934 -0.9976 -0.2233
  255MOL0     C34316  11.358  10.068   2.183  0.1679 -0.6157 -0.5092
  255MOL0     C34317  11.462   9.998   2.121  0.1611 -0.6998  0.3511
  255MOL0     C34318  11.553   9.928   2.198  0.3234  0.6313 -0.4867
  255MOL0     C34319  11.670   9.872   2.134 -0.5232  0.1125  0.5453
  255MOL0     O34320  11.732   9.769   2.197 -0.0805 -0.4010 -0.1952
  255MOL0     C34321  11.815   9.679   2.149  0.4733  1.1444  0.5054
  255MOL0     C34322  11.892   9.610   2.245 -0.0538 -0.0712 -0.0780
  255MOL0     C34323  11.983   9.504   2.202  0.3449 -0.6775 -0.1673
  255MOL0     C34324  12.002   9.477   2.069  0.9386  0.9384 -0.4855
  255MOL0     O34325  12.090   9.384   2.045 -0.6501 -0.1260  0.2562
  255MOL0     C34326  12.169   9.400   1.930  0.3548  0.0382  0.2714
  255MOL0     C34327  12.256   9.278   1.920  0.7826  0.9306 -0.3010
  255MOL0     C34328  12.369   9.293   1.810  0.6643 -0.0431 -0.6131
  255MOL0     C34329  12.312   9.268   1.666  0.5861  0.0077  0.4927
  255MOL0     C34330  12.409   9.280   1.553 -0.3079  0.2274  0.0341
  255MOL0     C34331  12.539   9.184   1.557  0.1877 -0.0358 -0.2975
  255MOL0     C34332  12.657   9.258   1.622 -0.0757 -0.0114 -0.1678
  255MOL0     C34333  12.774   9.159   1.617 -0.5664 -0.1402  0.2215
  255MOL0    Cl34334  12.932   9.253   1.641  0.6521 -0.0881  0.4400
  255MOL0     C34335  11.928   9.555   1.973 -0.2491  0.9476 -0.4018
  255MOL0     C34336  11.832   9.649   2.011  0.2002 -0.2571 -0.2923
  255MOL0     O34337  11.711   9.917   2.024 -0.2423 -0.5602 -1.0535
  255MOL0     C34338  11.536   9.922   2.344  1.0032 -0.6403  1.1510
  255MOL0     C34339  11.429   9.997   2.401  0.3175 -0.3772 -0.7359
  255MOL0     N34340  10.813  10.051   2.634 -0.9135 -0.2524 -0.3992
  255MOL0     N34341  10.747   9.965   2.704  0.0881 -0.3147  0.7509
  255MOL0     C34342   9.528   9.526   2.928  0.8454  0.0598 -0.3915
  255MOL0     C34343   9.394   9.487   2.909  0.3374  0.2487  1.2738
  255MOL0     C34344   8.996   9.320   2.808  1.0437 -0.7316  0.0285
  255MOL0     C34345   8.925   9.247   2.910  0.4071  0.2890 -0.1591
  255MOL0     C34346   8.787   9.243   2.907 -0.4348  0.0597 -0.5994
  255MOL0     C34347   8.717   9.289   2.798 -0.0678 -0.0926  1.5303
  255MOL0     O34348   8.579   9.286   2.790  0.1229 -0.1284 -0.4011
  255MOL0     C34349   8.499   9.309   2.902 -0.0809 -0.5315 -0.5154
  255MOL0     C34350   8.456   9.177   2.972  0.5527  0.6204 -0.1309
  255MOL0     C34351   8.360   9.088   2.900  0.2188  0.6656  0.3610
  255MOL0     C34352   8.218   9.147   2.862  0.5212 -0.5462 -0.0820
  255MOL0     C34353   8.138   9.024   2.832 -0.0014 -0.0293  0.2303
  255MOL0     C34354   8.066   8.937   2.811  0.3592 -0.6962 -0.2861
  255MOL0     C34355   8.785   9.331   2.683  0.0038  0.1511 -0.5845
  255MOL0     C34356   8.923   9.350   2.685 -1.4870  0.0427  0.1587
  255MOL0     C34357   8.992   9.400   2.556  0.8099 -0.4893 -0.2241
  255MOL0     H34358   9.401   9.511   2.564  2.3802 -1.0305 -1.5340
  255MOL0     H34359   9.634   9.529   2.614 -1.1677  0.2048 -1.7135
  255MOL0     H34360   9.805   9.652   3.002  1.2872 -0.7192 -0.0327
  255MOL0     H34361   9.769   9.486   3.037  0.8574 -3.5342 -2.1796
  255MOL0     H34362   9.964   9.418   2.911  3.1634 -0.6506  1.4215
  255MOL0     H34363  10.021   9.513   3.042  1.0336  2.2769 -0.4469
  255MOL0     H34364  10.012   9.716   2.875  3.1474  0.6999  0.5267
  255MOL0     H34365   9.993   9.602   2.739 -0.4125  0.3155  0.5562
  255MOL0     H34366  10.227   9.575   2.927 -0.3897 -2.5330 -0.0578
  255MOL0     H34367  10.206   9.526   2.760 -2.2960 -1.2106  0.0892
  255MOL0     H34368  10.210   9.750   2.683  3.2668  0.5438 -0.9814
  255MOL0     H34369  10.244   9.815   2.848  0.9624 -0.1741  2.6788
  255MOL0     H34370  10.444   9.699   2.863 -0.5109  1.0021 -1.0644
  255MOL0     H34371  10.413   9.592   2.727 -2.2758 -0.8656  1.6293
  255MOL0     H34372  10.459   9.896   2.702  2.1003  1.4429 -2.1576
  255MOL0     H34373  10.399   9.797   2.569  1.1363 -1.3566  0.0222
  255MOL0     H34374  10.650   9.700   2.701 -2.1692  0.8063  2.9689
  255MOL0     H34375  10.593   9.707   2.535 -0.2396  1.6184 -0.0537
  255MOL0     H34376  10.669   9.899   2.388  0.9754  4.6984 -2.8408
  255MOL0     H34377  10.934  10.057   2.311 -1.1740 -0.0052  0.1540
  255MOL0     H34378  10.796  10.162   2.336 -2.2534 -1.3725  1.5346
  255MOL0     H34379  10.910  10.280   2.523  0.9827  2.7071 -2.2987
  255MOL0     H34380  11.026  10.152   2.534  1.0390 -3.1434 -3.1017
  255MOL0     H34381  11.098  10.375   2.446  1.0835  1.3138 -2.2800
  255MOL0     H34382  10.991  10.352   2.307  0.0340  0.0013  0.2188
  255MOL0     H34383  11.221  10.314   2.279 -0.5452 -0.6947  1.2059
  255MOL0     H34384  11.125  10.172   2.234  0.2352 -0.2223  0.4549
  255MOL0     H34385  11.286  10.127   2.127 -0.0497  0.6125  0.9707
  255MOL0     H34386  11.475  10.001   2.014  0.6314 -1.3267  0.3844
  255MOL0     H34387  11.879   9.626   2.352  0.5687 -0.7425  0.1010
  255MOL0     H34388  12.050   9.458   2.274  1.5139  1.2485  0.0407
  255MOL0     H34389  12.108   9.401   1.839  0.8908 -1.5442 -0.1432
  255MOL0     H34390  12.224   9.492   1.951  0.3907  0.2157 -0.5502
  255MOL0     H34391  12.294   9.269   2.022 -0.1955 -2.1411 -0.1113
  255MOL0     H34392  12.183   9.200   1.897  1.8024  0.0384 -0.6250
  255MOL0     H34393  12.415   9.392   1.818  0.0542  0.1047  2.0734
  255MOL0     H34394  12.451   9.225   1.835  0.9107  0.1290 -0.9485
  255MOL0     H34395  12.244   9.354   1.656 -0.7702 -1.1773 -1.0248
  255MOL0     H34396  12.253   9.176   1.655 -1.3097  0.9687  1.9104
  255MOL0     H34397  12.438   9.384   1.534 -3.0001  1.3771  1.7588
  255MOL0     H34398  12.356   9.259   1.460  1.1504  0.2565 -0.8459
  255MOL0     H34399  12.518   9.091   1.610 -3.5076  0.7164 -0.1615
  255MOL0     H34400  12.568   9.160   1.454  1.4259 -1.3692  0.3316
  255MOL0     H34401  12.648   9.288   1.727  0.7995  0.3315 -0.1754
  255MOL0     H34402  12.679   9.344   1.557 -2.8147  1.1038  0.2214
  255MOL0     H34403  12.742   9.086   1.692 -0.4428 -0.9901 -0.5243
  255MOL0     H34404  12.772   9.111   1.518 -3.5825  1.4694 -0.6143
  255MOL0     H34405  11.936   9.546   1.865 -2.1476 -0.5299 -0.4728
  255MOL0     H34406  11.774   9.695   1.932 -0.2166 -2.3890 -1.3200
  255MOL0     H34407  11.612   9.875   2.405 -0.4262 -2.1813  1.8153
  255MOL0     H34408  11.430  10.016   2.508 -1.4918  0.2072 -0.7924
  255MOL0     H34409   9.551   9.533   3.034  0.7078  0.0155 -0.3577
  255MOL0     H34410   9.328   9.481   2.994 -0.0403  2.7919  1.2474
  255MOL0     H34411   8.979   9.202   2.993  3.2237  1.0286 -1.4602
  255MOL0     H34412   8.737   9.194   2.990  0.2464  4.0987  2.5222
  255MOL0     H34413   8.413   9.355   2.853  0.4117 -2.4527 -3.3807
  255MOL0     H34414   8.540   9.383   2.972  2.4568 -0.6325 -1.7826
  255MOL0     H34415   8.399   9.205   3.061  1.4178  0.1491  0.5800
  255MOL0     H34416   8.545   9.121   3.001 -2.3762 -2.9765  2.9335
  255MOL0     H34417   8.343   9.007   2.972  0.5709 -2.1943 -2.5476
  255MOL0     H34418   8.406   9.050   2.809 -0.9332 -2.0923  0.8480
  255MOL0     H34419   8.163   9.195   2.943 -0.3710 -0.8998 -0.4640
  255MOL0     H34420   8.218   9.210   2.772  0.2219  1.3628  1.1939
  255MOL0     H34421   8.000   8.855   2.792 -1.5331  0.5294  0.7942
  255MOL0     H34422   8.736   9.368   2.594  0.3130  0.4503 -0.6301
  255MOL0     H34423   9.068   9.334   2.514 -0.1381 -1.1564 -0.9614
  255MOL0     H34424   8.921   9.420   2.475  0.8600  3.1601  0.4534
  255MOL0     H34425   9.043   9.494   2.577 -0.1133 -0.4189  1.9496
  256MOL0     O34426  10.855   4.365   5.956 -0.1412  0.2129 -0.4864
  256MOL0     C34427  10.829   4.280   6.040  0.1868  0.3532 -0.5396
  256MOL0     O34428  10.915   4.226   6.131 -0.0610 -0.8680  0.7384
  256MOL0     C34429  11.048   4.263   6.117  0.2866  0.6526 -0.7294
  256MOL0     C34430  11.139   4.190   6.036  0.3273 -0.1923 -0.0807
  256MOL0     C34431  11.274   4.235   6.036  0.6739  0.0302 -0.1411
  256MOL0     C34432  11.314   4.354   6.104 -0.2078  0.1422  0.7921
  256MOL0     O34433  11.441   4.409   6.106 -0.8592  0.4469  0.0497
  256MOL0     C34434  11.550   4.336   6.049  0.3927  0.4744 -0.3852
  256MOL0     C34435  11.603   4.253   6.160 -1.0655 -0.1092 -1.5499
  256MOL0     C34436  11.734   4.185   6.120  0.7090  0.0385 -0.6371
  256MOL0     C34437  11.729   4.037   6.143  0.1678  0.9849  0.3566
  256MOL0     C34438  11.847   3.952   6.079 -0.0044 -0.7796 -0.3349
  256MOL0     C34439  11.975   4.014   6.114 -0.5501 -0.7288 -0.6311
  256MOL0     C34440  12.093   3.963   6.030  0.1713 -0.0420  0.4797
  256MOL0     C34441  12.120   3.814   6.042 -0.6945 -0.5907  0.3282
  256MOL0     N34442  12.209   3.783   6.161 -0.1217 -0.3714  0.2014
  256MOL0     C34443  12.344   3.797   6.173 -0.2208  0.7170 -0.1413
  256MOL0     C34444  12.375   3.723   6.279 -0.0452  0.4166 -0.8706
  256MOL0     C34445  12.510   3.695   6.336  0.2816 -0.0065 -0.0662
  256MOL0     C34446  12.527   3.541   6.379  0.9194 -0.4481  0.8043
  256MOL0     C34447  12.670   3.496   6.407 -1.2540  0.3887 -0.2431
  256MOL0     C34448  12.687   3.345   6.423 -0.2316 -0.8476 -0.2220
  256MOL0     O34449  12.808   3.318   6.494 -0.5055  0.1458  0.3235
  256MOL0     C34450  12.927   3.316   6.427 -0.6336  0.5375  0.1559
  256MOL0     C34451  13.051   3.299   6.495  0.7857 -0.1963  1.3815
  256MOL0     C34452  13.164   3.260   6.418  0.4158 -0.4688 -0.4413
  256MOL0     C34453  13.163   3.242   6.277  0.7383 -0.9333  0.4940
  256MOL0     C34454  13.288   3.210   6.201  0.3266  0.4190  0.3458
  256MOL0     O34455  13.389   3.151   6.271 -0.0339  0.3646 -0.4910
  256MOL0     C34456  13.516   3.122   6.218  0.2070 -0.7074 -0.9411
  256MOL0     C34457  13.597   3.038   6.291 -0.2943 -0.8992  0.0851
  256MOL0     C34458  13.725   3.005   6.251  0.5149  0.6231 -0.0541
  256MOL0     C34459  13.790   3.076   6.151 -0.8551  0.0491  0.3512
  256MOL0     O34460  13.923   3.058   6.134 -0.3072  0.4185  0.1081
  256MOL0     C34461  13.969   3.083   6.000  0.5917 -0.9960  0.7906
  256MOL0     C34462  14.098   3.015   5.976 -0.2810 -0.0197  0.2555
  256MOL0     C34463  14.207   3.068   6.065 -0.8240 -0.0492 -0.8879
  256MOL0     C34464  14.342   3.029   6.009 -0.5665 -0.4035  0.9577
  256MOL0     C34465  14.453   3.071   6.104 -0.4664 -0.2654 -0.4812
  256MOL0     C34466  14.589   3.017   6.046 -0.5194  0.2575 -0.0986
  256MOL0     C34467  14.713   3.032   6.146 -0.1538  0.0899  0.3084
  256MOL0     C34468  14.841   3.075   6.077 -1.1587 -0.4462  0.8734
  256MOL0    Cl34469  14.923   2.931   6.017 -0.0644  0.0928 -0.0667
  256MOL0     C34470  13.707   3.164   6.072 -0.0743  0.2848  0.0904
  256MOL0     C34471  13.571   3.182   6.104  0.4626  0.2684  0.7580
  256MOL0     O34472  13.285   3.252   6.084 -0.4865  0.3464  0.2013
  256MOL0     C34473  13.041   3.282   6.210 -0.0867 -0.1003 -0.1492
  256MOL0     C34474  12.932   3.310   6.284 -0.2700  0.2083 -0.0473
  256MOL0     N34475  12.254   3.671   6.339 -0.3103 -0.8294 -0.4482
  256MOL0     N34476  12.151   3.715   6.272 -0.4128  0.3682 -0.6185
  256MOL0     C34477  11.220   4.422   6.183 -0.3081  0.4521 -0.2736
  256MOL0     C34478  11.087   4.380   6.178 -0.1713 -0.0035 -0.0518
  256MOL0     C34479  10.682   4.226   6.045 -1.7694 -0.9892 -0.6271
  256MOL0     C34480  10.577   4.318   6.012 -0.2745  0.0173 -0.3482
  256MOL0     C34481  10.448   4.273   6.025  0.1208  0.2058 -1.0555
  256MOL0     C34482  10.422   4.148   6.061 -0.1921  0.5992 -0.4128
  256MOL0     O34483  10.294   4.094   6.068  0.1891 -0.1898 -0.0822
  256MOL0     C34484  10.206   4.146   6.165  0.0096  0.1920  0.7108
  256MOL0     C34485  10.053   4.122   6.125 -0.1084 -0.2187 -0.6421
  256MOL0     C34486   9.960   4.179   6.241  0.0320 -0.2649  0.5144
  256MOL0     C34487   9.965   4.117   6.378 -0.2316  0.0608 -0.1071
  256MOL0     C34488   9.873   4.182   6.470  0.2559 -0.2315  0.1252
  256MOL0     C34489   9.790   4.235   6.549  0.2937  0.5206 -0.5387
  256MOL0     C34490  10.527   4.057   6.084 -0.7540  0.1660  0.1772
  256MOL0     C34491  10.657   4.092   6.083 -0.0636  0.9003 -0.7392
  256MOL0     C34492  10.755   3.981   6.110 -0.4640  0.7630 -0.0458
  256MOL0     H34493  11.104   4.104   5.979  1.0504 -0.0750 -0.7143
  256MOL0     H34494  11.345   4.172   5.984  2.3271  0.8858  1.0087
  256MOL0     H34495  11.526   4.259   5.975 -0.9215  0.1083  0.3932
  256MOL0     H34496  11.615   4.413   6.008  0.7102  1.0784  1.2045
  256MOL0     H34497  11.527   4.181   6.191  1.4848 -1.8178  1.2752
  256MOL0     H34498  11.612   4.315   6.249  1.0517 -0.5135 -1.4115
  256MOL0     H34499  11.812   4.213   6.191  0.3346 -2.4540  0.8669
  256MOL0     H34500  11.765   4.204   6.016  0.7240  1.0692 -0.4561
  256MOL0     H34501  11.704   4.016   6.248 -0.6083  1.9916  0.3907
  256MOL0     H34502  11.640   4.002   6.090  0.3186 -0.9252  1.2851
  256MOL0     H34503  11.840   3.847   6.110 -1.5700 -0.3296  0.9568
  256MOL0     H34504  11.858   3.980   5.974 -0.5077  2.8084  0.4588
  256MOL0     H34505  11.979   4.123   6.099  0.5484 -0.5049  1.0399
  256MOL0     H34506  12.002   4.000   6.219  2.2608  0.6483 -1.0574
  256MOL0     H34507  12.187   4.014   6.051  0.0886 -0.3690  1.6862
  256MOL0     H34508  12.064   3.993   5.929  0.7134  0.9283  0.5966
  256MOL0     H34509  12.026   3.757   6.043 -0.2456 -1.3971 -0.7639
  256MOL0     H34510  12.181   3.789   5.954 -1.8494 -1.4161 -0.2679
  256MOL0     H34511  12.418   3.844   6.110  0.7457  0.2919  0.6595
  256MOL0     H34512  12.588   3.710   6.262 -0.5129 -0.3069 -0.9822
  256MOL0     H34513  12.536   3.761   6.419  4.4489 -0.7317 -0.6069
  256MOL0     H34514  12.463   3.509   6.462 -1.9301  1.6805 -0.4033
  256MOL0     H34515  12.487   3.488   6.292  0.5980  1.3516 -0.1906
  256MOL0     H34516  12.698   3.553   6.495  0.1754  1.2728 -1.2312
  256MOL0     H34517  12.731   3.524   6.320  2.0496 -1.9121  1.1251
  256MOL0     H34518  12.665   3.294   6.328  1.9953  0.0307 -1.2885
  256MOL0     H34519  12.611   3.310   6.493 -1.9994 -2.5887 -2.8124
  256MOL0     H34520  13.041   3.311   6.602 -2.1292  2.4782  0.9371
  256MOL0     H34521  13.257   3.243   6.471  0.5643  0.0975 -0.5186
  256MOL0     H34522  13.572   3.010   6.393 -0.7467 -3.9138 -0.7428
  256MOL0     H34523  13.796   2.936   6.296 -2.1144 -1.3635  1.3338
  256MOL0     H34524  13.889   3.041   5.938 -2.1121 -0.0473  3.3916
  256MOL0     H34525  13.981   3.191   5.989  0.8312 -0.7580  3.0070
  256MOL0     H34526  14.070   2.913   6.005 -0.4960 -0.7871 -2.4131
  256MOL0     H34527  14.128   3.026   5.872 -1.4334  1.9067  0.0654
  256MOL0     H34528  14.190   3.173   6.091  1.3924  0.2099 -0.3565
  256MOL0     H34529  14.207   3.017   6.162  1.9961 -0.4668 -1.0362
  256MOL0     H34530  14.359   3.074   5.911 -0.9403  2.7374  2.2144
  256MOL0     H34531  14.354   2.920   6.013  0.5913 -0.2749  4.1059
  256MOL0     H34532  14.434   3.023   6.200  1.3458 -1.1318 -0.5040
  256MOL0     H34533  14.462   3.178   6.122  1.5145 -0.2512 -1.2791
  256MOL0     H34534  14.594   2.912   6.016  3.4803 -0.0775  1.1322
  256MOL0     H34535  14.600   3.080   5.957 -0.9001 -0.0859 -0.3935
  256MOL0     H34536  14.740   2.934   6.187 -0.4278  0.3677  1.1661
  256MOL0     H34537  14.692   3.104   6.226  1.4377 -1.7729  2.5626
  256MOL0     H34538  14.823   3.144   5.995  2.0414  0.8535  1.1379
  256MOL0     H34539  14.914   3.120   6.146  0.5663 -0.2044 -1.0114
  256MOL0     H34540  13.745   3.231   5.995  2.8252  0.2400  1.3343
  256MOL0     H34541  13.519   3.263   6.055  0.0793 -0.7687 -0.5857
  256MOL0     H34542  13.028   3.266   6.103 -0.9050 -2.2671  0.2139
  256MOL0     H34543  12.837   3.318   6.233 -0.6759 -0.9099  0.5153
  256MOL0     H34544  11.246   4.521   6.218  1.9514 -0.3791  0.6291
  256MOL0     H34545  11.008   4.432   6.231 -1.2360 -0.4767 -1.1347
  256MOL0     H34546  10.583   4.424   5.986 -0.7199 -0.1022 -0.9640
  256MOL0     H34547  10.374   4.335   5.976 -1.7165 -2.4163 -1.7480
  256MOL0     H34548  10.219   4.253   6.182  0.5374 -0.1189  2.5065
  256MOL0     H34549  10.229   4.106   6.264 -2.8858  1.5579  2.0569
  256MOL0     H34550  10.040   4.018   6.096 -3.3368 -0.8251  2.3871
  256MOL0     H34551  10.030   4.178   6.034  1.3257  0.7440 -0.4490
  256MOL0     H34552   9.858   4.164   6.205  1.2897 -3.5991 -2.1727
  256MOL0     H34553   9.966   4.288   6.244 -2.5263 -0.0938  2.9149
  256MOL0     H34554   9.947   4.010   6.368  0.0001  0.0532 -0.4727
  256MOL0     H34555  10.067   4.122   6.417 -1.0117 -1.7092  2.3514
  256MOL0     H34556   9.723   4.276   6.621 -0.4934 -0.1976 -0.8401
  256MOL0     H34557  10.515   3.952   6.108  2.8196 -0.4068 -0.0353
  256MOL0     H34558  10.808   3.990   6.205 -1.3941  0.3659  0.5294
  256MOL0     H34559  10.708   3.882   6.113 -0.9257  0.8880 -1.9667
  256MOL0     H34560  10.836   3.976   6.037  0.5573 -2.3950  1.1177
  257MOL0     O34561   5.453   5.952   4.791 -0.0597 -0.1531 -0.1178
  257MOL0     C34562   5.397   6.038   4.728  0.3375 -0.3091 -0.2324
  257MOL0     O34563   5.443   6.110   4.624 -0.3010  0.1743  0.1716
  257MOL0     C34564   5.575   6.097   4.598 -0.0456 -0.5034 -0.4489
  257MOL0     C34565   5.675   6.137   4.695 -0.3008  0.0070  0.1643
  257MOL0     C34566   5.808   6.099   4.670  0.0070  0.2383  0.5905
  257MOL0     C34567   5.856   6.040   4.551  0.4512  0.0789 -0.0066
  257MOL0     O34568   5.986   6.018   4.512  0.0689  0.4695 -0.1831
  257MOL0     C34569   6.083   6.069   4.601  0.7640 -0.6398 -0.4261
  257MOL0     C34570   6.218   6.046   4.535  0.3774 -0.2230 -0.6798
  257MOL0     C34571   6.335   6.121   4.593  0.5104  0.4798  0.5354
  257MOL0     C34572   6.343   6.104   4.742 -0.6127 -0.7607  0.7865
  257MOL0     C34573   6.470   6.177   4.789 -0.1017  0.1454  0.7850
  257MOL0     C34574   6.506   6.172   4.937  0.4946  0.0719  0.0234
  257MOL0     C34575   6.418   6.277   5.011  0.0792 -0.5164  0.6389
  257MOL0     C34576   6.464   6.296   5.144  0.6973  0.5168 -0.7767
  257MOL0     N34577   6.609   6.352   5.153 -0.5699  0.9749  0.0504
  257MOL0     C34578   6.724   6.281   5.183 -0.1222 -0.2822  0.0149
  257MOL0     C34579   6.812   6.381   5.214  0.6069 -0.5195 -0.0429
  257MOL0     C34580   6.950   6.366   5.279 -0.5913  0.1084 -0.1712
  257MOL0     C34581   7.055   6.362   5.164  0.9116  0.7251 -0.1287
  257MOL0     C34582   7.194   6.370   5.220  0.1554 -0.7467  0.1995
  257MOL0     C34583   7.304   6.374   5.109  1.0368 -0.9056  0.9778
  257MOL0     O34584   7.433   6.391   5.172  0.2069 -0.2504  0.3404
  257MOL0     C34585   7.536   6.432   5.086  0.1623 -0.0844 -0.4743
  257MOL0     C34586   7.666   6.426   5.141 -0.4620 -0.1319  0.4662
  257MOL0     C34587   7.779   6.473   5.075 -0.1323  0.4503 -0.2673
  257MOL0     C34588   7.769   6.528   4.942  0.0998  1.1131 -0.1828
  257MOL0     C34589   7.888   6.576   4.870 -0.4626 -0.8739  0.5350
  257MOL0     O34590   7.865   6.654   4.761 -0.0167 -0.4081  0.5593
  257MOL0     C34591   7.968   6.671   4.669  0.4229  0.3598  0.0658
  257MOL0     C34592   8.008   6.799   4.634 -0.9318  0.2074  0.1280
  257MOL0     C34593   8.098   6.823   4.528  0.4003 -0.9497  0.0237
  257MOL0     C34594   8.160   6.716   4.463  0.4454  0.2144 -0.1199
  257MOL0     O34595   8.260   6.726   4.368 -0.6931 -0.1207  0.6571
  257MOL0     C34596   8.278   6.847   4.297 -0.3861 -0.3328 -0.2234
  257MOL0     C34597   8.398   6.835   4.199 -0.2707 -0.1061 -0.9292
  257MOL0     C34598   8.414   6.972   4.125  0.2477  0.3487 -0.3595
  257MOL0     C34599   8.528   6.948   4.010  0.1222 -0.9563 -0.8074
  257MOL0     C34600   8.548   7.077   3.921 -0.4732 -0.7031  0.6247
  257MOL0     C34601   8.669   7.090   3.829 -0.4258  0.6377 -0.0503
  257MOL0     C34602   8.700   6.962   3.758 -0.0052 -0.2914 -0.1621
  257MOL0     C34603   8.634   6.951   3.620 -0.6145 -0.0433 -0.5855
  257MOL0    Cl34604   8.457   6.911   3.642 -0.1888 -0.5137 -0.1262
  257MOL0     C34605   8.121   6.584   4.502  0.2798 -0.1292  0.2556
  257MOL0     C34606   8.031   6.564   4.605  0.1550 -0.0289 -0.6794
  257MOL0     O34607   7.997   6.530   4.901 -0.3115 -0.2755  0.2081
  257MOL0     C34608   7.647   6.526   4.880 -0.5837  0.1332  0.2829
  257MOL0     C34609   7.531   6.477   4.949 -0.5328  1.4918  0.3586
  257MOL0     N34610   6.748   6.497   5.191 -0.7839 -0.1213 -0.5144
  257MOL0     N34611   6.625   6.482   5.150 -0.7403 -0.7803  0.0734
  257MOL0     C34612   5.756   6.003   4.458 -0.5284  0.3479  0.7034
  257MOL0     C34613   5.620   6.030   4.480 -0.7895 -0.0920  0.9105
  257MOL0     C34614   5.264   6.078   4.765 -0.3516  0.5312  1.2541
  257MOL0     C34615   5.247   6.172   4.876 -0.6661  0.6183  0.7035
  257MOL0     C34616   5.117   6.195   4.917 -0.0442 -0.6995 -0.1939
  257MOL0     C34617   5.005   6.143   4.851 -0.3653 -0.7815 -0.1453
  257MOL0     O34618   4.883   6.164   4.907  0.4377 -0.4402  0.8572
  257MOL0     C34619   4.764   6.100   4.852 -0.5952 -0.2961 -0.5198
  257MOL0     C34620   4.739   5.960   4.893 -0.1278  0.1387 -0.0913
  257MOL0     C34621   4.636   5.887   4.811  0.0463 -0.0892 -0.5457
  257MOL0     C34622   4.483   5.933   4.810 -0.5375  1.0192  0.1812
  257MOL0     C34623   4.474   6.058   4.733 -0.2669 -0.1499  0.9395
  257MOL0     C34624   4.478   6.153   4.659  0.2142  0.5524  0.7653
  257MOL0     C34625   5.025   6.064   4.734  0.7477 -0.9237 -0.5358
  257MOL0     C34626   5.150   6.036   4.698 -0.8318 -0.1668  0.1030
  257MOL0     C34627   5.171   5.938   4.592 -1.0398  0.3084  0.0410
  257MOL0     H34628   5.656   6.191   4.788  0.2401 -1.5192  1.2053
  257MOL0     H34629   5.869   6.144   4.748  2.3215 -1.5374 -0.0576
  257MOL0     H34630   6.065   6.175   4.620  0.3479 -0.8548  0.4879
  257MOL0     H34631   6.092   6.027   4.702  1.2790  1.2958  0.3661
  257MOL0     H34632   6.208   6.062   4.427 -0.1112 -0.0987 -0.6188
  257MOL0     H34633   6.232   5.937   4.543 -1.4187 -0.3293  4.4225
  257MOL0     H34634   6.328   6.227   4.564 -3.9982  0.2360  0.0751
  257MOL0     H34635   6.424   6.077   4.546 -0.4754 -0.0040 -0.9475
  257MOL0     H34636   6.262   6.159   4.790  1.1121  2.6320  0.1775
  257MOL0     H34637   6.338   5.997   4.764 -1.9091 -0.7129  0.7876
  257MOL0     H34638   6.557   6.136   4.736 -1.5764  0.2880 -1.8864
  257MOL0     H34639   6.462   6.278   4.750 -0.3666 -0.1420  0.0806
  257MOL0     H34640   6.506   6.071   4.979  1.6532 -0.5882 -1.4466
  257MOL0     H34641   6.609   6.208   4.938  0.0889  1.3909  2.5297
  257MOL0     H34642   6.314   6.243   5.015 -0.3171  0.3664 -1.0467
  257MOL0     H34643   6.423   6.375   4.962 -0.5555  1.1877  3.7396
  257MOL0     H34644   6.392   6.358   5.198  2.7743  2.8794 -0.5396
  257MOL0     H34645   6.461   6.200   5.196  0.1618  2.3798  3.0373
  257MOL0     H34646   6.761   6.180   5.197  1.3054 -0.0042 -1.4727
  257MOL0     H34647   6.964   6.453   5.344  0.4100  0.8572 -1.3409
  257MOL0     H34648   6.940   6.272   5.334  0.4065  0.2486  0.2825
  257MOL0     H34649   7.048   6.265   5.113 -1.3413  1.0142 -0.4700
  257MOL0     H34650   7.036   6.444   5.094 -0.3507 -0.1513 -0.8632
  257MOL0     H34651   7.203   6.297   5.302 -0.4536  0.2553  1.1921
  257MOL0     H34652   7.210   6.465   5.272  0.7528 -1.3417  1.1512
  257MOL0     H34653   7.274   6.451   5.038 -0.9872 -2.1225  0.4196
  257MOL0     H34654   7.302   6.280   5.053 -2.6420 -0.6773  0.4816
  257MOL0     H34655   7.666   6.393   5.245 -1.3409  1.2166  0.9155
  257MOL0     H34656   7.870   6.491   5.130 -1.4581  1.6954  1.6420
  257MOL0     H34657   7.956   6.882   4.680 -0.6583  0.2849  0.2998
  257MOL0     H34658   8.117   6.925   4.497 -1.2474 -0.2157  1.2943
  257MOL0     H34659   8.191   6.883   4.241  0.7985  2.1953 -0.5717
  257MOL0     H34660   8.301   6.921   4.375  0.0140  0.4567 -1.0672
  257MOL0     H34661   8.492   6.815   4.251  0.4725  2.4713 -1.1365
  257MOL0     H34662   8.378   6.753   4.129 -3.2787 -1.6872  1.5358
  257MOL0     H34663   8.326   7.005   4.069  0.0059 -0.3589 -0.4119
  257MOL0     H34664   8.431   7.051   4.198 -1.9428  1.7103 -1.2147
  257MOL0     H34665   8.507   6.856   3.955 -0.1673  0.7037 -3.7167
  257MOL0     H34666   8.625   6.938   4.058  0.6762 -0.2008 -1.7311
  257MOL0     H34667   8.539   7.158   3.994  1.5093 -0.3908  0.5630
  257MOL0     H34668   8.462   7.084   3.853 -1.7983 -1.1893  2.1983
  257MOL0     H34669   8.653   7.181   3.771  0.1176  0.1040 -1.0593
  257MOL0     H34670   8.754   7.112   3.894  0.6518 -3.4931  0.2370
  257MOL0     H34671   8.666   6.874   3.815 -1.4667  0.0748 -0.4194
  257MOL0     H34672   8.809   6.960   3.746 -0.1328 -1.1145 -1.3100
  257MOL0     H34673   8.667   7.039   3.565 -0.2143 -0.6552 -1.3410
  257MOL0     H34674   8.682   6.870   3.564 -0.2516 -0.3242  0.1226
  257MOL0     H34675   8.146   6.488   4.457 -2.1235 -1.8112  2.2735
  257MOL0     H34676   8.006   6.465   4.642  2.4393 -0.1245  0.8258
  257MOL0     H34677   7.645   6.543   4.773 -0.2383  1.5225  0.4890
  257MOL0     H34678   7.442   6.475   4.886 -0.0629  3.1941 -0.4258
  257MOL0     H34679   5.785   5.954   4.366  0.7071  1.2199  0.6074
  257MOL0     H34680   5.538   5.994   4.418 -0.4392 -0.7330  0.8139
  257MOL0     H34681   5.332   6.203   4.936 -0.0783  0.4049  0.0037
  257MOL0     H34682   5.090   6.260   5.000 -0.8862  0.2782 -1.1850
  257MOL0     H34683   4.761   6.083   4.744 -0.3395 -2.5845 -0.2193
  257MOL0     H34684   4.686   6.165   4.893 -0.2459 -1.7286  2.7650
  257MOL0     H34685   4.711   5.952   4.999 -0.4639 -0.4467 -0.2155
  257MOL0     H34686   4.830   5.905   4.870 -0.3172  1.1369 -3.8941
  257MOL0     H34687   4.621   5.785   4.848 -1.0150  0.8931  1.9707
  257MOL0     H34688   4.685   5.876   4.714  2.1788  3.0304  0.0419
  257MOL0     H34689   4.423   5.856   4.761  0.1312  1.4180 -1.3148
  257MOL0     H34690   4.444   5.952   4.910 -1.3665  0.7432 -0.0835
  257MOL0     H34691   4.470   6.235   4.589  0.3045  0.5985  0.8078
  257MOL0     H34692   4.953   6.012   4.671  0.6634 -0.3276 -0.9312
  257MOL0     H34693   5.252   5.871   4.623 -0.3469  1.2917  0.4030
  257MOL0     H34694   5.078   5.888   4.565  0.2293 -1.6692 -0.9177
  257MOL0     H34695   5.206   5.982   4.498 -1.8908  0.7163 -0.0872
  258MOL0     O34696   5.068   6.922   7.543 -0.4127  0.1557  0.6736
  258MOL0     C34697   5.069   6.968   7.425 -0.1247  0.1742 -0.1192
  258MOL0     O34698   5.183   7.018   7.365  0.5459 -0.2977 -0.1855
  258MOL0     C34699   5.293   7.034   7.440  0.5742 -0.5399 -0.6534
  258MOL0     C34700   5.376   7.153   7.411 -0.5235 -0.3027 -0.0210
  258MOL0     C34701   5.507   7.164   7.464  0.0820  0.6068 -0.5274
  258MOL0     C34702   5.550   7.075   7.562  0.2576  0.9777  0.3853
  258MOL0     O34703   5.680   7.099   7.609  0.1849  0.5808  0.2352
  258MOL0     C34704   5.718   7.032   7.732 -0.3111 -0.0296 -0.1107
  258MOL0     C34705   5.840   7.103   7.795 -0.3763 -0.1514 -0.3824
  258MOL0     C34706   5.971   7.060   7.730 -0.0442 -0.8345 -0.3004
  258MOL0     C34707   6.081   7.141   7.794 -0.4320  0.3448 -0.7803
  258MOL0     C34708   6.205   7.112   7.716 -0.0164  0.4784  0.0196
  258MOL0     C34709   6.332   7.190   7.769  1.4501 -0.5266 -0.2681
  258MOL0     C34710   6.450   7.171   7.675  0.0958 -0.0493 -0.7200
  258MOL0     C34711   6.551   7.289   7.658 -0.8820  0.0396  0.2003
  258MOL0     N34712   6.644   7.314   7.765  0.3568 -0.7600 -0.8222
  258MOL0     C34713   6.734   7.221   7.808  0.6603  0.1691 -0.1678
  258MOL0     C34714   6.798   7.273   7.914  0.5867 -0.4867 -0.2914
  258MOL0     C34715   6.911   7.224   8.000  0.7894  0.5780  0.0940
  258MOL0     C34716   7.053   7.245   7.929 -0.5099 -0.8967 -0.4745
  258MOL0     C34717   7.131   7.349   8.005  0.4412  0.4110 -0.0737
  258MOL0     C34718   7.273   7.362   7.949 -0.6604  0.8270 -0.5824
  258MOL0     O34719   7.340   7.234   7.949 -0.0973 -0.4121  0.0799
  258MOL0     C34720   7.472   7.240   7.927 -0.2650 -0.6165 -0.7295
  258MOL0     C34721   7.547   7.353   7.881  0.1093 -0.3185 -0.3587
  258MOL0     C34722   7.690   7.345   7.860 -0.6077 -1.7442 -0.2223
  258MOL0     C34723   7.757   7.229   7.898 -0.5718 -0.0798  0.5972
  258MOL0     C34724   7.905   7.214   7.885  0.2457  0.4645  0.4126
  258MOL0     O34725   7.987   7.311   7.841  0.7368  0.0402 -0.2824
  258MOL0     C34726   8.123   7.302   7.859 -1.7288 -0.2088 -0.2553
  258MOL0     C34727   8.199   7.325   7.744 -1.0055  0.9116  0.7999
  258MOL0     C34728   8.345   7.319   7.749 -0.0582 -0.2348  0.4471
  258MOL0     C34729   8.408   7.292   7.864  0.3481  0.1005 -0.3576
  258MOL0     O34730   8.541   7.264   7.870 -0.5755  0.5436  0.3235
  258MOL0     C34731   8.624   7.297   7.760 -0.6016  0.1098  0.3875
  258MOL0     C34732   8.766   7.276   7.803 -0.1758 -0.2176 -0.3316
  258MOL0     C34733   8.805   7.127   7.825 -0.0001  0.3847  0.1432
  258MOL0     C34734   8.952   7.108   7.854  0.1884  0.2525  0.5787
  258MOL0     C34735   8.985   6.959   7.869  0.3105 -0.2095  0.4778
  258MOL0     C34736   9.137   6.927   7.884  0.2308  0.5302 -0.3948
  258MOL0     C34737   9.163   6.893   8.035 -0.2788 -0.7298  0.2029
  258MOL0     C34738   9.308   6.916   8.080  0.3738  0.5061 -0.8581
  258MOL0    Cl34739   9.327   7.074   8.156 -0.1973  0.0778 -0.3179
  258MOL0     C34740   8.331   7.277   7.981  0.1364  0.6881 -0.8138
  258MOL0     C34741   8.192   7.274   7.981  0.1263 -0.1867 -0.5465
  258MOL0     O34742   7.944   7.114   7.942 -0.0419  0.8335 -0.4237
  258MOL0     C34743   7.675   7.115   7.931 -0.0807 -0.8182  0.0476
  258MOL0     C34744   7.535   7.120   7.950  0.3179  0.1501  0.1853
  258MOL0     N34745   6.739   7.400   7.934 -0.0816  0.1903 -0.2119
  258MOL0     N34746   6.649   7.423   7.847  0.2261  0.0631 -0.9048
  258MOL0     C34747   5.476   6.959   7.589 -0.2201 -0.0301  0.2240
  258MOL0     C34748   5.347   6.934   7.531  0.1046 -0.7848  0.9015
  258MOL0     C34749   4.936   6.981   7.355  0.3869  0.4666 -0.1954
  258MOL0     C34750   4.890   7.099   7.296 -0.0259  0.6221 -0.4907
  258MOL0     C34751   4.765   7.100   7.227  0.2289 -1.1148 -1.0239
  258MOL0     C34752   4.685   6.995   7.225  0.3291 -0.5045 -0.1149
  258MOL0     O34753   4.557   7.015   7.166 -0.2980 -1.2000  0.7432
  258MOL0     C34754   4.534   6.915   7.063 -0.5341 -1.2633 -0.8567
  258MOL0     C34755   4.409   6.967   6.989  0.2105 -0.0702 -0.6656
  258MOL0     C34756   4.360   6.858   6.898  0.2809  0.9847 -0.2501
  258MOL0     C34757   4.288   6.750   6.974  0.0013  0.3648 -0.2537
  258MOL0     C34758   4.172   6.688   6.905 -0.1128  0.9243  0.3530
  258MOL0     C34759   4.069   6.630   6.875  0.3708 -0.4371  0.6496
  258MOL0     C34760   4.727   6.873   7.273  0.2181  0.0911 -0.3584
  258MOL0     C34761   4.852   6.863   7.335 -0.5560 -0.2747 -1.1535
  258MOL0     C34762   4.888   6.718   7.387  1.2032 -0.7855  0.5670
  258MOL0     H34763   5.337   7.231   7.347 -0.1414  0.1788  0.3304
  258MOL0     H34764   5.587   7.232   7.435 -0.5850  1.5635 -0.1909
  258MOL0     H34765   5.638   7.038   7.806  1.3642 -0.6895  1.8453
  258MOL0     H34766   5.729   6.926   7.708  0.4261  0.5253 -2.5077
  258MOL0     H34767   5.843   7.085   7.903 -1.0244  1.0687 -0.1396
  258MOL0     H34768   5.821   7.210   7.782 -1.7578  0.1241  2.9650
  258MOL0     H34769   5.972   7.092   7.626  0.9517  1.5328  0.3561
  258MOL0     H34770   5.983   6.952   7.741 -2.0063 -0.8906  2.1329
  258MOL0     H34771   6.054   7.247   7.802 -0.0923  0.3190  1.3343
  258MOL0     H34772   6.103   7.103   7.895 -2.0774  0.2619 -0.4220
  258MOL0     H34773   6.219   7.003   7.712 -1.1616  0.3444 -1.7959
  258MOL0     H34774   6.188   7.144   7.613  0.3381 -0.1096 -0.2286
  258MOL0     H34775   6.315   7.297   7.778  2.3392 -0.2894 -1.1310
  258MOL0     H34776   6.348   7.151   7.870  1.6198 -0.0101 -0.0936
  258MOL0     H34777   6.409   7.136   7.580 -2.4404 -0.2541  0.3839
  258MOL0     H34778   6.497   7.084   7.723  0.3250 -0.6864 -2.0475
  258MOL0     H34779   6.615   7.274   7.571  0.6547  3.6756  0.5367
  258MOL0     H34780   6.493   7.378   7.633 -0.0984  0.5968  0.3585
  258MOL0     H34781   6.746   7.122   7.765 -0.8083  0.7881 -2.1653
  258MOL0     H34782   6.922   7.267   8.100  1.5376 -1.0309  0.7377
  258MOL0     H34783   6.894   7.117   8.017 -2.3945  1.3361  2.5675
  258MOL0     H34784   7.112   7.153   7.918 -1.3713 -1.3430 -1.5506
  258MOL0     H34785   7.032   7.264   7.823 -0.8514 -1.0196 -0.4295
  258MOL0     H34786   7.150   7.314   8.108 -0.8634 -2.2078 -0.6332
  258MOL0     H34787   7.075   7.443   8.009  0.8483  0.6480  3.4462
  258MOL0     H34788   7.316   7.444   8.007 -1.8135  0.1576  1.3204
  258MOL0     H34789   7.264   7.399   7.847 -1.0076  1.6914 -0.2470
  258MOL0     H34790   7.506   7.452   7.860 -1.1775 -0.8251 -0.3198
  258MOL0     H34791   7.726   7.435   7.812 -3.4044 -0.7770 -0.7064
  258MOL0     H34792   8.144   7.347   7.652 -2.5427  0.0292  1.4639
  258MOL0     H34793   8.393   7.320   7.651 -0.6878 -0.8907  0.1186
  258MOL0     H34794   8.585   7.238   7.677 -0.4462  0.9174 -0.2819
  258MOL0     H34795   8.606   7.401   7.730 -1.9565 -0.4975 -1.0557
  258MOL0     H34796   8.837   7.311   7.728  0.2613  3.4049  1.5823
  258MOL0     H34797   8.779   7.333   7.895 -1.5602  0.3996 -0.5017
  258MOL0     H34798   8.747   7.063   7.892  0.6741 -0.9268 -0.4780
  258MOL0     H34799   8.785   7.078   7.729 -1.1137  1.4989 -0.2156
  258MOL0     H34800   8.983   7.158   7.946  0.8200  0.4475  0.2667
  258MOL0     H34801   9.018   7.144   7.775  0.2825  0.7943  0.9031
  258MOL0     H34802   8.950   6.917   7.774  0.0418 -0.2367  0.5890
  258MOL0     H34803   8.925   6.916   7.950 -2.0816  0.5683 -0.7881
  258MOL0     H34804   9.173   6.845   7.821  2.0012  0.7542  0.2661
  258MOL0     H34805   9.185   7.017   7.845 -2.0335  1.4118 -1.3546
  258MOL0     H34806   9.133   6.790   8.056 -4.4249  0.6637  2.2607
  258MOL0     H34807   9.111   6.958   8.105 -0.2742 -0.4904 -0.0158
  258MOL0     H34808   9.322   6.843   8.159 -0.3915  2.3277  1.0547
  258MOL0     H34809   9.374   6.905   7.994 -0.0348 -0.8868 -1.0068
  258MOL0     H34810   8.374   7.253   8.077 -4.9085 -0.5956  1.4481
  258MOL0     H34811   8.144   7.248   8.075  0.9401 -0.6714 -0.2528
  258MOL0     H34812   7.726   7.019   7.940 -0.3980 -1.0615 -0.6572
  258MOL0     H34813   7.463   7.041   7.971 -0.6969  1.2948  1.2564
  258MOL0     H34814   5.509   6.881   7.657  0.3805 -1.1469 -1.3003
  258MOL0     H34815   5.303   6.836   7.542  1.2409 -1.5121 -0.6424
  258MOL0     H34816   4.958   7.183   7.308  1.9322 -1.0005  0.4440
  258MOL0     H34817   4.728   7.189   7.178 -0.1331 -0.7488 -0.1103
  258MOL0     H34818   4.511   6.818   7.110  3.4186 -1.6360  0.6944
  258MOL0     H34819   4.629   6.906   7.011  0.0383 -0.3613  0.0031
  258MOL0     H34820   4.432   7.058   6.932 -0.3542  0.7532  0.3762
  258MOL0     H34821   4.336   7.002   7.063 -0.5710 -2.7477 -0.0414
  258MOL0     H34822   4.433   6.821   6.826  0.4778  1.9718 -0.5855
  258MOL0     H34823   4.281   6.891   6.830 -1.3330 -1.0086  0.5614
  258MOL0     H34824   4.367   6.675   6.987  0.3021  0.6651 -0.3363
  258MOL0     H34825   4.267   6.788   7.075  2.5503  0.0829  0.4598
  258MOL0     H34826   3.969   6.592   6.868 -0.2860  1.4489 -1.1392
  258MOL0     H34827   4.662   6.789   7.249  2.2293 -0.9179 -2.9863
  258MOL0     H34828   4.826   6.641   7.341  3.2828 -2.1575 -0.0527
  258MOL0     H34829   4.992   6.703   7.359  1.7591  1.8279  0.9097
  258MOL0     H34830   4.877   6.719   7.496  0.5994  1.3078  0.5452
  259MOL0     O34831  10.375   2.972   2.723 -0.1353 -0.4385 -0.3492
  259MOL0     C34832  10.324   2.886   2.795 -0.3585 -0.1526 -0.7924
  259MOL0     O34833  10.205   2.893   2.843  0.5672 -0.2868  0.9265
  259MOL0     C34834  10.131   3.005   2.801 -0.2507  0.0400  0.7529
  259MOL0     C34835  10.113   3.036   2.669 -0.3557 -0.6542 -0.0971
  259MOL0     C34836  10.036   3.141   2.627 -0.4955  0.5431  0.8628
  259MOL0     C34837   9.979   3.222   2.725 -0.5289 -0.1301 -0.2510
  259MOL0     O34838   9.911   3.336   2.684 -0.7863 -0.2604 -0.0097
  259MOL0     C34839   9.870   3.434   2.774 -0.0444 -0.1724 -0.0752
  259MOL0     C34840   9.827   3.574   2.702 -0.7195  0.1829  0.7386
  259MOL0     C34841   9.718   3.535   2.606 -0.3453  0.0892 -0.0412
  259MOL0     C34842   9.670   3.651   2.524 -0.1724  0.3098 -0.0628
  259MOL0     C34843   9.780   3.693   2.432 -0.7300 -0.0670  0.2006
  259MOL0     C34844   9.754   3.750   2.284  0.4160 -0.3381  0.2542
  259MOL0     C34845   9.871   3.718   2.188  0.3329  0.3466 -0.4981
  259MOL0     C34846  10.005   3.773   2.236  0.5657  0.7417 -0.3503
  259MOL0     N34847  10.119   3.759   2.143  0.2432  0.2331 -0.0620
  259MOL0     C34848  10.244   3.806   2.176  0.2620 -1.3117  0.3111
  259MOL0     C34849  10.335   3.727   2.113 -0.3581 -0.7300  0.7007
  259MOL0     C34850  10.486   3.725   2.150 -0.9590 -0.7205  0.0717
  259MOL0     C34851  10.566   3.697   2.017 -0.6716  0.2244 -0.6275
  259MOL0     C34852  10.596   3.554   1.997  1.1987  0.4602  0.1700
  259MOL0     C34853  10.660   3.535   1.858 -0.1129 -0.4444  0.4208
  259MOL0     O34854  10.775   3.617   1.846  0.5705 -0.5746 -0.1989
  259MOL0     C34855  10.891   3.564   1.907  0.1385 -0.1810  0.0850
  259MOL0     C34856  11.011   3.638   1.891  0.9508  0.0727  0.0622
  259MOL0     C34857  11.127   3.603   1.952  0.2658  0.9380  0.0425
  259MOL0     C34858  11.134   3.490   2.036 -0.2203  0.1373  0.3039
  259MOL0     C34859  11.266   3.463   2.100  0.2478  0.2799 -0.0697
  259MOL0     O34860  11.279   3.343   2.153  0.2159  0.2199 -0.0997
  259MOL0     C34861  11.387   3.318   2.228  0.6449  0.6621  0.2360
  259MOL0     C34862  11.362   3.270   2.356  0.4727 -0.4933 -0.6848
  259MOL0     C34863  11.471   3.232   2.437  0.3033 -0.4902 -0.2304
  259MOL0     C34864  11.605   3.245   2.394  0.1783 -0.0982 -0.1127
  259MOL0     O34865  11.698   3.197   2.475 -0.3890  0.1887  0.0354
  259MOL0     C34866  11.833   3.163   2.443  0.1621  0.2312  0.4520
  259MOL0     C34867  11.933   3.279   2.430  0.1198 -0.8876  0.0710
  259MOL0     C34868  12.071   3.243   2.369 -0.2530  0.6575 -0.2452
  259MOL0     C34869  12.134   3.121   2.438 -0.2991 -0.0247 -0.6395
  259MOL0     C34870  12.282   3.102   2.401 -0.6085  0.6803  0.2810
  259MOL0     C34871  12.327   2.961   2.425  0.8338 -0.9749 -0.2423
  259MOL0     C34872  12.475   2.939   2.435  1.2298 -0.0108  0.1268
  259MOL0     C34873  12.556   2.913   2.303 -0.3488 -0.2681 -0.2434
  259MOL0    Cl34874  12.526   3.038   2.171  0.4364  0.2881 -0.1166
  259MOL0     C34875  11.626   3.291   2.267  0.1044 -0.1065  0.2536
  259MOL0     C34876  11.519   3.334   2.187 -1.3864  0.1894  0.4667
  259MOL0     O34877  11.353   3.552   2.105  0.3618 -0.2967  0.2978
  259MOL0     C34878  11.023   3.405   2.046 -0.3776  0.1333  0.0703
  259MOL0     C34879  10.903   3.441   1.984  0.1404 -0.4356  0.3413
  259MOL0     N34880  10.262   3.628   2.044  0.0031 -0.0510 -0.8463
  259MOL0     N34881  10.136   3.646   2.070  0.6137 -0.2942 -0.8011
  259MOL0     C34882   9.987   3.183   2.863  0.1564 -0.1732  0.8748
  259MOL0     C34883  10.068   3.073   2.906  0.8382  0.1284 -0.4765
  259MOL0     C34884  10.394   2.758   2.838 -0.0573  0.7436  0.3200
  259MOL0     C34885  10.351   2.718   2.965  0.1964  0.4325 -0.3704
  259MOL0     C34886  10.395   2.595   3.019  0.6017  0.4218 -0.1056
  259MOL0     C34887  10.489   2.520   2.956  0.1392 -1.5610 -0.7687
  259MOL0     O34888  10.535   2.419   3.028 -0.8185 -0.4756  0.4246
  259MOL0     C34889  10.627   2.330   2.968  0.3033 -0.0666  0.2150
  259MOL0     C34890  10.694   2.249   3.075 -0.8510 -0.0063  0.9749
  259MOL0     C34891  10.793   2.141   3.018 -0.2636 -0.2822  0.3417
  259MOL0     C34892  10.717   2.017   2.975  0.0119 -0.6659  0.7125
  259MOL0     C34893  10.780   1.924   2.880 -0.2397  0.0868  0.0517
  259MOL0     C34894  10.817   1.822   2.822  0.4923 -0.6175 -0.1648
  259MOL0     C34895  10.535   2.564   2.829 -0.3450  1.0659  0.0655
  259MOL0     C34896  10.484   2.682   2.770  0.0981 -0.4488  0.1225
  259MOL0     C34897  10.535   2.728   2.640 -0.1023  0.2841 -0.7055
  259MOL0     H34898  10.157   2.976   2.590 -2.6412 -1.1685 -1.0667
  259MOL0     H34899  10.026   3.157   2.520 -3.4651 -3.9189  0.1873
  259MOL0     H34900   9.784   3.393   2.828 -0.4495  0.6700 -0.0611
  259MOL0     H34901   9.941   3.468   2.850 -1.6093  1.9916  0.5397
  259MOL0     H34902   9.913   3.608   2.644 -1.4222 -0.0218 -0.4506
  259MOL0     H34903   9.796   3.651   2.773 -2.0897 -0.6534  1.0875
  259MOL0     H34904   9.631   3.491   2.656  1.5586 -0.5189  2.9983
  259MOL0     H34905   9.760   3.449   2.553 -1.3445 -0.5851  0.2222
  259MOL0     H34906   9.580   3.619   2.469 -1.2087  0.6442  1.3816
  259MOL0     H34907   9.637   3.735   2.586  0.9485 -0.6331  1.9100
  259MOL0     H34908   9.849   3.758   2.487 -0.5416  0.4484 -0.6197
  259MOL0     H34909   9.836   3.601   2.412  0.1310  0.0422  1.9409
  259MOL0     H34910   9.665   3.695   2.251 -0.5976  0.5490  1.4123
  259MOL0     H34911   9.733   3.857   2.296  0.0799 -0.6116  2.6976
  259MOL0     H34912   9.852   3.761   2.089 -0.9610  1.1630  0.0862
  259MOL0     H34913   9.875   3.609   2.178 -2.6639  0.2103 -0.9305
  259MOL0     H34914  10.004   3.875   2.276 -2.5677  0.7277 -0.1632
  259MOL0     H34915  10.021   3.713   2.326 -1.3282  1.3757  0.4524
  259MOL0     H34916  10.269   3.889   2.242 -0.5795 -1.5994  1.0055
  259MOL0     H34917  10.514   3.822   2.191  0.2994 -0.4531 -1.3060
  259MOL0     H34918  10.513   3.651   2.226  1.5295 -2.3011 -2.1650
  259MOL0     H34919  10.510   3.726   1.927  0.9880  0.6962 -1.5519
  259MOL0     H34920  10.655   3.758   2.031  0.2325 -0.7375 -1.8983
  259MOL0     H34921  10.509   3.488   2.006  0.7567  1.1061  0.7557
  259MOL0     H34922  10.656   3.516   2.080 -1.5846 -0.3623  1.9640
  259MOL0     H34923  10.585   3.567   1.785  0.3397  1.8421  0.8838
  259MOL0     H34924  10.682   3.429   1.839 -1.3296 -0.8689  1.2655
  259MOL0     H34925  11.014   3.728   1.830  1.1902  2.2464  3.0383
  259MOL0     H34926  11.213   3.666   1.936 -0.5528  2.0211 -0.2090
  259MOL0     H34927  11.261   3.263   2.395  0.8526  0.9933  0.6582
  259MOL0     H34928  11.449   3.205   2.540 -0.7911 -1.5951 -0.7311
  259MOL0     H34929  11.871   3.087   2.511  3.7567  1.6698  0.2803
  259MOL0     H34930  11.843   3.108   2.349  4.5294  0.1048  0.7807
  259MOL0     H34931  11.884   3.355   2.368 -0.7272 -2.2908 -1.0338
  259MOL0     H34932  11.953   3.331   2.524  0.5983 -1.0867  0.0803
  259MOL0     H34933  12.062   3.224   2.262 -0.3567  0.4210 -0.1948
  259MOL0     H34934  12.146   3.322   2.377  1.4974 -1.0170  0.9972
  259MOL0     H34935  12.078   3.029   2.426 -0.6670  0.1388 -0.2061
  259MOL0     H34936  12.127   3.128   2.547 -4.9675  0.8752 -0.7893
  259MOL0     H34937  12.348   3.165   2.462  2.7836  1.1811 -3.4896
  259MOL0     H34938  12.299   3.136   2.298 -0.4767 -0.7344 -0.1823
  259MOL0     H34939  12.275   2.935   2.517 -0.2039  0.8288 -0.2908
  259MOL0     H34940  12.295   2.894   2.344  1.1452 -2.5911  0.9144
  259MOL0     H34941  12.494   2.861   2.508  2.6583 -0.1001 -0.3164
  259MOL0     H34942  12.511   3.039   2.461 -0.0574  1.4194 -3.0215
  259MOL0     H34943  12.660   2.926   2.333 -0.2706  3.1799 -1.5811
  259MOL0     H34944  12.548   2.811   2.265  2.8972 -1.9067  2.8915
  259MOL0     H34945  11.728   3.280   2.230 -0.3100  4.2138 -3.0072
  259MOL0     H34946  11.539   3.362   2.084  2.9110 -2.7327  0.2752
  259MOL0     H34947  11.025   3.322   2.116 -2.7796  0.7666  0.9989
  259MOL0     H34948  10.814   3.384   2.008 -0.2469 -0.8626 -1.9169
  259MOL0     H34949   9.949   3.245   2.944  2.6686  2.3877  0.2687
  259MOL0     H34950  10.072   3.046   3.011  0.7266 -0.6499 -0.6630
  259MOL0     H34951  10.277   2.775   3.020  0.1323  0.6870 -0.7227
  259MOL0     H34952  10.355   2.568   3.116 -2.2845  1.6255 -0.8402
  259MOL0     H34953  10.708   2.378   2.913  0.6621 -0.4329  0.4233
  259MOL0     H34954  10.568   2.278   2.892 -2.7883  1.3990  1.4297
  259MOL0     H34955  10.612   2.205   3.133 -1.1901 -1.1175 -0.2739
  259MOL0     H34956  10.750   2.325   3.131 -3.1145  1.1104  1.8491
  259MOL0     H34957  10.870   2.112   3.089  1.5542 -3.0596 -2.5270
  259MOL0     H34958  10.834   2.182   2.925 -2.5344  1.3367 -0.0292
  259MOL0     H34959  10.694   1.959   3.065  3.7962 -0.1543  2.2172
  259MOL0     H34960  10.628   2.051   2.922  1.0461  0.5052 -0.3439
  259MOL0     H34961  10.842   1.728   2.777 -0.1118 -0.6497 -0.4467
  259MOL0     H34962  10.598   2.502   2.766 -0.5590 -2.7956  3.2142
  259MOL0     H34963  10.615   2.800   2.660 -0.3558  0.2704  0.4427
  259MOL0     H34964  10.576   2.642   2.587  0.9839  2.4491 -3.6244
  259MOL0     H34965  10.462   2.779   2.576 -0.3843 -1.4480 -1.8224
  260MOL0     O34966   5.999   6.704   5.385  0.1748 -0.3843 -0.0697
  260MOL0     C34967   6.018   6.598   5.341 -0.6414 -0.1860  0.4148
  260MOL0     O34968   6.126   6.568   5.256 -0.1112  0.6250  0.2668
  260MOL0     C34969   6.201   6.667   5.198  0.2552 -0.0764 -0.3010
  260MOL0     C34970   6.151   6.768   5.110 -0.2611  0.6888 -0.2588
  260MOL0     C34971   6.247   6.856   5.047 -0.3572 -0.2460  1.0422
  260MOL0     C34972   6.380   6.855   5.083 -0.1150  1.1504 -0.5572
  260MOL0     O34973   6.457   6.951   5.025 -0.0988 -0.8035  1.2770
  260MOL0     C34974   6.571   6.995   5.104  0.6957 -0.3596 -0.2262
  260MOL0     C34975   6.623   7.118   5.035  0.8382  0.9771  0.5062
  260MOL0     C34976   6.713   7.195   5.125  0.7762 -0.7719  0.1072
  260MOL0     C34977   6.814   7.107   5.208  0.5442 -0.1952  0.2858
  260MOL0     C34978   6.908   7.190   5.281  0.5074 -0.0095 -0.4701
  260MOL0     C34979   7.040   7.112   5.324 -0.5087 -0.3460  0.8616
  260MOL0     C34980   7.167   7.198   5.350 -0.3943  0.7036  0.5324
  260MOL0     C34981   7.130   7.284   5.474  1.1191  0.2636  0.2650
  260MOL0     N34982   7.242   7.352   5.539 -0.4157 -0.6110  0.5537
  260MOL0     C34983   7.269   7.487   5.514  0.3546  0.1541  0.4382
  260MOL0     C34984   7.331   7.528   5.632  0.5668  0.3072  0.3891
  260MOL0     C34985   7.351   7.668   5.664 -0.4974 -0.8534 -0.9533
  260MOL0     C34986   7.504   7.694   5.713  0.1006  0.4916  0.7411
  260MOL0     C34987   7.602   7.620   5.613  0.5451 -0.2702  0.1367
  260MOL0     C34988   7.737   7.699   5.611  0.4844  0.7615  1.0889
  260MOL0     O34989   7.806   7.655   5.726 -0.3839  0.3458  0.0375
  260MOL0     C34990   7.930   7.717   5.749  0.2983 -0.3871  0.2906
  260MOL0     C34991   7.963   7.847   5.715  1.2918 -0.3852 -0.9678
  260MOL0     C34992   8.092   7.899   5.743 -0.1274  0.0689 -0.2967
  260MOL0     C34993   8.195   7.814   5.793  0.1008 -0.5328 -0.1922
  260MOL0     C34994   8.332   7.863   5.821  0.2501  0.4370  0.4579
  260MOL0     O34995   8.337   7.991   5.772  0.0460 -0.4389  0.4758
  260MOL0     C34996   8.417   8.081   5.838 -0.1211  0.2903 -0.1531
  260MOL0     C34997   8.414   8.104   5.974  0.0949  0.0817  0.2475
  260MOL0     C34998   8.504   8.179   6.039  0.4922  0.7159 -0.2054
  260MOL0     C34999   8.616   8.234   5.969 -0.4907  0.7696 -0.4326
  260MOL0     O35000   8.716   8.305   6.035  0.5222  0.0731  0.0408
  260MOL0     C35001   8.667   8.434   6.083 -0.3212  0.3580 -0.3925
  260MOL0     C35002   8.778   8.513   6.153  1.2783 -0.1931  1.0627
  260MOL0     C35003   8.860   8.605   6.061 -0.5447  0.5713  0.0592
  260MOL0     C35004   8.973   8.681   6.130 -0.1704  0.0749  0.5749
  260MOL0     C35005   9.083   8.733   6.035 -0.1860  0.1532  0.7281
  260MOL0     C35006   9.200   8.803   6.124 -0.7203 -0.6204  0.1734
  260MOL0     C35007   9.288   8.723   6.219 -0.1437 -0.3574  0.0301
  260MOL0     C35008   9.350   8.592   6.160  0.1147 -0.4995 -0.4721
  260MOL0    Cl35009   9.437   8.529   6.298 -0.1462  0.1425 -0.4803
  260MOL0     C35010   8.634   8.203   5.832  0.5438  0.2221  0.1541
  260MOL0     C35011   8.524   8.130   5.773  0.6995  0.3411  0.3655
  260MOL0     O35012   8.408   7.808   5.892  0.7076  0.5293  0.3773
  260MOL0     C35013   8.163   7.679   5.826 -0.9522 -0.2551  0.4759
  260MOL0     C35014   8.029   7.637   5.810  0.0104 -0.5653  0.6952
  260MOL0     N35015   7.352   7.412   5.704 -1.0192  0.1002 -0.0214
  260MOL0     N35016   7.308   7.310   5.647  0.4342  0.3550 -0.2099
  260MOL0     C35017   6.423   6.767   5.180 -0.3176 -0.0722  0.0083
  260MOL0     C35018   6.335   6.671   5.233 -0.5215  0.0784 -0.0622
  260MOL0     C35019   5.945   6.485   5.410 -0.2564  0.3754  0.1522
  260MOL0     C35020   6.013   6.362   5.414  0.2304 -0.0901 -0.0347
  260MOL0     C35021   5.958   6.254   5.468 -0.1403  0.5888  1.1452
  260MOL0     C35022   5.827   6.254   5.509 -0.1405 -0.1337 -0.0164
  260MOL0     O35023   5.792   6.119   5.557 -0.6896  0.3267 -0.0090
  260MOL0     C35024   5.675   6.087   5.635  0.3648 -0.3451  0.5365
  260MOL0     C35025   5.709   6.088   5.786 -0.6077  1.2564  1.4942
  260MOL0     C35026   5.797   5.959   5.807  0.0717  0.3060 -0.0734
  260MOL0     C35027   5.921   5.970   5.897  0.3528 -0.9882  0.0391
  260MOL0     C35028   6.041   6.009   5.825 -0.5958 -0.3802 -0.1619
  260MOL0     C35029   6.143   6.050   5.775  0.0424  0.2718  0.6107
  260MOL0     C35030   5.753   6.377   5.508 -0.5252 -0.1218 -0.1144
  260MOL0     C35031   5.804   6.499   5.454 -0.0286  0.2357  0.6708
  260MOL0     C35032   5.720   6.620   5.454 -0.2527 -0.3616  0.1627
  260MOL0     H35033   6.043   6.769   5.099 -0.9138  0.5249  4.2247
  260MOL0     H35034   6.216   6.926   4.969 -0.8008 -1.3452  0.2083
  260MOL0     H35035   6.538   7.018   5.206 -0.0932 -2.3928  0.0263
  260MOL0     H35036   6.654   6.923   5.103  0.0365 -1.1788  0.8303
  260MOL0     H35037   6.538   7.181   5.006 -1.8738 -2.9672 -1.0150
  260MOL0     H35038   6.678   7.080   4.948 -1.4042 -1.1154 -0.1247
  260MOL0     H35039   6.675   7.266   5.199 -1.3039  0.5967 -2.1093
  260MOL0     H35040   6.766   7.263   5.057 -1.2393  2.0727  1.2187
  260MOL0     H35041   6.777   7.025   5.271  2.0499 -2.0629 -1.1404
  260MOL0     H35042   6.871   7.049   5.134  0.9119 -0.9269  1.1138
  260MOL0     H35043   6.938   7.270   5.212 -0.6900 -0.0255 -1.0382
  260MOL0     H35044   6.861   7.230   5.371 -0.6893 -3.0147  0.3413
  260MOL0     H35045   7.012   7.045   5.406 -0.7669 -1.0905  0.1796
  260MOL0     H35046   7.066   7.044   5.242 -2.6936  1.2190 -1.2606
  260MOL0     H35047   7.193   7.253   5.259 -1.2076 -0.4324 -0.4283
  260MOL0     H35048   7.252   7.135   5.379 -0.6724  0.0762 -0.0030
  260MOL0     H35049   7.059   7.363   5.444  2.1901  0.5816 -1.6157
  260MOL0     H35050   7.073   7.221   5.542 -0.2229  0.9526 -0.1637
  260MOL0     H35051   7.250   7.554   5.430  0.9466 -0.6575 -0.3608
  260MOL0     H35052   7.328   7.727   5.575 -0.3491  1.5343  0.4959
  260MOL0     H35053   7.287   7.690   5.750 -0.3801  1.2634 -1.3382
  260MOL0     H35054   7.507   7.803   5.711 -1.5049  0.6482 -3.3977
  260MOL0     H35055   7.533   7.649   5.808  1.6439 -0.3986 -0.1103
  260MOL0     H35056   7.568   7.641   5.511  1.4052  0.2049 -0.0604
  260MOL0     H35057   7.620   7.513   5.631  2.4602  0.2713  1.7936
  260MOL0     H35058   7.718   7.807   5.618 -3.0737  0.2657  0.9267
  260MOL0     H35059   7.791   7.673   5.520 -0.7748  0.3914  0.4159
  260MOL0     H35060   7.889   7.921   5.686  1.8400  0.1787 -0.9298
  260MOL0     H35061   8.111   8.004   5.723 -0.3381  0.4340  1.2810
  260MOL0     H35062   8.335   8.066   6.037  0.5842 -1.6610 -0.1416
  260MOL0     H35063   8.490   8.190   6.146 -2.0762  0.6149 -0.4628
  260MOL0     H35064   8.623   8.495   6.003  1.9173 -1.1227 -2.9445
  260MOL0     H35065   8.594   8.406   6.160  2.1241 -4.9662  0.4580
  260MOL0     H35066   8.738   8.566   6.240 -0.5943  0.5443 -0.1874
  260MOL0     H35067   8.847   8.438   6.193  1.3241 -1.2308 -0.8137
  260MOL0     H35068   8.910   8.551   5.979  0.6900 -1.2319  1.8974
  260MOL0     H35069   8.790   8.673   6.012 -0.8469 -1.4310 -2.5392
  260MOL0     H35070   9.016   8.628   6.216  2.1138  1.1062  0.1497
  260MOL0     H35071   8.916   8.767   6.167 -1.7716 -0.3258 -0.8036
  260MOL0     H35072   9.036   8.807   5.971  2.0091  0.7292 -0.3119
  260MOL0     H35073   9.115   8.650   5.971  2.5932  2.2885 -0.9069
  260MOL0     H35074   9.265   8.857   6.054 -2.9546  2.6080  0.3774
  260MOL0     H35075   9.154   8.887   6.176  2.0590  0.5217  0.9862
  260MOL0     H35076   9.232   8.699   6.310 -1.7752  2.2955 -0.1484
  260MOL0     H35077   9.370   8.788   6.251 -0.5745 -0.2217  0.8774
  260MOL0     H35078   9.267   8.528   6.129 -0.7904  1.8261 -3.2127
  260MOL0     H35079   9.409   8.607   6.069 -0.7245 -1.9992 -1.3115
  260MOL0     H35080   8.726   8.225   5.778  0.3347 -2.9647 -1.7626
  260MOL0     H35081   8.517   8.107   5.667  0.4239  2.0918 -0.0343
  260MOL0     H35082   8.235   7.603   5.855  0.3308  0.7400 -0.0379
  260MOL0     H35083   8.010   7.536   5.845  1.1704 -1.0611 -0.0518
  260MOL0     H35084   6.530   6.754   5.194  0.1144 -0.1234 -2.7071
  260MOL0     H35085   6.382   6.601   5.302  0.4629  2.4725  1.8280
  260MOL0     H35086   6.115   6.367   5.378  0.5533 -1.5610  0.6298
  260MOL0     H35087   6.012   6.160   5.463  0.3767  0.9252  0.1599
  260MOL0     H35088   5.633   5.991   5.602 -0.1454 -0.6977  2.1086
  260MOL0     H35089   5.609   6.172   5.612  0.7187 -0.6742 -1.9074
  260MOL0     H35090   5.620   6.079   5.849 -1.2756  1.4914  0.5878
  260MOL0     H35091   5.770   6.174   5.817  0.3189  1.4897 -0.7858
  260MOL0     H35092   5.838   5.912   5.717  1.1745 -0.7714  0.9505
  260MOL0     H35093   5.737   5.873   5.839  0.4533 -0.1260 -0.5138
  260MOL0     H35094   5.900   6.057   5.960  0.0715 -1.6574  0.8776
  260MOL0     H35095   5.931   5.876   5.951 -1.1893 -0.5260  1.1841
  260MOL0     H35096   6.234   6.091   5.735 -0.6168  1.2453  0.0669
  260MOL0     H35097   5.655   6.382   5.555 -0.2376  0.0929  0.4747
  260MOL0     H35098   5.621   6.586   5.424  0.8075 -3.1275 -0.5201
  260MOL0     H35099   5.708   6.662   5.555 -0.6572 -0.3538  0.1136
  260MOL0     H35100   5.753   6.692   5.378 -1.6732  0.3801  0.2110
  261MOL0     O35101  11.054   8.768   3.480  0.0875 -0.8096 -0.3293
  261MOL0     C35102  11.046   8.658   3.532 -0.1445  0.1678 -0.2212
  261MOL0     O35103  11.140   8.606   3.611  0.2875 -0.0752 -0.7702
  261MOL0     C35104  11.279   8.631   3.615 -0.8233  0.3785 -0.0819
  261MOL0     C35105  11.346   8.734   3.552  0.2346  0.1445  0.1234
  261MOL0     C35106  11.480   8.752   3.580  0.9809 -0.8251  0.2221
  261MOL0     C35107  11.547   8.678   3.670  0.0236 -0.1102 -0.9297
  261MOL0     O35108  11.678   8.691   3.693 -0.2933 -0.7968 -0.3799
  261MOL0     C35109  11.734   8.823   3.692  0.7630 -0.1924 -0.2622
  261MOL0     C35110  11.850   8.838   3.794 -0.3747  0.2155 -1.1215
  261MOL0     C35111  11.942   8.954   3.788  0.0502  0.0681 -0.6425
  261MOL0     C35112  11.982   8.999   3.649  0.8450  0.4447  0.4698
  261MOL0     C35113  12.103   9.091   3.644  0.2616  0.5468  0.5865
  261MOL0     C35114  12.079   9.223   3.715  0.0991  1.1561 -0.0310
  261MOL0     C35115  12.192   9.318   3.682 -0.5462 -0.0070 -0.3803
  261MOL0     C35116  12.185   9.456   3.744 -0.1604 -0.9454  0.1871
  261MOL0     N35117  12.302   9.543   3.738 -0.3288  0.3174 -0.0015
  261MOL0     C35118  12.426   9.523   3.786 -0.0826 -0.0627 -0.2677
  261MOL0     C35119  12.487   9.644   3.766 -0.9739  0.3617  0.2231
  261MOL0     C35120  12.628   9.667   3.793  1.0239 -0.8532 -0.4467
  261MOL0     C35121  12.731   9.577   3.716  0.0568 -0.2799  0.2428
  261MOL0     C35122  12.863   9.643   3.763 -0.0567  0.6063  0.0912
  261MOL0     C35123  12.903   9.780   3.703 -0.6756 -0.1821 -1.5227
  261MOL0     O35124  13.013   9.838   3.774  0.1877 -0.4765 -0.2088
  261MOL0     C35125  13.140   9.809   3.732 -0.5146  0.2345 -0.1471
  261MOL0     C35126  13.175   9.778   3.597  0.4134 -0.1382 -0.2885
  261MOL0     C35127  13.299   9.751   3.556  0.3064  0.0822  0.5532
  261MOL0     C35128  13.399   9.739   3.655 -0.9823 -0.0487  1.3038
  261MOL0     C35129  13.535   9.705   3.619 -0.8861  0.5536  0.2081
  261MOL0     O35130  13.559   9.678   3.493 -0.8342 -0.1521  0.5475
  261MOL0     C35131  13.675   9.642   3.439  0.0944 -0.4492 -0.1502
  261MOL0     C35132  13.747   9.526   3.479 -0.4732 -1.0177 -0.1093
  261MOL0     C35133  13.873   9.491   3.420  0.5762 -0.4462 -0.0724
  261MOL0     C35134  13.912   9.580   3.322 -0.5242 -0.0447 -0.2864
  261MOL0     O35135  14.033   9.562   3.264  0.6204 -0.3444  0.5603
  261MOL0     C35136  14.132   9.665   3.288  0.2782 -0.4636 -1.0831
  261MOL0     C35137  14.238   9.611   3.395 -0.2695  0.9947  0.4735
  261MOL0     C35138  14.310   9.483   3.346  0.4746  0.2078 -0.5155
  261MOL0     C35139  14.453   9.483   3.410 -0.5458  0.3709  0.3137
  261MOL0     C35140  14.515   9.339   3.409 -0.0392  0.3197  0.2209
  261MOL0     C35141  14.513   9.250   3.282 -0.3070 -0.5495  0.0559
  261MOL0     C35142  14.600   9.308   3.171 -0.0781 -0.3571  0.2657
  261MOL0     C35143  14.619   9.213   3.060  0.2569  0.5211 -0.7430
  261MOL0    Cl35144  14.734   9.301   2.947 -0.2024 -0.1037  0.0709
  261MOL0     C35145  13.835   9.687   3.277  0.0345  0.1901  0.4729
  261MOL0     C35146  13.717   9.730   3.337  0.2137  0.4321  0.3505
  261MOL0     O35147  13.620   9.686   3.704 -0.0856  0.5408 -0.8641
  261MOL0     C35148  13.374   9.774   3.786 -1.1342  0.3111 -0.0291
  261MOL0     C35149  13.244   9.812   3.821 -0.5111  0.4216  0.0211
  261MOL0     N35150  12.402   9.719   3.687  0.1475  0.1899 -0.3173
  261MOL0     N35151  12.279   9.666   3.694 -0.6346 -0.3757  0.0803
  261MOL0     C35152  11.488   8.564   3.728 -0.0729  0.3467  0.2427
  261MOL0     C35153  11.345   8.543   3.702 -0.7846  0.3380  0.3607
  261MOL0     C35154  10.921   8.582   3.528  0.1546  0.6403 -0.5172
  261MOL0     C35155  10.883   8.500   3.636  0.1531 -0.4966 -0.0714
  261MOL0     C35156  10.748   8.448   3.648 -0.8565 -0.1721  0.5991
  261MOL0     C35157  10.652   8.480   3.557 -0.2398 -0.1244 -1.0766
  261MOL0     O35158  10.516   8.447   3.568 -0.5182 -0.0307 -0.5095
  261MOL0     C35159  10.449   8.516   3.676  0.2513 -0.4319 -0.2603
  261MOL0     C35160  10.311   8.468   3.712 -0.2806 -0.4661  0.3407
  261MOL0     C35161  10.306   8.335   3.799 -0.7615  0.0577  0.0051
  261MOL0     C35162  10.431   8.246   3.776 -0.2722  0.7668  0.6924
  261MOL0     C35163  10.428   8.183   3.647  0.5175  0.7222  0.0952
  261MOL0     C35164  10.405   8.137   3.534 -0.2406 -0.4303  0.4347
  261MOL0     C35165  10.690   8.553   3.448 -0.6654 -0.8757  0.1099
  261MOL0     C35166  10.819   8.604   3.429  0.0545 -0.2276  0.3967
  261MOL0     C35167  10.840   8.698   3.298  0.2004  0.4902 -0.9660
  261MOL0     H35168  11.303   8.793   3.472 -1.1762  0.0804  0.7966
  261MOL0     H35169  11.537   8.830   3.530  2.3676 -3.3836 -2.5276
  261MOL0     H35170  11.780   8.825   3.593  0.3449 -0.1535 -0.4573
  261MOL0     H35171  11.668   8.908   3.708  1.9499  0.6222  0.4192
  261MOL0     H35172  11.900   8.743   3.771 -3.9987 -1.2826 -3.6848
  261MOL0     H35173  11.815   8.828   3.897  2.3860 -0.4062 -0.1561
  261MOL0     H35174  12.037   8.923   3.832  0.4488  0.3161 -1.3016
  261MOL0     H35175  11.895   9.027   3.854 -0.3875 -0.8422  0.0690
  261MOL0     H35176  12.010   8.919   3.580  0.5797  0.8614 -0.1391
  261MOL0     H35177  11.904   9.060   3.602  0.2314 -0.7370 -0.0777
  261MOL0     H35178  12.193   9.037   3.675 -2.3181 -4.4597  0.3815
  261MOL0     H35179  12.123   9.103   3.537  0.5020 -2.1564  0.2423
  261MOL0     H35180  11.984   9.273   3.693 -1.0743 -1.0448 -0.2760
  261MOL0     H35181  12.090   9.190   3.819 -0.0561 -0.4152 -0.4924
  261MOL0     H35182  12.183   9.329   3.573 -3.5370  1.4745 -0.0844
  261MOL0     H35183  12.285   9.267   3.709 -0.5703 -1.0601 -2.0787
  261MOL0     H35184  12.100   9.511   3.702  0.1730  0.8276  1.6662
  261MOL0     H35185  12.156   9.458   3.850  0.1307  3.2574  0.3531
  261MOL0     H35186  12.459   9.431   3.833 -2.4221 -0.0804  1.5394
  261MOL0     H35187  12.636   9.774   3.772  0.5705 -0.5534  0.8510
  261MOL0     H35188  12.661   9.674   3.897  0.2707 -0.3092 -0.2432
  261MOL0     H35189  12.734   9.475   3.753  0.4232 -0.2194  0.3959
  261MOL0     H35190  12.711   9.555   3.611 -4.1447  0.7698  0.6656
  261MOL0     H35191  12.946   9.579   3.731  0.4040  0.2183  1.9047
  261MOL0     H35192  12.866   9.642   3.873 -0.4176 -2.8227  0.1878
  261MOL0     H35193  12.821   9.850   3.718  0.7271  1.2614 -0.2685
  261MOL0     H35194  12.919   9.777   3.594  1.9671  0.0094 -1.2199
  261MOL0     H35195  13.101   9.766   3.518 -0.3771 -1.9007  0.6528
  261MOL0     H35196  13.314   9.722   3.453  1.6644  0.4422  0.6314
  261MOL0     H35197  13.701   9.473   3.562 -0.3511 -1.6275 -0.4293
  261MOL0     H35198  13.935   9.411   3.458  0.3280 -0.6772 -0.1500
  261MOL0     H35199  14.190   9.688   3.198  1.6115  0.0279 -0.1312
  261MOL0     H35200  14.088   9.759   3.320 -3.0609 -2.2901  0.1554
  261MOL0     H35201  14.313   9.689   3.406  2.2477 -1.4795  2.2589
  261MOL0     H35202  14.184   9.601   3.490  0.3133 -0.0388  0.7089
  261MOL0     H35203  14.253   9.395   3.377  1.7618 -0.4100  0.2188
  261MOL0     H35204  14.320   9.477   3.237  1.5528 -1.0076 -0.3699
  261MOL0     H35205  14.457   9.507   3.516 -0.8654 -0.1015  0.4352
  261MOL0     H35206  14.504   9.557   3.347 -2.1849  1.6444  0.3856
  261MOL0     H35207  14.466   9.284   3.489  1.9831  1.1868  2.1736
  261MOL0     H35208  14.620   9.346   3.441  0.1590 -0.6656 -0.1815
  261MOL0     H35209  14.551   9.148   3.296  0.6096 -0.2248 -0.0207
  261MOL0     H35210  14.408   9.245   3.253 -0.1972  0.9701 -0.6999
  261MOL0     H35211  14.699   9.332   3.210  0.1562 -0.3384 -0.3329
  261MOL0     H35212  14.553   9.403   3.143  1.8004  1.6569  3.3815
  261MOL0     H35213  14.661   9.116   3.090 -0.0660  0.2543 -1.1459
  261MOL0     H35214  14.520   9.187   3.022 -0.1590  1.1160 -0.0849
  261MOL0     H35215  13.866   9.749   3.194 -1.4684  1.1877  0.6264
  261MOL0     H35216  13.661   9.812   3.295 -0.3503  0.2624  0.7655
  261MOL0     H35217  13.448   9.771   3.865 -1.7414 -2.0446  0.5240
  261MOL0     H35218  13.223   9.839   3.924 -0.0295 -3.1732  1.2059
  261MOL0     H35219  11.549   8.510   3.800 -1.3630 -0.5480  0.6913
  261MOL0     H35220  11.282   8.464   3.742 -1.8272  1.2013  0.4726
  261MOL0     H35221  10.951   8.486   3.720  0.0196 -0.3283  0.0660
  261MOL0     H35222  10.723   8.392   3.737  2.5171  1.1502  2.5828
  261MOL0     H35223  10.440   8.623   3.651  1.7901 -0.4460 -1.0274
  261MOL0     H35224  10.514   8.515   3.764  1.7949 -0.3009 -1.3498
  261MOL0     H35225  10.263   8.440   3.617 -2.0631 -0.2667  1.1489
  261MOL0     H35226  10.252   8.546   3.760  1.1803 -0.4881  2.2426
  261MOL0     H35227  10.220   8.274   3.774 -0.1353 -0.9057  0.1487
  261MOL0     H35228  10.314   8.358   3.906  0.2535 -2.0303  0.4273
  261MOL0     H35229  10.528   8.295   3.790  1.3115 -1.5723 -1.2593
  261MOL0     H35230  10.439   8.164   3.849 -1.7155  2.1405  2.4959
  261MOL0     H35231  10.404   8.097   3.435  1.4298 -0.6293  0.4774
  261MOL0     H35232  10.608   8.582   3.382 -1.7893 -1.4458  1.2142
  261MOL0     H35233  10.768   8.663   3.224 -0.8999 -1.1650  0.7764
  261MOL0     H35234  10.818   8.799   3.334  1.2983  0.3570  0.1986
  261MOL0     H35235  10.939   8.686   3.254  1.1256  0.9828  0.8557
  262MOL0     O35236   6.419   7.264  11.255  0.3723 -0.2598 -0.2555
  262MOL0     C35237   6.423   7.382  11.219  0.5563  0.3164 -0.5750
  262MOL0     O35238   6.527   7.442  11.169  0.1765  0.0412 -0.1871
  262MOL0     C35239   6.647   7.377  11.163 -0.0036 -0.3012 -0.2691
  262MOL0     C35240   6.721   7.369  11.048  0.1079  0.3549  0.3678
  262MOL0     C35241   6.836   7.296  11.029 -0.7592 -0.1647  0.5984
  262MOL0     C35242   6.903   7.245  11.143 -0.0432 -0.4799  0.2471
  262MOL0     O35243   7.014   7.173  11.137  0.0249  0.2516  0.4722
  262MOL0     C35244   7.099   7.208  11.026 -0.8666 -0.0218 -0.1680
  262MOL0     C35245   7.246   7.156  11.058  0.1703 -0.2526  0.0041
  262MOL0     C35246   7.356   7.223  10.973 -0.2775 -0.6055  0.1527
  262MOL0     C35247   7.488   7.148  10.979  1.2527  0.8818  0.7947
  262MOL0     C35248   7.614   7.210  10.917  0.3331  0.1261  0.5104
  262MOL0     C35249   7.734   7.118  10.917 -0.2652 -0.1503 -0.2609
  262MOL0     C35250   7.784   7.071  11.058 -0.5677  0.6929 -0.4178
  262MOL0     C35251   7.824   6.926  11.053 -0.8083  0.1246  0.2572
  262MOL0     N35252   7.965   6.907  11.007 -0.6050 -0.4604  0.5766
  262MOL0     C35253   8.082   6.924  11.082  0.7487 -0.1762 -1.0169
  262MOL0     C35254   8.181   6.867  11.022 -0.5187  0.0672 -0.2370
  262MOL0     C35255   8.328   6.853  11.073 -1.1763  0.2900  0.3449
  262MOL0     C35256   8.426   6.819  10.959 -0.1171  1.3866  0.2008
  262MOL0     C35257   8.563   6.806  11.026  0.7619 -0.7737  1.5351
  262MOL0     C35258   8.677   6.795  10.911  1.0689  0.1875 -0.9013
  262MOL0     O35259   8.800   6.753  10.969  0.2151 -0.2763  0.4253
  262MOL0     C35260   8.923   6.760  10.904  0.1766 -0.5349  0.5048
  262MOL0     C35261   9.039   6.721  10.970  0.2929 -0.1929  0.4613
  262MOL0     C35262   9.156   6.709  10.899 -0.7539  0.8715  0.1604
  262MOL0     C35263   9.163   6.734  10.760  0.6338 -0.4820  0.1030
  262MOL0     C35264   9.292   6.718  10.683  1.0913 -0.0463 -1.1072
  262MOL0     O35265   9.320   6.804  10.585 -0.3858 -0.3923 -0.2106
  262MOL0     C35266   9.448   6.828  10.532 -0.4420  0.7708 -0.2976
  262MOL0     C35267   9.461   6.953  10.477 -0.0562 -0.3672 -0.3577
  262MOL0     C35268   9.576   6.999  10.421 -0.3383  0.2009 -0.4262
  262MOL0     C35269   9.689   6.918  10.409  0.2676 -0.6005  0.0936
  262MOL0     O35270   9.805   6.964  10.355 -0.3321  0.8132  0.3389
  262MOL0     C35271   9.933   6.888  10.349 -0.4882  0.0594  0.2179
  262MOL0     C35272  10.046   6.978  10.318 -0.0245 -0.3098 -0.2507
  262MOL0     C35273  10.177   6.906  10.307 -0.6301  0.4306 -0.6185
  262MOL0     C35274  10.307   6.983  10.303  0.6499  0.4832 -0.3046
  262MOL0     C35275  10.308   7.114  10.227 -0.8013 -0.0841 -0.5067
  262MOL0     C35276  10.451   7.167  10.212  0.4898  0.0683 -0.7335
  262MOL0     C35277  10.464   7.264  10.093 -0.2841  0.8995  0.2937
  262MOL0     C35278  10.479   7.207   9.954 -0.2958 -0.0713 -0.4417
  262MOL0    Cl35279  10.569   7.333   9.859  0.4283  0.4739 -0.3177
  262MOL0     C35280   9.684   6.786  10.465  0.4533 -0.5506  0.5497
  262MOL0     C35281   9.560   6.744  10.526 -0.5588 -0.4812  0.2569
  262MOL0     O35282   9.366   6.631  10.722 -0.4071  0.1918 -0.0895
  262MOL0     C35283   9.049   6.790  10.698  0.1037 -0.0028 -0.8856
  262MOL0     C35284   8.936   6.810  10.776  0.4780  0.2958  0.4282
  262MOL0     N35285   8.130   6.807  10.908 -0.5219 -0.0746 -0.8006
  262MOL0     N35286   8.002   6.826  10.909 -0.3515  0.8057 -0.1356
  262MOL0     C35287   6.837   7.256  11.265 -0.7866  0.0895 -0.1581
  262MOL0     C35288   6.707   7.312  11.272  0.2229 -0.5669 -0.3060
  262MOL0     C35289   6.295   7.455  11.211  0.1111  0.1588  0.4434
  262MOL0     C35290   6.273   7.532  11.100  0.9875 -0.4460  0.9495
  262MOL0     C35291   6.168   7.632  11.093  0.4074 -0.6233  0.3862
  262MOL0     C35292   6.069   7.632  11.196 -0.6701  0.4193 -0.5183
  262MOL0     O35293   5.968   7.719  11.197 -0.0588  0.0356  0.0620
  262MOL0     C35294   5.883   7.726  11.082  0.1857 -0.2531  0.0102
  262MOL0     C35295   5.765   7.637  11.099  0.7592  0.2848  0.7693
  262MOL0     C35296   5.686   7.663  10.972 -0.4116 -0.1110  0.6439
  262MOL0     C35297   5.578   7.570  10.962  0.4096  0.5153  0.5751
  262MOL0     C35298   5.476   7.586  11.062 -1.1714 -0.4122 -0.6788
  262MOL0     C35299   5.382   7.607  11.140 -0.5181  0.0794  0.6133
  262MOL0     C35300   6.084   7.549  11.307 -0.4280 -0.1535  1.1048
  262MOL0     C35301   6.199   7.452  11.320 -0.3202 -0.3391  0.0094
  262MOL0     C35302   6.222   7.380  11.452  0.8518 -0.7105  1.0507
  262MOL0     H35303   6.674   7.416  10.962  1.7214 -1.0124 -1.3420
  262MOL0     H35304   6.887   7.314  10.935  0.7435  1.4296  1.6631
  262MOL0     H35305   7.075   7.153  10.934  0.8779 -1.1882  0.0264
  262MOL0     H35306   7.102   7.314  11.000  2.5029 -0.1161 -0.5617
  262MOL0     H35307   7.248   7.047  11.051 -0.0364 -0.5757  3.2941
  262MOL0     H35308   7.268   7.196  11.158 -1.8338  1.9638 -0.3664
  262MOL0     H35309   7.380   7.322  11.013 -1.1717  0.9017 -2.7495
  262MOL0     H35310   7.324   7.229  10.868 -0.7756  0.6452  0.3619
  262MOL0     H35311   7.494   7.124  11.086 -1.1287 -4.5057  0.0460
  262MOL0     H35312   7.470   7.051  10.931  0.9031 -0.0695  2.7381
  262MOL0     H35313   7.595   7.237  10.813  0.1908 -0.2574  0.4345
  262MOL0     H35314   7.630   7.306  10.968  0.5009  0.0952  0.5150
  262MOL0     H35315   7.708   7.034  10.852 -0.3288  0.3665 -0.9215
  262MOL0     H35316   7.814   7.159  10.856 -0.9895  1.5432 -0.1281
  262MOL0     H35317   7.716   7.092  11.141 -1.5054  0.7997 -1.1972
  262MOL0     H35318   7.877   7.125  11.074 -0.3000  0.3895 -0.9120
  262MOL0     H35319   7.828   6.893  11.158 -0.0630 -0.6330  0.0022
  262MOL0     H35320   7.752   6.859  11.005  1.2439 -1.2066 -1.1082
  262MOL0     H35321   8.091   6.972  11.179  0.2567 -0.4566 -0.8254
  262MOL0     H35322   8.368   6.944  11.119  0.0754 -0.3036  0.4428
  262MOL0     H35323   8.328   6.773  11.148  1.7902  1.5739  1.8593
  262MOL0     H35324   8.396   6.723  10.916  0.0411  2.5221 -2.6623
  262MOL0     H35325   8.442   6.891  10.878  1.1736  1.2084  0.2676
  262MOL0     H35326   8.571   6.713  11.083  2.6096 -1.4901  0.1906
  262MOL0     H35327   8.587   6.900  11.078  0.9268  0.2112 -0.2452
  262MOL0     H35328   8.676   6.891  10.859 -0.2796  0.6273 -0.1102
  262MOL0     H35329   8.646   6.718  10.840 -0.5193 -3.0859  2.9110
  262MOL0     H35330   9.034   6.670  11.066  1.2697  0.2777  0.7797
  262MOL0     H35331   9.243   6.662  10.944 -0.7533 -0.0812 -0.7813
  262MOL0     H35332   9.375   7.019  10.482  0.1038 -0.2438  1.2481
  262MOL0     H35333   9.573   7.100  10.381 -2.4329 -0.4039 -1.9190
  262MOL0     H35334   9.965   6.827  10.434 -1.0055 -2.1480 -1.0794
  262MOL0     H35335   9.927   6.827  10.259  0.7835  0.8604 -0.4386
  262MOL0     H35336  10.023   7.037  10.228  0.0034  2.0064  1.1679
  262MOL0     H35337  10.056   7.056  10.394  1.0033  0.4217 -1.1084
  262MOL0     H35338  10.180   6.841  10.395 -1.6897  1.1400 -0.0403
  262MOL0     H35339  10.175   6.848  10.214 -1.8042 -2.1191  0.8817
  262MOL0     H35340  10.386   6.918  10.263 -0.6920 -1.7590  0.5496
  262MOL0     H35341  10.337   7.004  10.406  1.7507 -2.3041  0.0235
  262MOL0     H35342  10.248   7.185  10.284  0.7436  0.0263  1.0608
  262MOL0     H35343  10.264   7.110  10.127 -1.4913  0.9495 -0.2615
  262MOL0     H35344  10.473   7.232  10.297 -3.1324  1.8784 -0.9443
  262MOL0     H35345  10.520   7.084  10.199 -2.2992 -2.6281  0.3989
  262MOL0     H35346  10.548   7.330  10.117 -1.2751  2.8905 -1.4205
  262MOL0     H35347  10.381   7.335  10.090 -2.4314 -1.4525  0.6233
  262MOL0     H35348  10.533   7.113   9.969 -0.9349 -0.5889 -1.3007
  262MOL0     H35349  10.381   7.177   9.914 -1.1709  1.1667  0.6840
  262MOL0     H35350   9.763   6.713  10.452  0.9341  0.3554 -2.3698
  262MOL0     H35351   9.556   6.637  10.547 -0.4632 -0.2069  1.7529
  262MOL0     H35352   9.055   6.817  10.593  0.8149 -0.7771 -1.0463
  262MOL0     H35353   8.848   6.844  10.723  0.2761  0.0592  0.6112
  262MOL0     H35354   6.883   7.203  11.348  2.4641  2.5539 -0.1703
  262MOL0     H35355   6.659   7.295  11.368  0.3770 -5.3614 -0.8147
  262MOL0     H35356   6.348   7.529  11.021 -0.4909 -1.0148 -0.4785
  262MOL0     H35357   6.160   7.691  11.003  1.2187 -2.1268 -0.7352
  262MOL0     H35358   5.950   7.695  11.002  4.2775  2.1022  2.1724
  262MOL0     H35359   5.857   7.832  11.068  0.7074 -0.1305 -0.0592
  262MOL0     H35360   5.720   7.668  11.194  1.7342 -0.7910  1.6072
  262MOL0     H35361   5.788   7.531  11.105 -1.5027 -0.2311  0.9366
  262MOL0     H35362   5.743   7.647  10.880  0.8608  0.9846  1.1938
  262MOL0     H35363   5.655   7.768  10.967 -1.5473 -0.4677 -0.4255
  262MOL0     H35364   5.527   7.579  10.865  0.2812 -0.1040  0.5820
  262MOL0     H35365   5.615   7.467  10.957  1.0146  0.7972 -1.7664
  262MOL0     H35366   5.289   7.627  11.189 -2.0624 -0.2162 -1.9823
  262MOL0     H35367   6.006   7.549  11.383  1.3861 -1.5717  3.0945
  262MOL0     H35368   6.229   7.273  11.432 -1.6924 -0.8955  0.8909
  262MOL0     H35369   6.312   7.426  11.495  0.4050  0.4009  0.8298
  262MOL0     H35370   6.132   7.401  11.510  1.5194 -0.1919  1.9217
  263MOL0     O35371   1.686   9.763  10.968 -0.0279 -0.6749  0.1314
  263MOL0     C35372   1.664   9.734  10.848 -0.1466 -0.3819 -0.1249
  263MOL0     O35373   1.765   9.710  10.763 -0.0832 -0.4452 -0.1965
  263MOL0     C35374   1.898   9.713  10.807  0.6635 -0.1588  0.2051
  263MOL0     C35375   1.968   9.841  10.821 -0.9985  0.3132 -1.2439
  263MOL0     C35376   2.107   9.840  10.835 -0.3148 -0.5013 -0.1750
  263MOL0     C35377   2.183   9.728  10.820  0.1655 -0.3730  0.3087
  263MOL0     O35378   2.322   9.748  10.836  0.5302  0.1143 -0.0810
  263MOL0     C35379   2.396   9.633  10.870  0.0805  0.6956  0.2744
  263MOL0     C35380   2.542   9.673  10.901 -0.3123  0.4212  0.2417
  263MOL0     C35381   2.618   9.537  10.908  0.3228 -0.3138  0.8077
  263MOL0     C35382   2.770   9.545  10.913 -0.0083 -0.2240  0.3482
  263MOL0     C35383   2.828   9.562  10.772 -1.0361 -0.7498  0.0022
  263MOL0     C35384   2.980   9.590  10.777 -0.3422  0.9395 -0.9093
  263MOL0     C35385   3.016   9.719  10.858  0.2001  0.4906  0.0722
  263MOL0     C35386   3.137   9.791  10.776 -0.6940  0.2355 -0.2702
  263MOL0     N35387   3.280   9.746  10.791  0.3468 -0.0967  0.1119
  263MOL0     C35388   3.322   9.624  10.818 -0.7772 -0.4821 -0.2648
  263MOL0     C35389   3.458   9.632  10.808 -0.0375 -0.4768 -0.2239
  263MOL0     C35390   3.558   9.525  10.842  0.4618  0.1764  0.0115
  263MOL0     C35391   3.560   9.495  10.998  0.3620  0.0992  0.3691
  263MOL0     C35392   3.639   9.358  11.020 -0.0546 -1.0546  1.0285
  263MOL0     C35393   3.598   9.231  10.942  0.5887 -0.8827 -0.7737
  263MOL0     O35394   3.644   9.214  10.808 -0.0429  0.0649 -0.1396
  263MOL0     C35395   3.777   9.177  10.789 -0.1951 -0.4710 -0.4212
  263MOL0     C35396   3.813   9.173  10.662  0.0112 -0.4716  0.4122
  263MOL0     C35397   3.941   9.139  10.617 -0.0068  0.1489 -0.2201
  263MOL0     C35398   4.039   9.112  10.717 -0.1002 -0.3821  0.3223
  263MOL0     C35399   4.182   9.079  10.678  0.4691 -0.0765 -1.0702
  263MOL0     O35400   4.269   9.062  10.783  0.3619  0.3623 -0.5699
  263MOL0     C35401   4.404   9.057  10.760 -0.2224  0.5064 -0.3034
  263MOL0     C35402   4.465   9.163  10.693 -1.0059  0.0501 -0.5489
  263MOL0     C35403   4.608   9.176  10.686 -0.2904 -0.5033 -0.7921
  263MOL0     C35404   4.688   9.066  10.729 -0.0494 -0.3076 -0.3308
  263MOL0     O35405   4.824   9.059  10.688 -0.0707  0.0255 -0.8011
  263MOL0     C35406   4.877   9.153  10.590 -0.0676  0.7739  0.2520
  263MOL0     C35407   5.027   9.124  10.566  0.4228 -0.5974 -0.2914
  263MOL0     C35408   5.050   9.014  10.470 -0.5725 -0.4862 -0.0934
  263MOL0     C35409   5.195   8.995  10.441 -0.6568  1.0075  0.6180
  263MOL0     C35410   5.209   8.845  10.391 -0.1921  0.8526 -0.3016
  263MOL0     C35411   5.208   8.749  10.507  0.0765  0.5153  0.5524
  263MOL0     C35412   5.232   8.597  10.470 -0.0283  0.2836 -0.5891
  263MOL0     C35413   5.127   8.499  10.531 -0.3639 -0.8498  0.5164
  263MOL0    Cl35414   5.175   8.471  10.703 -0.2466 -0.7778  0.0411
  263MOL0     C35415   4.624   8.958  10.788 -0.0735 -0.6457  0.3217
  263MOL0     C35416   4.486   8.956  10.811 -0.9642 -0.3060  0.3466
  263MOL0     O35417   4.213   9.078  10.561  0.6278  0.1327 -0.3182
  263MOL0     C35418   4.008   9.128  10.846  0.8941  0.6281 -0.0224
  263MOL0     C35419   3.875   9.150  10.885 -0.1399 -1.3400  0.5045
  263MOL0     N35420   3.489   9.762  10.785 -0.7969 -0.0229 -0.3380
  263MOL0     N35421   3.388   9.833  10.779  0.7172 -0.0659 -1.1932
  263MOL0     C35422   2.115   9.605  10.799 -0.5548 -0.2498 -0.0425
  263MOL0     C35423   1.974   9.600  10.793 -0.1083  1.1299 -1.3487
  263MOL0     C35424   1.526   9.712  10.804  0.9789  0.1340  0.0722
  263MOL0     C35425   1.426   9.766  10.878  0.2250  0.5742 -0.5902
  263MOL0     C35426   1.292   9.738  10.849  0.4434 -0.9184  0.3395
  263MOL0     C35427   1.252   9.662  10.741 -0.3600 -0.2653 -0.5001
  263MOL0     O35428   1.112   9.650  10.716 -0.6464 -0.4137 -0.4965
  263MOL0     C35429   1.076   9.593  10.589  0.3890  0.3934 -0.3328
  263MOL0     C35430   0.928   9.570  10.591  0.5466 -0.1969 -0.4389
  263MOL0     C35431   0.853   9.702  10.600  0.2737 -0.2778  0.6356
  263MOL0     C35432   0.778   9.710  10.730  0.4852  0.8625 -0.1385
  263MOL0     C35433   0.854   9.752  10.846  0.8947 -0.2362  0.3939
  263MOL0     C35434   0.921   9.773  10.946  0.7644 -0.6818  0.7739
  263MOL0     C35435   1.353   9.624  10.654  0.2952 -0.0021 -0.4168
  263MOL0     C35436   1.482   9.626  10.689 -0.3717 -0.5075  0.2020
  263MOL0     C35437   1.565   9.519  10.627 -0.8914  0.0112 -0.1745
  263MOL0     H35438   1.915   9.934  10.832 -1.4671 -0.0161 -0.6411
  263MOL0     H35439   2.157   9.936  10.844 -1.4986  0.2159 -0.9549
  263MOL0     H35440   2.362   9.588  10.964 -0.2277 -0.2161 -0.2627
  263MOL0     H35441   2.394   9.546  10.803  1.3943 -1.3640  2.7578
  263MOL0     H35442   2.547   9.732  10.993 -1.6463 -0.0456  0.6306
  263MOL0     H35443   2.572   9.731  10.813 -0.7377 -0.4430 -0.4935
  263MOL0     H35444   2.584   9.482  10.820 -3.0602  0.9297  1.1902
  263MOL0     H35445   2.580   9.484  10.995 -0.9017  0.2085  0.6201
  263MOL0     H35446   2.807   9.613  10.991 -0.7519  0.9532 -0.2947
  263MOL0     H35447   2.809   9.450  10.951  2.1365  1.2502  2.1151
  263MOL0     H35448   2.818   9.469  10.716  1.4705 -2.1982  1.7463
  263MOL0     H35449   2.776   9.638  10.714  0.1707 -0.1167 -0.2819
  263MOL0     H35450   3.018   9.507  10.836 -0.6798 -0.9297 -3.1527
  263MOL0     H35451   3.024   9.590  10.677  2.2563 -1.1384  0.1367
  263MOL0     H35452   3.054   9.686  10.955 -2.4925 -0.1863  0.9820
  263MOL0     H35453   2.935   9.791  10.873  2.0903  3.6461 -3.0744
  263MOL0     H35454   3.104   9.781  10.673 -1.8539 -0.3383  0.1456
  263MOL0     H35455   3.129   9.898  10.798 -0.8243  0.8553 -2.9947
  263MOL0     H35456   3.263   9.536  10.843  1.1578 -1.4533  1.2299
  263MOL0     H35457   3.528   9.434  10.789 -2.0513 -1.9022  4.4586
  263MOL0     H35458   3.651   9.567  10.801  0.4875 -1.5745 -1.9209
  263MOL0     H35459   3.609   9.576  11.051 -0.3730  0.1736  0.9412
  263MOL0     H35460   3.458   9.479  11.034 -0.6537  0.8395 -1.9578
  263MOL0     H35461   3.613   9.334  11.124  0.0225  2.8877  2.1207
  263MOL0     H35462   3.747   9.375  11.015 -0.0508 -1.4680 -0.8394
  263MOL0     H35463   3.489   9.225  10.932 -0.0322  1.6197  2.6798
  263MOL0     H35464   3.616   9.145  11.007 -0.1890  1.8191  3.4662
  263MOL0     H35465   3.738   9.194  10.586  0.4120 -2.6298 -0.6668
  263MOL0     H35466   3.977   9.129  10.515  0.6703  0.6007 -0.0356
  263MOL0     H35467   4.398   9.232  10.642 -0.1618 -0.2862 -2.2146
  263MOL0     H35468   4.663   9.259  10.643  0.5641 -0.6366 -0.0014
  263MOL0     H35469   4.814   9.162  10.501 -1.7776  1.4986  1.4705
  263MOL0     H35470   4.870   9.246  10.647  0.4919  0.5899  0.6223
  263MOL0     H35471   5.076   9.214  10.530  0.4025 -0.5354 -0.1635
  263MOL0     H35472   5.064   9.087  10.662  2.6598 -1.8119 -1.5453
  263MOL0     H35473   5.001   8.928  10.516 -0.7576 -1.2694 -1.6826
  263MOL0     H35474   4.992   9.032  10.379 -1.6415 -0.7809  0.5164
  263MOL0     H35475   5.248   8.998  10.536  1.1390 -0.6688 -0.2766
  263MOL0     H35476   5.238   9.062  10.366  0.2270 -1.0223 -0.7543
  263MOL0     H35477   5.313   8.843  10.357  0.3440  3.8343  0.8283
  263MOL0     H35478   5.136   8.824  10.313 -0.4091  2.8308 -0.6930
  263MOL0     H35479   5.269   8.776  10.594 -1.6167  1.7978  1.4055
  263MOL0     H35480   5.106   8.763  10.545  0.4005  2.7930  0.7205
  263MOL0     H35481   5.332   8.566  10.502 -1.0082 -2.5656 -0.0583
  263MOL0     H35482   5.224   8.568  10.365 -1.2796 -4.7148  0.6335
  263MOL0     H35483   5.025   8.538  10.529 -0.2080 -0.2227  2.5886
  263MOL0     H35484   5.127   8.401  10.483 -1.1867 -1.9280  2.5571
  263MOL0     H35485   4.677   8.880  10.841 -1.2929 -1.6552  0.1056
  263MOL0     H35486   4.455   8.869  10.868 -1.3961  0.2254  0.9360
  263MOL0     H35487   4.081   9.127  10.927 -1.0702 -1.4777  1.8895
  263MOL0     H35488   3.842   9.162  10.987 -0.8485  0.8754  0.0653
  263MOL0     H35489   2.156   9.507  10.778  0.5295  0.1868 -0.0038
  263MOL0     H35490   1.927   9.506  10.767 -0.4016  0.2022  2.1131
  263MOL0     H35491   1.450   9.837  10.957 -0.8484  1.0886 -0.7022
  263MOL0     H35492   1.202   9.782  10.890  1.9321  0.8508  1.9103
  263MOL0     H35493   1.123   9.496  10.571  1.7186  0.6854  1.3241
  263MOL0     H35494   1.100   9.663  10.509  0.9011 -0.2778 -0.7800
  263MOL0     H35495   0.898   9.510  10.677 -1.0384  1.9784  0.6271
  263MOL0     H35496   0.905   9.522  10.496 -0.6876 -1.6235  0.5449
  263MOL0     H35497   0.787   9.703  10.513  1.9413 -0.2004 -0.6853
  263MOL0     H35498   0.921   9.787  10.589 -0.6951  0.4011 -0.2463
  263MOL0     H35499   0.695   9.780  10.718 -2.5069 -1.5817  3.9046
  263MOL0     H35500   0.721   9.622  10.760  1.4049 -0.5903 -2.3773
  263MOL0     H35501   0.979   9.834  11.012 -0.0220  4.2461 -2.4847
  263MOL0     H35502   1.323   9.552  10.578 -0.1542 -1.1607  0.8158
  263MOL0     H35503   1.608   9.447  10.697 -1.7295 -0.7574 -0.4257
  263MOL0     H35504   1.510   9.450  10.562 -0.4043 -2.1898  1.6447
  263MOL0     H35505   1.649   9.550  10.564 -0.7721  0.7133  0.3160
  264MOL0     O35506   1.527   5.259   5.275  0.3199  0.3970  0.3037
  264MOL0     C35507   1.529   5.262   5.397 -0.6085  1.0478  0.2373
  264MOL0     O35508   1.623   5.182   5.470 -0.2286 -0.6652  0.0821
  264MOL0     C35509   1.714   5.102   5.409 -0.7805  0.1664  0.0204
  264MOL0     C35510   1.678   4.984   5.345 -0.5417 -0.6462 -0.2031
  264MOL0     C35511   1.783   4.895   5.293 -0.3004  0.2320  0.2966
  264MOL0     C35512   1.913   4.918   5.329  0.1043  0.5137 -1.0723
  264MOL0     O35513   2.024   4.839   5.323 -0.8604 -0.3696 -0.1974
  264MOL0     C35514   2.017   4.722   5.240 -0.7463  0.2048  0.5390
  264MOL0     C35515   2.145   4.654   5.201  0.2720 -0.8782  0.6128
  264MOL0     C35516   2.250   4.658   5.315  0.4631 -0.2903  0.2730
  264MOL0     C35517   2.390   4.613   5.269 -0.1921  0.2606 -0.3835
  264MOL0     C35518   2.407   4.453   5.235  0.5070 -1.3209 -0.2237
  264MOL0     C35519   2.371   4.360   5.345 -0.3348 -0.9589  0.4673
  264MOL0     C35520   2.396   4.218   5.283 -0.4847 -1.0972 -0.4801
  264MOL0     C35521   2.366   4.116   5.390  0.9765  0.1608  0.2612
  264MOL0     N35522   2.229   4.124   5.438  0.0730  0.7382 -0.1012
  264MOL0     C35523   2.197   4.172   5.561 -1.0868 -0.0620  0.0543
  264MOL0     C35524   2.064   4.191   5.569  0.2111 -0.0137 -0.0704
  264MOL0     C35525   1.985   4.256   5.688  0.1572  0.5215 -0.3173
  264MOL0     C35526   2.038   4.394   5.724  0.0311 -0.2629 -0.4122
  264MOL0     C35527   1.983   4.497   5.635  0.1342  0.1557 -0.1653
  264MOL0     C35528   2.026   4.643   5.671  0.2101 -0.4444  0.0069
  264MOL0     O35529   1.971   4.705   5.792 -0.1896  0.6273  0.8721
  264MOL0     C35530   1.836   4.745   5.797  1.1824  0.1114 -0.4167
  264MOL0     C35531   1.754   4.758   5.682  0.1678  0.1010 -1.0449
  264MOL0     C35532   1.626   4.803   5.701  0.4295 -0.2771 -0.0297
  264MOL0     C35533   1.570   4.837   5.820  0.3418 -0.8582 -0.5854
  264MOL0     C35534   1.434   4.898   5.834 -0.0012  0.8928  0.3703
  264MOL0     O35535   1.362   4.890   5.956  0.1694 -0.5757  0.6803
  264MOL0     C35536   1.241   4.945   5.979 -0.1163 -0.4631  1.2636
  264MOL0     C35537   1.212   4.959   6.113  0.3691 -0.0385 -0.9450
  264MOL0     C35538   1.096   5.029   6.161  0.6216  0.0620 -0.4601
  264MOL0     C35539   1.000   5.069   6.073 -0.2490 -0.2350 -0.1464
  264MOL0     O35540   0.880   5.127   6.093 -0.8859  0.1339 -0.0025
  264MOL0     C35541   0.875   5.218   6.200 -0.0371  0.9014  0.8145
  264MOL0     C35542   0.741   5.258   6.228 -0.1650 -1.2905 -1.0663
  264MOL0     C35543   0.622   5.162   6.194 -0.9931  0.1384 -0.2860
  264MOL0     C35544   0.489   5.198   6.238 -0.6533  0.3383 -0.7759
  264MOL0     C35545   0.379   5.086   6.226 -0.0616 -0.7198 -0.4995
  264MOL0     C35546   0.405   4.957   6.302  0.1086  0.3650  0.2640
  264MOL0     C35547   0.265   4.882   6.314  0.4030 -0.4087  0.6306
  264MOL0     C35548   0.255   4.740   6.329 -0.2286  0.2575 -0.1385
  264MOL0    Cl35549   0.326   4.660   6.194 -0.3658  0.0365 -0.3307
  264MOL0     C35550   1.025   5.052   5.936  0.8717  0.9602 -0.5858
  264MOL0     C35551   1.141   4.989   5.891 -0.3644  0.6167 -0.2606
  264MOL0     O35552   1.394   4.954   5.735 -0.0556 -0.3897  0.3328
  264MOL0     C35553   1.653   4.825   5.931  0.6032  0.0004  0.5079
  264MOL0     C35554   1.784   4.780   5.921  0.2877 -0.7184  0.5072
  264MOL0     N35555   2.020   4.155   5.442  0.4774 -0.0326  0.2329
  264MOL0     N35556   2.114   4.122   5.368 -0.6136 -0.1855  0.9539
  264MOL0     C35557   1.939   5.030   5.400  0.0877 -0.2319  0.0574
  264MOL0     C35558   1.850   5.134   5.433 -0.1923  0.5121  0.7924
  264MOL0     C35559   1.410   5.325   5.466 -0.4391  0.0448 -0.3061
  264MOL0     C35560   1.372   5.271   5.585  1.0567  0.3494 -0.5978
  264MOL0     C35561   1.267   5.327   5.660  0.1355  0.2349 -0.9911
  264MOL0     C35562   1.195   5.429   5.614 -0.3380  0.3063  0.1477
  264MOL0     O35563   1.074   5.458   5.674  0.2882 -1.0013 -0.4145
  264MOL0     C35564   1.022   5.393   5.791 -0.0206 -0.9724  0.0424
  264MOL0     C35565   0.901   5.474   5.829  0.6503  0.2291 -0.5568
  264MOL0     C35566   0.794   5.482   5.717  0.0294  0.2343  0.8654
  264MOL0     C35567   0.674   5.573   5.755 -0.7804 -0.1864  0.3486
  264MOL0     C35568   0.601   5.523   5.873  0.2087  0.4031 -0.1672
  264MOL0     C35569   0.559   5.496   5.977  0.0045  0.2284 -0.4341
  264MOL0     C35570   1.220   5.478   5.486 -0.1890 -0.4041  0.6379
  264MOL0     C35571   1.323   5.426   5.413 -0.2334 -0.0590  0.0858
  264MOL0     C35572   1.331   5.475   5.274 -0.5417  0.3497  0.1479
  264MOL0     H35573   1.580   4.978   5.299 -0.9675  2.1125  0.1712
  264MOL0     H35574   1.756   4.804   5.241 -2.6515 -0.2265  2.1550
  264MOL0     H35575   1.956   4.651   5.296 -2.5993  1.2627 -0.0526
  264MOL0     H35576   1.964   4.742   5.147  0.0704 -1.6937 -0.3803
  264MOL0     H35577   2.187   4.699   5.110 -0.6606 -1.7326 -0.2806
  264MOL0     H35578   2.120   4.551   5.174  0.3267 -0.4964 -1.0080
  264MOL0     H35579   2.206   4.591   5.390 -1.9166 -1.6920 -2.1495
  264MOL0     H35580   2.242   4.758   5.358 -1.6541  0.2065 -1.1132
  264MOL0     H35581   2.424   4.666   5.180  0.2054  0.0110 -0.3821
  264MOL0     H35582   2.470   4.632   5.342  0.7065 -0.3820 -1.1661
  264MOL0     H35583   2.351   4.431   5.144 -1.6909  2.2384  0.0501
  264MOL0     H35584   2.514   4.435   5.220 -0.0216 -3.6206 -1.6743
  264MOL0     H35585   2.419   4.370   5.442 -1.9216  0.1191  1.1944
  264MOL0     H35586   2.269   4.378   5.381  0.0137 -2.5737  2.3947
  264MOL0     H35587   2.499   4.209   5.248  0.0327  1.3708  0.2174
  264MOL0     H35588   2.345   4.205   5.187  2.1920 -1.9321 -1.9005
  264MOL0     H35589   2.373   4.019   5.341  2.9773  0.7532 -0.7228
  264MOL0     H35590   2.441   4.105   5.469  0.2406 -1.6477  0.7533
  264MOL0     H35591   2.263   4.207   5.640 -0.9122  0.5517 -0.3603
  264MOL0     H35592   1.877   4.265   5.676  0.3568  5.0843 -0.2951
  264MOL0     H35593   1.985   4.184   5.771  2.8232  3.0848  2.1049
  264MOL0     H35594   2.007   4.413   5.828  0.5752  2.4305 -0.6663
  264MOL0     H35595   2.146   4.405   5.739 -0.5287  3.5759  2.7620
  264MOL0     H35596   1.874   4.489   5.627  0.1467  0.6255 -0.9689
  264MOL0     H35597   2.032   4.476   5.539  0.7734  2.3314 -0.3721
  264MOL0     H35598   2.033   4.714   5.588  1.6178  0.5975  0.9643
  264MOL0     H35599   2.134   4.641   5.691  0.6939 -0.9854 -2.4017
  264MOL0     H35600   1.790   4.740   5.581  1.6898 -2.6874 -0.1163
  264MOL0     H35601   1.567   4.817   5.610  1.1021  0.6873 -0.3346
  264MOL0     H35602   1.291   4.939   6.185 -0.7818  0.4851  0.5111
  264MOL0     H35603   1.078   5.031   6.268 -1.1946 -1.0321 -0.7122
  264MOL0     H35604   0.934   5.180   6.283  2.4910  0.9691 -0.8167
  264MOL0     H35605   0.928   5.311   6.175 -1.2593  1.7467  1.2735
  264MOL0     H35606   0.728   5.301   6.328  1.1121 -2.9695 -0.1325
  264MOL0     H35607   0.734   5.339   6.156  0.9763  1.3143  1.5647
  264MOL0     H35608   0.608   5.166   6.086 -3.9605 -0.9767 -0.0378
  264MOL0     H35609   0.649   5.059   6.221  2.2384  1.0463  0.5003
  264MOL0     H35610   0.460   5.289   6.184 -0.9523 -0.4254 -1.9578
  264MOL0     H35611   0.495   5.220   6.345 -2.5121 -0.3755 -0.4888
  264MOL0     H35612   0.370   5.056   6.121 -1.5543  0.2447 -0.6722
  264MOL0     H35613   0.282   5.127   6.256 -0.7784 -3.3804  1.1388
  264MOL0     H35614   0.467   4.898   6.233  1.3682  2.8243 -0.8163
  264MOL0     H35615   0.452   4.967   6.400 -0.9285  0.6195  0.7553
  264MOL0     H35616   0.193   4.916   6.239  1.7066  1.0214 -0.0188
  264MOL0     H35617   0.228   4.921   6.409  0.4926 -3.5345  2.0648
  264MOL0     H35618   0.310   4.731   6.423 -1.0801  3.7271  0.8438
  264MOL0     H35619   0.155   4.701   6.347  0.3524 -2.4829 -2.1750
  264MOL0     H35620   0.952   5.089   5.864  0.5625 -0.2749 -0.9315
  264MOL0     H35621   1.162   4.981   5.785 -0.1014  3.2658 -0.4668
  264MOL0     H35622   1.615   4.849   6.030  0.5182  2.0612  0.0231
  264MOL0     H35623   1.844   4.778   6.012 -0.4024 -1.4998  0.9696
  264MOL0     H35624   2.034   5.065   5.439 -0.3540  0.2777  0.7063
  264MOL0     H35625   1.886   5.227   5.474  0.3198  0.7970 -0.2753
  264MOL0     H35626   1.415   5.187   5.638 -0.2780  1.6325  2.7582
  264MOL0     H35627   1.236   5.273   5.749 -0.4828 -1.2513 -2.0575
  264MOL0     H35628   1.092   5.387   5.876 -3.0270 -1.2165  2.6865
  264MOL0     H35629   0.995   5.291   5.762  2.0861 -1.4263 -0.5427
  264MOL0     H35630   0.914   5.575   5.869 -3.7068  1.6490 -2.0622
  264MOL0     H35631   0.864   5.416   5.914  2.5113 -1.0092 -0.5399
  264MOL0     H35632   0.759   5.384   5.685 -0.3671  0.6246  0.0883
  264MOL0     H35633   0.844   5.527   5.631  1.3062 -1.3696  0.7185
  264MOL0     H35634   0.703   5.678   5.770  0.4345 -0.5148  0.3616
  264MOL0     H35635   0.600   5.569   5.675 -0.3591 -1.6947 -0.0058
  264MOL0     H35636   0.524   5.479   6.076  0.2123  0.3465 -0.3403
  264MOL0     H35637   1.162   5.560   5.447  0.5466  0.5275  1.4592
  264MOL0     H35638   1.257   5.554   5.254  2.0778  3.2465  1.0978
  264MOL0     H35639   1.428   5.520   5.252  1.0564 -3.5168 -1.5614
  264MOL0     H35640   1.326   5.400   5.195  0.7498  0.7180 -0.3205
  265MOL0     O35641   8.772   3.243   4.248 -0.4530 -0.0785  1.0366
  265MOL0     C35642   8.729   3.135   4.212 -0.3860  0.9179 -0.2400
  265MOL0     O35643   8.802   3.020   4.197 -0.0720 -0.1773  0.4469
  265MOL0     C35644   8.934   3.037   4.228  0.0637  0.8511 -0.2582
  265MOL0     C35645   8.970   3.056   4.366  1.5672 -0.0964 -0.3558
  265MOL0     C35646   9.102   3.054   4.414 -0.7133 -0.4145 -0.0031
  265MOL0     C35647   9.207   3.023   4.320  1.3290 -0.9234  0.5159
  265MOL0     O35648   9.337   3.017   4.344 -0.3327 -0.4709  0.0403
  265MOL0     C35649   9.379   3.070   4.479 -1.1192 -0.0010 -0.8823
  265MOL0     C35650   9.532   3.068   4.466 -0.0854  0.2952 -1.0188
  265MOL0     C35651   9.606   3.151   4.571 -0.0914 -0.7194 -0.0801
  265MOL0     C35652   9.596   3.298   4.527 -0.3045  1.3911  0.0575
  265MOL0     C35653   9.648   3.402   4.634  0.8703 -0.0866  0.0841
  265MOL0     C35654   9.780   3.373   4.695  0.7260  0.8255  0.4983
  265MOL0     C35655   9.891   3.386   4.589  0.1361  0.8945 -0.7108
  265MOL0     C35656  10.026   3.389   4.657  0.4562  0.3771  0.3944
  265MOL0     N35657  10.124   3.439   4.558  0.5363 -0.8036 -0.2491
  265MOL0     C35658  10.199   3.548   4.580 -0.4439  1.2298 -0.2972
  265MOL0     C35659  10.291   3.543   4.472 -0.1942  0.1725  0.4475
  265MOL0     C35660  10.408   3.627   4.450  0.3442  0.2326 -0.3981
  265MOL0     C35661  10.424   3.667   4.309  0.4125 -0.6950  0.1176
  265MOL0     C35662  10.548   3.761   4.286  0.0030  0.7921 -0.7515
  265MOL0     C35663  10.574   3.796   4.137  0.7399  0.1923  0.2933
  265MOL0     O35664  10.487   3.909   4.111 -0.3273  0.3126  0.1390
  265MOL0     C35665  10.485   3.989   3.998 -0.1759  0.9064  0.0201
  265MOL0     C35666  10.585   3.989   3.902  0.4033 -0.5124  0.4207
  265MOL0     C35667  10.584   4.077   3.798 -0.3782 -0.2003 -0.1221
  265MOL0     C35668  10.477   4.171   3.775 -0.0769 -0.2980 -0.4469
  265MOL0     C35669  10.474   4.272   3.658 -0.8041  0.3008 -0.2020
  265MOL0     O35670  10.594   4.284   3.593  0.3363  0.4803  1.2378
  265MOL0     C35671  10.608   4.357   3.471 -0.7469 -0.5015  0.4238
  265MOL0     C35672  10.516   4.448   3.431  0.3666  0.3229  0.4179
  265MOL0     C35673  10.539   4.512   3.306  0.6628 -0.0607  0.4955
  265MOL0     C35674  10.653   4.498   3.234  0.3354 -0.2111 -0.0151
  265MOL0     O35675  10.677   4.570   3.117  0.3203  0.2924  0.2362
  265MOL0     C35676  10.732   4.696   3.129  0.2034  0.4763  0.9270
  265MOL0     C35677  10.738   4.754   2.989 -0.2543 -0.0673  0.3271
  265MOL0     C35678  10.810   4.664   2.887  0.3567 -0.6440 -0.6393
  265MOL0     C35679  10.835   4.738   2.749  0.4618  0.1943  0.2104
  265MOL0     C35680  10.856   4.639   2.628 -0.4270 -0.5160 -0.7263
  265MOL0     C35681  10.983   4.554   2.644 -0.9882 -0.1748  0.2495
  265MOL0     C35682  11.115   4.629   2.681  0.2072  0.4338  0.7276
  265MOL0     C35683  11.236   4.537   2.679  0.7036  0.2886  0.3369
  265MOL0    Cl35684  11.279   4.456   2.524  0.6109 -0.1898  0.3699
  265MOL0     C35685  10.753   4.415   3.285 -0.1073 -0.4397  0.1453
  265MOL0     C35686  10.731   4.343   3.401 -0.0202  0.0091 -0.8378
  265MOL0     O35687  10.371   4.337   3.644  0.0304 -0.7978 -0.2535
  265MOL0     C35688  10.382   4.170   3.878  0.1187 -0.2572 -0.2221
  265MOL0     C35689  10.387   4.084   3.987 -0.0541  0.7624  0.4363
  265MOL0     N35690  10.252   3.440   4.388 -0.0093  0.3256 -0.3588
  265MOL0     N35691  10.147   3.381   4.439  0.1693  0.3399  0.5515
  265MOL0     C35692   9.171   2.987   4.191  0.5747 -0.2291  0.2954
  265MOL0     C35693   9.040   3.002   4.142 -0.6300  0.3407  0.1887
  265MOL0     C35694   8.587   3.131   4.165 -0.9253 -0.0645 -0.6880
  265MOL0     C35695   8.559   3.036   4.069  0.1499 -0.2015 -0.2197
  265MOL0     C35696   8.429   3.029   4.010 -0.6576  0.1232 -0.0637
  265MOL0     C35697   8.335   3.126   4.037  0.3182  0.0048 -0.2311
  265MOL0     O35698   8.209   3.117   3.983 -0.3230  0.7000 -0.2187
  265MOL0     C35699   8.100   3.187   4.032  0.1230 -0.2783 -0.2682
  265MOL0     C35700   7.966   3.136   3.977  0.0913  0.6810  0.2109
  265MOL0     C35701   7.935   2.999   4.034  0.2464 -0.3046 -0.3886
  265MOL0     C35702   7.795   2.937   3.993 -0.1625 -0.0166  0.0194
  265MOL0     C35703   7.678   3.020   4.041 -0.3960  1.1757 -0.6224
  265MOL0     C35704   7.587   3.079   4.105 -0.3258  0.0117 -0.8359
  265MOL0     C35705   8.371   3.222   4.140  0.1206 -0.5782  0.5561
  265MOL0     C35706   8.497   3.237   4.192 -0.3742 -0.7209  0.4327
  265MOL0     C35707   8.525   3.353   4.288  0.0323  0.6618  0.7967
  265MOL0     H35708   8.894   3.086   4.437  1.5153  2.4543 -1.4003
  265MOL0     H35709   9.128   3.092   4.512 -2.8200 -1.4903  1.0161
  265MOL0     H35710   9.340   3.169   4.505 -0.1989  0.7663 -2.3110
  265MOL0     H35711   9.365   3.001   4.563  1.1705  0.2628 -0.2226
  265MOL0     H35712   9.567   3.091   4.365  0.5353  0.3616 -0.7993
  265MOL0     H35713   9.562   2.963   4.476 -0.4492  0.1298 -1.6505
  265MOL0     H35714   9.709   3.113   4.573  0.4964  0.7119 -1.0727
  265MOL0     H35715   9.560   3.140   4.669  2.8748 -2.3101  1.2470
  265MOL0     H35716   9.665   3.305   4.443 -1.3208  1.5553 -0.7874
  265MOL0     H35717   9.490   3.319   4.512 -1.0952  0.0233  3.0048
  265MOL0     H35718   9.649   3.504   4.594 -3.2464  0.0035 -0.1806
  265MOL0     H35719   9.579   3.399   4.718  1.0733 -1.4463  0.2341
  265MOL0     H35720   9.804   3.439   4.779 -1.0524 -0.4527  2.0919
  265MOL0     H35721   9.782   3.275   4.743 -1.4316  0.6087  0.2576
  265MOL0     H35722   9.872   3.481   4.538 -2.0969  1.1127  0.3882
  265MOL0     H35723   9.883   3.305   4.515  2.3812  1.1920 -1.3585
  265MOL0     H35724  10.026   3.440   4.754  1.0188  0.5311  0.3186
  265MOL0     H35725  10.034   3.285   4.688 -1.6844 -0.1344 -0.5667
  265MOL0     H35726  10.199   3.625   4.657 -0.8415  1.4905 -0.5568
  265MOL0     H35727  10.410   3.721   4.507  3.0890  0.9292 -1.4642
  265MOL0     H35728  10.500   3.581   4.485 -2.6581 -2.7617  4.6733
  265MOL0     H35729  10.428   3.576   4.249  2.3809  0.0694 -0.9896
  265MOL0     H35730  10.338   3.728   4.279  0.7985  0.3102  0.9864
  265MOL0     H35731  10.646   3.723   4.315  0.1054  1.2794 -0.4452
  265MOL0     H35732  10.537   3.852   4.345 -1.2347  0.3936 -0.3289
  265MOL0     H35733  10.542   3.707   4.083 -0.1613 -0.0931  1.2667
  265MOL0     H35734  10.679   3.814   4.113  0.9501 -2.2298 -0.8406
  265MOL0     H35735  10.669   3.921   3.897  1.8655  1.2348  0.2270
  265MOL0     H35736  10.665   4.074   3.725  1.4625 -1.8446  1.8590
  265MOL0     H35737  10.432   4.477   3.494 -0.0052 -2.4133  1.3166
  265MOL0     H35738  10.471   4.592   3.279  3.5131  1.5602 -2.7067
  265MOL0     H35739  10.673   4.762   3.193 -2.3543 -0.2868 -0.5078
  265MOL0     H35740  10.831   4.677   3.171  0.5681  0.8246  0.2432
  265MOL0     H35741  10.635   4.770   2.955  0.0528  0.8522 -0.2097
  265MOL0     H35742  10.799   4.843   3.001  3.5992 -2.6719  1.8954
  265MOL0     H35743  10.912   4.648   2.924  1.3801  1.7419 -2.1633
  265MOL0     H35744  10.750   4.575   2.868 -0.8002  0.4090 -2.2030
  265MOL0     H35745  10.909   4.818   2.760 -3.2177  4.0146 -0.2464
  265MOL0     H35746  10.744   4.792   2.719 -0.3757 -0.6466  1.1477
  265MOL0     H35747  10.870   4.699   2.538  0.3330 -0.6352 -0.6995
  265MOL0     H35748  10.766   4.583   2.603  0.2233 -0.9461 -2.2415
  265MOL0     H35749  10.969   4.469   2.711  0.2282 -2.3454 -2.0648
  265MOL0     H35750  10.995   4.512   2.544  0.9996  0.7799  0.0421
  265MOL0     H35751  11.110   4.671   2.781  3.2862 -1.5230  1.8602
  265MOL0     H35752  11.125   4.709   2.607 -1.1618  0.5598  0.6692
  265MOL0     H35753  11.326   4.593   2.704  1.3728 -0.2910 -0.6645
  265MOL0     H35754  11.214   4.458   2.751  1.4076 -0.9153 -0.7219
  265MOL0     H35755  10.847   4.412   3.230 -1.1911 -2.1482 -1.7922
  265MOL0     H35756  10.792   4.264   3.444 -2.1354 -1.2960 -0.0424
  265MOL0     H35757  10.298   4.238   3.868  0.0444  0.0696  2.0271
  265MOL0     H35758  10.316   4.100   4.067  4.0610 -0.0916  4.6963
  265MOL0     H35759   9.248   2.954   4.122  0.6179  1.0149 -0.2676
  265MOL0     H35760   9.013   2.963   4.045 -0.5577  3.2343 -1.0918
  265MOL0     H35761   8.634   2.958   4.054 -2.2808 -2.7182 -0.1295
  265MOL0     H35762   8.409   2.957   3.932  0.3178 -1.7586  1.3338
  265MOL0     H35763   8.112   3.292   4.005  1.0713 -0.5588 -0.9692
  265MOL0     H35764   8.093   3.188   4.141 -0.3698  0.0007 -0.2990
  265MOL0     H35765   7.979   3.120   3.870  0.4947 -0.2938  0.3862
  265MOL0     H35766   7.885   3.207   3.996  1.4055  1.6108  2.9544
  265MOL0     H35767   7.924   3.003   4.143 -2.2496 -4.4427 -0.2731
  265MOL0     H35768   8.013   2.923   4.024 -0.0512 -0.8577  1.1599
  265MOL0     H35769   7.782   2.945   3.884 -0.7909  1.7005  0.1956
  265MOL0     H35770   7.802   2.832   4.023 -0.5136 -0.6188 -1.8304
  265MOL0     H35771   7.510   3.135   4.154  0.2365  0.3627 -0.3438
  265MOL0     H35772   8.293   3.289   4.176 -1.5547 -1.9222 -0.4542
  265MOL0     H35773   8.429   3.404   4.288 -0.4618 -0.1983 -0.9323
  265MOL0     H35774   8.548   3.314   4.388 -0.0307 -0.3215  0.4438
  265MOL0     H35775   8.610   3.414   4.255 -2.4971  2.6848 -2.5441
  266MOL0     O35776   4.619  11.366   8.490 -0.0318 -0.5567  0.3336
  266MOL0     C35777   4.704  11.416   8.411  0.2393  0.2025  0.2353
  266MOL0     O35778   4.668  11.490   8.300  0.0160 -0.0697 -0.4361
  266MOL0     C35779   4.542  11.526   8.280  0.7879  0.3898  0.0085
  266MOL0     C35780   4.507  11.668   8.255  1.1071 -0.2401  0.3807
  266MOL0     C35781   4.383  11.696   8.207 -0.3749 -0.4713 -0.4505
  266MOL0     C35782   4.280  11.600   8.190 -1.1852 -0.1279  0.1311
  266MOL0     O35783   4.158  11.651   8.142  0.4896 -0.1093  0.4547
  266MOL0     C35784   4.044  11.563   8.147 -0.1070 -1.1640  0.2111
  266MOL0     C35785   3.904  11.638   8.168 -0.5473  0.2609 -0.2374
  266MOL0     C35786   3.885  11.677   8.311 -0.1350 -0.3684 -0.3855
  266MOL0     C35787   3.977  11.796   8.353 -0.7412  0.0806 -0.4007
  266MOL0     C35788   3.933  11.840   8.495 -0.5070 -0.6026 -0.5311
  266MOL0     C35789   4.006  11.963   8.525 -0.5999  0.5292  0.1458
  266MOL0     C35790   4.148  11.950   8.579 -0.5937 -0.4870  0.4480
  266MOL0     C35791   4.195  12.088   8.626 -0.3593  0.4695  0.4946
  266MOL0     N35792   4.296  12.076   8.727  0.1518 -0.2079 -0.4262
  266MOL0     C35793   4.422  12.140   8.748  0.3231 -0.4752  0.3790
  266MOL0     C35794   4.466  12.105   8.872  0.4385 -0.1761 -0.5742
  266MOL0     C35795   4.595  12.146   8.942 -0.4384 -0.0961  0.4697
  266MOL0     C35796   4.735  12.091   8.874  0.6293 -0.5933 -0.2045
  266MOL0     C35797   4.767  12.171   8.749  0.4224  1.2878 -0.8117
  266MOL0     C35798   4.912  12.156   8.700  0.0529  0.4640  0.6216
  266MOL0     O35799   5.018  12.174   8.801  0.1065 -0.4744 -0.7554
  266MOL0     C35800   5.137  12.225   8.767 -0.0969 -0.4227  0.2323
  266MOL0     C35801   5.217  12.260   8.881 -0.2125  0.8188  0.4167
  266MOL0     C35802   5.343  12.308   8.865 -0.1898  0.4005 -0.5267
  266MOL0     C35803   5.383  12.346   8.735 -1.1918  0.4618 -1.1917
  266MOL0     C35804   5.509  12.422   8.714 -1.0330 -0.1962 -0.3690
  266MOL0     O35805   5.512  12.513   8.615 -0.3596 -0.4545 -0.8930
  266MOL0     C35806   5.626  12.587   8.595  0.4946 -0.0450 -0.4337
  266MOL0     C35807   5.644  12.706   8.675 -0.8195 -0.8119  1.0004
  266MOL0     C35808   5.752  12.787   8.647  0.0496  0.0629 -0.0475
  266MOL0     C35809   5.852  12.747   8.558 -0.2494 -1.0057  0.2374
  266MOL0     O35810   5.956  12.832   8.543 -0.2896 -0.2382  1.0090
  266MOL0     C35811   6.090  12.776   8.540 -0.2037  0.0215  0.7899
  266MOL0     C35812   6.192  12.895   8.526 -0.0350  0.9317  0.1527
  266MOL0     C35813   6.335  12.838   8.521  0.3695 -0.0044  0.0412
  266MOL0     C35814   6.435  12.933   8.471 -0.6360 -0.6423 -0.4150
  266MOL0     C35815   6.575  12.865   8.468 -0.3865  0.0959 -0.2570
  266MOL0     C35816   6.668  12.952   8.391 -0.6405 -0.7213 -0.7379
  266MOL0     C35817   6.813  12.899   8.398  0.1576 -0.5446  0.4171
  266MOL0     C35818   6.896  13.016   8.352  0.1306 -0.2242  0.2486
  266MOL0    Cl35819   6.876  13.045   8.171 -0.0428 -0.0572 -0.0905
  266MOL0     C35820   5.837  12.632   8.482  0.2382 -0.1855  0.2859
  266MOL0     C35821   5.718  12.553   8.505 -0.2237 -0.3250  0.4040
  266MOL0     O35822   5.601  12.406   8.803  0.1466  0.4805  0.8184
  266MOL0     C35823   5.306  12.327   8.624 -0.9344  0.0605 -1.1241
  266MOL0     C35824   5.182  12.260   8.640 -0.5662 -0.1828 -0.0228
  266MOL0     N35825   4.370  12.041   8.944 -1.0355 -0.4093 -0.2140
  266MOL0     N35826   4.270  12.029   8.854  0.0286 -0.2871 -0.4721
  266MOL0     C35827   4.312  11.467   8.217  0.8439  0.2565 -0.3145
  266MOL0     C35828   4.438  11.433   8.255  0.2115  0.2716  0.0574
  266MOL0     C35829   4.847  11.396   8.433  0.6903  0.2177 -0.3468
  266MOL0     C35830   4.933  11.387   8.322  0.7582 -0.0071  0.3578
  266MOL0     C35831   5.066  11.345   8.334 -0.5863 -0.8504 -0.3752
  266MOL0     C35832   5.121  11.318   8.464  0.3303  0.2681  0.1497
  266MOL0     O35833   5.248  11.276   8.497 -0.0947  0.2914 -0.0999
  266MOL0     C35834   5.328  11.244   8.384 -0.1481 -0.0376  0.1570
  266MOL0     C35835   5.410  11.360   8.328 -0.5631 -0.4114  0.1912
  266MOL0     C35836   5.558  11.336   8.297 -0.4967  0.3319 -0.2003
  266MOL0     C35837   5.630  11.470   8.284  0.3124  0.2987 -0.4426
  266MOL0     C35838   5.657  11.553   8.405  0.6682 -0.5213  1.0096
  266MOL0     C35839   5.688  11.612   8.510 -0.7840  1.2360 -0.1389
  266MOL0     C35840   5.029  11.323   8.567 -0.1589 -0.5462 -0.3826
  266MOL0     C35841   4.900  11.371   8.564 -0.4695 -0.4198  0.8075
  266MOL0     C35842   4.831  11.375   8.691 -0.6383  0.0039 -0.5724
  266MOL0     H35843   4.581  11.744   8.279  0.8389 -1.0785  4.6609
  266MOL0     H35844   4.366  11.802   8.191 -1.7151 -0.7017 -0.7107
  266MOL0     H35845   4.030  11.501   8.059 -2.1377  0.0785 -0.4162
  266MOL0     H35846   4.050  11.497   8.234 -0.7166 -1.7121 -0.1584
  266MOL0     H35847   3.823  11.580   8.123  0.4952 -0.6560 -0.9826
  266MOL0     H35848   3.906  11.727   8.104  2.5203  0.6702  0.2846
  266MOL0     H35849   3.899  11.583   8.364 -0.9293 -1.2222 -1.6082
  266MOL0     H35850   3.777  11.692   8.320  0.1014  1.3486 -0.0538
  266MOL0     H35851   4.085  11.783   8.361 -0.6101  2.0058  2.3999
  266MOL0     H35852   3.971  11.882   8.286 -1.6801  1.4770  1.3742
  266MOL0     H35853   3.826  11.863   8.493 -0.6828 -1.1383  1.0610
  266MOL0     H35854   3.957  11.768   8.574  1.7449  2.3723  1.7482
  266MOL0     H35855   4.006  12.031   8.439 -1.3688 -0.5343 -0.7193
  266MOL0     H35856   3.941  12.014   8.596 -1.6759 -1.6332  0.7903
  266MOL0     H35857   4.219  11.909   8.506  0.3041  0.7209  0.5950
  266MOL0     H35858   4.139  11.879   8.661  1.3380 -0.0881  1.0683
  266MOL0     H35859   4.226  12.149   8.541 -3.2998  1.2605 -0.1297
  266MOL0     H35860   4.114  12.143   8.675  0.2398  2.7404 -0.9471
  266MOL0     H35861   4.469  12.219   8.689 -2.6635  0.7075 -0.6212
  266MOL0     H35862   4.600  12.255   8.945 -0.8135 -0.0601 -0.1049
  266MOL0     H35863   4.588  12.101   9.041 -1.0662 -2.4059 -0.5405
  266MOL0     H35864   4.815  12.103   8.948  1.2454 -1.5557 -0.6870
  266MOL0     H35865   4.736  11.983   8.857 -1.3120 -0.4552 -1.5464
  266MOL0     H35866   4.750  12.275   8.776 -0.6477  0.6539  1.1302
  266MOL0     H35867   4.696  12.144   8.670  1.0032 -0.7291 -0.7181
  266MOL0     H35868   4.917  12.233   8.623 -2.3771  1.7957  1.6836
  266MOL0     H35869   4.930  12.056   8.658  0.6948  1.1836 -0.8647
  266MOL0     H35870   5.180  12.228   8.977  1.0698 -1.6542  0.1603
  266MOL0     H35871   5.409  12.328   8.949  1.0718  2.6572 -1.9571
  266MOL0     H35872   5.565  12.734   8.743 -0.8618 -1.4161  1.2039
  266MOL0     H35873   5.765  12.884   8.694  1.2250 -1.2227  2.4300
  266MOL0     H35874   6.098  12.719   8.633 -0.8663  2.5494  2.5212
  266MOL0     H35875   6.095  12.711   8.453 -0.3437 -0.1783  0.9317
  266MOL0     H35876   6.165  12.945   8.433 -0.3972  0.0611 -0.2216
  266MOL0     H35877   6.180  12.964   8.610 -0.2500  0.3257  0.6333
  266MOL0     H35878   6.360  12.809   8.624  2.0212  0.7046 -0.1251
  266MOL0     H35879   6.333  12.747   8.462 -0.9635 -0.4162  0.6956
  266MOL0     H35880   6.445  13.015   8.542 -0.1010 -2.0799  1.2362
  266MOL0     H35881   6.412  12.973   8.372 -2.0040  0.9486  0.4859
  266MOL0     H35882   6.569  12.769   8.415 -1.5376 -0.4464  0.7952
  266MOL0     H35883   6.614  12.842   8.567 -2.1632 -0.3393  0.3860
  266MOL0     H35884   6.622  12.957   8.291 -3.1879 -1.4373  0.2934
  266MOL0     H35885   6.671  13.047   8.444  0.0575 -0.5006 -1.1657
  266MOL0     H35886   6.826  12.812   8.332  0.0124  0.3596 -0.8502
  266MOL0     H35887   6.856  12.879   8.497  2.8547  3.3028  0.2302
  266MOL0     H35888   6.874  13.109   8.405  0.6834 -0.4199  0.8394
  266MOL0     H35889   6.997  12.979   8.370  0.8989  1.2787 -0.7728
  266MOL0     H35890   5.907  12.587   8.412  2.0201  0.0070  1.8571
  266MOL0     H35891   5.704  12.458   8.454 -0.6313  0.4996 -1.1102
  266MOL0     H35892   5.348  12.365   8.532  2.2850  2.0017  0.9362
  266MOL0     H35893   5.130  12.243   8.546 -1.0594  0.4097  0.1303
  266MOL0     H35894   4.233  11.396   8.196  0.5331 -0.0883  1.8095
  266MOL0     H35895   4.452  11.327   8.273 -0.3255  0.1306 -0.3463
  266MOL0     H35896   4.897  11.403   8.221  1.0847 -3.9776 -0.5640
  266MOL0     H35897   5.114  11.345   8.237 -1.9087  0.8137 -1.0839
  266MOL0     H35898   5.267  11.195   8.308  0.4577 -2.7423  1.2888
  266MOL0     H35899   5.393  11.157   8.399 -0.2730 -1.1435 -4.2411
  266MOL0     H35900   5.401  11.449   8.391 -3.2421 -0.3675 -0.1338
  266MOL0     H35901   5.364  11.385   8.232 -1.1385 -1.6242  0.1381
  266MOL0     H35902   5.560  11.295   8.195 -0.7838  2.5500 -1.1621
  266MOL0     H35903   5.605  11.270   8.370 -0.6733  0.2462 -0.1644
  266MOL0     H35904   5.729  11.439   8.250 -0.1239 -0.3995 -1.1114
  266MOL0     H35905   5.574  11.527   8.209 -0.4774  0.3955  0.2037
  266MOL0     H35906   5.723  11.669   8.594  1.3605 -0.0656 -0.0581
  266MOL0     H35907   5.057  11.308   8.671 -3.1577 -0.8779  0.4603
  266MOL0     H35908   4.905  11.375   8.773  0.2976 -1.9308 -1.3459
  266MOL0     H35909   4.776  11.468   8.708  1.8411  1.6524 -0.9344
  266MOL0     H35910   4.761  11.295   8.714  1.7044 -1.3302  2.8672
  267MOL0     O35911   2.660   6.446   7.302  0.2148 -0.1210  0.2848
  267MOL0     C35912   2.635   6.527   7.202 -0.5163 -0.3418 -0.0007
  267MOL0     O35913   2.729   6.561   7.105  0.1630 -0.7307  0.3143
  267MOL0     C35914   2.857   6.514   7.126  0.4182 -0.4366 -0.3957
  267MOL0     C35915   2.908   6.393   7.083  0.3767 -0.0472 -0.1245
  267MOL0     C35916   3.041   6.360   7.101 -0.4238 -1.3285  0.7757
  267MOL0     C35917   3.130   6.453   7.154 -0.1928 -0.8770 -0.2116
  267MOL0     O35918   3.255   6.416   7.178 -0.7747 -0.0348 -0.3326
  267MOL0     C35919   3.357   6.520   7.187 -0.2375  0.1492  0.0215
  267MOL0     C35920   3.491   6.450   7.154  0.1857  0.7963 -0.0607
  267MOL0     C35921   3.598   6.556   7.148 -0.1472  0.2528  0.3061
  267MOL0     C35922   3.732   6.502   7.116 -0.3373  0.3347  0.5403
  267MOL0     C35923   3.850   6.563   7.199  0.1360 -0.9109  1.0546
  267MOL0     C35924   3.839   6.522   7.353 -0.9014 -0.5128 -0.1927
  267MOL0     C35925   3.965   6.578   7.431  0.1206  0.0128 -0.9264
  267MOL0     C35926   3.961   6.732   7.427 -0.5205  0.6191  0.0625
  267MOL0     N35927   4.082   6.768   7.500  0.3546  0.0783 -0.2973
  267MOL0     C35928   4.216   6.761   7.469  1.1354 -1.0847 -0.8237
  267MOL0     C35929   4.276   6.821   7.578 -0.8081  0.9304  0.3224
  267MOL0     C35930   4.425   6.852   7.594 -0.3398  0.6445  0.6514
  267MOL0     C35931   4.447   6.995   7.649  0.5804  0.2634 -0.4862
  267MOL0     C35932   4.592   7.044   7.649 -0.2635 -0.3255  0.5913
  267MOL0     C35933   4.610   7.139   7.764 -0.1117 -0.3872 -0.6993
  267MOL0     O35934   4.620   7.273   7.722 -0.0984  0.2355  0.5547
  267MOL0     C35935   4.738   7.320   7.666  0.0949  0.2681 -0.2181
  267MOL0     C35936   4.764   7.454   7.651  0.2979 -0.4004 -0.1896
  267MOL0     C35937   4.891   7.501   7.638  0.8246 -0.0447  0.3870
  267MOL0     C35938   5.000   7.421   7.613  0.1017 -0.1682  0.2228
  267MOL0     C35939   5.137   7.473   7.595 -0.0524  0.3080  0.2688
  267MOL0     O35940   5.152   7.601   7.624 -0.0023  0.7036  0.1480
  267MOL0     C35941   5.279   7.651   7.620  1.0161  0.3678  0.4314
  267MOL0     C35942   5.388   7.585   7.677  0.2609 -0.2598 -0.5921
  267MOL0     C35943   5.516   7.632   7.682  1.2131 -0.7579 -0.2453
  267MOL0     C35944   5.542   7.750   7.606 -0.1301 -0.2329  0.5359
  267MOL0     O35945   5.675   7.791   7.607  0.0695  0.0160 -0.3239
  267MOL0     C35946   5.701   7.920   7.550 -0.5868 -0.8271  0.2917
  267MOL0     C35947   5.848   7.951   7.567 -0.3809  0.0841  0.2888
  267MOL0     C35948   5.885   8.100   7.538  0.0215  0.3050  0.5816
  267MOL0     C35949   6.038   8.131   7.535  0.5147  0.3711  0.6077
  267MOL0     C35950   6.080   8.281   7.515 -0.4608  0.4094 -0.2356
  267MOL0     C35951   6.229   8.296   7.560  0.0761  0.5740 -0.1693
  267MOL0     C35952   6.269   8.444   7.561 -1.2009  1.4349 -0.0049
  267MOL0     C35953   6.410   8.455   7.616 -0.0747 -0.7156  0.3482
  267MOL0    Cl35954   6.405   8.441   7.802  0.0204 -0.1060  0.3922
  267MOL0     C35955   5.439   7.810   7.543 -0.1202  0.1897 -0.6054
  267MOL0     C35956   5.307   7.763   7.543  0.3642 -0.2816  0.3738
  267MOL0     O35957   5.224   7.393   7.550  0.3479 -0.2234 -0.1380
  267MOL0     C35958   4.972   7.284   7.606 -0.0069 -0.2612  0.3031
  267MOL0     C35959   4.849   7.236   7.643  0.4561 -0.3336 -0.2243
  267MOL0     N35960   4.175   6.852   7.671  0.1088  0.0006  0.0060
  267MOL0     N35961   4.063   6.810   7.630  0.4611  0.9066 -0.4121
  267MOL0     C35962   3.078   6.578   7.209 -0.3464  0.3346  0.4896
  267MOL0     C35963   2.944   6.604   7.185 -0.6846 -0.8565 -0.3264
  267MOL0     C35964   2.502   6.592   7.200  0.4155 -0.2619 -0.4723
  267MOL0     C35965   2.467   6.665   7.315  0.3924  0.3535 -0.9236
  267MOL0     C35966   2.343   6.732   7.316 -0.4692  0.2538  0.2181
  267MOL0     C35967   2.258   6.727   7.206 -0.0539  0.1169 -0.0281
  267MOL0     O35968   2.135   6.792   7.220  0.3247 -0.3455 -0.4435
  267MOL0     C35969   2.025   6.713   7.177  0.2662 -0.8465  0.0368
  267MOL0     C35970   1.962   6.753   7.043 -0.9714 -1.3671  0.1199
  267MOL0     C35971   1.849   6.852   7.061  0.1771  0.3697 -0.9784
  267MOL0     C35972   1.777   6.896   6.928 -0.6708 -0.5334  0.2053
  267MOL0     C35973   1.863   6.978   6.841 -0.5741 -0.0561  0.7591
  267MOL0     C35974   1.933   7.053   6.763  0.1356 -0.8648 -0.5625
  267MOL0     C35975   2.283   6.632   7.102 -0.3665  1.1119  0.1548
  267MOL0     C35976   2.414   6.573   7.098  0.0046  0.3482 -0.6240
  267MOL0     C35977   2.442   6.491   6.975 -0.0043 -0.1548 -0.4981
  267MOL0     H35978   2.844   6.322   7.030  1.4124 -0.0532 -1.4108
  267MOL0     H35979   3.084   6.261   7.086 -1.0506 -1.2913 -1.8032
  267MOL0     H35980   3.343   6.603   7.118  0.3945  0.2441  0.0025
  267MOL0     H35981   3.365   6.567   7.286  0.6181  0.8954 -0.3922
  267MOL0     H35982   3.489   6.405   7.054 -0.2210  0.1679  0.2263
  267MOL0     H35983   3.509   6.387   7.241 -0.9095 -0.0932 -0.4574
  267MOL0     H35984   3.610   6.593   7.251  2.0950 -1.0836  0.6029
  267MOL0     H35985   3.570   6.638   7.081 -0.1472  0.6721  0.8068
  267MOL0     H35986   3.728   6.395   7.139 -2.5290 -0.3625 -2.5242
  267MOL0     H35987   3.749   6.512   7.009 -2.7448 -0.3464  0.0425
  267MOL0     H35988   3.940   6.515   7.160 -1.3315 -2.9005 -0.0713
  267MOL0     H35989   3.861   6.669   7.173 -1.1063 -0.9302  0.3700
  267MOL0     H35990   3.752   6.571   7.397 -0.2945 -0.6086  1.1759
  267MOL0     H35991   3.826   6.414   7.364 -2.8793 -0.2530  0.2528
  267MOL0     H35992   4.051   6.531   7.384  1.0978  0.7332  0.1025
  267MOL0     H35993   3.953   6.542   7.534 -2.3215 -2.2660 -1.8748
  267MOL0     H35994   3.964   6.779   7.328  0.8041  2.0144  0.7261
  267MOL0     H35995   3.876   6.778   7.477 -1.0501 -0.6990  0.4055
  267MOL0     H35996   4.252   6.724   7.374 -2.4270 -1.2036 -2.2667
  267MOL0     H35997   4.475   6.769   7.643 -1.6338 -1.2049 -1.0041
  267MOL0     H35998   4.461   6.859   7.491 -2.0182 -2.6933 -0.3056
  267MOL0     H35999   4.380   7.067   7.603 -0.1004  0.9420  1.4862
  267MOL0     H36000   4.409   6.981   7.751 -1.3677 -3.1344 -1.5066
  267MOL0     H36001   4.619   7.090   7.554 -0.5209 -2.2634 -0.4648
  267MOL0     H36002   4.667   6.966   7.665 -1.9072 -2.2948 -0.7807
  267MOL0     H36003   4.692   7.103   7.826 -1.6142 -2.2950  0.3079
  267MOL0     H36004   4.520   7.126   7.825  0.5762 -1.6708  0.0916
  267MOL0     H36005   4.678   7.517   7.673  0.8572  0.0357  0.8177
  267MOL0     H36006   4.895   7.608   7.655  0.4313  0.1830 -0.8574
  267MOL0     H36007   5.364   7.494   7.731 -2.8622 -0.5457 -2.2365
  267MOL0     H36008   5.592   7.578   7.737  0.9326 -2.8328 -1.7482
  267MOL0     H36009   5.680   7.903   7.444 -0.0680 -0.9811  0.2115
  267MOL0     H36010   5.647   7.999   7.602  0.5338  0.5787 -0.6157
  267MOL0     H36011   5.878   7.930   7.670  2.7039  2.5776  0.0193
  267MOL0     H36012   5.906   7.893   7.495  1.6449  0.5681  1.4754
  267MOL0     H36013   5.843   8.125   7.440  2.5321  1.7079 -0.2063
  267MOL0     H36014   5.835   8.147   7.623 -1.5577 -1.7040  0.8492
  267MOL0     H36015   6.086   8.063   7.464 -1.4945  0.1248 -0.6039
  267MOL0     H36016   6.069   8.083   7.628 -0.6102 -2.7259 -0.5013
  267MOL0     H36017   6.017   8.352   7.569  1.8248  2.0149  0.4746
  267MOL0     H36018   6.075   8.318   7.412 -0.7300  0.2438 -0.2839
  267MOL0     H36019   6.225   8.265   7.665  0.1588  0.1855 -0.2785
  267MOL0     H36020   6.302   8.234   7.506  0.1187  0.3695  0.1193
  267MOL0     H36021   6.205   8.500   7.630  0.0954 -0.7083  3.1425
  267MOL0     H36022   6.259   8.483   7.459 -1.2457 -0.2437 -0.6694
  267MOL0     H36023   6.485   8.391   7.568 -0.4346 -2.4616  2.0189
  267MOL0     H36024   6.451   8.551   7.584 -0.0113 -0.7803  0.2351
  267MOL0     H36025   5.454   7.906   7.496 -0.8293  1.7294  2.0465
  267MOL0     H36026   5.234   7.821   7.489 -1.0468 -2.5581 -0.2876
  267MOL0     H36027   5.057   7.217   7.594  0.9495  1.0372 -0.4591
  267MOL0     H36028   4.841   7.128   7.642  1.9305 -0.4632  0.2278
  267MOL0     H36029   3.145   6.653   7.248 -1.2604  1.3964  0.0771
  267MOL0     H36030   2.908   6.700   7.221 -1.6460 -0.9919 -0.8807
  267MOL0     H36031   2.530   6.677   7.402  0.8243  0.4868 -1.2524
  267MOL0     H36032   2.304   6.792   7.399  1.0185 -0.9347  1.8484
  267MOL0     H36033   1.942   6.712   7.248  2.2207 -0.1091  2.4488
  267MOL0     H36034   2.066   6.612   7.174  1.6820 -0.4588  3.0002
  267MOL0     H36035   1.937   6.658   6.994 -0.7724 -2.1351  1.4750
  267MOL0     H36036   2.040   6.805   6.987 -1.2814  1.1938  1.9168
  267MOL0     H36037   1.863   6.946   7.115 -3.9653 -0.0171  1.1976
  267MOL0     H36038   1.780   6.781   7.109  2.0667 -1.4292 -0.7804
  267MOL0     H36039   1.734   6.813   6.871 -1.7460 -0.1893  0.4779
  267MOL0     H36040   1.692   6.963   6.949  0.5976  1.2694 -0.1229
  267MOL0     H36041   1.986   7.125   6.704 -2.2213  0.5896 -1.0275
  267MOL0     H36042   2.210   6.614   7.023 -0.8414  0.9812  0.6179
  267MOL0     H36043   2.410   6.549   6.888  0.2442  1.1862  0.2860
  267MOL0     H36044   2.546   6.458   6.967 -0.0446 -0.1321 -1.1514
  267MOL0     H36045   2.368   6.411   6.981 -1.7208  1.4764  1.4685
  268MOL0     O36046   6.631   6.301   1.300  0.6369  0.4415  0.6584
  268MOL0     C36047   6.622   6.194   1.358  0.2164 -0.6910 -0.3077
  268MOL0     O36048   6.731   6.120   1.411  0.0295 -0.4929 -0.2732
  268MOL0     C36049   6.855   6.170   1.370  0.9095  0.0730  0.1945
  268MOL0     C36050   6.950   6.211   1.464  0.1350 -0.7705  0.3152
  268MOL0     C36051   7.079   6.251   1.427  0.3883 -0.1458 -0.3681
  268MOL0     C36052   7.117   6.261   1.297 -0.2101  0.4464  0.8449
  268MOL0     O36053   7.239   6.302   1.255 -0.6057 -0.6121  0.1156
  268MOL0     C36054   7.234   6.395   1.148  0.0108  0.8437 -0.3509
  268MOL0     C36055   7.374   6.438   1.092 -0.9049  0.6882 -0.2718
  268MOL0     C36056   7.461   6.317   1.048  0.5715  0.9992  0.4923
  268MOL0     C36057   7.554   6.345   0.934 -0.3366 -0.0142 -0.1425
  268MOL0     C36058   7.649   6.229   0.895 -0.0659 -0.2049 -0.6773
  268MOL0     C36059   7.734   6.270   0.776  0.3350  0.4393 -0.2982
  268MOL0     C36060   7.659   6.314   0.643 -1.2680  0.4265 -0.3740
  268MOL0     C36061   7.740   6.299   0.512  0.6603 -0.1254 -0.3869
  268MOL0     N36062   7.852   6.390   0.502 -0.6112 -0.0435  0.1878
  268MOL0     C36063   7.973   6.397   0.570 -0.1055 -0.0581  0.5257
  268MOL0     C36064   8.034   6.511   0.516  0.3131  0.0157  0.1981
  268MOL0     C36065   8.172   6.554   0.554 -0.0029 -0.4196  0.4831
  268MOL0     C36066   8.247   6.597   0.427  0.0399 -0.1488  0.4115
  268MOL0     C36067   8.395   6.578   0.435 -0.6682 -0.0721  0.1925
  268MOL0     C36068   8.459   6.646   0.552  0.5859  0.0687  0.0605
  268MOL0     O36069   8.566   6.729   0.516  0.0834  0.0862  0.2471
  268MOL0     C36070   8.689   6.664   0.487 -0.4080 -0.1955  0.3843
  268MOL0     C36071   8.707   6.538   0.436  0.2437  0.5641  0.8164
  268MOL0     C36072   8.835   6.506   0.400 -0.0546 -0.1256  0.3742
  268MOL0     C36073   8.945   6.590   0.417 -0.1365 -0.2292 -0.5102
  268MOL0     C36074   9.085   6.545   0.382 -0.2460  0.8631 -0.2923
  268MOL0     O36075   9.190   6.624   0.420 -0.2611 -0.5586 -0.3149
  268MOL0     C36076   9.312   6.563   0.443 -0.6127  0.2389 -0.5233
  268MOL0     C36077   9.424   6.635   0.403  0.7358  0.0416  0.0930
  268MOL0     C36078   9.555   6.577   0.408 -0.3210 -0.6867 -0.0432
  268MOL0     C36079   9.574   6.443   0.451  0.0324  0.5812 -0.6099
  268MOL0     O36080   9.700   6.383   0.462 -0.2144 -0.5865  0.3838
  268MOL0     C36081   9.783   6.407   0.354 -0.2978 -0.1951  0.6033
  268MOL0     C36082   9.936   6.393   0.403  0.3925 -0.0640  1.4602
  268MOL0     C36083  10.022   6.403   0.269 -1.1966  0.7303  0.6909
  268MOL0     C36084  10.172   6.410   0.300  1.4583 -1.0791 -0.2128
  268MOL0     C36085  10.256   6.438   0.178 -0.6607 -0.9477 -0.3138
  268MOL0     C36086  10.403   6.416   0.202 -0.4499  0.4019  0.3249
  268MOL0     C36087  10.450   6.272   0.197  0.3215  0.6314 -0.4975
  268MOL0     C36088  10.599   6.253   0.162  0.0310  1.2289 -0.4166
  268MOL0    Cl36089  10.701   6.311   0.292 -0.0765 -0.2699  0.0652
  268MOL0     C36090   9.463   6.372   0.499  0.1018  0.5346  0.3746
  268MOL0     C36091   9.332   6.430   0.487 -0.0235  1.4055 -0.0335
  268MOL0     O36092   9.091   6.433   0.329  1.0590  0.3121 -0.3125
  268MOL0     C36093   8.924   6.713   0.482  0.3889  0.1975  0.4412
  268MOL0     C36094   8.791   6.753   0.512 -0.2501  0.6026 -0.9474
  268MOL0     N36095   7.950   6.555   0.414  0.7030 -0.2488  1.2636
  268MOL0     N36096   7.851   6.489   0.411  0.0105 -0.5935  0.0315
  268MOL0     C36097   7.021   6.213   1.208 -0.1287 -0.3741  0.1633
  268MOL0     C36098   6.892   6.161   1.239 -0.8078 -0.4991  0.6467
  268MOL0     C36099   6.488   6.141   1.388  0.1004  0.7164  0.2480
  268MOL0     C36100   6.480   6.029   1.474  0.5643  0.5090  0.2826
  268MOL0     C36101   6.354   5.975   1.517 -0.3777 -0.2365 -0.2677
  268MOL0     C36102   6.239   6.031   1.464 -0.2305  0.5279 -0.1067
  268MOL0     O36103   6.112   6.006   1.499  0.0075  0.0285 -0.0036
  268MOL0     C36104   6.058   5.886   1.442 -0.5753 -0.7545  0.2857
  268MOL0     C36105   5.908   5.890   1.428  0.8778  0.3644 -0.1110
  268MOL0     C36106   5.828   5.915   1.563  0.2143 -0.4197  0.0050
  268MOL0     C36107   5.844   5.808   1.680 -0.0159  0.1800 -0.1468
  268MOL0     C36108   5.975   5.794   1.745 -0.6386  0.0186  0.1207
  268MOL0     C36109   6.089   5.773   1.794  0.6721  0.3825  0.5907
  268MOL0     C36110   6.243   6.139   1.376 -0.2051 -0.0032  0.4847
  268MOL0     C36111   6.368   6.189   1.334 -0.0846  0.4515  0.3318
  268MOL0     C36112   6.360   6.292   1.226  0.9516  0.6294  0.5113
  268MOL0     H36113   6.917   6.211   1.568 -1.4143 -1.0713 -0.1548
  268MOL0     H36114   7.150   6.287   1.501  1.2433 -1.4059 -0.5392
  268MOL0     H36115   7.183   6.354   1.061  0.3836  2.4677 -1.3796
  268MOL0     H36116   7.174   6.484   1.171 -1.2965  0.7581 -3.0390
  268MOL0     H36117   7.430   6.484   1.174 -0.1871  2.2909 -1.5957
  268MOL0     H36118   7.370   6.515   1.015 -2.3665  0.6625 -0.2419
  268MOL0     H36119   7.388   6.244   1.011  1.3774 -0.4520  1.6233
  268MOL0     H36120   7.515   6.264   1.127  0.0736  0.3138  0.3826
  268MOL0     H36121   7.498   6.369   0.843  1.5830 -0.1962 -1.4301
  268MOL0     H36122   7.614   6.428   0.972  1.2913 -1.9632  1.7882
  268MOL0     H36123   7.717   6.200   0.977  0.4807  0.2601 -0.9608
  268MOL0     H36124   7.580   6.149   0.865 -3.0978  1.9326  0.1330
  268MOL0     H36125   7.793   6.354   0.812  0.8765  0.5302 -1.3487
  268MOL0     H36126   7.806   6.191   0.751  0.2737 -0.3215  1.7940
  268MOL0     H36127   7.636   6.420   0.658 -1.0343  0.6599 -1.5537
  268MOL0     H36128   7.571   6.253   0.621 -2.8987  2.9929 -1.5122
  268MOL0     H36129   7.784   6.200   0.503  1.9099  0.5863 -4.2229
  268MOL0     H36130   7.672   6.314   0.427 -1.4688  1.1339  1.4118
  268MOL0     H36131   8.012   6.335   0.649 -0.5999  0.3868  1.1304
  268MOL0     H36132   8.170   6.633   0.630 -0.7062  0.7426 -0.7002
  268MOL0     H36133   8.222   6.471   0.604 -1.5362 -1.6056  0.1388
  268MOL0     H36134   8.208   6.542   0.341 -1.7355  2.1200 -0.3401
  268MOL0     H36135   8.210   6.699   0.412 -1.2902 -0.8324 -1.3533
  268MOL0     H36136   8.438   6.618   0.342 -2.3934  1.0153 -0.1891
  268MOL0     H36137   8.425   6.473   0.440 -0.9344 -0.1314  0.5588
  268MOL0     H36138   8.499   6.584   0.633 -1.0595  0.3348  1.1418
  268MOL0     H36139   8.388   6.713   0.602  0.1469  1.0569 -1.8076
  268MOL0     H36140   8.628   6.466   0.417 -1.3041  2.0068  1.5090
  268MOL0     H36141   8.846   6.406   0.360 -0.5228  0.5346 -1.4581
  268MOL0     H36142   9.421   6.739   0.372 -0.2795 -0.1511 -0.5010
  268MOL0     H36143   9.630   6.655   0.396 -1.6761  0.5103 -1.0904
  268MOL0     H36144   9.774   6.330   0.276  1.6076 -1.7426  1.8355
  268MOL0     H36145   9.778   6.504   0.303  0.9558 -0.9439 -1.0276
  268MOL0     H36146   9.948   6.472   0.478 -3.3702  0.2463  1.9301
  268MOL0     H36147   9.949   6.296   0.451 -3.6480 -1.1290  0.7562
  268MOL0     H36148  10.007   6.309   0.214  0.2173  0.4225  0.7976
  268MOL0     H36149   9.991   6.493   0.216  0.7814  1.3571  0.5104
  268MOL0     H36150  10.199   6.310   0.334 -1.9846 -1.7050  1.0972
  268MOL0     H36151  10.188   6.489   0.375  0.3592  0.4030 -1.4758
  268MOL0     H36152  10.245   6.546   0.161 -0.4282  0.2122  4.9398
  268MOL0     H36153  10.231   6.379   0.090  0.6389 -0.7666 -0.8097
  268MOL0     H36154  10.448   6.455   0.110 -1.5284 -1.5218 -1.0905
  268MOL0     H36155  10.435   6.475   0.289 -0.1524 -0.3885  0.7580
  268MOL0     H36156  10.374   6.216   0.142 -0.7948  0.2389  1.3486
  268MOL0     H36157  10.441   6.241   0.302  0.6896  2.9412  0.2852
  268MOL0     H36158  10.618   6.146   0.157 -1.5336  0.8502  0.7746
  268MOL0     H36159  10.623   6.308   0.071  2.2761  1.6044  0.3365
  268MOL0     H36160   9.473   6.276   0.549 -1.5551 -0.1388 -0.5114
  268MOL0     H36161   9.248   6.366   0.509  0.2475  0.6427 -1.0980
  268MOL0     H36162   9.002   6.780   0.515  0.2922  0.5083  0.0374
  268MOL0     H36163   8.766   6.848   0.557  1.4020  0.4577  0.3759
  268MOL0     H36164   7.039   6.197   1.102  0.3371  0.7380  0.0532
  268MOL0     H36165   6.825   6.122   1.163 -4.2249  2.2466  1.9602
  268MOL0     H36166   6.573   5.992   1.517 -1.8108 -2.1841  3.6859
  268MOL0     H36167   6.358   5.892   1.586  1.4489  2.8904  3.8265
  268MOL0     H36168   6.087   5.798   1.501  1.9465  2.0104  3.5665
  268MOL0     H36169   6.095   5.860   1.343  0.5950 -2.7539  1.1673
  268MOL0     H36170   5.876   5.792   1.393  3.2836 -0.2353 -0.7955
  268MOL0     H36171   5.883   5.967   1.355  2.6176  1.1337  0.0575
  268MOL0     H36172   5.729   5.933   1.520  0.8105  0.5889 -1.0187
  268MOL0     H36173   5.879   6.001   1.607 -1.2922 -0.6002  2.3055
  268MOL0     H36174   5.768   5.828   1.756  0.2479 -0.2069  0.2225
  268MOL0     H36175   5.818   5.707   1.648  1.2037 -0.9434  2.1642
  268MOL0     H36176   6.183   5.760   1.843  1.0966 -1.0035 -0.4959
  268MOL0     H36177   6.157   6.174   1.319  0.3943  0.6829 -0.0134
  268MOL0     H36178   6.424   6.273   1.139  0.7635 -2.0493  0.8817
  268MOL0     H36179   6.264   6.282   1.176  2.3799 -2.1982 -2.0144
  268MOL0     H36180   6.377   6.394   1.263  2.2891 -0.1115  2.0810
  269MOL0     O36181  10.743   0.919   8.640  0.0104 -0.1758  0.1359
  269MOL0     C36182  10.780   0.902   8.762 -0.9029 -0.5324  0.2245
  269MOL0     O36183  10.689   0.866   8.867 -0.1127  0.0626 -0.2586
  269MOL0     C36184  10.557   0.849   8.847  0.1434 -0.2392 -0.2359
  269MOL0     C36185  10.462   0.911   8.929 -0.9122  0.0927  0.0159
  269MOL0     C36186  10.326   0.888   8.918 -0.0340  0.6284 -0.2215
  269MOL0     C36187  10.279   0.799   8.819  0.6485 -0.2641  0.3360
  269MOL0     O36188  10.151   0.753   8.799 -0.0789  1.3065  0.0698
  269MOL0     C36189  10.053   0.831   8.859  0.0516  0.0230  0.8186
  269MOL0     C36190   9.914   0.765   8.838 -0.3615 -0.0100 -0.1413
  269MOL0     C36191   9.799   0.813   8.929 -0.2087 -0.7967 -0.3473
  269MOL0     C36192   9.674   0.729   8.941  0.5596  0.0816  0.5227
  269MOL0     C36193   9.560   0.814   8.995 -0.4840  1.2907 -0.4836
  269MOL0     C36194   9.425   0.739   9.003  0.0663  0.4708  0.5573
  269MOL0     C36195   9.329   0.830   9.078 -0.0151 -0.1761  0.1010
  269MOL0     C36196   9.176   0.803   9.054  0.3359  0.1153  0.7036
  269MOL0     N36197   9.143   0.823   8.912  0.4001  0.3876  0.6737
  269MOL0     C36198   9.094   0.716   8.835 -0.0748 -0.5635  0.5045
  269MOL0     C36199   9.030   0.776   8.733  0.8311  0.9143 -0.3884
  269MOL0     C36200   8.953   0.706   8.621 -0.2463  0.5523 -0.1127
  269MOL0     C36201   8.998   0.758   8.485  0.5039  0.1717  0.3846
  269MOL0     C36202   8.963   0.659   8.370 -0.2339 -0.1752  0.5608
  269MOL0     C36203   8.819   0.679   8.316  0.4357 -1.1257 -0.4236
  269MOL0     O36204   8.721   0.651   8.415  1.1324  0.2759 -0.5458
  269MOL0     C36205   8.584   0.641   8.402 -0.4425  0.1189 -1.0416
  269MOL0     C36206   8.520   0.635   8.282 -1.3388  0.8123  0.0478
  269MOL0     C36207   8.381   0.626   8.279 -1.4726  0.1221 -0.2779
  269MOL0     C36208   8.302   0.624   8.402  0.5776 -0.6544 -0.0434
  269MOL0     C36209   8.154   0.630   8.396  0.7100 -0.4302 -0.4219
  269MOL0     O36210   8.083   0.580   8.289 -0.0942  0.1151 -0.2864
  269MOL0     C36211   7.950   0.599   8.275 -0.1936  0.1463 -0.5989
  269MOL0     C36212   7.876   0.716   8.311 -0.5165  0.4372 -0.1234
  269MOL0     C36213   7.737   0.720   8.282 -0.1793 -0.0204 -0.4313
  269MOL0     C36214   7.667   0.610   8.229 -0.1022 -0.1066 -0.3572
  269MOL0     O36215   7.532   0.631   8.205 -0.0824  0.6660 -0.0110
  269MOL0     C36216   7.460   0.524   8.142 -0.6271  0.3505 -0.2568
  269MOL0     C36217   7.314   0.561   8.137 -0.0910  0.2847 -1.0719
  269MOL0     C36218   7.210   0.445   8.142 -0.5660 -0.4313  1.1022
  269MOL0     C36219   7.064   0.496   8.104 -1.2121  1.2371 -0.8335
  269MOL0     C36220   6.992   0.576   8.205 -0.0587  1.0932  0.5341
  269MOL0     C36221   6.867   0.636   8.142 -1.0143  0.4191 -1.0341
  269MOL0     C36222   6.757   0.535   8.097  0.2825  0.7349 -0.5758
  269MOL0     C36223   6.631   0.593   8.047  0.6517 -0.1693 -0.0659
  269MOL0    Cl36224   6.549   0.711   8.153 -0.4278  0.0441 -0.1253
  269MOL0     C36225   7.735   0.492   8.219 -0.4341 -0.8141  0.2612
  269MOL0     C36226   7.875   0.489   8.234 -0.9566  1.0495  0.3884
  269MOL0     O36227   8.112   0.696   8.487  0.0025  0.8140  0.2402
  269MOL0     C36228   8.376   0.636   8.524 -0.0305  0.1113 -0.4537
  269MOL0     C36229   8.513   0.629   8.521 -0.5225 -0.6892  0.3759
  269MOL0     N36230   9.040   0.913   8.745 -0.2113  0.4938 -0.2983
  269MOL0     N36231   9.123   0.942   8.842  0.9212  0.7394 -0.8389
  269MOL0     C36232  10.376   0.742   8.737  0.3036 -0.2521  1.1273
  269MOL0     C36233  10.508   0.776   8.741  0.7436 -0.1917  0.3781
  269MOL0     C36234  10.923   0.906   8.795  1.0523 -0.4920 -0.2385
  269MOL0     C36235  10.966   0.900   8.925 -0.4866  0.0388 -1.1819
  269MOL0     C36236  11.101   0.890   8.958 -0.4820  0.8877 -0.4967
  269MOL0     C36237  11.197   0.903   8.862 -0.6287 -1.3839  0.3407
  269MOL0     O36238  11.323   0.900   8.905 -0.2219 -0.1271 -0.5991
  269MOL0     C36239  11.425   0.922   8.805  0.0911  0.0315  0.0666
  269MOL0     C36240  11.559   0.938   8.880 -0.2619  0.0405 -0.0598
  269MOL0     C36241  11.610   0.818   8.955  0.3017  0.4330 -0.3940
  269MOL0     C36242  11.764   0.798   8.962  0.0371  0.0325  0.4966
  269MOL0     C36243  11.834   0.895   9.050  0.1921 -0.2986  0.9807
  269MOL0     C36244  11.895   0.954   9.135 -0.1272  1.2682 -0.1146
  269MOL0     C36245  11.162   0.922   8.729  1.0148  0.0925  0.8851
  269MOL0     C36246  11.024   0.921   8.690  0.4072 -0.0912 -1.0239
  269MOL0     C36247  11.005   0.930   8.543  0.0378 -0.2725  0.0799
  269MOL0     H36248  10.506   0.966   9.011  3.2717 -1.2972 -1.0665
  269MOL0     H36249  10.258   0.939   8.987 -0.3607  0.2342 -0.2537
  269MOL0     H36250  10.073   0.845   8.965  2.0438  0.2115  0.4586
  269MOL0     H36251  10.061   0.933   8.821 -0.7509  0.1829  1.0640
  269MOL0     H36252   9.933   0.659   8.854  1.3349  0.3396  0.2964
  269MOL0     H36253   9.880   0.778   8.735 -1.2676 -0.5577  0.0729
  269MOL0     H36254   9.772   0.913   8.893  1.1865 -0.6443 -1.0215
  269MOL0     H36255   9.841   0.820   9.029 -1.5664 -0.8101  0.2453
  269MOL0     H36256   9.640   0.684   8.847  1.6963  2.4498 -1.1173
  269MOL0     H36257   9.700   0.652   9.014  2.7068  1.2213  1.0499
  269MOL0     H36258   9.588   0.844   9.097 -2.7195 -1.1864  0.9882
  269MOL0     H36259   9.550   0.898   8.927  2.2593  1.6784 -0.5159
  269MOL0     H36260   9.384   0.706   8.907 -0.5956 -2.1174  1.6650
  269MOL0     H36261   9.441   0.644   9.054 -2.1247  0.0892  0.6097
  269MOL0     H36262   9.342   0.933   9.042 -3.1351 -0.2388 -1.5755
  269MOL0     H36263   9.341   0.819   9.186  4.0061 -1.9749 -0.3472
  269MOL0     H36264   9.162   0.696   9.072  4.8234 -1.2353 -2.2430
  269MOL0     H36265   9.106   0.871   9.103 -0.3369  2.6357 -3.2688
  269MOL0     H36266   9.095   0.609   8.851  0.5204 -0.4124  1.4984
  269MOL0     H36267   8.977   0.600   8.626  0.2925  0.4346 -3.2909
  269MOL0     H36268   8.846   0.716   8.645 -0.2449 -1.7009  1.0657
  269MOL0     H36269   8.955   0.856   8.464 -1.2974 -0.5569  0.5028
  269MOL0     H36270   9.107   0.772   8.482  0.4158  0.8204  0.0098
  269MOL0     H36271   8.985   0.557   8.401  0.0376  0.5027  2.7898
  269MOL0     H36272   9.031   0.679   8.286  0.4336  4.7402  1.9237
  269MOL0     H36273   8.803   0.611   8.232 -1.3859 -1.2326 -0.0416
  269MOL0     H36274   8.816   0.781   8.279  1.5010  0.6251  3.6940
  269MOL0     H36275   8.573   0.627   8.188 -0.1750 -1.6083  0.8115
  269MOL0     H36276   8.346   0.624   8.177 -1.2135  2.5351 -0.4773
  269MOL0     H36277   7.926   0.805   8.349  0.5035 -0.0480 -0.2736
  269MOL0     H36278   7.688   0.814   8.308 -1.6445 -0.5003 -1.3155
  269MOL0     H36279   7.502   0.491   8.047  0.9171 -3.6488  1.5868
  269MOL0     H36280   7.461   0.439   8.212 -0.8460  1.3222  0.9699
  269MOL0     H36281   7.303   0.620   8.229  3.8588 -1.0268  0.4253
  269MOL0     H36282   7.302   0.615   8.043 -2.6599 -1.6439 -1.9448
  269MOL0     H36283   7.242   0.390   8.053 -1.8873  0.9078 -0.2621
  269MOL0     H36284   7.222   0.378   8.227  2.1723 -1.5692 -0.0600
  269MOL0     H36285   7.002   0.411   8.075 -2.2566  1.1060  1.5282
  269MOL0     H36286   7.065   0.561   8.017 -1.0191 -0.0163 -1.7888
  269MOL0     H36287   7.062   0.651   8.242 -0.1935  2.2642 -1.4418
  269MOL0     H36288   6.963   0.510   8.288  1.5886 -1.3790 -0.7286
  269MOL0     H36289   6.821   0.695   8.222  3.2839  2.5943  0.1627
  269MOL0     H36290   6.889   0.698   8.054 -3.6244  1.2871 -1.1395
  269MOL0     H36291   6.711   0.487   8.184 -0.8758  3.1888  0.2427
  269MOL0     H36292   6.802   0.459   8.032 -0.1102 -0.4283  0.4451
  269MOL0     H36293   6.660   0.650   7.958 -0.2396  3.1498  1.5970
  269MOL0     H36294   6.567   0.512   8.013 -0.1800 -0.5826  2.3011
  269MOL0     H36295   7.693   0.398   8.185 -0.2725  0.2010 -3.1083
  269MOL0     H36296   7.922   0.392   8.220 -3.5303 -0.5281  2.0303
  269MOL0     H36297   8.312   0.629   8.612 -1.2707  1.6222 -1.1740
  269MOL0     H36298   8.562   0.623   8.617 -0.4486  2.3294  0.6213
  269MOL0     H36299  10.341   0.679   8.655 -1.2468  2.1258 -0.1561
  269MOL0     H36300  10.577   0.730   8.672  0.3037  1.7383 -1.4834
  269MOL0     H36301  10.892   0.888   9.003  0.9456  1.1232  0.4090
  269MOL0     H36302  11.125   0.875   9.063 -3.7092 -1.3998  0.0655
  269MOL0     H36303  11.408   1.018   8.756  2.5225 -0.7786 -2.7092
  269MOL0     H36304  11.425   0.840   8.733 -1.0993  1.2838 -1.4316
  269MOL0     H36305  11.559   1.021   8.951 -1.7370 -2.0147  2.5471
  269MOL0     H36306  11.632   0.972   8.806  0.8965 -2.7023 -0.3110
  269MOL0     H36307  11.568   0.729   8.907  0.5198  1.2231 -2.1234
  269MOL0     H36308  11.569   0.816   9.056  0.5824  0.9478 -0.2660
  269MOL0     H36309  11.791   0.701   9.004 -0.0897 -1.3628 -2.3895
  269MOL0     H36310  11.798   0.803   8.858  0.2211 -1.2068  0.4744
  269MOL0     H36311  11.955   1.012   9.203  0.3406 -1.1122  1.6168
  269MOL0     H36312  11.237   0.935   8.651 -2.0048  4.1155 -1.7723
  269MOL0     H36313  10.985   0.835   8.492 -1.3886  0.1478 -0.1813
  269MOL0     H36314  10.926   1.001   8.518  1.0318  0.5200 -0.9001
  269MOL0     H36315  11.087   0.971   8.484 -0.9080  1.9344  0.2130
  270MOL0     O36316  10.106  10.061   4.695 -0.7496  0.3552  0.2190
  270MOL0     C36317  10.062  10.150   4.619  0.4049 -0.5141 -0.2112
  270MOL0     O36318  10.147  10.231   4.552  0.7500 -0.4265  0.4653
  270MOL0     C36319  10.285  10.215   4.548 -0.3072  0.0566 -0.6514
  270MOL0     C36320  10.375  10.319   4.563  0.1400 -0.3065  0.3365
  270MOL0     C36321  10.515  10.305   4.553  0.1092  0.4253 -1.3490
  270MOL0     C36322  10.578  10.188   4.512  0.0252 -0.2629  0.3568
  270MOL0     O36323  10.712  10.162   4.487  0.1429 -0.1332  0.0574
  270MOL0     C36324  10.806  10.241   4.569  0.5921  0.5711  0.3617
  270MOL0     C36325  10.943  10.200   4.521  0.8788 -0.4704  0.5923
  270MOL0     C36326  11.061  10.290   4.572  0.1295 -0.1601 -0.0745
  270MOL0     C36327  11.189  10.262   4.489  0.9477 -0.1656 -0.1832
  270MOL0     C36328  11.306  10.350   4.547 -0.4537  0.4318  0.1089
  270MOL0     C36329  11.422  10.331   4.454  0.2779 -0.4920  0.1049
  270MOL0     C36330  11.553  10.388   4.506 -0.2404  0.7504  0.4789
  270MOL0     C36331  11.621  10.289   4.606  1.0208 -0.3035  0.3978
  270MOL0     N36332  11.723  10.373   4.669 -1.5132 -0.2501 -0.7836
  270MOL0     C36333  11.862  10.363   4.649  0.9202  0.0241 -0.4869
  270MOL0     C36334  11.919  10.452   4.742  0.2999  0.4525  0.4890
  270MOL0     C36335  12.065  10.460   4.772 -0.1632 -0.1629 -0.8963
  270MOL0     C36336  12.108  10.601   4.802 -0.1613  0.5773 -0.3396
  270MOL0     C36337  12.219  10.587   4.897 -0.3623 -0.5399 -0.1380
  270MOL0     C36338  12.282  10.730   4.921  0.1321  0.2086 -0.0083
  270MOL0     O36339  12.402  10.728   5.001 -0.1580  0.5248 -0.2242
  270MOL0     C36340  12.514  10.668   4.942  0.0203  1.0096  0.0819
  270MOL0     C36341  12.574  10.551   4.990 -0.2499  0.7805 -0.4308
  270MOL0     C36342  12.696  10.503   4.938  0.4414 -0.7952 -0.0169
  270MOL0     C36343  12.748  10.557   4.821  0.0679 -0.4416 -0.6331
  270MOL0     C36344  12.867  10.499   4.762 -0.3564  0.1911  0.5078
  270MOL0     O36345  12.890  10.356   4.774  0.2577 -0.1993 -0.6515
  270MOL0     C36346  12.991  10.295   4.698  0.2140 -0.2158 -0.0728
  270MOL0     C36347  12.963  10.181   4.610  0.4886 -1.5387 -1.0415
  270MOL0     C36348  13.067  10.132   4.529  0.0429  0.3514  0.4188
  270MOL0     C36349  13.199  10.179   4.538 -0.3472 -0.1035 -0.0289
  270MOL0     O36350  13.297  10.122   4.459 -0.7233 -0.3574 -0.0598
  270MOL0     C36351  13.438  10.124   4.504 -0.0208 -0.0322  1.3839
  270MOL0     C36352  13.527  10.218   4.437 -0.3250 -0.3242  1.0556
  270MOL0     C36353  13.676  10.212   4.477 -0.1628 -0.2577 -1.2595
  270MOL0     C36354  13.753  10.098   4.396  0.2679  0.1692 -0.0843
  270MOL0     C36355  13.882  10.058   4.481  0.8080 -0.4100  0.9061
  270MOL0     C36356  13.942   9.952   4.405 -0.3502 -0.2729  0.0956
  270MOL0     C36357  14.078   9.900   4.471 -0.3373 -0.4072 -0.1127
  270MOL0     C36358  14.169   9.814   4.369  0.2478  0.4176  0.4494
  270MOL0    Cl36359  14.322   9.758   4.435  0.2264 -0.2235 -0.0049
  270MOL0     C36360  13.228  10.300   4.607  0.0075  0.4431  0.4809
  270MOL0     C36361  13.124  10.342   4.693  0.3498 -0.4463  0.2006
  270MOL0     O36362  12.929  10.573   4.682 -0.3987 -0.0421 -0.3936
  270MOL0     C36363  12.684  10.670   4.764  0.6620 -0.4026  0.2490
  270MOL0     C36364  12.574  10.730   4.827 -0.0506  0.1155 -0.1915
  270MOL0     N36365  11.825  10.528   4.799 -0.5846  0.2583 -0.0422
  270MOL0     N36366  11.712  10.485   4.750 -0.4352  0.6745 -0.9411
  270MOL0     C36367  10.487  10.082   4.483  0.7213 -0.4810  0.4288
  270MOL0     C36368  10.345  10.093   4.506  1.1303  0.5575 -0.4144
  270MOL0     C36369   9.912  10.170   4.606 -0.6770 -0.9917 -0.1234
  270MOL0     C36370   9.825  10.075   4.661  0.0601  0.0989 -0.9956
  270MOL0     C36371   9.690  10.072   4.658  0.2361 -0.0939  0.3298
  270MOL0     C36372   9.627  10.176   4.597  0.3347  0.1183  0.1741
  270MOL0     O36373   9.493  10.181   4.617 -0.3974 -0.1386 -0.2261
  270MOL0     C36374   9.418  10.288   4.567 -0.0686 -0.1303 -0.7151
  270MOL0     C36375   9.396  10.293   4.419  0.1858 -1.2940  0.2218
  270MOL0     C36376   9.354  10.149   4.368 -1.1245  0.0023 -0.4287
  270MOL0     C36377   9.335  10.139   4.223  0.1471  0.1907 -0.6295
  270MOL0     C36378   9.466  10.139   4.158 -0.5943 -0.0486 -1.0084
  270MOL0     C36379   9.560  10.114   4.092 -0.5189 -0.0111  0.3093
  270MOL0     C36380   9.705  10.277   4.539 -0.4686  0.0896 -0.1586
  270MOL0     C36381   9.843  10.277   4.547 -0.8127  0.3622  0.1347
  270MOL0     C36382   9.901  10.394   4.477  0.2488 -0.4587 -0.2331
  270MOL0     H36383  10.320  10.407   4.596 -4.7455 -3.0170  0.3709
  270MOL0     H36384  10.574  10.395   4.568  0.5881 -0.2164  1.1101
  270MOL0     H36385  10.767  10.343   4.555 -5.4818 -1.2221  1.4371
  270MOL0     H36386  10.780  10.215   4.672 -0.8345 -0.3094 -0.1890
  270MOL0     H36387  10.952  10.211   4.413  0.1469 -1.9971  0.3531
  270MOL0     H36388  10.960  10.094   4.545  2.4819  0.1299  2.3912
  270MOL0     H36389  11.086  10.289   4.679  0.5887  3.2240 -0.0208
  270MOL0     H36390  11.032  10.394   4.555  0.4935 -0.0116  0.1896
  270MOL0     H36391  11.210  10.157   4.507  2.2175  0.1781  0.4992
  270MOL0     H36392  11.167  10.274   4.383 -1.0819  3.1029  0.4581
  270MOL0     H36393  11.280  10.456   4.557 -1.9450  0.1074 -0.0107
  270MOL0     H36394  11.323  10.312   4.648  1.8087  2.7810  0.7046
  270MOL0     H36395  11.435  10.229   4.417 -0.1580 -0.3284 -0.5324
  270MOL0     H36396  11.388  10.388   4.366  1.2024 -0.0805  0.0070
  270MOL0     H36397  11.529  10.485   4.550 -1.7365  0.4157  0.4637
  270MOL0     H36398  11.630  10.402   4.430  0.1236  0.6497  0.8252
  270MOL0     H36399  11.552  10.247   4.680 -1.6917  1.0644 -1.2432
  270MOL0     H36400  11.666  10.208   4.548 -0.8825 -0.8057 -0.4242
  270MOL0     H36401  11.917  10.304   4.576  2.3615  0.3713  0.2818
  270MOL0     H36402  12.072  10.398   4.862 -3.2012  1.7632  0.8445
  270MOL0     H36403  12.127  10.409   4.698 -0.9843  0.1125 -1.7976
  270MOL0     H36404  12.137  10.646   4.707 -0.2686  1.6466  0.1212
  270MOL0     H36405  12.028  10.665   4.841  0.6444  2.0073 -0.9399
  270MOL0     H36406  12.292  10.517   4.857  0.4801 -1.3292  2.5592
  270MOL0     H36407  12.183  10.548   4.993 -0.5319 -3.3923 -1.2591
  270MOL0     H36408  12.215  10.797   4.975 -0.2481  0.5970 -0.9379
  270MOL0     H36409  12.307  10.781   4.827  1.0869  0.7636  0.5301
  270MOL0     H36410  12.526  10.510   5.079  1.8758 -0.8202  0.0633
  270MOL0     H36411  12.742  10.416   4.983 -0.5573 -1.0668  0.5090
  270MOL0     H36412  12.864  10.136   4.610  0.2996 -1.1311 -0.7872
  270MOL0     H36413  13.044  10.066   4.446 -2.1045  2.6755 -0.9673
  270MOL0     H36414  13.443  10.120   4.613  3.0342 -4.0433  1.2935
  270MOL0     H36415  13.481  10.026   4.485  3.0032  1.3338  0.5973
  270MOL0     H36416  13.519  10.210   4.328  0.0263 -1.3733  1.0936
  270MOL0     H36417  13.496  10.318   4.468 -1.3947 -0.4412  0.4206
  270MOL0     H36418  13.731  10.307   4.477  4.2545 -2.0972  5.2312
  270MOL0     H36419  13.677  10.188   4.584  0.5222 -1.9777 -1.6217
  270MOL0     H36420  13.779  10.136   4.297  2.1294  0.0135  0.3083
  270MOL0     H36421  13.686  10.012   4.396 -4.0313  3.1823  0.2233
  270MOL0     H36422  13.850  10.029   4.582 -6.0852  4.0311  0.6945
  270MOL0     H36423  13.944  10.148   4.492  0.0043 -0.0516  2.8470
  270MOL0     H36424  13.884   9.859   4.397  1.6141 -1.9071  2.8243
  270MOL0     H36425  13.948   9.994   4.304 -2.1732  1.4526  0.6497
  270MOL0     H36426  14.056   9.827   4.550  2.0633 -1.7351 -0.5844
  270MOL0     H36427  14.143   9.978   4.512 -1.9095 -0.5004  2.8872
  270MOL0     H36428  14.105   9.730   4.341 -2.6426  2.3374  0.8038
  270MOL0     H36429  14.187   9.874   4.279 -1.9213  2.5302  1.2910
  270MOL0     H36430  13.324  10.351   4.602 -1.6496  4.0676  2.1096
  270MOL0     H36431  13.151  10.424   4.758 -1.9125  1.2360 -0.8746
  270MOL0     H36432  12.710  10.723   4.673  2.1023  1.2646  1.5622
  270MOL0     H36433  12.529  10.822   4.792  1.3911  0.5128 -1.0997
  270MOL0     H36434  10.527   9.986   4.450  0.2038 -0.0326 -1.6035
  270MOL0     H36435  10.286  10.005   4.479  1.1032  0.7801 -1.1182
  270MOL0     H36436   9.868  10.001   4.728 -0.2302  0.7713 -0.0480
  270MOL0     H36437   9.637   9.985   4.697 -0.8556 -0.8152 -2.5126
  270MOL0     H36438   9.477  10.377   4.591  2.1242 -1.7175  0.1037
  270MOL0     H36439   9.328  10.295   4.628  1.7412  1.6775  1.9384
  270MOL0     H36440   9.485  10.328   4.367 -1.0028 -1.2114 -1.8535
  270MOL0     H36441   9.312  10.357   4.391 -0.4775 -1.6055  1.4027
  270MOL0     H36442   9.263  10.118   4.422  0.2805 -0.4451  1.8192
  270MOL0     H36443   9.426  10.071   4.394 -2.5309 -1.2436 -0.0937
  270MOL0     H36444   9.270  10.053   4.204  0.9220 -1.2320  2.5693
  270MOL0     H36445   9.278  10.230   4.198 -0.3401  1.0422  3.0243
  270MOL0     H36446   9.645  10.096   4.029 -1.4809 -1.8189 -0.5618
  270MOL0     H36447   9.653  10.363   4.499 -2.8059  0.1616  2.6931
  270MOL0     H36448   9.954  10.372   4.385 -0.5867 -0.1987 -0.7947
  270MOL0     H36449   9.824  10.469   4.457  0.5915 -0.3365 -1.1502
  270MOL0     H36450   9.967  10.437   4.552 -1.0832  0.0599  0.6918
  271MOL0     O36451   2.307   7.460   6.059  0.1609 -0.3958 -0.8343
  271MOL0     C36452   2.273   7.571   6.101 -0.7846 -1.1104  0.0701
  271MOL0     O36453   2.352   7.652   6.176 -0.0855  0.6669 -0.2920
  271MOL0     C36454   2.475   7.605   6.193  0.1403 -0.2449  0.2972
  271MOL0     C36455   2.583   7.633   6.102  0.0420 -0.1695 -0.3221
  271MOL0     C36456   2.711   7.569   6.112  0.5221 -0.4374  0.4985
  271MOL0     C36457   2.735   7.477   6.212  0.3433 -0.4175 -0.0153
  271MOL0     O36458   2.856   7.416   6.225 -0.1400  0.4281 -0.7887
  271MOL0     C36459   2.901   7.334   6.118  0.9611 -0.4835 -0.3368
  271MOL0     C36460   2.968   7.224   6.198  0.2644 -1.2237  0.2376
  271MOL0     C36461   3.095   7.285   6.262 -0.5841  0.0242 -0.8824
  271MOL0     C36462   3.205   7.171   6.275  0.3886  0.2818 -0.7690
  271MOL0     C36463   3.338   7.226   6.332  0.5977 -0.6250  0.1888
  271MOL0     C36464   3.330   7.257   6.484  0.1135 -0.0015  0.3605
  271MOL0     C36465   3.435   7.349   6.536  0.0210 -0.0842 -0.1586
  271MOL0     C36466   3.567   7.306   6.495 -0.8992 -0.0468  0.1062
  271MOL0     N36467   3.670   7.381   6.579 -0.2713 -0.5086  0.5958
  271MOL0     C36468   3.779   7.324   6.642 -0.0880  0.2392  0.3040
  271MOL0     C36469   3.849   7.429   6.687 -0.4315  0.2145 -0.1038
  271MOL0     C36470   3.982   7.429   6.752  0.6130  0.4545 -0.5323
  271MOL0     C36471   4.091   7.354   6.677  0.8467  0.6151 -0.1173
  271MOL0     C36472   4.194   7.291   6.769 -0.8494  0.1285 -0.8226
  271MOL0     C36473   4.307   7.390   6.817 -0.3864 -1.9560 -0.7856
  271MOL0     O36474   4.417   7.311   6.861 -0.0143  0.4848  0.6342
  271MOL0     C36475   4.536   7.369   6.893  0.1663  0.0602 -0.3590
  271MOL0     C36476   4.655   7.295   6.888  0.3814  0.4851  0.1537
  271MOL0     C36477   4.776   7.348   6.908  0.6249 -0.1358  0.7784
  271MOL0     C36478   4.789   7.478   6.954  0.7178  0.9619 -1.2115
  271MOL0     C36479   4.923   7.532   6.980  0.1952  0.0364  0.1534
  271MOL0     O36480   5.008   7.433   7.023 -0.7048  0.1299 -0.3799
  271MOL0     C36481   5.142   7.464   7.036 -0.0573 -0.2157 -0.9363
  271MOL0     C36482   5.229   7.463   6.932 -0.4818  0.4402  0.9556
  271MOL0     C36483   5.367   7.469   6.948  0.0055  0.2761 -0.1077
  271MOL0     C36484   5.421   7.498   7.076 -0.8075  0.3403  0.0546
  271MOL0     O36485   5.550   7.476   7.114 -0.7645 -0.0449 -0.4991
  271MOL0     C36486   5.586   7.467   7.248  0.6463  0.0332 -0.2432
  271MOL0     C36487   5.736   7.420   7.245 -0.1924 -1.1696 -0.3225
  271MOL0     C36488   5.792   7.443   7.385 -0.0853 -0.0471 -0.2422
  271MOL0     C36489   5.941   7.427   7.394 -0.6395 -0.1320  0.2734
  271MOL0     C36490   5.994   7.433   7.541 -0.3717 -0.2257  0.3707
  271MOL0     C36491   5.984   7.555   7.612  0.1553  0.2113  0.2703
  271MOL0     C36492   6.090   7.568   7.717  0.2775  0.0056  0.0606
  271MOL0     C36493   6.080   7.699   7.789 -0.5190 -1.2388  0.2843
  271MOL0    Cl36494   6.167   7.834   7.718 -0.1173  0.0503 -0.0281
  271MOL0     C36495   5.330   7.512   7.183  0.7539  0.5030 -0.0021
  271MOL0     C36496   5.196   7.480   7.164 -0.1166  0.5031 -0.5262
  271MOL0     O36497   4.947   7.656   6.966 -0.4961  0.2318 -0.1666
  271MOL0     C36498   4.677   7.551   6.975 -0.5885 -0.9976  0.5415
  271MOL0     C36499   4.547   7.500   6.942 -0.5899  0.1811  0.9346
  271MOL0     N36500   3.791   7.544   6.631  0.3085  0.0812 -0.9529
  271MOL0     N36501   3.688   7.522   6.567  0.1991 -0.0421  1.0495
  271MOL0     C36502   2.636   7.456   6.311 -0.4961 -0.9981 -0.4110
  271MOL0     C36503   2.510   7.524   6.304 -0.2257  0.8059 -0.2807
  271MOL0     C36504   2.151   7.633   6.041 -0.3142  0.5241  0.1552
  271MOL0     C36505   2.106   7.586   5.916 -0.3805  0.7363  0.5192
  271MOL0     C36506   1.992   7.639   5.855  0.7221  0.0278 -0.8133
  271MOL0     C36507   1.924   7.747   5.911  0.4598 -0.3163  0.4957
  271MOL0     O36508   1.806   7.792   5.855  0.4630 -0.0464  0.9330
  271MOL0     C36509   1.813   7.879   5.736  0.6210 -0.7085 -0.4031
  271MOL0     C36510   1.731   8.007   5.759  0.6131 -0.0398  0.1005
  271MOL0     C36511   1.581   7.975   5.767 -0.9985  0.2235 -0.3220
  271MOL0     C36512   1.523   7.971   5.634  0.2156 -0.2201 -0.4292
  271MOL0     C36513   1.385   7.928   5.626 -0.0742  0.1447 -0.8122
  271MOL0     C36514   1.276   7.881   5.636  0.5566 -0.3219 -0.7135
  271MOL0     C36515   1.964   7.791   6.032 -0.9940 -0.1081 -1.0272
  271MOL0     C36516   2.070   7.732   6.104 -1.1949  0.1233 -0.5885
  271MOL0     C36517   2.102   7.798   6.239  0.0637  0.1897  0.1559
  271MOL0     H36518   2.547   7.683   6.013 -2.2101 -0.0204  0.5960
  271MOL0     H36519   2.801   7.590   6.055 -0.0495  3.1106  0.6589
  271MOL0     H36520   2.814   7.300   6.060  1.1495 -0.5565 -0.5801
  271MOL0     H36521   2.969   7.395   6.057  1.0729  1.7216  1.8279
  271MOL0     H36522   2.988   7.141   6.130 -0.1089 -1.8548  0.8830
  271MOL0     H36523   2.898   7.185   6.273 -1.8024 -0.4377 -1.1800
  271MOL0     H36524   3.074   7.317   6.365 -0.8329  1.5738 -1.3942
  271MOL0     H36525   3.132   7.375   6.213  1.0079  0.0919  0.3636
  271MOL0     H36526   3.166   7.099   6.348  1.5001  1.0646  0.6602
  271MOL0     H36527   3.222   7.116   6.182  4.6850  1.2277 -0.7424
  271MOL0     H36528   3.406   7.140   6.331  3.7971  1.7366 -1.1469
  271MOL0     H36529   3.387   7.302   6.271  1.4876  0.2989  1.9883
  271MOL0     H36530   3.238   7.307   6.514  0.9962  2.4963 -0.8412
  271MOL0     H36531   3.335   7.163   6.541 -0.6673 -1.0290 -1.2043
  271MOL0     H36532   3.424   7.366   6.644  2.1906  0.7998 -0.0286
  271MOL0     H36533   3.411   7.448   6.498 -2.8871 -0.4972  0.3458
  271MOL0     H36534   3.584   7.198   6.500  0.3273  0.0678 -0.9419
  271MOL0     H36535   3.588   7.337   6.392 -1.7753  1.9068  0.4872
  271MOL0     H36536   3.807   7.220   6.654 -0.5604 -0.2079 -2.0209
  271MOL0     H36537   4.011   7.530   6.784 -0.3572  0.4068  0.5581
  271MOL0     H36538   3.963   7.371   6.843  0.3904  0.0331 -0.8437
  271MOL0     H36539   4.045   7.266   6.631 -0.6438  1.3802 -0.1481
  271MOL0     H36540   4.139   7.422   6.606  1.8900  0.7696  0.7078
  271MOL0     H36541   4.247   7.211   6.717  1.3956  0.6782  0.5175
  271MOL0     H36542   4.152   7.246   6.859  1.8293 -0.6555  0.1322
  271MOL0     H36543   4.259   7.447   6.897  1.4247 -1.6665  0.1336
  271MOL0     H36544   4.343   7.458   6.740  2.4592 -0.7151  1.4944
  271MOL0     H36545   4.652   7.190   6.861  0.3695  0.2237  1.1356
  271MOL0     H36546   4.861   7.283   6.891 -0.9360 -2.2058  0.4881
  271MOL0     H36547   5.198   7.436   6.832  0.6747 -2.9805  1.3939
  271MOL0     H36548   5.425   7.460   6.857 -0.1436  2.0504 -0.4141
  271MOL0     H36549   5.566   7.558   7.304 -1.4970  0.4839 -1.6305
  271MOL0     H36550   5.525   7.387   7.290  1.0112  1.1165  2.4966
  271MOL0     H36551   5.747   7.316   7.215  2.7239 -1.7627  2.2899
  271MOL0     H36552   5.803   7.471   7.175 -1.1177 -0.8513 -1.0091
  271MOL0     H36553   5.770   7.544   7.422  2.3854 -0.2105  2.0300
  271MOL0     H36554   5.749   7.370   7.454  1.0294  1.3628  2.0701
  271MOL0     H36555   6.000   7.494   7.331 -0.9672  0.3961  0.5172
  271MOL0     H36556   5.965   7.335   7.340  0.7270  1.9428 -2.9173
  271MOL0     H36557   6.101   7.410   7.531 -0.8790 -1.8582 -2.5363
  271MOL0     H36558   5.943   7.364   7.608 -1.6322 -0.2939 -0.6304
  271MOL0     H36559   6.004   7.632   7.537 -1.7484  2.7532  2.1945
  271MOL0     H36560   5.883   7.559   7.653  0.2837  0.3363  0.5842
  271MOL0     H36561   6.191   7.559   7.676  0.8980  3.8928  0.3595
  271MOL0     H36562   6.083   7.481   7.782 -1.1463 -0.6131 -0.8643
  271MOL0     H36563   5.976   7.733   7.794 -0.3492 -0.7330  0.4537
  271MOL0     H36564   6.126   7.678   7.886  2.8595  0.5636 -0.7731
  271MOL0     H36565   5.350   7.522   7.290 -0.9386  4.6532  0.1378
  271MOL0     H36566   5.139   7.463   7.254  1.6852  0.8720  0.7430
  271MOL0     H36567   4.689   7.649   7.021 -1.7814  0.1464 -1.4631
  271MOL0     H36568   4.471   7.577   6.942  3.3106  4.5081 -1.4577
  271MOL0     H36569   2.669   7.397   6.396 -0.0540 -2.8451 -1.7842
  271MOL0     H36570   2.432   7.520   6.379 -2.2591  1.7966 -2.2271
  271MOL0     H36571   2.155   7.502   5.868  0.8435  0.5751  1.9751
  271MOL0     H36572   1.940   7.596   5.770  1.1000 -0.2070 -0.9252
  271MOL0     H36573   1.787   7.829   5.642  1.5508  0.1843 -1.1428
  271MOL0     H36574   1.913   7.921   5.724  0.6801 -0.6916  0.1197
  271MOL0     H36575   1.754   8.074   5.676 -0.1925 -0.7262 -0.6995
  271MOL0     H36576   1.762   8.064   5.847 -0.2868  0.6158 -0.0017
  271MOL0     H36577   1.529   8.042   5.836 -1.0847  1.0021 -1.1309
  271MOL0     H36578   1.567   7.877   5.814  0.8452 -0.9345 -2.0229
  271MOL0     H36579   1.540   8.074   5.602  0.8839 -0.7657 -1.9520
  271MOL0     H36580   1.588   7.909   5.571  3.3732  2.3289  0.0653
  271MOL0     H36581   1.178   7.838   5.633 -0.7196  2.0856  1.7295
  271MOL0     H36582   1.920   7.876   6.084  0.3232 -0.0091 -0.0259
  271MOL0     H36583   2.167   7.741   6.305 -1.8897  0.2830  2.3007
  271MOL0     H36584   2.159   7.890   6.222 -0.0009 -0.1821 -2.4050
  271MOL0     H36585   2.022   7.836   6.304 -0.8993 -2.6073  0.7694
  272MOL0     O36586   3.136   4.463   7.332  0.7890  0.8719 -0.2571
  272MOL0     C36587   3.097   4.546   7.255 -0.1667 -1.1174  0.9246
  272MOL0     O36588   3.168   4.648   7.213 -0.8142 -0.0381 -0.4902
  272MOL0     C36589   3.308   4.657   7.233 -0.4665 -0.4873 -0.4147
  272MOL0     C36590   3.398   4.654   7.120 -0.7033  0.2353 -0.1835
  272MOL0     C36591   3.536   4.660   7.146 -0.0341 -0.1976  0.5259
  272MOL0     C36592   3.583   4.679   7.276  0.0337  0.4902 -0.0631
  272MOL0     O36593   3.714   4.700   7.281  0.0689  0.1919  0.0295
  272MOL0     C36594   3.769   4.785   7.379 -0.5994  0.3188 -0.2601
  272MOL0     C36595   3.926   4.785   7.362  0.4714 -0.5024 -0.3686
  272MOL0     C36596   3.986   4.643   7.355  0.0494  0.0568 -0.7733
  272MOL0     C36597   4.005   4.588   7.501  0.2394  0.4438  0.3896
  272MOL0     C36598   4.111   4.477   7.507  0.3766 -0.0616  0.6975
  272MOL0     C36599   4.137   4.445   7.649 -0.1581  0.4584 -0.2230
  272MOL0     C36600   4.224   4.327   7.672 -0.4240 -0.4650 -0.0547
  272MOL0     C36601   4.215   4.288   7.812  0.2342  0.3553 -0.0903
  272MOL0     N36602   4.289   4.167   7.840  0.2861  0.1449 -0.2268
  272MOL0     C36603   4.270   4.044   7.782  0.0490 -0.3094 -0.5201
  272MOL0     C36604   4.376   3.965   7.816 -0.4077  0.1366  0.5200
  272MOL0     C36605   4.405   3.823   7.779  1.0608  0.1475 -0.2349
  272MOL0     C36606   4.520   3.808   7.680  0.6579  0.4657 -0.3295
  272MOL0     C36607   4.524   3.907   7.562  0.4165  0.0201 -0.0123
  272MOL0     C36608   4.598   4.041   7.599 -0.6431 -0.2303 -0.6317
  272MOL0     O36609   4.676   4.101   7.494 -0.0807  0.5126 -0.5537
  272MOL0     C36610   4.796   4.042   7.456  0.1401  0.0679 -0.2176
  272MOL0     C36611   4.878   3.973   7.545  0.2847  0.6952 -0.1564
  272MOL0     C36612   5.001   3.922   7.513  0.0827 -0.0682 -0.4016
  272MOL0     C36613   5.058   3.943   7.383 -0.5701  0.1141  0.3196
  272MOL0     C36614   5.192   3.885   7.343  0.1740 -0.0255  0.1318
  272MOL0     O36615   5.282   3.856   7.435 -0.0072  0.3484  0.3779
  272MOL0     C36616   5.407   3.808   7.410 -0.2034 -0.5093  1.0309
  272MOL0     C36617   5.438   3.679   7.365 -0.2902  0.9904  0.0650
  272MOL0     C36618   5.566   3.623   7.347 -0.1002 -0.0623 -0.7336
  272MOL0     C36619   5.675   3.708   7.382  0.0070  0.7492  0.0694
  272MOL0     O36620   5.815   3.672   7.372  0.2407  1.1657 -0.7307
  272MOL0     C36621   5.857   3.550   7.303  0.1814 -0.3537 -0.9703
  272MOL0     C36622   5.867   3.426   7.405 -0.5354  0.0341  0.1061
  272MOL0     C36623   5.898   3.298   7.328  0.4755  0.3400 -0.9185
  272MOL0     C36624   6.032   3.290   7.268 -0.2932 -1.5149 -0.3072
  272MOL0     C36625   6.055   3.153   7.201  0.0527  0.6530  0.1714
  272MOL0     C36626   6.185   3.150   7.121  0.6435  0.4136 -0.5601
  272MOL0     C36627   6.207   3.013   7.057 -0.7314  0.2913 -1.0987
  272MOL0     C36628   6.280   3.037   6.926  0.7500  0.3324  0.4721
  272MOL0    Cl36629   6.431   3.129   6.954 -0.0537  0.2238 -0.1581
  272MOL0     C36630   5.651   3.841   7.437  0.3695  0.6145 -0.0486
  272MOL0     C36631   5.521   3.890   7.444  0.6621  0.0703 -0.4066
  272MOL0     O36632   5.209   3.872   7.220 -0.6422  0.1281  0.3269
  272MOL0     C36633   4.970   4.007   7.290  0.3291 -0.9574  0.1353
  272MOL0     C36634   4.843   4.058   7.326  0.9397  0.5910  0.1867
  272MOL0     N36635   4.468   4.054   7.885  0.3016 -0.5092  0.6632
  272MOL0     N36636   4.414   4.169   7.897  0.6295  0.3116 -0.3837
  272MOL0     C36637   3.489   4.700   7.381 -0.0862 -1.0614 -0.4911
  272MOL0     C36638   3.353   4.694   7.358 -0.1899 -0.4589 -0.0043
  272MOL0     C36639   2.955   4.546   7.215 -0.0224  0.1657 -0.4034
  272MOL0     C36640   2.910   4.660   7.145  0.5624  0.3822  0.1879
  272MOL0     C36641   2.773   4.684   7.124 -0.3425  0.1225  0.3648
  272MOL0     C36642   2.676   4.595   7.174  0.3577 -0.0379  0.9959
  272MOL0     O36643   2.540   4.631   7.177  0.3662 -0.8940  1.2438
  272MOL0     C36644   2.492   4.759   7.117 -0.5510 -0.3985 -0.3237
  272MOL0     C36645   2.350   4.780   7.154  0.1753 -0.5105 -0.2701
  272MOL0     C36646   2.253   4.670   7.109 -0.1093 -0.5519 -0.2198
  272MOL0     C36647   2.111   4.711   7.141  0.0959 -0.6384 -0.7215
  272MOL0     C36648   2.010   4.606   7.101 -0.4800 -0.1128  0.1470
  272MOL0     C36649   1.923   4.514   7.089 -0.1702 -0.3575  0.3286
  272MOL0     C36650   2.717   4.484   7.245 -0.0074  0.0711 -0.2371
  272MOL0     C36651   2.850   4.449   7.264  0.4533 -0.7440  1.2570
  272MOL0     C36652   2.880   4.325   7.343 -0.5222  1.1932 -0.2255
  272MOL0     H36653   3.362   4.640   7.019  0.6101  3.0208 -1.1386
  272MOL0     H36654   3.603   4.646   7.061  0.7631 -0.1255  1.1310
  272MOL0     H36655   3.727   4.886   7.368 -0.8695  0.3307  0.7074
  272MOL0     H36656   3.752   4.743   7.479  0.3298  1.8311  0.5665
  272MOL0     H36657   3.982   4.840   7.438 -1.7168  0.4406  0.6410
  272MOL0     H36658   3.945   4.821   7.260  3.4930 -3.0801 -0.8810
  272MOL0     H36659   4.085   4.645   7.310  0.3330  0.8021 -0.1286
  272MOL0     H36660   3.928   4.573   7.294 -1.6383  0.4953  0.2519
  272MOL0     H36661   4.036   4.660   7.578  0.4973  1.7819 -0.9156
  272MOL0     H36662   3.909   4.551   7.538  0.2216  1.8966  1.9270
  272MOL0     H36663   4.077   4.390   7.449  2.5597 -2.1007  2.2583
  272MOL0     H36664   4.205   4.507   7.459  0.1535 -1.1593 -0.5048
  272MOL0     H36665   4.170   4.531   7.707 -0.2004 -0.4811  1.2602
  272MOL0     H36666   4.037   4.417   7.685  0.6845 -0.6775  1.3786
  272MOL0     H36667   4.328   4.345   7.642 -0.0694  0.2995  1.5397
  272MOL0     H36668   4.182   4.249   7.608  0.1369  0.6195 -1.8067
  272MOL0     H36669   4.253   4.368   7.876  2.9104 -0.2642 -0.7622
  272MOL0     H36670   4.109   4.277   7.835 -1.6673  1.2138 -6.5428
  272MOL0     H36671   4.176   4.023   7.731 -0.0011 -0.1671 -0.4882
  272MOL0     H36672   4.429   3.769   7.872  0.2608 -0.5353 -0.4191
  272MOL0     H36673   4.313   3.793   7.729  1.9240  1.7894 -3.0092
  272MOL0     H36674   4.613   3.805   7.738  2.1258 -0.5595 -2.6293
  272MOL0     H36675   4.499   3.710   7.636  1.9471 -1.3579  2.7311
  272MOL0     H36676   4.420   3.935   7.542  0.4994 -1.1032 -2.2501
  272MOL0     H36677   4.572   3.867   7.473  0.9206  1.5233 -0.4382
  272MOL0     H36678   4.649   4.032   7.695 -0.0537  0.6368 -0.8505
  272MOL0     H36679   4.525   4.119   7.622 -1.3871 -0.6636 -1.4143
  272MOL0     H36680   4.840   3.954   7.645  1.6626 -2.2376 -0.0872
  272MOL0     H36681   5.062   3.876   7.590  0.9703  0.4509 -0.7880
  272MOL0     H36682   5.361   3.609   7.332  0.0475 -0.2611  1.8143
  272MOL0     H36683   5.574   3.526   7.299  0.5851 -0.4270  0.0985
  272MOL0     H36684   5.795   3.527   7.215  0.6441  0.1414 -1.4322
  272MOL0     H36685   5.959   3.567   7.267  0.2409 -2.3614 -1.8512
  272MOL0     H36686   5.940   3.457   7.481  1.6010 -0.2420 -1.7311
  272MOL0     H36687   5.770   3.414   7.454  0.4683 -0.5626  2.0721
  272MOL0     H36688   5.873   3.216   7.394  0.9733  0.4073 -0.6398
  272MOL0     H36689   5.826   3.297   7.245 -0.1310  1.4951 -0.4342
  272MOL0     H36690   6.103   3.304   7.350 -1.2920 -0.3080  0.3744
  272MOL0     H36691   6.044   3.374   7.199 -0.7628 -2.1846 -1.2099
  272MOL0     H36692   5.976   3.138   7.127 -0.5251  0.3135  0.8470
  272MOL0     H36693   6.052   3.072   7.274 -2.8208 -0.0850 -0.6473
  272MOL0     H36694   6.175   3.228   7.045  0.0293  0.0876 -0.8270
  272MOL0     H36695   6.272   3.167   7.186 -0.5943  2.0576  0.7473
  272MOL0     H36696   6.118   2.954   7.035  0.4963 -3.0078  1.8881
  272MOL0     H36697   6.263   2.958   7.133  1.9446  2.2684 -1.4794
  272MOL0     H36698   6.301   2.938   6.882 -2.3449 -2.1996  4.0839
  272MOL0     H36699   6.219   3.090   6.852 -1.5853 -2.9052 -0.1465
  272MOL0     H36700   5.735   3.900   7.473  0.9555 -0.8676  1.0935
  272MOL0     H36701   5.506   3.993   7.473  0.6871 -0.0150 -0.0915
  272MOL0     H36702   4.995   4.024   7.186 -2.3260  2.4281 -0.1149
  272MOL0     H36703   4.784   4.103   7.246  2.6279  0.3111 -1.2803
  272MOL0     H36704   3.523   4.729   7.479 -1.4869  0.8371 -0.5046
  272MOL0     H36705   3.269   4.697   7.426 -1.8791 -0.4897 -2.0030
  272MOL0     H36706   2.976   4.737   7.107 -0.5581  1.2538 -0.0287
  272MOL0     H36707   2.746   4.781   7.083 -1.0036 -0.2866 -0.2026
  272MOL0     H36708   2.499   4.751   7.008 -0.7776  0.5950 -0.4205
  272MOL0     H36709   2.561   4.837   7.151 -0.3665 -1.0203  0.7431
  272MOL0     H36710   2.321   4.874   7.105 -0.8411 -1.2807 -1.1856
  272MOL0     H36711   2.335   4.791   7.262 -2.4035  0.3757 -0.6488
  272MOL0     H36712   2.280   4.578   7.161 -0.2759  0.8601  2.5367
  272MOL0     H36713   2.255   4.644   7.002 -2.8176 -1.3483 -0.1655
  272MOL0     H36714   2.108   4.745   7.245  1.5934 -0.3887 -0.7273
  272MOL0     H36715   2.076   4.801   7.089  1.6225  1.1411  1.1305
  272MOL0     H36716   1.863   4.426   7.096 -3.4376  1.5849 -1.0669
  272MOL0     H36717   2.640   4.413   7.275  1.1337 -1.3497 -0.5332
  272MOL0     H36718   2.970   4.269   7.315 -1.2802 -0.1393 -0.0809
  272MOL0     H36719   2.889   4.353   7.448  2.1147  2.3169 -0.6674
  272MOL0     H36720   2.796   4.256   7.332 -0.5958  1.0967  0.8316
  273MOL0     O36721   5.831   8.014   0.722 -0.3243 -0.5348  0.6107
  273MOL0     C36722   5.796   7.984   0.833 -0.1168 -0.8171 -0.1953
  273MOL0     O36723   5.866   7.909   0.920  0.4239 -0.1466  0.4817
  273MOL0     C36724   5.992   7.859   0.883  0.7244  0.4734  0.5007
  273MOL0     C36725   6.092   7.914   0.800 -0.9104  0.2259  0.1998
  273MOL0     C36726   6.207   7.837   0.755  0.2993 -0.0158 -1.0308
  273MOL0     C36727   6.223   7.706   0.797 -0.9603  0.1301  0.0581
  273MOL0     O36728   6.319   7.630   0.738 -0.4368  0.4553 -0.1155
  273MOL0     C36729   6.428   7.589   0.820 -0.3488  0.6909  0.0638
  273MOL0     C36730   6.556   7.628   0.748 -0.4258  0.1355 -0.3977
  273MOL0     C36731   6.673   7.550   0.810  0.9714 -0.8377 -0.4637
  273MOL0     C36732   6.806   7.581   0.741  0.1087 -0.9605 -0.0533
  273MOL0     C36733   6.919   7.553   0.841  0.1161 -0.5084 -0.2398
  273MOL0     C36734   7.056   7.588   0.787 -0.0400 -0.6148  0.3213
  273MOL0     C36735   7.116   7.466   0.717  0.6302 -0.0856  0.1809
  273MOL0     C36736   7.256   7.498   0.656  1.1811 -0.8478  0.5394
  273MOL0     N36737   7.357   7.562   0.751  0.6040  0.3945  0.1468
  273MOL0     C36738   7.401   7.695   0.732 -0.2091 -0.8053 -0.6051
  273MOL0     C36739   7.519   7.713   0.805 -0.2344 -0.2655 -0.0995
  273MOL0     C36740   7.595   7.844   0.816  0.0413 -0.3736  0.0249
  273MOL0     C36741   7.702   7.860   0.701  0.1565  0.3444 -0.6759
  273MOL0     C36742   7.665   7.934   0.573 -0.0335  0.6519 -0.6155
  273MOL0     C36743   7.727   7.887   0.439 -0.5652 -0.1904  0.7865
  273MOL0     O36744   7.739   8.011   0.359 -0.6083  0.1668 -0.4487
  273MOL0     C36745   7.619   8.057   0.309  0.4628  0.3293 -0.0781
  273MOL0     C36746   7.615   8.186   0.254  0.3808 -0.2805  0.2764
  273MOL0     C36747   7.495   8.242   0.206 -0.3914  0.1638  0.2870
  273MOL0     C36748   7.377   8.163   0.207  0.4786  0.0164  0.2875
  273MOL0     C36749   7.244   8.212   0.148 -0.1023 -0.7178 -0.2922
  273MOL0     O36750   7.127   8.133   0.165 -0.4577 -0.7553 -0.1218
  273MOL0     C36751   7.009   8.188   0.131  0.1366 -0.0444  0.4285
  273MOL0     C36752   6.952   8.287   0.203  1.4542  0.7989 -0.0515
  273MOL0     C36753   6.830   8.353   0.158 -0.7186  0.1222  0.7625
  273MOL0     C36754   6.767   8.316   0.036  0.0752  0.2816 -0.2073
  273MOL0     O36755   6.642   8.370  -0.000 -0.0711 -0.8491 -0.5658
  273MOL0     C36756   6.583   8.335  -0.123 -0.0311 -0.3128  0.0913
  273MOL0     C36757   6.468   8.429  -0.171 -0.4815  0.5668  0.0283
  273MOL0     C36758   6.333   8.420  -0.104 -0.1631 -0.6360  0.1769
  273MOL0     C36759   6.219   8.450  -0.191 -0.3310 -0.3811  0.2837
  273MOL0     C36760   6.101   8.502  -0.118  0.7424  0.3985 -0.7923
  273MOL0     C36761   5.975   8.504  -0.200 -0.1115 -0.4883  0.7261
  273MOL0     C36762   5.858   8.562  -0.128 -0.2501 -0.1445 -0.1095
  273MOL0     C36763   5.852   8.712  -0.117 -0.7919 -0.1808  0.8105
  273MOL0    Cl36764   6.012   8.797  -0.146  0.0057  0.0643  0.1637
  273MOL0     C36765   6.842   8.215  -0.040 -0.1410 -0.0800  0.0702
  273MOL0     C36766   6.956   8.147   0.012 -0.5138  0.5673  0.9699
  273MOL0     O36767   7.246   8.331   0.106 -0.9536  0.6486  0.1421
  273MOL0     C36768   7.381   8.038   0.256  0.1288  1.1149  0.1626
  273MOL0     C36769   7.503   7.984   0.303  0.1443 -0.7668  0.1954
  273MOL0     N36770   7.559   7.592   0.853  0.1659  0.3396  0.7426
  273MOL0     N36771   7.461   7.501   0.816 -0.1093  0.2727  0.4327
  273MOL0     C36772   6.127   7.657   0.890  0.3032 -0.0831  0.2873
  273MOL0     C36773   6.020   7.737   0.933 -0.7550 -0.4013  0.0083
  273MOL0     C36774   5.660   8.027   0.872  1.2352  0.0925 -0.5937
  273MOL0     C36775   5.594   8.126   0.789  0.4907  0.8646 -0.9706
  273MOL0     C36776   5.463   8.159   0.813  0.0917  0.5657 -1.7477
  273MOL0     C36777   5.398   8.109   0.932 -0.5623  0.6452  0.7016
  273MOL0     O36778   5.267   8.128   0.959  0.3109  0.4405  0.2463
  273MOL0     C36779   5.178   8.132   0.854  0.7677  0.0531 -0.0188
  273MOL0     C36780   5.059   8.037   0.879  0.0653  0.8564 -0.4642
  273MOL0     C36781   4.947   8.069   0.784  0.2240 -0.9066  0.0200
  273MOL0     C36782   4.885   8.198   0.741 -0.1138 -0.9758 -0.2520
  273MOL0     C36783   4.838   8.277   0.859  0.2282  0.5436  0.3870
  273MOL0     C36784   4.820   8.327   0.971 -0.2497 -0.3662  0.4434
  273MOL0     C36785   5.460   8.017   1.015 -0.2220  0.5927  0.2023
  273MOL0     C36786   5.586   7.968   0.977 -0.2168 -0.9057  0.9810
  273MOL0     C36787   5.627   7.848   1.058 -0.1451  0.2461 -0.1819
  273MOL0     H36788   6.082   8.021   0.779  0.4434  0.4675  0.7157
  273MOL0     H36789   6.290   7.887   0.706  1.1789  3.9962  3.7137
  273MOL0     H36790   6.430   7.622   0.925  0.2680  0.2509  0.2044
  273MOL0     H36791   6.428   7.480   0.830  0.5999  0.6921  0.1980
  273MOL0     H36792   6.566   7.737   0.750 -0.2173  0.3156 -4.1993
  273MOL0     H36793   6.546   7.599   0.643  2.4253 -2.1788 -0.1573
  273MOL0     H36794   6.663   7.441   0.816  2.2643 -0.9630 -0.4193
  273MOL0     H36795   6.683   7.574   0.917 -0.2859 -1.4332 -0.1886
  273MOL0     H36796   6.808   7.513   0.656  3.5150  0.2646 -1.1258
  273MOL0     H36797   6.807   7.688   0.717 -0.0270 -0.8898  0.2565
  273MOL0     H36798   6.892   7.615   0.928  0.3670 -0.6212 -0.0816
  273MOL0     H36799   6.915   7.452   0.882 -0.3310 -0.9004 -1.2200
  273MOL0     H36800   7.040   7.670   0.717 -1.6755 -1.1882 -0.0143
  273MOL0     H36801   7.112   7.620   0.875 -0.6241  2.6644 -0.3885
  273MOL0     H36802   7.040   7.447   0.641  0.0422 -4.0839  1.5456
  273MOL0     H36803   7.115   7.373   0.773 -1.3873 -0.4888 -0.4489
  273MOL0     H36804   7.297   7.420   0.592  0.7705 -0.0655 -0.7214
  273MOL0     H36805   7.235   7.578   0.584  1.5696 -1.1857  0.0482
  273MOL0     H36806   7.350   7.770   0.673  1.0547  0.0558 -0.6291
  273MOL0     H36807   7.528   7.929   0.834  0.9063  0.6941 -1.5570
  273MOL0     H36808   7.652   7.831   0.908 -0.1007 -0.9084  0.0440
  273MOL0     H36809   7.796   7.902   0.737 -0.1223  0.7481 -0.4137
  273MOL0     H36810   7.732   7.757   0.681  3.2729  1.4322 -2.1022
  273MOL0     H36811   7.702   8.035   0.592  0.8760 -0.2236  2.8942
  273MOL0     H36812   7.559   7.945   0.548  0.1265 -0.8111 -2.0897
  273MOL0     H36813   7.676   7.806   0.388 -1.1474 -0.2182  1.4021
  273MOL0     H36814   7.825   7.840   0.452  1.1876  2.9978  0.1649
  273MOL0     H36815   7.700   8.253   0.262 -1.6636  2.4026  1.3938
  273MOL0     H36816   7.490   8.340   0.158 -1.1941 -0.2466 -0.5012
  273MOL0     H36817   6.997   8.316   0.297  1.9848 -1.8886  0.6136
  273MOL0     H36818   6.785   8.437   0.212 -3.1533 -0.4579 -0.2269
  273MOL0     H36819   6.651   8.337  -0.208 -0.1129  3.0820 -0.0390
  273MOL0     H36820   6.543   8.235  -0.104 -3.8314  1.2661  1.3978
  273MOL0     H36821   6.512   8.529  -0.165  0.5491  0.0475  1.6497
  273MOL0     H36822   6.440   8.396  -0.272 -0.2167 -1.0298  0.4513
  273MOL0     H36823   6.328   8.317  -0.068  0.3258 -1.3117 -1.5770
  273MOL0     H36824   6.342   8.496  -0.026 -1.0144 -0.1231 -0.2078
  273MOL0     H36825   6.193   8.353  -0.236 -1.0463  0.0428 -0.2517
  273MOL0     H36826   6.243   8.511  -0.279 -0.8440  0.1295  0.4874
  273MOL0     H36827   6.126   8.598  -0.072 -0.5185 -0.6203  2.2721
  273MOL0     H36828   6.088   8.435  -0.033 -1.5729  1.7108 -0.0436
  273MOL0     H36829   6.011   8.564  -0.285 -0.4460  1.0567  1.6382
  273MOL0     H36830   5.939   8.405  -0.228 -4.3983  1.3831 -1.2804
  273MOL0     H36831   5.844   8.514  -0.030  0.6512 -1.7073 -0.6999
  273MOL0     H36832   5.763   8.525  -0.168 -1.3672 -1.1161  3.0826
  273MOL0     H36833   5.790   8.748  -0.200  0.2239  0.3987  0.2773
  273MOL0     H36834   5.810   8.754  -0.025  1.8353  1.4575  1.3956
  273MOL0     H36835   6.811   8.183  -0.139  1.9350 -1.9623 -0.0501
  273MOL0     H36836   6.999   8.066  -0.046 -0.8534 -1.1073  2.9455
  273MOL0     H36837   7.289   7.980   0.254  0.9457 -0.2347 -1.6293
  273MOL0     H36838   7.483   7.881   0.331 -1.5304 -0.7936 -0.9390
  273MOL0     H36839   6.121   7.559   0.935  1.0443  1.4999  4.2474
  273MOL0     H36840   5.950   7.692   1.002  0.2214  0.8868  1.9064
  273MOL0     H36841   5.655   8.180   0.717  2.1967 -0.6726 -0.7664
  273MOL0     H36842   5.410   8.229   0.748  0.1371  2.1408 -0.1512
  273MOL0     H36843   5.216   8.122   0.752  1.2372 -0.5072  0.2128
  273MOL0     H36844   5.135   8.233   0.854 -0.3408 -0.3966 -0.5875
  273MOL0     H36845   5.024   8.054   0.981 -2.0112  0.0334 -0.9849
  273MOL0     H36846   5.094   7.934   0.871 -0.4008  0.7528 -1.2733
  273MOL0     H36847   4.863   8.011   0.824  0.1894 -0.7866  0.1246
  273MOL0     H36848   4.980   8.026   0.689 -0.4522  0.7489 -1.0008
  273MOL0     H36849   4.952   8.265   0.685 -0.7619 -0.9535 -1.0154
  273MOL0     H36850   4.794   8.177   0.684 -4.4097 -3.4132  6.3297
  273MOL0     H36851   4.812   8.386   1.060  2.9120  0.5840  0.2039
  273MOL0     H36852   5.402   7.970   1.094  1.3456 -2.7904 -0.4375
  273MOL0     H36853   5.546   7.810   1.121  0.7103  0.4683  1.0987
  273MOL0     H36854   5.665   7.772   0.990  1.8425 -0.2380  1.3611
  273MOL0     H36855   5.704   7.874   1.131  0.6971  2.6267 -1.8011
  274MOL0     O36856   8.355   7.452   3.694 -0.2233  0.0259 -0.1175
  274MOL0     C36857   8.440   7.547   3.687 -0.4050 -0.1082  0.0815
  274MOL0     O36858   8.419   7.674   3.709  1.0572 -0.1515  0.4825
  274MOL0     C36859   8.296   7.718   3.750 -0.2219 -0.9841  0.2804
  274MOL0     C36860   8.261   7.854   3.724  0.6262  0.0508  0.2223
  274MOL0     C36861   8.134   7.903   3.761  0.0747  0.4621 -0.8527
  274MOL0     C36862   8.043   7.829   3.829 -0.4748  0.2089 -0.3443
  274MOL0     O36863   7.921   7.875   3.884  0.5436  0.1045 -0.1643
  274MOL0     C36864   7.871   7.989   3.823  0.1769  0.6191 -0.0704
  274MOL0     C36865   7.744   8.035   3.904 -0.1133 -0.1679  0.2422
  274MOL0     C36866   7.645   8.105   3.810  0.3939  0.4720  0.5439
  274MOL0     C36867   7.519   8.155   3.892 -0.6534  0.5504  0.5426
  274MOL0     C36868   7.430   8.236   3.785 -0.0491 -0.0280 -0.0252
  274MOL0     C36869   7.306   8.292   3.860 -0.3544  0.2777  0.8845
  274MOL0     C36870   7.234   8.399   3.783 -0.7632  0.0011  0.6003
  274MOL0     C36871   7.179   8.364   3.640  0.8355 -0.7170  0.4137
  274MOL0     N36872   7.102   8.487   3.599  0.0535  0.3201 -0.3611
  274MOL0     C36873   6.996   8.544   3.665 -0.1021  0.1200  1.1242
  274MOL0     C36874   6.970   8.662   3.596  0.5768  0.6947 -0.2428
  274MOL0     C36875   6.873   8.775   3.621 -0.2111 -0.4291 -0.0271
  274MOL0     C36876   6.921   8.814   3.759  0.2628  1.0864 -0.0543
  274MOL0     C36877   6.885   8.964   3.795 -0.9796 -0.3109  0.2958
  274MOL0     C36878   6.731   8.989   3.817 -0.6182  0.4811  0.2174
  274MOL0     O36879   6.702   9.115   3.890 -0.3041  0.1985  0.3380
  274MOL0     C36880   6.573   9.122   3.946  0.2166 -1.3618  0.9004
  274MOL0     C36881   6.545   9.222   4.043  0.3145  0.0526 -0.5021
  274MOL0     C36882   6.416   9.222   4.113  0.2453  0.5438 -0.0876
  274MOL0     C36883   6.310   9.136   4.073  0.2708 -0.5828  0.2623
  274MOL0     C36884   6.178   9.144   4.150  0.9956  0.2450 -0.7837
  274MOL0     O36885   6.075   9.047   4.116 -0.5285 -0.0021 -1.5007
  274MOL0     C36886   5.944   9.079   4.162 -0.5816  0.6889 -0.3418
  274MOL0     C36887   5.889   8.980   4.244  0.8716 -0.4317  0.7759
  274MOL0     C36888   5.754   8.990   4.280  0.3704  0.3239  0.2612
  274MOL0     C36889   5.677   9.104   4.239  0.5754  0.4592  0.2448
  274MOL0     O36890   5.545   9.120   4.257  0.0690 -0.0050 -0.3654
  274MOL0     C36891   5.480   9.063   4.370 -0.4559 -0.7516  0.3328
  274MOL0     C36892   5.351   9.128   4.388 -0.4151  0.1421 -1.4992
  274MOL0     C36893   5.282   9.067   4.509 -0.0465 -1.1620 -0.3584
  274MOL0     C36894   5.358   9.111   4.641  0.1328 -1.0906 -0.0908
  274MOL0     C36895   5.271   9.095   4.760 -0.6041  0.0526  0.0857
  274MOL0     C36896   5.158   9.188   4.790 -0.0594 -0.4308 -0.8572
  274MOL0     C36897   5.115   9.169   4.938 -0.0136  0.5211 -0.4009
  274MOL0     C36898   4.998   9.243   4.982  0.1655 -0.8992  0.5569
  274MOL0    Cl36899   4.985   9.211   5.156  0.1137  0.6920 -0.2356
  274MOL0     C36900   5.738   9.199   4.156 -0.6118  0.3543 -0.0677
  274MOL0     C36901   5.875   9.197   4.122  0.0477  0.0992 -0.1438
  274MOL0     O36902   6.165   9.223   4.245 -0.5255  0.1860  0.4502
  274MOL0     C36903   6.336   9.057   3.961  0.1427 -0.0368 -0.3087
  274MOL0     C36904   6.463   9.040   3.897 -0.7864 -1.1895  0.3548
  274MOL0     N36905   7.057   8.658   3.483  0.2689 -0.4043  0.2800
  274MOL0     N36906   7.137   8.558   3.486 -0.1172 -0.1241 -0.7462
  274MOL0     C36907   8.077   7.703   3.866 -0.4372  0.0057 -0.2626
  274MOL0     C36908   8.204   7.650   3.838 -0.7960  0.2174  0.5820
  274MOL0     C36909   8.583   7.508   3.659  0.0775 -0.0268  0.0661
  274MOL0     C36910   8.603   7.382   3.603  0.1289  0.1352  0.2192
  274MOL0     C36911   8.731   7.340   3.586 -0.2364 -0.3951  0.2058
  274MOL0     C36912   8.839   7.425   3.601  0.1180 -0.4561  0.1328
  274MOL0     O36913   8.963   7.378   3.576  0.8222  0.1426 -0.9508
  274MOL0     C36914   9.085   7.456   3.580 -0.0600  0.6715  0.8523
  274MOL0     C36915   9.098   7.549   3.450 -0.1145 -0.8613  0.5140
  274MOL0     C36916   9.239   7.598   3.430 -1.2164 -0.0105  0.3498
  274MOL0     C36917   9.256   7.684   3.299 -0.9228  0.0541 -0.4306
  274MOL0     C36918   9.398   7.707   3.256 -0.7494 -0.3640  0.7800
  274MOL0     C36919   9.518   7.717   3.230  0.3562 -0.0131  0.8525
  274MOL0     C36920   8.820   7.555   3.658  0.7256  1.5877  0.6414
  274MOL0     C36921   8.699   7.592   3.695 -0.3080 -1.0989  0.9789
  274MOL0     C36922   8.694   7.715   3.779 -0.4998  0.1648  0.4081
  274MOL0     H36923   8.329   7.925   3.677 -0.7444  1.6231  0.5159
  274MOL0     H36924   8.114   8.008   3.741  1.4533  1.4980  2.4886
  274MOL0     H36925   7.943   8.071   3.827 -1.5743  2.1938  1.4676
  274MOL0     H36926   7.847   7.958   3.721 -0.4608  1.4873 -0.1943
  274MOL0     H36927   7.780   8.089   3.991 -0.5302 -0.1941  0.4359
  274MOL0     H36928   7.693   7.943   3.937 -0.3701 -0.9723 -2.2035
  274MOL0     H36929   7.608   8.043   3.728 -3.6338  2.2653  0.7376
  274MOL0     H36930   7.694   8.184   3.753 -1.0359  0.9845 -0.0216
  274MOL0     H36931   7.470   8.067   3.935  1.8630 -0.6354  1.1577
  274MOL0     H36932   7.559   8.211   3.977  4.6199  1.0098 -1.8019
  274MOL0     H36933   7.489   8.322   3.752 -1.7289  1.1211 -0.1329
  274MOL0     H36934   7.407   8.182   3.693  2.9932  0.7772 -1.3824
  274MOL0     H36935   7.242   8.204   3.873  1.5807 -1.6407 -1.4818
  274MOL0     H36936   7.340   8.335   3.954  0.1215 -0.1563  0.9162
  274MOL0     H36937   7.296   8.488   3.793  1.1168 -1.1808  0.0619
  274MOL0     H36938   7.141   8.416   3.839 -0.1807  1.4306  1.1660
  274MOL0     H36939   7.256   8.343   3.565 -0.4121 -0.9504 -0.8474
  274MOL0     H36940   7.110   8.280   3.629  0.1639 -0.0808 -0.3762
  274MOL0     H36941   6.948   8.524   3.760  1.7719  0.9035  2.2980
  274MOL0     H36942   6.871   8.851   3.543  2.5476  0.3687  0.5891
  274MOL0     H36943   6.771   8.737   3.635 -1.1783  1.0897 -2.3005
  274MOL0     H36944   6.872   8.745   3.828 -1.9541  0.0057 -2.5144
  274MOL0     H36945   7.030   8.806   3.766  0.1835  0.2893  0.3156
  274MOL0     H36946   6.915   9.025   3.710 -1.6305 -0.5228 -0.0927
  274MOL0     H36947   6.939   8.986   3.888  0.3018  4.7629 -1.3393
  274MOL0     H36948   6.699   8.902   3.875 -1.4575 -0.9679 -2.2779
  274MOL0     H36949   6.679   8.984   3.721 -0.3962 -1.9117  0.1477
  274MOL0     H36950   6.619   9.301   4.053 -0.7383  1.0798 -0.5147
  274MOL0     H36951   6.409   9.289   4.198  2.0817 -0.9211  1.2986
  274MOL0     H36952   5.956   8.899   4.271 -0.6659 -1.9133  0.3214
  274MOL0     H36953   5.703   8.927   4.352  0.3505 -0.8327 -0.7341
  274MOL0     H36954   5.476   8.958   4.343  1.6752 -0.8765  0.3398
  274MOL0     H36955   5.544   9.078   4.458  0.7263 -2.0288 -0.2735
  274MOL0     H36956   5.354   9.237   4.400  0.4793 -0.0592  0.7154
  274MOL0     H36957   5.282   9.109   4.306  0.5290 -0.9440 -2.0761
  274MOL0     H36958   5.175   9.085   4.523  0.3500  0.0290  1.7283
  274MOL0     H36959   5.285   8.959   4.498 -0.3626 -1.1643 -0.4327
  274MOL0     H36960   5.394   9.214   4.646  1.1064 -1.4879  2.1115
  274MOL0     H36961   5.449   9.052   4.654  0.8358 -0.5372 -2.0329
  274MOL0     H36962   5.330   9.102   4.852 -1.2720  1.0489  0.4630
  274MOL0     H36963   5.223   8.998   4.748  1.1711 -0.6538 -1.7665
  274MOL0     H36964   5.178   9.292   4.764 -1.8871  0.4638  1.0050
  274MOL0     H36965   5.074   9.165   4.724 -0.2298  3.7912 -2.4312
  274MOL0     H36966   5.196   9.208   5.001 -1.2461 -1.4032  2.6183
  274MOL0     H36967   5.097   9.062   4.952 -2.4866  0.8372 -0.8252
  274MOL0     H36968   5.016   9.351   4.970 -0.1918 -0.9783 -0.8708
  274MOL0     H36969   4.905   9.221   4.929 -1.6897  3.9493  1.2678
  274MOL0     H36970   5.690   9.288   4.119 -0.6339  0.2798 -0.2176
  274MOL0     H36971   5.916   9.267   4.050 -0.0412 -0.8185 -1.1052
  274MOL0     H36972   6.253   8.993   3.931  0.6744 -3.5311  4.5130
  274MOL0     H36973   6.464   8.969   3.816 -1.3852  0.7300 -1.4156
  274MOL0     H36974   8.015   7.638   3.928  1.6198 -2.0435 -0.2121
  274MOL0     H36975   8.219   7.546   3.865 -0.7362 -0.1351 -0.7627
  274MOL0     H36976   8.519   7.318   3.579  1.6125 -1.7589 -0.1003
  274MOL0     H36977   8.755   7.239   3.554  1.1749 -0.3769  1.1452
  274MOL0     H36978   9.162   7.379   3.577 -1.6077 -0.9274 -0.0183
  274MOL0     H36979   9.100   7.513   3.672  1.7692  0.9298  0.4289
  274MOL0     H36980   9.025   7.628   3.469 -0.1639 -1.3505  2.5105
  274MOL0     H36981   9.065   7.483   3.368  0.1122 -0.1205 -0.1877
  274MOL0     H36982   9.309   7.519   3.401 -3.8530 -1.8124 -1.6272
  274MOL0     H36983   9.267   7.657   3.518 -1.1831  1.1345 -0.4143
  274MOL0     H36984   9.198   7.643   3.215 -1.1062 -0.6382  0.0242
  274MOL0     H36985   9.228   7.789   3.311  1.0089  0.4437  1.2843
  274MOL0     H36986   9.623   7.712   3.208  0.5673  2.5335  0.9495
  274MOL0     H36987   8.901   7.620   3.691 -0.6282  2.5292  2.2492
  274MOL0     H36988   8.778   7.713   3.849 -0.2792 -1.5647  0.1420
  274MOL0     H36989   8.675   7.803   3.718 -0.4384 -0.4983 -0.5824
  274MOL0     H36990   8.610   7.726   3.847 -2.2880 -1.8331 -1.3266
  275MOL0     O36991   0.347   4.600   3.933 -0.2601 -0.0608  0.5400
  275MOL0     C36992   0.303   4.710   3.956 -1.0543  0.5742 -0.6486
  275MOL0     O36993   0.373   4.822   3.969 -0.0275  0.5822 -0.2035
  275MOL0     C36994   0.497   4.816   3.911  0.2575 -0.2706 -0.9941
  275MOL0     C36995   0.600   4.768   3.996  0.3006 -0.3631  0.4929
  275MOL0     C36996   0.730   4.782   3.947  0.8887  0.1279 -0.5173
  275MOL0     C36997   0.761   4.847   3.832  0.1602  0.1441  0.3069
  275MOL0     O36998   0.884   4.863   3.777  0.6079  0.5576  0.3199
  275MOL0     C36999   0.996   4.792   3.827  0.0275  0.5153  0.9185
  275MOL0     C37000   1.097   4.818   3.717  0.0450 -0.8270 -0.0917
  275MOL0     C37001   1.218   4.726   3.719  0.7235  0.6248  0.0321
  275MOL0     C37002   1.326   4.757   3.616  0.3966 -0.0090 -0.0182
  275MOL0     C37003   1.470   4.705   3.630  0.0144 -0.0826 -0.7039
  275MOL0     C37004   1.478   4.548   3.634  0.5713  0.2573 -0.1079
  275MOL0     C37005   1.620   4.499   3.660  0.5158 -0.1345 -0.8579
  275MOL0     C37006   1.723   4.556   3.562  0.1212  0.2817  0.5542
  275MOL0     N37007   1.860   4.519   3.585 -0.9798  0.3794 -0.5079
  275MOL0     C37008   1.906   4.391   3.612 -0.3186  0.0168 -0.0622
  275MOL0     C37009   2.027   4.412   3.672  0.7284  0.1506  0.3306
  275MOL0     C37010   2.105   4.302   3.740  0.6519  0.7544 -1.2432
  275MOL0     C37011   2.070   4.301   3.887  0.1266  0.3814 -0.0411
  275MOL0     C37012   2.100   4.163   3.953 -0.1570  0.5682 -0.2441
  275MOL0     C37013   2.052   4.156   4.100  0.0022  0.3711 -1.1737
  275MOL0     O37014   2.109   4.257   4.184  0.1362  0.6436 -0.6427
  275MOL0     C37015   2.242   4.237   4.230 -0.5529  0.0545  0.0254
  275MOL0     C37016   2.320   4.127   4.186  1.0278 -0.6802 -0.0900
  275MOL0     C37017   2.448   4.116   4.228  0.3027  0.7277 -0.4874
  275MOL0     C37018   2.514   4.204   4.311  0.2277 -0.0517 -0.7572
  275MOL0     C37019   2.655   4.203   4.351  0.9325 -0.6148  0.2091
  275MOL0     O37020   2.713   4.085   4.334  0.1216  0.1884  0.1282
  275MOL0     C37021   2.847   4.067   4.347 -0.7719 -0.5828  0.3047
  275MOL0     C37022   2.939   4.140   4.429 -0.4692  0.4061  0.4669
  275MOL0     C37023   3.074   4.116   4.407  0.5502  0.3960  0.3041
  275MOL0     C37024   3.128   4.014   4.324 -0.2258  0.1457  0.0748
  275MOL0     O37025   3.261   4.020   4.307  0.1622 -0.2394 -1.0498
  275MOL0     C37026   3.315   3.921   4.221 -0.1462  0.7797  0.8683
  275MOL0     C37027   3.454   3.965   4.173 -0.2281 -0.4129  0.1968
  275MOL0     C37028   3.546   3.855   4.126 -0.0843 -0.2549 -0.0040
  275MOL0     C37029   3.683   3.901   4.073 -0.4944 -0.2001 -0.2189
  275MOL0     C37030   3.773   3.928   4.188  0.0207 -0.0359 -0.6138
  275MOL0     C37031   3.905   3.947   4.118  0.1763 -0.4453  0.2405
  275MOL0     C37032   4.024   4.001   4.204  0.3435  0.4589  0.7027
  275MOL0     C37033   4.156   4.026   4.123  0.2618  0.1207  1.0190
  275MOL0    Cl37034   4.272   4.114   4.216 -0.2415 -0.0332 -0.4359
  275MOL0     C37035   3.034   3.923   4.273 -0.2028  0.1394  0.4145
  275MOL0     C37036   2.895   3.955   4.274 -0.0340  0.0546 -0.2000
  275MOL0     O37037   2.711   4.307   4.394 -0.2307 -0.8365 -0.6532
  275MOL0     C37038   2.443   4.311   4.348  0.0533 -0.6720  0.4075
  275MOL0     C37039   2.310   4.327   4.313 -0.8421 -0.2248  0.7800
  275MOL0     N37040   2.060   4.542   3.658 -0.5967  0.0019  0.3112
  275MOL0     N37041   1.957   4.608   3.619 -0.2929  0.2020 -0.3859
  275MOL0     C37042   0.657   4.903   3.751 -0.0074  0.4260 -0.5241
  275MOL0     C37043   0.527   4.886   3.793 -0.1485 -0.6387  0.3133
  275MOL0     C37044   0.161   4.711   3.989 -0.8135  0.4549 -0.1961
  275MOL0     C37045   0.117   4.814   4.076  0.1850  0.1410  0.1739
  275MOL0     C37046  -0.022   4.822   4.105  0.0840 -0.6007 -0.4192
  275MOL0     C37047  -0.116   4.731   4.052 -0.0271 -0.5154 -1.1344
  275MOL0     O37048  -0.248   4.742   4.089 -0.4426  0.3832 -0.3782
  275MOL0     C37049  -0.349   4.683   4.015  0.7134 -0.2706 -0.5986
  275MOL0     C37050  -0.385   4.547   4.064 -0.1549 -0.1956 -0.6600
  275MOL0     C37051  -0.463   4.550   4.197 -0.3691  0.2286  0.1790
  275MOL0     C37052  -0.498   4.417   4.269 -0.1471 -0.6364  0.1131
  275MOL0     C37053  -0.580   4.323   4.203 -0.3739  0.2818 -0.6944
  275MOL0     C37054  -0.650   4.241   4.160  0.2012  0.2874  0.8551
  275MOL0     C37055  -0.070   4.635   3.956  0.2637 -0.2537 -0.2801
  275MOL0     C37056   0.062   4.623   3.930 -0.5200 -0.2691 -0.2398
  275MOL0     C37057   0.099   4.532   3.817 -0.1556  0.9707 -0.6435
  275MOL0     H37058   0.581   4.717   4.090  0.2934 -2.1276 -0.4251
  275MOL0     H37059   0.804   4.733   4.008  1.9235  2.8158  0.5535
  275MOL0     H37060   1.029   4.838   3.920 -0.5512 -0.6116  1.7057
  275MOL0     H37061   0.977   4.687   3.851  0.5768 -0.4170 -2.2685
  275MOL0     H37062   1.130   4.922   3.727 -0.8894 -0.5234 -0.0820
  275MOL0     H37063   1.054   4.792   3.619 -0.1327  1.8050 -0.7763
  275MOL0     H37064   1.180   4.624   3.706 -1.0407  1.3425 -0.7661
  275MOL0     H37065   1.269   4.722   3.816 -1.1371 -4.3135  1.1448
  275MOL0     H37066   1.297   4.722   3.516  0.6914  0.1204 -0.1516
  275MOL0     H37067   1.336   4.865   3.604 -3.4007  0.4361 -0.2176
  275MOL0     H37068   1.542   4.750   3.561  0.0130  1.2800  0.1286
  275MOL0     H37069   1.508   4.740   3.727  0.8886 -1.7023 -0.4278
  275MOL0     H37070   1.412   4.528   3.718  4.3696 -0.6233  2.9438
  275MOL0     H37071   1.431   4.501   3.546  0.5702 -0.0379  0.0484
  275MOL0     H37072   1.633   4.390   3.660  2.2569  0.0248  0.4868
  275MOL0     H37073   1.662   4.516   3.760  1.0311 -1.2591 -0.8675
  275MOL0     H37074   1.698   4.523   3.461  0.7973  0.8473  0.1954
  275MOL0     H37075   1.723   4.666   3.562  0.6856  0.2954  1.8981
  275MOL0     H37076   1.846   4.301   3.598 -0.4429  0.3024 -1.5081
  275MOL0     H37077   2.067   4.211   3.692  1.3677  0.1566 -0.7138
  275MOL0     H37078   2.213   4.310   3.724  0.5498  2.7546 -1.0861
  275MOL0     H37079   2.131   4.377   3.938  0.0730  0.2788  0.1780
  275MOL0     H37080   1.963   4.319   3.900  0.1109  0.4989 -0.3223
  275MOL0     H37081   2.208   4.155   3.942 -0.3656 -0.9411 -1.5444
  275MOL0     H37082   2.065   4.076   3.896  1.6621 -1.8578  2.1198
  275MOL0     H37083   2.066   4.057   4.146  0.0722  1.1623  0.6089
  275MOL0     H37084   1.944   4.175   4.110 -0.3398  0.3167 -4.0238
  275MOL0     H37085   2.283   4.050   4.119  3.1899 -1.5608 -0.3576
  275MOL0     H37086   2.501   4.026   4.202  1.2846  0.8909  0.8276
  275MOL0     H37087   2.881   4.196   4.503 -3.2447 -2.2128  0.4720
  275MOL0     H37088   3.154   4.173   4.454  0.2814  1.8185 -0.8665
  275MOL0     H37089   3.330   3.826   4.274  0.0054  1.0523  1.3245
  275MOL0     H37090   3.250   3.900   4.135  0.3393  0.3396  0.6003
  275MOL0     H37091   3.451   4.037   4.090 -0.0746 -0.3019  0.2856
  275MOL0     H37092   3.501   4.018   4.257 -2.1990  1.7326  0.0481
  275MOL0     H37093   3.562   3.782   4.206 -0.7277 -0.7593 -0.3215
  275MOL0     H37094   3.498   3.801   4.044 -0.2186  0.0130 -0.1034
  275MOL0     H37095   3.675   3.989   4.009  0.5939  0.8549  1.0555
  275MOL0     H37096   3.730   3.823   4.013  0.3825  2.2042 -2.8753
  275MOL0     H37097   3.782   3.848   4.262 -0.6344  0.8995  0.5068
  275MOL0     H37098   3.754   4.019   4.246  1.2973 -1.9029  3.0643
  275MOL0     H37099   3.940   3.856   4.071  2.1837  0.3995 -0.0079
  275MOL0     H37100   3.884   4.034   4.054  1.4758  0.4439  0.9673
  275MOL0     H37101   4.043   3.936   4.289 -1.8191  0.3092  1.1269
  275MOL0     H37102   3.997   4.098   4.245  2.7704  1.4719  0.0745
  275MOL0     H37103   4.203   3.930   4.097 -1.6627 -0.6308  0.1057
  275MOL0     H37104   4.135   4.079   4.030 -0.7767 -0.9305  0.6266
  275MOL0     H37105   3.061   3.848   4.199  0.5542 -1.3662  2.1222
  275MOL0     H37106   2.831   3.884   4.223  2.2002 -0.8796 -1.8820
  275MOL0     H37107   2.492   4.385   4.410  0.5106  1.1075 -1.9210
  275MOL0     H37108   2.261   4.417   4.351 -1.9325 -1.3483  2.1488
  275MOL0     H37109   0.676   4.948   3.654  0.9328  0.5747 -0.2763
  275MOL0     H37110   0.439   4.923   3.742  0.4454 -2.6292 -2.4048
  275MOL0     H37111   0.189   4.887   4.110  3.2639 -3.1664  1.3038
  275MOL0     H37112  -0.055   4.906   4.166  0.2803  1.4827 -2.9734
  275MOL0     H37113  -0.328   4.687   3.908 -5.0131  0.9365 -2.0052
  275MOL0     H37114  -0.438   4.744   4.031  2.2060  2.1124 -0.9890
  275MOL0     H37115  -0.301   4.479   4.080 -0.2719 -0.0417  0.7252
  275MOL0     H37116  -0.447   4.492   3.992 -0.6939 -1.8534  0.9869
  275MOL0     H37117  -0.555   4.606   4.177  0.4984  2.0731  1.2144
  275MOL0     H37118  -0.404   4.614   4.262  2.1430 -1.7378  0.0056
  275MOL0     H37119  -0.417   4.353   4.304 -0.7435 -0.3772  2.0855
  275MOL0     H37120  -0.555   4.446   4.357 -3.7075  0.3735 -2.2997
  275MOL0     H37121  -0.719   4.168   4.123 -2.2950  2.3837  1.0187
  275MOL0     H37122  -0.140   4.566   3.909  0.8489  0.2335 -1.9579
  275MOL0     H37123   0.163   4.457   3.864  0.3589  2.7613  1.7174
  275MOL0     H37124   0.016   4.491   3.758  1.4807 -0.4968 -2.0425
  275MOL0     H37125   0.171   4.586   3.755 -0.6652 -1.1428 -3.2462
  276MOL0     O37126   4.544   9.280   5.067  0.8489  0.2444  0.5017
  276MOL0     C37127   4.568   9.189   5.144 -0.2535 -0.5504 -1.3829
  276MOL0     O37128   4.622   9.069   5.112  0.4047 -0.7366  0.2938
  276MOL0     C37129   4.643   9.031   4.984  0.4213  0.3387 -0.5363
  276MOL0     C37130   4.666   8.896   4.979 -0.0940 -0.4102  0.3279
  276MOL0     C37131   4.685   8.831   4.860 -0.0404  0.5201  0.2041
  276MOL0     C37132   4.668   8.899   4.735 -0.2153  0.4328 -0.6604
  276MOL0     O37133   4.678   8.834   4.619  0.8911 -0.6095 -1.0988
  276MOL0     C37134   4.814   8.843   4.565  1.1055  0.5225  0.3525
  276MOL0     C37135   4.916   8.736   4.610  0.0140  0.9679 -0.3810
  276MOL0     C37136   5.041   8.721   4.525  0.7143 -0.2450 -0.5154
  276MOL0     C37137   5.158   8.656   4.600 -0.1466 -0.3792  0.8982
  276MOL0     C37138   5.273   8.635   4.499  0.1310 -0.1104 -0.6438
  276MOL0     C37139   5.387   8.542   4.563  0.2716 -0.0377  0.3089
  276MOL0     C37140   5.494   8.504   4.458 -0.4002 -0.6409  0.0416
  276MOL0     C37141   5.605   8.609   4.420 -0.0219 -0.5028 -0.2103
  276MOL0     N37142   5.674   8.575   4.302  0.5014  0.3382 -0.0578
  276MOL0     C37143   5.814   8.556   4.303  0.2437  0.1423 -0.5329
  276MOL0     C37144   5.834   8.553   4.172  0.2409 -0.1909 -0.1135
  276MOL0     C37145   5.964   8.521   4.107  0.1094  1.1601 -0.5808
  276MOL0     C37146   6.055   8.642   4.111  0.7909  0.0158 -0.0609
  276MOL0     C37147   6.167   8.630   4.007  1.0055 -0.4293 -0.1185
  276MOL0     C37148   6.302   8.570   4.042 -0.0961 -0.3541 -0.6751
  276MOL0     O37149   6.391   8.563   3.934  0.2069  0.2484  0.3851
  276MOL0     C37150   6.506   8.494   3.940 -0.6639 -0.0456  0.9688
  276MOL0     C37151   6.576   8.456   4.058 -0.9636  0.4937  0.2578
  276MOL0     C37152   6.693   8.387   4.050 -0.6680  0.5297  0.0156
  276MOL0     C37153   6.758   8.354   3.927  0.6474  0.0529  0.0212
  276MOL0     C37154   6.886   8.283   3.913  0.0528  0.2952 -0.2337
  276MOL0     O37155   6.951   8.253   4.022 -0.2342  0.1440 -0.3863
  276MOL0     C37156   7.025   8.133   4.020  0.1028 -0.0768  0.3825
  276MOL0     C37157   7.129   8.131   4.114 -0.0156  0.5438 -0.3052
  276MOL0     C37158   7.218   8.019   4.115 -0.3035 -0.0465  0.9659
  276MOL0     C37159   7.202   7.911   4.032 -0.3083  1.0024  0.5998
  276MOL0     O37160   7.296   7.807   4.036 -0.3425  0.0434 -0.0336
  276MOL0     C37161   7.351   7.761   3.907 -0.3455  0.5531  0.4075
  276MOL0     C37162   7.477   7.681   3.944  0.8481  0.4231  0.1401
  276MOL0     C37163   7.548   7.612   3.823 -0.2623  0.4091 -0.0708
  276MOL0     C37164   7.664   7.519   3.874  0.0134 -0.2459 -0.3159
  276MOL0     C37165   7.747   7.470   3.761  0.4113  0.5302  0.0922
  276MOL0     C37166   7.853   7.369   3.794 -0.4304  0.8150  0.0233
  276MOL0     C37167   7.951   7.327   3.684 -0.0968  0.2041  0.3277
  276MOL0     C37168   8.028   7.194   3.725 -0.6187  0.1716  0.4175
  276MOL0    Cl37169   8.136   7.197   3.862 -0.4559  0.0368 -0.2127
  276MOL0     C37170   7.102   7.918   3.927  0.6036  0.2947 -0.7803
  276MOL0     C37171   7.021   8.022   3.920 -0.6678 -0.1690 -0.5463
  276MOL0     O37172   6.934   8.266   3.800 -0.2304  0.4176  0.0474
  276MOL0     C37173   6.692   8.399   3.810  0.3288  1.5871 -0.0733
  276MOL0     C37174   6.574   8.474   3.815  0.1485  0.8579  0.0939
  276MOL0     N37175   5.731   8.579   4.100  1.0151  0.4169 -0.1825
  276MOL0     N37176   5.632   8.606   4.179 -0.5422 -0.5210  0.4121
  276MOL0     C37177   4.654   9.037   4.741 -0.3925  0.1103 -0.3856
  276MOL0     C37178   4.642   9.101   4.867  0.0560 -0.0819  0.1319
  276MOL0     C37179   4.532   9.217   5.289  0.6093  0.8121 -0.2800
  276MOL0     C37180   4.508   9.354   5.322 -0.0693  0.1081 -0.3534
  276MOL0     C37181   4.475   9.402   5.450 -0.1926  0.1058 -0.4108
  276MOL0     C37182   4.471   9.306   5.553  0.5076  0.1103 -1.2277
  276MOL0     O37183   4.443   9.361   5.673  0.4593 -0.4165  0.6038
  276MOL0     C37184   4.413   9.281   5.785  0.2836  0.4948 -0.8239
  276MOL0     C37185   4.416   9.382   5.907  0.0750 -0.5294  0.6742
  276MOL0     C37186   4.570   9.430   5.913  0.3178 -0.3508 -0.6835
  276MOL0     C37187   4.573   9.554   6.012 -0.0700  0.8049  0.3207
  276MOL0     C37188   4.698   9.633   6.010  0.1459 -0.2260  0.6016
  276MOL0     C37189   4.789   9.710   6.020  0.4074  0.7357  0.2048
  276MOL0     C37190   4.503   9.167   5.521 -0.6933 -0.1313 -0.6894
  276MOL0     C37191   4.514   9.123   5.388  0.0269 -0.0092 -1.2640
  276MOL0     C37192   4.522   8.974   5.379  0.8203  0.9292 -0.9229
  276MOL0     H37193   4.685   8.843   5.072  1.2279 -0.4154  0.0725
  276MOL0     H37194   4.715   8.727   4.868  1.9196  1.0872  0.5801
  276MOL0     H37195   4.800   8.825   4.458  1.6746 -0.6172  0.4521
  276MOL0     H37196   4.855   8.942   4.588  1.0770  0.5545  0.2633
  276MOL0     H37197   4.853   8.647   4.607  0.6421  0.4417  0.9525
  276MOL0     H37198   4.943   8.742   4.716 -0.4690  0.2573 -0.2128
  276MOL0     H37199   5.068   8.824   4.499  0.9619  1.1479  4.4170
  276MOL0     H37200   5.016   8.663   4.435  0.6471  0.7353 -1.1455
  276MOL0     H37201   5.183   8.718   4.686 -3.2055 -0.0638  1.6848
  276MOL0     H37202   5.126   8.559   4.637  1.7960 -1.6313 -0.5133
  276MOL0     H37203   5.227   8.605   4.404 -5.2220  1.2879  1.1167
  276MOL0     H37204   5.305   8.736   4.472  0.1284 -0.3151 -1.4485
  276MOL0     H37205   5.441   8.600   4.639  0.4179 -0.6685  0.6967
  276MOL0     H37206   5.343   8.459   4.620  0.2917  2.5022  4.4267
  276MOL0     H37207   5.442   8.469   4.369 -0.3840 -1.8982  0.4974
  276MOL0     H37208   5.556   8.419   4.488 -0.1628 -1.3528 -2.2953
  276MOL0     H37209   5.540   8.696   4.408  0.0200 -0.2322  1.2321
  276MOL0     H37210   5.673   8.627   4.504 -1.7437 -0.8516  1.3223
  276MOL0     H37211   5.879   8.535   4.388 -1.4373  0.8606  1.0071
  276MOL0     H37212   6.015   8.440   4.159 -0.5231  0.0209 -1.6907
  276MOL0     H37213   5.950   8.483   4.006  3.6200  0.8089 -1.0537
  276MOL0     H37214   5.997   8.734   4.100  2.0634  1.0767  1.5359
  276MOL0     H37215   6.108   8.657   4.206  0.8065  2.4775 -0.3777
  276MOL0     H37216   6.195   8.734   3.991  3.2758 -0.8751  0.5289
  276MOL0     H37217   6.126   8.584   3.916  1.0149  1.8044 -1.3321
  276MOL0     H37218   6.281   8.468   4.075  1.1033 -0.0488  1.1978
  276MOL0     H37219   6.340   8.618   4.133 -2.3178  1.6281 -0.6941
  276MOL0     H37220   6.546   8.484   4.159  2.6633  2.1218  1.0754
  276MOL0     H37221   6.735   8.363   4.147 -2.2987  1.8208  1.0957
  276MOL0     H37222   7.138   8.206   4.192  1.3650 -0.3390  0.4266
  276MOL0     H37223   7.299   8.014   4.186 -1.5658  0.7188  2.5294
  276MOL0     H37224   7.276   7.704   3.850 -0.7308 -0.7836  2.1773
  276MOL0     H37225   7.377   7.840   3.836 -1.2636  0.1823 -0.3782
  276MOL0     H37226   7.548   7.754   3.984  1.6149  0.7527 -1.6810
  276MOL0     H37227   7.462   7.601   4.016 -0.8517  1.1233  0.6136
  276MOL0     H37228   7.473   7.554   3.769 -0.5855  0.1497  0.6367
  276MOL0     H37229   7.600   7.689   3.765  0.1118  1.1822  1.2481
  276MOL0     H37230   7.619   7.441   3.936 -1.2292 -0.6519 -1.6762
  276MOL0     H37231   7.731   7.582   3.933  1.2724 -1.8081  0.0093
  276MOL0     H37232   7.792   7.559   3.717  1.9906 -0.7925 -1.0888
  276MOL0     H37233   7.670   7.425   3.699 -1.1175  1.5068  1.1958
  276MOL0     H37234   7.913   7.421   3.869 -0.9213  2.8656 -0.9418
  276MOL0     H37235   7.815   7.280   3.846  1.4664 -1.3923 -2.1193
  276MOL0     H37236   8.023   7.406   3.661 -0.5294  0.4284 -0.2688
  276MOL0     H37237   7.905   7.288   3.593 -1.1669 -0.0267  0.9514
  276MOL0     H37238   7.955   7.117   3.747  0.4177 -0.8807  0.2749
  276MOL0     H37239   8.079   7.157   3.635 -0.5776  0.1569  0.4467
  276MOL0     H37240   7.081   7.832   3.864  0.2605  0.2688 -0.6297
  276MOL0     H37241   6.955   8.002   3.836 -1.2620 -0.4039 -0.0280
  276MOL0     H37242   6.716   8.379   3.706 -2.9965  0.0684 -0.6987
  276MOL0     H37243   6.530   8.501   3.719 -0.1848  2.9798  0.7812
  276MOL0     H37244   4.655   9.073   4.639 -0.4338 -1.9808 -1.1755
  276MOL0     H37245   4.628   9.209   4.865  0.0419 -0.0740 -1.9184
  276MOL0     H37246   4.511   9.428   5.241 -0.6653 -0.5553 -0.9917
  276MOL0     H37247   4.464   9.505   5.481  2.4949  0.6817 -1.1292
  276MOL0     H37248   4.497   9.214   5.805  0.3631  0.6437 -0.6537
  276MOL0     H37249   4.321   9.222   5.773  0.3937 -0.2060  1.3788
  276MOL0     H37250   4.381   9.340   6.002 -1.6983 -2.9047 -0.8891
  276MOL0     H37251   4.344   9.462   5.889  0.1902 -0.5974 -0.1434
  276MOL0     H37252   4.587   9.473   5.814 -1.3452 -2.0827 -1.7807
  276MOL0     H37253   4.636   9.349   5.943  0.4043  0.8762  3.0305
  276MOL0     H37254   4.488   9.614   5.979  0.2242  2.6576  2.7088
  276MOL0     H37255   4.558   9.537   6.119  2.1018 -0.2980  0.5240
  276MOL0     H37256   4.868   9.780   6.039  1.0885 -0.2004  0.9770
  276MOL0     H37257   4.496   9.097   5.603  1.4696  0.1857 -0.1918
  276MOL0     H37258   4.463   8.923   5.455  1.5891 -1.7151 -1.9814
  276MOL0     H37259   4.481   8.951   5.280  2.4944 -2.4280 -0.9710
  276MOL0     H37260   4.625   8.939   5.373  0.3329 -1.0307  0.9164
  277MOL0     O37261   0.984   4.072   7.339  0.5614  0.2678  1.1300
  277MOL0     C37262   0.986   4.177   7.277 -0.6158  0.3048  0.2957
  277MOL0     O37263   0.879   4.229   7.206 -0.5680 -0.3171 -0.5010
  277MOL0     C37264   0.757   4.193   7.222  0.0094 -0.5149  0.0048
  277MOL0     C37265   0.689   4.130   7.332  0.0943 -0.3305  0.1545
  277MOL0     C37266   0.549   4.107   7.322  0.5271  0.2652 -0.1169
  277MOL0     C37267   0.473   4.160   7.218  0.6304  0.0307  0.3256
  277MOL0     O37268   0.335   4.185   7.223 -0.9903  1.0196  0.4575
  277MOL0     C37269   0.262   4.188   7.354 -0.3027  0.1366  0.0171
  277MOL0     C37270   0.205   4.049   7.391  0.2050 -0.6332  0.7465
  277MOL0     C37271   0.125   4.051   7.517  0.5119 -1.0040  0.4530
  277MOL0     C37272   0.086   3.920   7.581  0.1970  0.1757  0.0124
  277MOL0     C37273   0.015   3.935   7.718 -0.5212  0.6516 -0.3616
  277MOL0     C37274  -0.118   4.010   7.702 -0.0834 -0.8096 -0.6886
  277MOL0     C37275  -0.212   4.000   7.823  0.2555 -0.2153 -0.9668
  277MOL0     C37276  -0.337   4.083   7.805  0.3251 -0.7690 -1.1251
  277MOL0     N37277  -0.434   4.023   7.726 -0.1385  0.0537  0.3070
  277MOL0     C37278  -0.559   4.074   7.722  0.2200  0.0842  0.3598
  277MOL0     C37279  -0.624   4.008   7.620 -0.0846  0.0169  0.3188
  277MOL0     C37280  -0.766   4.008   7.562 -0.1730 -0.4603 -0.7666
  277MOL0     C37281  -0.815   4.157   7.537  0.0043 -0.4159  0.6749
  277MOL0     C37282  -0.710   4.255   7.492 -0.9112  0.0195 -0.4106
  277MOL0     C37283  -0.639   4.214   7.367 -0.0225 -0.2985 -0.1485
  277MOL0     O37284  -0.581   4.336   7.316 -0.1243  0.3282 -0.4411
  277MOL0     C37285  -0.447   4.348   7.347  0.0450 -0.5178  0.1215
  277MOL0     C37286  -0.385   4.450   7.267  0.2643 -0.2545  1.1969
  277MOL0     C37287  -0.256   4.494   7.298 -0.5060  0.2913  0.6363
  277MOL0     C37288  -0.181   4.439   7.402 -1.5480  0.2218 -0.1401
  277MOL0     C37289  -0.051   4.489   7.433  0.5754  0.1311 -0.1738
  277MOL0     O37290  -0.001   4.584   7.352  0.3075  0.2786  0.1265
  277MOL0     C37291   0.131   4.614   7.374  0.0589  0.6955  0.0996
  277MOL0     C37292   0.164   4.732   7.438 -0.4202 -0.0620  0.1536
  277MOL0     C37293   0.297   4.762   7.464  0.2409  0.7900 -0.4272
  277MOL0     C37294   0.401   4.689   7.427  0.6975  0.5695  0.8549
  277MOL0     O37295   0.527   4.736   7.467 -0.2154  0.9705 -0.2794
  277MOL0     C37296   0.645   4.696   7.390  0.7745  0.0533  0.1488
  277MOL0     C37297   0.745   4.815   7.383  0.2610  0.5122  0.1791
  277MOL0     C37298   0.870   4.798   7.297  0.4457 -1.2595 -0.0707
  277MOL0     C37299   0.973   4.912   7.318  0.0863 -0.0970 -0.3943
  277MOL0     C37300   1.100   4.879   7.229  0.0902 -0.2771 -0.5519
  277MOL0     C37301   1.183   5.011   7.227 -0.6124 -0.6961 -0.0961
  277MOL0     C37302   1.286   4.987   7.112  0.0597  0.4574 -0.5355
  277MOL0     C37303   1.398   5.095   7.118 -0.4067 -0.4312  0.2249
  277MOL0    Cl37304   1.548   5.063   7.034 -0.2696 -0.0326  0.0523
  277MOL0     C37305   0.370   4.579   7.346  0.8879 -0.7036  0.2790
  277MOL0     C37306   0.241   4.542   7.320  0.1400  0.9237  1.0299
  277MOL0     O37307   0.011   4.430   7.523 -0.2025  0.4841  0.5677
  277MOL0     C37308  -0.239   4.335   7.477  0.3812 -0.2608 -0.5644
  277MOL0     C37309  -0.372   4.296   7.455 -0.3259  0.2017 -0.1546
  277MOL0     N37310  -0.527   3.918   7.572 -0.2581 -0.6055 -0.7756
  277MOL0     N37311  -0.413   3.934   7.626 -0.2556  0.0341 -0.2903
  277MOL0     C37312   0.542   4.223   7.114  0.3819  0.0021 -1.3933
  277MOL0     C37313   0.681   4.239   7.118  0.2715  0.2676 -0.2290
  277MOL0     C37314   1.116   4.243   7.272 -1.4675  0.5192  0.0717
  277MOL0     C37315   1.108   4.365   7.203 -0.4696 -0.5039  0.5009
  277MOL0     C37316   1.225   4.440   7.198  0.2947  0.8896 -1.0157
  277MOL0     C37317   1.345   4.383   7.243 -0.6900  0.0551  0.2191
  277MOL0     O37318   1.467   4.438   7.234 -0.2161  0.3356 -0.0043
  277MOL0     C37319   1.469   4.582   7.228  0.5414  0.2875 -0.1819
  277MOL0     C37320   1.608   4.610   7.288 -0.5670  0.7433 -0.2364
  277MOL0     C37321   1.604   4.765   7.315 -0.4418 -0.4935  0.0631
  277MOL0     C37322   1.736   4.823   7.373  0.6805  0.2051  0.0799
  277MOL0     C37323   1.734   4.971   7.350 -0.3719  0.1835  0.3908
  277MOL0     C37324   1.726   5.097   7.356 -0.2286  0.6454 -0.2562
  277MOL0     C37325   1.357   4.265   7.310 -0.0301 -0.5315 -0.2157
  277MOL0     C37326   1.241   4.185   7.323  0.3013  0.1905  0.1103
  277MOL0     C37327   1.251   4.064   7.412 -0.9993 -0.0014  0.9943
  277MOL0     H37328   0.747   4.103   7.420  3.3137  0.9078 -1.4113
  277MOL0     H37329   0.492   4.060   7.401  0.2124 -0.4568 -0.7593
  277MOL0     H37330   0.339   4.221   7.425 -1.1346 -2.8917  2.5544
  277MOL0     H37331   0.176   4.254   7.337 -1.1843 -0.8096  0.7288
  277MOL0     H37332   0.293   3.987   7.412 -0.5133 -1.0599  2.7024
  277MOL0     H37333   0.152   3.995   7.313 -3.1483  0.7166  1.9017
  277MOL0     H37334   0.033   4.108   7.508  2.4236  2.4940  1.1789
  277MOL0     H37335   0.191   4.109   7.583  1.5844  0.3202 -1.6659
  277MOL0     H37336   0.023   3.867   7.508  0.6036  0.6126 -0.6692
  277MOL0     H37337   0.179   3.863   7.595  1.5026  1.7853 -1.6508
  277MOL0     H37338   0.004   3.834   7.759 -0.2654  0.4984 -0.6653
  277MOL0     H37339   0.082   3.981   7.791  2.2413 -4.3150  0.6684
  277MOL0     H37340  -0.107   4.116   7.677 -0.3357 -0.4178  0.7574
  277MOL0     H37341  -0.166   3.977   7.609  0.7968  3.0506 -2.7313
  277MOL0     H37342  -0.161   4.034   7.914  1.3621  1.7396 -2.2396
  277MOL0     H37343  -0.232   3.893   7.832 -1.7700  0.0476 -1.8838
  277MOL0     H37344  -0.368   4.110   7.907  2.8433  2.5116 -1.0664
  277MOL0     H37345  -0.313   4.184   7.768 -0.1495 -0.2615 -0.1019
  277MOL0     H37346  -0.611   4.125   7.802  0.8669 -1.1118  1.5900
  277MOL0     H37347  -0.763   3.943   7.474 -2.1388  0.2337 -1.3935
  277MOL0     H37348  -0.831   3.967   7.640  1.0766 -0.4334  0.3152
  277MOL0     H37349  -0.890   4.148   7.458 -0.6106  0.1842  1.1847
  277MOL0     H37350  -0.852   4.203   7.629 -0.3624  0.5028  0.0754
  277MOL0     H37351  -0.637   4.286   7.567  0.8653  2.2720 -2.8645
  277MOL0     H37352  -0.752   4.355   7.473  1.0676  0.5173 -2.5649
  277MOL0     H37353  -0.701   4.185   7.281 -1.1891  1.4713  0.0552
  277MOL0     H37354  -0.562   4.138   7.387 -1.7140 -2.2809 -0.8056
  277MOL0     H37355  -0.448   4.511   7.204 -0.4612  2.5314  4.3288
  277MOL0     H37356  -0.220   4.577   7.236 -1.3585  0.9416  0.9933
  277MOL0     H37357   0.080   4.790   7.475 -1.3984 -2.0032  1.1354
  277MOL0     H37358   0.314   4.856   7.516 -1.9473  0.3151  1.3428
  277MOL0     H37359   0.697   4.614   7.441  0.2530  0.1763  0.9026
  277MOL0     H37360   0.613   4.670   7.289  0.7738  1.7389 -0.3124
  277MOL0     H37361   0.680   4.894   7.343 -1.7460 -1.1451 -0.0600
  277MOL0     H37362   0.770   4.841   7.486  3.5262  1.1365 -0.6826
  277MOL0     H37363   0.921   4.703   7.311 -0.9232 -1.8754  0.9617
  277MOL0     H37364   0.841   4.805   7.192 -0.9855  0.3700  0.3778
  277MOL0     H37365   1.003   4.935   7.421  0.4312  3.6958 -1.2033
  277MOL0     H37366   0.930   5.006   7.281  2.9643  0.8115 -1.7262
  277MOL0     H37367   1.065   4.844   7.132  0.1349 -2.8327  0.2786
  277MOL0     H37368   1.155   4.794   7.270  1.0208 -0.3484 -1.8999
  277MOL0     H37369   1.117   5.093   7.199 -1.3566 -1.7584 -1.5974
  277MOL0     H37370   1.226   5.023   7.327 -0.2321  4.4824 -0.6477
  277MOL0     H37371   1.235   4.992   7.015 -3.4675  2.3122  1.2147
  277MOL0     H37372   1.329   4.886   7.118 -2.1109 -0.5947 -1.5283
  277MOL0     H37373   1.363   5.191   7.078  1.1323  0.3950  0.7695
  277MOL0     H37374   1.421   5.103   7.224 -0.2849 -0.5898  0.2105
  277MOL0     H37375   0.460   4.530   7.310  2.1029  0.4110  1.6512
  277MOL0     H37376   0.211   4.463   7.251  1.0392  2.2719 -0.9772
  277MOL0     H37377  -0.195   4.298   7.569 -1.1326 -0.1744  0.2297
  277MOL0     H37378  -0.410   4.217   7.519  1.9537  0.3057  1.4248
  277MOL0     H37379   0.474   4.256   7.036  0.0414 -0.3145 -1.2320
  277MOL0     H37380   0.736   4.281   7.034  1.5153 -0.5311  0.1563
  277MOL0     H37381   1.015   4.413   7.173 -0.1767  1.2045  2.1512
  277MOL0     H37382   1.222   4.542   7.161  2.6029  1.6040  0.5472
  277MOL0     H37383   1.399   4.627   7.300 -0.5211  1.4358 -1.8647
  277MOL0     H37384   1.451   4.621   7.128 -1.6319 -1.6467 -0.6422
  277MOL0     H37385   1.689   4.593   7.217 -1.1870 -1.4220 -0.4820
  277MOL0     H37386   1.619   4.542   7.372  0.7925 -0.3329 -1.2564
  277MOL0     H37387   1.531   4.803   7.387  1.2449  3.1586  0.0564
  277MOL0     H37388   1.593   4.815   7.218  1.1018  2.4641  1.2755
  277MOL0     H37389   1.732   4.815   7.482 -0.1297  1.2941  0.1472
  277MOL0     H37390   1.830   4.787   7.330  1.0019  3.7904 -2.8097
  277MOL0     H37391   1.720   5.204   7.353 -3.0395  0.6372  1.2941
  277MOL0     H37392   1.447   4.224   7.356 -0.2842 -1.4332 -0.5134
  277MOL0     H37393   1.358   4.043   7.414 -1.0109 -0.1100  0.6401
  277MOL0     H37394   1.214   4.069   7.514 -2.0307 -1.6089  0.7401
  277MOL0     H37395   1.204   3.977   7.363  0.9395 -0.0083 -1.0433
  278MOL0     O37396   7.825   2.868  10.959  0.4623 -0.5488  0.6262
  278MOL0     C37397   7.876   2.861  11.062  0.5987  0.5362  0.0135
  278MOL0     O37398   8.011   2.858  11.084 -0.6736  0.3502 -0.6188
  278MOL0     C37399   8.109   2.874  10.995 -0.2101 -0.0016 -0.0227
  278MOL0     C37400   8.099   2.907  10.856  0.0276 -0.6959 -0.1035
  278MOL0     C37401   8.210   2.917  10.775  0.1240 -0.6360  0.1595
  278MOL0     C37402   8.336   2.897  10.823  0.2488 -0.3171 -0.2133
  278MOL0     O37403   8.443   2.908  10.731  0.2264 -0.6349 -0.2960
  278MOL0     C37404   8.566   2.845  10.765  0.0835 -0.5459  0.1608
  278MOL0     C37405   8.641   2.805  10.634  0.8905  0.9738 -0.1872
  278MOL0     C37406   8.774   2.749  10.676  0.7908  0.8888  1.0500
  278MOL0     C37407   8.870   2.795  10.569 -0.6330  0.4054  0.9303
  278MOL0     C37408   9.000   2.725  10.596 -0.5810  0.1926 -0.4210
  278MOL0     C37409   9.082   2.703  10.464 -0.0406  0.1285 -0.5742
  278MOL0     C37410   9.225   2.657  10.497  0.3987 -0.3442  0.0333
  278MOL0     C37411   9.306   2.661  10.369  0.5208  0.4845 -0.1062
  278MOL0     N37412   9.432   2.582  10.390  0.1140  0.0546  0.2203
  278MOL0     C37413   9.505   2.571  10.510  0.4560  0.3987 -0.0355
  278MOL0     C37414   9.617   2.511  10.469  0.0583  0.4845  0.0649
  278MOL0     C37415   9.741   2.476  10.553  0.0556  0.6506 -0.5149
  278MOL0     C37416   9.865   2.502  10.467  0.0245  0.5177  0.1896
  278MOL0     C37417   9.980   2.463  10.560 -0.1561  0.1609  0.2550
  278MOL0     C37418  10.122   2.482  10.512 -0.3680 -0.2398  0.4971
  278MOL0     O37419  10.211   2.455  10.620 -0.2109 -0.0084 -1.0062
  278MOL0     C37420  10.345   2.483  10.608 -0.5081 -0.1312  0.4398
  278MOL0     C37421  10.416   2.502  10.478  1.2194 -0.0088 -0.5331
  278MOL0     C37422  10.553   2.518  10.483 -0.0321 -0.3010  0.4380
  278MOL0     C37423  10.630   2.516  10.599 -0.3215  0.8207  0.0780
  278MOL0     C37424  10.776   2.509  10.597  0.9564 -0.7555 -0.0308
  278MOL0     O37425  10.829   2.490  10.475 -0.4413  0.0001  0.1099
  278MOL0     C37426  10.964   2.490  10.471 -1.1867  0.3374 -0.4843
  278MOL0     C37427  11.034   2.367  10.485  0.3259 -0.3313 -0.3074
  278MOL0     C37428  11.173   2.358  10.486 -0.1503  0.0739  0.2615
  278MOL0     C37429  11.252   2.473  10.470 -0.0895 -1.0755  0.9901
  278MOL0     O37430  11.395   2.491  10.454  0.2211  0.1400 -0.0873
  278MOL0     C37431  11.477   2.376  10.478  0.7367 -0.8151 -0.7229
  278MOL0     C37432  11.627   2.403  10.473 -0.2285 -0.9228  0.4279
  278MOL0     C37433  11.663   2.499  10.583  0.2955  0.3439  0.4493
  278MOL0     C37434  11.808   2.540  10.582  0.7853  0.3200 -0.5276
  278MOL0     C37435  11.837   2.634  10.694  1.1079  0.0969  0.2767
  278MOL0     C37436  11.858   2.561  10.829  0.5459 -0.1928  0.5313
  278MOL0     C37437  11.890   2.652  10.956  0.6207  0.3831 -0.4097
  278MOL0     C37438  12.022   2.726  10.957  0.4711 -0.0881 -0.4727
  278MOL0    Cl37439  12.043   2.807  11.105  0.1030 -0.3806  0.1897
  278MOL0     C37440  11.181   2.597  10.446  0.4221 -0.5690 -0.1872
  278MOL0     C37441  11.040   2.612  10.455 -0.5090  1.2384 -0.3997
  278MOL0     O37442  10.840   2.523  10.704 -0.1449 -0.0042 -0.3615
  278MOL0     C37443  10.562   2.484  10.716  0.6853  0.3330 -0.5730
  278MOL0     C37444  10.422   2.472  10.718  0.5906  0.2020  0.9779
  278MOL0     N37445   9.604   2.480  10.332  0.4132  0.0173 -0.0111
  278MOL0     N37446   9.496   2.528  10.284 -0.1866 -0.2924  0.0190
  278MOL0     C37447   8.353   2.862  10.956  0.5965 -0.4817  0.5417
  278MOL0     C37448   8.243   2.859  11.044 -0.7058  0.6651 -0.0955
  278MOL0     C37449   7.791   2.861  11.185 -0.3397 -0.1741 -0.8770
  278MOL0     C37450   7.864   2.881  11.307 -0.4803 -0.9877  0.5840
  278MOL0     C37451   7.799   2.881  11.435 -0.2771  0.4652  0.0111
  278MOL0     C37452   7.659   2.872  11.431 -0.2007 -0.1079 -0.1797
  278MOL0     O37453   7.592   2.879  11.551 -0.0935 -0.0205 -0.0445
  278MOL0     C37454   7.529   3.006  11.578 -0.2696 -0.7623 -0.6128
  278MOL0     C37455   7.501   3.001  11.726 -0.3517 -0.4746 -0.6126
  278MOL0     C37456   7.647   3.003  11.796  0.4224  0.6162 -0.1646
  278MOL0     C37457   7.630   2.984  11.948  1.3527  0.5559  0.2294
  278MOL0     C37458   7.532   3.076  12.010 -0.7271 -0.0113 -0.2122
  278MOL0     C37459   7.452   3.147  12.060  1.3763 -0.2552 -0.3164
  278MOL0     C37460   7.580   2.855  11.319  0.3979 -0.7452  0.2308
  278MOL0     C37461   7.649   2.853  11.198 -0.4309 -0.2090 -0.2681
  278MOL0     C37462   7.573   2.804  11.080  0.6492 -0.4021 -0.1248
  278MOL0     H37463   8.003   2.925  10.807 -1.0227 -4.3950  0.2877
  278MOL0     H37464   8.205   2.929  10.667 -0.0670 -0.7537  0.1543
  278MOL0     H37465   8.622   2.916  10.825 -2.4633  2.0405 -0.2928
  278MOL0     H37466   8.554   2.752  10.821  1.4536 -0.3559  0.7909
  278MOL0     H37467   8.652   2.880  10.556  3.1704  1.5732  0.6368
  278MOL0     H37468   8.578   2.723  10.598  0.3837  0.4662  1.7387
  278MOL0     H37469   8.766   2.640  10.678 -0.0897  0.8121 -1.9131
  278MOL0     H37470   8.816   2.798  10.765  1.9653 -0.0905  1.0560
  278MOL0     H37471   8.839   2.769  10.468  2.7112 -1.4095  0.2040
  278MOL0     H37472   8.876   2.904  10.576 -2.9624  0.7371 -0.9397
  278MOL0     H37473   9.054   2.789  10.667  0.8340 -0.8512 -0.5302
  278MOL0     H37474   8.990   2.635  10.657 -3.8071  0.8089  0.1403
  278MOL0     H37475   9.032   2.622  10.411 -0.1894 -1.8284  2.3402
  278MOL0     H37476   9.081   2.792  10.401 -0.0106 -0.1123 -0.9125
  278MOL0     H37477   9.231   2.558  10.543 -1.2726 -0.1767  0.7059
  278MOL0     H37478   9.269   2.720  10.574  0.4707  0.1165 -0.3798
  278MOL0     H37479   9.241   2.636  10.284 -0.2015  0.4818  0.4293
  278MOL0     H37480   9.341   2.764  10.360  1.2130  0.4151  1.4598
  278MOL0     H37481   9.491   2.622  10.605  6.2205  1.5173  0.5747
  278MOL0     H37482   9.743   2.541  10.641 -1.7873  0.2907 -0.1569
  278MOL0     H37483   9.723   2.376  10.593  0.9409  1.8596  3.2996
  278MOL0     H37484   9.864   2.432  10.383 -0.8392  0.9148 -0.1379
  278MOL0     H37485   9.858   2.607  10.440 -2.5194 -0.1876 -2.3353
  278MOL0     H37486   9.976   2.358  10.590  2.1989  0.0111  0.1791
  278MOL0     H37487   9.969   2.518  10.654  2.0974 -1.3517  1.4561
  278MOL0     H37488  10.128   2.590  10.496 -2.4632  0.2446  2.5630
  278MOL0     H37489  10.142   2.427  10.419 -1.6724 -3.0020  1.7442
  278MOL0     H37490  10.360   2.491  10.386  1.0889 -2.5464 -0.2020
  278MOL0     H37491  10.597   2.537  10.386  0.3598  1.6222  0.9659
  278MOL0     H37492  10.965   2.284  10.494 -1.3245  0.8634 -1.2774
  278MOL0     H37493  11.214   2.258  10.496 -1.3435 -0.7284 -2.1040
  278MOL0     H37494  11.454   2.323  10.571  0.8248  0.6565  0.1742
  278MOL0     H37495  11.447   2.316  10.393  0.4136  0.0920 -1.2650
  278MOL0     H37496  11.692   2.317  10.487  4.2007  2.3297  1.8991
  278MOL0     H37497  11.649   2.442  10.373  1.6179 -0.5266  0.9533
  278MOL0     H37498  11.613   2.595  10.570  1.5039  0.9143 -0.1147
  278MOL0     H37499  11.635   2.446  10.675  1.0868  1.1916  1.1967
  278MOL0     H37500  11.823   2.580  10.481 -0.7516 -3.0347 -2.2469
  278MOL0     H37501  11.881   2.458  10.580 -0.7834 -1.2336  1.5435
  278MOL0     H37502  11.758   2.710  10.704  1.1450  0.0511  0.9503
  278MOL0     H37503  11.935   2.677  10.675  2.0357 -1.9521  0.1794
  278MOL0     H37504  11.765   2.509  10.853 -0.7077  1.1509 -1.2001
  278MOL0     H37505  11.940   2.491  10.810  0.5264  0.2514 -1.4795
  278MOL0     H37506  11.899   2.572  11.030 -0.7808  1.1405  0.6365
  278MOL0     H37507  11.809   2.721  10.982  0.7552  1.7035 -3.1526
  278MOL0     H37508  12.105   2.657  10.938  0.5321  0.0414 -0.6901
  278MOL0     H37509  12.023   2.798  10.875  0.2540  0.1862 -0.2317
  278MOL0     H37510  11.235   2.688  10.424 -1.7475  1.0492  0.7760
  278MOL0     H37511  11.010   2.710  10.420 -0.8085 -0.0591 -4.2621
  278MOL0     H37512  10.609   2.472  10.813  2.1941  1.2226 -1.1456
  278MOL0     H37513  10.372   2.432  10.806  0.2069 -0.9592  0.2514
  278MOL0     H37514   8.454   2.839  10.991  1.3982 -0.2945 -1.5048
  278MOL0     H37515   8.254   2.822  11.145 -0.4229 -1.3647 -0.8379
  278MOL0     H37516   7.971   2.899  11.303 -1.0853  3.4569 -1.7339
  278MOL0     H37517   7.845   2.903  11.531 -0.8563  0.6491  0.2525
  278MOL0     H37518   7.441   3.020  11.516  0.1149  0.1177 -0.9717
  278MOL0     H37519   7.603   3.077  11.540  0.2571  0.0866  1.8556
  278MOL0     H37520   7.443   2.911  11.748  0.5067 -0.7706  0.5236
  278MOL0     H37521   7.440   3.083  11.765 -1.4663 -1.2242 -0.7193
  278MOL0     H37522   7.700   3.097  11.778 -1.7102  1.6833 -1.2578
  278MOL0     H37523   7.712   2.921  11.763 -1.0894 -0.3769 -0.7706
  278MOL0     H37524   7.605   2.884  11.984  1.7192  0.2948 -0.2382
  278MOL0     H37525   7.729   3.013  11.984  1.0929  1.9166 -0.0860
  278MOL0     H37526   7.392   3.221  12.108 -1.4596 -1.8093 -1.2520
  278MOL0     H37527   7.472   2.857  11.333  0.6179  0.1559  2.0987
  278MOL0     H37528   7.472   2.774  11.110  1.1281 -0.0671  1.9686
  278MOL0     H37529   7.564   2.886  11.008  0.1778 -1.9312 -1.8697
  278MOL0     H37530   7.615   2.717  11.029  0.0852 -0.3125 -0.7611
  279MOL0     O37531   0.671   7.522   2.028 -0.0263  0.3317 -0.0261
  279MOL0     C37532   0.680   7.632   2.082 -0.9334 -0.4273  0.1103
  279MOL0     O37533   0.797   7.702   2.097 -0.0472 -0.1021  0.1715
  279MOL0     C37534   0.910   7.654   2.034  0.1252 -0.9010  0.3026
  279MOL0     C37535   0.996   7.578   2.107 -0.1946  0.1190 -0.0969
  279MOL0     C37536   1.118   7.540   2.049 -0.3094 -0.2521 -0.4936
  279MOL0     C37537   1.152   7.559   1.917  0.0795  0.5301  0.1544
  279MOL0     O37538   1.280   7.517   1.871  0.0088  0.2866  0.2295
  279MOL0     C37539   1.295   7.472   1.734 -0.7582 -0.0535  0.1694
  279MOL0     C37540   1.372   7.346   1.730 -0.3582  0.4142 -0.2809
  279MOL0     C37541   1.294   7.235   1.801  0.1832 -0.2453  0.2009
  279MOL0     C37542   1.315   7.088   1.765 -0.0224  0.3572  0.1636
  279MOL0     C37543   1.458   7.045   1.801 -0.4965  1.0097  0.1394
  279MOL0     C37544   1.553   7.062   1.688 -0.1789 -0.3454  0.0801
  279MOL0     C37545   1.700   7.059   1.729  0.2206  0.9252  0.8215
  279MOL0     C37546   1.748   6.915   1.763  0.0752 -0.6588 -0.2490
  279MOL0     N37547   1.879   6.899   1.697  0.4303  0.3077 -0.0284
  279MOL0     C37548   1.998   6.969   1.720 -0.3500 -0.3335 -0.6348
  279MOL0     C37549   2.078   6.929   1.620  0.5390 -0.7069  0.0221
  279MOL0     C37550   2.214   6.992   1.596 -0.3174  0.8864  0.2757
  279MOL0     C37551   2.329   6.893   1.650  0.9421 -0.6646 -0.3079
  279MOL0     C37552   2.326   6.752   1.571 -0.3017 -0.4455  0.5711
  279MOL0     C37553   2.336   6.762   1.413 -0.0784  0.6561  0.1811
  279MOL0     O37554   2.442   6.856   1.404  0.2504  0.2523  0.2516
  279MOL0     C37555   2.488   6.860   1.274 -0.2163 -0.5082  0.3575
  279MOL0     C37556   2.612   6.801   1.264 -0.6397  0.0835 -0.4834
  279MOL0     C37557   2.677   6.791   1.141  0.0554 -0.3222  0.4166
  279MOL0     C37558   2.622   6.844   1.017  0.7846 -0.1246 -0.5663
  279MOL0     C37559   2.701   6.832   0.893 -0.8192  0.0284 -0.3894
  279MOL0     O37560   2.644   6.854   0.773 -0.5776 -0.1144 -0.2571
  279MOL0     C37561   2.720   6.850   0.659  0.0284 -0.3576 -0.1567
  279MOL0     C37562   2.745   6.727   0.589 -0.0597 -0.6607 -0.5678
  279MOL0     C37563   2.816   6.729   0.467  0.1162 -0.2124  0.7023
  279MOL0     C37564   2.857   6.855   0.411 -0.2042  0.2451 -0.1599
  279MOL0     O37565   2.936   6.862   0.295  0.8659 -0.0665 -0.2624
  279MOL0     C37566   3.051   6.777   0.286 -0.7885  0.0698 -0.9121
  279MOL0     C37567   3.175   6.845   0.215 -0.8929  0.5194  0.0523
  279MOL0     C37568   3.224   6.973   0.279 -0.1958 -0.2258  0.7334
  279MOL0     C37569   3.365   7.017   0.224 -0.4687 -0.1312  0.1295
  279MOL0     C37570   3.453   7.078   0.334  0.1408 -0.8551  0.1555
  279MOL0     C37571   3.526   6.977   0.407 -0.1260  0.9354  0.4263
  279MOL0     C37572   3.644   7.042   0.484 -0.1711  0.0291  1.2295
  279MOL0     C37573   3.754   6.940   0.543  0.4712  0.0092  0.1544
  279MOL0    Cl37574   3.853   6.854   0.415 -0.0902  0.3902 -0.0730
  279MOL0     C37575   2.825   6.971   0.484 -0.0580  0.0511  0.5979
  279MOL0     C37576   2.756   6.971   0.602 -0.4585 -0.1816  0.3310
  279MOL0     O37577   2.825   6.816   0.903  0.1720 -0.1270  0.3349
  279MOL0     C37578   2.506   6.917   1.032 -0.3331  0.1721 -1.1920
  279MOL0     C37579   2.437   6.923   1.156  0.7431  0.3819 -0.8013
  279MOL0     N37580   2.007   6.843   1.542 -0.0642 -1.1281 -0.0531
  279MOL0     N37581   1.893   6.820   1.586 -0.1800  0.7199  0.2367
  279MOL0     C37582   1.056   7.626   1.838  0.4296  0.3821  0.6292
  279MOL0     C37583   0.936   7.680   1.895  0.0073  0.3928 -0.2491
  279MOL0     C37584   0.569   7.679   2.161  0.4642 -0.8764 -0.0504
  279MOL0     C37585   0.599   7.770   2.270  0.4758 -0.5462  0.1997
  279MOL0     C37586   0.504   7.822   2.359 -0.2169 -0.1523  0.1776
  279MOL0     C37587   0.373   7.774   2.348  0.6718  0.2977  0.7635
  279MOL0     O37588   0.289   7.827   2.446 -0.3370  0.1688  0.2588
  279MOL0     C37589   0.150   7.855   2.404  0.5903 -0.0749  0.4530
  279MOL0     C37590   0.060   7.742   2.463 -0.6720 -0.6260 -0.1899
  279MOL0     C37591   0.095   7.710   2.612 -0.0484  0.2140  0.0075
  279MOL0     C37592  -0.015   7.620   2.667  0.3535  0.2038 -1.0869
  279MOL0     C37593   0.009   7.487   2.620 -0.0968  0.8070 -0.4694
  279MOL0     C37594   0.037   7.371   2.604 -0.5778 -0.5162  0.8069
  279MOL0     C37595   0.332   7.694   2.246 -0.3007 -0.4307  0.7145
  279MOL0     C37596   0.425   7.652   2.139  0.2939 -0.4236 -2.0191
  279MOL0     C37597   0.371   7.580   2.020 -0.5008  0.7809  0.0136
  279MOL0     H37598   0.969   7.566   2.212 -0.1067 -1.8560 -0.2554
  279MOL0     H37599   1.194   7.497   2.113 -1.9739 -1.2273  0.8972
  279MOL0     H37600   1.193   7.446   1.704 -1.2838 -0.6538  2.3602
  279MOL0     H37601   1.326   7.555   1.669 -0.8752  0.0715  0.2727
  279MOL0     H37602   1.472   7.344   1.774  0.3270 -1.8311 -1.7666
  279MOL0     H37603   1.380   7.315   1.625  0.5530  2.2977 -0.8234
  279MOL0     H37604   1.190   7.255   1.776  1.1502  1.2733 -3.2171
  279MOL0     H37605   1.304   7.253   1.909 -0.5493  2.9727 -0.1669
  279MOL0     H37606   1.240   7.042   1.830 -0.4263  0.2991 -0.3365
  279MOL0     H37607   1.283   7.055   1.666 -1.8772 -0.1932  0.8980
  279MOL0     H37608   1.496   7.112   1.878 -0.1941  0.1848  0.7290
  279MOL0     H37609   1.465   6.940   1.832  2.9961  0.4163 -2.0635
  279MOL0     H37610   1.544   6.996   1.601  6.2974 -1.0595 -0.6051
  279MOL0     H37611   1.542   7.166   1.655  1.6182  0.3230  1.4288
  279MOL0     H37612   1.716   7.111   1.824 -3.4457 -2.5870  3.7630
  279MOL0     H37613   1.762   7.109   1.654 -0.6889 -0.2265 -0.7537
  279MOL0     H37614   1.762   6.897   1.870 -1.8729  0.3659  0.2117
  279MOL0     H37615   1.674   6.839   1.736  0.9912 -1.8050  0.3600
  279MOL0     H37616   2.014   7.038   1.802  2.2187 -0.0920 -1.2469
  279MOL0     H37617   2.234   7.017   1.491  1.0956  1.7977  0.7364
  279MOL0     H37618   2.227   7.076   1.665  0.6036 -0.8864  2.3928
  279MOL0     H37619   2.426   6.944   1.651  1.0702 -0.8952 -0.4999
  279MOL0     H37620   2.307   6.881   1.756  3.3808  3.2323  0.8402
  279MOL0     H37621   2.237   6.694   1.597 -0.9453 -0.3362 -1.2661
  279MOL0     H37622   2.412   6.696   1.607  1.0410  1.7828  1.0323
  279MOL0     H37623   2.248   6.813   1.372 -1.0597 -1.1915 -0.0959
  279MOL0     H37624   2.347   6.667   1.360  2.9305  0.4297  1.0306
  279MOL0     H37625   2.658   6.757   1.352  0.2409  1.7270 -0.0838
  279MOL0     H37626   2.773   6.742   1.148  1.3900  2.2926  1.5301
  279MOL0     H37627   2.715   6.632   0.632 -0.7151 -0.1134  0.2394
  279MOL0     H37628   2.823   6.645   0.400 -2.8132 -0.0613  0.0730
  279MOL0     H37629   3.096   6.749   0.382  1.5308 -1.4555 -2.3523
  279MOL0     H37630   3.020   6.679   0.248 -1.0561 -0.4696  0.6073
  279MOL0     H37631   3.246   6.761   0.211 -1.5917 -0.1012  0.4054
  279MOL0     H37632   3.146   6.855   0.110 -0.8886 -4.0965 -0.5892
  279MOL0     H37633   3.147   7.049   0.265  0.9731  1.0771  1.1366
  279MOL0     H37634   3.226   6.955   0.387  3.9125 -2.9986  0.4657
  279MOL0     H37635   3.361   7.088   0.141  0.4709  1.6519  1.5517
  279MOL0     H37636   3.417   6.930   0.184  0.5339  0.2975  0.4873
  279MOL0     H37637   3.395   7.138   0.405  2.3162 -0.2283  1.5303
  279MOL0     H37638   3.527   7.139   0.280 -0.8867 -0.4658 -0.8659
  279MOL0     H37639   3.462   6.924   0.477  0.5331 -0.3873  0.0604
  279MOL0     H37640   3.573   6.908   0.335  3.0813  2.0181  1.2932
  279MOL0     H37641   3.601   7.104   0.564  0.7368 -0.2136  1.9301
  279MOL0     H37642   3.702   7.098   0.410  2.0069 -2.3409  1.0070
  279MOL0     H37643   3.809   6.992   0.622 -0.4678  2.9398 -0.9626
  279MOL0     H37644   3.695   6.868   0.600 -0.5702  0.6920 -0.0320
  279MOL0     H37645   2.843   7.065   0.433 -3.4288 -0.0712 -1.1197
  279MOL0     H37646   2.755   7.066   0.654 -3.2586 -0.0282  0.1431
  279MOL0     H37647   2.470   6.969   0.944  0.6305  1.3714 -0.9004
  279MOL0     H37648   2.337   6.964   1.167 -0.0380 -1.8979  1.8541
  279MOL0     H37649   1.073   7.635   1.731  1.1866  3.4600  0.9141
  279MOL0     H37650   0.885   7.753   1.832 -1.7534 -0.0744  0.5494
  279MOL0     H37651   0.702   7.800   2.289  0.9272 -0.9771 -1.3946
  279MOL0     H37652   0.519   7.894   2.440 -0.5979 -0.2758  0.3605
  279MOL0     H37653   0.120   7.860   2.299 -0.2208 -0.4223  0.6601
  279MOL0     H37654   0.131   7.954   2.445  2.9808  0.1857  1.1379
  279MOL0     H37655   0.074   7.649   2.406 -0.8514  0.8743 -2.8220
  279MOL0     H37656  -0.040   7.775   2.434 -0.1989  3.7333  2.3659
  279MOL0     H37657   0.090   7.800   2.674  0.3326 -0.9042  1.7486
  279MOL0     H37658   0.193   7.663   2.621 -0.0106  0.6782  3.1402
  279MOL0     H37659  -0.006   7.603   2.774 -0.2159 -0.3259 -1.1193
  279MOL0     H37660  -0.112   7.669   2.649  1.1164  1.3599 -2.2387
  279MOL0     H37661   0.063   7.268   2.593 -1.5696 -0.7432  0.4955
  279MOL0     H37662   0.228   7.666   2.231  0.2955 -3.2103  1.2524
  279MOL0     H37663   0.263   7.590   2.032 -0.7206 -2.1953  1.4634
  279MOL0     H37664   0.425   7.619   1.934  2.4773 -1.4348  0.7009
  279MOL0     H37665   0.402   7.476   2.036 -3.0184  0.0352  0.5297
  280MOL0     O37666   5.166  10.546   0.573  0.0744 -0.4803  0.1914
  280MOL0     C37667   5.228  10.504   0.478  0.9688 -0.7032  0.5144
  280MOL0     O37668   5.362  10.511   0.461  0.2969 -0.3935 -0.5114
  280MOL0     C37669   5.439  10.583   0.544 -0.8301  0.4196 -0.7352
  280MOL0     C37670   5.406  10.713   0.569  1.0760 -0.8100 -0.1841
  280MOL0     C37671   5.497  10.798   0.645  0.2912 -0.3108  0.3644
  280MOL0     C37672   5.606  10.732   0.715  0.4992  0.1006  0.6167
  280MOL0     O37673   5.678  10.815   0.795 -0.8244  0.3609  0.5285
  280MOL0     C37674   5.804  10.758   0.857  1.3544  0.5704 -0.5844
  280MOL0     C37675   5.878  10.855   0.937  0.1092 -0.4234  0.0902
  280MOL0     C37676   5.904  10.983   0.847  0.0387  0.6967 -0.6486
  280MOL0     C37677   5.965  11.089   0.946 -0.2634 -0.3573 -0.0395
  280MOL0     C37678   5.993  11.214   0.862  0.3753 -0.7589  0.3697
  280MOL0     C37679   6.077  11.313   0.947  0.0147 -0.5322  0.4739
  280MOL0     C37680   6.123  11.439   0.861 -0.3535  0.4609 -0.2642
  280MOL0     C37681   6.187  11.549   0.947  0.4296 -0.1691  0.7119
  280MOL0     N37682   6.228  11.672   0.870 -0.9723  0.0034 -0.0906
  280MOL0     C37683   6.132  11.770   0.838 -0.2337 -0.0670 -0.8363
  280MOL0     C37684   6.204  11.877   0.803  0.4643 -0.1707 -0.8230
  280MOL0     C37685   6.132  12.002   0.763  0.4892 -0.0368  1.0330
  280MOL0     C37686   6.212  12.125   0.782 -0.8815 -0.2922 -0.9819
  280MOL0     C37687   6.167  12.248   0.703  0.0102  0.6873  0.0337
  280MOL0     C37688   6.226  12.253   0.563  0.2567 -0.0226  0.1606
  280MOL0     O37689   6.145  12.348   0.490 -0.7863  0.3050  0.4010
  280MOL0     C37690   6.213  12.426   0.401  0.1987 -0.0653  0.3107
  280MOL0     C37691   6.325  12.502   0.440  0.2521 -0.5613 -0.3782
  280MOL0     C37692   6.378  12.598   0.359  1.1513 -0.1962 -0.0638
  280MOL0     C37693   6.324  12.637   0.237 -0.6592  0.5814  0.8804
  280MOL0     C37694   6.376  12.748   0.162 -0.1340  0.3877  0.5797
  280MOL0     O37695   6.300  12.781   0.052  0.4429 -0.8423  0.6087
  280MOL0     C37696   6.305  12.908  -0.001 -0.0270  0.6794 -0.0362
  280MOL0     C37697   6.280  13.030   0.075  0.2452  0.5892  0.4049
  280MOL0     C37698   6.285  13.159   0.024 -0.6565 -0.5421 -0.5264
  280MOL0     C37699   6.323  13.181  -0.109 -0.3682  0.0332  0.8343
  280MOL0     O37700   6.342  13.303  -0.164 -0.6700  0.3736  0.3371
  280MOL0     C37701   6.364  13.420  -0.078 -0.4418 -0.5254 -0.1651
  280MOL0     C37702   6.246  13.517  -0.095 -0.5134 -0.0949 -0.1222
  280MOL0     C37703   6.116  13.461  -0.039 -0.2204  0.6857 -0.4485
  280MOL0     C37704   5.996  13.557  -0.035  0.1704  0.8702  0.2203
  280MOL0     C37705   6.012  13.690   0.052 -0.1701 -0.2152 -0.4557
  280MOL0     C37706   5.881  13.753   0.086 -0.1402 -0.5526 -0.6290
  280MOL0     C37707   5.903  13.865   0.181 -0.3591 -0.0920  0.3070
  280MOL0     C37708   5.765  13.909   0.231 -0.6643  0.3918  0.0809
  280MOL0    Cl37709   5.779  14.021   0.378  0.0005 -0.5085 -0.2735
  280MOL0     C37710   6.350  13.064  -0.188 -0.4187  0.1507 -0.1553
  280MOL0     C37711   6.347  12.928  -0.131  0.1202 -0.2643  0.2407
  280MOL0     O37712   6.463  12.814   0.209  0.4947  0.3535 -0.8080
  280MOL0     C37713   6.206  12.573   0.197 -0.2728  0.1570 -0.8467
  280MOL0     C37714   6.153  12.462   0.277 -0.7747 -0.1006 -0.1873
  280MOL0     N37715   6.342  11.853   0.818  0.2881 -0.6874  1.1396
  280MOL0     N37716   6.351  11.733   0.854 -1.1122  0.3299  0.2848
  280MOL0     C37717   5.630  10.602   0.686 -0.3853  0.3946 -0.2708
  280MOL0     C37718   5.552  10.526   0.594 -0.8885 -0.2990 -0.2030
  280MOL0     C37719   5.151  10.422   0.382 -0.7984  0.7705  0.0683
  280MOL0     C37720   5.222  10.343   0.293  0.1218  0.2706 -0.2923
  280MOL0     C37721   5.171  10.266   0.184 -0.7048  0.5550 -0.1306
  280MOL0     C37722   5.035  10.281   0.161  0.4569  0.0375 -0.1496
  280MOL0     O37723   4.985  10.217   0.053 -0.4620  0.6086 -0.1565
  280MOL0     C37724   4.856  10.243  -0.010 -0.4313 -0.3867 -0.8245
  280MOL0     C37725   4.828  10.134  -0.124 -0.7777 -0.9017  0.2329
  280MOL0     C37726   4.936  10.152  -0.232  0.0505  0.1508 -0.1448
  280MOL0     C37727   4.889  10.207  -0.369 -0.0100 -0.3065  0.3245
  280MOL0     C37728   4.996  10.256  -0.455 -0.6238  0.1396 -0.7139
  280MOL0     C37729   5.094  10.276  -0.527  0.2915  0.5807  0.2201
  280MOL0     C37730   4.959  10.353   0.249  0.5973 -1.4145 -1.1125
  280MOL0     C37731   5.014  10.419   0.366  0.4611  0.3667  0.1165
  280MOL0     C37732   4.916  10.482   0.455  0.2419  0.8789  0.5451
  280MOL0     H37733   5.312  10.755   0.533  0.7881  0.6346  2.0376
  280MOL0     H37734   5.485  10.905   0.658 -1.7567 -0.6285  1.5260
  280MOL0     H37735   5.784  10.672   0.922 -2.2109  0.6162 -1.4189
  280MOL0     H37736   5.870  10.724   0.777 -0.3093  0.2678 -1.8969
  280MOL0     H37737   5.966  10.800   0.974  0.3053 -1.3811 -1.6917
  280MOL0     H37738   5.810  10.879   1.019 -0.1747  0.0990 -0.2917
  280MOL0     H37739   5.821  11.020   0.786 -1.2102 -3.4904 -1.8270
  280MOL0     H37740   5.982  10.958   0.774  1.7599  0.4045  1.2048
  280MOL0     H37741   5.907  11.122   1.032 -3.8337  2.9847 -3.3892
  280MOL0     H37742   6.055  11.045   0.991  1.2498 -0.5713 -3.0211
  280MOL0     H37743   6.055  11.193   0.774  1.9700  1.0249  0.9754
  280MOL0     H37744   5.896  11.250   0.827  0.7913 -0.9349 -1.0273
  280MOL0     H37745   6.016  11.348   1.031  0.9925  1.6953  0.3138
  280MOL0     H37746   6.175  11.276   0.978  1.6113  2.2450 -0.8988
  280MOL0     H37747   6.027  11.475   0.824 -1.5039 -0.0261  2.0284
  280MOL0     H37748   6.179  11.404   0.773  2.2973  2.2536  0.5816
  280MOL0     H37749   6.108  11.569   1.021 -1.5101 -1.7102 -0.8449
  280MOL0     H37750   6.276  11.514   1.001  0.2602  3.1315  3.4854
  280MOL0     H37751   6.024  11.762   0.833 -0.1668 -3.3844  0.5341
  280MOL0     H37752   6.133  11.989   0.654  4.7060  3.8231  0.2955
  280MOL0     H37753   6.034  12.005   0.810 -1.4202 -1.7928 -2.4418
  280MOL0     H37754   6.224  12.153   0.887 -0.3840  0.4993 -1.2419
  280MOL0     H37755   6.310  12.110   0.737 -1.5062 -0.4200 -2.3534
  280MOL0     H37756   6.219  12.330   0.753 -0.7992  0.6204  1.0342
  280MOL0     H37757   6.058  12.254   0.704 -0.0043  0.4133  0.2160
  280MOL0     H37758   6.231  12.154   0.517  1.8211  1.3170 -2.8141
  280MOL0     H37759   6.333  12.276   0.560 -0.0966  2.1731 -4.5229
  280MOL0     H37760   6.385  12.483   0.528 -0.4333  1.4048  0.5705
  280MOL0     H37761   6.470  12.645   0.390  0.4327  0.7178  0.7559
  280MOL0     H37762   6.257  13.008   0.179 -1.7693 -1.2696 -0.3549
  280MOL0     H37763   6.272  13.247   0.085 -2.1766 -0.2289 -1.2555
  280MOL0     H37764   6.382  13.388   0.025 -0.1317 -1.0863 -0.3836
  280MOL0     H37765   6.458  13.466  -0.112 -0.9281  0.6777  0.0794
  280MOL0     H37766   6.269  13.614  -0.050  0.4177 -0.6295  0.5969
  280MOL0     H37767   6.236  13.534  -0.203  2.0943 -0.4592 -0.4863
  280MOL0     H37768   6.085  13.373  -0.097  1.5980  0.7746 -1.6360
  280MOL0     H37769   6.139  13.423   0.060  1.0856  1.4075 -0.4578
  280MOL0     H37770   5.907  13.495  -0.016  0.8843 -0.3199 -0.2108
  280MOL0     H37771   5.985  13.592  -0.138 -0.6774 -0.7384 -0.2775
  280MOL0     H37772   6.077  13.758  -0.004 -0.5268  0.1039 -0.4839
  280MOL0     H37773   6.067  13.657   0.141  1.4388 -2.4299 -2.1420
  280MOL0     H37774   5.847  13.779  -0.015 -1.2176  1.1438  0.1237
  280MOL0     H37775   5.816  13.676   0.128 -0.5310  0.6093  0.9805
  280MOL0     H37776   5.948  13.947   0.124  1.9301 -2.8752 -2.2416
  280MOL0     H37777   5.961  13.834   0.268 -0.5893  2.0258  1.2879
  280MOL0     H37778   5.710  13.956   0.149  0.8331  0.8842 -0.6978
  280MOL0     H37779   5.720  13.815   0.263 -0.9379  1.3348  2.7601
  280MOL0     H37780   6.379  13.081  -0.291  0.1112  2.3763  0.3178
  280MOL0     H37781   6.388  12.855  -0.200  3.8894  1.2251  0.7037
  280MOL0     H37782   6.150  12.609   0.112 -1.2346  0.1132 -0.2419
  280MOL0     H37783   6.063  12.411   0.244 -1.9983  0.9184  1.4454
  280MOL0     H37784   5.726  10.566   0.721  0.3282  0.3439 -2.1528
  280MOL0     H37785   5.596  10.428   0.579  2.7493  0.7541  2.1894
  280MOL0     H37786   5.331  10.348   0.294  0.1117  0.4837 -0.3144
  280MOL0     H37787   5.240  10.215   0.117  1.4647  3.0454  0.0621
  280MOL0     H37788   4.861  10.340  -0.060 -1.0057  0.9062  1.5061
  280MOL0     H37789   4.768  10.250   0.055 -1.3001  2.5728 -2.1322
  280MOL0     H37790   4.728  10.149  -0.167 -1.3143  2.2875  2.1722
  280MOL0     H37791   4.832  10.034  -0.080  1.0127 -0.9116  0.1163
  280MOL0     H37792   4.975  10.051  -0.248 -2.0335 -0.7024 -0.1790
  280MOL0     H37793   5.025  10.204  -0.196 -0.2862  0.7951 -0.2259
  280MOL0     H37794   4.836  10.125  -0.420 -1.8149  1.8165 -1.4130
  280MOL0     H37795   4.824  10.294  -0.354  1.6231  1.3254 -1.4706
  280MOL0     H37796   5.175  10.268  -0.597  0.1782 -2.0298  0.3122
  280MOL0     H37797   4.852  10.360   0.234  0.9900  2.6125 -3.2325
  280MOL0     H37798   4.816  10.471   0.412  0.0444 -0.0871  1.2099
  280MOL0     H37799   4.915  10.420   0.546  0.9083  0.8657  0.5493
  280MOL0     H37800   4.933  10.587   0.478 -1.7366  0.8258  2.7205
  281MOL0     O37801   2.807   9.891  10.065 -0.0694  0.2109 -0.0127
  281MOL0     C37802   2.774  10.005  10.107 -0.0444  0.6534 -1.1340
  281MOL0     O37803   2.864  10.100  10.146  0.4836 -0.9085 -0.0732
  281MOL0     C37804   2.998  10.102  10.132  0.8353 -0.4793 -0.7437
  281MOL0     C37805   3.074  10.063  10.022 -0.0002 -0.5330  0.5051
  281MOL0     C37806   3.213  10.092  10.016  0.2123  0.1995 -0.1035
  281MOL0     C37807   3.271  10.162  10.120 -0.3358  0.8279  0.1763
  281MOL0     O37808   3.407  10.177  10.118 -0.0390  0.6500  0.1215
  281MOL0     C37809   3.452  10.321  10.138  0.0989  0.0079  0.0433
  281MOL0     C37810   3.568  10.313  10.238 -0.5252 -0.1805 -0.3651
  281MOL0     C37811   3.647  10.443  10.218  0.0159  0.3920 -0.2385
  281MOL0     C37812   3.762  10.462  10.319  1.0290  0.2836  0.3702
  281MOL0     C37813   3.900  10.493  10.260 -0.0763 -0.1323 -0.4962
  281MOL0     C37814   4.014  10.525  10.360  0.0074 -0.0459  0.4665
  281MOL0     C37815   4.043  10.393  10.433 -0.9367 -0.5738 -0.5467
  281MOL0     C37816   4.127  10.413  10.560 -0.4987  0.3937 -0.5331
  281MOL0     N37817   4.262  10.460  10.530 -0.3183  0.7054 -0.4021
  281MOL0     C37818   4.377  10.390  10.485 -0.2265  0.0503 -0.8633
  281MOL0     C37819   4.475  10.488  10.476  0.5754  0.7073 -0.0727
  281MOL0     C37820   4.621  10.440  10.457  0.0121 -0.1035  0.8697
  281MOL0     C37821   4.696  10.472  10.589 -0.0860 -0.4311  0.5354
  281MOL0     C37822   4.837  10.422  10.585  0.0289  0.3877  0.2795
  281MOL0     C37823   4.918  10.457  10.456  0.0132 -0.1402 -0.5336
  281MOL0     O37824   5.032  10.379  10.464  0.3344  0.7431 -0.1900
  281MOL0     C37825   5.141  10.407  10.535 -0.2055 -0.8113 -0.3802
  281MOL0     C37826   5.262  10.330  10.526  0.2116  0.0045  0.2315
  281MOL0     C37827   5.361  10.345  10.619 -0.6032  0.0797 -0.4468
  281MOL0     C37828   5.374  10.465  10.690 -0.8085  0.3137  0.1679
  281MOL0     C37829   5.496  10.481  10.779  0.1340 -0.3305  0.2477
  281MOL0     O37830   5.483  10.593  10.866  0.0337 -0.3893  0.3747
  281MOL0     C37831   5.580  10.635  10.953  0.2883 -1.0159  0.3918
  281MOL0     C37832   5.561  10.757  11.021  0.2675  0.6867 -0.2934
  281MOL0     C37833   5.660  10.817  11.102 -0.8158  0.3526 -0.3769
  281MOL0     C37834   5.778  10.745  11.127  0.2765  0.1846  0.1364
  281MOL0     O37835   5.874  10.804  11.205  0.0706 -0.1063  0.2687
  281MOL0     C37836   6.010  10.741  11.216  0.0379 -0.1483 -0.9828
  281MOL0     C37837   6.090  10.804  11.340  0.2405 -1.1821  0.0841
  281MOL0     C37838   6.142  10.951  11.315 -0.1255 -0.4695 -1.2570
  281MOL0     C37839   6.242  10.964  11.198 -0.2426  0.0726 -0.6173
  281MOL0     C37840   6.277  11.106  11.168 -0.5695 -0.0975 -0.0801
  281MOL0     C37841   6.343  11.178  11.284 -0.5955  0.3351 -1.0296
  281MOL0     C37842   6.374  11.320  11.235 -0.1425  0.4779 -1.0077
  281MOL0     C37843   6.458  11.413  11.324 -0.1459 -0.3278 -0.4449
  281MOL0    Cl37844   6.637  11.373  11.302  0.3566  0.1445 -0.3370
  281MOL0     C37845   5.800  10.620  11.056 -0.4834  0.2629 -0.4149
  281MOL0     C37846   5.702  10.566  10.971 -0.4593 -0.7170  0.3840
  281MOL0     O37847   5.589  10.403  10.765  0.3840  0.5105  0.7492
  281MOL0     C37848   5.267  10.545  10.699 -0.7441  0.2954  0.3533
  281MOL0     C37849   5.154  10.516  10.619  0.4248 -0.7017 -0.6466
  281MOL0     N37850   4.426  10.613  10.497 -0.1942  0.1828 -0.0897
  281MOL0     N37851   4.301  10.591  10.517 -0.3439  0.0651  0.5784
  281MOL0     C37852   3.197  10.199  10.237  0.0692  0.6055  0.7688
  281MOL0     C37853   3.067  10.165  10.237 -0.4140  0.1846  0.3822
  281MOL0     C37854   2.626  10.037  10.132 -0.9185 -0.3066 -0.0588
  281MOL0     C37855   2.595  10.134  10.224 -0.2674 -0.5787  0.1297
  281MOL0     C37856   2.466  10.178  10.252  0.5830  0.4209 -0.3602
  281MOL0     C37857   2.363  10.122  10.189 -0.2383  0.0510 -0.8215
  281MOL0     O37858   2.243  10.168  10.228  0.3398 -1.0636 -0.2289
  281MOL0     C37859   2.138  10.194  10.139  0.2486 -0.3801  0.9300
  281MOL0     C37860   2.055  10.312  10.185 -0.7361 -0.5449 -0.1693
  281MOL0     C37861   2.134  10.444  10.195 -0.5040  0.6132  0.0588
  281MOL0     C37862   2.208  10.485  10.064  0.4886  0.2707 -0.0827
  281MOL0     C37863   2.261  10.619  10.061 -0.5418  0.3800  0.6675
  281MOL0     C37864   2.302  10.734  10.058  0.9351  0.3103 -0.1370
  281MOL0     C37865   2.378  10.012  10.105 -0.3589  0.0442  0.2972
  281MOL0     C37866   2.510   9.972  10.081  0.2928 -0.4330 -0.3771
  281MOL0     C37867   2.521   9.863   9.994  0.1443 -0.2569  0.1770
  281MOL0     H37868   3.027  10.016   9.936 -2.1096  2.8102 -0.3522
  281MOL0     H37869   3.253  10.052   9.923  1.8301  0.9109  0.2670
  281MOL0     H37870   3.483  10.348  10.036  0.8386 -2.0809 -0.3406
  281MOL0     H37871   3.376  10.393  10.168  1.2547  1.2399  0.1309
  281MOL0     H37872   3.630  10.229  10.208  0.8555 -1.4555  5.0178
  281MOL0     H37873   3.539  10.300  10.342  1.0247 -0.2883  0.0650
  281MOL0     H37874   3.591  10.537  10.220 -0.6304  0.0332 -0.7139
  281MOL0     H37875   3.689  10.433  10.118  1.4095  0.2799  0.3448
  281MOL0     H37876   3.729  10.538  10.391 -1.3906 -1.6488  1.4600
  281MOL0     H37877   3.752  10.377  10.387 -0.5094  1.1060  1.2377
  281MOL0     H37878   3.951  10.409  10.211 -0.0072 -0.6404  0.4289
  281MOL0     H37879   3.889  10.573  10.186  1.9403 -0.4834 -1.2265
  281MOL0     H37880   4.099  10.563  10.302 -2.3560  1.7566 -2.0769
  281MOL0     H37881   3.981  10.610  10.420  0.0993  1.1129 -1.0567
  281MOL0     H37882   4.107  10.335  10.366  0.3722  1.4389 -1.1336
  281MOL0     H37883   3.955  10.331  10.452 -0.9128  0.1354  2.4116
  281MOL0     H37884   4.078  10.485  10.626 -0.5203  2.2603 -2.4706
  281MOL0     H37885   4.135  10.318  10.613  1.1531  1.0913  0.5814
  281MOL0     H37886   4.392  10.283  10.491 -2.4143 -0.2608 -0.0193
  281MOL0     H37887   4.616  10.335  10.428 -2.7264  0.4842 -1.1506
  281MOL0     H37888   4.669  10.498  10.378 -0.7794  0.8238  1.0525
  281MOL0     H37889   4.691  10.580  10.609  0.6579 -0.1422 -0.7524
  281MOL0     H37890   4.641  10.429  10.673  1.5475 -1.2179  1.2350
  281MOL0     H37891   4.839  10.315  10.603  1.4169  0.6416  1.9361
  281MOL0     H37892   4.882  10.475  10.669 -1.6611 -1.3186  2.3977
  281MOL0     H37893   4.940  10.565  10.452  0.8248 -0.2039  1.2543
  281MOL0     H37894   4.855  10.425  10.373 -1.8616 -1.4015  1.2814
  281MOL0     H37895   5.265  10.248  10.455 -1.1874 -1.1588  1.4392
  281MOL0     H37896   5.446  10.277  10.617 -0.1731  0.5933 -2.2320
  281MOL0     H37897   5.469  10.810  10.997  0.0721  0.1073 -0.8629
  281MOL0     H37898   5.639  10.916  11.143  1.0611  0.6901 -0.1276
  281MOL0     H37899   6.006  10.635  11.243 -2.9413  0.8695  3.8276
  281MOL0     H37900   6.061  10.755  11.121  1.2133  1.4096 -0.1678
  281MOL0     H37901   6.023  10.816  11.426  0.8044 -0.6368  0.4598
  281MOL0     H37902   6.180  10.752  11.373  3.0107  2.0537 -1.7789
  281MOL0     H37903   6.050  11.003  11.285 -1.5129 -0.0310  3.0370
  281MOL0     H37904   6.182  10.989  11.409 -0.1793 -0.3918 -1.2650
  281MOL0     H37905   6.189  10.919  11.114 -1.4025  0.8316 -0.3162
  281MOL0     H37906   6.336  10.911  11.216  0.0290  0.8098  0.2230
  281MOL0     H37907   6.187  11.164  11.147 -0.3778 -0.6998 -2.9392
  281MOL0     H37908   6.330  11.115  11.072 -1.0472 -0.5880 -0.3930
  281MOL0     H37909   6.268  11.195  11.361  2.3824  0.2052  2.1305
  281MOL0     H37910   6.429  11.119  11.317 -1.0398  0.7916  1.0528
  281MOL0     H37911   6.278  11.366  11.211 -1.1412 -1.8163 -1.7149
  281MOL0     H37912   6.439  11.312  11.148  3.1541 -0.6316  1.3494
  281MOL0     H37913   6.442  11.511  11.278 -1.8754 -0.7762 -0.8677
  281MOL0     H37914   6.423  11.412  11.428 -2.9260  2.2141 -1.2175
  281MOL0     H37915   5.890  10.561  11.074 -0.6151  0.7984  2.4192
  281MOL0     H37916   5.728  10.473  10.922  1.1611 -1.7334  2.9511
  281MOL0     H37917   5.275  10.637  10.756  1.5680 -1.4945  3.2436
  281MOL0     H37918   5.075  10.589  10.631  2.5065  1.3132  1.7780
  281MOL0     H37919   3.252  10.247  10.318  3.1619 -1.0605 -0.1972
  281MOL0     H37920   3.002  10.198  10.318 -2.5877  0.7745 -1.4828
  281MOL0     H37921   2.659  10.199  10.282 -0.2459 -0.9430  0.5142
  281MOL0     H37922   2.458  10.250  10.333  2.3450 -0.6743  0.8532
  281MOL0     H37923   2.079  10.102  10.136  0.1623 -0.2992  0.0626
  281MOL0     H37924   2.177  10.211  10.038  0.3860 -1.6221  0.7649
  281MOL0     H37925   1.993  10.299  10.274  0.4984 -1.7461  0.5456
  281MOL0     H37926   1.971  10.317  10.114 -0.4051 -1.3248 -0.6244
  281MOL0     H37927   2.219  10.435  10.262  0.4534 -1.5777 -1.3359
  281MOL0     H37928   2.072  10.526  10.230 -0.0117  0.9090  0.2405
  281MOL0     H37929   2.295  10.424  10.039  2.8307  3.5968 -0.6309
  281MOL0     H37930   2.146  10.462   9.978 -1.2623 -0.4432  1.3027
  281MOL0     H37931   2.334  10.836  10.052  0.9170  0.2557 -1.3024
  281MOL0     H37932   2.288   9.968  10.063  0.0803 -2.2269  1.5617
  281MOL0     H37933   2.576   9.782  10.043 -0.0592  0.1746  1.1208
  281MOL0     H37934   2.432   9.816   9.951  1.3849 -0.2263 -2.6820
  281MOL0     H37935   2.587   9.899   9.915 -0.5199 -1.9770 -1.2532
  282MOL0     O37936   7.995   0.483  10.830 -0.5352  0.1827 -0.2147
  282MOL0     C37937   8.003   0.369  10.801  0.3128  0.3782  0.5907
  282MOL0     O37938   8.108   0.315  10.730 -0.7154 -0.3042 -0.1668
  282MOL0     C37939   8.235   0.374  10.746 -0.4750 -1.2046  0.4251
  282MOL0     C37940   8.330   0.317  10.827  0.2374  0.7172 -0.4543
  282MOL0     C37941   8.469   0.361  10.816  0.3493  0.1876 -0.7226
  282MOL0     C37942   8.507   0.464  10.730 -0.4425 -0.1192 -0.3520
  282MOL0     O37943   8.628   0.522  10.716 -0.9797 -0.2373 -0.5918
  282MOL0     C37944   8.707   0.538  10.834  1.1493 -0.6019 -0.0850
  282MOL0     C37945   8.818   0.638  10.799  0.4749 -0.8083 -0.3408
  282MOL0     C37946   8.938   0.667  10.902 -0.6582  0.0891  0.0157
  282MOL0     C37947   9.056   0.734  10.821 -0.2594  0.2998 -0.4799
  282MOL0     C37948   9.175   0.778  10.910  0.5332  0.0110 -1.1288
  282MOL0     C37949   9.292   0.847  10.836  0.2192 -1.4185  0.1028
  282MOL0     C37950   9.425   0.849  10.897  0.7005 -0.1755 -0.4544
  282MOL0     C37951   9.432   0.938  11.022 -0.5757  0.5467 -1.2043
  282MOL0     N37952   9.415   1.084  10.991  0.0819 -0.3292 -0.3260
  282MOL0     C37953   9.450   1.166  10.884  0.1671  0.2698 -0.8614
  282MOL0     C37954   9.389   1.282  10.914 -0.4550  0.6055 -0.5049
  282MOL0     C37955   9.383   1.393  10.810 -0.8730  0.0865  0.4534
  282MOL0     C37956   9.286   1.505  10.834  0.2471 -0.3075  0.5285
  282MOL0     C37957   9.242   1.591  10.710  0.3143  0.2657  0.9158
  282MOL0     C37958   9.343   1.615  10.597  0.5199  0.0759 -0.9528
  282MOL0     O37959   9.454   1.677  10.664 -0.0685 -0.0187 -0.1396
  282MOL0     C37960   9.573   1.685  10.595  0.3074  0.9135 -0.6307
  282MOL0     C37961   9.696   1.703  10.664 -0.0804  0.2323  0.7231
  282MOL0     C37962   9.812   1.697  10.599 -0.0664 -0.5897  0.7151
  282MOL0     C37963   9.822   1.655  10.459  0.2943  0.1146 -0.4443
  282MOL0     C37964   9.960   1.632  10.411 -0.6810 -0.4308 -0.2466
  282MOL0     O37965  10.060   1.692  10.487  0.5036  0.8210 -0.0868
  282MOL0     C37966  10.191   1.674  10.459 -0.9456  0.0383 -0.6193
  282MOL0     C37967  10.291   1.659  10.569  1.1216  1.2792  0.2492
  282MOL0     C37968  10.430   1.649  10.543 -0.4428 -0.0796 -0.2044
  282MOL0     C37969  10.478   1.654  10.415  1.1027  0.2149  1.3035
  282MOL0     O37970  10.612   1.652  10.391 -0.2943 -0.1887 -0.5010
  282MOL0     C37971  10.656   1.694  10.267 -0.2566 -0.1467  0.7754
  282MOL0     C37972  10.804   1.666  10.248 -1.2758 -0.1089 -0.3403
  282MOL0     C37973  10.840   1.511  10.254 -0.2836  0.0423 -0.3141
  282MOL0     C37974  10.829   1.447  10.122 -0.2416  0.3536  0.9534
  282MOL0     C37975  10.899   1.315  10.124 -0.1496 -0.0537 -1.0790
  282MOL0     C37976  10.878   1.233   9.995  0.1406 -0.2768 -0.5432
  282MOL0     C37977  10.954   1.106  10.003  0.9074  0.5879  0.7193
  282MOL0     C37978  10.968   1.032   9.867  0.3287 -0.5618  0.4154
  282MOL0    Cl37979  10.815   0.999   9.789  0.1346 -0.0494  0.8278
  282MOL0     C37980  10.385   1.662  10.311  0.3927  0.4751  0.2161
  282MOL0     C37981  10.247   1.687  10.330 -0.2925  1.4849 -0.5822
  282MOL0     O37982   9.985   1.559  10.310  0.2067  0.1197 -0.1429
  282MOL0     C37983   9.704   1.636  10.390 -0.2759  0.2280  0.3822
  282MOL0     C37984   9.587   1.666  10.462  0.0390  0.0172 -0.3381
  282MOL0     N37985   9.309   1.264  11.026  0.8624 -0.4375  0.5677
  282MOL0     N37986   9.307   1.142  11.055 -0.0128  0.5206 -0.6940
  282MOL0     C37987   8.412   0.528  10.660  0.1223 -0.1356 -0.0590
  282MOL0     C37988   8.279   0.479  10.663  0.3829 -0.0185  0.5097
  282MOL0     C37989   7.904   0.267  10.849  0.6494  0.1914 -1.0827
  282MOL0     C37990   7.947   0.132  10.845 -0.4225  1.0445 -1.2425
  282MOL0     C37991   7.871   0.027  10.898 -0.0192  1.2451 -0.3878
  282MOL0     C37992   7.738   0.051  10.946  0.3998 -1.0440  0.1595
  282MOL0     O37993   7.648  -0.043  11.000 -0.2285  0.1732  0.2916
  282MOL0     C37994   7.658  -0.178  10.947 -0.5782 -0.6416  0.3993
  282MOL0     C37995   7.526  -0.247  10.984 -0.3859  0.1371  0.0401
  282MOL0     C37996   7.539  -0.395  10.995  0.4556 -0.6224 -0.9774
  282MOL0     C37997   7.423  -0.450  11.080  0.0011 -0.6385  0.3374
  282MOL0     C37998   7.434  -0.592  11.092  0.9527 -0.7211  0.0109
  282MOL0     C37999   7.421  -0.707  11.102 -0.3439  0.9479 -0.0137
  282MOL0     C38000   7.697   0.185  10.955 -0.9624  0.5618 -0.2980
  282MOL0     C38001   7.776   0.291  10.910 -0.2511 -0.0580  0.1484
  282MOL0     C38002   7.712   0.429  10.917  0.0700  0.4509 -0.3664
  282MOL0     H38003   8.294   0.232  10.883  0.2996 -0.1027 -1.6296
  282MOL0     H38004   8.548   0.297  10.854 -0.7833 -2.3876 -2.4179
  282MOL0     H38005   8.640   0.565  10.916 -1.3399 -2.5042 -1.3369
  282MOL0     H38006   8.755   0.443  10.858  0.9232 -0.2841  1.7481
  282MOL0     H38007   8.763   0.727  10.766  1.2613  0.4293  1.4965
  282MOL0     H38008   8.863   0.600  10.707 -1.4585  0.8535 -2.0859
  282MOL0     H38009   8.975   0.574  10.944 -0.5728  0.2297  0.2532
  282MOL0     H38010   8.905   0.729  10.986 -1.9896  1.0520 -1.1741
  282MOL0     H38011   9.078   0.657  10.746 -0.0500 -0.2179  0.1007
  282MOL0     H38012   9.013   0.821  10.771 -0.1775  0.5808 -0.0622
  282MOL0     H38013   9.139   0.848  10.987  0.8032 -0.9462 -0.1102
  282MOL0     H38014   9.209   0.695  10.971  0.5391 -0.8144 -2.2284
  282MOL0     H38015   9.303   0.793  10.741  0.9356  2.0867 -1.9727
  282MOL0     H38016   9.263   0.946  10.800  1.0799 -1.7871 -1.7184
  282MOL0     H38017   9.511   0.864  10.831 -0.1027 -2.7660 -2.2577
  282MOL0     H38018   9.441   0.743  10.920 -2.6975 -0.5072  0.9735
  282MOL0     H38019   9.354   0.901  11.089 -1.5249  1.5627 -1.7120
  282MOL0     H38020   9.528   0.914  11.068 -0.6162 -1.6467 -2.1189
  282MOL0     H38021   9.521   1.146  10.805  1.1564 -0.3179  0.1531
  282MOL0     H38022   9.485   1.433  10.804 -1.5626  1.8709  0.0950
  282MOL0     H38023   9.355   1.354  10.712  1.5039  1.1927 -0.7451
  282MOL0     H38024   9.193   1.472  10.882  0.4825 -0.0858  1.1539
  282MOL0     H38025   9.324   1.580  10.905 -1.2292  3.2444 -2.1426
  282MOL0     H38026   9.204   1.685  10.750  0.8907 -0.6456  3.8426
  282MOL0     H38027   9.154   1.541  10.668 -0.3231  2.0415  0.0422
  282MOL0     H38028   9.294   1.685  10.529  0.5471  0.8818 -0.1634
  282MOL0     H38029   9.361   1.519  10.548 -1.9902  0.2472 -2.3258
  282MOL0     H38030   9.691   1.721  10.771  0.5828  1.8578  0.5177
  282MOL0     H38031   9.893   1.715  10.669  0.4185  1.2483 -0.2844
  282MOL0     H38032  10.259   1.653  10.672 -2.9523 -1.7071 -0.9392
  282MOL0     H38033  10.490   1.624  10.629 -1.1225 -1.6304 -0.1461
  282MOL0     H38034  10.618   1.635  10.182  3.2692 -0.8406 -0.4796
  282MOL0     H38035  10.641   1.801  10.254  1.3560 -0.0632 -0.6871
  282MOL0     H38036  10.839   1.707  10.153  1.5679  0.4838  0.8434
  282MOL0     H38037  10.853   1.718  10.331 -1.9901 -0.9270  0.6205
  282MOL0     H38038  10.941   1.489  10.290 -0.7784 -0.6184  0.7212
  282MOL0     H38039  10.779   1.461  10.330 -1.0836  1.3327 -0.0782
  282MOL0     H38040  10.863   1.512  10.041 -2.5584  0.6828  0.1725
  282MOL0     H38041  10.722   1.434  10.104 -0.7769  2.7550  1.9794
  282MOL0     H38042  10.848   1.261  10.204 -1.4803  3.4699  0.6355
  282MOL0     H38043  11.005   1.327  10.150 -0.4939  2.5846 -0.5901
  282MOL0     H38044  10.772   1.209   9.979  0.0007 -0.7671  0.9427
  282MOL0     H38045  10.898   1.296   9.908  0.5775 -0.1579 -0.3550
  282MOL0     H38046  10.911   1.039  10.078  0.5246  0.0819  0.0534
  282MOL0     H38047  11.056   1.133  10.034  0.5798  1.2392  1.2530
  282MOL0     H38048  11.019   1.097   9.795 -3.0844  0.1231 -1.6312
  282MOL0     H38049  11.033   0.946   9.884  0.1657 -0.2725  2.8494
  282MOL0     H38050  10.412   1.672  10.207  1.9355  1.8882  0.7238
  282MOL0     H38051  10.190   1.706  10.240 -0.2505  1.7444 -0.5555
  282MOL0     H38052   9.707   1.600  10.288 -0.9714 -0.5642  0.6297
  282MOL0     H38053   9.493   1.672  10.407  0.0620  0.4844 -0.3286
  282MOL0     H38054   8.439   0.619  10.607  0.9557 -0.2342  0.1901
  282MOL0     H38055   8.206   0.523  10.596  0.2558  0.4430  0.9458
  282MOL0     H38056   8.049   0.107  10.815 -0.3099 -0.3314  0.1413
  282MOL0     H38057   7.912  -0.074  10.892 -1.9188  0.4107 -0.0196
  282MOL0     H38058   7.745  -0.218  11.000 -1.8037 -0.2854  2.8352
  282MOL0     H38059   7.678  -0.186  10.840  2.0701 -0.0533  0.7704
  282MOL0     H38060   7.443  -0.214  10.921 -2.0377  0.8883  2.4536
  282MOL0     H38061   7.495  -0.203  11.079  0.7310 -0.6398  0.7812
  282MOL0     H38062   7.634  -0.438  11.029 -0.7059 -1.5395  1.3012
  282MOL0     H38063   7.521  -0.426  10.892 -0.5528  2.4194 -1.8297
  282MOL0     H38064   7.435  -0.409  11.180 -3.0724  0.5052  0.3481
  282MOL0     H38065   7.327  -0.416  11.040  1.1888  2.1415 -0.3836
  282MOL0     H38066   7.386  -0.808  11.105  2.6747 -0.2648 -1.2197
  282MOL0     H38067   7.597   0.203  10.993 -0.1285 -1.2865  3.1176
  282MOL0     H38068   7.614   0.430  10.967 -0.9939 -0.7909 -2.3008
  282MOL0     H38069   7.779   0.494  10.974 -2.4052  3.8206 -1.0041
  282MOL0     H38070   7.702   0.467  10.815  0.7284 -0.6382 -0.8442
  283MOL0     O38071   6.206   5.727   3.435 -0.1015 -0.7208  0.4443
  283MOL0     C38072   6.151   5.776   3.531  0.9375 -0.3303 -0.7622
  283MOL0     O38073   6.149   5.908   3.570  0.4304  0.8019  0.6356
  283MOL0     C38074   6.155   6.009   3.473  0.8314  0.8505 -0.4368
  283MOL0     C38075   6.117   5.998   3.336 -0.8750  0.5847 -0.4220
  283MOL0     C38076   6.140   6.112   3.254 -0.0864 -0.3899  0.1239
  283MOL0     C38077   6.189   6.236   3.302  0.3800  0.9453 -0.1528
  283MOL0     O38078   6.209   6.343   3.225 -0.4954 -0.1220  0.2326
  283MOL0     C38079   6.210   6.325   3.082 -1.0588 -0.4650 -0.4537
  283MOL0     C38080   6.062   6.329   3.025 -1.0286 -0.0718  0.6611
  283MOL0     C38081   6.051   6.222   2.919  0.0325  0.1373 -0.0338
  283MOL0     C38082   5.900   6.239   2.879 -0.0148 -0.0894 -0.1102
  283MOL0     C38083   5.855   6.151   2.770  0.5431 -1.1882 -0.0479
  283MOL0     C38084   5.870   6.003   2.781 -0.1389 -0.3347  0.7337
  283MOL0     C38085   5.815   5.930   2.657  0.2254 -0.4067 -1.9762
  283MOL0     C38086   5.806   5.776   2.676 -0.1784 -0.1915 -0.6354
  283MOL0     N38087   5.942   5.726   2.669 -0.3082  0.0585  0.3337
  283MOL0     C38088   6.024   5.726   2.558 -0.8795  0.4758 -0.2927
  283MOL0     C38089   6.127   5.641   2.595  0.0942  0.1218  0.4025
  283MOL0     C38090   6.249   5.592   2.517  0.1076  0.5330 -0.3866
  283MOL0     C38091   6.220   5.498   2.399  0.0077 -0.5600 -0.4392
  283MOL0     C38092   6.135   5.566   2.294 -0.1126 -0.3056  0.9479
  283MOL0     C38093   6.088   5.462   2.190 -0.6919  0.7295  0.7240
  283MOL0     O38094   6.195   5.377   2.146 -0.6267 -1.2011  0.1128
  283MOL0     C38095   6.310   5.424   2.076  0.0679 -0.2386 -0.2649
  283MOL0     C38096   6.421   5.336   2.073  0.5094 -0.4914  1.1553
  283MOL0     C38097   6.539   5.376   2.003  0.4872  0.5554  0.5418
  283MOL0     C38098   6.550   5.493   1.928 -0.2511 -0.4460  0.4361
  283MOL0     C38099   6.666   5.539   1.851  0.7358 -0.9298 -0.3907
  283MOL0     O38100   6.673   5.674   1.839 -0.4492  0.3124  0.9007
  283MOL0     C38101   6.792   5.726   1.794  0.1053  0.1702  0.2168
  283MOL0     C38102   6.913   5.704   1.863 -0.3117  0.1164  0.5296
  283MOL0     C38103   7.028   5.761   1.822 -0.5923 -0.4199 -0.2744
  283MOL0     C38104   7.043   5.855   1.713 -0.0443  0.5696  0.2386
  283MOL0     O38105   7.159   5.921   1.680  0.9379  0.1575  0.1674
  283MOL0     C38106   7.271   5.908   1.762 -0.3873 -0.1519  0.3061
  283MOL0     C38107   7.387   5.982   1.684  0.2988  0.7672 -0.8555
  283MOL0     C38108   7.372   6.139   1.701 -0.0984  0.0061  0.0990
  283MOL0     C38109   7.484   6.208   1.623 -0.2894  0.9559  0.3904
  283MOL0     C38110   7.482   6.354   1.630 -0.0163 -1.0201  0.0487
  283MOL0     C38111   7.513   6.418   1.770  0.9114 -0.5112 -0.5821
  283MOL0     C38112   7.641   6.366   1.848  0.4072 -0.2914  0.6402
  283MOL0     C38113   7.770   6.428   1.785 -1.0283  0.3805 -0.1171
  283MOL0    Cl38114   7.894   6.370   1.886  0.4627  0.2920  0.0752
  283MOL0     C38115   6.923   5.886   1.649  0.5282 -0.2233  0.2330
  283MOL0     C38116   6.803   5.819   1.683 -0.2979  0.1829  0.0520
  283MOL0     O38117   6.752   5.453   1.836 -0.5525  0.6234 -0.2806
  283MOL0     C38118   6.438   5.573   1.940  0.3999 -1.2750  0.0759
  283MOL0     C38119   6.315   5.550   2.017  0.1621  0.1323 -0.5332
  283MOL0     N38120   6.100   5.597   2.720  0.7203  0.0676 -0.6351
  283MOL0     N38121   5.988   5.636   2.760  0.6170 -0.8656 -0.6340
  283MOL0     C38122   6.193   6.244   3.438 -0.8262  0.5492 -0.3191
  283MOL0     C38123   6.188   6.136   3.521 -0.1265  0.9864  0.2700
  283MOL0     C38124   6.065   5.697   3.616  0.2607  0.3055 -0.8826
  283MOL0     C38125   5.966   5.620   3.557  0.5405 -1.2288  0.0691
  283MOL0     C38126   5.879   5.542   3.633 -0.1148 -0.3692  0.4934
  283MOL0     C38127   5.892   5.533   3.767  0.5501  0.2697 -0.0767
  283MOL0     O38128   5.801   5.449   3.840 -0.9056 -0.8020  0.8924
  283MOL0     C38129   5.668   5.486   3.825 -0.5460 -0.4129 -0.2392
  283MOL0     C38130   5.596   5.423   3.947 -0.3887  0.4029 -0.6264
  283MOL0     C38131   5.450   5.484   3.950  0.2505 -0.6311 -0.6133
  283MOL0     C38132   5.400   5.461   4.090  0.0897 -0.2637 -0.1567
  283MOL0     C38133   5.393   5.314   4.118 -0.0070  0.7215 -0.6240
  283MOL0     C38134   5.394   5.189   4.140  0.3841 -0.3550  0.4570
  283MOL0     C38135   5.992   5.608   3.830  0.2331 -0.1969 -0.0243
  283MOL0     C38136   6.084   5.683   3.753 -0.5283 -0.5149 -0.9452
  283MOL0     C38137   6.205   5.738   3.823  0.6645 -0.0625  0.7280
  283MOL0     H38138   6.084   5.903   3.297  0.7110 -0.3199  0.3241
  283MOL0     H38139   6.115   6.096   3.149  1.1227  1.0524 -0.4157
  283MOL0     H38140   6.273   6.407   3.048  0.9103 -0.8237  2.0790
  283MOL0     H38141   6.259   6.231   3.054 -2.3703 -1.0381 -0.9178
  283MOL0     H38142   6.047   6.429   2.982 -0.9114 -0.5311 -0.5024
  283MOL0     H38143   5.992   6.308   3.105 -1.4648  0.9272  0.5516
  283MOL0     H38144   6.062   6.120   2.958 -0.5699  0.4711  1.0638
  283MOL0     H38145   6.115   6.238   2.832 -0.9349 -0.1439 -0.8099
  283MOL0     H38146   5.839   6.208   2.965 -1.6573 -1.4143 -1.6826
  283MOL0     H38147   5.879   6.343   2.850 -0.3504  0.1104  0.7994
  283MOL0     H38148   5.749   6.170   2.751  1.1454 -0.3412 -3.2508
  283MOL0     H38149   5.916   6.183   2.685 -0.1516 -0.8680 -0.4289
  283MOL0     H38150   5.976   5.981   2.797 -0.5608 -2.9250  0.4784
  283MOL0     H38151   5.811   5.970   2.867 -1.2871  3.2214  1.5012
  283MOL0     H38152   5.878   5.951   2.570  0.9703  1.4825 -1.0586
  283MOL0     H38153   5.712   5.955   2.630 -0.1331 -0.0859 -0.4135
  283MOL0     H38154   5.763   5.755   2.775  2.3585 -3.6306 -0.0901
  283MOL0     H38155   5.741   5.725   2.604 -1.0425  1.6683 -1.2452
  283MOL0     H38156   6.009   5.777   2.464  1.5597 -0.1455 -1.0843
  283MOL0     H38157   6.292   5.681   2.471  1.0778 -0.5145 -1.5709
  283MOL0     H38158   6.321   5.536   2.577  1.4343  1.7902 -0.7580
  283MOL0     H38159   6.316   5.476   2.350  1.2739  2.9422  0.1987
  283MOL0     H38160   6.172   5.406   2.434  0.8545 -0.8306  0.0204
  283MOL0     H38161   6.192   5.642   2.239 -0.9411 -0.1164  0.3068
  283MOL0     H38162   6.058   5.630   2.340  1.7801  0.4165  3.2828
  283MOL0     H38163   6.042   5.518   2.109  2.2711  0.2082 -1.4746
  283MOL0     H38164   6.017   5.390   2.232  0.0918 -1.2936 -1.2341
  283MOL0     H38165   6.425   5.243   2.129 -2.0660 -0.8064  0.9423
  283MOL0     H38166   6.620   5.303   2.002 -0.0815 -0.0957  0.8745
  283MOL0     H38167   6.913   5.640   1.951  0.0039  1.1205  1.2893
  283MOL0     H38168   7.118   5.737   1.878  1.7060 -0.7981 -3.7896
  283MOL0     H38169   7.243   5.945   1.861  1.3711 -0.2843  0.8800
  283MOL0     H38170   7.305   5.805   1.772  0.7634  0.1058 -0.6619
  283MOL0     H38171   7.480   5.953   1.734  0.1177  2.9747  0.9574
  283MOL0     H38172   7.390   5.944   1.582  0.3759 -1.4169 -0.0812
  283MOL0     H38173   7.274   6.177   1.672 -0.2888  0.8076  1.7080
  283MOL0     H38174   7.393   6.168   1.804 -0.1146 -0.9037  0.3639
  283MOL0     H38175   7.464   6.184   1.518 -0.1507 -0.9432  0.7638
  283MOL0     H38176   7.582   6.172   1.657 -0.8806 -0.1996  0.9309
  283MOL0     H38177   7.390   6.403   1.595 -0.1406 -1.0553  0.3237
  283MOL0     H38178   7.549   6.400   1.557 -1.4220  0.5926 -0.3129
  283MOL0     H38179   7.519   6.528   1.767  2.3965 -0.5738 -0.6530
  283MOL0     H38180   7.426   6.406   1.836 -0.2693  4.4117 -0.8124
  283MOL0     H38181   7.645   6.257   1.845 -2.6364 -0.4973  1.1063
  283MOL0     H38182   7.639   6.397   1.952  5.6462 -1.9998  1.5729
  283MOL0     H38183   7.798   6.398   1.684 -1.0831 -0.1942  0.0337
  283MOL0     H38184   7.772   6.537   1.789  4.5453  0.5516 -0.8525
  283MOL0     H38185   6.913   5.958   1.569 -4.0014  0.9556  1.5176
  283MOL0     H38186   6.714   5.853   1.631  0.2356 -0.5631 -1.4052
  283MOL0     H38187   6.437   5.664   1.880 -0.0914 -1.0999  0.3435
  283MOL0     H38188   6.222   5.607   2.016 -0.3517 -0.4964  2.0872
  283MOL0     H38189   6.224   6.338   3.482  0.6566 -0.4225  0.8539
  283MOL0     H38190   6.217   6.152   3.625 -2.4735 -0.3495  1.2211
  283MOL0     H38191   5.977   5.623   3.449  1.1138 -0.2639  0.1424
  283MOL0     H38192   5.798   5.504   3.571  1.1803  1.5034 -2.5829
  283MOL0     H38193   5.625   5.454   3.729  0.7387 -1.0967 -0.6194
  283MOL0     H38194   5.641   5.592   3.829 -1.2590 -0.5870 -0.3925
  283MOL0     H38195   5.638   5.451   4.044  1.3411 -0.7398 -1.0167
  283MOL0     H38196   5.587   5.315   3.937  2.6588 -0.1019  1.1441
  283MOL0     H38197   5.382   5.432   3.882 -1.3715  0.9332 -0.2745
  283MOL0     H38198   5.449   5.592   3.929  0.0199 -0.7756 -1.3717
  283MOL0     H38199   5.464   5.514   4.161 -0.1200  1.1674 -0.9895
  283MOL0     H38200   5.299   5.497   4.115  0.3059 -0.4065  0.9790
  283MOL0     H38201   5.394   5.083   4.151 -0.8526 -0.3504  0.7108
  283MOL0     H38202   5.995   5.599   3.938 -2.4361 -0.1560  0.1249
  283MOL0     H38203   6.288   5.669   3.809  0.5962 -0.5095  2.3237
  283MOL0     H38204   6.236   5.835   3.784 -0.6429 -0.0591 -0.3759
  283MOL0     H38205   6.197   5.744   3.932 -0.7010  0.9066  0.6051
  284MOL0     O38206   2.879   3.703   4.777 -0.3194 -0.0801  0.2825
  284MOL0     C38207   2.825   3.805   4.772 -0.5823 -0.1070 -0.7946
  284MOL0     O38208   2.880   3.930   4.799 -0.7480 -0.1423  0.1209
  284MOL0     C38209   3.018   3.930   4.831  0.5476 -0.0819 -0.3465
  284MOL0     C38210   3.125   3.956   4.744 -0.2938  0.5635  0.0698
  284MOL0     C38211   3.253   3.966   4.805 -0.0151 -0.3593  0.5486
  284MOL0     C38212   3.274   3.953   4.949  0.3450  0.7002 -0.1075
  284MOL0     O38213   3.408   3.956   4.991 -0.0177 -0.0287  0.7826
  284MOL0     C38214   3.457   3.961   5.123 -0.2697  0.2221 -0.2546
  284MOL0     C38215   3.603   3.939   5.110 -0.6426  0.5325  0.7257
  284MOL0     C38216   3.673   4.057   5.032  0.5594  1.0128 -0.3494
  284MOL0     C38217   3.825   4.024   5.021 -0.1671 -0.1541 -0.9588
  284MOL0     C38218   3.905   4.014   5.154 -0.4557  0.4521  0.5275
  284MOL0     C38219   4.061   4.000   5.117  0.4222  0.3838  0.0670
  284MOL0     C38220   4.139   3.990   5.254  0.0787 -0.5066  0.4374
  284MOL0     C38221   4.282   3.956   5.229  0.0770  1.1500  0.3122
  284MOL0     N38222   4.387   4.008   5.320  0.1975 -0.2185  0.2849
  284MOL0     C38223   4.492   3.948   5.392 -0.0848  0.5387 -0.0645
  284MOL0     C38224   4.570   4.049   5.435  0.4562  0.8088 -0.1807
  284MOL0     C38225   4.681   4.033   5.533 -0.3769 -0.2047  0.4503
  284MOL0     C38226   4.815   3.992   5.470 -0.7776  0.5018 -0.0075
  284MOL0     C38227   4.859   4.093   5.367  0.7168  0.1789 -0.1443
  284MOL0     C38228   4.998   4.067   5.328 -0.2049  0.0163  0.5751
  284MOL0     O38229   5.079   4.097   5.438 -0.2308  0.2841 -0.1995
  284MOL0     C38230   5.219   4.113   5.434  0.4047  0.2322 -0.5263
  284MOL0     C38231   5.281   4.226   5.392 -0.6958 -0.0343 -0.0943
  284MOL0     C38232   5.421   4.228   5.392  0.1260 -0.3241 -0.2195
  284MOL0     C38233   5.503   4.133   5.463  0.3189 -0.6244  0.4182
  284MOL0     C38234   5.656   4.144   5.478  0.2490  0.5305 -0.6419
  284MOL0     O38235   5.715   4.248   5.409 -0.1883  0.3559  0.6944
  284MOL0     C38236   5.855   4.253   5.404  0.5547  0.3154  0.5018
  284MOL0     C38237   5.924   4.182   5.310 -0.5380  0.5370  0.3026
  284MOL0     C38238   6.065   4.186   5.296 -0.0401  0.2102  0.2838
  284MOL0     C38239   6.137   4.251   5.396  0.5061  0.1865 -0.0420
  284MOL0     O38240   6.269   4.241   5.385 -0.1144  0.1592  0.1799
  284MOL0     C38241   6.353   4.344   5.442 -0.8051  0.1017  0.4835
  284MOL0     C38242   6.491   4.303   5.404 -0.2432  0.3515  0.5758
  284MOL0     C38243   6.591   4.386   5.481  0.2496  0.3456  0.0333
  284MOL0     C38244   6.731   4.361   5.437 -0.1980  0.6327  0.2669
  284MOL0     C38245   6.824   4.478   5.476  0.1802  0.8252  0.5225
  284MOL0     C38246   6.975   4.449   5.467 -0.9590  0.0994  0.7712
  284MOL0     C38247   7.047   4.582   5.463  0.5578  0.3236  0.5897
  284MOL0     C38248   7.189   4.562   5.474 -0.1554 -0.4534 -0.1970
  284MOL0    Cl38249   7.258   4.415   5.395 -0.2120 -0.1834  0.1482
  284MOL0     C38250   6.070   4.332   5.496 -0.2724  0.3625 -0.2976
  284MOL0     C38251   5.927   4.337   5.492  0.8126  0.0336  0.3438
  284MOL0     O38252   5.711   4.062   5.545 -0.4168  1.2718 -0.6095
  284MOL0     C38253   5.432   4.022   5.506  1.0706 -0.4631 -0.2030
  284MOL0     C38254   5.291   4.021   5.505  0.2061  0.7795  0.6512
  284MOL0     N38255   4.519   4.167   5.389  0.4426  0.7023 -0.3883
  284MOL0     N38256   4.408   4.143   5.317 -0.6757 -0.4047 -0.4464
  284MOL0     C38257   3.165   3.926   5.033  0.4553 -0.8298 -0.5460
  284MOL0     C38258   3.041   3.918   4.973  0.4025 -0.2413  0.4958
  284MOL0     C38259   2.680   3.815   4.737  0.6411  0.0835 -0.9904
  284MOL0     C38260   2.644   3.921   4.655  0.3142 -0.1137  0.6613
  284MOL0     C38261   2.509   3.939   4.616  0.4116 -0.1719  0.1402
  284MOL0     C38262   2.409   3.851   4.671  0.8228  0.1968 -0.0835
  284MOL0     O38263   2.282   3.862   4.620 -0.1868 -0.3161 -0.7150
  284MOL0     C38264   2.181   3.789   4.682  0.4068  0.0877 -0.0399
  284MOL0     C38265   2.048   3.846   4.647  0.3991  0.4243  0.1209
  284MOL0     C38266   2.017   3.860   4.497 -0.1412  0.1110  0.3877
  284MOL0     C38267   2.085   3.977   4.422  0.6195  0.4970  0.6819
  284MOL0     C38268   2.005   4.096   4.464  0.7232  0.3468 -0.8562
  284MOL0     C38269   1.931   4.187   4.497 -0.0029  0.3458 -0.7148
  284MOL0     C38270   2.447   3.738   4.744  0.0238 -0.1157  0.4977
  284MOL0     C38271   2.576   3.722   4.789 -0.0750 -0.0334  0.0662
  284MOL0     C38272   2.612   3.606   4.879 -0.0589  0.0564  0.0220
  284MOL0     H38273   3.122   3.962   4.636  0.5532 -0.8779 -0.0548
  284MOL0     H38274   3.338   3.972   4.737  0.2617 -3.4526  0.4565
  284MOL0     H38275   3.441   4.063   5.157  2.0132  0.7528 -0.6454
  284MOL0     H38276   3.413   3.882   5.184 -3.0734  0.7048 -1.4675
  284MOL0     H38277   3.618   3.852   5.046 -2.7697 -0.1305  1.0456
  284MOL0     H38278   3.645   3.924   5.210 -0.8241 -0.8177  0.6118
  284MOL0     H38279   3.644   4.150   5.080 -1.4957  0.1579  0.1843
  284MOL0     H38280   3.631   4.070   4.931  1.5671 -3.2798 -1.5359
  284MOL0     H38281   3.846   3.941   4.953  1.7608  2.2367 -3.5533
  284MOL0     H38282   3.862   4.113   4.968 -0.5251  0.2181 -0.5939
  284MOL0     H38283   3.886   4.099   5.221  0.4634  2.7529 -1.9582
  284MOL0     H38284   3.884   3.924   5.212  0.7382 -1.0082 -1.2231
  284MOL0     H38285   4.064   3.913   5.050 -1.0795 -0.9189  1.5949
  284MOL0     H38286   4.101   4.090   5.069 -0.8813 -0.6247 -3.1624
  284MOL0     H38287   4.089   3.914   5.315 -2.4042 -0.1921 -1.0426
  284MOL0     H38288   4.129   4.090   5.298 -0.6709 -0.4253  0.1000
  284MOL0     H38289   4.290   3.848   5.241 -0.3089  0.8288 -1.8844
  284MOL0     H38290   4.309   3.979   5.125 -0.1119 -1.0083 -0.2564
  284MOL0     H38291   4.506   3.843   5.414 -2.7551 -0.5247 -2.8214
  284MOL0     H38292   4.684   4.132   5.580 -5.1994  0.6895 -0.5127
  284MOL0     H38293   4.651   3.963   5.611  1.4060 -0.9654  0.4975
  284MOL0     H38294   4.891   3.986   5.549 -1.7169 -0.7410  0.8319
  284MOL0     H38295   4.802   3.898   5.418 -1.5143 -0.8344  2.4188
  284MOL0     H38296   4.823   4.195   5.383 -0.0510 -0.2002  0.6195
  284MOL0     H38297   4.801   4.079   5.275  2.4026 -1.7025 -1.0116
  284MOL0     H38298   5.016   4.124   5.237 -1.7515 -1.0146 -0.4209
  284MOL0     H38299   5.006   3.959   5.311 -2.1444 -0.5526  2.6356
  284MOL0     H38300   5.213   4.292   5.338 -1.9939 -1.1588  0.0975
  284MOL0     H38301   5.481   4.301   5.338  0.2401 -0.5989 -0.4626
  284MOL0     H38302   5.868   4.120   5.241 -1.6938 -2.5684  3.7310
  284MOL0     H38303   6.117   4.134   5.215 -2.4244 -0.6580 -0.8062
  284MOL0     H38304   6.316   4.443   5.412  1.0091  0.8328  0.5505
  284MOL0     H38305   6.341   4.335   5.550 -1.3013 -2.2607  0.2824
  284MOL0     H38306   6.517   4.197   5.410 -1.6321 -0.1567 -1.3406
  284MOL0     H38307   6.513   4.337   5.302  2.6940 -1.6897  0.3854
  284MOL0     H38308   6.558   4.488   5.461 -2.6217 -0.6926 -1.0110
  284MOL0     H38309   6.585   4.373   5.590 -4.0777  1.8588  0.1946
  284MOL0     H38310   6.744   4.357   5.328  1.7292  1.7274  0.3983
  284MOL0     H38311   6.763   4.269   5.487  1.2469  1.3977  0.8197
  284MOL0     H38312   6.801   4.507   5.579 -1.7482  0.7420  0.1349
  284MOL0     H38313   6.792   4.563   5.414  0.1143  1.5484  1.5348
  284MOL0     H38314   7.009   4.398   5.557  2.5283 -1.6289 -1.3143
  284MOL0     H38315   6.985   4.395   5.372 -3.8637  0.6483  0.0429
  284MOL0     H38316   7.009   4.656   5.534  1.2267  1.9774 -0.6998
  284MOL0     H38317   7.028   4.616   5.361  0.6736 -2.4769 -0.4713
  284MOL0     H38318   7.221   4.655   5.426 -1.5678  0.8398  1.2570
  284MOL0     H38319   7.214   4.569   5.581  0.4564  2.2056 -0.4320
  284MOL0     H38320   6.123   4.401   5.561  2.0181  0.8605 -2.4871
  284MOL0     H38321   5.877   4.402   5.562 -0.3260 -0.7111  0.2438
  284MOL0     H38322   5.484   3.936   5.550  3.2091 -1.3680 -4.0185
  284MOL0     H38323   5.232   3.941   5.550 -0.8773  0.5695 -1.0437
  284MOL0     H38324   3.182   3.930   5.140 -2.1362  0.9578 -0.1036
  284MOL0     H38325   2.951   3.915   5.034  1.2876  1.1176  1.9504
  284MOL0     H38326   2.720   3.991   4.623  0.2664 -0.2044  0.3456
  284MOL0     H38327   2.475   4.027   4.562 -2.3854 -3.3840 -4.0227
  284MOL0     H38328   2.190   3.797   4.791  1.2711  1.0528 -0.1687
  284MOL0     H38329   2.190   3.685   4.649  1.6996  0.2798 -0.3351
  284MOL0     H38330   2.048   3.942   4.700  1.4886 -0.0252  0.9836
  284MOL0     H38331   1.975   3.777   4.689  1.9073 -2.2444 -1.3891
  284MOL0     H38332   1.910   3.878   4.481  0.0082 -1.2279 -3.0402
  284MOL0     H38333   2.025   3.757   4.461  0.7381 -0.3219  1.7613
  284MOL0     H38334   2.189   3.999   4.448  1.3506  0.4336 -1.8747
  284MOL0     H38335   2.087   3.948   4.316  0.8146 -0.7906  1.0175
  284MOL0     H38336   1.857   4.264   4.513 -2.5792 -1.9772 -0.6029
  284MOL0     H38337   2.383   3.652   4.761  0.6806 -0.3864  1.6969
  284MOL0     H38338   2.702   3.614   4.942  0.4864  0.4558 -0.7923
  284MOL0     H38339   2.535   3.574   4.950  2.7603 -1.4165  2.6857
  284MOL0     H38340   2.630   3.524   4.809 -2.6315 -0.7968  0.2538
  285MOL0     O38341   2.871  11.255   8.706 -0.0738  0.4505  1.2128
  285MOL0     C38342   2.831  11.347   8.777 -0.3927 -0.0678 -0.5743
  285MOL0     O38343   2.913  11.405   8.873  0.5238  0.1151  0.3437
  285MOL0     C38344   3.028  11.349   8.913 -0.2855  0.3590  0.1018
  285MOL0     C38345   3.035  11.262   9.023 -1.0173 -0.5169  0.3081
  285MOL0     C38346   3.154  11.194   9.058  0.5806 -0.8233 -0.6732
  285MOL0     C38347   3.275  11.211   8.997 -0.3486 -0.9577  0.2539
  285MOL0     O38348   3.391  11.142   9.025  0.4813 -0.1243  0.5401
  285MOL0     C38349   3.519  11.207   9.009 -0.2815 -0.3579  0.2523
  285MOL0     C38350   3.615  11.121   9.084 -0.1618  0.7986 -0.2493
  285MOL0     C38351   3.762  11.148   9.034  0.6097 -1.3846 -0.3444
  285MOL0     C38352   3.867  11.094   9.130  0.4791 -0.2975  1.2689
  285MOL0     C38353   4.007  11.131   9.086 -0.0891 -0.4007 -0.6240
  285MOL0     C38354   4.094  11.072   9.199  0.2441  0.1857  0.1764
  285MOL0     C38355   4.230  11.030   9.144  0.0479  0.1202 -0.1294
  285MOL0     C38356   4.345  10.991   9.241  1.0462 -0.1611  0.2734
  285MOL0     N38357   4.473  10.969   9.174  0.2384 -0.4866 -0.0418
  285MOL0     C38358   4.474  10.909   9.053  1.0332  0.4878 -0.9780
  285MOL0     C38359   4.599  10.906   9.018  0.0299  0.2141  0.3165
  285MOL0     C38360   4.670  10.823   8.905  0.2469  0.3439 -1.0139
  285MOL0     C38361   4.790  10.752   8.962 -0.7241 -0.0993  0.1205
  285MOL0     C38362   4.903  10.858   9.003  0.4725  0.1529 -0.0306
  285MOL0     C38363   5.036  10.818   8.962  0.1638  0.5051 -0.1059
  285MOL0     O38364   5.072  10.702   9.034  0.1516  0.4732 -0.1032
  285MOL0     C38365   5.206  10.686   9.054 -0.2571 -0.0496  0.0909
  285MOL0     C38366   5.256  10.618   9.164 -0.3226  0.5612  0.9450
  285MOL0     C38367   5.393  10.614   9.196 -0.6003 -0.5494 -0.1878
  285MOL0     C38368   5.493  10.686   9.117  0.0379  0.6302  0.0639
  285MOL0     C38369   5.625  10.713   9.168 -0.0020  0.6926 -0.4141
  285MOL0     O38370   5.660  10.664   9.285 -0.0928  0.1135 -0.1676
  285MOL0     C38371   5.795  10.678   9.330  0.7529 -0.4490  1.1357
  285MOL0     C38372   5.843  10.745   9.450 -0.4695  0.7127  0.0472
  285MOL0     C38373   5.975  10.727   9.500  0.0432 -0.7368  0.5259
  285MOL0     C38374   6.068  10.666   9.416  0.5439 -0.2332 -1.0735
  285MOL0     O38375   6.197  10.679   9.451 -0.0590 -0.3308 -0.2820
  285MOL0     C38376   6.293  10.668   9.350  0.0161 -0.1760 -0.1282
  285MOL0     C38377   6.432  10.726   9.389 -0.1796 -0.0058 -0.3602
  285MOL0     C38378   6.516  10.640   9.490  0.0123 -0.8912 -0.4650
  285MOL0     C38379   6.656  10.694   9.512  0.0766 -0.6685 -0.1625
  285MOL0     C38380   6.737  10.608   9.615 -0.0812 -0.6403  1.0687
  285MOL0     C38381   6.888  10.630   9.627  0.1844  0.2668 -0.1059
  285MOL0     C38382   6.967  10.514   9.701  0.3197 -0.0518 -0.3146
  285MOL0     C38383   6.956  10.536   9.855  0.2272 -0.0462  0.0711
  285MOL0    Cl38384   7.054  10.431   9.946 -0.6380  0.2048 -0.1728
  285MOL0     C38385   6.019  10.597   9.307  0.1558 -0.6187  0.0305
  285MOL0     C38386   5.888  10.594   9.269  0.2332  0.2093 -0.2690
  285MOL0     O38387   5.699  10.782   9.097 -0.1383 -0.1477 -0.0337
  285MOL0     C38388   5.444  10.734   9.000  0.8811 -0.6241  0.4694
  285MOL0     C38389   5.305  10.742   8.973 -0.2001  0.2780 -0.3273
  285MOL0     N38390   4.675  10.983   9.113 -0.2268  0.6829  0.1394
  285MOL0     N38391   4.593  11.022   9.206  0.2685  0.2756 -0.1470
  285MOL0     C38392   3.272  11.307   8.896 -0.3765  0.0875  0.0486
  285MOL0     C38393   3.152  11.366   8.845 -0.1565 -0.0232 -0.0566
  285MOL0     C38394   2.696  11.408   8.749  0.3384 -0.7552 -0.3965
  285MOL0     C38395   2.617  11.342   8.655 -0.4030  0.2007  0.7998
  285MOL0     C38396   2.503  11.383   8.604  0.1297  0.0621  0.6315
  285MOL0     C38397   2.454  11.504   8.651  0.2547  0.2661  0.1131
  285MOL0     O38398   2.336  11.545   8.591 -0.1670 -0.1261 -0.3924
  285MOL0     C38399   2.272  11.676   8.621 -0.4836  1.3325 -0.0939
  285MOL0     C38400   2.137  11.669   8.679 -0.0322 -0.5164  0.0591
  285MOL0     C38401   2.034  11.618   8.582 -0.2894  0.3894 -0.0634
  285MOL0     C38402   1.891  11.608   8.636 -0.0968  0.6873 -0.2879
  285MOL0     C38403   1.889  11.521   8.754 -0.7227 -0.1196 -0.5829
  285MOL0     C38404   1.857  11.448   8.845 -0.1255  0.3723 -0.0861
  285MOL0     C38405   2.531  11.580   8.751 -0.0199  0.6505  0.7496
  285MOL0     C38406   2.644  11.523   8.808  0.1077  0.3859 -0.4422
  285MOL0     C38407   2.714  11.602   8.915  1.1492 -0.0985  0.1881
  285MOL0     H38408   2.953  11.245   9.093 -0.4015 -0.2544  1.1069
  285MOL0     H38409   3.160  11.119   9.137 -1.6982 -2.0639 -1.5721
  285MOL0     H38410   3.548  11.219   8.904 -3.1193 -1.0886 -0.6908
  285MOL0     H38411   3.536  11.304   9.057  0.2744 -1.5830  2.7136
  285MOL0     H38412   3.593  11.017   9.056 -1.2037  1.0736 -0.4809
  285MOL0     H38413   3.600  11.132   9.191 -1.3522  1.2029 -0.4418
  285MOL0     H38414   3.775  11.257   9.023 -1.2584 -0.9339  1.3569
  285MOL0     H38415   3.776  11.110   8.932 -2.1595 -1.8631 -0.6322
  285MOL0     H38416   3.856  11.132   9.232  1.9253  0.9508  0.9875
  285MOL0     H38417   3.872  10.984   9.135 -2.1699 -0.5286  0.2095
  285MOL0     H38418   4.028  11.086   8.989  0.2072 -0.4414 -0.5432
  285MOL0     H38419   4.024  11.239   9.083 -1.0849 -0.0288  2.6939
  285MOL0     H38420   4.115  11.149   9.273  0.7053  0.7677 -0.5371
  285MOL0     H38421   4.041  10.989   9.245 -1.4318  1.7973  1.2686
  285MOL0     H38422   4.266  11.117   9.087  2.4540 -0.4263  0.4432
  285MOL0     H38423   4.211  10.949   9.073  2.8238 -0.6120 -0.1566
  285MOL0     H38424   4.359  11.056   9.328  1.9314 -1.2566  0.9740
  285MOL0     H38425   4.313  10.891   9.274 -4.9468  1.1277 -0.5713
  285MOL0     H38426   4.391  10.858   9.005 -0.3064  2.8813 -1.4081
  285MOL0     H38427   4.595  10.750   8.872 -0.2313  0.2773  0.1585
  285MOL0     H38428   4.704  10.882   8.820  0.6318  1.1129 -0.3338
  285MOL0     H38429   4.766  10.700   9.055 -1.3022  0.8697  0.5204
  285MOL0     H38430   4.824  10.670   8.897  0.1366 -0.2825  0.7779
  285MOL0     H38431   4.903  10.876   9.111  3.1914 -0.3093  0.1323
  285MOL0     H38432   4.880  10.951   8.951  1.7095 -1.0467 -2.9231
  285MOL0     H38433   5.095  10.903   8.998 -1.7902  1.0421  2.0723
  285MOL0     H38434   5.053  10.791   8.858 -0.6102 -3.8656  0.7042
  285MOL0     H38435   5.181  10.572   9.227  1.1269 -1.5483  1.2126
  285MOL0     H38436   5.427  10.567   9.288 -0.4550 -3.0309 -1.4272
  285MOL0     H38437   5.767  10.802   9.502 -2.4524  0.0005 -1.8836
  285MOL0     H38438   6.012  10.772   9.591  1.1241 -0.5824  0.0195
  285MOL0     H38439   6.312  10.561   9.337  0.8905 -0.0994  0.3424
  285MOL0     H38440   6.260  10.711   9.256 -0.7378  2.2082  1.1405
  285MOL0     H38441   6.498  10.752   9.306  0.3376  0.0926  0.0739
  285MOL0     H38442   6.411  10.825   9.431  0.5684 -0.1081  0.2650
  285MOL0     H38443   6.466  10.645   9.587  0.1017  3.2622 -0.4355
  285MOL0     H38444   6.501  10.535   9.462 -5.0464  0.1001 -2.5303
  285MOL0     H38445   6.648  10.798   9.544 -2.0836 -0.9673  0.4340
  285MOL0     H38446   6.714  10.690   9.420  0.2148 -0.0057 -0.1041
  285MOL0     H38447   6.716  10.504   9.589 -1.9718 -0.1257  0.3395
  285MOL0     H38448   6.682  10.617   9.709 -2.7896  0.3174 -0.4817
  285MOL0     H38449   6.938  10.640   9.530  0.3770 -1.0721 -0.1613
  285MOL0     H38450   6.894  10.726   9.680  2.2822 -0.4444  1.0225
  285MOL0     H38451   7.074  10.526   9.686 -0.0843  0.9675 -2.9333
  285MOL0     H38452   6.941  10.415   9.662  0.7985 -1.3762  2.5135
  285MOL0     H38453   6.988  10.637   9.878 -1.3784  0.4366  0.3151
  285MOL0     H38454   6.851  10.521   9.882 -0.1492  3.9334  1.4744
  285MOL0     H38455   6.093  10.544   9.248  2.2535  2.5719 -0.4452
  285MOL0     H38456   5.857  10.538   9.182 -1.7665  0.1968  0.3960
  285MOL0     H38457   5.513  10.780   8.930  0.4514 -0.4099  0.1810
  285MOL0     H38458   5.273  10.794   8.883  1.1843 -1.2224 -1.7693
  285MOL0     H38459   3.364  11.321   8.841  0.2453 -1.4670  0.6359
  285MOL0     H38460   3.154  11.436   8.763  0.8415 -3.1727 -2.9801
  285MOL0     H38461   2.646  11.257   8.594 -4.9664 -0.1712 -1.3111
  285MOL0     H38462   2.454  11.328   8.525 -1.7236  3.3280 -0.6837
  285MOL0     H38463   2.269  11.718   8.520 -1.0727 -1.3224 -1.2685
  285MOL0     H38464   2.332  11.743   8.682 -0.8964 -0.1209  1.9980
  285MOL0     H38465   2.111  11.767   8.720  0.2611 -1.2442  2.1018
  285MOL0     H38466   2.147  11.590   8.754  0.8654 -2.0655 -1.6009
  285MOL0     H38467   2.061  11.520   8.542  1.0000  0.5118  0.4950
  285MOL0     H38468   2.038  11.678   8.490  2.2240 -3.0490 -2.4429
  285MOL0     H38469   1.860  11.709   8.664 -3.2067 -0.1944 -0.2578
  285MOL0     H38470   1.828  11.573   8.554 -1.1918 -2.0749  1.5686
  285MOL0     H38471   1.820  11.376   8.915  0.3771  1.0351  0.8987
  285MOL0     H38472   2.510  11.679   8.790  0.9911  0.7541  1.0594
  285MOL0     H38473   2.717  11.536   9.002 -1.6567  1.8997  1.9555
  285MOL0     H38474   2.818  11.629   8.891  0.5565  1.2375 -1.0101
  285MOL0     H38475   2.655  11.688   8.948 -0.2784 -1.6348  1.8711
  286MOL0     O38476   9.602   7.010   9.913 -0.6815 -0.1388  0.0622
  286MOL0     C38477   9.568   7.016  10.032  1.2755 -0.4619  0.8509
  286MOL0     O38478   9.603   7.115  10.124 -0.4721 -0.4574  0.0259
  286MOL0     C38479   9.685   7.217  10.074 -0.4295  0.5796 -0.8944
  286MOL0     C38480   9.642   7.340  10.069  0.6482 -0.5089 -0.1329
  286MOL0     C38481   9.734   7.445  10.050 -0.8450  0.2281  1.1854
  286MOL0     C38482   9.872   7.425  10.036  0.3938  0.9872 -0.5726
  286MOL0     O38483   9.954   7.532  10.008  0.5066  0.4415 -0.9171
  286MOL0     C38484  10.093   7.514   9.997  0.7517 -0.3200 -0.3732
  286MOL0     C38485  10.155   7.648   9.959  0.0635 -0.5896  0.0932
  286MOL0     C38486  10.169   7.744  10.079 -0.3629 -0.7087  0.3942
  286MOL0     C38487  10.286   7.842  10.065 -0.2801  0.3499  0.2295
  286MOL0     C38488  10.267   7.963  10.156  0.4784  0.3591  0.4135
  286MOL0     C38489  10.364   8.090  10.166 -0.2586  0.3054  0.2787
  286MOL0     C38490  10.311   8.202  10.267 -0.9870  0.4778 -0.6366
  286MOL0     C38491  10.334   8.184  10.422  0.8879 -0.0119 -0.5083
  286MOL0     N38492  10.476   8.141  10.461 -0.1284 -0.9245  0.3413
  286MOL0     C38493  10.571   8.232  10.492 -0.3817  0.8013 -0.5568
  286MOL0     C38494  10.677   8.143  10.517 -0.8742 -0.7162  0.5896
  286MOL0     C38495  10.819   8.188  10.548  1.0497 -0.3236  0.1513
  286MOL0     C38496  10.827   8.289  10.664  0.7511 -1.2790 -0.0223
  286MOL0     C38497  10.824   8.428  10.610 -0.8559 -0.2286  0.7047
  286MOL0     C38498  10.778   8.538  10.711 -0.9273  0.0397 -0.3677
  286MOL0     O38499  10.640   8.535  10.735 -0.1638 -0.3647 -0.2767
  286MOL0     C38500  10.545   8.575  10.637  0.5440  0.3122  0.1790
  286MOL0     C38501  10.412   8.529  10.649 -0.1098  0.1594 -0.1900
  286MOL0     C38502  10.311   8.549  10.545 -0.3618  0.1871  0.6899
  286MOL0     C38503  10.348   8.615  10.424 -0.4748 -0.2562  0.0374
  286MOL0     C38504  10.255   8.606  10.309 -0.2682 -0.1750 -0.4757
  286MOL0     O38505  10.154   8.506  10.315  0.0248 -0.0831  0.3184
  286MOL0     C38506  10.068   8.511  10.208  0.0939  0.9040  0.0183
  286MOL0     C38507  10.112   8.478  10.072  0.1949  0.7151 -0.6459
  286MOL0     C38508  10.020   8.494   9.961 -0.2489  0.1566  0.1595
  286MOL0     C38509   9.887   8.537   9.987 -0.4411  0.3694  0.3096
  286MOL0     O38510   9.793   8.563   9.889 -0.0041  0.2139  0.2100
  286MOL0     C38511   9.769   8.449   9.809 -0.1923 -0.4509 -0.1186
  286MOL0     C38512   9.780   8.490   9.661  0.5211  0.5097  0.4332
  286MOL0     C38513   9.654   8.558   9.622  0.0075  0.3911  0.4866
  286MOL0     C38514   9.660   8.590   9.465  0.4125  1.0388  0.1491
  286MOL0     C38515   9.549   8.682   9.424 -0.8819  0.3390  0.4740
  286MOL0     C38516   9.566   8.743   9.288 -0.2693 -0.3080  0.4962
  286MOL0     C38517   9.432   8.811   9.244 -0.6855 -0.2641 -0.3548
  286MOL0     C38518   9.463   8.949   9.182 -0.0345  0.0186 -0.4576
  286MOL0    Cl38519   9.522   9.062   9.304 -0.1908  0.0737  0.1267
  286MOL0     C38520   9.854   8.584  10.110 -0.0783  0.0690 -0.2426
  286MOL0     C38521   9.940   8.558  10.221 -0.3109  0.0446 -0.0807
  286MOL0     O38522  10.278   8.686  10.214  0.0626 -0.0790 -0.1223
  286MOL0     C38523  10.477   8.668  10.412 -0.5333 -0.3447 -0.5211
  286MOL0     C38524  10.567   8.655  10.525  0.8910 -0.2350  0.2965
  286MOL0     N38525  10.649   8.016  10.497 -0.8096  0.2250 -0.5302
  286MOL0     N38526  10.528   8.021  10.462 -0.5849  0.2768 -0.4626
  286MOL0     C38527   9.913   7.294  10.059 -0.1813 -0.7090 -0.5364
  286MOL0     C38528   9.818   7.193  10.065  0.5421  0.4730  0.1855
  286MOL0     C38529   9.475   6.910  10.073 -0.4571 -0.2147  0.5101
  286MOL0     C38530   9.517   6.804  10.149  0.4128  0.0397  0.4387
  286MOL0     C38531   9.432   6.698  10.182 -0.4662 -0.2246 -0.1050
  286MOL0     C38532   9.303   6.702  10.142  0.2939  0.4629 -0.2814
  286MOL0     O38533   9.221   6.593  10.166  0.2050  0.1807  0.1018
  286MOL0     C38534   9.163   6.585  10.296 -0.4073 -0.2018 -0.1483
  286MOL0     C38535   9.256   6.508  10.390 -0.5202 -0.2450  0.3934
  286MOL0     C38536   9.302   6.368  10.337  0.1535  0.2066 -0.1065
  286MOL0     C38537   9.428   6.310  10.406  1.2316  0.9792 -0.0361
  286MOL0     C38538   9.388   6.265  10.548  0.0250  0.7446  0.2602
  286MOL0     C38539   9.350   6.246  10.664 -0.5672  0.2529  0.3696
  286MOL0     C38540   9.254   6.808  10.069  0.0321 -0.4727 -0.0558
  286MOL0     C38541   9.340   6.912  10.032  0.2071 -0.9869  0.0976
  286MOL0     C38542   9.284   7.024   9.949  0.2610 -0.4272  0.8450
  286MOL0     H38543   9.538   7.365  10.087  0.1437 -1.3330 -1.6928
  286MOL0     H38544   9.698   7.546  10.038  0.0889  0.9462  3.7481
  286MOL0     H38545  10.136   7.463  10.084  0.5822 -0.1492 -0.1895
  286MOL0     H38546  10.117   7.447   9.914  0.2320 -1.6747  0.5195
  286MOL0     H38547  10.100   7.695   9.877  0.7843 -0.0641 -0.1103
  286MOL0     H38548  10.256   7.618   9.929  0.3293 -0.5236  0.8907
  286MOL0     H38549  10.170   7.679  10.167  2.7381 -0.1184  0.9149
  286MOL0     H38550  10.082   7.811  10.075  1.8579  2.5316  2.2453
  286MOL0     H38551  10.371   7.780  10.097 -1.2597 -1.5188 -0.6004
  286MOL0     H38552  10.309   7.872   9.963 -2.5290  1.8700  0.1063
  286MOL0     H38553  10.165   7.995  10.132 -0.5901 -1.8895  1.6162
  286MOL0     H38554  10.245   7.927  10.257 -3.0888 -1.0230 -0.6966
  286MOL0     H38555  10.465   8.053  10.190  0.6981  0.1834 -3.3928
  286MOL0     H38556  10.372   8.132  10.066  0.1551 -1.0614 -0.2912
  286MOL0     H38557  10.204   8.215  10.246 -1.0196 -0.1648 -0.8934
  286MOL0     H38558  10.366   8.292  10.240  1.8617 -0.9382  0.0732
  286MOL0     H38559  10.311   8.277  10.476  0.5704 -1.7044  2.4850
  286MOL0     H38560  10.256   8.113  10.450 -0.2968  1.1133 -0.8003
  286MOL0     H38561  10.579   8.341  10.488  0.6095  0.9158  2.3652
  286MOL0     H38562  10.874   8.098  10.577  0.3401 -1.3461 -1.5185
  286MOL0     H38563  10.873   8.233  10.464 -0.0440  2.1154  0.6835
  286MOL0     H38564  10.746   8.287  10.737  2.7728  2.8331  2.7224
  286MOL0     H38565  10.913   8.285  10.732  2.1215 -0.3794 -1.6082
  286MOL0     H38566  10.755   8.433  10.526 -0.0924  2.6808  0.1715
  286MOL0     H38567  10.916   8.470  10.570 -0.1429 -0.3878  2.1152
  286MOL0     H38568  10.803   8.636  10.669  0.2783 -0.3503 -0.5884
  286MOL0     H38569  10.833   8.528  10.805  0.0500 -0.0177 -0.9257
  286MOL0     H38570  10.389   8.455  10.724  0.8608 -0.1976 -0.2267
  286MOL0     H38571  10.208   8.515  10.551 -0.5585  0.4922 -0.6310
  286MOL0     H38572  10.212   8.436  10.066 -0.3757 -0.7942 -0.2873
  286MOL0     H38573  10.062   8.472   9.863 -0.6785  0.4937 -0.1055
  286MOL0     H38574   9.833   8.362   9.827  2.5213  0.4780 -3.9595
  286MOL0     H38575   9.669   8.410   9.832 -0.8791  1.2760 -0.0284
  286MOL0     H38576   9.867   8.554   9.641  0.3004  0.3484 -1.1874
  286MOL0     H38577   9.779   8.401   9.598 -0.4381  0.9527 -0.2028
  286MOL0     H38578   9.565   8.503   9.654  0.0247 -0.0063 -0.1204
  286MOL0     H38579   9.645   8.653   9.673 -0.7919  1.1932 -1.0669
  286MOL0     H38580   9.656   8.498   9.407 -1.0652  0.2664  1.3886
  286MOL0     H38581   9.756   8.639   9.447  0.3100  1.1057 -0.2213
  286MOL0     H38582   9.537   8.758   9.502  1.9415  0.7374  0.6231
  286MOL0     H38583   9.452   8.633   9.420  0.0723 -1.5547 -1.2680
  286MOL0     H38584   9.645   8.819   9.282 -0.9761  0.3526 -1.0865
  286MOL0     H38585   9.600   8.668   9.216  1.6961 -0.1105  1.1581
  286MOL0     H38586   9.355   8.811   9.321 -1.0718  0.8204 -0.7235
  286MOL0     H38587   9.401   8.746   9.161 -0.1257  1.1576 -1.7233
  286MOL0     H38588   9.535   8.940   9.101 -1.0455  4.5191 -2.1459
  286MOL0     H38589   9.369   8.988   9.140  0.0248 -0.2426 -0.8364
  286MOL0     H38590   9.752   8.612  10.135 -0.0228  0.3979 -0.3773
  286MOL0     H38591   9.903   8.593  10.317 -3.5504 -0.6481 -0.9781
  286MOL0     H38592  10.508   8.718  10.321 -1.9715  0.4591 -0.5962
  286MOL0     H38593  10.665   8.700  10.518  0.8091 -0.3254 -3.1501
  286MOL0     H38594  10.019   7.274  10.074  0.1392 -0.1860 -2.0299
  286MOL0     H38595   9.863   7.096  10.085 -0.8054  0.1085  1.5555
  286MOL0     H38596   9.622   6.804  10.174  0.3071  1.8061  0.9557
  286MOL0     H38597   9.477   6.616  10.237 -1.1995 -0.0188  0.8223
  286MOL0     H38598   9.066   6.536  10.285 -0.4981 -0.3534  1.2232
  286MOL0     H38599   9.148   6.685  10.337 -0.3665  0.0570 -0.7509
  286MOL0     H38600   9.211   6.499  10.490  0.9822  3.0123  1.5072
  286MOL0     H38601   9.339   6.577  10.410 -1.9384  1.9387 -0.8649
  286MOL0     H38602   9.318   6.365  10.229 -1.9049  0.5054 -0.4660
  286MOL0     H38603   9.213   6.306  10.352 -0.6857  1.0762 -1.3561
  286MOL0     H38604   9.452   6.213  10.360 -2.0186  0.3179 -0.5513
  286MOL0     H38605   9.518   6.372  10.400  4.1961 -2.9550 -1.0594
  286MOL0     H38606   9.303   6.243  10.761 -1.8892 -0.9825 -0.2763
  286MOL0     H38607   9.149   6.806  10.045 -0.8915  1.7883  3.0816
  286MOL0     H38608   9.192   6.983   9.906 -0.3805 -1.7773  3.3227
  286MOL0     H38609   9.235   7.104  10.006 -2.5942 -1.6037  0.2505
  286MOL0     H38610   9.353   7.058   9.871 -2.0919  1.5035 -0.5446
  287MOL0     O38611   8.466   3.208  10.040  0.3748 -0.6288 -0.6106
  287MOL0     C38612   8.352   3.166  10.053  0.3469 -0.1892 -0.0705
  287MOL0     O38613   8.315   3.032  10.064 -1.2213  0.0404  0.5519
  287MOL0     C38614   8.417   2.944  10.035  0.6616 -0.0013  1.0247
  287MOL0     C38615   8.461   2.924   9.903  0.9527 -0.3578 -0.0609
  287MOL0     C38616   8.553   2.821   9.880  0.0493 -0.0042 -0.1514
  287MOL0     C38617   8.611   2.758   9.991  0.2396  1.4113  0.1837
  287MOL0     O38618   8.694   2.658   9.954 -0.6439 -0.2385 -0.3527
  287MOL0     C38619   8.769   2.598  10.063 -0.2383  0.2853 -0.3753
  287MOL0     C38620   8.872   2.508  10.001  0.6061  0.7144  0.3909
  287MOL0     C38621   9.007   2.517  10.071 -0.2005  0.6780  0.3169
  287MOL0     C38622   9.111   2.447   9.976  0.1157 -0.4075 -0.3449
  287MOL0     C38623   9.254   2.435  10.027 -0.5310 -0.0677  0.0038
  287MOL0     C38624   9.361   2.407   9.913 -0.4397 -0.0042  0.1355
  287MOL0     C38625   9.506   2.397   9.967  0.7459 -0.7133 -0.0414
  287MOL0     C38626   9.595   2.384   9.846 -0.3078  0.0899  0.6844
  287MOL0     N38627   9.737   2.404   9.871  0.0836  0.2097  0.1407
  287MOL0     C38628   9.801   2.431   9.995 -0.4979 -0.2974  0.4284
  287MOL0     C38629   9.936   2.432   9.959 -0.4499  0.1648  0.5648
  287MOL0     C38630  10.040   2.468  10.070  0.4747  0.0330 -0.4627
  287MOL0     C38631  10.179   2.405  10.046  0.0764 -0.6813 -0.0850
  287MOL0     C38632  10.183   2.246  10.073 -0.2062 -1.1208 -0.6153
  287MOL0     C38633  10.318   2.189  10.034  0.3892  0.0032 -0.8102
  287MOL0     O38634  10.429   2.247  10.102  0.0177 -0.4342  0.0160
  287MOL0     C38635  10.547   2.173  10.117  0.7954  0.1693  1.1791
  287MOL0     C38636  10.581   2.078  10.018  0.4166  0.4911 -0.0528
  287MOL0     C38637  10.710   2.019  10.026 -0.1765  0.5266  0.6821
  287MOL0     C38638  10.800   2.045  10.132  0.4405  0.7510 -0.5594
  287MOL0     C38639  10.934   1.985  10.129  0.0575  0.7300 -0.4473
  287MOL0     O38640  11.024   2.052  10.205  0.1660 -0.0066  0.1376
  287MOL0     C38641  11.151   2.001  10.231 -0.2695 -0.1954  0.0940
  287MOL0     C38642  11.185   1.864  10.218 -0.3063 -0.4120 -0.1811
  287MOL0     C38643  11.319   1.821  10.233 -0.0670  0.0446  0.6827
  287MOL0     C38644  11.421   1.912  10.263  0.1519  0.3496  0.3655
  287MOL0     O38645  11.553   1.879  10.277 -0.4680 -0.3321  0.2344
  287MOL0     C38646  11.606   1.743  10.257  0.6314 -0.5164  1.2025
  287MOL0     C38647  11.753   1.751  10.224 -0.9728  0.7063  0.8337
  287MOL0     C38648  11.827   1.614  10.229  0.1663  0.6911 -0.5640
  287MOL0     C38649  11.979   1.644  10.210 -0.6195 -0.3075 -0.4548
  287MOL0     C38650  12.085   1.534  10.216  0.1370 -0.0443 -0.5977
  287MOL0     C38651  12.227   1.588  10.235 -1.0473 -0.1670  0.8416
  287MOL0     C38652  12.309   1.489  10.312 -0.0926 -0.1130  0.1053
  287MOL0     C38653  12.460   1.519  10.321 -0.0962 -0.3016 -0.3072
  287MOL0    Cl38654  12.470   1.678  10.404  0.0895  0.5058 -0.1992
  287MOL0     C38655  11.388   2.053  10.271 -0.2610  0.2155  0.6319
  287MOL0     C38656  11.254   2.084  10.261 -0.1252 -0.6520  0.2330
  287MOL0     O38657  10.961   1.892  10.053  0.2885 -0.0964  0.0071
  287MOL0     C38658  10.752   2.118  10.241 -0.3935 -0.1115  0.9119
  287MOL0     C38659  10.631   2.182  10.224  0.2869 -0.3503  0.7847
  287MOL0     N38660   9.950   2.402   9.827  0.7247  0.6198  0.4118
  287MOL0     N38661   9.836   2.386   9.773  0.6278 -0.1824  0.2661
  287MOL0     C38662   8.566   2.786  10.126 -0.1786  0.8746  0.0483
  287MOL0     C38663   8.466   2.883  10.145  0.1746  0.2601 -0.0302
  287MOL0     C38664   8.235   3.260  10.032  0.1643 -0.0329  0.3614
  287MOL0     C38665   8.112   3.204   9.997  0.0656 -0.2764 -0.4738
  287MOL0     C38666   7.995   3.285   9.976 -0.2990  0.1146 -0.2895
  287MOL0     C38667   8.000   3.423   9.984 -0.6164 -0.6735  0.2971
  287MOL0     O38668   7.893   3.513   9.977  0.3540 -0.1002 -0.6144
  287MOL0     C38669   7.773   3.456   9.930  1.2287  0.1189 -0.1710
  287MOL0     C38670   7.672   3.562   9.883 -0.4480 -0.1937  0.2076
  287MOL0     C38671   7.699   3.621   9.740  0.6000  0.5886 -0.4871
  287MOL0     C38672   7.849   3.681   9.725 -0.4558  0.2188 -0.1909
  287MOL0     C38673   7.867   3.720   9.584 -0.4649 -0.3741 -0.0786
  287MOL0     C38674   7.885   3.739   9.463 -0.1790 -0.4435  0.7295
  287MOL0     C38675   8.123   3.478  10.002  0.3553 -0.2510 -1.9919
  287MOL0     C38676   8.236   3.406  10.034 -0.9384 -0.2486 -0.3890
  287MOL0     C38677   8.358   3.486  10.053  0.4262  1.1173 -0.8403
  287MOL0     H38678   8.417   2.992   9.830 -2.9083 -1.8782  0.6068
  287MOL0     H38679   8.600   2.812   9.783  0.0937  0.2097 -0.1504
  287MOL0     H38680   8.812   2.681  10.121  3.6861 -1.8201  0.1264
  287MOL0     H38681   8.706   2.539  10.129  0.1398 -1.1354 -1.2551
  287MOL0     H38682   8.884   2.520   9.893  1.2176 -0.7115  0.2869
  287MOL0     H38683   8.828   2.410  10.021 -0.6103  1.4265  1.4573
  287MOL0     H38684   9.005   2.477  10.173  3.3814 -0.8575 -0.0480
  287MOL0     H38685   9.039   2.621  10.075 -0.1648  0.6414  2.8632
  287MOL0     H38686   9.078   2.344   9.966  2.8113 -1.4546  0.5624
  287MOL0     H38687   9.105   2.492   9.876 -2.3931  0.5935  0.1721
  287MOL0     H38688   9.285   2.531  10.069 -2.1700 -0.3852  2.1106
  287MOL0     H38689   9.267   2.357  10.102  0.0922 -0.7945 -0.8426
  287MOL0     H38690   9.350   2.303   9.880 -0.1633 -0.6705  1.9940
  287MOL0     H38691   9.357   2.475   9.828 -0.6363  0.3140  0.3919
  287MOL0     H38692   9.499   2.316  10.040 -1.1792 -1.0212 -0.5237
  287MOL0     H38693   9.520   2.494  10.016 -1.5633  0.1803 -1.0269
  287MOL0     H38694   9.589   2.287   9.796  1.0953  0.5768 -0.5255
  287MOL0     H38695   9.575   2.469   9.781  0.6453 -0.6747 -0.6558
  287MOL0     H38696   9.746   2.440  10.088  1.1723 -1.5080  1.5953
  287MOL0     H38697  10.058   2.575  10.060  3.3728 -0.4232 -1.0913
  287MOL0     H38698   9.998   2.451  10.169 -0.0117  1.6086 -0.3719
  287MOL0     H38699  10.218   2.433   9.947  3.3344  0.6432  1.4399
  287MOL0     H38700  10.249   2.455  10.113  0.5392 -1.1153 -0.2360
  287MOL0     H38701  10.100   2.200  10.020 -0.2714  0.8662 -2.3901
  287MOL0     H38702  10.165   2.231  10.180  0.3515 -0.6865 -0.4490
  287MOL0     H38703  10.326   2.185   9.925  0.4503 -0.2643 -0.7958
  287MOL0     H38704  10.315   2.082  10.057  1.4190 -0.0877 -1.0551
  287MOL0     H38705  10.521   2.051   9.932 -0.3993 -0.5672  0.8087
  287MOL0     H38706  10.740   1.957   9.943  0.2962  2.0338 -0.3064
  287MOL0     H38707  11.108   1.788  10.211 -0.6932  0.0908 -2.2163
  287MOL0     H38708  11.331   1.713  10.235 -0.8064 -0.0946 -0.8399
  287MOL0     H38709  11.592   1.689  10.351 -2.3602  1.6167  2.1428
  287MOL0     H38710  11.544   1.691  10.184  1.5445 -0.4363  0.3449
  287MOL0     H38711  11.765   1.800  10.127 -0.7344  1.1414  1.0830
  287MOL0     H38712  11.803   1.817  10.295 -1.2568  2.5747 -0.6228
  287MOL0     H38713  11.809   1.567  10.326  1.3255  1.1299 -0.1147
  287MOL0     H38714  11.780   1.545  10.158 -6.1688  0.6154  3.0164
  287MOL0     H38715  12.001   1.722  10.283  0.9393  0.4538 -1.6903
  287MOL0     H38716  11.994   1.711  10.125  0.1989  2.4057  1.6901
  287MOL0     H38717  12.074   1.501  10.112 -2.2977  1.9406 -1.1010
  287MOL0     H38718  12.041   1.465  10.288  0.4549 -0.6922 -1.0168
  287MOL0     H38719  12.275   1.602  10.137  2.0846  0.1893  2.2974
  287MOL0     H38720  12.222   1.689  10.279 -1.8879  0.6360 -0.9769
  287MOL0     H38721  12.296   1.393  10.262 -0.8766 -1.3202  2.4372
  287MOL0     H38722  12.264   1.472  10.410 -0.3846 -1.0976 -0.1863
  287MOL0     H38723  12.503   1.442  10.384 -1.4706  0.1821  1.3054
  287MOL0     H38724  12.509   1.530  10.223  0.5155 -4.5456 -0.6342
  287MOL0     H38725  11.451   2.132  10.309 -2.5937  1.6495  1.7413
  287MOL0     H38726  11.246   2.192  10.271  1.0160 -0.6082  0.8254
  287MOL0     H38727  10.817   2.141  10.324  0.4155  0.6132  0.1108
  287MOL0     H38728  10.617   2.265  10.292 -0.4649  0.3569 -0.2011
  287MOL0     H38729   8.601   2.720  10.205 -0.5673 -0.4075 -0.8350
  287MOL0     H38730   8.424   2.901  10.244 -2.9684 -0.3837 -1.1344
  287MOL0     H38731   8.102   3.097   9.985 -1.5087  0.0646 -2.8300
  287MOL0     H38732   7.904   3.234   9.947  0.1678  0.1058 -1.8523
  287MOL0     H38733   7.723   3.390  10.002 -1.3428  0.9185 -1.0905
  287MOL0     H38734   7.789   3.395   9.841 -0.9018 -0.2106 -0.3955
  287MOL0     H38735   7.673   3.642   9.957  1.9742  0.0410 -0.0046
  287MOL0     H38736   7.573   3.517   9.885  0.5322 -2.4373  0.4971
  287MOL0     H38737   7.634   3.707   9.720 -0.5511 -0.5756 -1.9533
  287MOL0     H38738   7.677   3.542   9.668  0.7905 -1.8725  1.9857
  287MOL0     H38739   7.878   3.759   9.795 -2.0372 -0.5379  1.3735
  287MOL0     H38740   7.925   3.602   9.731  1.2691  1.7619 -0.8104
  287MOL0     H38741   7.902   3.751   9.358 -2.0313 -0.0364  0.4476
  287MOL0     H38742   8.127   3.586  10.013  0.3836 -0.1593 -2.8402
  287MOL0     H38743   8.378   3.485  10.160 -1.0152 -1.7908 -0.5091
  287MOL0     H38744   8.442   3.442   9.997  0.9166 -1.0330  1.3936
  287MOL0     H38745   8.342   3.590  10.021  1.9973  1.4485 -0.6672
  288MOL0     O38746   0.541   1.236   1.747 -0.4740  0.2724  0.0879
  288MOL0     C38747   0.634   1.214   1.670 -0.4308 -0.3402  0.7987
  288MOL0     O38748   0.692   1.303   1.591  0.0990 -0.0261 -1.0433
  288MOL0     C38749   0.649   1.436   1.577  0.6705  1.2773  0.2491
  288MOL0     C38750   0.740   1.512   1.506 -0.3705  0.6062 -0.0982
  288MOL0     C38751   0.726   1.648   1.487  0.0247 -0.9842  0.4197
  288MOL0     C38752   0.610   1.714   1.531  0.7919  0.6060  0.6367
  288MOL0     O38753   0.579   1.851   1.530 -0.6302  0.3446  0.5356
  288MOL0     C38754   0.678   1.932   1.461  0.5905 -0.1715  0.2428
  288MOL0     C38755   0.763   1.994   1.572  0.1291 -0.1051  0.2206
  288MOL0     C38756   0.909   1.925   1.577  0.6299 -0.3770  0.4752
  288MOL0     C38757   0.999   2.000   1.660 -0.1934 -0.0723 -0.1150
  288MOL0     C38758   1.108   1.915   1.710  0.2384  0.2309  0.7128
  288MOL0     C38759   1.195   1.847   1.599 -0.2107  1.0444 -0.0719
  288MOL0     C38760   1.282   1.950   1.526 -0.3176  0.6713 -0.1639
  288MOL0     C38761   1.386   1.875   1.429 -0.1751 -0.4962 -0.2743
  288MOL0     N38762   1.512   1.954   1.439  0.4846  0.0629 -0.0537
  288MOL0     C38763   1.596   1.939   1.545  1.1009 -0.1701 -0.2771
  288MOL0     C38764   1.701   2.010   1.517  0.8506  0.0199 -0.0218
  288MOL0     C38765   1.816   2.033   1.607 -0.3842  0.7300  0.8735
  288MOL0     C38766   1.948   2.011   1.524 -0.0014 -0.0611 -0.5521
  288MOL0     C38767   1.981   1.864   1.527  1.0025  0.3356  1.0312
  288MOL0     C38768   2.113   1.847   1.464 -0.4700 -0.3612  0.9483
  288MOL0     O38769   2.212   1.891   1.566  0.1928  0.3423  0.2830
  288MOL0     C38770   2.327   1.936   1.508  0.1237 -0.1736  0.7991
  288MOL0     C38771   2.432   1.858   1.452 -0.1751  0.4508  0.8266
  288MOL0     C38772   2.543   1.921   1.404  0.4049  0.3130  0.2483
  288MOL0     C38773   2.571   2.053   1.428 -0.3372 -0.2065  0.0588
  288MOL0     C38774   2.692   2.113   1.374  0.3132  0.1733  0.0133
  288MOL0     O38775   2.766   2.028   1.303  0.7494 -0.3893 -0.3049
  288MOL0     C38776   2.865   2.071   1.220 -0.5681 -0.8869  0.0286
  288MOL0     C38777   2.863   2.073   1.075 -0.4533 -0.0072  0.1098
  288MOL0     C38778   2.976   2.126   1.011 -0.0151 -0.4524  0.9712
  288MOL0     C38779   3.087   2.176   1.084 -0.8070 -0.8944  0.7624
  288MOL0     O38780   3.192   2.232   1.008  0.0207  0.2436 -0.3643
  288MOL0     C38781   3.277   2.324   1.077  0.3630  0.6069  0.7785
  288MOL0     C38782   3.373   2.409   0.982 -0.9848  0.7162 -0.1262
  288MOL0     C38783   3.512   2.444   1.042 -0.3061  0.8500  0.4499
  288MOL0     C38784   3.605   2.484   0.928  0.2590  0.9452 -0.6232
  288MOL0     C38785   3.751   2.518   0.966  0.0310 -0.3811  0.0849
  288MOL0     C38786   3.782   2.646   1.028  0.3416  0.0111 -0.1255
  288MOL0     C38787   3.828   2.768   0.938  0.1118  0.3118  0.0049
  288MOL0     C38788   3.848   2.892   1.015  0.0498 -0.2927  0.0556
  288MOL0    Cl38789   3.873   3.024   0.904 -0.4595 -0.1187  0.2361
  288MOL0     C38790   3.098   2.168   1.225  0.7887  0.7457  0.5246
  288MOL0     C38791   2.983   2.112   1.287  0.4299 -0.6382  0.0131
  288MOL0     O38792   2.709   2.237   1.382 -0.2199  0.5542 -0.0280
  288MOL0     C38793   2.469   2.128   1.468 -0.0780 -0.0736 -1.2693
  288MOL0     C38794   2.351   2.070   1.509 -0.0210 -0.0581 -0.5622
  288MOL0     N38795   1.677   2.085   1.394  0.6479  0.3912  0.0824
  288MOL0     N38796   1.568   2.033   1.350 -0.2061 -0.1382 -0.1149
  288MOL0     C38797   0.510   1.639   1.598  0.6664 -0.1131  0.1595
  288MOL0     C38798   0.525   1.498   1.610 -0.2441  0.7674 -1.0873
  288MOL0     C38799   0.690   1.074   1.672 -0.3135  0.1705 -0.4342
  288MOL0     C38800   0.636   0.981   1.758  0.3768  0.8407  0.5530
  288MOL0     C38801   0.680   0.853   1.779 -0.1768  0.7307  0.2649
  288MOL0     C38802   0.789   0.807   1.709 -0.2670  0.0853 -0.1388
  288MOL0     O38803   0.842   0.684   1.732 -0.1148 -0.4545 -0.2726
  288MOL0     C38804   0.810   0.615   1.857  0.0081 -0.6010  0.1661
  288MOL0     C38805   0.897   0.492   1.880  0.0744  0.0077  0.3034
  288MOL0     C38806   0.856   0.371   1.794  0.4791 -0.3182  0.6978
  288MOL0     C38807   0.955   0.252   1.804  0.2640 -0.9959 -0.6665
  288MOL0     C38808   1.083   0.283   1.745  0.4142 -0.4755 -0.5889
  288MOL0     C38809   1.201   0.309   1.719  0.9113  0.9217  0.4625
  288MOL0     C38810   0.852   0.898   1.621  0.1499 -0.1470 -0.1813
  288MOL0     C38811   0.807   1.028   1.599 -0.0083  0.4408  0.7495
  288MOL0     C38812   0.892   1.120   1.512 -0.2821  0.0155 -0.1206
  288MOL0     H38813   0.834   1.464   1.480 -0.9037 -1.0124  0.7833
  288MOL0     H38814   0.804   1.696   1.430 -0.2427 -2.4160 -1.2436
  288MOL0     H38815   0.735   1.883   1.381 -1.4647 -0.0563 -1.3898
  288MOL0     H38816   0.625   2.005   1.398  1.1251 -2.3138 -2.9527
  288MOL0     H38817   0.732   1.986   1.677  2.1240 -0.8088  0.8155
  288MOL0     H38818   0.771   2.100   1.546  0.7955 -0.4513 -1.0670
  288MOL0     H38819   0.950   1.925   1.476 -0.6184 -0.6746 -0.0591
  288MOL0     H38820   0.887   1.826   1.620 -2.2645  0.5020  1.2508
  288MOL0     H38821   1.025   2.092   1.608 -0.9713  0.7941  0.9847
  288MOL0     H38822   0.947   2.039   1.748 -2.7224  3.1327 -2.7872
  288MOL0     H38823   1.176   1.972   1.773  1.5737 -1.2862  0.7189
  288MOL0     H38824   1.065   1.833   1.768  0.2178 -0.4001 -0.1609
  288MOL0     H38825   1.254   1.767   1.645 -1.2190  1.9508  3.0949
  288MOL0     H38826   1.138   1.780   1.534  1.8720 -2.1871  1.1608
  288MOL0     H38827   1.326   2.016   1.601  1.9672 -0.1250 -0.7244
  288MOL0     H38828   1.220   2.010   1.459  0.6894 -0.0773 -1.8530
  288MOL0     H38829   1.411   1.770   1.446 -1.6851 -0.8367  0.0053
  288MOL0     H38830   1.352   1.881   1.326 -0.7879  0.6540 -0.0256
  288MOL0     H38831   1.568   1.900   1.643  1.0076 -0.9549 -0.6150
  288MOL0     H38832   1.808   2.133   1.650 -1.0118  0.4346  1.4737
  288MOL0     H38833   1.793   1.964   1.689  0.8020  0.5479  1.0721
  288MOL0     H38834   1.946   2.052   1.422 -1.2550  0.6514 -0.2611
  288MOL0     H38835   2.029   2.061   1.577  1.3183 -3.0502  0.4002
  288MOL0     H38836   1.900   1.815   1.472  0.8250  1.9987 -0.2496
  288MOL0     H38837   1.989   1.819   1.626 -0.4300  0.6202  1.2945
  288MOL0     H38838   2.127   1.904   1.372  0.4365 -2.2686 -0.1383
  288MOL0     H38839   2.124   1.745   1.428 -0.4190  0.0107 -0.1335
  288MOL0     H38840   2.431   1.750   1.449 -0.8814  0.4155  1.7721
  288MOL0     H38841   2.613   1.865   1.344  1.7469  2.0389  0.1197
  288MOL0     H38842   2.776   2.038   1.020 -1.3730  1.6421  0.4371
  288MOL0     H38843   2.973   2.121   0.903 -0.2552  0.6902  0.9155
  288MOL0     H38844   3.215   2.389   1.140  2.1972  2.8465  0.3969
  288MOL0     H38845   3.338   2.268   1.148 -0.4726  0.2765  1.2616
  288MOL0     H38846   3.379   2.373   0.879 -2.1579  1.5356 -0.5098
  288MOL0     H38847   3.312   2.498   0.963 -1.3086  0.0130 -2.8003
  288MOL0     H38848   3.500   2.528   1.111  0.3554  2.5178 -1.3956
  288MOL0     H38849   3.556   2.360   1.097  0.9799  0.8364 -0.5573
  288MOL0     H38850   3.564   2.572   0.876 -0.7602  1.2541  0.6765
  288MOL0     H38851   3.631   2.402   0.860  0.3861  0.9754 -0.6119
  288MOL0     H38852   3.822   2.514   0.884  3.9038  1.9071  2.9888
  288MOL0     H38853   3.789   2.443   1.036  0.1845 -0.9697 -0.6249
  288MOL0     H38854   3.691   2.679   1.080  0.8309 -1.0616  1.4502
  288MOL0     H38855   3.854   2.633   1.108 -2.0223 -0.3269  2.0747
  288MOL0     H38856   3.766   2.792   0.851 -1.4989 -0.3667  0.9184
  288MOL0     H38857   3.924   2.744   0.892 -0.9104 -3.3941 -0.5538
  288MOL0     H38858   3.769   2.910   1.089  1.3443  0.2033  1.3605
  288MOL0     H38859   3.936   2.873   1.077 -0.7962  0.4642  1.5344
  288MOL0     H38860   3.174   2.197   1.297  1.9526 -2.4913  0.7235
  288MOL0     H38861   2.986   2.096   1.395  1.6675 -3.7758 -0.3936
  288MOL0     H38862   2.483   2.235   1.477 -2.7888  0.1734  1.0079
  288MOL0     H38863   2.282   2.144   1.550  1.1630  1.3041 -0.9618
  288MOL0     H38864   0.410   1.667   1.629  0.6534 -2.9308  3.1823
  288MOL0     H38865   0.442   1.446   1.656  0.5278 -1.3998 -2.0349
  288MOL0     H38866   0.548   1.010   1.814 -0.3738 -0.1411 -0.0813
  288MOL0     H38867   0.631   0.799   1.860 -1.5383  0.5895 -0.6173
  288MOL0     H38868   0.706   0.582   1.844 -0.1072 -0.7363  1.3007
  288MOL0     H38869   0.812   0.680   1.945  0.2400 -0.8612  0.3541
  288MOL0     H38870   0.905   0.457   1.983 -0.4602 -0.5272  0.1664
  288MOL0     H38871   0.997   0.518   1.843 -0.7513 -0.5359 -2.5337
  288MOL0     H38872   0.833   0.399   1.691  3.1620  2.0253  0.6231
  288MOL0     H38873   0.768   0.335   1.849 -0.0476  1.4116  1.0511
  288MOL0     H38874   0.982   0.238   1.909  1.2858 -0.3622 -0.8249
  288MOL0     H38875   0.912   0.158   1.768  0.9438 -2.7216  2.6671
  288MOL0     H38876   1.300   0.342   1.695  0.6300  2.7173  1.5640
  288MOL0     H38877   0.936   0.866   1.560 -1.4000 -1.5087 -1.7245
  288MOL0     H38878   0.823   1.174   1.446  1.9176 -0.7668 -3.2291
  288MOL0     H38879   0.950   1.193   1.569 -3.2736  1.3350  1.5135
  288MOL0     H38880   0.950   1.062   1.439  1.0407 -1.4572  1.9856
  289MOL0     O38881   8.534   8.970   3.870  0.0429  0.7848 -0.1628
  289MOL0     C38882   8.485   9.010   3.763 -0.8720  0.4409  0.5053
  289MOL0     O38883   8.546   9.103   3.684 -0.8604  0.0316 -0.1032
  289MOL0     C38884   8.649   9.177   3.738 -0.4720  0.7875  0.5550
  289MOL0     C38885   8.637   9.250   3.855 -0.0513  0.5209 -0.1068
  289MOL0     C38886   8.750   9.309   3.914 -0.8512 -0.5423 -0.5025
  289MOL0     C38887   8.885   9.292   3.859 -1.0273 -0.0760 -0.3768
  289MOL0     O38888   8.999   9.352   3.908  0.4926 -0.1208  0.7719
  289MOL0     C38889   8.997   9.446   4.014 -0.2777  0.2152 -0.3891
  289MOL0     C38890   9.138   9.510   4.028 -0.6886  0.0323  0.2123
  289MOL0     C38891   9.155   9.545   4.175  0.1824  0.0146 -0.2420
  289MOL0     C38892   9.256   9.661   4.195  0.0366 -0.2386 -0.3900
  289MOL0     C38893   9.301   9.645   4.339  0.0873  0.7542 -0.0650
  289MOL0     C38894   9.388   9.770   4.375 -0.2352 -0.1625 -0.7133
  289MOL0     C38895   9.478   9.767   4.501  0.6515 -0.3314  0.4053
  289MOL0     C38896   9.398   9.784   4.636 -0.3165 -0.7331  0.1166
  289MOL0     N38897   9.293   9.680   4.645  0.4077 -0.2735  0.2006
  289MOL0     C38898   9.314   9.551   4.663  0.4326 -0.2117 -0.6181
  289MOL0     C38899   9.196   9.494   4.695 -0.3560  0.2091  0.0988
  289MOL0     C38900   9.167   9.352   4.728 -0.4046 -0.9927  0.7227
  289MOL0     C38901   9.204   9.255   4.618 -0.8788  0.6077  0.1912
  289MOL0     C38902   9.117   9.240   4.493  0.4540 -0.1759  0.6639
  289MOL0     C38903   8.970   9.224   4.520  0.1816  0.7266  0.0556
  289MOL0     O38904   8.915   9.202   4.388 -0.3660 -0.1733  0.1717
  289MOL0     C38905   8.784   9.226   4.354  0.1948  0.1304  0.0527
  289MOL0     C38906   8.742   9.150   4.243  0.3639  0.5797  0.4679
  289MOL0     C38907   8.608   9.159   4.188 -0.8142  0.5601  0.1606
  289MOL0     C38908   8.519   9.250   4.245  0.0959  0.2310  0.7629
  289MOL0     C38909   8.379   9.260   4.198  0.1438  0.2558 -0.9056
  289MOL0     O38910   8.359   9.183   4.078 -0.2320  0.4326  0.6561
  289MOL0     C38911   8.230   9.187   4.028 -0.0198  0.6745  0.3041
  289MOL0     C38912   8.151   9.065   4.011 -0.3492  0.1409  0.0164
  289MOL0     C38913   8.024   9.079   3.972 -0.0824 -0.2186 -0.5943
  289MOL0     C38914   7.971   9.207   3.934  0.4931  0.2370  1.6583
  289MOL0     O38915   7.839   9.215   3.918  0.0619  0.3870 -0.5787
  289MOL0     C38916   7.790   9.347   3.913  0.2047 -0.4128 -0.3990
  289MOL0     C38917   7.638   9.344   3.917 -0.1489  0.3716  0.7161
  289MOL0     C38918   7.576   9.482   3.873 -0.6313  0.0938 -0.0041
  289MOL0     C38919   7.418   9.488   3.875 -1.1022 -0.0014  0.3369
  289MOL0     C38920   7.342   9.384   3.785 -0.7800  0.7778  0.0147
  289MOL0     C38921   7.198   9.432   3.747 -0.7049 -0.3102  0.1962
  289MOL0     C38922   7.106   9.431   3.872 -1.1363  0.4852 -0.4960
  289MOL0     C38923   7.035   9.305   3.908 -0.0156 -0.5465 -0.0595
  289MOL0    Cl38924   6.966   9.330   4.066 -0.3953  0.1545  0.4448
  289MOL0     C38925   8.056   9.314   3.926 -0.6205  0.0343 -0.1148
  289MOL0     C38926   8.189   9.301   3.967 -0.0267 -0.5764 -0.2947
  289MOL0     O38927   8.296   9.333   4.255 -0.0829 -0.4701  0.0685
  289MOL0     C38928   8.560   9.326   4.351 -0.2753 -0.3505 -0.7608
  289MOL0     C38929   8.688   9.316   4.404  0.3822  0.4545  0.3508
  289MOL0     N38930   9.100   9.593   4.700  0.4823  0.5206  0.5823
  289MOL0     N38931   9.158   9.709   4.657 -0.4881 -0.1209 -0.1628
  289MOL0     C38932   8.888   9.225   3.739  0.5952  0.2539 -0.0137
  289MOL0     C38933   8.775   9.167   3.681 -0.3787  0.6400 -0.0888
  289MOL0     C38934   8.346   8.960   3.727 -0.0083  0.4418  0.0087
  289MOL0     C38935   8.303   8.824   3.741  0.2424  0.3626  0.4125
  289MOL0     C38936   8.177   8.782   3.693 -0.0771  0.0573  0.1254
  289MOL0     C38937   8.081   8.865   3.633  1.3138 -0.3590 -0.7850
  289MOL0     O38938   7.951   8.815   3.600 -0.1163 -0.6242 -0.7531
  289MOL0     C38939   7.849   8.900   3.540 -0.3163  0.0490  0.0806
  289MOL0     C38940   7.720   8.828   3.529 -0.4392  0.2500 -0.8769
  289MOL0     C38941   7.679   8.747   3.653  0.5644  0.1580 -0.0013
  289MOL0     C38942   7.545   8.659   3.630  0.8311 -0.7590 -0.5905
  289MOL0     C38943   7.555   8.558   3.528 -0.3636 -0.2519 -0.9424
  289MOL0     C38944   7.579   8.477   3.446 -0.2720  0.5406 -0.2268
  289MOL0     C38945   8.122   9.003   3.632  0.0130  0.0351  0.0573
  289MOL0     C38946   8.250   9.046   3.670  1.5086  0.3761  0.4284
  289MOL0     C38947   8.277   9.184   3.643  0.0559  0.3551  0.9288
  289MOL0     H38948   8.546   9.261   3.913  0.0322 -0.5573  0.2549
  289MOL0     H38949   8.739   9.361   4.009  1.3270  1.1930 -1.1099
  289MOL0     H38950   8.923   9.524   3.992 -0.4552  0.8318  2.1191
  289MOL0     H38951   8.968   9.404   4.111  1.5763  2.9160  1.4751
  289MOL0     H38952   9.150   9.594   3.959 -0.7775 -0.1694 -0.0446
  289MOL0     H38953   9.208   9.436   3.990  0.4798  0.2641  1.8014
  289MOL0     H38954   9.179   9.447   4.216 -0.4546 -0.9258 -1.9855
  289MOL0     H38955   9.062   9.588   4.214  0.0844  1.9517 -2.3674
  289MOL0     H38956   9.336   9.666   4.121 -0.3458  2.1709 -0.7128
  289MOL0     H38957   9.213   9.762   4.197  1.3679  0.5387  5.1850
  289MOL0     H38958   9.213   9.636   4.403 -1.2445 -3.4785 -2.1785
  289MOL0     H38959   9.357   9.552   4.348 -1.7535 -0.5254 -1.2542
  289MOL0     H38960   9.453   9.797   4.291  0.7650 -2.2358 -0.6905
  289MOL0     H38961   9.321   9.856   4.386  2.2083  1.9612 -1.5526
  289MOL0     H38962   9.542   9.852   4.479 -2.2445  1.2063 -3.3191
  289MOL0     H38963   9.537   9.675   4.499  0.2747 -0.5886 -1.7321
  289MOL0     H38964   9.472   9.772   4.716  0.4312  1.0229 -0.2599
  289MOL0     H38965   9.360   9.886   4.645  0.0626 -0.5928  0.1589
  289MOL0     H38966   9.410   9.501   4.671  1.0088  1.1107  1.9200
  289MOL0     H38967   9.230   9.333   4.816 -0.7622  0.6265  1.3707
  289MOL0     H38968   9.061   9.344   4.753 -0.6956  0.3420  0.0359
  289MOL0     H38969   9.305   9.280   4.583 -0.6889  0.1662  0.4130
  289MOL0     H38970   9.209   9.153   4.657 -0.7439  0.1579 -0.9755
  289MOL0     H38971   9.144   9.145   4.446  0.2639  1.4336 -3.0051
  289MOL0     H38972   9.138   9.317   4.418  0.7120 -0.2609  0.6478
  289MOL0     H38973   8.933   9.318   4.564 -1.3300 -1.5891  4.3088
  289MOL0     H38974   8.940   9.144   4.587  0.5690  0.2235 -0.3638
  289MOL0     H38975   8.819   9.089   4.199 -0.9257 -2.6435  2.3446
  289MOL0     H38976   8.573   9.089   4.112 -2.2325  1.3513  0.0502
  289MOL0     H38977   8.187   8.966   4.039 -0.7988 -0.7447 -2.2710
  289MOL0     H38978   7.959   8.993   3.977  1.3394 -1.2677  0.4828
  289MOL0     H38979   7.827   9.413   3.991  3.0014 -3.2843  0.9107
  289MOL0     H38980   7.825   9.395   3.821  1.7473 -1.9944 -0.6931
  289MOL0     H38981   7.605   9.266   3.847 -1.2628  0.8370  0.7088
  289MOL0     H38982   7.599   9.312   4.014 -1.3193 -0.7498 -0.0797
  289MOL0     H38983   7.625   9.561   3.930  0.8717 -2.5484  2.7291
  289MOL0     H38984   7.605   9.512   3.773  2.4701  1.7728  1.2707
  289MOL0     H38985   7.383   9.586   3.844 -1.9456 -0.0299  1.1746
  289MOL0     H38986   7.396   9.465   3.980  1.2257 -2.9206  0.3418
  289MOL0     H38987   7.332   9.286   3.833 -0.8395 -0.6527 -2.6977
  289MOL0     H38988   7.393   9.369   3.689 -1.1796 -3.3952  0.2729
  289MOL0     H38989   7.197   9.531   3.700 -2.5703  0.0849  0.9849
  289MOL0     H38990   7.165   9.361   3.670  2.4796  0.0917 -1.7343
  289MOL0     H38991   7.028   9.502   3.845 -0.9831  0.9125  0.1719
  289MOL0     H38992   7.159   9.471   3.959 -2.2958  3.8871 -1.2004
  289MOL0     H38993   6.955   9.279   3.838 -0.4144 -1.6738  0.7921
  289MOL0     H38994   7.102   9.219   3.907  0.1426 -0.4225 -0.2602
  289MOL0     H38995   8.025   9.407   3.880  0.7810  0.9340  0.6974
  289MOL0     H38996   8.251   9.390   3.964 -2.6575  1.3944 -3.1966
  289MOL0     H38997   8.497   9.397   4.402  0.9778  0.7975 -0.7679
  289MOL0     H38998   8.725   9.384   4.481  2.7681 -0.0033 -0.3044
  289MOL0     H38999   8.991   9.222   3.705  0.7752 -3.0786  0.5144
  289MOL0     H39000   8.787   9.122   3.582 -1.0239  2.6941 -1.1635
  289MOL0     H39001   8.368   8.752   3.789 -0.8742 -0.8166  0.2025
  289MOL0     H39002   8.153   8.676   3.703  0.9749 -0.4469 -2.1840
  289MOL0     H39003   7.878   8.932   3.439  2.7785  0.4580  0.9919
  289MOL0     H39004   7.835   8.992   3.598  1.8736  1.1682 -1.0348
  289MOL0     H39005   7.725   8.763   3.441  0.3169  1.2014 -1.5591
  289MOL0     H39006   7.642   8.902   3.511 -0.4799  1.3362  2.9448
  289MOL0     H39007   7.651   8.813   3.736 -1.4169  1.2385 -1.4400
  289MOL0     H39008   7.765   8.685   3.681  0.9656  0.5419 -0.3726
  289MOL0     H39009   7.518   8.614   3.725 -1.3658  1.9490  0.2111
  289MOL0     H39010   7.464   8.724   3.595  0.5668  0.5182  2.1757
  289MOL0     H39011   7.600   8.386   3.393  0.4388  0.3034  0.4528
  289MOL0     H39012   8.051   9.072   3.588  1.0251  1.6712  0.8920
  289MOL0     H39013   8.320   9.200   3.543 -0.8352  0.6034  0.5683
  289MOL0     H39014   8.185   9.244   3.636  0.2610  0.5203 -1.6126
  289MOL0     H39015   8.336   9.242   3.714  2.1365  2.0370 -1.9210
  290MOL0     O39016  10.182   3.883   8.751 -0.4478 -1.3793  0.1496
  290MOL0     C39017  10.108   3.966   8.703  1.1105 -0.9567 -0.0515
  290MOL0     O39018  10.130   4.099   8.704 -0.6442 -0.3130  0.1998
  290MOL0     C39019  10.241   4.164   8.743 -0.7071  1.0734  0.4477
  290MOL0     C39020  10.227   4.300   8.753 -0.1274 -0.0248 -0.0829
  290MOL0     C39021  10.342   4.375   8.786  1.4518 -0.2573  0.6516
  290MOL0     C39022  10.468   4.326   8.802  0.3746  0.1802 -0.2426
  290MOL0     O39023  10.570   4.409   8.846 -0.2355  0.1318  0.4257
  290MOL0     C39024  10.660   4.351   8.941  0.4927  0.2735  0.9934
  290MOL0     C39025  10.790   4.299   8.873  0.6050  0.4182 -0.3340
  290MOL0     C39026  10.891   4.396   8.830  0.1962 -0.1024 -0.0551
  290MOL0     C39027  10.844   4.476   8.706 -0.3161 -0.3988  0.1116
  290MOL0     C39028  10.965   4.560   8.658  0.4751 -0.1443  0.3209
  290MOL0     C39029  11.072   4.470   8.596 -0.6091 -0.2449 -0.2640
  290MOL0     C39030  11.197   4.542   8.543  0.3222 -0.5380 -0.0380
  290MOL0     C39031  11.247   4.474   8.416  0.4703  0.9533 -0.1921
  290MOL0     N39032  11.387   4.510   8.388  0.6126 -0.4874 -0.1541
  290MOL0     C39033  11.492   4.508   8.474 -0.9117 -0.4448  0.0798
  290MOL0     C39034  11.598   4.555   8.413  1.1041  0.3197 -0.0312
  290MOL0     C39035  11.734   4.570   8.466 -1.1106 -0.6463  0.2443
  290MOL0     C39036  11.807   4.710   8.437 -0.4160 -0.1307 -0.0067
  290MOL0     C39037  11.909   4.743   8.549 -0.3706 -0.8388  0.4527
  290MOL0     C39038  12.023   4.643   8.565 -0.3629 -0.5453 -0.3618
  290MOL0     O39039  12.097   4.691   8.675 -0.2098  0.1898  0.6254
  290MOL0     C39040  12.221   4.635   8.710  0.2259  0.5530  1.2763
  290MOL0     C39041  12.279   4.521   8.652  0.0619 -0.9405  0.5177
  290MOL0     C39042  12.416   4.500   8.675 -0.3445 -0.4857  0.1916
  290MOL0     C39043  12.486   4.569   8.772  0.0809 -1.1911  0.7351
  290MOL0     C39044  12.632   4.550   8.786  0.0770  0.8375 -0.4855
  290MOL0     O39045  12.680   4.610   8.904 -0.1698 -0.0163  0.1945
  290MOL0     C39046  12.807   4.598   8.950  0.1207 -0.0124  0.0988
  290MOL0     C39047  12.873   4.715   8.961 -0.1771  0.5961 -0.3562
  290MOL0     C39048  13.013   4.705   8.981 -0.7952  0.8327  0.2371
  290MOL0     C39049  13.078   4.576   8.985  0.5119  0.6720 -0.8843
  290MOL0     O39050  13.222   4.566   8.979  0.3146  0.1331 -0.4086
  290MOL0     C39051  13.291   4.670   9.058  0.2153  0.1796  0.6938
  290MOL0     C39052  13.415   4.606   9.114  1.0158  0.8798  0.0231
  290MOL0     C39053  13.516   4.711   9.173  1.0717  0.0318 -0.1229
  290MOL0     C39054  13.464   4.786   9.295 -0.6567  0.0752 -0.1339
  290MOL0     C39055  13.560   4.893   9.326  0.3448 -0.2405  0.0251
  290MOL0     C39056  13.529   4.979   9.442  0.1341 -0.4106 -0.7970
  290MOL0     C39057  13.644   5.076   9.469 -1.2363 -0.0687 -0.6948
  290MOL0     C39058  13.588   5.212   9.524  0.0056  0.3495  0.0229
  290MOL0    Cl39059  13.522   5.314   9.397 -0.0066 -0.1224  0.4887
  290MOL0     C39060  13.004   4.458   8.986  0.1910  0.7290 -0.0032
  290MOL0     C39061  12.866   4.472   8.971  0.4452  0.2879 -0.7992
  290MOL0     O39062  12.700   4.475   8.714 -0.1468 -0.1578 -0.2405
  290MOL0     C39063  12.417   4.679   8.839 -0.0288 -0.2457  0.4732
  290MOL0     C39064  12.285   4.706   8.808  0.0065 -0.3836 -0.7573
  290MOL0     N39065  11.559   4.583   8.281 -0.1824 -0.4298 -0.5019
  290MOL0     N39066  11.436   4.563   8.271  0.4995  0.1510  0.3949
  290MOL0     C39067  10.479   4.187   8.796  0.0449 -0.4886  0.4589
  290MOL0     C39068  10.369   4.106   8.770  0.3018  1.2894 -0.7362
  290MOL0     C39069   9.979   3.919   8.656  0.4226  0.4833  0.5424
  290MOL0     C39070   9.872   4.003   8.654 -0.1922 -0.1213  0.6616
  290MOL0     C39071   9.751   3.966   8.602  0.7883 -0.7509  0.3893
  290MOL0     C39072   9.726   3.843   8.545 -0.6614 -0.1240 -0.4843
  290MOL0     O39073   9.608   3.794   8.496 -0.5404 -0.6803 -0.2213
  290MOL0     C39074   9.484   3.871   8.519 -0.9749  0.9911  0.1151
  290MOL0     C39075   9.355   3.812   8.473  0.6079 -0.2587  0.0539
  290MOL0     C39076   9.317   3.678   8.555  0.0982 -0.8733  0.0537
  290MOL0     C39077   9.228   3.585   8.469 -1.3352 -0.5610 -1.2608
  290MOL0     C39078   9.170   3.476   8.543 -0.7647 -0.0271  0.2523
  290MOL0     C39079   9.137   3.377   8.603 -0.4772 -0.3239  0.6164
  290MOL0     C39080   9.828   3.752   8.544 -0.4348 -0.0256  0.2705
  290MOL0     C39081   9.954   3.780   8.606  0.0075 -0.2282  0.3880
  290MOL0     C39082  10.061   3.670   8.597  0.0711  0.2631 -0.0379
  290MOL0     H39083  10.132   4.341   8.719  1.1350  0.9135 -2.6821
  290MOL0     H39084  10.329   4.481   8.806 -0.6951 -0.5343  0.9425
  290MOL0     H39085  10.693   4.436   9.003  1.8689  1.5218 -1.2833
  290MOL0     H39086  10.617   4.270   8.999 -0.2085  0.4368  0.7102
  290MOL0     H39087  10.761   4.232   8.792  1.6520  0.0213 -0.4093
  290MOL0     H39088  10.834   4.232   8.948 -0.7369  0.7246  0.7567
  290MOL0     H39089  10.990   4.351   8.819  0.8172  1.1132  0.3822
  290MOL0     H39090  10.912   4.472   8.905 -0.2371  1.2354 -1.2473
  290MOL0     H39091  10.816   4.417   8.618  1.6399  1.6182 -2.0023
  290MOL0     H39092  10.758   4.538   8.733  1.2167  0.6064  3.1385
  290MOL0     H39093  10.933   4.640   8.590 -2.0628 -0.3202  1.2324
  290MOL0     H39094  11.017   4.598   8.747  2.0743  1.8436 -1.3308
  290MOL0     H39095  11.094   4.394   8.672 -0.6182 -0.3110 -0.3279
  290MOL0     H39096  11.026   4.417   8.512  0.3205  1.3313 -1.8454
  290MOL0     H39097  11.263   4.546   8.631 -0.8633 -2.5455  1.0342
  290MOL0     H39098  11.161   4.641   8.515  1.4609 -0.3016 -0.7067
  290MOL0     H39099  11.235   4.366   8.427  0.7179  0.9087 -0.3392
  290MOL0     H39100  11.190   4.514   8.332 -0.8612  0.5359  0.4983
  290MOL0     H39101  11.497   4.468   8.575  1.9784 -1.7338 -0.4768
  290MOL0     H39102  11.725   4.574   8.575  1.1864 -1.1079  0.5011
  290MOL0     H39103  11.795   4.486   8.432  0.6392  0.9065 -0.7018
  290MOL0     H39104  11.856   4.723   8.341 -1.2708  1.4762 -0.2440
  290MOL0     H39105  11.729   4.786   8.432 -2.4275 -1.9806  1.0050
  290MOL0     H39106  11.859   4.762   8.644  0.6652  0.7785  0.7082
  290MOL0     H39107  11.958   4.836   8.518 -2.2697  0.4800  1.2433
  290MOL0     H39108  12.079   4.648   8.471  3.3005 -1.2810  1.5887
  290MOL0     H39109  11.996   4.540   8.590  0.7721 -0.5412  1.0049
  290MOL0     H39110  12.227   4.458   8.580  0.5146  1.2713 -1.8647
  290MOL0     H39111  12.462   4.433   8.603 -2.5493  0.3807 -2.1879
  290MOL0     H39112  12.830   4.814   8.955 -0.1173  0.7347  1.0919
  290MOL0     H39113  13.077   4.791   8.968 -0.6359  0.6042 -0.5492
  290MOL0     H39114  13.312   4.760   8.999  0.2661  0.0308  0.4837
  290MOL0     H39115  13.233   4.698   9.147  1.2800  1.3659  1.0520
  290MOL0     H39116  13.375   4.533   9.185  0.9830  1.6055  0.7739
  290MOL0     H39117  13.466   4.544   9.040 -3.7720 -1.8915 -1.3996
  290MOL0     H39118  13.609   4.659   9.201 -0.0876 -1.6113  0.8345
  290MOL0     H39119  13.535   4.782   9.092  0.8555 -1.0088 -1.1036
  290MOL0     H39120  13.443   4.705   9.366  1.8340 -1.9937 -1.5894
  290MOL0     H39121  13.367   4.834   9.276 -1.8784 -0.9566  2.8377
  290MOL0     H39122  13.570   4.964   9.244  2.8597 -0.2415  0.2386
  290MOL0     H39123  13.662   4.853   9.325  0.8041  0.8947 -0.4824
  290MOL0     H39124  13.440   5.039   9.421  0.9763  1.4208  0.6254
  290MOL0     H39125  13.511   4.915   9.529  1.9537 -0.0799 -0.1556
  290MOL0     H39126  13.704   5.101   9.381 -0.2991 -2.1002 -0.6934
  290MOL0     H39127  13.716   5.029   9.537 -2.0684 -0.1571  0.1444
  290MOL0     H39128  13.516   5.196   9.604  2.3237 -1.2372  1.9484
  290MOL0     H39129  13.671   5.268   9.569 -2.1435  3.2087  0.6990
  290MOL0     H39130  13.051   4.361   8.981 -1.0328  0.1708 -1.9062
  290MOL0     H39131  12.812   4.379   8.962  2.9536 -1.1568 -1.9902
  290MOL0     H39132  12.458   4.741   8.918  1.1069 -1.6169  1.0023
  290MOL0     H39133  12.234   4.790   8.854  0.9462 -2.0157  3.7613
  290MOL0     H39134  10.574   4.136   8.806 -1.1981 -3.5005 -1.7546
  290MOL0     H39135  10.389   4.000   8.760  0.6236  1.1895  0.7145
  290MOL0     H39136   9.886   4.096   8.708  0.4405  1.4430 -2.0265
  290MOL0     H39137   9.671   4.039   8.615  0.4055 -0.7110 -1.8018
  290MOL0     H39138   9.487   3.975   8.485  3.2253  1.4183  1.2313
  290MOL0     H39139   9.480   3.875   8.628  0.0040 -0.8628  0.2486
  290MOL0     H39140   9.345   3.799   8.365  1.3334  2.1325 -0.3421
  290MOL0     H39141   9.279   3.888   8.494  1.2148  0.3844 -0.0545
  290MOL0     H39142   9.256   3.707   8.641 -1.8533 -1.4838 -1.0621
  290MOL0     H39143   9.398   3.611   8.584  0.0427 -1.4092 -0.9970
  290MOL0     H39144   9.148   3.635   8.415 -0.0633  3.1565 -0.0166
  290MOL0     H39145   9.298   3.537   8.400  2.1446  1.5824  0.4896
  290MOL0     H39146   9.110   3.296   8.668  2.6488 -0.7186  1.6140
  290MOL0     H39147   9.816   3.652   8.503  0.1488 -0.1083  0.2863
  290MOL0     H39148  10.158   3.719   8.581 -0.4932  1.7923  0.9602
  290MOL0     H39149  10.071   3.618   8.693 -0.0745 -0.4818 -0.4185
  290MOL0     H39150  10.048   3.601   8.513 -0.2264 -1.5328  1.4089
  291MOL0     O39151   1.940   8.175   5.970 -0.2712 -0.6095  0.4405
  291MOL0     C39152   2.028   8.170   6.051 -0.3196 -0.4281  0.6893
  291MOL0     O39153   2.148   8.103   6.033 -0.3418  0.2136  0.0238
  291MOL0     C39154   2.176   8.041   5.919 -0.0020 -0.3028 -0.5429
  291MOL0     C39155   2.278   7.939   5.931  0.5240 -0.0686 -0.6378
  291MOL0     C39156   2.311   7.848   5.831  0.7484  0.4552  0.3337
  291MOL0     C39157   2.253   7.859   5.705  1.2090 -0.0447 -0.3922
  291MOL0     O39158   2.287   7.769   5.605  0.3900 -0.3364 -0.0365
  291MOL0     C39159   2.177   7.694   5.546  0.7968  0.5127 -0.3509
  291MOL0     C39160   2.224   7.566   5.488 -0.5934 -0.3164  0.9717
  291MOL0     C39161   2.305   7.488   5.574  0.0793  0.7233 -0.3462
  291MOL0     C39162   2.391   7.386   5.508 -1.0556  0.0618  0.4062
  291MOL0     C39163   2.423   7.272   5.604  0.0662 -0.7180  0.5084
  291MOL0     C39164   2.487   7.306   5.731 -0.1700  0.3835 -0.1445
  291MOL0     C39165   2.504   7.174   5.818  0.3560  0.1109  0.4077
  291MOL0     C39166   2.546   7.188   5.965  0.6464  0.8074 -0.4068
  291MOL0     N39167   2.578   7.055   6.020  1.0203 -0.1919 -0.8644
  291MOL0     C39168   2.689   6.976   5.976 -0.0667  0.8720 -0.0699
  291MOL0     C39169   2.679   6.857   6.049  0.0614 -0.2154  0.5848
  291MOL0     C39170   2.764   6.732   6.035 -0.2685  0.9609  0.2081
  291MOL0     C39171   2.797   6.657   6.165  0.3578  0.2056  0.1007
  291MOL0     C39172   2.839   6.749   6.276 -0.1950 -0.1621 -1.5768
  291MOL0     C39173   2.949   6.850   6.241 -0.2221  1.3415 -0.6773
  291MOL0     O39174   3.074   6.786   6.201 -0.6911 -0.3907  0.1213
  291MOL0     C39175   3.185   6.812   6.285  0.6522  0.5901 -0.7715
  291MOL0     C39176   3.315   6.804   6.229 -0.0035 -0.4015  0.2637
  291MOL0     C39177   3.421   6.832   6.312 -0.8332 -0.0020  0.4955
  291MOL0     C39178   3.406   6.871   6.448 -0.0052 -0.3455  0.3986
  291MOL0     C39179   3.522   6.900   6.545 -0.2398 -0.1823 -0.0118
  291MOL0     O39180   3.506   6.910   6.678 -0.1230  0.4464  0.0530
  291MOL0     C39181   3.616   6.950   6.754  0.5771 -0.0234 -0.7786
  291MOL0     C39182   3.605   7.051   6.848  0.4936  0.0293 -0.0329
  291MOL0     C39183   3.718   7.085   6.925  0.0022  0.7138  0.7710
  291MOL0     C39184   3.839   7.023   6.924 -1.0473  0.2977  0.4839
  291MOL0     O39185   3.930   7.064   7.014 -0.8306  0.5289 -0.6508
  291MOL0     C39186   4.018   6.962   7.066  0.0966 -1.2939 -0.4294
  291MOL0     C39187   4.082   7.013   7.200 -0.2112 -0.1469 -0.1140
  291MOL0     C39188   4.156   7.149   7.196  0.6097  0.2463  0.4506
  291MOL0     C39189   4.269   7.148   7.307  0.0542  0.4205 -0.0897
  291MOL0     C39190   4.377   7.252   7.272  0.7520  0.2945 -0.4995
  291MOL0     C39191   4.323   7.396   7.251 -0.0437 -0.4974 -0.3976
  291MOL0     C39192   4.309   7.469   7.383  0.6273 -0.6651 -0.7656
  291MOL0     C39193   4.441   7.495   7.450  0.0790  0.3674 -0.2586
  291MOL0    Cl39194   4.445   7.624   7.567  0.0219  0.4522  0.3195
  291MOL0     C39195   3.852   6.914   6.834  0.2457 -1.1984 -1.0936
  291MOL0     C39196   3.746   6.881   6.749  0.4423 -0.0324 -0.2583
  291MOL0     O39197   3.632   6.904   6.492 -0.0392 -0.7670  0.1214
  291MOL0     C39198   3.278   6.863   6.504 -0.9341  0.0751 -0.4744
  291MOL0     C39199   3.168   6.828   6.426  0.5509 -0.5845 -0.6603
  291MOL0     N39200   2.563   6.873   6.130  0.0347 -0.1990 -0.1962
  291MOL0     N39201   2.502   6.984   6.110  0.2746  0.6561 -0.4154
  291MOL0     C39202   2.163   7.967   5.691 -0.3134 -0.8115  0.0568
  291MOL0     C39203   2.125   8.057   5.790  0.1695 -0.2632  0.0406
  291MOL0     C39204   2.001   8.218   6.194 -0.9902 -0.5499 -0.4981
  291MOL0     C39205   2.093   8.291   6.269  0.5893 -0.6783 -0.2261
  291MOL0     C39206   2.057   8.332   6.398 -1.2644 -1.0952  0.4797
  291MOL0     C39207   1.941   8.308   6.459  0.1126  0.1239 -0.4998
  291MOL0     O39208   1.925   8.359   6.588  0.3810 -0.0463 -0.1302
  291MOL0     C39209   1.800   8.327   6.642  0.4094 -0.4290 -0.0752
  291MOL0     C39210   1.774   8.396   6.779  0.0844  0.0264 -0.2116
  291MOL0     C39211   1.837   8.310   6.894 -0.0005 -0.4856 -0.2765
  291MOL0     C39212   1.763   8.183   6.932 -0.7617 -0.2106  0.5685
  291MOL0     C39213   1.627   8.213   6.983  0.4451  0.4793  0.3606
  291MOL0     C39214   1.526   8.228   7.040  0.5239 -0.5417 -0.4848
  291MOL0     C39215   1.836   8.244   6.382  0.1028 -0.0129  0.5461
  291MOL0     C39216   1.869   8.198   6.251  0.6276 -0.9230  0.5301
  291MOL0     C39217   1.751   8.114   6.196 -0.9810 -0.1696 -0.8623
  291MOL0     H39218   2.310   7.924   6.034  1.1940 -0.4198 -0.8924
  291MOL0     H39219   2.370   7.757   5.839 -2.7018 -2.6048 -3.8800
  291MOL0     H39220   2.093   7.683   5.615 -1.3166  3.5251 -2.1889
  291MOL0     H39221   2.123   7.755   5.474 -1.6746  0.6668  1.5024
  291MOL0     H39222   2.286   7.601   5.405 -1.8033 -1.5914 -0.5473
  291MOL0     H39223   2.144   7.504   5.445  0.1706 -1.6764  1.4662
  291MOL0     H39224   2.249   7.426   5.644  2.2578 -2.7773 -1.4754
  291MOL0     H39225   2.374   7.546   5.636  0.1337  1.1984 -0.8377
  291MOL0     H39226   2.347   7.349   5.415  1.2427 -1.9981  0.0608
  291MOL0     H39227   2.479   7.431   5.462  0.2520 -1.4207  1.3674
  291MOL0     H39228   2.326   7.223   5.618  0.1510 -0.7478  1.0106
  291MOL0     H39229   2.482   7.200   5.547  1.7372  2.3729 -2.0180
  291MOL0     H39230   2.582   7.360   5.724 -1.0328  2.2713  1.4632
  291MOL0     H39231   2.434   7.375   5.797  4.9113  1.1847  3.6896
  291MOL0     H39232   2.585   7.122   5.767 -0.1094 -0.8048  0.5809
  291MOL0     H39233   2.416   7.112   5.799  2.8137 -3.4104 -0.4772
  291MOL0     H39234   2.643   7.237   5.969  2.4719 -2.5467 -0.3274
  291MOL0     H39235   2.470   7.236   6.029  2.5297  0.8222  1.9261
  291MOL0     H39236   2.775   6.999   5.914  2.4229 -3.1971  1.4027
  291MOL0     H39237   2.711   6.660   5.972  1.8425  0.2273 -0.8218
  291MOL0     H39238   2.863   6.749   5.992  0.3205 -2.2476  0.0479
  291MOL0     H39239   2.716   6.592   6.200  0.5754  0.5335  1.2544
  291MOL0     H39240   2.868   6.587   6.121 -1.0318  1.1819 -4.1422
  291MOL0     H39241   2.869   6.689   6.362  0.1881  2.7794  0.4993
  291MOL0     H39242   2.758   6.810   6.316  2.5082  0.8643  3.0260
  291MOL0     H39243   2.962   6.922   6.323 -2.4854 -0.5429  1.4711
  291MOL0     H39244   2.923   6.915   6.157  0.2435  3.6272  0.8506
  291MOL0     H39245   3.339   6.778   6.126 -1.2891 -0.3661 -0.0667
  291MOL0     H39246   3.524   6.811   6.284 -0.8343  0.2256  0.3101
  291MOL0     H39247   3.506   7.081   6.878  0.7961 -0.2008  1.2544
  291MOL0     H39248   3.701   7.157   7.006  1.4899  0.5515  1.2564
  291MOL0     H39249   3.963   6.870   7.085 -1.5051 -0.4505 -0.7889
  291MOL0     H39250   4.095   6.934   6.994 -0.1699 -0.7527 -0.9383
  291MOL0     H39251   4.008   7.019   7.281 -1.6189  4.6541 -1.4163
  291MOL0     H39252   4.152   6.940   7.243  1.0753  1.3509  0.4293
  291MOL0     H39253   4.202   7.160   7.098  0.1540 -1.0665  0.0713
  291MOL0     H39254   4.081   7.228   7.198 -0.6670 -0.7977 -2.1763
  291MOL0     H39255   4.321   7.052   7.300 -0.3807  0.3012 -2.9140
  291MOL0     H39256   4.225   7.170   7.405 -0.9817  2.1854 -0.9014
  291MOL0     H39257   4.424   7.226   7.177 -0.0052 -1.6516 -0.4002
  291MOL0     H39258   4.462   7.253   7.341  0.3069  0.4306  0.0603
  291MOL0     H39259   4.398   7.451   7.194  5.0607 -3.2309  2.9595
  291MOL0     H39260   4.229   7.407   7.196  1.0969 -0.6134 -2.4804
  291MOL0     H39261   4.236   7.420   7.448 -1.0734  3.3980  0.7257
  291MOL0     H39262   4.254   7.562   7.364  2.0421  0.1541 -1.0472
  291MOL0     H39263   4.480   7.409   7.505 -2.1555 -1.7839 -1.8336
  291MOL0     H39264   4.515   7.518   7.373 -0.5636  0.7142 -0.7862
  291MOL0     H39265   3.944   6.857   6.828  0.4713 -1.0179  0.2608
  291MOL0     H39266   3.761   6.804   6.674 -2.3090 -0.2822 -0.6851
  291MOL0     H39267   3.270   6.893   6.608 -1.2264 -0.6363 -0.2864
  291MOL0     H39268   3.075   6.820   6.480  0.4462 -1.5279 -0.9462
  291MOL0     H39269   2.126   7.982   5.590 -1.5690  1.7333  0.7858
  291MOL0     H39270   2.048   8.130   5.764 -0.4466 -1.1286 -0.6298
  291MOL0     H39271   2.186   8.331   6.229  1.9261 -3.2009  0.1685
  291MOL0     H39272   2.134   8.381   6.458  0.3998 -0.4048 -2.0497
  291MOL0     H39273   1.789   8.219   6.642 -1.5223 -0.2924 -1.7068
  291MOL0     H39274   1.714   8.361   6.583  0.7124 -2.7485 -2.0175
  291MOL0     H39275   1.666   8.408   6.789  0.2394  0.4232  1.3237
  291MOL0     H39276   1.818   8.494   6.799 -0.7374 -0.1570  3.0518
  291MOL0     H39277   1.850   8.372   6.983  0.4541  3.1501 -2.6256
  291MOL0     H39278   1.937   8.287   6.856 -0.4455 -3.0042 -0.0629
  291MOL0     H39279   1.766   8.113   6.848  0.5775  0.7982 -0.2592
  291MOL0     H39280   1.818   8.123   7.005 -1.8855 -0.5273  1.1858
  291MOL0     H39281   1.431   8.241   7.089 -0.0551  3.3548 -2.2794
  291MOL0     H39282   1.735   8.235   6.419 -0.4708  0.7542 -0.7380
  291MOL0     H39283   1.789   8.012   6.186 -0.9713 -0.2786  0.2405
  291MOL0     H39284   1.668   8.113   6.267  0.3605  2.6948  0.9180
  291MOL0     H39285   1.716   8.155   6.101  0.6975  1.5474 -0.7903
  292MOL0     O39286   9.445   2.662   6.906 -0.1666  0.2473  0.3309
  292MOL0     C39287   9.372   2.685   6.806 -0.5666  0.3958  0.8465
  292MOL0     O39288   9.415   2.757   6.696  0.5343  0.4604  0.3335
  292MOL0     C39289   9.549   2.781   6.679  0.2628 -0.7151  0.8982
  292MOL0     C39290   9.662   2.706   6.718  0.0441 -0.9630 -0.2337
  292MOL0     C39291   9.781   2.735   6.666 -0.5644 -0.5840 -1.0390
  292MOL0     C39292   9.802   2.846   6.584 -0.6503  0.8859  0.1752
  292MOL0     O39293   9.927   2.875   6.534 -0.3226 -0.0287  0.5216
  292MOL0     C39294   9.945   2.992   6.444  0.7105 -0.2207  0.2292
  292MOL0     C39295  10.085   3.003   6.378  0.5457 -0.1635  1.0766
  292MOL0     C39296  10.194   3.089   6.444  0.2112 -0.3731  0.6626
  292MOL0     C39297  10.328   3.030   6.409 -0.1722  0.4827 -0.4671
  292MOL0     C39298  10.436   3.081   6.509  0.2746 -0.5591  0.1925
  292MOL0     C39299  10.571   3.054   6.444 -0.0278  0.1731  0.5543
  292MOL0     C39300  10.691   3.121   6.520 -0.1177  0.3972 -0.1096
  292MOL0     C39301  10.764   3.022   6.609 -0.3997 -0.5771  0.0676
  292MOL0     N39302  10.884   3.102   6.643 -0.7026  0.7219 -0.0407
  292MOL0     C39303  10.999   3.090   6.571  0.9447  0.0028  0.3056
  292MOL0     C39304  11.096   3.121   6.651  0.6523 -0.2797  0.0948
  292MOL0     C39305  11.236   3.134   6.615  0.0881  0.3961 -1.2722
  292MOL0     C39306  11.320   3.067   6.728  0.3177  0.3721 -0.1447
  292MOL0     C39307  11.284   2.917   6.742 -0.5249 -0.6673  0.5310
  292MOL0     C39308  11.390   2.843   6.829  0.0751  0.1962 -1.3714
  292MOL0     O39309  11.516   2.859   6.760 -0.2507  0.5549  0.0357
  292MOL0     C39310  11.630   2.799   6.816 -0.0353  0.1499  0.5090
  292MOL0     C39311  11.631   2.707   6.926  0.4979  0.4578  0.1471
  292MOL0     C39312  11.755   2.664   6.979  0.4564 -0.3313  0.0582
  292MOL0     C39313  11.882   2.708   6.926 -0.0863 -0.4307  0.6157
  292MOL0     C39314  12.011   2.659   6.980 -0.3906 -0.1720  0.4425
  292MOL0     O39315  12.125   2.727   6.933 -0.0505  0.5708 -0.2370
  292MOL0     C39316  12.246   2.685   6.971 -0.1751 -0.1168 -0.9807
  292MOL0     C39317  12.286   2.598   7.075  1.2677 -0.4515 -0.5344
  292MOL0     C39318  12.414   2.540   7.077 -0.0586  0.5065  0.7845
  292MOL0     C39319  12.520   2.580   6.980  0.6196  0.2955 -0.3996
  292MOL0     O39320  12.654   2.540   6.998 -0.1932 -0.0690  0.0713
  292MOL0     C39321  12.759   2.621   6.949  0.4960 -0.1707  0.4588
  292MOL0     C39322  12.880   2.542   6.986  0.7739 -0.0410  0.5056
  292MOL0     C39323  12.999   2.624   6.942 -0.0139 -0.7358  0.7444
  292MOL0     C39324  13.121   2.553   7.005 -0.5831  0.5524 -0.2122
  292MOL0     C39325  13.241   2.616   6.949  0.0866 -0.7233 -0.0081
  292MOL0     C39326  13.364   2.565   7.021 -0.7339 -0.2820  0.4835
  292MOL0     C39327  13.482   2.662   6.987  0.2445  0.0619  0.2194
  292MOL0     C39328  13.534   2.653   6.838  0.2311  0.2429 -0.2071
  292MOL0    Cl39329  13.698   2.746   6.828 -0.2466 -0.3348 -0.3175
  292MOL0     C39330  12.470   2.679   6.887  0.2881  0.3620 -0.1112
  292MOL0     C39331  12.337   2.731   6.880  1.5918  0.1896  0.4892
  292MOL0     O39332  12.007   2.579   7.070 -0.3676 -0.9398  0.1332
  292MOL0     C39333  11.875   2.792   6.815  0.8806  0.9130 -0.5261
  292MOL0     C39334  11.756   2.839   6.764 -0.3327  0.0389  0.0538
  292MOL0     N39335  11.038   3.170   6.770 -0.7494 -0.5067  0.0261
  292MOL0     N39336  10.911   3.156   6.765  0.2600 -1.1122  0.0728
  292MOL0     C39337   9.689   2.925   6.545  0.3685  0.2029 -0.5144
  292MOL0     C39338   9.562   2.892   6.596  0.2658  0.2703  0.2217
  292MOL0     C39339   9.233   2.633   6.825 -0.5994  0.3778  0.3910
  292MOL0     C39340   9.219   2.516   6.908  0.1072 -0.3129 -1.0809
  292MOL0     C39341   9.096   2.463   6.917  0.1033  0.2057  0.1980
  292MOL0     C39342   8.980   2.509   6.848 -0.2721 -0.5039  0.8659
  292MOL0     O39343   8.863   2.440   6.866 -0.1506 -0.0787  0.0178
  292MOL0     C39344   8.763   2.466   6.773 -0.2681  0.5135  0.5092
  292MOL0     C39345   8.632   2.409   6.829 -0.5079  0.3835  0.0478
  292MOL0     C39346   8.579   2.490   6.950  0.2831  0.2462  0.9077
  292MOL0     C39347   8.443   2.431   6.993  0.3667 -0.4582  1.0746
  292MOL0     C39348   8.391   2.475   7.127  0.0287 -0.0030 -0.0918
  292MOL0     C39349   8.335   2.507   7.233 -0.7792 -0.7468 -1.1570
  292MOL0     C39350   9.000   2.612   6.763 -0.8156 -0.0826 -0.1049
  292MOL0     C39351   9.121   2.685   6.756  0.4457 -0.9340  1.2129
  292MOL0     C39352   9.119   2.815   6.684  1.2030 -0.3981  0.2772
  292MOL0     H39353   9.643   2.621   6.783  0.0513  0.1880  1.3202
  292MOL0     H39354   9.863   2.677   6.706  1.3718  1.7950 -1.3445
  292MOL0     H39355   9.878   2.985   6.359  1.6649  1.0542 -0.6684
  292MOL0     H39356   9.913   3.082   6.498  0.5104  0.3694 -0.8558
  292MOL0     H39357  10.067   3.046   6.279  1.1430 -1.2764  0.4694
  292MOL0     H39358  10.121   2.902   6.354  1.3645  0.8052 -2.4055
  292MOL0     H39359  10.176   3.091   6.551  0.4015 -2.2588  0.7593
  292MOL0     H39360  10.190   3.194   6.412 -1.0823 -0.3588  0.8502
  292MOL0     H39361  10.332   2.921   6.406  0.2187  0.5100 -1.0385
  292MOL0     H39362  10.356   3.068   6.310 -1.0684 -0.4503 -1.0955
  292MOL0     H39363  10.420   3.189   6.522  2.4779 -0.1356 -0.2301
  292MOL0     H39364  10.430   3.042   6.611 -3.6442  0.6070  0.5850
  292MOL0     H39365  10.601   2.949   6.438 -1.3369 -0.1817  0.0539
  292MOL0     H39366  10.587   3.103   6.347  1.9537  0.6170  1.0562
  292MOL0     H39367  10.656   3.213   6.568  0.7217  0.0244  1.2637
  292MOL0     H39368  10.760   3.158   6.444 -0.0631 -0.4216 -0.4784
  292MOL0     H39369  10.708   2.994   6.699 -1.4112 -2.6749 -1.1496
  292MOL0     H39370  10.791   2.926   6.566  0.1865 -1.0664  1.4715
  292MOL0     H39371  11.025   3.051   6.473  0.1808  0.1499  0.0410
  292MOL0     H39372  11.257   3.078   6.524 -1.7532  0.0456 -1.5195
  292MOL0     H39373  11.274   3.233   6.589  0.6675  0.4203 -0.3670
  292MOL0     H39374  11.422   3.067   6.689 -0.1069 -1.5973 -1.4408
  292MOL0     H39375  11.307   3.110   6.828 -1.4950 -0.9980  0.2659
  292MOL0     H39376  11.280   2.873   6.642 -0.1131 -3.6415  1.7046
  292MOL0     H39377  11.187   2.902   6.792  0.7079 -1.3485  2.8478
  292MOL0     H39378  11.371   2.736   6.841  0.7652  0.4053  4.2704
  292MOL0     H39379  11.393   2.891   6.927  0.8934  1.4833 -1.9948
  292MOL0     H39380  11.538   2.673   6.969 -1.7341  2.5411 -2.6762
  292MOL0     H39381  11.751   2.589   7.057 -0.5442 -0.6460 -0.2779
  292MOL0     H39382  12.222   2.555   7.152  2.7659 -0.0021  1.0376
  292MOL0     H39383  12.440   2.453   7.136 -1.9129 -0.9247 -0.3891
  292MOL0     H39384  12.761   2.638   6.841 -1.3883  0.6962  0.5282
  292MOL0     H39385  12.759   2.718   6.999 -0.1682  0.3789 -0.5722
  292MOL0     H39386  12.878   2.533   7.095  1.3407 -1.9272  0.3838
  292MOL0     H39387  12.880   2.447   6.932  0.2953  0.6683 -0.8002
  292MOL0     H39388  13.003   2.614   6.833 -0.2670 -0.7772  0.7393
  292MOL0     H39389  12.990   2.733   6.948 -1.1273 -0.4309 -3.1888
  292MOL0     H39390  13.124   2.446   6.982 -0.6647  0.5202 -0.0753
  292MOL0     H39391  13.117   2.557   7.114  0.4520 -0.2326 -0.1257
  292MOL0     H39392  13.229   2.723   6.971 -1.0951 -1.4695  3.5862
  292MOL0     H39393  13.246   2.600   6.841 -0.5885  0.2571 -0.2054
  292MOL0     H39394  13.349   2.568   7.129  2.3667 -0.6870  1.0076
  292MOL0     H39395  13.402   2.467   6.993  0.0027  0.1174  0.0433
  292MOL0     H39396  13.578   2.648   7.038  1.6086 -1.6824 -2.5936
  292MOL0     H39397  13.442   2.760   7.016 -1.0975 -0.6704  0.9307
  292MOL0     H39398  13.547   2.547   6.812 -0.3621  0.7259 -2.7791
  292MOL0     H39399  13.455   2.683   6.769 -0.9309 -0.3668  0.8249
  292MOL0     H39400  12.547   2.721   6.823 -0.0125  2.6635  0.9182
  292MOL0     H39401  12.309   2.811   6.813  1.0452 -1.0560 -0.8343
  292MOL0     H39402  11.966   2.823   6.766  1.4381 -1.4675 -1.1198
  292MOL0     H39403  11.767   2.913   6.685 -2.4292 -1.7065 -1.9941
  292MOL0     H39404   9.691   3.012   6.481  0.9969 -0.8640 -2.0064
  292MOL0     H39405   9.481   2.953   6.560  0.5644  0.4021 -0.2353
  292MOL0     H39406   9.305   2.472   6.957 -1.8379 -0.0800  2.9918
  292MOL0     H39407   9.083   2.379   6.985 -0.9138  0.4145  0.2792
  292MOL0     H39408   8.785   2.427   6.673 -0.8946 -0.0387  0.5861
  292MOL0     H39409   8.749   2.574   6.762 -1.3329  0.4366  1.0230
  292MOL0     H39410   8.647   2.301   6.841 -0.3301  0.4636  0.5595
  292MOL0     H39411   8.562   2.422   6.747  0.0609 -0.0019 -0.5121
  292MOL0     H39412   8.581   2.595   6.916  1.8471 -0.0140  0.1094
  292MOL0     H39413   8.651   2.472   7.030  2.2339  2.3031 -0.2437
  292MOL0     H39414   8.365   2.446   6.918  0.9311 -1.3017  0.2843
  292MOL0     H39415   8.466   2.324   6.988  1.8879 -0.1291 -2.8014
  292MOL0     H39416   8.280   2.545   7.316  0.3807 -0.2846 -0.5660
  292MOL0     H39417   8.926   2.655   6.697  0.5050  2.4344 -0.0804
  292MOL0     H39418   9.203   2.836   6.616 -0.3781  2.8503 -0.8570
  292MOL0     H39419   9.022   2.840   6.641  1.4826  0.9205  0.3715
  292MOL0     H39420   9.131   2.882   6.769  1.2071 -0.7312  0.5418
  293MOL0     O39421   1.658  10.314   6.619 -0.1661  0.5702 -0.7767
  293MOL0     C39422   1.720  10.331   6.517 -1.0239  1.2753  1.4923
  293MOL0     O39423   1.659  10.334   6.400  0.2713 -0.5102  0.7285
  293MOL0     C39424   1.524  10.323   6.384 -0.1246  0.2558 -0.8736
  293MOL0     C39425   1.470  10.227   6.295  0.2784 -0.6623 -0.9376
  293MOL0     C39426   1.334  10.219   6.275  0.2595 -0.1112  0.5092
  293MOL0     C39427   1.244  10.320   6.330  0.1250  0.2076  0.4010
  293MOL0     O39428   1.108  10.323   6.301  0.1200 -0.1083  0.2382
  293MOL0     C39429   1.062  10.413   6.203 -0.4864 -0.0803  0.0366
  293MOL0     C39430   1.058  10.348   6.064  0.0294  0.0735  0.0466
  293MOL0     C39431   0.945  10.234   6.052  0.3968 -0.0578 -0.0994
  293MOL0     C39432   0.918  10.186   5.910  0.2656 -0.3991  0.2979
  293MOL0     C39433   0.854  10.286   5.807  0.2277 -1.0977  0.6937
  293MOL0     C39434   0.704  10.321   5.818  0.1792 -0.4009 -0.5619
  293MOL0     C39435   0.621  10.350   5.680 -0.3522 -0.4971 -0.1386
  293MOL0     C39436   0.481  10.312   5.718 -0.0871 -0.6653 -0.5977
  293MOL0     N39437   0.470  10.167   5.719 -0.1036  0.0917 -0.9422
  293MOL0     C39438   0.455  10.077   5.618  0.1671 -0.2111  0.7135
  293MOL0     C39439   0.445   9.953   5.670  0.0021  0.1204  0.3159
  293MOL0     C39440   0.453   9.825   5.592  0.6331  0.1747 -0.0407
  293MOL0     C39441   0.464   9.697   5.683  0.2495 -0.0949  0.4942
  293MOL0     C39442   0.452   9.556   5.610 -0.5829  0.3195 -0.8152
  293MOL0     C39443   0.299   9.520   5.592 -0.4056  0.1875  0.6440
  293MOL0     O39444   0.236   9.526   5.732  0.6495  0.4349  0.0360
  293MOL0     C39445   0.106   9.478   5.757  0.8853  0.2130 -0.6395
  293MOL0     C39446   0.031   9.409   5.656 -0.1364  0.6323 -1.0518
  293MOL0     C39447  -0.089   9.351   5.694 -0.0959 -0.4751 -0.0841
  293MOL0     C39448  -0.142   9.364   5.823  1.0353 -0.0947  0.7435
  293MOL0     C39449  -0.278   9.303   5.849 -0.1330  0.3112 -0.1494
  293MOL0     O39450  -0.323   9.291   5.976 -0.8145 -0.3724 -0.4706
  293MOL0     C39451  -0.448   9.242   6.002  0.5308 -0.3280  0.0913
  293MOL0     C39452  -0.493   9.124   5.953  0.7686  0.5593  0.5869
  293MOL0     C39453  -0.617   9.078   5.986  1.0049 -0.1802  0.9809
  293MOL0     C39454  -0.704   9.162   6.063 -0.0355 -0.3413  0.6828
  293MOL0     O39455  -0.836   9.132   6.098 -0.2548 -0.0881 -0.3033
  293MOL0     C39456  -0.868   8.991   6.105 -1.2323 -0.9276 -0.1158
  293MOL0     C39457  -1.016   8.969   6.126  0.8275  0.5064 -0.1472
  293MOL0     C39458  -1.033   8.812   6.118  0.2183 -0.5547 -0.8977
  293MOL0     C39459  -1.172   8.779   6.159 -0.3522  0.3824  0.3240
  293MOL0     C39460  -1.188   8.631   6.160  0.7513  0.2766  0.3351
  293MOL0     C39461  -1.342   8.599   6.206  0.8694  0.5012  0.0676
  293MOL0     C39462  -1.378   8.625   6.348 -0.9456 -0.1751  0.0138
  293MOL0     C39463  -1.519   8.573   6.383 -0.4701  0.7568 -0.4084
  293MOL0    Cl39464  -1.586   8.628   6.539  0.3890  0.3467 -0.0376
  293MOL0     C39465  -0.652   9.279   6.114 -0.5469 -0.2614 -0.0659
  293MOL0     C39466  -0.529   9.329   6.079 -0.0878 -0.1034 -0.8345
  293MOL0     O39467  -0.338   9.265   5.752 -0.8167  0.1957 -0.8796
  293MOL0     C39468  -0.076   9.441   5.922 -0.3447 -0.2929 -0.3076
  293MOL0     C39469   0.050   9.491   5.882  0.6100  0.1758 -0.1132
  293MOL0     N39470   0.459   9.971   5.809  0.2923 -0.1195  1.2350
  293MOL0     N39471   0.468  10.099   5.838  0.6862  0.0674 -0.1359
  293MOL0     C39472   1.302  10.419   6.420 -0.4055  0.6628  0.0408
  293MOL0     C39473   1.440  10.419   6.443  0.5124 -0.6656 -0.4062
  293MOL0     C39474   1.867  10.326   6.526 -0.1743  0.0466 -0.0896
  293MOL0     C39475   1.924  10.258   6.632 -0.2190 -1.3154  0.3776
  293MOL0     C39476   2.062  10.247   6.649 -0.3092  1.4428  0.4350
  293MOL0     C39477   2.144  10.289   6.549 -0.5526 -0.1264  1.2911
  293MOL0     O39478   2.277  10.287   6.562  0.5456  0.5850  0.2147
  293MOL0     C39479   2.345  10.218   6.664 -0.1605  0.1797 -0.2694
  293MOL0     C39480   2.491  10.212   6.637  0.4045  0.4751  0.2603
  293MOL0     C39481   2.509  10.107   6.513 -0.0009  0.2805 -0.0575
  293MOL0     C39482   2.660  10.072   6.495  0.1484  0.0700 -0.1076
  293MOL0     C39483   2.748  10.190   6.484  0.3690 -0.3888 -0.6074
  293MOL0     C39484   2.840  10.264   6.463  0.1766  0.4501 -0.2182
  293MOL0     C39485   2.094  10.357   6.436  0.0788  0.1730 -0.4173
  293MOL0     C39486   1.959  10.385   6.430 -0.2213  0.1081  0.5468
  293MOL0     C39487   1.914  10.479   6.310  0.2667 -0.7818 -0.4526
  293MOL0     H39488   1.545  10.162   6.251 -0.8625 -0.9944 -2.5006
  293MOL0     H39489   1.294  10.151   6.201 -0.5377  2.0471 -1.1652
  293MOL0     H39490   0.965  10.457   6.231 -1.1559 -1.5247  0.0923
  293MOL0     H39491   1.122  10.504   6.204 -1.8048  0.8140  0.4751
  293MOL0     H39492   1.157  10.303   6.049  0.2786  0.1853  1.2668
  293MOL0     H39493   1.034  10.428   5.993  1.7587  1.4052  0.8993
  293MOL0     H39494   0.852  10.263   6.101  0.2809 -2.9939  1.6032
  293MOL0     H39495   0.986  10.147   6.104 -0.1750 -1.5993 -2.1318
  293MOL0     H39496   1.009  10.163   5.853  0.2346  3.2078 -1.4894
  293MOL0     H39497   0.853  10.099   5.921 -1.4966  0.7322 -0.7534
  293MOL0     H39498   0.905  10.383   5.813  1.0041 -1.3571 -1.0338
  293MOL0     H39499   0.874  10.252   5.705 -1.8296 -0.4320  0.0149
  293MOL0     H39500   0.661  10.239   5.877  1.7085 -0.7168  0.1767
  293MOL0     H39501   0.701  10.394   5.899  1.6915 -1.2480  0.3176
  293MOL0     H39502   0.652  10.290   5.593 -0.2978  0.1000 -0.5396
  293MOL0     H39503   0.639  10.457   5.663 -2.1508 -0.3495 -1.3480
  293MOL0     H39504   0.459  10.359   5.814  0.1150  0.8143 -1.2538
  293MOL0     H39505   0.416  10.345   5.637 -0.5129  2.7318  0.9536
  293MOL0     H39506   0.455  10.113   5.515  1.4302  1.6491  1.3148
  293MOL0     H39507   0.367   9.808   5.526 -0.6811 -1.9257  2.0287
  293MOL0     H39508   0.539   9.834   5.525  0.1546 -2.9196 -1.2493
  293MOL0     H39509   0.565   9.699   5.724 -0.0251 -0.3860  1.1986
  293MOL0     H39510   0.402   9.702   5.773 -0.3679  3.9530  0.0196
  293MOL0     H39511   0.513   9.485   5.666  1.4256  1.6664 -1.2105
  293MOL0     H39512   0.508   9.550   5.516 -2.0115 -3.5452 -1.6166
  293MOL0     H39513   0.291   9.419   5.553 -0.7750 -0.1815  1.6453
  293MOL0     H39514   0.245   9.593   5.530 -0.9282  0.5513  1.5032
  293MOL0     H39515   0.078   9.420   5.559  2.6405  0.3086  0.1605
  293MOL0     H39516  -0.143   9.298   5.616  0.4621  0.1780 -0.9418
  293MOL0     H39517  -0.424   9.063   5.896 -2.0797 -1.4726 -0.8930
  293MOL0     H39518  -0.647   8.983   5.941  5.1434 -1.3215  0.2019
  293MOL0     H39519  -0.851   8.930   6.016 -0.4638 -1.0344  0.1033
  293MOL0     H39520  -0.812   8.953   6.191 -2.9206 -0.3119  1.3142
  293MOL0     H39521  -1.041   9.008   6.225 -2.1131 -1.3155 -0.0474
  293MOL0     H39522  -1.060   9.023   6.041  0.0154  4.0235  2.2679
  293MOL0     H39523  -1.006   8.782   6.017  0.6406 -3.8176  0.0811
  293MOL0     H39524  -0.963   8.771   6.192 -2.5557 -1.5600  1.3612
  293MOL0     H39525  -1.239   8.817   6.081  0.7711  1.3302 -0.2186
  293MOL0     H39526  -1.199   8.826   6.253  1.3300 -3.2274  2.8386
  293MOL0     H39527  -1.118   8.581   6.228  1.1692 -2.3483 -1.8728
  293MOL0     H39528  -1.166   8.590   6.061 -0.6204 -0.0193  0.1271
  293MOL0     H39529  -1.404   8.667   6.147  1.2955  0.3669 -0.5500
  293MOL0     H39530  -1.360   8.496   6.174  0.2869  0.1777  1.3719
  293MOL0     H39531  -1.382   8.734   6.354  1.7314 -0.0249  0.2981
  293MOL0     H39532  -1.302   8.597   6.421 -0.0694 -0.5346 -1.0128
  293MOL0     H39533  -1.587   8.604   6.303 -1.4680  1.6532  0.7630
  293MOL0     H39534  -1.512   8.464   6.385 -5.1557  0.2856  1.4024
  293MOL0     H39535  -0.714   9.337   6.182 -0.0806  0.8767 -0.5787
  293MOL0     H39536  -0.497   9.430   6.101 -1.1146  0.0087  0.3044
  293MOL0     H39537  -0.102   9.459   6.025 -2.1321  0.9751 -0.9333
  293MOL0     H39538   0.110   9.554   5.947 -0.7370  1.2343  0.1571
  293MOL0     H39539   1.243  10.474   6.492 -0.5405  0.4069  0.1261
  293MOL0     H39540   1.483  10.497   6.505  0.7802 -1.4113  0.3768
  293MOL0     H39541   1.857  10.213   6.705 -1.3090 -1.6819 -0.8220
  293MOL0     H39542   2.094  10.187   6.734 -1.8183  0.2172  0.1793
  293MOL0     H39543   2.296  10.122   6.679 -0.4469  0.3697  0.0362
  293MOL0     H39544   2.329  10.274   6.757  0.6367 -2.6251  1.6924
  293MOL0     H39545   2.551  10.190   6.726  2.8417  2.0520 -0.8923
  293MOL0     H39546   2.531  10.307   6.600 -3.0947  1.7051 -0.7322
  293MOL0     H39547   2.460  10.142   6.421  1.6919  1.2700 -0.6237
  293MOL0     H39548   2.464  10.011   6.543 -0.4267  0.7751  0.9272
  293MOL0     H39549   2.703  10.022   6.582  5.0346  0.5217 -1.9367
  293MOL0     H39550   2.669   9.996   6.417 -1.6827 -1.1415  0.8212
  293MOL0     H39551   2.904  10.342   6.428  1.9311 -1.1519 -0.7683
  293MOL0     H39552   2.147  10.406   6.355  0.3881 -0.0859 -0.3720
  293MOL0     H39553   1.942  10.453   6.207 -3.3398  2.3011 -2.4874
  293MOL0     H39554   1.805  10.490   6.302  0.5175  1.2718 -1.9978
  293MOL0     H39555   1.955  10.580   6.315 -0.7536 -0.1063 -3.3029
  294MOL0     O39556   1.862   6.091   7.759 -1.0899 -0.4510  0.0460
  294MOL0     C39557   1.897   6.207   7.776 -0.8758 -0.3931  0.4862
  294MOL0     O39558   1.964   6.261   7.889  0.4077  0.1298 -0.0859
  294MOL0     C39559   1.980   6.175   7.991 -0.7455  0.2495  0.2301
  294MOL0     C39560   2.110   6.122   8.022  0.2357  0.5539 -0.6619
  294MOL0     C39561   2.133   6.031   8.123  0.5820  0.1017 -0.2478
  294MOL0     C39562   2.020   5.976   8.187 -0.3857 -0.2353 -0.4486
  294MOL0     O39563   2.047   5.884   8.277 -0.0366  0.5778 -0.2878
  294MOL0     C39564   1.957   5.778   8.307  0.4276 -0.5821  0.9623
  294MOL0     C39565   2.004   5.689   8.415 -0.1240 -0.3787  0.0131
  294MOL0     C39566   2.147   5.652   8.406 -0.4076 -0.3451  0.7640
  294MOL0     C39567   2.183   5.568   8.277  0.7332 -0.3619 -0.1415
  294MOL0     C39568   2.298   5.475   8.293 -0.3901  0.1032  0.4880
  294MOL0     C39569   2.430   5.533   8.242 -0.9020  0.2936 -0.0399
  294MOL0     C39570   2.562   5.451   8.262  0.6388 -0.7855 -0.2028
  294MOL0     C39571   2.665   5.520   8.182 -1.0314 -0.2932  0.5124
  294MOL0     N39572   2.794   5.445   8.201 -0.1113  0.1999 -0.2353
  294MOL0     C39573   2.918   5.501   8.176  0.5372 -0.6229 -1.0839
  294MOL0     C39574   3.000   5.394   8.161 -0.4035 -0.2406 -1.0015
  294MOL0     C39575   3.144   5.400   8.101 -0.1117  0.0278  0.5834
  294MOL0     C39576   3.249   5.298   8.153  1.1476 -0.1587 -0.3105
  294MOL0     C39577   3.392   5.311   8.085 -1.0146  1.2902 -0.3789
  294MOL0     C39578   3.478   5.183   8.114 -0.6097  0.3108 -0.4451
  294MOL0     O39579   3.611   5.202   8.074 -0.6490 -0.0309  0.3546
  294MOL0     C39580   3.701   5.101   8.109  0.4760  0.6963  0.8134
  294MOL0     C39581   3.842   5.117   8.075  0.7643 -1.0942  0.8272
  294MOL0     C39582   3.944   5.027   8.113  0.1471 -0.8016  0.2681
  294MOL0     C39583   3.911   4.918   8.194  0.7190 -0.4609  0.9503
  294MOL0     C39584   4.012   4.823   8.241 -0.0239 -0.1512 -0.3773
  294MOL0     O39585   3.979   4.704   8.286 -0.4352  0.6377 -0.0134
  294MOL0     C39586   4.081   4.621   8.321  0.1829 -0.9157  0.8051
  294MOL0     C39587   4.129   4.587   8.443  0.8513 -0.4796 -0.2394
  294MOL0     C39588   4.225   4.487   8.470 -0.7775  0.4234  0.4503
  294MOL0     C39589   4.293   4.429   8.355  0.4651  0.0712  0.3840
  294MOL0     O39590   4.392   4.334   8.360  0.4347  0.2891  0.7765
  294MOL0     C39591   4.507   4.355   8.428 -0.0360 -0.1037 -0.6295
  294MOL0     C39592   4.530   4.223   8.494 -0.5043  0.7185  0.4083
  294MOL0     C39593   4.644   4.267   8.599 -0.4048  0.6108  1.0864
  294MOL0     C39594   4.702   4.126   8.640 -0.6115 -0.3713 -0.1099
  294MOL0     C39595   4.825   4.152   8.729  0.2098 -0.9359  0.1636
  294MOL0     C39596   4.792   4.188   8.884 -0.7493 -0.0337  1.6864
  294MOL0     C39597   4.916   4.212   8.970 -0.0002 -0.6861  1.6209
  294MOL0     C39598   4.955   4.097   9.060 -0.8909 -0.0407 -0.8627
  294MOL0    Cl39599   4.983   3.944   8.977  0.3367  0.3864 -0.0102
  294MOL0     C39600   4.231   4.456   8.231  0.7180  0.3734  0.6785
  294MOL0     C39601   4.125   4.548   8.218 -0.5547  1.2916  0.5445
  294MOL0     O39602   4.128   4.866   8.237 -0.2354 -0.0962 -0.1375
  294MOL0     C39603   3.773   4.905   8.227  0.3816 -0.0661  0.2109
  294MOL0     C39604   3.672   4.993   8.187 -0.4122 -0.8899 -0.3295
  294MOL0     N39605   2.930   5.278   8.198  0.5706  0.0357  0.5481
  294MOL0     N39606   2.811   5.303   8.226 -0.5038  0.2444  0.5199
  294MOL0     C39607   1.891   6.011   8.147  0.1450  1.1417 -0.6274
  294MOL0     C39608   1.874   6.110   8.056  1.0832  0.1507 -1.0050
  294MOL0     C39609   1.862   6.315   7.669 -1.2588 -0.1239 -0.7605
  294MOL0     C39610   1.867   6.453   7.723 -0.4925 -0.5497  0.3171
  294MOL0     C39611   1.826   6.548   7.633 -0.2094 -0.5683  0.9538
  294MOL0     C39612   1.791   6.521   7.502 -0.3988 -0.4558 -0.1215
  294MOL0     O39613   1.750   6.623   7.428  1.0879 -0.3831  0.3619
  294MOL0     C39614   1.632   6.611   7.345  0.9345 -0.1857 -0.0745
  294MOL0     C39615   1.514   6.682   7.412  0.4224  0.4937 -0.4429
  294MOL0     C39616   1.438   6.603   7.521  0.4938 -0.3337 -0.3330
  294MOL0     C39617   1.317   6.526   7.478 -0.0275  0.6583  1.0433
  294MOL0     C39618   1.196   6.595   7.441 -0.3559 -0.6544 -0.9425
  294MOL0     C39619   1.092   6.656   7.406 -0.5524 -0.7893 -1.0468
  294MOL0     C39620   1.801   6.395   7.451 -0.2050  0.1198 -0.2262
  294MOL0     C39621   1.841   6.280   7.532  0.3333 -0.3115  0.1572
  294MOL0     C39622   1.829   6.144   7.471 -0.4245  0.4274  0.8998
  294MOL0     H39623   2.194   6.170   7.973  0.0577  1.5195 -0.0382
  294MOL0     H39624   2.234   6.003   8.149  0.2426 -2.2800 -1.2704
  294MOL0     H39625   1.859   5.821   8.327  0.2577 -0.3410 -0.2772
  294MOL0     H39626   1.931   5.727   8.214 -0.7569  3.5032 -1.1815
  294MOL0     H39627   1.947   5.595   8.407 -2.3068  0.2685  4.5388
  294MOL0     H39628   1.985   5.733   8.513 -1.7835  0.7963 -0.7835
  294MOL0     H39629   2.167   5.589   8.493 -1.2233 -2.6651 -0.6474
  294MOL0     H39630   2.216   5.737   8.405 -1.9403  0.9784 -1.1397
  294MOL0     H39631   2.091   5.511   8.260  0.4645 -0.9233  2.7841
  294MOL0     H39632   2.200   5.627   8.186 -1.6816  0.5241 -0.0835
  294MOL0     H39633   2.320   5.433   8.392  1.0625 -3.8516 -1.3236
  294MOL0     H39634   2.281   5.385   8.234 -0.4488 -0.0113  0.6800
  294MOL0     H39635   2.428   5.538   8.133  0.4525  0.5294 -0.0688
  294MOL0     H39636   2.438   5.633   8.287 -1.0585  0.6135 -0.7053
  294MOL0     H39637   2.544   5.349   8.225 -3.6836 -0.5639  0.6786
  294MOL0     H39638   2.594   5.446   8.366  3.0294  1.3175 -0.7693
  294MOL0     H39639   2.654   5.514   8.073  2.5393  0.4942  0.0097
  294MOL0     H39640   2.684   5.625   8.204  4.4002 -0.4095 -2.1508
  294MOL0     H39641   2.941   5.604   8.151  2.4276 -1.0166 -1.1138
  294MOL0     H39642   3.144   5.394   7.992 -1.2598  0.2586  0.5509
  294MOL0     H39643   3.187   5.498   8.124  0.0301  0.1253 -0.0740
  294MOL0     H39644   3.255   5.314   8.261  2.0153  0.2413 -0.4075
  294MOL0     H39645   3.219   5.194   8.137 -0.5189  0.5415 -1.9344
  294MOL0     H39646   3.447   5.395   8.127  0.2606  0.4139 -0.2651
  294MOL0     H39647   3.395   5.316   7.976 -0.1170  1.7067 -0.3421
  294MOL0     H39648   3.438   5.093   8.067  0.4113  0.0469 -0.8289
  294MOL0     H39649   3.468   5.172   8.222 -2.8240 -1.4612 -0.7661
  294MOL0     H39650   3.859   5.206   8.016 -1.1225 -1.3171 -0.1528
  294MOL0     H39651   4.041   5.047   8.068  0.0386 -0.5940  0.1206
  294MOL0     H39652   4.093   4.636   8.533  0.2062 -1.0544 -0.1792
  294MOL0     H39653   4.247   4.460   8.573 -1.2603  1.5646  0.8653
  294MOL0     H39654   4.587   4.381   8.358  1.5119 -0.7496  0.8506
  294MOL0     H39655   4.493   4.434   8.502  0.6518  0.8895 -1.5199
  294MOL0     H39656   4.442   4.195   8.552 -0.0005  0.9848  1.3214
  294MOL0     H39657   4.559   4.144   8.425 -0.6377  0.9450  0.0884
  294MOL0     H39658   4.728   4.319   8.551  2.2812 -3.2843  1.0658
  294MOL0     H39659   4.597   4.326   8.678 -0.2676  2.6338 -0.2584
  294MOL0     H39660   4.740   4.070   8.554 -1.9034  0.1310 -1.0412
  294MOL0     H39661   4.630   4.069   8.699  0.6926 -5.2235 -2.6841
  294MOL0     H39662   4.877   4.228   8.669 -3.5165  1.5151 -0.3023
  294MOL0     H39663   4.897   4.070   8.732  1.5715  0.2500  0.8276
  294MOL0     H39664   4.736   4.283   8.884 -1.2386 -0.3015  0.4913
  294MOL0     H39665   4.733   4.106   8.927 -1.0390  0.7391  2.8198
  294MOL0     H39666   4.907   4.306   9.025  1.4142  0.6692 -0.2981
  294MOL0     H39667   5.001   4.240   8.906 -1.7894  2.9955  0.5255
  294MOL0     H39668   5.057   4.119   9.093 -1.1275  1.1103 -0.8656
  294MOL0     H39669   4.893   4.095   9.151  0.3842 -0.9325  0.0200
  294MOL0     H39670   4.259   4.406   8.139 -1.2112 -0.7048  0.6131
  294MOL0     H39671   4.090   4.556   8.116  2.9069  0.0529 -0.8590
  294MOL0     H39672   3.744   4.835   8.304  0.5413 -0.6334 -0.2408
  294MOL0     H39673   3.571   4.976   8.223 -0.9831  2.5857  0.0944
  294MOL0     H39674   1.800   5.974   8.194  1.9728 -2.6450  0.3223
  294MOL0     H39675   1.772   6.131   8.025  1.0401 -0.3055 -1.1743
  294MOL0     H39676   1.899   6.475   7.824  2.0008 -0.9314 -0.3353
  294MOL0     H39677   1.815   6.651   7.666  1.0312  0.4458 -1.5448
  294MOL0     H39678   1.602   6.510   7.316  0.0825  0.0157  0.0911
  294MOL0     H39679   1.650   6.665   7.251  2.8282  0.6293  0.6968
  294MOL0     H39680   1.432   6.716   7.348  0.5485  1.1208 -0.2745
  294MOL0     H39681   1.554   6.777   7.448  0.7902  0.8651 -1.8126
  294MOL0     H39682   1.410   6.663   7.608  2.7377  1.3873 -0.7006
  294MOL0     H39683   1.497   6.521   7.562 -1.7290 -3.2853 -2.6099
  294MOL0     H39684   1.355   6.472   7.392 -0.9849 -1.2865  1.7763
  294MOL0     H39685   1.279   6.461   7.557  1.6184 -3.4776 -1.3070
  294MOL0     H39686   0.998   6.706   7.396  0.8992  2.5236  0.5267
  294MOL0     H39687   1.791   6.381   7.344 -2.6971 -0.7123  0.0536
  294MOL0     H39688   1.839   6.131   7.363 -2.4660 -3.6266  1.0100
  294MOL0     H39689   1.914   6.084   7.506  0.0099  1.4854  1.7527
  294MOL0     H39690   1.738   6.094   7.506 -0.7072 -0.3338 -0.8349
  295MOL0     O39691  10.212   3.440   5.150  0.0378 -0.0785 -0.3107
  295MOL0     C39692  10.121   3.505   5.201 -0.0948 -0.4852 -0.1306
  295MOL0     O39693  10.135   3.600   5.300  0.0522 -0.3771 -0.5382
  295MOL0     C39694  10.257   3.634   5.334  0.3191 -0.5178 -0.3654
  295MOL0     C39695  10.331   3.546   5.411  0.4958  0.3769 -0.3003
  295MOL0     C39696  10.471   3.559   5.424  0.0953 -0.4197  0.0012
  295MOL0     C39697  10.527   3.678   5.382 -0.1078 -0.2393 -0.4922
  295MOL0     O39698  10.660   3.708   5.367  0.0048  0.1485  0.5026
  295MOL0     C39699  10.752   3.596   5.351  0.1893 -0.2130  0.2824
  295MOL0     C39700  10.896   3.632   5.353 -0.0491  0.2019 -0.6072
  295MOL0     C39701  10.931   3.751   5.263 -1.0101 -0.6156 -0.0388
  295MOL0     C39702  11.078   3.747   5.192 -0.0328 -0.1823 -0.5325
  295MOL0     C39703  11.175   3.833   5.277  0.3067 -0.2376 -0.9096
  295MOL0     C39704  11.217   3.760   5.410  0.1896  1.0047  0.3911
  295MOL0     C39705  11.286   3.861   5.511  0.0708 -0.6316  0.1113
  295MOL0     C39706  11.291   3.807   5.648  0.3263 -0.1625  0.1272
  295MOL0     N39707  11.394   3.700   5.666  0.0204 -0.0425  0.4475
  295MOL0     C39708  11.348   3.571   5.664  0.1988 -0.0707  0.0198
  295MOL0     C39709  11.455   3.499   5.711  0.2027 -0.6439  0.4653
  295MOL0     C39710  11.465   3.356   5.744  0.7403 -0.8053 -0.2977
  295MOL0     C39711  11.403   3.307   5.876  0.6787 -0.2700 -0.6804
  295MOL0     C39712  11.435   3.157   5.894  0.8109 -0.0494 -0.4248
  295MOL0     C39713  11.576   3.114   5.863 -0.6107 -0.1957 -0.3921
  295MOL0     O39714  11.591   2.986   5.927 -0.0774 -0.3822  0.0212
  295MOL0     C39715  11.713   2.929   5.953 -1.0989 -0.5981  0.7495
  295MOL0     C39716  11.722   2.801   6.007 -0.3638  0.4539 -0.5146
  295MOL0     C39717  11.834   2.726   6.024 -1.1919  0.3078 -0.5444
  295MOL0     C39718  11.955   2.791   6.001  0.6196 -0.1868  0.7811
  295MOL0     C39719  12.087   2.717   6.036  0.2087 -0.4692  1.5531
  295MOL0     O39720  12.084   2.588   6.079 -0.0385  0.4749  0.5751
  295MOL0     C39721  12.201   2.528   6.100  0.5425  0.2942 -0.0574
  295MOL0     C39722  12.224   2.476   6.239 -0.4017  0.4319  0.3818
  295MOL0     C39723  12.345   2.419   6.267 -0.4213 -0.0959 -0.2997
  295MOL0     C39724  12.429   2.386   6.163 -0.7012  0.2731  0.8151
  295MOL0     O39725  12.542   2.311   6.185 -0.9329  0.2347  0.1309
  295MOL0     C39726  12.620   2.352   6.293  0.0537  0.3988  0.7282
  295MOL0     C39727  12.770   2.288   6.281  0.3331 -0.5484  0.6429
  295MOL0     C39728  12.761   2.134   6.303 -0.6123 -0.0821 -0.3676
  295MOL0     C39729  12.885   2.062   6.273 -0.6635 -0.1483 -0.0974
  295MOL0     C39730  12.966   2.065   6.401  0.1147  0.4043 -0.1459
  295MOL0     C39731  13.080   1.963   6.378 -0.5978  0.3961 -0.4323
  295MOL0     C39732  13.195   1.984   6.479  0.4961  0.1582 -0.4784
  295MOL0     C39733  13.295   1.869   6.491 -0.1252 -0.4714 -1.0618
  295MOL0    Cl39734  13.219   1.698   6.541 -0.1047 -0.1844  0.4047
  295MOL0     C39735  12.410   2.433   6.034 -0.7347  0.5521  0.1348
  295MOL0     C39736  12.295   2.511   6.003 -0.0146 -0.4355 -0.3747
  295MOL0     O39737  12.185   2.785   6.018 -0.1768 -0.7124  0.0324
  295MOL0     C39738  11.960   2.924   5.947  0.5853  0.3732 -0.3191
  295MOL0     C39739  11.837   2.993   5.926 -0.5661  0.3251  0.0506
  295MOL0     N39740  11.558   3.588   5.740 -0.1509 -0.3123 -0.4899
  295MOL0     N39741  11.516   3.705   5.715 -0.5750 -0.1467 -0.0367
  295MOL0     C39742  10.449   3.783   5.327 -0.2737 -0.1436 -0.3010
  295MOL0     C39743  10.314   3.756   5.293  0.0791 -0.8119 -0.4240
  295MOL0     C39744   9.976   3.476   5.162  0.3534  0.4268 -0.1912
  295MOL0     C39745   9.936   3.349   5.118 -0.9222 -0.4700 -0.5540
  295MOL0     C39746   9.809   3.313   5.092  1.2754 -0.8000  0.7045
  295MOL0     C39747   9.706   3.418   5.081  0.2971 -0.2910 -0.4357
  295MOL0     O39748   9.576   3.402   5.039  0.4291 -0.3990  0.7662
  295MOL0     C39749   9.544   3.268   4.993  0.0916  0.1567  0.5980
  295MOL0     C39750   9.407   3.263   4.925  1.0121  0.4198 -0.3734
  295MOL0     C39751   9.304   3.228   5.031 -0.3916 -0.6635 -0.9996
  295MOL0     C39752   9.168   3.186   4.973 -0.1815 -0.3826  0.2709
  295MOL0     C39753   9.078   3.138   5.077 -0.0246  0.1679  0.1059
  295MOL0     C39754   9.014   3.087   5.170  0.5262 -0.3586  0.8605
  295MOL0     C39755   9.753   3.555   5.098  0.4184  0.5892 -0.0254
  295MOL0     C39756   9.887   3.579   5.144  0.7231 -0.6438  0.2799
  295MOL0     C39757   9.918   3.727   5.163 -0.4854 -0.5883  0.2165
  295MOL0     H39758  10.273   3.457   5.431  1.8742 -0.3095  0.8619
  295MOL0     H39759  10.509   3.463   5.457 -1.8833 -1.3713 -0.3341
  295MOL0     H39760  10.733   3.510   5.415  3.6228 -1.5227 -0.2609
  295MOL0     H39761  10.746   3.557   5.249 -0.9455 -3.9671  1.6231
  295MOL0     H39762  10.949   3.544   5.315  1.2767  0.1655  1.1904
  295MOL0     H39763  10.927   3.653   5.455  0.9384 -1.9173 -0.4226
  295MOL0     H39764  10.925   3.834   5.335  1.3379 -1.5862  1.4016
  295MOL0     H39765  10.853   3.768   5.188 -1.3411  1.6164  0.7143
  295MOL0     H39766  11.125   3.648   5.196 -2.2559 -1.2532  1.0651
  295MOL0     H39767  11.076   3.779   5.087  1.8636  0.6314 -0.3586
  295MOL0     H39768  11.260   3.867   5.217  1.8466  1.9567  2.2445
  295MOL0     H39769  11.116   3.920   5.306  0.1392 -0.9911  1.1669
  295MOL0     H39770  11.126   3.727   5.461  1.2593 -1.3915  0.9040
  295MOL0     H39771  11.284   3.675   5.390 -1.0704 -0.5462  2.2894
  295MOL0     H39772  11.229   3.954   5.516  1.4703  0.2185  0.8807
  295MOL0     H39773  11.387   3.890   5.479 -0.0028 -0.1194  0.3325
  295MOL0     H39774  11.338   3.889   5.704 -1.1530 -0.6110  2.1346
  295MOL0     H39775  11.196   3.782   5.695 -0.3665  0.9383 -0.6582
  295MOL0     H39776  11.249   3.534   5.636  0.3882 -0.2349 -0.4495
  295MOL0     H39777  11.422   3.311   5.654 -0.9664  1.3844 -0.6772
  295MOL0     H39778  11.571   3.336   5.727  1.3414  0.6297  1.4572
  295MOL0     H39779  11.446   3.363   5.959  0.5307 -1.3223  0.1331
  295MOL0     H39780  11.294   3.321   5.877  0.8346  1.0281  0.4140
  295MOL0     H39781  11.360   3.101   5.837  1.1693 -0.8248 -0.1412
  295MOL0     H39782  11.412   3.129   5.998  4.9232 -0.6773  0.4844
  295MOL0     H39783  11.645   3.176   5.922 -0.4591 -1.4467  0.8093
  295MOL0     H39784  11.593   3.110   5.755 -0.7468 -0.8818 -0.3972
  295MOL0     H39785  11.632   2.745   6.033  2.0956 -2.5013  2.4817
  295MOL0     H39786  11.827   2.625   6.063 -0.8351 -0.7800 -3.0898
  295MOL0     H39787  12.148   2.506   6.310 -1.0586  2.7261 -1.2021
  295MOL0     H39788  12.370   2.398   6.370 -0.1174  1.1713 -0.0975
  295MOL0     H39789  12.638   2.459   6.290  2.9316 -0.0053  0.8479
  295MOL0     H39790  12.564   2.326   6.383 -2.5480  1.3030 -0.5357
  295MOL0     H39791  12.826   2.296   6.187  1.1733 -3.6161  0.7884
  295MOL0     H39792  12.836   2.332   6.356  2.0821  0.5638 -1.4453
  295MOL0     H39793  12.721   2.118   6.404  0.2157  2.7836  0.5018
  295MOL0     H39794  12.690   2.109   6.224 -1.7774  4.5662 -1.0998
  295MOL0     H39795  12.946   2.106   6.193 -0.7409 -2.9267 -1.8029
  295MOL0     H39796  12.869   1.956   6.250 -0.4467 -0.3625  0.7070
  295MOL0     H39797  12.908   2.033   6.488 -4.1647  1.4579 -2.3583
  295MOL0     H39798  12.999   2.168   6.422 -0.7086  1.5147 -3.6698
  295MOL0     H39799  13.047   1.859   6.388 -2.9228  1.1145 -0.0047
  295MOL0     H39800  13.128   1.984   6.282  1.2774 -0.7204  0.2145
  295MOL0     H39801  13.137   1.995   6.570 -0.0244 -0.4443 -0.7293
  295MOL0     H39802  13.250   2.077   6.463 -2.9082  2.5107  0.4430
  295MOL0     H39803  13.353   1.852   6.399  2.5545 -0.9938  0.6179
  295MOL0     H39804  13.359   1.897   6.575  0.1612 -4.9602  0.4582
  295MOL0     H39805  12.475   2.398   5.954 -1.8852 -1.4208  0.0015
  295MOL0     H39806  12.273   2.546   5.902 -1.9024 -3.9714 -1.3903
  295MOL0     H39807  12.050   2.976   5.916 -0.7199  2.7372 -0.4145
  295MOL0     H39808  11.838   3.094   5.887 -2.4450  0.8955  1.3012
  295MOL0     H39809  10.500   3.875   5.299  0.5537 -0.5048 -0.0293
  295MOL0     H39810  10.270   3.835   5.233  2.5674  0.5442 -0.6155
  295MOL0     H39811  10.015   3.279   5.142  0.6732  2.1759  2.7879
  295MOL0     H39812   9.788   3.207   5.082 -2.5394 -0.0392 -0.7157
  295MOL0     H39813   9.539   3.200   5.078 -1.1738  1.0751  1.3039
  295MOL0     H39814   9.615   3.224   4.923 -2.1612  1.3273 -2.6569
  295MOL0     H39815   9.419   3.187   4.847  3.0291  0.9556 -0.6632
  295MOL0     H39816   9.385   3.358   4.875  0.7593 -0.3503 -1.7735
  295MOL0     H39817   9.299   3.312   5.100 -0.7928 -2.8399  1.7742
  295MOL0     H39818   9.339   3.147   5.096  1.3130  0.7201 -0.1164
  295MOL0     H39819   9.124   3.275   4.926  2.0623  1.0142  0.6480
  295MOL0     H39820   9.199   3.112   4.899 -1.2046  0.1834 -0.7655
  295MOL0     H39821   8.942   3.043   5.237 -0.3951  2.1480  1.6320
  295MOL0     H39822   9.687   3.640   5.089  1.2685  1.2687  0.0354
  295MOL0     H39823   9.851   3.781   5.095  0.4533 -0.3091 -0.5166
  295MOL0     H39824   9.895   3.768   5.261 -0.6903  1.4811 -0.6459
  295MOL0     H39825  10.020   3.745   5.127 -1.0107  1.0110 -0.5636
  296MOL0     O39826   8.748   0.340   1.004  0.7189  0.6467  0.2847
  296MOL0     C39827   8.758   0.335   0.882 -0.0991  0.0132  0.0138
  296MOL0     O39828   8.656   0.323   0.795 -0.8120 -0.2374  0.3411
  296MOL0     C39829   8.524   0.303   0.829 -0.6519  0.4013  0.7149
  296MOL0     C39830   8.451   0.203   0.761  0.1957  0.0503 -0.4191
  296MOL0     C39831   8.314   0.184   0.778  0.1272 -0.0879 -0.0988
  296MOL0     C39832   8.241   0.271   0.858 -0.5680 -0.1131  0.3264
  296MOL0     O39833   8.104   0.251   0.864  0.5691 -1.0622 -0.1845
  296MOL0     C39834   8.063   0.120   0.888  0.3904 -0.0159 -0.0462
  296MOL0     C39835   7.920   0.118   0.941 -0.4100 -0.5253 -0.5331
  296MOL0     C39836   7.810   0.107   0.831 -0.0204  1.0289 -0.0721
  296MOL0     C39837   7.662   0.147   0.889 -0.7964  0.7228 -0.6705
  296MOL0     C39838   7.568   0.206   0.785 -0.3318 -0.4603 -0.2476
  296MOL0     C39839   7.442   0.255   0.860  0.1214 -0.1785 -0.0100
  296MOL0     C39840   7.343   0.326   0.767  0.0683 -0.5111  0.6814
  296MOL0     C39841   7.414   0.448   0.711 -0.5514 -0.7860 -0.8116
  296MOL0     N39842   7.312   0.532   0.627 -1.0268  0.7734 -1.1976
  296MOL0     C39843   7.289   0.503   0.495 -0.1740 -0.9625 -0.7006
  296MOL0     C39844   7.192   0.588   0.459  0.1041  0.3362  0.8817
  296MOL0     C39845   7.131   0.598   0.316  0.0425 -0.5760  0.9949
  296MOL0     C39846   6.986   0.534   0.311 -0.3947 -0.2221 -0.3235
  296MOL0     C39847   6.923   0.539   0.170 -0.1860  0.6344  0.0601
  296MOL0     C39848   6.786   0.468   0.172  0.1106  0.3431  0.0685
  296MOL0     O39849   6.815   0.336   0.227 -0.1936 -0.4521 -0.2683
  296MOL0     C39850   6.707   0.253   0.241  0.2056 -1.0214  0.5742
  296MOL0     C39851   6.572   0.281   0.216 -0.1079  0.9370 -0.1886
  296MOL0     C39852   6.471   0.194   0.243 -0.6468  0.2289  0.0932
  296MOL0     C39853   6.497   0.066   0.301  0.1110 -0.5444  0.4076
  296MOL0     C39854   6.386  -0.025   0.319  0.0721  0.7252  0.1302
  296MOL0     O39855   6.262   0.003   0.264 -0.4764  0.0028 -0.0396
  296MOL0     C39856   6.161  -0.080   0.277  0.6821  0.1519  0.6789
  296MOL0     C39857   6.101  -0.110   0.158 -0.2736 -0.6894  0.0116
  296MOL0     C39858   6.002  -0.202   0.160  0.3453 -0.6445  0.5169
  296MOL0     C39859   5.957  -0.262   0.274  0.4378 -0.7008 -0.1867
  296MOL0     O39860   5.860  -0.360   0.276  0.3276 -0.3956 -0.7314
  296MOL0     C39861   5.844  -0.443   0.390  0.6927 -0.0269 -0.1148
  296MOL0     C39862   5.748  -0.557   0.366 -0.2182 -0.2568  0.0594
  296MOL0     C39863   5.783  -0.646   0.240 -0.1750 -0.2581 -0.6066
  296MOL0     C39864   5.679  -0.758   0.236  0.2804  0.1266  0.3410
  296MOL0     C39865   5.671  -0.837   0.105 -0.2132  0.6999 -0.5054
  296MOL0     C39866   5.788  -0.939   0.100 -0.1118  0.6053  0.3679
  296MOL0     C39867   5.830  -0.978  -0.042  0.1294  0.3614 -0.6656
  296MOL0     C39868   5.820  -1.132  -0.064 -0.1938 -0.4253 -0.0551
  296MOL0    Cl39869   5.848  -1.177  -0.243 -0.2186  0.3239 -0.0990
  296MOL0     C39870   6.027  -0.227   0.393  0.7139  0.0732 -0.3742
  296MOL0     C39871   6.123  -0.136   0.399 -0.7376 -0.2756 -0.4768
  296MOL0     O39872   6.406  -0.127   0.384  0.0786  0.1719 -0.2781
  296MOL0     C39873   6.634   0.037   0.339  0.0853 -0.4694 -0.7714
  296MOL0     C39874   6.737   0.124   0.303  0.5658  0.2846  0.0946
  296MOL0     N39875   7.166   0.669   0.565  0.2183 -0.3067 -0.6021
  296MOL0     N39876   7.236   0.633   0.672 -0.4350 -0.2364 -0.0416
  296MOL0     C39877   8.311   0.368   0.940  0.5091 -0.5041  0.7758
  296MOL0     C39878   8.452   0.382   0.925  1.1333  0.1152  0.3881
  296MOL0     C39879   8.893   0.349   0.827 -0.2672  0.4333  0.0043
  296MOL0     C39880   8.917   0.342   0.688  0.3572  0.6450 -0.5670
  296MOL0     C39881   9.043   0.345   0.634 -1.9146  0.8406  0.5980
  296MOL0     C39882   9.155   0.378   0.716  0.3951 -1.0426  0.2432
  296MOL0     O39883   9.287   0.381   0.683 -0.2265 -0.4508  0.6289
  296MOL0     C39884   9.329   0.405   0.548 -0.3026 -0.1184  0.3928
  296MOL0     C39885   9.423   0.298   0.488 -0.7183 -0.5150 -0.2421
  296MOL0     C39886   9.375   0.161   0.518 -0.3591  0.7223  0.5976
  296MOL0     C39887   9.475   0.053   0.473 -0.1166  0.9561  0.7201
  296MOL0     C39888   9.590   0.067   0.565  0.5626  0.6313  0.6514
  296MOL0     C39889   9.687   0.068   0.631 -0.0103 -0.2532 -0.5707
  296MOL0     C39890   9.143   0.378   0.856  0.8749 -0.5824  0.0319
  296MOL0     C39891   9.013   0.383   0.911  0.2662  0.4539 -1.1042
  296MOL0     C39892   9.012   0.439   1.054 -0.5173 -0.0187 -0.2544
  296MOL0     H39893   8.494   0.146   0.679 -0.7501  1.3732 -1.8863
  296MOL0     H39894   8.259   0.105   0.728 -0.2038  1.1210 -1.7034
  296MOL0     H39895   8.067   0.063   0.795 -0.2966  3.8508 -2.7283
  296MOL0     H39896   8.137   0.080   0.958  1.9880  1.5481 -0.7420
  296MOL0     H39897   7.895   0.200   1.009 -0.1758 -0.5047 -0.4686
  296MOL0     H39898   7.915   0.032   1.009  1.6153 -0.1426  0.1721
  296MOL0     H39899   7.806   0.013   0.775 -0.7118  1.2023 -0.3273
  296MOL0     H39900   7.832   0.183   0.755  0.5583  0.0085 -0.9664
  296MOL0     H39901   7.617   0.068   0.950  2.9564  0.4971  2.1398
  296MOL0     H39902   7.683   0.227   0.960  1.3631 -1.6500  1.5692
  296MOL0     H39903   7.623   0.283   0.731  0.0762  0.8527  1.9176
  296MOL0     H39904   7.543   0.144   0.698 -2.4383  0.7271 -0.5467
  296MOL0     H39905   7.378   0.174   0.896  0.4649 -0.9661 -1.1184
  296MOL0     H39906   7.471   0.326   0.938  0.1646  0.9805 -1.0482
  296MOL0     H39907   7.251   0.354   0.819  1.7233  2.5563  2.2393
  296MOL0     H39908   7.324   0.256   0.685 -0.8529  0.1718  0.2872
  296MOL0     H39909   7.447   0.516   0.791 -0.8617  1.7052 -2.6660
  296MOL0     H39910   7.500   0.423   0.649 -0.7981 -1.6069 -0.8262
  296MOL0     H39911   7.335   0.420   0.442  3.0654 -0.0576  0.4468
  296MOL0     H39912   7.127   0.702   0.283 -0.1052 -0.4997  1.2467
  296MOL0     H39913   7.194   0.548   0.242 -1.2615  1.3801 -1.5719
  296MOL0     H39914   7.002   0.433   0.349 -1.4641 -0.0898  0.5427
  296MOL0     H39915   6.912   0.573   0.382 -1.9526 -1.2967 -1.2697
  296MOL0     H39916   6.984   0.473   0.107 -4.3970  0.3154 -4.3103
  296MOL0     H39917   6.924   0.638   0.123  1.6931  0.9075  0.6116
  296MOL0     H39918   6.764   0.463   0.065  2.8920 -1.6128 -0.5250
  296MOL0     H39919   6.697   0.514   0.218 -0.3197  3.1619 -3.1152
  296MOL0     H39920   6.540   0.382   0.193  1.9801  1.6144 -0.3137
  296MOL0     H39921   6.368   0.223   0.222 -0.7060  1.1626  1.5205
  296MOL0     H39922   6.136  -0.063   0.066  2.6825 -1.7352  0.4863
  296MOL0     H39923   5.965  -0.219   0.059 -1.2803  0.7673  0.8220
  296MOL0     H39924   5.934  -0.500   0.413 -1.9268 -4.3329  0.5368
  296MOL0     H39925   5.800  -0.389   0.475 -1.7002  0.7015 -1.7193
  296MOL0     H39926   5.748  -0.623   0.453  0.6174  1.0239  1.0594
  296MOL0     H39927   5.647  -0.516   0.359 -0.1419  0.3620  1.9691
  296MOL0     H39928   5.777  -0.592   0.145  1.6191  0.9884 -0.0817
  296MOL0     H39929   5.882  -0.693   0.239 -0.8160 -1.7224  0.7036
  296MOL0     H39930   5.582  -0.715   0.262  1.0367  1.3958  1.1504
  296MOL0     H39931   5.697  -0.830   0.317  0.3355  0.2512  0.4382
  296MOL0     H39932   5.674  -0.765   0.023  2.7983 -1.1732 -2.2179
  296MOL0     H39933   5.577  -0.891   0.103 -0.8469  1.7463  0.1477
  296MOL0     H39934   5.880  -0.902   0.146  1.1687  1.0747 -2.4098
  296MOL0     H39935   5.763  -1.030   0.157  2.2276 -1.1621 -1.2501
  296MOL0     H39936   5.934  -0.945  -0.047  0.4401 -0.0681  1.7592
  296MOL0     H39937   5.769  -0.925  -0.116 -0.1366 -0.1503 -0.8220
  296MOL0     H39938   5.888  -1.176   0.009 -1.2578  0.2446  1.3928
  296MOL0     H39939   5.726  -1.173  -0.025 -0.3036 -0.8268 -0.7220
  296MOL0     H39940   5.992  -0.272   0.486  2.3527 -0.5447 -0.0288
  296MOL0     H39941   6.164  -0.114   0.497  1.3223 -2.4093 -0.7725
  296MOL0     H39942   6.651  -0.056   0.391  1.0469  0.2991  0.3616
  296MOL0     H39943   6.839   0.092   0.319  0.7377  1.0855  0.6169
  296MOL0     H39944   8.246   0.428   1.003  3.5868  3.0131  0.9516
  296MOL0     H39945   8.508   0.457   0.981  0.9253 -0.0424  0.8109
  296MOL0     H39946   8.842   0.315   0.614 -2.2571  0.3321  1.9905
  296MOL0     H39947   9.064   0.341   0.527  2.4609  1.0081  1.2741
  296MOL0     H39948   9.393   0.494   0.538 -1.8694  1.0372  0.2591
  296MOL0     H39949   9.247   0.439   0.483  2.2449  0.8637 -2.5970
  296MOL0     H39950   9.526   0.307   0.522 -0.5056 -1.2323 -0.6650
  296MOL0     H39951   9.415   0.304   0.379  0.1930  2.4653 -0.2293
  296MOL0     H39952   9.278   0.144   0.471 -0.0236  1.2390 -0.2972
  296MOL0     H39953   9.355   0.150   0.625  0.0019 -1.4163  0.5021
  296MOL0     H39954   9.420  -0.041   0.477  1.4598  0.0061  0.7791
  296MOL0     H39955   9.492   0.075   0.367  1.0026  1.8165  1.0602
  296MOL0     H39956   9.773   0.069   0.694 -0.3091  0.5046 -0.1573
  296MOL0     H39957   9.231   0.379   0.920 -1.1775  2.5849  3.2788
  296MOL0     H39958   9.017   0.349   1.117 -0.6241  1.4327  1.9312
  296MOL0     H39959   9.105   0.492   1.073 -1.4514  1.2798  0.8474
  296MOL0     H39960   8.924   0.501   1.073  1.2166  2.3204  0.6318
  297MOL0     O39961   0.563   4.914  10.138 -0.4010  0.5516  0.7972
  297MOL0     C39962   0.662   4.938  10.064  0.7833 -0.3125  0.6342
  297MOL0     O39963   0.765   4.853  10.042 -0.0536 -0.8165 -0.5048
  297MOL0     C39964   0.887   4.910  10.026 -0.1424 -0.7229  0.2657
  297MOL0     C39965   0.933   4.964   9.905  0.8551  1.3610  0.0966
  297MOL0     C39966   1.038   5.059   9.907 -0.8532 -0.3854  0.1279
  297MOL0     C39967   1.113   5.080  10.023  0.9442 -0.5972  0.5655
  297MOL0     O39968   1.218   5.161  10.004 -0.3079  0.2349  0.4933
  297MOL0     C39969   1.289   5.228  10.114 -0.3757  0.3170  0.1937
  297MOL0     C39970   1.428   5.266  10.063  0.7545  0.0710 -0.5189
  297MOL0     C39971   1.530   5.149  10.068 -0.0995 -0.0648  0.4053
  297MOL0     C39972   1.662   5.209  10.026  1.3316 -0.4521  0.0336
  297MOL0     C39973   1.765   5.106  10.012  0.1025 -0.6749  0.1755
  297MOL0     C39974   1.912   5.159   9.985  0.3918  0.4137  0.8922
  297MOL0     C39975   2.017   5.051  10.010 -0.2104 -0.5830  0.6165
  297MOL0     C39976   2.163   5.108  10.023  0.0180  0.2040 -0.1438
  297MOL0     N39977   2.169   5.203  10.132 -0.0090 -0.1167 -0.3248
  297MOL0     C39978   2.155   5.162  10.263 -0.5335 -0.3167  0.2176
  297MOL0     C39979   2.123   5.278  10.320  0.7183  0.4093  0.3319
  297MOL0     C39980   2.043   5.278  10.453  0.2749  0.6063  0.0532
  297MOL0     C39981   2.051   5.410  10.535  0.4044 -1.2138  0.3992
  297MOL0     C39982   1.940   5.516  10.480  0.2929  0.4735 -0.0426
  297MOL0     C39983   1.955   5.650  10.559 -0.1891  0.2624  0.2294
  297MOL0     O39984   1.942   5.633  10.696  0.1489 -0.0609  0.0117
  297MOL0     C39985   1.830   5.583  10.744 -0.0520 -0.4832  0.6152
  297MOL0     C39986   1.831   5.477  10.828 -0.3592 -0.1240  0.5579
  297MOL0     C39987   1.713   5.430  10.886  0.3989 -0.6258 -0.4273
  297MOL0     C39988   1.589   5.493  10.868  0.2022 -1.1997 -0.4901
  297MOL0     C39989   1.471   5.444  10.940  0.2753  0.4884  0.7690
  297MOL0     O39990   1.360   5.505  10.894 -0.4085  0.5426 -0.8446
  297MOL0     C39991   1.235   5.464  10.945  1.0892 -0.1304 -0.3645
  297MOL0     C39992   1.144   5.418  10.849  0.4991 -0.0520 -0.9694
  297MOL0     C39993   1.022   5.378  10.904  0.2827 -0.1968  0.6275
  297MOL0     C39994   0.976   5.401  11.029 -0.9155  0.4613  0.3977
  297MOL0     O39995   0.844   5.377  11.057 -0.1810 -0.4944  0.2144
  297MOL0     C39996   0.807   5.366  11.200 -0.2483  0.9856 -0.2600
  297MOL0     C39997   0.749   5.497  11.247  0.4421 -0.4521  0.4550
  297MOL0     C39998   0.722   5.508  11.400 -0.3735 -0.8020  0.3028
  297MOL0     C39999   0.670   5.652  11.426  0.1175 -0.2935  0.5572
  297MOL0     C40000   0.610   5.669  11.564  0.5060  0.0334 -0.9709
  297MOL0     C40001   0.509   5.788  11.579 -0.5855  0.2758  0.7019
  297MOL0     C40002   0.450   5.831  11.713 -0.2698 -1.2628  0.5567
  297MOL0     C40003   0.338   5.740  11.751  0.3756 -0.4864  0.6148
  297MOL0    Cl40004   0.263   5.816  11.888 -0.0165  0.2409  0.0642
  297MOL0     C40005   1.068   5.444  11.120 -0.4257 -0.6844  0.3128
  297MOL0     C40006   1.194   5.478  11.082  0.5119  0.1046  0.2487
  297MOL0     O40007   1.481   5.346  11.018 -0.4443  0.2127 -0.2940
  297MOL0     C40008   1.587   5.602  10.778  0.7107  0.4098 -0.3556
  297MOL0     C40009   1.705   5.647  10.721 -0.0064  0.7256 -0.5368
  297MOL0     N40010   2.139   5.389  10.234 -0.3326 -0.9902  0.3214
  297MOL0     N40011   2.163   5.342  10.119 -0.1062  0.9179  0.4155
  297MOL0     C40012   1.069   5.017  10.142  0.6390  0.9438 -0.1708
  297MOL0     C40013   0.966   4.927  10.144  0.6675  0.0111  0.4568
  297MOL0     C40014   0.646   5.077  10.007 -0.4419  0.9800  0.1048
  297MOL0     C40015   0.699   5.179  10.074  0.1099  0.3998  0.0872
  297MOL0     C40016   0.671   5.306  10.020 -0.6298 -1.0666 -0.4449
  297MOL0     C40017   0.588   5.322   9.905 -0.1334  0.5014 -0.5767
  297MOL0     O40018   0.571   5.444   9.859 -0.1103 -1.0396  0.3929
  297MOL0     C40019   0.491   5.461   9.736  0.0989  0.2069 -0.0705
  297MOL0     C40020   0.482   5.607   9.709  0.2542  0.0228 -0.0722
  297MOL0     C40021   0.404   5.678   9.821 -1.0781  0.7804  1.1278
  297MOL0     C40022   0.346   5.804   9.743  0.6467 -0.0294  0.6264
  297MOL0     C40023   0.254   5.873   9.843 -0.0756 -0.4763 -0.4173
  297MOL0     C40024   0.173   5.922   9.925  0.5470  0.0168  0.9810
  297MOL0     C40025   0.542   5.208   9.834  0.3207 -0.2854  0.4562
  297MOL0     C40026   0.580   5.083   9.884 -1.0457 -1.7629  0.5973
  297MOL0     C40027   0.529   4.971   9.803 -0.4648  0.4682  0.2660
  297MOL0     H40028   0.883   4.950   9.810 -0.4990 -1.9035  1.1432
  297MOL0     H40029   1.069   5.108   9.815  2.6324 -3.9969 -0.9400
  297MOL0     H40030   1.226   5.310  10.149 -0.4310 -0.6964  2.7122
  297MOL0     H40031   1.297   5.167  10.204 -0.5622 -0.3966 -0.2677
  297MOL0     H40032   1.475   5.342  10.126 -0.3197  0.6571 -0.3877
  297MOL0     H40033   1.428   5.323   9.970  1.5196  2.3098  0.7754
  297MOL0     H40034   1.514   5.079   9.985  0.2105  1.6358 -1.1590
  297MOL0     H40035   1.534   5.092  10.161  1.8950 -0.0730  0.3688
  297MOL0     H40036   1.659   5.279   9.942 -0.7696 -0.2375  0.2365
  297MOL0     H40037   1.695   5.280  10.102 -0.4859  1.4535 -0.8420
  297MOL0     H40038   1.765   5.039  10.098  1.2711 -0.6180  0.2362
  297MOL0     H40039   1.724   5.037   9.937 -0.2857 -3.7095  2.9577
  297MOL0     H40040   1.927   5.194   9.882 -0.9338 -0.8626  0.2175
  297MOL0     H40041   1.933   5.249  10.043  3.1847  0.0138  0.6243
  297MOL0     H40042   2.023   4.987   9.921  1.6137  0.1701  0.1635
  297MOL0     H40043   1.994   4.995  10.101 -0.1192 -2.6791 -0.5708
  297MOL0     H40044   2.239   5.031  10.037 -0.5209 -0.0658  1.5534
  297MOL0     H40045   2.190   5.161   9.932  2.9594  0.4986  0.8114
  297MOL0     H40046   2.152   5.058  10.292  2.5379 -0.3680  0.6636
  297MOL0     H40047   1.937   5.262  10.429 -0.7182  2.7405  2.5642
  297MOL0     H40048   2.068   5.197  10.522 -0.9202  0.1450 -0.0322
  297MOL0     H40049   2.024   5.395  10.640 -0.6130  3.3952  1.0361
  297MOL0     H40050   2.151   5.453  10.526 -0.7388  1.1500 -4.3346
  297MOL0     H40051   1.841   5.471  10.491  0.6890 -1.2822 -2.6319
  297MOL0     H40052   1.953   5.526  10.371 -0.6308  1.4241 -0.0934
  297MOL0     H40053   1.878   5.722  10.530  2.5832  3.5682  0.4792
  297MOL0     H40054   2.043   5.705  10.526 -1.5500  0.8141 -2.9234
  297MOL0     H40055   1.930   5.439  10.850  0.2530 -0.1527 -1.9078
  297MOL0     H40056   1.717   5.358  10.967 -0.5006 -1.4260 -1.0708
  297MOL0     H40057   1.174   5.403  10.745 -1.6195 -3.2371 -1.2653
  297MOL0     H40058   0.953   5.347  10.826  1.1248  0.8837 -0.5815
  297MOL0     H40059   0.725   5.299  11.225 -2.3845  3.3613 -0.4292
  297MOL0     H40060   0.888   5.321  11.258 -1.4034 -3.4622 -1.7105
  297MOL0     H40061   0.819   5.575  11.216 -1.0315  0.7928  0.0987
  297MOL0     H40062   0.658   5.511  11.188  0.4076  1.4867  0.8994
  297MOL0     H40063   0.644   5.440  11.437 -2.4463  2.5901  2.7476
  297MOL0     H40064   0.813   5.490  11.459  1.2119 -3.0526 -2.5598
  297MOL0     H40065   0.587   5.674  11.359  0.2146  1.4664  0.9665
  297MOL0     H40066   0.745   5.730  11.412 -0.3639  0.1435  0.3575
  297MOL0     H40067   0.685   5.664  11.643 -1.0437 -2.2444  0.4832
  297MOL0     H40068   0.552   5.578  11.582 -2.0988  1.1647 -2.8969
  297MOL0     H40069   0.573   5.870  11.545  1.2263 -0.8984  1.0823
  297MOL0     H40070   0.426   5.763  11.512  0.8181  2.1483 -1.8900
  297MOL0     H40071   0.394   5.924  11.702  1.0727 -0.4506  0.4452
  297MOL0     H40072   0.532   5.844  11.784  1.2477  2.6667 -1.6293
  297MOL0     H40073   0.276   5.737  11.660 -0.0721 -1.2679  0.9360
  297MOL0     H40074   0.354   5.636  11.782 -4.5991 -0.6496  3.7483
  297MOL0     H40075   1.036   5.460  11.222 -2.9222  2.0424 -0.7602
  297MOL0     H40076   1.263   5.498  11.163 -1.5294  1.1530  1.8250
  297MOL0     H40077   1.499   5.660  10.754  0.3203 -1.0288 -2.7502
  297MOL0     H40078   1.701   5.744  10.674 -1.5115  2.2140  2.3910
  297MOL0     H40079   1.131   5.025  10.231 -0.7457 -1.8134  1.1512
  297MOL0     H40080   0.957   4.878  10.241 -0.1569 -0.9506 -0.0774
  297MOL0     H40081   0.758   5.162  10.163  3.4003  1.1978 -1.7757
  297MOL0     H40082   0.704   5.395  10.073  0.3575  0.3485 -3.2426
  297MOL0     H40083   0.394   5.414   9.755  0.3539 -0.3840 -0.1967
  297MOL0     H40084   0.538   5.410   9.652 -0.9449 -1.6909  0.4232
  297MOL0     H40085   0.435   5.628   9.612  0.3243 -0.9766 -0.3294
  297MOL0     H40086   0.584   5.647   9.700  0.5558 -0.3492  1.4754
  297MOL0     H40087   0.477   5.699   9.900  1.3447 -2.1485 -0.1662
  297MOL0     H40088   0.325   5.614   9.862 -0.2058 -0.4817  0.8836
  297MOL0     H40089   0.420   5.875   9.706 -0.8445  2.6566  2.5217
  297MOL0     H40090   0.280   5.771   9.662 -1.8236 -0.1271  2.5459
  297MOL0     H40091   0.109   5.948  10.007  1.5324  2.1618  1.1295
  297MOL0     H40092   0.483   5.211   9.743 -2.1181 -0.9646  1.9322
  297MOL0     H40093   0.431   4.930   9.830  0.3393 -2.8045 -1.3605
  297MOL0     H40094   0.530   5.008   9.700  0.4393 -1.8799 -0.6264
  297MOL0     H40095   0.601   4.889   9.808 -1.0411 -0.0257  0.6058
  298MOL0     O40096  10.176   1.002   4.074 -0.1150 -0.3758  0.8184
  298MOL0     C40097  10.135   1.112   4.029 -0.4103 -0.0802  0.0186
  298MOL0     O40098  10.215   1.227   4.004 -1.0070  0.1087  0.7713
  298MOL0     C40099  10.351   1.218   3.999  0.3048  0.7688  0.7096
  298MOL0     C40100  10.424   1.252   3.879 -0.1076  0.5618 -0.6425
  298MOL0     C40101  10.562   1.253   3.874 -0.8300 -1.6731  0.1803
  298MOL0     C40102  10.634   1.220   3.989 -0.3165 -0.3718 -0.2270
  298MOL0     O40103  10.768   1.215   3.995 -0.2971 -0.3002 -0.0666
  298MOL0     C40104  10.824   1.170   3.872 -0.2048 -0.0857 -0.6581
  298MOL0     C40105  10.952   1.096   3.893  0.4741 -0.0510  0.3523
  298MOL0     C40106  10.930   0.956   3.948  0.5595  0.4637 -0.0240
  298MOL0     C40107  11.065   0.866   3.970  1.6285 -0.9875 -0.3302
  298MOL0     C40108  11.031   0.728   4.016  0.6618 -0.5562  0.2910
  298MOL0     C40109  11.144   0.637   3.999 -0.1926  0.9588  0.4032
  298MOL0     C40110  11.129   0.491   4.058 -0.6178  0.3510 -0.6611
  298MOL0     C40111  11.255   0.403   4.035  0.2800 -0.2043  0.4040
  298MOL0     N40112  11.374   0.480   4.065 -0.0701 -0.8376 -0.4438
  298MOL0     C40113  11.406   0.501   4.192 -0.8953  0.2554  0.0060
  298MOL0     C40114  11.526   0.581   4.182  1.0536  0.2307 -0.6003
  298MOL0     C40115  11.603   0.641   4.290 -0.2547 -0.7591 -0.8118
  298MOL0     C40116  11.745   0.587   4.312  0.3942 -0.0570  0.7122
  298MOL0     C40117  11.802   0.645   4.438 -0.6853  0.2299 -0.1820
  298MOL0     C40118  11.955   0.619   4.451  0.9807 -0.0107  0.4988
  298MOL0     O40119  12.014   0.695   4.348 -0.5516 -0.4193 -0.3496
  298MOL0     C40120  12.145   0.664   4.317 -0.0107 -0.6991  0.1481
  298MOL0     C40121  12.231   0.595   4.401  0.2904 -0.0365  0.2625
  298MOL0     C40122  12.369   0.595   4.386  0.5275 -0.3741 -0.5064
  298MOL0     C40123  12.422   0.654   4.272 -0.6228 -1.0680 -0.6228
  298MOL0     C40124  12.566   0.680   4.261  0.1197 -0.2119 -0.1831
  298MOL0     O40125  12.639   0.644   4.368 -0.6465  0.2339  0.3451
  298MOL0     C40126  12.773   0.666   4.382 -0.9160 -1.6281 -0.9282
  298MOL0     C40127  12.821   0.602   4.496 -0.3051  0.4428  0.2626
  298MOL0     C40128  12.960   0.609   4.525  1.3854  0.8144 -0.4569
  298MOL0     C40129  13.049   0.683   4.449  0.4931 -0.5542 -0.7299
  298MOL0     O40130  13.186   0.666   4.475  0.5224 -0.2428  0.1305
  298MOL0     C40131  13.258   0.633   4.357 -0.8098  0.4697  0.1538
  298MOL0     C40132  13.405   0.601   4.377  0.1772  0.4052 -0.2389
  298MOL0     C40133  13.470   0.581   4.241  1.4268  0.4721 -0.4557
  298MOL0     C40134  13.627   0.573   4.241 -0.1995 -0.5155 -0.2239
  298MOL0     C40135  13.693   0.573   4.102 -0.1980 -0.2887 -0.8136
  298MOL0     C40136  13.817   0.486   4.106  1.0887 -0.2859 -0.1819
  298MOL0     C40137  13.875   0.448   3.974  0.6421  0.4608  1.1995
  298MOL0     C40138  13.995   0.373   3.989 -0.3725  0.2547 -0.3546
  298MOL0    Cl40139  14.071   0.343   3.833 -0.1257  0.3001  0.0421
  298MOL0     C40140  12.993   0.753   4.343 -0.7928 -0.0034  0.7895
  298MOL0     C40141  12.862   0.745   4.308 -0.0000 -0.4648  0.4831
  298MOL0     O40142  12.610   0.726   4.152  0.8850 -0.5647  0.1389
  298MOL0     C40143  12.339   0.720   4.182  0.5097  0.3556 -0.6739
  298MOL0     C40144  12.201   0.729   4.208 -0.1581 -0.0616 -0.2509
  298MOL0     N40145  11.563   0.586   4.051 -0.3578  0.3656  0.3898
  298MOL0     N40146  11.467   0.524   3.982  0.2688 -0.1310 -0.1974
  298MOL0     C40147  10.562   1.196   4.110  0.5604 -0.5671  0.3277
  298MOL0     C40148  10.424   1.181   4.114 -0.3397 -0.2324 -0.9028
  298MOL0     C40149   9.991   1.121   3.997 -0.3327  0.2362 -0.0016
  298MOL0     C40150   9.953   1.234   3.913  0.7255  0.0164  0.0818
  298MOL0     C40151   9.820   1.263   3.895  0.3780 -0.1156  0.5563
  298MOL0     C40152   9.720   1.175   3.937  0.2714  0.1087  0.1243
  298MOL0     O40153   9.587   1.198   3.909 -0.2519 -0.2570 -0.2287
  298MOL0     C40154   9.493   1.106   3.953  1.3002 -0.0042 -0.7352
  298MOL0     C40155   9.354   1.146   3.892  0.3755  0.0015  0.3233
  298MOL0     C40156   9.300   1.267   3.970  0.4393 -0.9550  0.5905
  298MOL0     C40157   9.199   1.349   3.882 -0.4870  0.4456 -0.1245
  298MOL0     C40158   9.070   1.349   3.950 -0.8124 -0.3525  0.0077
  298MOL0     C40159   8.965   1.359   4.012 -0.2272  0.0580  0.4084
  298MOL0     C40160   9.760   1.055   4.007  1.5811 -0.3649 -0.1932
  298MOL0     C40161   9.895   1.029   4.036 -0.4722 -0.5729 -0.8413
  298MOL0     C40162   9.923   0.916   4.127  0.5313  0.2368  0.6124
  298MOL0     H40163  10.367   1.274   3.789 -2.0989 -0.0685  0.4001
  298MOL0     H40164  10.610   1.292   3.785 -2.3834 -1.2939 -0.5232
  298MOL0     H40165  10.759   1.099   3.821 -0.9975  1.5109 -1.9632
  298MOL0     H40166  10.838   1.259   3.810 -0.7601  4.4906  4.9749
  298MOL0     H40167  11.010   1.145   3.971  0.4517 -0.2672  0.5074
  298MOL0     H40168  11.013   1.079   3.805  0.3555 -1.7230  0.5600
  298MOL0     H40169  10.864   0.915   3.871  0.3601  0.0120  0.3816
  298MOL0     H40170  10.884   0.972   4.046 -0.4563 -0.2740 -0.3587
  298MOL0     H40171  11.110   0.866   3.870 -0.5443 -2.4982 -1.3874
  298MOL0     H40172  11.129   0.926   4.035  0.5449  1.0960 -1.0906
  298MOL0     H40173  11.007   0.740   4.122 -1.7473 -1.1866 -0.1113
  298MOL0     H40174  10.938   0.696   3.966 -0.5125  1.7982  0.8497
  298MOL0     H40175  11.175   0.616   3.896 -2.1833 -1.2448  0.1592
  298MOL0     H40176  11.218   0.685   4.063  0.3858  3.0447 -1.6850
  298MOL0     H40177  11.043   0.443   4.010 -1.2150  0.3117  0.4153
  298MOL0     H40178  11.109   0.491   4.165  1.1661  0.9774 -0.3067
  298MOL0     H40179  11.245   0.301   4.075  0.3733 -0.9538 -1.4042
  298MOL0     H40180  11.266   0.375   3.930 -3.5112  1.1092 -0.5072
  298MOL0     H40181  11.356   0.476   4.285 -1.3035  2.6746  0.5046
  298MOL0     H40182  11.605   0.750   4.279  1.5710 -0.4654  1.6132
  298MOL0     H40183  11.540   0.633   4.378  0.6028  0.0309 -0.1079
  298MOL0     H40184  11.744   0.478   4.314 -0.1236 -0.0852 -0.2188
  298MOL0     H40185  11.808   0.620   4.229  1.5596  2.5842  2.5149
  298MOL0     H40186  11.735   0.602   4.514  0.6405  0.7918  1.3577
  298MOL0     H40187  11.789   0.753   4.436 -1.2208  0.2285 -4.3731
  298MOL0     H40188  11.970   0.514   4.427 -3.5307 -0.9949  1.1431
  298MOL0     H40189  11.992   0.638   4.553  1.0971  3.0223  0.0011
  298MOL0     H40190  12.188   0.542   4.486 -1.8176  2.5173  0.9487
  298MOL0     H40191  12.437   0.552   4.459  3.5758  2.1432 -1.6557
  298MOL0     H40192  12.755   0.538   4.554 -1.0803 -0.7490 -1.8557
  298MOL0     H40193  13.004   0.555   4.608  0.2163  0.3718 -0.1041
  298MOL0     H40194  13.214   0.547   4.306  0.8953 -0.8357  0.7903
  298MOL0     H40195  13.254   0.719   4.289 -0.8692  1.4144  1.3207
  298MOL0     H40196  13.470   0.674   4.425 -2.3239  1.3478  1.9254
  298MOL0     H40197  13.419   0.516   4.444 -0.1393 -0.9836 -1.8594
  298MOL0     H40198  13.425   0.497   4.189  0.9076  0.8336 -0.5943
  298MOL0     H40199  13.442   0.677   4.197  1.9075  1.1574  0.6829
  298MOL0     H40200  13.648   0.475   4.285 -0.2374 -0.6998 -0.6166
  298MOL0     H40201  13.666   0.659   4.296 -3.2787  0.6796  0.2916
  298MOL0     H40202  13.712   0.677   4.072 -1.2996 -0.2731 -1.5269
  298MOL0     H40203  13.632   0.527   4.024  1.8141 -1.1629 -1.9471
  298MOL0     H40204  13.883   0.539   4.175  2.4989 -2.2314  0.0521
  298MOL0     H40205  13.797   0.389   4.153  1.1446 -0.2018  0.0169
  298MOL0     H40206  13.906   0.538   3.920 -0.4625 -0.5710 -1.2763
  298MOL0     H40207  13.803   0.390   3.916  0.3004  3.2509 -1.4095
  298MOL0     H40208  14.054   0.432   4.059 -2.2374  0.9706  0.6633
  298MOL0     H40209  13.967   0.274   4.026 -0.6635 -1.5389 -4.6978
  298MOL0     H40210  13.054   0.820   4.283 -2.1330 -0.3833 -1.0899
  298MOL0     H40211  12.825   0.802   4.223 -0.3900  0.7795  1.4566
  298MOL0     H40212  12.382   0.767   4.094  1.0867 -0.8858 -1.0639
  298MOL0     H40213  12.141   0.784   4.136  0.6567  0.6940 -0.3689
  298MOL0     H40214  10.628   1.184   4.195  0.2252 -1.1473  0.5135
  298MOL0     H40215  10.371   1.165   4.207  2.0565  0.1528  0.6134
  298MOL0     H40216  10.028   1.300   3.871 -0.5485  1.2670 -0.2684
  298MOL0     H40217   9.785   1.352   3.844  3.1524  0.0843 -1.2673
  298MOL0     H40218   9.482   1.098   4.061 -0.2398  1.8921 -0.6924
  298MOL0     H40219   9.530   1.014   3.907 -0.0165 -0.1850 -1.4853
  298MOL0     H40220   9.288   1.060   3.907  1.5133 -0.6856  1.6249
  298MOL0     H40221   9.361   1.164   3.784  0.8938  1.8446  0.6253
  298MOL0     H40222   9.390   1.321   4.000  1.7807 -2.3893 -0.6563
  298MOL0     H40223   9.252   1.239   4.064 -2.2343 -1.1172 -0.7139
  298MOL0     H40224   9.240   1.449   3.869  2.1523 -0.3489  1.4625
  298MOL0     H40225   9.191   1.307   3.782 -1.3787  0.7587 -0.1994
  298MOL0     H40226   8.878   1.353   4.074 -2.0227  2.2865 -1.7191
  298MOL0     H40227   9.689   0.985   4.049 -0.6562  0.4347 -2.4360
  298MOL0     H40228   9.956   0.837   4.059  0.2885  0.9649 -0.3694
  298MOL0     H40229  10.003   0.917   4.202  0.6637  1.3014  0.4627
  298MOL0     H40230   9.834   0.900   4.189  1.7234  0.8450  2.5815
  299MOL0     O40231   1.100   8.972   4.263 -0.0309  1.0164 -0.2227
  299MOL0     C40232   1.137   8.854   4.243 -0.2427  0.2299 -0.0742
  299MOL0     O40233   1.053   8.757   4.186  0.1873 -0.6377 -0.1018
  299MOL0     C40234   0.916   8.771   4.173  0.0516  0.1669 -0.4341
  299MOL0     C40235   0.843   8.835   4.267  0.7192 -0.2507 -0.2436
  299MOL0     C40236   0.707   8.859   4.243  1.1330 -0.9693  0.1494
  299MOL0     C40237   0.636   8.805   4.129 -0.9489  1.3067  0.1765
  299MOL0     O40238   0.507   8.811   4.105  0.0061  0.6517  0.9610
  299MOL0     C40239   0.431   8.895   4.195 -0.1962  0.9521 -0.8477
  299MOL0     C40240   0.288   8.904   4.154 -0.3924 -0.9615  0.2771
  299MOL0     C40241   0.211   8.771   4.161  0.4868 -0.3713  0.1557
  299MOL0     C40242   0.072   8.778   4.095 -0.4461  0.2664 -0.8690
  299MOL0     C40243   0.003   8.648   4.098 -0.0268 -0.3403  0.4417
  299MOL0     C40244  -0.145   8.663   4.057 -0.4051  0.5651 -0.3215
  299MOL0     C40245  -0.223   8.536   4.095  0.2387  0.0238  0.0140
  299MOL0     C40246  -0.371   8.566   4.060  0.6020  0.6214 -1.2231
  299MOL0     N40247  -0.473   8.457   4.093  0.2524  0.1040 -0.8527
  299MOL0     C40248  -0.508   8.434   4.227 -0.1427  0.4671 -0.3797
  299MOL0     C40249  -0.560   8.307   4.226 -0.4849 -0.6247  0.1913
  299MOL0     C40250  -0.623   8.248   4.351  0.3022  0.5037  0.3685
  299MOL0     C40251  -0.733   8.143   4.314  0.2431  0.6618 -0.0326
  299MOL0     C40252  -0.785   8.058   4.425  0.0320 -0.3762  0.8055
  299MOL0     C40253  -0.864   7.930   4.378 -0.4433  0.4144  0.0248
  299MOL0     O40254  -0.958   7.890   4.477 -0.2401  0.0431 -0.1971
  299MOL0     C40255  -1.022   7.768   4.469 -0.2896  0.0374  0.0044
  299MOL0     C40256  -1.006   7.689   4.359  0.8831 -0.5510  0.9119
  299MOL0     C40257  -1.061   7.562   4.354  0.4565  0.2176  0.2231
  299MOL0     C40258  -1.161   7.528   4.448 -0.9620  0.3125 -0.0134
  299MOL0     C40259  -1.237   7.403   4.438 -0.6182 -0.5837  0.1221
  299MOL0     O40260  -1.354   7.394   4.514 -0.0740 -0.0849 -0.2464
  299MOL0     C40261  -1.457   7.314   4.486 -0.4178  0.9253  0.6950
  299MOL0     C40262  -1.550   7.296   4.588  0.4700 -0.5788 -0.3909
  299MOL0     C40263  -1.665   7.231   4.566 -0.0199  0.9767 -0.1184
  299MOL0     C40264  -1.686   7.163   4.444 -0.0754 -0.3262  1.0055
  299MOL0     O40265  -1.801   7.098   4.433  0.7965  0.2653  0.6265
  299MOL0     C40266  -1.910   7.163   4.350  0.0932  0.5697  0.4054
  299MOL0     C40267  -1.994   7.265   4.416 -0.0264 -0.2349  0.6288
  299MOL0     C40268  -2.056   7.206   4.549 -0.2064 -0.8435 -0.5981
  299MOL0     C40269  -2.209   7.231   4.553  0.2904  0.8637  0.6116
  299MOL0     C40270  -2.285   7.136   4.459  0.1196  0.4336 -0.2168
  299MOL0     C40271  -2.431   7.142   4.464  0.3262 -0.0379  0.5921
  299MOL0     C40272  -2.491   7.026   4.380  0.1795 -0.5276  0.1875
  299MOL0     C40273  -2.641   7.029   4.361 -0.2539 -1.3219  0.7253
  299MOL0    Cl40274  -2.682   7.166   4.257  0.1048  0.2160  0.5775
  299MOL0     C40275  -1.594   7.191   4.337 -0.3976 -0.0066  0.4863
  299MOL0     C40276  -1.473   7.255   4.355  0.1856  0.1976 -0.0944
  299MOL0     O40277  -1.186   7.312   4.385 -0.0627 -0.4389 -0.9480
  299MOL0     C40278  -1.181   7.608   4.557 -0.5175  0.1273 -1.2773
  299MOL0     C40279  -1.107   7.729   4.570 -0.2727  0.8074 -0.5370
  299MOL0     N40280  -0.551   8.261   4.093  0.0304 -0.3138 -0.0949
  299MOL0     N40281  -0.506   8.350   4.020  0.4790 -0.1855  1.0140
  299MOL0     C40282   0.713   8.722   4.047  0.2415  0.2836 -0.4196
  299MOL0     C40283   0.848   8.711   4.073  0.1864  0.4315  0.5586
  299MOL0     C40284   1.281   8.821   4.257 -0.2774  0.2733 -1.1079
  299MOL0     C40285   1.334   8.700   4.211 -0.6249  0.4592  0.5506
  299MOL0     C40286   1.471   8.667   4.203  0.5450 -1.1137 -0.6753
  299MOL0     C40287   1.558   8.749   4.271  0.5506  0.9841 -0.6143
  299MOL0     O40288   1.687   8.704   4.264 -0.3913  0.4885 -0.2129
  299MOL0     C40289   1.795   8.798   4.282  0.2045  0.0384 -0.0096
  299MOL0     C40290   1.837   8.852   4.149  0.1736 -0.5847  0.1270
  299MOL0     C40291   1.955   8.963   4.148 -0.0963 -0.7211 -0.3089
  299MOL0     C40292   2.095   8.901   4.175 -0.5779  0.5797  0.6346
  299MOL0     C40293   2.207   8.995   4.147  0.5769  0.1317 -0.9079
  299MOL0     C40294   2.290   9.080   4.125  0.4289 -0.4699 -0.1678
  299MOL0     C40295   1.506   8.864   4.336  0.2917  0.2070 -0.6480
  299MOL0     C40296   1.374   8.904   4.321  0.3314  0.0755  0.7426
  299MOL0     C40297   1.345   9.036   4.385  0.3894 -0.6505  0.2942
  299MOL0     H40298   0.893   8.877   4.354  1.5215 -0.3054 -0.6611
  299MOL0     H40299   0.652   8.927   4.307  0.3539  0.2091 -1.6954
  299MOL0     H40300   0.431   8.850   4.295  2.6131  1.0447 -0.7291
  299MOL0     H40301   0.468   8.997   4.212  0.8729  0.1177  2.7260
  299MOL0     H40302   0.274   8.926   4.048 -0.5691 -1.3023  0.2260
  299MOL0     H40303   0.235   8.986   4.204 -2.4217 -0.3755 -2.5855
  299MOL0     H40304   0.199   8.743   4.266  0.1218  0.0076  0.2213
  299MOL0     H40305   0.269   8.694   4.110 -2.5111 -4.2729  2.0907
  299MOL0     H40306   0.017   8.850   4.156  1.3719  1.9634 -1.1241
  299MOL0     H40307   0.091   8.809   3.991  1.2104  1.3855 -0.2631
  299MOL0     H40308   0.045   8.578   4.025 -0.2925 -2.7570  2.4472
  299MOL0     H40309   0.016   8.599   4.195 -1.6561  1.4830  1.6511
  299MOL0     H40310  -0.204   8.733   4.117 -1.0642 -0.9042  0.8380
  299MOL0     H40311  -0.147   8.676   3.949  0.3856 -0.8070 -0.5200
  299MOL0     H40312  -0.208   8.492   4.194 -1.6318 -3.1894 -0.9706
  299MOL0     H40313  -0.184   8.460   4.026  0.6339 -0.2582  0.5459
  299MOL0     H40314  -0.407   8.643   4.130 -1.2081 -0.8980 -0.3851
  299MOL0     H40315  -0.382   8.602   3.957  2.3428  0.5508 -1.4610
  299MOL0     H40316  -0.503   8.494   4.318 -2.1420  0.9255 -0.5165
  299MOL0     H40317  -0.533   8.202   4.394  1.6205  2.7992  0.2343
  299MOL0     H40318  -0.674   8.321   4.413  1.2323  1.3903  0.1258
  299MOL0     H40319  -0.822   8.181   4.263  2.1817 -0.1877 -4.4527
  299MOL0     H40320  -0.694   8.070   4.242  1.5071  2.3697 -1.1325
  299MOL0     H40321  -0.849   8.109   4.498  0.8884 -1.9186  2.7185
  299MOL0     H40322  -0.699   8.032   4.488  1.4884  0.4234 -0.7650
  299MOL0     H40323  -0.791   7.853   4.354 -0.5963  0.6129 -1.1207
  299MOL0     H40324  -0.928   7.957   4.294  1.1282  0.2548 -1.2623
  299MOL0     H40325  -0.953   7.723   4.271 -1.6287  2.2043  0.3087
  299MOL0     H40326  -1.044   7.492   4.273  2.9586  2.1117 -0.9974
  299MOL0     H40327  -1.536   7.346   4.684  2.7954  0.1390 -1.0336
  299MOL0     H40328  -1.729   7.228   4.654 -1.0553  0.5864 -0.8765
  299MOL0     H40329  -1.867   7.188   4.253 -0.6797 -2.7039 -0.9254
  299MOL0     H40330  -1.983   7.083   4.329  0.1874  0.2855  1.1369
  299MOL0     H40331  -1.941   7.357   4.442  0.6919 -0.3095 -0.4871
  299MOL0     H40332  -2.074   7.290   4.346  0.1312 -2.9582 -0.6455
  299MOL0     H40333  -2.022   7.104   4.569  3.3929  0.2836 -0.1932
  299MOL0     H40334  -2.013   7.262   4.633  1.5131 -0.8491 -1.4469
  299MOL0     H40335  -2.237   7.336   4.538  2.4048  1.2481 -1.1977
  299MOL0     H40336  -2.254   7.206   4.649 -3.3882  1.4842 -0.7544
  299MOL0     H40337  -2.265   7.032   4.488 -1.0721  0.2912  0.1452
  299MOL0     H40338  -2.253   7.159   4.357  3.3817  2.0960  1.0668
  299MOL0     H40339  -2.459   7.148   4.570 -2.5448  0.7440 -0.1332
  299MOL0     H40340  -2.479   7.233   4.427 -2.0619  0.1204  3.6686
  299MOL0     H40341  -2.478   6.930   4.431  0.2194 -0.8834 -0.4819
  299MOL0     H40342  -2.448   7.031   4.280 -0.8100  0.6760 -0.2037
  299MOL0     H40343  -2.662   6.930   4.319  1.9316 -2.4703  2.1667
  299MOL0     H40344  -2.695   7.038   4.456  1.0152  1.7878  1.2406
  299MOL0     H40345  -1.622   7.142   4.245  1.6629 -0.8296  0.2443
  299MOL0     H40346  -1.401   7.253   4.274  1.1804 -2.3445  0.7603
  299MOL0     H40347  -1.247   7.584   4.639  2.4511  1.2551  1.6926
  299MOL0     H40348  -1.109   7.785   4.662 -1.4476  1.0971 -0.7222
  299MOL0     H40349   0.651   8.678   3.970 -0.7966  1.2830 -0.1752
  299MOL0     H40350   0.903   8.649   4.002 -0.8413  2.1558 -1.8649
  299MOL0     H40351   1.275   8.630   4.153  0.1551  0.3495 -0.1269
  299MOL0     H40352   1.506   8.584   4.142  1.0444 -0.2242 -1.6475
  299MOL0     H40353   1.879   8.755   4.338 -0.9629 -3.5982 -0.7691
  299MOL0     H40354   1.761   8.874   4.353  1.5662  0.2345  0.4712
  299MOL0     H40355   1.750   8.901   4.103 -0.4531 -1.0629  0.7643
  299MOL0     H40356   1.865   8.771   4.082 -1.2731 -0.0994 -1.1199
  299MOL0     H40357   1.938   9.034   4.229  0.1710  0.6069 -1.3883
  299MOL0     H40358   1.963   9.016   4.053  4.9126 -1.8537 -0.7957
  299MOL0     H40359   2.107   8.868   4.278 -2.6805  0.4766  0.8898
  299MOL0     H40360   2.113   8.821   4.102  0.4143  1.3641 -0.0109
  299MOL0     H40361   2.353   9.162   4.098 -1.2292  1.5135  1.5467
  299MOL0     H40362   1.572   8.929   4.391  2.8096 -1.7778 -1.1347
  299MOL0     H40363   1.299   9.093   4.303 -0.3637 -3.3350 -1.2887
  299MOL0     H40364   1.268   9.032   4.463 -1.5112 -2.4870 -1.5309
  299MOL0     H40365   1.438   9.088   4.408  1.6084 -1.2370 -2.7482
  300MOL0     O40366   9.216  10.169  11.221 -0.0085 -0.1409  0.0570
  300MOL0     C40367   9.116  10.128  11.156 -0.0770  0.3195 -0.5176
  300MOL0     O40368   9.122  10.061  11.037  0.0908 -0.2234  0.1570
  300MOL0     C40369   9.239  10.034  10.970 -0.1947  0.2153 -0.2173
  300MOL0     C40370   9.363   9.993  11.023 -0.1085 -0.1399  0.3200
  300MOL0     C40371   9.463   9.977  10.935 -0.0180 -0.6869  0.2334
  300MOL0     C40372   9.448   9.988  10.798 -0.2044 -0.0513  0.3226
  300MOL0     O40373   9.550   9.954  10.716 -0.2637 -0.0380 -0.2991
  300MOL0     C40374   9.641  10.068  10.703  0.2336  0.9514 -0.3088
  300MOL0     C40375   9.772   9.990  10.718 -0.1747  0.5279 -0.4276
  300MOL0     C40376   9.878  10.100  10.692  0.1398  0.1600 -0.2383
  300MOL0     C40377  10.024  10.043  10.694  0.1053 -0.1105  0.2448
  300MOL0     C40378  10.098  10.096  10.567  0.5146  0.4236 -0.0245
  300MOL0     C40379  10.245  10.069  10.576  0.4161 -0.5763 -0.6294
  300MOL0     C40380  10.331  10.134  10.460  0.0015 -0.4188 -0.2259
  300MOL0     C40381  10.477  10.133  10.502  0.3224 -1.0025 -0.9341
  300MOL0     N40382  10.557  10.192  10.395  0.3882 -0.1104  0.3745
  300MOL0     C40383  10.517  10.251  10.277  0.6710  0.2515  0.1525
  300MOL0     C40384  10.631  10.293  10.215 -0.2865  0.9258 -0.8656
  300MOL0     C40385  10.643  10.359  10.080 -0.2211 -0.7179  0.0008
  300MOL0     C40386  10.598  10.504  10.063  0.6613 -0.2455 -0.3423
  300MOL0     C40387  10.711  10.603  10.091 -0.2343  0.1925 -0.2329
  300MOL0     C40388  10.653  10.740  10.086 -0.1330 -0.8279  0.2324
  300MOL0     O40389  10.753  10.827  10.143 -0.5904 -1.4500 -0.5497
  300MOL0     C40390  10.866  10.860  10.070  0.1637 -1.0172  0.0094
  300MOL0     C40391  10.860  10.984  10.008  0.8642 -0.2751  0.5248
  300MOL0     C40392  10.973  11.047   9.972  0.0161 -0.9082  0.5925
  300MOL0     C40393  11.101  10.995   9.983 -0.2250  0.3805 -0.1934
  300MOL0     C40394  11.227  11.067   9.951 -0.5944  0.8394 -1.0744
  300MOL0     O40395  11.341  11.000   9.963 -0.3599  0.2975 -0.0122
  300MOL0     C40396  11.460  11.059   9.932  0.3219 -0.1456  0.9367
  300MOL0     C40397  11.517  11.171   9.995 -1.0092  0.3596 -1.0032
  300MOL0     C40398  11.637  11.212   9.952 -1.1082  0.0165 -0.2283
  300MOL0     C40399  11.712  11.156   9.842  1.3445 -0.5296  0.1512
  300MOL0     O40400  11.827  11.221   9.800 -0.3902 -0.1313 -0.0918
  300MOL0     C40401  11.903  11.172   9.684 -0.1793 -0.1509 -0.1648
  300MOL0     C40402  12.006  11.284   9.661 -0.4488  0.9159 -0.2343
  300MOL0     C40403  12.065  11.277   9.523 -0.2174  0.4466 -0.0939
  300MOL0     C40404  12.152  11.405   9.495  0.7444  0.0084 -0.2713
  300MOL0     C40405  12.231  11.370   9.372 -0.3063  0.1258 -0.2995
  300MOL0     C40406  12.329  11.480   9.341  0.6281 -0.0864 -0.0522
  300MOL0     C40407  12.429  11.433   9.235  0.3243 -0.1317  0.2048
  300MOL0     C40408  12.501  11.558   9.188  0.1784  0.2905  0.7898
  300MOL0    Cl40409  12.546  11.538   9.017  0.2321  0.0170  0.4206
  300MOL0     C40410  11.653  11.052   9.773  0.5558  0.5087  0.3415
  300MOL0     C40411  11.532  10.997   9.827 -0.0583  0.2686  0.2987
  300MOL0     O40412  11.212  11.183   9.908 -0.3129  0.5390 -0.1568
  300MOL0     C40413  11.114  10.870  10.043 -0.7002 -0.1565 -0.6701
  300MOL0     C40414  10.995  10.809  10.097 -0.0550 -0.1909  0.2326
  300MOL0     N40415  10.739  10.257  10.293 -0.4689  0.3093  0.5256
  300MOL0     N40416  10.695  10.192  10.394  0.0967 -0.2733 -0.9383
  300MOL0     C40417   9.321  10.027  10.748  0.1520  1.0553  0.4320
  300MOL0     C40418   9.218  10.051  10.830  0.6258  0.0593 -0.0185
  300MOL0     C40419   8.980  10.162  11.206  0.8203 -0.0061 -0.7580
  300MOL0     C40420   8.872  10.070  11.191  0.6332  0.0030  0.5894
  300MOL0     C40421   8.745  10.110  11.241  0.5086  0.0522 -0.5282
  300MOL0     C40422   8.720  10.225  11.310  0.1148 -1.1105  0.9709
  300MOL0     O40423   8.592  10.247  11.346  0.1731  0.5195  0.1169
  300MOL0     C40424   8.562  10.368  11.417  0.0581 -0.4870 -0.0168
  300MOL0     C40425   8.407  10.373  11.429 -0.2184  0.7548  0.7769
  300MOL0     C40426   8.353  10.508  11.476 -0.0716  0.5149 -0.7636
  300MOL0     C40427   8.203  10.534  11.459 -0.5032  0.2273 -0.3770
  300MOL0     C40428   8.126  10.420  11.513  0.8222 -0.1934 -0.3615
  300MOL0     C40429   8.053  10.325  11.555  0.8139 -0.4732  0.6629
  300MOL0     C40430   8.819  10.322  11.317  0.0409 -0.1743 -0.6850
  300MOL0     C40431   8.942  10.292  11.258 -0.7385 -0.4584 -1.0785
  300MOL0     C40432   9.040  10.400  11.280 -1.3718 -0.0343  0.5949
  300MOL0     H40433   9.364   9.983  11.131  0.9469 -0.3173  0.3056
  300MOL0     H40434   9.562   9.950  10.972  0.3210 -3.7200 -2.3970
  300MOL0     H40435   9.634  10.122  10.608 -0.5615 -0.8337 -1.3077
  300MOL0     H40436   9.639  10.142  10.784  0.7646  1.1327 -0.4553
  300MOL0     H40437   9.763   9.912  10.642 -5.3260 -2.7505  2.9048
  300MOL0     H40438   9.786   9.949  10.818  2.4949  0.0060 -0.9327
  300MOL0     H40439   9.872  10.173  10.773  3.9287 -1.2312  1.5534
  300MOL0     H40440   9.850  10.139  10.593  1.5756 -1.4871 -1.3455
  300MOL0     H40441  10.067  10.089  10.784 -2.9180  1.0808  1.2146
  300MOL0     H40442  10.037   9.935  10.708 -0.2351 -0.0802  0.8435
  300MOL0     H40443  10.062  10.037  10.482  0.2143 -0.1809  0.5137
  300MOL0     H40444  10.069  10.198  10.543  0.6792  0.6526  0.7319
  300MOL0     H40445  10.272  10.101  10.677  1.3973 -3.1350  0.0044
  300MOL0     H40446  10.270   9.962  10.581  3.1057  0.0237  1.9310
  300MOL0     H40447  10.300  10.238  10.444  1.3060  0.0491  0.1924
  300MOL0     H40448  10.332  10.075  10.369 -0.0522 -1.2566  0.3034
  300MOL0     H40449  10.483  10.200  10.589 -1.5675  0.6724 -2.0164
  300MOL0     H40450  10.508  10.031  10.528 -0.5756 -0.8706  0.7933
  300MOL0     H40451  10.419  10.265  10.232  1.8451 -0.5954 -2.9527
  300MOL0     H40452  10.746  10.352  10.042  0.3467 -5.1648  1.7409
  300MOL0     H40453  10.588  10.288  10.017  0.1025 -2.1817  1.3065
  300MOL0     H40454  10.567  10.503   9.958  3.6577 -0.4398 -1.3011
  300MOL0     H40455  10.508  10.526  10.121  0.0624  1.2710 -1.7323
  300MOL0     H40456  10.790  10.592  10.017  1.2329 -1.4884  1.4919
  300MOL0     H40457  10.757  10.583  10.188  0.4824 -0.1176 -0.6291
  300MOL0     H40458  10.562  10.747  10.145 -1.9235 -2.7581 -2.0726
  300MOL0     H40459  10.615  10.770   9.988 -2.8551  0.1151  1.4750
  300MOL0     H40460  10.759  11.018   9.990 -0.2804 -3.3256  0.6981
  300MOL0     H40461  10.954  11.152   9.950 -0.9833 -1.3560 -0.8593
  300MOL0     H40462  11.456  11.216  10.073 -0.1157 -0.0073 -0.0606
  300MOL0     H40463  11.691  11.291  10.003 -0.4909  0.0058 -0.8500
  300MOL0     H40464  11.950  11.077   9.711 -0.1381 -0.3586 -0.9371
  300MOL0     H40465  11.830  11.160   9.602 -0.3505  0.8481 -0.1661
  300MOL0     H40466  11.948  11.374   9.680  1.0259  1.8700 -0.1566
  300MOL0     H40467  12.083  11.263   9.736 -1.2760 -3.2489 -0.3236
  300MOL0     H40468  12.135  11.193   9.527 -0.5819  0.1934  2.9306
  300MOL0     H40469  12.001  11.254   9.437 -0.1207  2.7978 -0.8809
  300MOL0     H40470  12.226  11.420   9.575 -0.7757  0.3417  1.1272
  300MOL0     H40471  12.084  11.491   9.490 -1.1087 -1.4537 -1.8937
  300MOL0     H40472  12.150  11.367   9.298 -1.3436  0.4603  0.7719
  300MOL0     H40473  12.281  11.275   9.388 -1.3287 -0.0745  2.2229
  300MOL0     H40474  12.275  11.561   9.293  0.4659 -0.0965  0.1114
  300MOL0     H40475  12.380  11.519   9.430 -0.7060  2.1104 -0.1913
  300MOL0     H40476  12.365  11.383   9.161 -1.5126  1.3517  0.7300
  300MOL0     H40477  12.500  11.355   9.266  0.6926 -0.2425 -0.8459
  300MOL0     H40478  12.449  11.653   9.205 -0.1864  0.6311 -1.7249
  300MOL0     H40479  12.592  11.566   9.247  0.3663  0.8778  0.4298
  300MOL0     H40480  11.689  11.018   9.677  1.1784 -0.8072  1.0152
  300MOL0     H40481  11.491  10.913   9.774 -1.5986  1.2420 -0.1167
  300MOL0     H40482  11.211  10.823  10.056 -0.1332  1.2357  0.3458
  300MOL0     H40483  11.018  10.731  10.169 -1.1815 -0.8480 -0.0978
  300MOL0     H40484   9.308  10.043  10.641  1.1829 -0.8536 -0.0183
  300MOL0     H40485   9.120  10.086  10.800  0.9888  2.1721  1.0687
  300MOL0     H40486   8.895   9.975  11.145  0.7767 -0.1214  0.9138
  300MOL0     H40487   8.671  10.033  11.221 -2.1635  2.5460 -0.8069
  300MOL0     H40488   8.601  10.456  11.366 -0.5673 -1.5835 -2.5609
  300MOL0     H40489   8.614  10.371  11.513 -1.6782  1.1837  0.9496
  300MOL0     H40490   8.370  10.292  11.494  0.9431 -2.1314 -1.8971
  300MOL0     H40491   8.371  10.358  11.326  0.8558  2.0077  0.1887
  300MOL0     H40492   8.406  10.589  11.424  0.7871  0.2000 -0.3987
  300MOL0     H40493   8.375  10.515  11.583  0.9418  2.3842 -1.0580
  300MOL0     H40494   8.163  10.626  11.502 -4.4493 -0.7808 -1.4901
  300MOL0     H40495   8.195  10.539  11.350 -1.2892 -0.9119 -0.3960
  300MOL0     H40496   7.981  10.253  11.589 -1.0426  2.2599  2.9991
  300MOL0     H40497   8.800  10.414  11.371  0.3665 -0.5339  0.0614
  300MOL0     H40498   8.985  10.489  11.311 -0.8982  0.9909 -1.3610
  300MOL0     H40499   9.107  10.364  11.359  2.3553  2.2367 -1.2007
  300MOL0     H40500   9.096  10.415  11.187 -1.7410 -1.1374  0.1712
  301MOL0     O40501   2.479   3.381   7.920 -0.2630 -0.3807  0.0091
  301MOL0     C40502   2.550   3.281   7.910 -1.0747  0.3985  0.0488
  301MOL0     O40503   2.675   3.266   7.975  0.4411 -0.6353 -0.5993
  301MOL0     C40504   2.726   3.357   8.064  0.7725 -1.0057 -0.8727
  301MOL0     C40505   2.863   3.379   8.062 -1.1069 -0.9850  0.2569
  301MOL0     C40506   2.917   3.473   8.144  0.3865  0.7976 -0.6726
  301MOL0     C40507   2.844   3.559   8.224 -0.5546 -0.5819  0.1345
  301MOL0     O40508   2.936   3.632   8.290  0.1789 -0.8447  0.0810
  301MOL0     C40509   2.901   3.763   8.336 -0.9444 -0.0911  0.5120
  301MOL0     C40510   3.012   3.825   8.409 -0.2303 -0.8694 -0.2317
  301MOL0     C40511   3.151   3.803   8.340  0.7925  0.0456 -0.4109
  301MOL0     C40512   3.257   3.892   8.403 -0.7180 -0.1994  0.0405
  301MOL0     C40513   3.312   3.841   8.535 -0.6691  0.0587 -0.3552
  301MOL0     C40514   3.398   3.947   8.614 -0.6710  0.5745  0.6298
  301MOL0     C40515   3.478   3.868   8.723 -0.4956 -0.4496  0.2168
  301MOL0     C40516   3.396   3.816   8.832 -0.5486 -0.9190 -0.7348
  301MOL0     N40517   3.456   3.771   8.958 -0.1110 -0.0410 -0.1832
  301MOL0     C40518   3.580   3.705   8.965 -0.0459 -0.9968  0.0005
  301MOL0     C40519   3.599   3.673   9.093  0.0019 -0.2239  0.4108
  301MOL0     C40520   3.730   3.625   9.152  0.2661  0.0645 -0.0058
  301MOL0     C40521   3.739   3.468   9.141  0.0624 -1.0554 -0.1677
  301MOL0     C40522   3.645   3.396   9.237  1.0637 -0.1581  0.2655
  301MOL0     C40523   3.705   3.354   9.370 -1.5158 -1.3324  0.3773
  301MOL0     O40524   3.825   3.265   9.344 -0.2379  0.2299  0.9335
  301MOL0     C40525   3.804   3.148   9.277 -0.6658  0.0710 -0.6329
  301MOL0     C40526   3.902   3.082   9.205 -0.4614 -0.8364  0.9129
  301MOL0     C40527   3.884   2.960   9.142  0.2368 -0.3113 -0.4992
  301MOL0     C40528   3.753   2.890   9.148 -0.2988 -0.5018  0.6491
  301MOL0     C40529   3.731   2.763   9.070  0.4354  0.1868 -0.9280
  301MOL0     O40530   3.833   2.700   9.009 -1.1627 -0.7143 -0.1917
  301MOL0     C40531   3.807   2.591   8.936  0.8667 -0.1713  0.3315
  301MOL0     C40532   3.857   2.588   8.804 -0.2969  0.7984  0.2495
  301MOL0     C40533   3.859   2.485   8.715  0.2271 -0.0937  0.3934
  301MOL0     C40534   3.798   2.373   8.761 -0.5711 -0.1626  0.3679
  301MOL0     O40535   3.760   2.272   8.677 -0.0945  0.1341 -0.2566
  301MOL0     C40536   3.761   2.284   8.531 -0.2086 -0.4791 -0.0127
  301MOL0     C40537   3.677   2.177   8.466  0.0198 -0.2942 -0.1051
  301MOL0     C40538   3.666   2.040   8.549 -0.0099  1.0001  0.6537
  301MOL0     C40539   3.580   1.939   8.476  0.2072 -0.0121 -0.6721
  301MOL0     C40540   3.551   1.815   8.550  0.1069 -0.3692 -0.3558
  301MOL0     C40541   3.442   1.718   8.499 -1.0745  0.2719 -0.6182
  301MOL0     C40542   3.303   1.773   8.527 -0.4760  0.1876 -0.0663
  301MOL0     C40543   3.202   1.718   8.432 -0.7056  0.6148 -0.7759
  301MOL0    Cl40544   3.185   1.540   8.480 -0.0387 -0.0174 -0.4241
  301MOL0     C40545   3.761   2.357   8.897 -0.5035 -0.0181 -0.1261
  301MOL0     C40546   3.751   2.472   8.981  0.8084  1.1489  0.5250
  301MOL0     O40547   3.611   2.714   9.091 -0.2714 -0.6534  0.1206
  301MOL0     C40548   3.655   2.955   9.223 -0.0284  0.0456  0.8929
  301MOL0     C40549   3.679   3.080   9.289  0.3808 -0.7371  0.2838
  301MOL0     N40550   3.475   3.695   9.164 -0.1896 -0.4450 -0.7243
  301MOL0     N40551   3.390   3.756   9.080  0.1612 -0.4067  0.8186
  301MOL0     C40552   2.702   3.542   8.241  0.9178 -0.2074  0.3446
  301MOL0     C40553   2.650   3.434   8.163 -0.3159 -0.1967  0.0085
  301MOL0     C40554   2.499   3.166   7.836 -0.7004  0.3930 -1.0690
  301MOL0     C40555   2.575   3.050   7.831 -0.1990  1.1087  0.5673
  301MOL0     C40556   2.535   2.934   7.778 -1.0168 -0.6937 -0.0282
  301MOL0     C40557   2.414   2.928   7.709 -0.2017  0.6115  0.8876
  301MOL0     O40558   2.346   2.808   7.681  0.1392  0.6390  0.8769
  301MOL0     C40559   2.431   2.696   7.641  0.5080 -0.3835 -0.6192
  301MOL0     C40560   2.353   2.573   7.601  1.1604  0.3561  0.1635
  301MOL0     C40561   2.433   2.460   7.535  0.6179 -0.3038 -0.2120
  301MOL0     C40562   2.349   2.350   7.461 -0.1904 -0.0967  0.6597
  301MOL0     C40563   2.312   2.390   7.328  0.3259 -0.7183 -0.4762
  301MOL0     C40564   2.280   2.430   7.216  0.3200 -0.2271 -0.7340
  301MOL0     C40565   2.330   3.046   7.714 -0.3006 -0.9320 -0.1329
  301MOL0     C40566   2.365   3.166   7.768 -0.0362 -0.3465 -0.6153
  301MOL0     C40567   2.269   3.281   7.779  0.1929  0.6121  0.6482
  301MOL0     H40568   2.924   3.324   7.991  0.9898  1.3487  0.0813
  301MOL0     H40569   3.023   3.493   8.140  1.0364 -0.7478  3.7453
  301MOL0     H40570   2.889   3.836   8.255  1.0838 -1.3251 -0.9877
  301MOL0     H40571   2.809   3.764   8.396 -0.2027 -0.4529  1.6828
  301MOL0     H40572   3.013   3.794   8.514 -1.6974  1.0863  0.4211
  301MOL0     H40573   2.987   3.931   8.422 -0.5672 -1.2911  3.8608
  301MOL0     H40574   3.132   3.828   8.235  1.3297 -1.5396 -0.9146
  301MOL0     H40575   3.182   3.698   8.338 -1.2689 -0.6212 -2.8648
  301MOL0     H40576   3.342   3.901   8.335 -1.9191  1.1834 -1.3606
  301MOL0     H40577   3.225   3.996   8.414  1.1634  0.3106  1.1074
  301MOL0     H40578   3.226   3.817   8.599 -0.0523 -0.5209  0.2711
  301MOL0     H40579   3.372   3.751   8.524  2.4371  1.9676 -0.3280
  301MOL0     H40580   3.462   3.992   8.538  1.6593 -2.0659  0.8616
  301MOL0     H40581   3.357   4.032   8.670  1.9656  0.6268  2.7214
  301MOL0     H40582   3.560   3.931   8.759 -0.9925  1.5640 -1.9107
  301MOL0     H40583   3.532   3.786   8.675 -0.0476 -0.8389  1.3541
  301MOL0     H40584   3.334   3.898   8.869 -2.2206 -2.1178 -0.7453
  301MOL0     H40585   3.334   3.736   8.791  0.1870 -0.5922 -2.5750
  301MOL0     H40586   3.653   3.687   8.886  0.7148  0.9364  0.1947
  301MOL0     H40587   3.812   3.675   9.101  0.7326  1.0741  1.6503
  301MOL0     H40588   3.733   3.653   9.258 -1.3617 -0.6162  0.2628
  301MOL0     H40589   3.714   3.431   9.041  1.5645 -1.9057 -0.2628
  301MOL0     H40590   3.844   3.440   9.151 -0.0686 -1.8075 -0.7681
  301MOL0     H40591   3.610   3.305   9.187  0.8739  0.9021 -1.5975
  301MOL0     H40592   3.560   3.461   9.259  0.6546 -0.7328  0.4247
  301MOL0     H40593   3.630   3.317   9.440  0.1706 -0.8506  2.5600
  301MOL0     H40594   3.738   3.440   9.429 -3.0612 -2.6857  3.3911
  301MOL0     H40595   3.996   3.136   9.194 -1.6297  0.9776 -1.1539
  301MOL0     H40596   3.966   2.922   9.081 -1.7887 -4.1693 -1.1573
  301MOL0     H40597   3.912   2.674   8.768 -1.0095  1.0462 -0.2874
  301MOL0     H40598   3.888   2.508   8.613  0.5160 -2.5532 -0.1278
  301MOL0     H40599   3.731   2.380   8.488  1.2789 -0.6165 -1.4493
  301MOL0     H40600   3.865   2.271   8.502  0.0966  2.3062 -0.3885
  301MOL0     H40601   3.577   2.219   8.452  1.6463  3.9798 -0.2728
  301MOL0     H40602   3.717   2.156   8.366  1.1736  0.2155  0.2294
  301MOL0     H40603   3.768   2.002   8.539 -0.7988 -1.3353  0.9285
  301MOL0     H40604   3.644   2.044   8.656 -3.3987 -1.2924  0.2237
  301MOL0     H40605   3.635   1.908   8.387  2.1647  1.2545  0.0445
  301MOL0     H40606   3.488   1.993   8.448 -0.7477 -0.7778  0.8316
  301MOL0     H40607   3.513   1.842   8.649 -1.5581 -3.4210 -0.0198
  301MOL0     H40608   3.647   1.763   8.555  0.4673  0.3489  0.2469
  301MOL0     H40609   3.450   1.698   8.392 -2.6613  1.8565 -1.0937
  301MOL0     H40610   3.453   1.625   8.556  1.2141  1.0073  0.2371
  301MOL0     H40611   3.301   1.882   8.521 -2.2617  0.1852 -0.0077
  301MOL0     H40612   3.275   1.743   8.629 -0.6972  1.0969  0.1500
  301MOL0     H40613   3.106   1.765   8.455 -0.6075 -0.7048  3.0508
  301MOL0     H40614   3.239   1.717   8.329  0.2239 -1.5489 -0.4812
  301MOL0     H40615   3.719   2.269   8.945 -1.2388  0.1625 -0.4317
  301MOL0     H40616   3.721   2.469   9.085  0.6035 -0.5410  0.4387
  301MOL0     H40617   3.557   2.909   9.226 -0.8405  1.6613  0.3290
  301MOL0     H40618   3.604   3.119   9.357  1.4806 -1.6889  2.1104
  301MOL0     H40619   2.640   3.587   8.317  2.8168  0.7688  1.3987
  301MOL0     H40620   2.546   3.403   8.165  0.4549 -3.0503 -0.1418
  301MOL0     H40621   2.670   3.039   7.883  0.3900  3.4642  0.1219
  301MOL0     H40622   2.609   2.857   7.758  0.7895  1.1624 -0.8412
  301MOL0     H40623   2.508   2.666   7.713  0.1444 -2.2450 -0.9560
  301MOL0     H40624   2.487   2.726   7.553  1.8490  0.7409  0.5681
  301MOL0     H40625   2.273   2.602   7.533  0.1010 -0.6014  0.9498
  301MOL0     H40626   2.317   2.525   7.693 -2.1987 -0.7862 -1.5918
  301MOL0     H40627   2.491   2.421   7.620  0.3949  1.9515  1.0370
  301MOL0     H40628   2.494   2.511   7.461 -1.3412  0.4535 -1.3874
  301MOL0     H40629   2.412   2.261   7.454 -1.5537 -0.9881 -0.9371
  301MOL0     H40630   2.263   2.314   7.519 -0.6226  1.5158  1.0645
  301MOL0     H40631   2.252   2.441   7.113  1.6650  0.5624 -1.0399
  301MOL0     H40632   2.233   3.059   7.667  0.7383  0.7860 -1.9685
  301MOL0     H40633   2.185   3.268   7.710  0.5634  0.4257  0.2276
  301MOL0     H40634   2.240   3.291   7.884  3.7192  2.8988  1.5944
  301MOL0     H40635   2.319   3.370   7.739  2.4634 -1.6054 -1.7678
  302MOL0     O40636  10.406   5.568   2.512 -0.0968 -0.4302 -0.3255
  302MOL0     C40637  10.349   5.485   2.448 -0.1190  1.2350 -0.5578
  302MOL0     O40638  10.388   5.434   2.324 -0.1391 -0.0729 -0.3680
  302MOL0     C40639  10.463   5.500   2.233 -0.2691 -0.3957  0.9201
  302MOL0     C40640  10.586   5.562   2.274  0.0639  0.2568  0.5407
  302MOL0     C40641  10.677   5.621   2.187  0.4525 -0.5595 -0.2702
  302MOL0     C40642  10.652   5.625   2.049  0.2292 -0.4459 -1.2410
  302MOL0     O40643  10.744   5.681   1.970 -0.9805 -0.1924 -0.8690
  302MOL0     C40644  10.724   5.688   1.831 -0.6406  0.1013 -0.5167
  302MOL0     C40645  10.836   5.779   1.769  0.7404  0.5194  0.2751
  302MOL0     C40646  10.804   5.806   1.616 -0.4803 -0.0303  0.1062
  302MOL0     C40647  10.859   5.947   1.569  0.0713  0.6860 -0.3053
  302MOL0     C40648  10.886   5.961   1.421 -0.4947  0.7550  0.2427
  302MOL0     C40649  10.988   5.863   1.354 -0.0523  0.4144  0.6242
  302MOL0     C40650  11.132   5.883   1.409 -0.0517  0.6651 -0.7345
  302MOL0     C40651  11.224   5.796   1.328  0.2954 -0.3041 -0.1249
  302MOL0     N40652  11.363   5.840   1.337 -0.5495 -0.8062 -0.6470
  302MOL0     C40653  11.422   5.960   1.302  0.0034 -0.4992  0.5977
  302MOL0     C40654  11.555   5.955   1.349  0.5507 -0.6357 -0.4275
  302MOL0     C40655  11.654   6.066   1.364  0.6986 -0.7258 -0.0167
  302MOL0     C40656  11.689   6.108   1.221 -0.3925 -0.2448  0.0301
  302MOL0     C40657  11.781   6.015   1.153  0.0249  1.0755  0.1780
  302MOL0     C40658  11.920   6.007   1.221  0.5464 -0.6287 -0.1279
  302MOL0     O40659  11.999   6.129   1.213 -1.0891  0.2113  0.1186
  302MOL0     C40660  12.137   6.117   1.190  1.0303  0.4850  1.4114
  302MOL0     C40661  12.216   6.026   1.253  0.0923 -0.6583 -0.0814
  302MOL0     C40662  12.346   5.997   1.218  0.3589  0.6149  0.3084
  302MOL0     C40663  12.399   6.063   1.102  0.4241 -0.2224 -0.0643
  302MOL0     C40664  12.543   6.038   1.053  0.0688 -0.0246 -0.2280
  302MOL0     O40665  12.625   5.979   1.145  0.1181  0.0926  0.0972
  302MOL0     C40666  12.751   5.975   1.102 -0.0874 -0.1363 -0.1997
  302MOL0     C40667  12.813   5.870   1.030  0.3116  0.1374 -0.4069
  302MOL0     C40668  12.952   5.868   1.011 -0.1373  1.1596  0.6271
  302MOL0     C40669  13.029   5.983   1.042  1.0598  0.9011 -0.5418
  302MOL0     O40670  13.158   5.984   0.995 -0.0387  0.4594  0.3630
  302MOL0     C40671  13.241   6.094   1.043  0.2956 -0.6810 -0.4215
  302MOL0     C40672  13.361   6.116   0.959  0.3085 -0.1838 -0.8188
  302MOL0     C40673  13.461   6.007   0.951  0.0738  0.4609  0.3312
  302MOL0     C40674  13.592   6.064   0.897 -0.3522 -0.4276  0.3100
  302MOL0     C40675  13.699   5.964   0.854 -0.6241  0.4402 -0.7272
  302MOL0     C40676  13.811   6.010   0.757 -0.3108 -0.3152  0.4882
  302MOL0     C40677  13.880   5.899   0.687 -0.8483  0.7853 -0.7471
  302MOL0     C40678  14.000   5.828   0.753  0.0360 -0.4922 -1.2311
  302MOL0    Cl40679  14.059   5.701   0.635 -0.1870  0.2137  0.0258
  302MOL0     C40680  12.967   6.083   1.122 -0.6667 -0.0968 -0.4508
  302MOL0     C40681  12.832   6.079   1.156 -0.5772  0.4795 -0.1926
  302MOL0     O40682  12.581   6.091   0.948  0.4997 -0.0314  0.3629
  302MOL0     C40683  12.316   6.159   1.035 -0.2590 -0.1178  0.2090
  302MOL0     C40684  12.189   6.183   1.083 -0.2499  0.2069  0.1302
  302MOL0     N40685  11.577   5.827   1.398  0.0359  0.2870 -0.2237
  302MOL0     N40686  11.467   5.767   1.390  0.1815  0.0027 -0.5965
  302MOL0     C40687  10.533   5.561   2.003 -0.4759  0.7945 -0.9185
  302MOL0     C40688  10.431   5.510   2.096 -0.2910  0.0502  0.8582
  302MOL0     C40689  10.220   5.433   2.510 -0.4550  0.5625  0.4425
  302MOL0     C40690  10.156   5.511   2.611 -0.5167  0.3042  0.3909
  302MOL0     C40691  10.032   5.471   2.657  0.2001  0.2375 -0.0712
  302MOL0     C40692   9.969   5.354   2.612  0.6509  0.2622  0.1962
  302MOL0     O40693   9.850   5.326   2.679  0.2376 -0.4283 -0.7289
  302MOL0     C40694   9.832   5.184   2.701 -0.9190  0.1623 -0.1750
  302MOL0     C40695   9.938   5.133   2.795  0.2048  0.9470 -0.4910
  302MOL0     C40696  10.050   5.039   2.743 -0.8386 -0.5731  0.2038
  302MOL0     C40697   9.995   4.903   2.682  0.2687 -0.3638 -0.1523
  302MOL0     C40698   9.979   4.907   2.539  0.0445  0.3758 -0.1814
  302MOL0     C40699   9.965   4.914   2.422 -0.3168  0.4277  0.5782
  302MOL0     C40700  10.029   5.281   2.516  0.0607 -0.0008  0.3247
  302MOL0     C40701  10.154   5.312   2.473  0.1592 -0.0348  1.1034
  302MOL0     C40702  10.220   5.215   2.379 -0.4857  0.2563  0.0029
  302MOL0     H40703  10.612   5.546   2.378 -3.8701 -3.3370  1.2620
  302MOL0     H40704  10.766   5.666   2.231 -0.3362  0.8226 -0.0418
  302MOL0     H40705  10.734   5.591   1.782 -3.1777  0.3717 -1.7335
  302MOL0     H40706  10.626   5.728   1.806 -2.4420 -2.3290  2.1534
  302MOL0     H40707  10.936   5.737   1.787  1.2091  2.4867  2.9578
  302MOL0     H40708  10.827   5.874   1.823 -1.9708  0.6739 -0.3246
  302MOL0     H40709  10.698   5.792   1.592  0.2204 -3.9972 -1.4038
  302MOL0     H40710  10.848   5.719   1.566 -2.1685 -1.2342  0.6243
  302MOL0     H40711  10.787   6.020   1.608 -0.1986  0.0577  0.3969
  302MOL0     H40712  10.953   5.968   1.621 -0.7391 -0.5870  1.8155
  302MOL0     H40713  10.791   5.960   1.366 -0.9398  1.2358  0.9918
  302MOL0     H40714  10.927   6.062   1.411  1.0489 -0.0451 -2.7806
  302MOL0     H40715  10.966   5.756   1.362  4.2516 -0.7038  0.1381
  302MOL0     H40716  10.974   5.872   1.246 -1.1802 -1.1511  0.6140
  302MOL0     H40717  11.139   5.847   1.512  0.4491  0.3816 -0.8615
  302MOL0     H40718  11.154   5.989   1.397 -1.7245  1.0105 -1.0625
  302MOL0     H40719  11.229   5.692   1.360  0.1750 -0.0745  0.6842
  302MOL0     H40720  11.201   5.811   1.222 -1.1838  1.8257  0.4215
  302MOL0     H40721  11.374   6.048   1.260 -1.6853 -2.8248 -2.7861
  302MOL0     H40722  11.601   6.152   1.404 -2.0683 -1.4096 -1.9629
  302MOL0     H40723  11.732   6.022   1.428 -0.0998 -0.5227  1.1266
  302MOL0     H40724  11.600   6.121   1.159  0.7350  2.1052 -1.2259
  302MOL0     H40725  11.726   6.211   1.226 -1.9245  0.2983  0.6165
  302MOL0     H40726  11.796   6.046   1.049  1.3809  4.9313  1.3252
  302MOL0     H40727  11.739   5.914   1.148  1.2818  0.3459  2.6926
  302MOL0     H40728  11.972   5.933   1.159 -1.7449 -1.7206 -0.8536
  302MOL0     H40729  11.924   5.971   1.325  0.0809 -0.2589  0.0220
  302MOL0     H40730  12.179   5.970   1.338 -0.0358  0.4534  0.6116
  302MOL0     H40731  12.394   5.918   1.274  0.9555  0.9745  0.3133
  302MOL0     H40732  12.746   5.794   0.992  1.7660 -1.0732 -0.6312
  302MOL0     H40733  12.993   5.799   0.939 -1.9282 -0.5015  1.1189
  302MOL0     H40734  13.185   6.186   1.027  0.0656 -0.9936 -1.5205
  302MOL0     H40735  13.275   6.082   1.147 -0.8886  0.8477  0.1818
  302MOL0     H40736  13.328   6.156   0.864 -2.3781  0.3967  0.2833
  302MOL0     H40737  13.408   6.193   1.020 -2.6442  0.0219  1.4395
  302MOL0     H40738  13.482   5.962   1.048  1.1737 -0.1171 -0.1558
  302MOL0     H40739  13.424   5.929   0.883 -2.4401 -0.0882  2.1909
  302MOL0     H40740  13.638   6.120   0.978  0.6268  0.8982 -1.1113
  302MOL0     H40741  13.566   6.132   0.816  1.9841  0.7902  0.5190
  302MOL0     H40742  13.634   5.886   0.812 -0.0731 -0.0062 -0.7673
  302MOL0     H40743  13.740   5.912   0.941 -1.0546  2.0781  0.5002
  302MOL0     H40744  13.761   6.078   0.688  1.0717 -2.2069 -2.5475
  302MOL0     H40745  13.889   6.067   0.809 -2.7224  2.8936  0.8787
  302MOL0     H40746  13.919   5.938   0.592 -3.1224  2.9508 -0.9054
  302MOL0     H40747  13.800   5.829   0.666  0.0531 -0.9647  1.2501
  302MOL0     H40748  14.072   5.909   0.764 -0.7052  0.0100  0.0194
  302MOL0     H40749  13.978   5.782   0.850  0.7757 -1.0744 -1.3250
  302MOL0     H40750  13.025   6.166   1.163 -0.5371 -0.2165 -0.3908
  302MOL0     H40751  12.788   6.163   1.208 -3.4294  0.5221 -2.4657
  302MOL0     H40752  12.348   6.212   0.945  0.5977 -1.9773 -0.6432
  302MOL0     H40753  12.123   6.248   1.027  0.3644  0.2838 -0.5144
  302MOL0     H40754  10.509   5.544   1.899  2.1486  0.7707 -1.6080
  302MOL0     H40755  10.341   5.459   2.062  0.5554 -1.0581  0.1959
  302MOL0     H40756  10.197   5.609   2.634 -0.6687  0.2611  0.8663
  302MOL0     H40757   9.970   5.532   2.721 -1.1443 -0.8001 -0.3350
  302MOL0     H40758   9.843   5.136   2.603  2.4473  1.6252 -0.6676
  302MOL0     H40759   9.733   5.155   2.738 -0.6764 -1.9007 -1.0281
  302MOL0     H40760   9.896   5.076   2.879 -0.1937 -1.6521 -2.3008
  302MOL0     H40761   9.979   5.219   2.848 -1.8843  0.0953  2.8047
  302MOL0     H40762  10.129   5.018   2.816 -3.4789  0.1800  3.5418
  302MOL0     H40763  10.101   5.092   2.662  0.8173  2.3388  2.9530
  302MOL0     H40764  10.066   4.824   2.710  0.2194  0.0886  1.3213
  302MOL0     H40765   9.905   4.881   2.740  1.7413 -0.4246  2.2317
  302MOL0     H40766   9.947   4.919   2.316  1.0981  0.0912  0.3012
  302MOL0     H40767   9.977   5.199   2.467  0.3653  0.5534 -0.9812
  302MOL0     H40768  10.178   5.114   2.385 -0.2585  0.1209 -0.5836
  302MOL0     H40769  10.216   5.242   2.273 -0.9955  3.3565  0.7309
  302MOL0     H40770  10.326   5.210   2.406  0.0507 -2.2759 -2.0911
  303MOL0     O40771   4.977   5.395   0.331  0.5251  0.0392 -0.4133
  303MOL0     C40772   4.922   5.396   0.445  0.6409 -0.2727  0.2989
  303MOL0     O40773   4.989   5.403   0.564 -0.4008 -0.4571  0.2812
  303MOL0     C40774   5.120   5.440   0.560  0.5820  0.7536  0.1114
  303MOL0     C40775   5.162   5.567   0.568 -0.0097 -1.0385 -0.3354
  303MOL0     C40776   5.300   5.611   0.575 -0.1532 -0.0298 -0.2297
  303MOL0     C40777   5.396   5.509   0.557  0.7689 -1.0072 -0.4952
  303MOL0     O40778   5.527   5.537   0.558  0.2867  0.2054 -0.0003
  303MOL0     C40779   5.574   5.672   0.540 -0.7524  0.0235  0.0857
  303MOL0     C40780   5.725   5.677   0.557 -0.5090 -0.5076  1.2360
  303MOL0     C40781   5.786   5.817   0.526  0.2858 -0.6508  0.0051
  303MOL0     C40782   5.771   5.858   0.373 -0.5004 -0.6633 -0.7494
  303MOL0     C40783   5.855   5.981   0.339  0.2570 -0.4954  0.0091
  303MOL0     C40784   5.773   6.078   0.250 -0.5847 -0.3971 -0.3007
  303MOL0     C40785   5.874   6.183   0.209  0.4620 -0.4329  0.6951
  303MOL0     C40786   5.808   6.292   0.135  0.7835  0.0700  0.6344
  303MOL0     N40787   5.907   6.390   0.095 -0.6700 -1.2321  0.8778
  303MOL0     C40788   5.978   6.389  -0.024  0.4413 -0.3535  0.4845
  303MOL0     C40789   6.045   6.509  -0.021  0.6210 -0.1284 -0.3540
  303MOL0     C40790   6.162   6.525  -0.110 -0.4548 -0.0049  0.0633
  303MOL0     C40791   6.119   6.515  -0.254  0.3219  0.9231  0.1008
  303MOL0     C40792   6.228   6.559  -0.344  0.8818  0.0349 -0.7408
  303MOL0     C40793   6.196   6.548  -0.496 -0.3697 -0.0440  0.8933
  303MOL0     O40794   6.196   6.414  -0.548  0.0952  0.3087 -0.9338
  303MOL0     C40795   6.074   6.359  -0.569  0.1551  0.6533  0.4047
  303MOL0     C40796   6.078   6.232  -0.635  0.2765  0.7761  0.1018
  303MOL0     C40797   5.967   6.155  -0.663 -1.1269 -0.1212  0.0480
  303MOL0     C40798   5.841   6.220  -0.638 -0.2811  0.1132 -0.3899
  303MOL0     C40799   5.715   6.152  -0.667 -0.3608 -0.1852 -0.6055
  303MOL0     O40800   5.600   6.188  -0.591 -0.9090 -0.9088 -0.1444
  303MOL0     C40801   5.476   6.148  -0.641 -0.0879 -0.7128 -0.0187
  303MOL0     C40802   5.408   6.226  -0.731  0.1602 -0.6225  0.1787
  303MOL0     C40803   5.291   6.200  -0.786  1.3210 -0.6625 -0.0052
  303MOL0     C40804   5.231   6.072  -0.770 -0.0457  0.5627 -0.5056
  303MOL0     O40805   5.108   6.034  -0.813  0.0556  0.2567  0.1152
  303MOL0     C40806   5.070   6.071  -0.947  0.1057 -0.0051 -1.1305
  303MOL0     C40807   4.927   6.018  -0.965  0.7496  0.7191  0.0247
  303MOL0     C40808   4.922   5.869  -0.946 -0.4000 -0.0783 -0.9243
  303MOL0     C40809   4.778   5.822  -0.981 -0.5539 -0.1570 -0.3833
  303MOL0     C40810   4.735   5.692  -0.933 -1.3722 -0.5594 -0.4100
  303MOL0     C40811   4.603   5.651  -0.971  0.4604 -0.0306 -0.5530
  303MOL0     C40812   4.594   5.612  -1.120  0.1895  0.5664 -0.6506
  303MOL0     C40813   4.470   5.535  -1.152  0.0089 -0.3825 -0.0909
  303MOL0    Cl40814   4.491   5.482  -1.334  0.2879 -0.0917 -0.4113
  303MOL0     C40815   5.308   5.978  -0.698  0.6732 -0.2633 -0.3879
  303MOL0     C40816   5.426   6.016  -0.629  0.2538  0.5352 -0.2662
  303MOL0     O40817   5.710   6.072  -0.764  0.3873  0.1564  0.0048
  303MOL0     C40818   5.838   6.344  -0.577  0.6938  0.6622  0.5571
  303MOL0     C40819   5.947   6.417  -0.539  0.0849  0.9771  0.3788
  303MOL0     N40820   6.019   6.567   0.104 -0.1674  0.1628 -0.9573
  303MOL0     N40821   5.930   6.502   0.163 -0.3203  0.6084 -0.4443
  303MOL0     C40822   5.357   5.378   0.533  0.4014  0.0088 -1.4970
  303MOL0     C40823   5.221   5.344   0.551 -0.3522  0.6584  0.2629
  303MOL0     C40824   4.775   5.366   0.452 -0.3583 -0.6480  0.6175
  303MOL0     C40825   4.732   5.297   0.566 -0.5470  0.4764  0.3507
  303MOL0     C40826   4.601   5.248   0.590 -0.2994 -0.0331 -0.4452
  303MOL0     C40827   4.513   5.255   0.485 -0.6014 -0.1608 -1.0738
  303MOL0     O40828   4.383   5.214   0.498  0.0900  0.2563  0.5579
  303MOL0     C40829   4.345   5.116   0.604  0.2675  0.1596  0.2981
  303MOL0     C40830   4.211   5.054   0.589 -0.5663  0.1691  0.4381
  303MOL0     C40831   4.091   5.155   0.546 -0.0800  0.6786 -0.1165
  303MOL0     C40832   3.950   5.089   0.551 -0.4043  0.2785 -0.1305
  303MOL0     C40833   3.920   4.996   0.656 -0.7481 -0.8730  0.5714
  303MOL0     C40834   3.875   4.926   0.738  0.0427  0.4753 -0.1827
  303MOL0     C40835   4.548   5.316   0.365 -0.3458  0.4662 -0.3883
  303MOL0     C40836   4.681   5.380   0.345 -0.8011  0.9526 -0.2274
  303MOL0     C40837   4.709   5.435   0.207  0.1004 -0.0249 -0.0092
  303MOL0     H40838   5.080   5.637   0.579  0.7137 -0.2033 -0.0460
  303MOL0     H40839   5.317   5.716   0.597 -2.3053  0.5284 -1.0059
  303MOL0     H40840   5.534   5.710   0.446 -1.3309 -1.9745 -0.5152
  303MOL0     H40841   5.533   5.731   0.623  1.6257  2.5500 -0.3979
  303MOL0     H40842   5.777   5.608   0.490 -0.1693  0.7022  0.2098
  303MOL0     H40843   5.754   5.644   0.658  2.0675 -2.8258 -0.1244
  303MOL0     H40844   5.891   5.799   0.554  0.2006 -2.6382 -0.7613
  303MOL0     H40845   5.743   5.895   0.590  0.2702 -0.5370 -0.1444
  303MOL0     H40846   5.798   5.776   0.306  0.1724 -0.1722 -1.0813
  303MOL0     H40847   5.667   5.886   0.353 -0.5513  0.0020  0.3336
  303MOL0     H40848   5.896   6.031   0.427  2.4880 -2.6511  0.3176
  303MOL0     H40849   5.951   5.950   0.296 -1.3666  0.8145 -5.3487
  303MOL0     H40850   5.743   6.032   0.156 -2.3950  0.6266 -0.2601
  303MOL0     H40851   5.699   6.116   0.321  1.1358  0.3585  1.1819
  303MOL0     H40852   5.935   6.145   0.126  2.7446  0.7450  1.7615
  303MOL0     H40853   5.931   6.230   0.290  3.5205  1.3169 -2.1994
  303MOL0     H40854   5.754   6.258   0.047 -0.0169  1.5517  0.5133
  303MOL0     H40855   5.736   6.346   0.198  0.4396  0.9587 -0.4834
  303MOL0     H40856   5.991   6.310  -0.098 -2.5361  0.7453 -1.4046
  303MOL0     H40857   6.206   6.625  -0.102  0.1166 -0.2371 -0.1635
  303MOL0     H40858   6.236   6.446  -0.098  1.7046  2.0018  0.5769
  303MOL0     H40859   6.099   6.412  -0.284 -0.0365  1.5225 -1.8492
  303MOL0     H40860   6.024   6.567  -0.274 -0.7326 -0.5477  1.0678
  303MOL0     H40861   6.309   6.490  -0.319  0.7919  0.1007 -0.2486
  303MOL0     H40862   6.272   6.654  -0.315  2.6028 -1.6202  2.7079
  303MOL0     H40863   6.278   6.597  -0.551 -1.6432  0.6073 -0.4874
  303MOL0     H40864   6.105   6.605  -0.514  0.3127  0.0241 -3.3942
  303MOL0     H40865   6.169   6.190  -0.676 -1.4120 -2.0432 -1.0605
  303MOL0     H40866   5.968   6.054  -0.701 -2.8818 -0.4494  0.7633
  303MOL0     H40867   5.453   6.324  -0.726  1.3387 -1.1637  0.6533
  303MOL0     H40868   5.243   6.284  -0.835  0.4929 -0.8474  0.4728
  303MOL0     H40869   5.062   6.180  -0.941  0.4425 -0.0652  1.7192
  303MOL0     H40870   5.141   6.022  -1.014 -0.2151 -0.2897 -1.2689
  303MOL0     H40871   4.870   6.073  -0.890  0.8491  2.7001 -1.2690
  303MOL0     H40872   4.887   6.042  -1.064 -3.1567 -2.1845  0.6525
  303MOL0     H40873   5.011   5.822  -0.988  3.7617  3.8803  2.4281
  303MOL0     H40874   4.942   5.855  -0.839  1.9826 -0.7289 -1.4107
  303MOL0     H40875   4.780   5.807  -1.090 -1.9695  0.0680 -0.4632
  303MOL0     H40876   4.705   5.900  -0.958 -3.5817 -2.6643 -0.7919
  303MOL0     H40877   4.734   5.699  -0.824  0.2551 -2.3034 -0.2453
  303MOL0     H40878   4.812   5.622  -0.966  0.5038  1.5020 -0.6096
  303MOL0     H40879   4.581   5.568  -0.903 -2.8966  1.0228 -0.1665
  303MOL0     H40880   4.527   5.725  -0.943  0.9325  0.3071 -0.1513
  303MOL0     H40881   4.684   5.558  -1.152  0.1112  0.2621 -0.3576
  303MOL0     H40882   4.587   5.706  -1.176 -1.2075  0.3409 -0.8795
  303MOL0     H40883   4.459   5.448  -1.087 -0.3374 -0.9125 -0.8378
  303MOL0     H40884   4.396   5.613  -1.134  2.0285  1.6837 -0.3380
  303MOL0     H40885   5.261   5.880  -0.702  0.8991 -0.3906  0.0229
  303MOL0     H40886   5.470   5.942  -0.564 -0.8888  1.5739  1.7815
  303MOL0     H40887   5.737   6.383  -0.567  0.5154  0.2533  0.3535
  303MOL0     H40888   5.935   6.504  -0.477 -1.2891  0.2856  1.1327
  303MOL0     H40889   5.433   5.304   0.512  1.1727  0.9288 -2.0089
  303MOL0     H40890   5.188   5.241   0.540  1.0378  0.4430 -3.2471
  303MOL0     H40891   4.787   5.287   0.659 -0.1386 -0.4546  0.0257
  303MOL0     H40892   4.569   5.222   0.691  1.3958  1.6508  0.5921
  303MOL0     H40893   4.353   5.170   0.699  0.6236 -0.5669  0.6938
  303MOL0     H40894   4.421   5.037   0.611  1.3680  1.0966 -0.6266
  303MOL0     H40895   4.190   5.012   0.687  1.1278 -2.5188 -0.2505
  303MOL0     H40896   4.218   4.972   0.516  1.0136 -1.2621  2.1221
  303MOL0     H40897   4.113   5.181   0.442  1.5364  1.3307  0.3524
  303MOL0     H40898   4.097   5.240   0.615  0.4691  0.9081 -0.4315
  303MOL0     H40899   3.881   5.174   0.557  1.1940  1.5696  0.7715
  303MOL0     H40900   3.933   5.020   0.467  0.3299 -0.6088  0.4335
  303MOL0     H40901   3.841   4.864   0.818  0.4531  0.4573 -0.0172
  303MOL0     H40902   4.487   5.311   0.275 -0.3663 -0.0123 -0.3508
  303MOL0     H40903   4.738   5.353   0.141  0.4689 -1.7352  2.1515
  303MOL0     H40904   4.615   5.473   0.166  0.5197  0.0490 -0.9304
  303MOL0     H40905   4.786   5.513   0.199 -3.0296  3.1591 -2.4641
  304MOL0     O40906   1.936   5.246   7.892  0.4187 -0.1697 -0.8255
  304MOL0     C40907   2.044   5.299   7.931 -0.2627  0.5125 -0.8043
  304MOL0     O40908   2.057   5.430   7.972 -0.4658 -0.0441 -0.2070
  304MOL0     C40909   1.951   5.507   7.962 -0.2473 -0.2546 -0.0717
  304MOL0     C40910   1.824   5.479   8.030 -0.0587 -1.0987 -0.9754
  304MOL0     C40911   1.732   5.578   8.006  0.9946 -0.8514  0.4215
  304MOL0     C40912   1.744   5.687   7.916 -0.8816 -0.2574 -1.0768
  304MOL0     O40913   1.629   5.761   7.886 -0.0919  0.9187  0.2940
  304MOL0     C40914   1.588   5.865   7.970 -0.3824  0.3519 -0.0823
  304MOL0     C40915   1.465   5.938   7.913 -0.3537  0.9626 -0.0657
  304MOL0     C40916   1.503   5.977   7.767  0.2883  0.5268 -0.8122
  304MOL0     C40917   1.378   6.045   7.703 -0.5123 -0.2392 -0.4597
  304MOL0     C40918   1.413   6.138   7.584  0.6495 -0.4310 -0.6802
  304MOL0     C40919   1.429   6.059   7.458 -0.5457  0.6428 -0.5478
  304MOL0     C40920   1.438   6.151   7.336  0.5768 -0.2421 -0.4582
  304MOL0     C40921   1.487   6.070   7.212 -0.0978  0.5124 -0.2100
  304MOL0     N40922   1.545   6.159   7.105 -0.0879  0.2055 -1.0373
  304MOL0     C40923   1.524   6.157   6.972  0.2612  0.4162  0.6004
  304MOL0     C40924   1.602   6.253   6.920 -0.3369  0.0211 -0.0780
  304MOL0     C40925   1.655   6.268   6.779 -0.2801  0.8136 -0.2214
  304MOL0     C40926   1.759   6.158   6.761  0.5865  0.5423  0.2924
  304MOL0     C40927   1.811   6.165   6.614  0.6638  0.5184 -0.7644
  304MOL0     C40928   1.884   6.033   6.583  0.2733  0.2347 -0.1383
  304MOL0     O40929   1.806   5.913   6.591  0.0777 -0.4369 -0.1983
  304MOL0     C40930   1.881   5.801   6.604  0.7406 -0.3293  0.8236
  304MOL0     C40931   1.936   5.759   6.726  0.2511  0.1447  0.7295
  304MOL0     C40932   2.026   5.654   6.733 -0.4824 -0.0079  0.2374
  304MOL0     C40933   2.062   5.587   6.619  0.0578  0.9029 -0.5376
  304MOL0     C40934   2.151   5.471   6.628  0.7363 -0.1486  0.2067
  304MOL0     O40935   2.243   5.441   6.535 -0.1551 -0.3465 -0.2623
  304MOL0     C40936   2.330   5.339   6.557 -0.3465  0.5743 -0.0666
  304MOL0     C40937   2.280   5.208   6.565  0.4731  0.1037 -0.1248
  304MOL0     C40938   2.365   5.100   6.601 -0.4840  0.8671 -0.8421
  304MOL0     C40939   2.500   5.119   6.619 -0.7980  0.9532 -0.1941
  304MOL0     O40940   2.593   5.016   6.642  0.2333 -0.1653  0.7901
  304MOL0     C40941   2.568   4.874   6.629 -0.2441  0.4016 -0.1965
  304MOL0     C40942   2.700   4.808   6.611 -0.1151 -0.6984 -0.2908
  304MOL0     C40943   2.707   4.654   6.607 -0.3805 -0.0368  0.1484
  304MOL0     C40944   2.742   4.588   6.737 -0.2325 -0.4602 -0.3747
  304MOL0     C40945   2.802   4.445   6.720  0.1398  0.7398  0.8088
  304MOL0     C40946   2.943   4.426   6.658  0.6172  0.5662 -0.5072
  304MOL0     C40947   3.046   4.530   6.688  0.7969  0.3724  0.0711
  304MOL0     C40948   3.094   4.538   6.836  0.5562  1.0119 -0.5256
  304MOL0    Cl40949   3.235   4.431   6.861 -0.4902  0.0013  0.2028
  304MOL0     C40950   2.551   5.246   6.601  1.0268  0.9206  0.6504
  304MOL0     C40951   2.473   5.359   6.574  0.0522  0.2873 -0.0541
  304MOL0     O40952   2.126   5.403   6.724  0.2115 -0.7734 -0.4472
  304MOL0     C40953   2.008   5.624   6.494  0.3854  0.1424  0.6682
  304MOL0     C40954   1.921   5.731   6.490 -0.2948 -0.0070  0.5592
  304MOL0     N40955   1.657   6.321   7.022 -1.5950 -1.0811  1.4328
  304MOL0     N40956   1.633   6.261   7.129  0.4632 -0.3844 -0.6481
  304MOL0     C40957   1.866   5.717   7.851 -0.0570  0.3288  0.4260
  304MOL0     C40958   1.968   5.625   7.879 -1.2743 -0.7828 -0.5794
  304MOL0     C40959   2.165   5.217   7.939 -0.1219  0.2237  0.0305
  304MOL0     C40960   2.272   5.288   7.978 -0.1035  0.9870 -1.0174
  304MOL0     C40961   2.392   5.228   7.996 -1.0914  0.1831  0.5412
  304MOL0     C40962   2.408   5.094   7.988  0.2738 -0.1088 -0.0385
  304MOL0     O40963   2.530   5.039   8.021 -0.3861 -0.4786 -0.3279
  304MOL0     C40964   2.650   5.108   7.991  0.1469 -0.8700  1.0421
  304MOL0     C40965   2.669   5.113   7.838  0.4479  0.3426 -0.4285
  304MOL0     C40966   2.748   5.232   7.781  0.1789  0.3135 -1.7154
  304MOL0     C40967   2.892   5.221   7.837 -0.9018  0.0218  0.6717
  304MOL0     C40968   2.995   5.312   7.777  0.1410  0.6254  0.2448
  304MOL0     C40969   3.077   5.387   7.737  0.0108  0.9710  0.2546
  304MOL0     C40970   2.292   5.016   7.982  0.3754  0.1416  0.3148
  304MOL0     C40971   2.169   5.077   7.956 -0.4028  0.2230 -0.0336
  304MOL0     C40972   2.040   4.994   7.964  0.1570  0.1227  0.4514
  304MOL0     H40973   1.803   5.394   8.093 -1.9424 -0.6648 -0.9726
  304MOL0     H40974   1.634   5.582   8.053  0.8715  2.0770  0.1073
  304MOL0     H40975   1.568   5.828   8.071 -0.9562 -0.9238 -0.6320
  304MOL0     H40976   1.668   5.940   7.971  2.7207 -2.6214 -1.6560
  304MOL0     H40977   1.439   6.030   7.967 -3.1954  0.6047 -0.6880
  304MOL0     H40978   1.385   5.865   7.921  1.2311 -0.9051 -0.4419
  304MOL0     H40979   1.522   5.886   7.710  0.3297  0.1339 -0.1860
  304MOL0     H40980   1.598   6.030   7.767  0.1114  0.8448 -1.1664
  304MOL0     H40981   1.292   5.982   7.681 -0.1599 -0.8879 -0.0050
  304MOL0     H40982   1.331   6.101   7.784 -1.4699 -2.4415  0.5845
  304MOL0     H40983   1.332   6.209   7.566  2.3633  1.6365 -0.6830
  304MOL0     H40984   1.504   6.194   7.607  0.5488 -0.4601 -0.1920
  304MOL0     H40985   1.525   6.007   7.469 -2.0620 -2.2675 -0.1360
  304MOL0     H40986   1.346   5.990   7.443  0.7463 -1.4523  1.1633
  304MOL0     H40987   1.498   6.240   7.357 -0.6159  0.1018  1.7919
  304MOL0     H40988   1.339   6.190   7.310 -0.8876 -2.3337  1.5065
  304MOL0     H40989   1.567   6.004   7.246 -0.2090 -0.3658 -1.5820
  304MOL0     H40990   1.405   6.014   7.165  2.0808 -0.6921 -2.8889
  304MOL0     H40991   1.469   6.077   6.924  1.6289 -1.7293  2.3623
  304MOL0     H40992   1.571   6.258   6.709  0.3619  1.7588 -1.1528
  304MOL0     H40993   1.711   6.359   6.760 -1.7749  2.0009  0.7828
  304MOL0     H40994   1.838   6.154   6.837  0.2942  0.2744  0.5851
  304MOL0     H40995   1.701   6.066   6.775  1.9637 -0.1373  1.7824
  304MOL0     H40996   1.882   6.248   6.606  0.7683  0.3841 -1.2797
  304MOL0     H40997   1.728   6.177   6.544 -0.6819 -1.4087  0.4047
  304MOL0     H40998   1.973   6.021   6.645  0.0189 -1.2935 -0.0163
  304MOL0     H40999   1.931   6.046   6.484 -0.5610  3.4085 -0.2138
  304MOL0     H41000   1.926   5.823   6.814  0.0884  2.9881 -1.2327
  304MOL0     H41001   2.062   5.629   6.832 -0.1393 -0.5830 -0.0292
  304MOL0     H41002   2.174   5.189   6.551 -0.1393  3.1409 -0.2609
  304MOL0     H41003   2.321   5.001   6.608  0.5287  0.5030  2.7903
  304MOL0     H41004   2.505   4.840   6.711 -2.5438 -0.8384 -2.3183
  304MOL0     H41005   2.518   4.863   6.532  1.7866 -2.4337 -1.0360
  304MOL0     H41006   2.745   4.837   6.516 -1.7003 -1.0009 -1.1686
  304MOL0     H41007   2.767   4.841   6.691  0.6339  2.1133 -1.9149
  304MOL0     H41008   2.614   4.609   6.570 -2.1872  3.1562  0.4514
  304MOL0     H41009   2.783   4.641   6.529 -1.1287 -0.2448 -0.5537
  304MOL0     H41010   2.656   4.577   6.804 -0.9419 -1.4465 -1.3949
  304MOL0     H41011   2.818   4.634   6.800  0.3230 -3.0477  1.0177
  304MOL0     H41012   2.742   4.388   6.648  1.6352  0.3117 -0.1572
  304MOL0     H41013   2.801   4.400   6.819 -1.0190  0.5462  0.7245
  304MOL0     H41014   2.965   4.325   6.694  0.2252  0.1685 -1.3653
  304MOL0     H41015   2.920   4.409   6.553  0.0363  0.4773 -0.3693
  304MOL0     H41016   3.009   4.627   6.655  2.0590  0.4168 -1.3494
  304MOL0     H41017   3.135   4.516   6.626  1.4076  1.2493  0.7218
  304MOL0     H41018   3.110   4.644   6.858  0.1973  0.7612  1.1514
  304MOL0     H41019   3.013   4.506   6.903  0.4252  3.2987  0.5201
  304MOL0     H41020   2.658   5.259   6.616  1.0342  0.5815  0.9239
  304MOL0     H41021   2.513   5.457   6.552  1.7462  0.0687  1.6922
  304MOL0     H41022   2.033   5.559   6.411 -0.3375 -1.3271  1.5403
  304MOL0     H41023   1.883   5.755   6.391 -1.1608 -4.0130 -0.2955
  304MOL0     H41024   1.871   5.791   7.771 -3.1308  0.9501  0.7075
  304MOL0     H41025   2.059   5.628   7.820  0.7311  1.8178  2.2812
  304MOL0     H41026   2.271   5.397   7.975 -0.3889  0.9750 -3.7282
  304MOL0     H41027   2.481   5.285   8.023  0.1489 -0.8594 -1.2008
  304MOL0     H41028   2.741   5.057   8.024  0.2999 -2.4755 -1.5728
  304MOL0     H41029   2.659   5.205   8.041 -3.4729 -0.2420  0.7311
  304MOL0     H41030   2.571   5.117   7.790 -0.2748 -2.6066  0.6247
  304MOL0     H41031   2.718   5.021   7.806  2.0263  1.6342 -1.9935
  304MOL0     H41032   2.700   5.318   7.830  0.2420 -0.9813  0.7988
  304MOL0     H41033   2.734   5.226   7.673 -1.8429  2.0869 -1.6203
  304MOL0     H41034   2.887   5.229   7.946 -2.7196  1.0200  0.5497
  304MOL0     H41035   2.934   5.121   7.823  2.0722  1.1898  0.4459
  304MOL0     H41036   3.146   5.465   7.714  0.1457  0.3510 -1.6307
  304MOL0     H41037   2.297   4.909   8.000  1.7826  0.1955  0.3833
  304MOL0     H41038   2.017   4.958   7.863 -0.0026 -2.2914  1.2995
  304MOL0     H41039   2.065   4.901   8.016  2.4024  1.1134  1.2810
  304MOL0     H41040   1.954   5.042   8.011  0.2158  1.7546 -1.0020
  305MOL0     O41041   4.054   1.007  10.524  0.4100  0.9932  0.3469
  305MOL0     C41042   4.107   0.904  10.559  0.0309 -0.3927 -0.1675
  305MOL0     O41043   4.045   0.801  10.617 -0.3146  0.0908 -0.5080
  305MOL0     C41044   3.932   0.828  10.685  0.4090  0.4689 -0.3684
  305MOL0     C41045   3.939   0.876  10.819  0.0184  0.8368 -0.2064
  305MOL0     C41046   3.821   0.898  10.888  0.5975 -0.3043  0.7718
  305MOL0     C41047   3.697   0.868  10.828 -1.2793  0.4179  0.6693
  305MOL0     O41048   3.584   0.881  10.898  0.1242 -0.2056  0.1756
  305MOL0     C41049   3.549   1.017  10.883  0.4665  0.6000 -0.8146
  305MOL0     C41050   3.402   1.037  10.911  0.1580  0.3593 -0.2636
  305MOL0     C41051   3.354   1.179  10.908 -0.8943 -0.9115  0.2078
  305MOL0     C41052   3.205   1.190  10.944 -0.4324  0.4218  0.0725
  305MOL0     C41053   3.164   1.339  10.951 -0.4292  1.0473  0.9363
  305MOL0     C41054   3.039   1.362  11.035 -0.4107 -0.4893 -0.5552
  305MOL0     C41055   2.987   1.509  11.009  0.1744 -0.3262  0.2637
  305MOL0     C41056   2.867   1.551  11.080 -0.8276  0.0091  0.3508
  305MOL0     N41057   2.757   1.473  11.015 -0.0567 -0.3691 -0.9912
  305MOL0     C41058   2.726   1.342  11.045 -0.0029 -0.6771 -0.1602
  305MOL0     C41059   2.609   1.324  10.979  0.0639  0.5770  0.2369
  305MOL0     C41060   2.533   1.197  11.005  0.9459  0.1906  0.4383
  305MOL0     C41061   2.379   1.235  11.028 -0.0177  0.7055 -0.4596
  305MOL0     C41062   2.306   1.138  11.113 -1.0111 -0.4851  0.4836
  305MOL0     C41063   2.161   1.168  11.134  1.3226 -0.8302  0.8318
  305MOL0     O41064   2.106   1.194  10.999  0.4747 -0.5093  0.0453
  305MOL0     C41065   1.978   1.244  11.023 -1.0380 -0.2188 -0.3227
  305MOL0     C41066   1.956   1.375  11.047 -0.4836 -0.1360  0.4107
  305MOL0     C41067   1.837   1.435  11.071  0.5320 -0.5137 -0.6501
  305MOL0     C41068   1.718   1.361  11.074 -0.3447  0.0127  0.5553
  305MOL0     C41069   1.599   1.423  11.119 -0.5185 -0.3575 -0.4397
  305MOL0     O41070   1.473   1.380  11.074 -0.1548 -0.0645 -0.2745
  305MOL0     C41071   1.364   1.467  11.094 -0.3090  0.0265  0.6189
  305MOL0     C41072   1.248   1.400  11.095  0.3974 -0.4829 -0.8634
  305MOL0     C41073   1.123   1.468  11.085  0.2132 -0.2111  0.9258
  305MOL0     C41074   1.116   1.612  11.080 -0.4383 -0.0892 -0.3370
  305MOL0     O41075   1.007   1.693  11.075  0.2504 -0.3801  0.1781
  305MOL0     C41076   0.880   1.638  11.100  0.4362 -1.2241  0.0266
  305MOL0     C41077   0.836   1.674  11.245  0.4989 -0.0639  0.6695
  305MOL0     C41078   0.704   1.597  11.286  0.2482 -0.1591  0.2963
  305MOL0     C41079   0.581   1.675  11.251  0.6711 -0.1831 -0.0799
  305MOL0     C41080   0.453   1.606  11.291  0.6573  0.4437 -0.5045
  305MOL0     C41081   0.419   1.611  11.442 -0.1847 -0.1002 -0.1611
  305MOL0     C41082   0.418   1.758  11.494 -0.4547 -0.2261 -0.2744
  305MOL0     C41083   0.329   1.788  11.612  0.8873 -0.2368  0.0275
  305MOL0    Cl41084   0.324   1.963  11.648  0.2602 -0.3934  0.1339
  305MOL0     C41085   1.239   1.674  11.071  0.3513  0.0890 -0.0217
  305MOL0     C41086   1.360   1.609  11.085 -0.3561  0.1312  0.5984
  305MOL0     O41087   1.615   1.514  11.200  0.1133 -0.3229 -0.0777
  305MOL0     C41088   1.742   1.228  11.045  0.0510  0.8096 -1.1152
  305MOL0     C41089   1.864   1.169  11.021  0.0908 -0.0602 -0.1081
  305MOL0     N41090   2.574   1.437  10.902 -0.6084 -0.1394  0.3587
  305MOL0     N41091   2.670   1.528  10.928 -0.1755 -0.1967  0.2607
  305MOL0     C41092   3.692   0.815  10.697  0.7979  0.4401 -0.0388
  305MOL0     C41093   3.810   0.787  10.627 -0.2635 -0.1423  0.4395
  305MOL0     C41094   4.255   0.888  10.534 -0.0513 -0.3588  0.5548
  305MOL0     C41095   4.304   0.795  10.446 -0.4911 -0.7928  0.3902
  305MOL0     C41096   4.439   0.791  10.410  0.5181  0.4896  0.1711
  305MOL0     C41097   4.533   0.863  10.477 -0.0040  0.6500  0.8034
  305MOL0     O41098   4.672   0.857  10.457 -0.1239  0.5317  0.1641
  305MOL0     C41099   4.705   0.816  10.320  0.3664  0.1207 -0.7275
  305MOL0     C41100   4.860   0.838  10.286 -0.9880  0.3180 -0.2345
  305MOL0     C41101   4.906   0.986  10.301  0.9565  0.0584  0.5963
  305MOL0     C41102   5.052   1.027  10.308  0.3633 -0.3212  0.5442
  305MOL0     C41103   5.113   0.992  10.441  0.3897  0.2313 -0.0291
  305MOL0     C41104   5.166   0.962  10.546 -0.6641 -0.5515 -0.4287
  305MOL0     C41105   4.479   0.950  10.575  0.1276  0.3403  0.6009
  305MOL0     C41106   4.344   0.965  10.604  0.6715  0.0614  0.3161
  305MOL0     C41107   4.304   1.040  10.731 -0.0850 -0.9347 -0.1593
  305MOL0     H41108   4.023   0.907  10.880  1.5256 -2.6513 -0.3103
  305MOL0     H41109   3.838   0.937  10.988  0.1368 -0.8204  1.0570
  305MOL0     H41110   3.598   1.071  10.964  0.7689 -0.5989 -0.1742
  305MOL0     H41111   3.565   1.070  10.788  0.6575  1.3694 -0.3653
  305MOL0     H41112   3.371   0.998  11.008  0.0780  1.8981  0.3410
  305MOL0     H41113   3.343   0.983  10.835  0.9604 -3.8993  1.7998
  305MOL0     H41114   3.358   1.210  10.803  0.5980 -1.8995 -0.0449
  305MOL0     H41115   3.416   1.228  10.984 -2.8008  1.5433  0.3448
  305MOL0     H41116   3.136   1.147  10.871 -0.1002  0.2712 -0.1576
  305MOL0     H41117   3.184   1.150  11.044  0.0695  1.2999  0.5403
  305MOL0     H41118   3.240   1.402  10.998  0.4877  0.6416  0.0351
  305MOL0     H41119   3.153   1.361  10.845 -0.5797  3.1561  1.3376
  305MOL0     H41120   2.961   1.291  11.006 -1.5928 -0.0300  1.3090
  305MOL0     H41121   3.067   1.354  11.141  1.5829  0.8943 -0.9368
  305MOL0     H41122   2.963   1.519  10.903 -2.2210  0.5385  0.8187
  305MOL0     H41123   3.066   1.582  11.032  0.6119 -0.7317  0.0478
  305MOL0     H41124   2.874   1.524  11.186 -0.6809 -0.8197  0.1378
  305MOL0     H41125   2.847   1.658  11.071 -2.1859 -0.2505  0.0485
  305MOL0     H41126   2.779   1.276  11.112 -0.8269 -0.7326  0.4553
  305MOL0     H41127   2.534   1.144  10.909 -0.5086 -0.5853  0.8191
  305MOL0     H41128   2.580   1.125  11.071 -0.4775 -2.5934 -1.3862
  305MOL0     H41129   2.378   1.332  11.078  1.9450  1.0482 -0.9727
  305MOL0     H41130   2.333   1.257  10.931  1.8270  1.9190 -1.1074
  305MOL0     H41131   2.354   1.120  11.209 -0.6168 -0.1920  0.3456
  305MOL0     H41132   2.325   1.046  11.056  0.6146  1.0908 -1.7351
  305MOL0     H41133   2.157   1.250  11.206 -1.3088  0.7703 -0.9856
  305MOL0     H41134   2.107   1.080  11.171 -0.5096 -0.2095 -0.2281
  305MOL0     H41135   2.046   1.436  11.047  0.9738 -2.1805  0.4701
  305MOL0     H41136   1.839   1.540  11.098  0.9622 -0.3144 -1.4099
  305MOL0     H41137   1.253   1.294  11.120  0.2297 -0.7762 -2.0252
  305MOL0     H41138   1.036   1.403  11.083  1.6202 -2.2807  2.3218
  305MOL0     H41139   0.815   1.686  11.026  3.9119  1.4144 -1.6095
  305MOL0     H41140   0.869   1.529  11.091 -0.9660 -1.0081 -1.3383
  305MOL0     H41141   0.917   1.635  11.307  0.2845 -1.9357 -0.1675
  305MOL0     H41142   0.824   1.781  11.266 -0.4599 -0.0372  0.0703
  305MOL0     H41143   0.701   1.505  11.228  0.1351 -0.8446  1.3732
  305MOL0     H41144   0.703   1.561  11.389 -2.5760  0.3094  0.5156
  305MOL0     H41145   0.578   1.688  11.143  0.0490 -0.8294 -0.1491
  305MOL0     H41146   0.586   1.778  11.288 -3.1700 -0.6358  2.2851
  305MOL0     H41147   0.458   1.501  11.262 -0.8231  0.2097 -0.0315
  305MOL0     H41148   0.372   1.654  11.236 -3.1767 -3.2812  1.3024
  305MOL0     H41149   0.320   1.567  11.461 -0.9768  0.6512 -2.2274
  305MOL0     H41150   0.483   1.540  11.495 -0.7595  1.8841  3.5498
  305MOL0     H41151   0.379   1.826  11.417  0.6773  1.5915  0.6631
  305MOL0     H41152   0.522   1.787  11.510  0.2444 -3.6548  2.6022
  305MOL0     H41153   0.236   1.744  11.575  0.8317  0.0370 -0.1606
  305MOL0     H41154   0.366   1.736  11.701  2.3427  0.1339 -0.3311
  305MOL0     H41155   1.232   1.782  11.080 -0.2280  0.1789 -1.2631
  305MOL0     H41156   1.449   1.663  11.056 -1.3443  0.7271 -1.5589
  305MOL0     H41157   1.657   1.160  11.044  1.2190 -0.8900  2.0776
  305MOL0     H41158   1.868   1.062  11.002 -2.9054 -0.2915  0.0176
  305MOL0     H41159   3.592   0.786  10.664  0.1144  2.0911  0.5155
  305MOL0     H41160   3.789   0.765  10.523  1.3076  0.1424  0.0290
  305MOL0     H41161   4.243   0.719  10.397  1.2819 -0.4317 -2.6274
  305MOL0     H41162   4.473   0.719  10.337 -0.4775 -2.2431  2.2144
  305MOL0     H41163   4.644   0.864  10.243  1.1679  1.7049 -0.4184
  305MOL0     H41164   4.698   0.707  10.320 -1.7913  0.1281  2.1270
  305MOL0     H41165   4.886   0.804  10.185  0.8785 -2.0453  0.9395
  305MOL0     H41166   4.909   0.761  10.346 -2.8701 -2.6979 -2.2554
  305MOL0     H41167   4.858   1.027  10.391  3.5545  1.8663  1.2713
  305MOL0     H41168   4.869   1.048  10.219  4.1240  0.4324 -0.6861
  305MOL0     H41169   5.106   0.972  10.230  2.3009  0.8079  1.0124
  305MOL0     H41170   5.074   1.131  10.285 -0.6540 -0.2588 -0.2275
  305MOL0     H41171   5.226   0.933  10.630  1.0087 -1.8662 -1.9995
  305MOL0     H41172   4.547   1.023  10.620 -0.7578  0.7800  1.2542
  305MOL0     H41173   4.242   1.128  10.709  1.2038  0.4256  1.3613
  305MOL0     H41174   4.226   0.986  10.786  1.3819 -0.1895  2.8823
  305MOL0     H41175   4.388   1.077  10.790 -1.4111  1.6164  0.2830
  306MOL0     O41176   0.617   3.707   2.323  0.6311  0.3223  0.0349
  306MOL0     C41177   0.564   3.811   2.314 -0.6558 -0.3531  0.4058
  306MOL0     O41178   0.630   3.930   2.292  0.1822 -0.3008  0.1072
  306MOL0     C41179   0.759   3.947   2.256 -0.5401 -0.1936 -0.3865
  306MOL0     C41180   0.849   3.851   2.210  0.6808 -0.3749  0.8864
  306MOL0     C41181   0.984   3.889   2.189  0.9616 -0.1921 -0.5659
  306MOL0     C41182   1.029   4.017   2.207 -0.2927  0.6052  0.7325
  306MOL0     O41183   1.156   4.042   2.170 -0.0800 -0.0080  0.6434
  306MOL0     C41184   1.226   4.147   2.235 -0.8649 -1.5440 -0.0579
  306MOL0     C41185   1.379   4.142   2.217  0.7382 -0.6764 -0.0127
  306MOL0     C41186   1.435   4.003   2.246 -0.4118 -0.2681  0.2353
  306MOL0     C41187   1.596   4.007   2.258 -0.1705  0.5795 -0.4243
  306MOL0     C41188   1.652   3.870   2.295 -0.4422  0.2596 -0.2906
  306MOL0     C41189   1.796   3.868   2.324  0.1755 -0.2646 -0.4816
  306MOL0     C41190   1.843   3.725   2.351  0.0087 -0.9440  0.1385
  306MOL0     C41191   1.807   3.675   2.494  0.0937  0.0983  0.8059
  306MOL0     N41192   1.839   3.759   2.603 -0.6074 -0.4006 -0.4824
  306MOL0     C41193   1.962   3.760   2.673  0.0715 -0.6211  0.3673
  306MOL0     C41194   1.939   3.842   2.780 -1.3400 -0.3724  0.8368
  306MOL0     C41195   2.034   3.886   2.883 -0.3380 -0.0380 -0.2869
  306MOL0     C41196   2.095   4.023   2.840 -0.1617 -0.1949  0.7454
  306MOL0     C41197   2.211   4.084   2.920  0.0728  0.6107  0.0078
  306MOL0     C41198   2.338   4.071   2.836  0.1832 -0.5883 -0.2842
  306MOL0     O41199   2.457   4.069   2.909 -0.4507  0.0378 -0.4274
  306MOL0     C41200   2.551   4.161   2.896  0.3409 -0.5653 -0.6287
  306MOL0     C41201   2.526   4.285   2.831 -0.1412 -0.1307  0.5022
  306MOL0     C41202   2.636   4.375   2.815 -0.0438 -0.5267 -0.0277
  306MOL0     C41203   2.766   4.347   2.861 -0.4155  0.2393 -0.8474
  306MOL0     C41204   2.882   4.437   2.850  0.5694 -1.0889  0.5578
  306MOL0     O41205   3.008   4.391   2.878  0.5662  0.4666 -0.1901
  306MOL0     C41206   3.118   4.474   2.880  0.2653  0.8881 -0.7395
  306MOL0     C41207   3.141   4.592   2.808  0.8143  0.5715  0.5699
  306MOL0     C41208   3.254   4.661   2.814 -0.3345 -0.5048  0.3889
  306MOL0     C41209   3.360   4.616   2.890 -0.0012  0.5582 -0.6848
  306MOL0     O41210   3.483   4.680   2.883  0.4141  0.2149 -0.1927
  306MOL0     C41211   3.557   4.704   3.001 -0.1955  0.0144 -0.4423
  306MOL0     C41212   3.687   4.780   2.969 -0.2750  0.0606  0.0797
  306MOL0     C41213   3.640   4.927   2.945  0.2020 -0.2756  0.4450
  306MOL0     C41214   3.742   5.035   2.918  0.1849 -0.7618  0.6805
  306MOL0     C41215   3.834   5.066   3.035  1.3785  0.0490 -1.1453
  306MOL0     C41216   3.908   5.198   3.013 -0.0800  0.0833 -0.1030
  306MOL0     C41217   4.034   5.218   3.109  0.3523  0.6987 -0.3516
  306MOL0     C41218   4.120   5.354   3.098 -0.9818 -0.1341  0.2354
  306MOL0    Cl41219   4.197   5.335   2.936  0.1703 -0.0622 -0.0090
  306MOL0     C41220   3.346   4.506   2.967  0.9900 -0.4272  0.3301
  306MOL0     C41221   3.224   4.427   2.961 -0.6110  0.1933 -0.3740
  306MOL0     O41222   2.858   4.555   2.810  0.7064  0.9848  0.0782
  306MOL0     C41223   2.780   4.236   2.938 -0.5737 -0.0784 -0.7073
  306MOL0     C41224   2.678   4.146   2.952 -0.4633  0.2948  0.2004
  306MOL0     N41225   1.801   3.875   2.786 -0.1868  0.2660  0.5047
  306MOL0     N41226   1.750   3.830   2.671  1.0566  0.2775  0.2760
  306MOL0     C41227   0.940   4.117   2.246  0.0619  0.8264  0.4185
  306MOL0     C41228   0.806   4.085   2.270 -0.1552 -0.2340 -1.0373
  306MOL0     C41229   0.416   3.825   2.350 -0.6930 -0.2819 -0.4128
  306MOL0     C41230   0.383   3.922   2.445  0.3036 -0.5270  0.2923
  306MOL0     C41231   0.251   3.946   2.485  0.5062 -0.5453 -0.4371
  306MOL0     C41232   0.149   3.878   2.408 -0.4487  0.3205  0.0639
  306MOL0     O41233   0.019   3.907   2.436  0.1310  0.2886 -0.0235
  306MOL0     C41234  -0.060   3.933   2.322 -0.3261  0.1948  0.4776
  306MOL0     C41235  -0.173   4.020   2.345 -0.2370 -0.5693  0.8350
  306MOL0     C41236  -0.256   3.982   2.460  0.5113 -0.1795  0.3939
  306MOL0     C41237  -0.387   4.047   2.470 -0.7479  0.1831 -0.3961
  306MOL0     C41238  -0.465   4.034   2.354  0.0887  0.4678  0.3526
  306MOL0     C41239  -0.527   4.010   2.252  0.1670 -0.2523  0.7378
  306MOL0     C41240   0.182   3.774   2.311  0.2140 -0.8246 -0.2558
  306MOL0     C41241   0.317   3.741   2.289 -0.0228  0.0368  0.1661
  306MOL0     C41242   0.345   3.658   2.176 -0.2327  0.9410 -0.2042
  306MOL0     H41243   0.819   3.751   2.180 -3.8181  0.7656  0.8322
  306MOL0     H41244   1.052   3.810   2.161  2.0672  0.9926 -1.3174
  306MOL0     H41245   1.201   4.248   2.199  0.9083 -0.3812  1.7585
  306MOL0     H41246   1.204   4.131   2.341 -0.8147 -1.8268 -0.0907
  306MOL0     H41247   1.441   4.210   2.276  1.9129  0.0601 -1.9870
  306MOL0     H41248   1.399   4.176   2.115  2.0986 -0.3632  0.3315
  306MOL0     H41249   1.406   3.949   2.156  0.5975  0.9433 -0.8471
  306MOL0     H41250   1.394   3.962   2.339  0.5199 -0.1205  0.7302
  306MOL0     H41251   1.641   4.046   2.166  0.0858  0.6103 -0.2884
  306MOL0     H41252   1.630   4.082   2.330  0.9292  0.2115 -0.5396
  306MOL0     H41253   1.609   3.831   2.388  0.3327  0.0942  0.0050
  306MOL0     H41254   1.627   3.813   2.205  0.9385  1.3049 -1.3785
  306MOL0     H41255   1.845   3.914   2.238 -0.4443  1.3004 -0.0383
  306MOL0     H41256   1.811   3.924   2.417 -1.5477 -1.0383  0.3310
  306MOL0     H41257   1.949   3.719   2.323  0.1916 -3.8779  1.1206
  306MOL0     H41258   1.801   3.655   2.278 -1.2622 -0.8530  0.7582
  306MOL0     H41259   1.699   3.657   2.505  0.4129 -3.9730 -0.7747
  306MOL0     H41260   1.853   3.578   2.514  2.2934  0.5800 -1.4912
  306MOL0     H41261   2.056   3.714   2.645  1.4945  1.3015  1.7395
  306MOL0     H41262   1.986   3.893   2.981 -0.4628 -2.6428 -0.1170
  306MOL0     H41263   2.110   3.808   2.888  2.4235  2.5273  1.9185
  306MOL0     H41264   2.118   4.023   2.733 -0.5073  0.8503  0.6594
  306MOL0     H41265   2.007   4.086   2.854 -1.4201 -2.2823  3.1634
  306MOL0     H41266   2.230   4.043   3.020 -0.7510 -0.9378 -0.4364
  306MOL0     H41267   2.183   4.189   2.933 -2.8255 -0.3686  2.6783
  306MOL0     H41268   2.333   4.147   2.757  0.0649  2.3983  2.3704
  306MOL0     H41269   2.337   3.969   2.797  3.1991 -0.6617 -0.4070
  306MOL0     H41270   2.425   4.321   2.812 -0.5107 -0.6458  1.4299
  306MOL0     H41271   2.624   4.465   2.756 -1.2989 -2.4848 -3.0475
  306MOL0     H41272   3.071   4.614   2.728  1.3873 -1.3434 -0.5269
  306MOL0     H41273   3.264   4.753   2.757  0.1208  0.4580  1.9802
  306MOL0     H41274   3.489   4.746   3.075 -2.8405 -1.5186 -1.8403
  306MOL0     H41275   3.591   4.610   3.046 -0.2607  1.1436  2.1233
  306MOL0     H41276   3.757   4.764   3.052  1.7265 -0.8305 -1.6642
  306MOL0     H41277   3.736   4.740   2.880 -1.3745  2.6367 -1.8122
  306MOL0     H41278   3.580   4.939   2.854  4.1801  0.2154 -2.3693
  306MOL0     H41279   3.581   4.956   3.032 -2.8522  1.1996 -1.9448
  306MOL0     H41280   3.704   5.135   2.895  2.6704  0.2775  0.8000
  306MOL0     H41281   3.803   5.000   2.834 -1.8505 -2.3869 -0.2239
  306MOL0     H41282   3.904   4.983   3.047 -2.3801 -3.9905 -4.0813
  306MOL0     H41283   3.777   5.072   3.128 -0.2588 -0.1584 -2.1002
  306MOL0     H41284   3.961   5.189   2.917  3.1869  0.8161  1.4865
  306MOL0     H41285   3.848   5.286   3.038 -0.6084 -0.6214  1.1735
  306MOL0     H41286   4.100   5.132   3.096 -0.8666 -0.2028 -0.6734
  306MOL0     H41287   3.992   5.218   3.209  0.1692  0.4334 -0.4283
  306MOL0     H41288   4.064   5.448   3.090  0.0014  0.3869 -0.8681
  306MOL0     H41289   4.188   5.361   3.183 -0.0136  2.5447 -0.6520
  306MOL0     H41290   3.427   4.470   3.030 -0.1010 -1.3229  1.2650
  306MOL0     H41291   3.211   4.331   3.011  1.0690  1.7626  3.5076
  306MOL0     H41292   2.873   4.210   2.987 -0.8317 -0.6492 -0.5128
  306MOL0     H41293   2.703   4.052   3.000  0.6322  1.6180  2.3831
  306MOL0     H41294   0.965   4.223   2.245  0.5693  0.7111  0.8463
  306MOL0     H41295   0.736   4.163   2.297  1.1788  0.5322  0.3454
  306MOL0     H41296   0.462   3.978   2.495 -0.3943  0.5554  0.1957
  306MOL0     H41297   0.246   4.030   2.552 -0.1478 -0.0729 -1.0595
  306MOL0     H41298  -0.103   3.839   2.286  2.2419 -0.4001 -1.2530
  306MOL0     H41299  -0.004   3.975   2.239 -4.3937  2.2437 -1.5140
  306MOL0     H41300  -0.226   4.011   2.249  1.3553 -2.6255  0.0779
  306MOL0     H41301  -0.140   4.123   2.358 -1.1176  0.1285 -1.7598
  306MOL0     H41302  -0.206   4.018   2.550 -1.3797  2.0053  0.6690
  306MOL0     H41303  -0.270   3.873   2.461 -1.0431 -0.0418  2.9181
  306MOL0     H41304  -0.441   3.999   2.552 -0.7883  3.4277  1.6166
  306MOL0     H41305  -0.377   4.147   2.511  0.7094 -0.7956  1.8044
  306MOL0     H41306  -0.582   3.972   2.168  1.8757 -2.7826  0.6615
  306MOL0     H41307   0.099   3.718   2.268 -1.0855 -0.0851  1.1754
  306MOL0     H41308   0.374   3.713   2.086 -2.1672 -0.0485 -1.4966
  306MOL0     H41309   0.418   3.581   2.203  1.7818  2.5413 -0.7581
  306MOL0     H41310   0.249   3.617   2.143  1.1762 -1.6266 -1.3777
  307MOL0     O41311   4.104   3.207  10.002 -0.2974 -0.3790  1.1491
  307MOL0     C41312   4.035   3.127  10.060 -0.0180  0.2910  0.3563
  307MOL0     O41313   4.061   2.993  10.096  0.3814  0.4762 -0.1879
  307MOL0     C41314   4.178   2.943  10.054 -0.7760  0.3436  0.6535
  307MOL0     C41315   4.273   2.915  10.161 -0.2050 -0.5028 -0.0051
  307MOL0     C41316   4.402   2.858  10.131  0.2482 -0.9744 -0.4818
  307MOL0     C41317   4.432   2.845   9.996  0.7804  0.1450 -0.4614
  307MOL0     O41318   4.557   2.794   9.969  1.9538 -0.1531  0.1561
  307MOL0     C41319   4.668   2.879   9.988  0.4329 -0.0450 -0.2214
  307MOL0     C41320   4.799   2.812   9.934 -0.0315 -0.7241 -0.2652
  307MOL0     C41321   4.800   2.774   9.786  0.4564  0.0176  1.4330
  307MOL0     C41322   4.932   2.730   9.737  0.4299 -0.0903  0.3232
  307MOL0     C41323   5.037   2.827   9.702  0.0038  0.1222  0.2764
  307MOL0     C41324   5.166   2.768   9.646 -0.2870 -0.3491  0.6106
  307MOL0     C41325   5.284   2.857   9.594 -0.2738 -0.5682 -0.5822
  307MOL0     C41326   5.308   2.974   9.691 -0.0542  0.4465  0.3584
  307MOL0     N41327   5.436   3.036   9.660  0.3847 -0.0355 -0.5761
  307MOL0     C41328   5.494   3.129   9.750 -0.7052 -0.3154 -0.7560
  307MOL0     C41329   5.593   3.187   9.685  0.7332  0.6660  0.1975
  307MOL0     C41330   5.679   3.291   9.739 -0.1633  0.7734  0.4715
  307MOL0     C41331   5.785   3.247   9.843 -1.2887  0.1704  0.8192
  307MOL0     C41332   5.849   3.109   9.817 -0.5493  0.5275 -0.6553
  307MOL0     C41333   5.919   3.106   9.681  0.3213  0.0517  0.6014
  307MOL0     O41334   6.001   3.222   9.656 -0.3200 -0.3977 -1.0423
  307MOL0     C41335   6.134   3.207   9.643  0.4175 -0.0593  0.1271
  307MOL0     C41336   6.195   3.142   9.545 -0.0866  0.1996  0.0991
  307MOL0     C41337   6.329   3.148   9.517 -0.5152  0.5596  0.2529
  307MOL0     C41338   6.414   3.224   9.598 -0.1365 -0.2076 -0.2690
  307MOL0     C41339   6.562   3.196   9.586  0.1937  0.1444 -0.9888
  307MOL0     O41340   6.617   3.205   9.465 -0.3128  0.4050 -0.4830
  307MOL0     C41341   6.747   3.213   9.458 -0.4632 -0.1312  0.1130
  307MOL0     C41342   6.836   3.274   9.544  0.6142  0.3589  0.5988
  307MOL0     C41343   6.972   3.279   9.515  1.0341  0.1293 -0.9104
  307MOL0     C41344   7.016   3.233   9.399  0.3503  0.3165 -0.0059
  307MOL0     O41345   7.156   3.265   9.384  0.0068  0.4560  0.5360
  307MOL0     C41346   7.213   3.281   9.245 -0.0717 -0.0799  0.8374
  307MOL0     C41347   7.304   3.166   9.214 -1.1644  0.1248  0.0550
  307MOL0     C41348   7.442   3.190   9.277 -0.6949  0.1400  0.4967
  307MOL0     C41349   7.545   3.109   9.197  0.1505 -0.0744  0.5686
  307MOL0     C41350   7.680   3.107   9.272  0.0999 -0.1660  0.2062
  307MOL0     C41351   7.788   3.063   9.178 -0.5090  0.5019 -0.4817
  307MOL0     C41352   7.924   3.064   9.243  0.1185  0.1710  0.1142
  307MOL0     C41353   8.042   3.033   9.145 -0.8254  0.2412 -0.1520
  307MOL0    Cl41354   8.064   3.165   9.017 -0.2876 -0.0593  0.1177
  307MOL0     C41355   6.928   3.158   9.312 -0.4865  0.9742  0.0571
  307MOL0     C41356   6.802   3.137   9.347 -0.2415  0.6571  0.4986
  307MOL0     O41357   6.618   3.173   9.696  0.2367 -0.0935  0.1986
  307MOL0     C41358   6.351   3.298   9.703 -1.1586 -0.5342  0.1589
  307MOL0     C41359   6.214   3.292   9.718  1.0007 -1.1765 -0.5149
  307MOL0     N41360   5.603   3.131   9.555  0.4122  0.5340 -0.5688
  307MOL0     N41361   5.501   3.050   9.536  0.9148  0.0624  0.6628
  307MOL0     C41362   4.341   2.865   9.894  0.6355  0.0721  0.3334
  307MOL0     C41363   4.212   2.913   9.923  0.3353 -0.0158 -0.9834
  307MOL0     C41364   3.905   3.173  10.092 -0.3460 -0.5329 -0.1359
  307MOL0     C41365   3.795   3.130  10.013 -0.1434  1.1095 -1.1465
  307MOL0     C41366   3.662   3.184  10.034  0.2681  0.5578  0.6667
  307MOL0     C41367   3.639   3.271  10.148  0.2153  0.4361 -0.0101
  307MOL0     O41368   3.515   3.320  10.183  0.0583  1.3309  0.2904
  307MOL0     C41369   3.400   3.232  10.144  1.0197  0.2221 -0.0182
  307MOL0     C41370   3.337   3.310  10.028 -0.4924 -0.7192  0.2085
  307MOL0     C41371   3.200   3.261   9.979  0.4534  0.0190 -0.5169
  307MOL0     C41372   3.145   3.380   9.895  0.1029 -0.2601 -0.7084
  307MOL0     C41373   2.999   3.367   9.873  0.5461 -0.1507 -0.6272
  307MOL0     C41374   2.882   3.336   9.851 -0.4996  0.4484 -0.4683
  307MOL0     C41375   3.753   3.309  10.217 -0.1783 -0.0019 -0.7042
  307MOL0     C41376   3.879   3.272  10.191 -0.2704  0.3501 -0.5285
  307MOL0     C41377   3.990   3.328  10.277  0.5955  0.0231 -0.4045
  307MOL0     H41378   4.258   2.928  10.267  1.2136 -2.8974  0.5660
  307MOL0     H41379   4.468   2.822  10.209 -0.6708  2.1862  1.9648
  307MOL0     H41380   4.642   2.971   9.936 -2.5972 -0.1995  0.8348
  307MOL0     H41381   4.694   2.898  10.093 -0.8872  0.4544  0.0409
  307MOL0     H41382   4.800   2.714   9.982  0.5005 -1.4640 -1.7262
  307MOL0     H41383   4.890   2.862   9.969 -0.6628  0.4532 -0.2602
  307MOL0     H41384   4.768   2.848   9.712 -1.6158 -1.7777  0.3952
  307MOL0     H41385   4.722   2.701   9.762 -1.8010  2.2208  1.6428
  307MOL0     H41386   4.967   2.667   9.820 -2.7493  1.2758  2.8942
  307MOL0     H41387   4.911   2.669   9.648  0.1363  1.5523 -0.7818
  307MOL0     H41388   4.992   2.891   9.626  2.7796  1.4891 -0.3417
  307MOL0     H41389   5.054   2.895   9.785 -3.1035  0.7690  0.5141
  307MOL0     H41390   5.203   2.702   9.725 -1.4765 -0.6657  0.9096
  307MOL0     H41391   5.145   2.710   9.555  0.1815 -1.3422  1.1157
  307MOL0     H41392   5.262   2.904   9.498  0.9712  1.8707  0.2216
  307MOL0     H41393   5.376   2.798   9.588  1.3899  1.9298 -1.5852
  307MOL0     H41394   5.221   3.039   9.679 -2.3419 -2.3296  0.6811
  307MOL0     H41395   5.309   2.942   9.795 -0.4096  1.2697  0.6154
  307MOL0     H41396   5.457   3.166   9.845  1.6313  0.5137 -0.1047
  307MOL0     H41397   5.733   3.336   9.655 -0.5477 -0.4806 -0.4733
  307MOL0     H41398   5.609   3.357   9.791  1.9282  1.5194  2.5071
  307MOL0     H41399   5.858   3.329   9.845 -2.4054  1.2677  4.2481
  307MOL0     H41400   5.734   3.245   9.940  0.4544  3.7405  1.9991
  307MOL0     H41401   5.778   3.026   9.826  0.7527 -0.3825  2.7519
  307MOL0     H41402   5.920   3.091   9.898  1.1853  1.1548 -1.9856
  307MOL0     H41403   5.843   3.093   9.603  0.9249  1.1450 -0.2021
  307MOL0     H41404   5.984   3.018   9.684 -2.9353 -2.5679  0.2911
  307MOL0     H41405   6.134   3.084   9.476  1.0313  0.4663 -1.1751
  307MOL0     H41406   6.373   3.089   9.437 -0.8883  0.8183 -0.1490
  307MOL0     H41407   6.797   3.334   9.626 -0.8275  0.3333 -0.0386
  307MOL0     H41408   7.047   3.336   9.569  0.8501  0.1493 -0.6736
  307MOL0     H41409   7.139   3.286   9.164  1.3293 -0.8556 -0.5397
  307MOL0     H41410   7.271   3.373   9.234 -2.5127  1.4937  0.2484
  307MOL0     H41411   7.261   3.070   9.247  0.5480 -1.6888 -2.5948
  307MOL0     H41412   7.297   3.162   9.105  1.0119 -0.8905 -0.1075
  307MOL0     H41413   7.476   3.294   9.284  0.6274 -0.1277 -1.2867
  307MOL0     H41414   7.440   3.173   9.385 -0.0708  4.3748  1.3489
  307MOL0     H41415   7.559   3.149   9.096 -0.6894 -0.9532  0.0774
  307MOL0     H41416   7.512   3.005   9.192  1.2386 -0.3780 -1.0242
  307MOL0     H41417   7.684   3.040   9.357  1.5172 -1.7359 -1.0224
  307MOL0     H41418   7.691   3.207   9.315  1.6651 -0.2941  0.1515
  307MOL0     H41419   7.758   2.967   9.135 -2.3313 -0.5909  2.8974
  307MOL0     H41420   7.791   3.129   9.090 -0.6434  0.8723 -0.2091
  307MOL0     H41421   7.933   2.996   9.328 -0.4655 -0.1618 -0.0807
  307MOL0     H41422   7.937   3.160   9.294 -0.0134 -0.4049  1.2647
  307MOL0     H41423   8.141   3.029   9.190 -1.5307 -0.0158  1.4436
  307MOL0     H41424   8.021   2.935   9.099 -2.3388  0.0165  0.9389
  307MOL0     H41425   6.973   3.112   9.225  2.3627  1.0139  1.3954
  307MOL0     H41426   6.740   3.067   9.292 -0.5096  1.1333  0.1903
  307MOL0     H41427   6.420   3.345   9.771 -1.8686  2.2380 -0.9261
  307MOL0     H41428   6.165   3.348   9.798  2.2187  0.1301 -0.6535
  307MOL0     H41429   4.376   2.850   9.792 -0.7059 -0.3216 -0.0954
  307MOL0     H41430   4.145   2.941   9.841 -0.2457 -0.1299 -0.5564
  307MOL0     H41431   3.814   3.046   9.946 -1.0062  1.6378 -2.0850
  307MOL0     H41432   3.579   3.136   9.984  0.1403  1.1338  0.3179
  307MOL0     H41433   3.330   3.228  10.228  1.3100  1.3412  0.2984
  307MOL0     H41434   3.421   3.129  10.115  0.8238  1.0547 -3.5746
  307MOL0     H41435   3.409   3.300   9.946 -1.9424 -1.8177 -0.9980
  307MOL0     H41436   3.337   3.415  10.057  0.9436 -1.0003  1.3510
  307MOL0     H41437   3.140   3.227  10.064  1.7461 -0.1035  0.3894
  307MOL0     H41438   3.215   3.180   9.907  1.8169  0.3793 -0.6603
  307MOL0     H41439   3.176   3.477   9.934 -0.3917 -0.6130  0.5790
  307MOL0     H41440   3.189   3.375   9.794 -1.1948 -0.2811 -1.2906
  307MOL0     H41441   2.777   3.315   9.845  0.2263 -3.4689 -2.9066
  307MOL0     H41442   3.732   3.387  10.289  1.2538  2.2620 -2.6096
  307MOL0     H41443   3.972   3.432  10.306  0.7744  0.3341 -1.3758
  307MOL0     H41444   3.996   3.273  10.372 -1.7731  1.9719  0.9848
  307MOL0     H41445   4.083   3.315  10.220 -0.2343  2.4177 -2.4529
  308MOL0     O41446   9.566   7.404   8.359  1.2534  0.3963  0.1421
  308MOL0     C41447   9.512   7.510   8.335  0.9328  0.6215 -0.2555
  308MOL0     O41448   9.577   7.626   8.293 -0.6743  0.7230 -0.6264
  308MOL0     C41449   9.708   7.634   8.289  0.0529  0.2991  0.7338
  308MOL0     C41450   9.782   7.721   8.361  0.7951 -0.6089  0.3877
  308MOL0     C41451   9.922   7.717   8.352 -0.4956 -0.2886  0.4618
  308MOL0     C41452   9.990   7.628   8.264  0.1991 -0.4453  0.6514
  308MOL0     O41453  10.126   7.633   8.279 -0.0260 -0.3577  0.3714
  308MOL0     C41454  10.222   7.599   8.173 -0.0698 -0.0256  1.1715
  308MOL0     C41455  10.355   7.667   8.230 -0.8707 -0.7611 -0.1888
  308MOL0     C41456  10.375   7.804   8.169  0.6619 -0.3347  0.5690
  308MOL0     C41457  10.518   7.856   8.176  0.4585  0.1713  0.1044
  308MOL0     C41458  10.541   7.996   8.127 -0.0023  0.4961  0.3939
  308MOL0     C41459  10.523   8.019   7.976  0.6815 -0.4475  0.4622
  308MOL0     C41460  10.575   8.161   7.942 -0.9685 -0.0046 -0.2557
  308MOL0     C41461  10.504   8.221   7.831  0.2537 -0.8390  0.4161
  308MOL0     N41462  10.578   8.340   7.788  0.0567  0.3109 -0.6249
  308MOL0     C41463  10.677   8.347   7.694  0.2371 -0.0970 -0.5545
  308MOL0     C41464  10.732   8.467   7.715 -1.0377  0.8598 -0.5697
  308MOL0     C41465  10.861   8.514   7.644 -0.0216  0.2635 -1.0535
  308MOL0     C41466  10.841   8.624   7.535  0.7122  0.2524 -0.9972
  308MOL0     C41467  10.739   8.584   7.428  0.3380  0.5662  0.2716
  308MOL0     C41468  10.681   8.709   7.380 -0.4604  0.0533  0.4495
  308MOL0     O41469  10.784   8.800   7.335 -0.0019  0.1134 -0.3782
  308MOL0     C41470  10.825   8.801   7.207  0.1769  0.4829 -0.6190
  308MOL0     C41471  10.782   8.708   7.108  0.1553 -1.0251  0.0291
  308MOL0     C41472  10.830   8.719   6.976  0.1342 -0.2048  0.8117
  308MOL0     C41473  10.922   8.814   6.940  0.4593 -0.5177  0.5054
  308MOL0     C41474  10.969   8.822   6.805  0.4637 -0.7074 -0.1416
  308MOL0     O41475  10.987   8.945   6.759  0.1267 -0.4861  0.0160
  308MOL0     C41476  11.040   8.961   6.635 -0.0704  0.0784 -0.1082
  308MOL0     C41477  10.988   9.055   6.548 -0.4630 -0.4308  0.3610
  308MOL0     C41478  11.030   9.053   6.414  0.1852  0.8369 -0.1269
  308MOL0     C41479  11.149   8.982   6.378  0.7874 -0.4992  0.0283
  308MOL0     O41480  11.179   8.971   6.247 -1.4408 -0.0903 -0.4416
  308MOL0     C41481  11.231   8.844   6.196 -0.4953 -0.5827  0.2043
  308MOL0     C41482  11.171   8.813   6.055 -0.3471 -0.6295  0.6332
  308MOL0     C41483  11.219   8.910   5.954  0.9180 -0.1618  0.0427
  308MOL0     C41484  11.366   8.888   5.919  0.3497 -0.2462  0.9253
  308MOL0     C41485  11.403   8.996   5.809 -1.0589  0.2460 -0.5965
  308MOL0     C41486  11.556   8.993   5.780 -0.2686 -0.6204 -0.3671
  308MOL0     C41487  11.596   9.106   5.674  0.0515 -0.1190  0.2246
  308MOL0     C41488  11.749   9.114   5.659 -0.0806 -0.7458  0.2514
  308MOL0    Cl41489  11.793   8.967   5.574  0.6250 -0.1970  0.3618
  308MOL0     C41490  11.218   8.912   6.477 -0.2822  0.6853 -0.1475
  308MOL0     C41491  11.156   8.903   6.601 -0.1785 -0.0840 -0.1215
  308MOL0     O41492  10.975   8.718   6.743  0.7019  0.4621 -0.0478
  308MOL0     C41493  10.965   8.906   7.031 -0.2869 -1.1909 -0.9536
  308MOL0     C41494  10.919   8.900   7.166 -0.0300  1.0024 -0.2393
  308MOL0     N41495  10.667   8.529   7.821  0.5389 -1.2694 -0.0903
  308MOL0     N41496  10.581   8.447   7.867 -1.0157 -0.0084 -0.1354
  308MOL0     C41497   9.916   7.538   8.190  0.1926 -0.0447  0.2818
  308MOL0     C41498   9.778   7.541   8.208  0.0638 -0.1984 -0.0827
  308MOL0     C41499   9.364   7.509   8.308 -1.2870  0.2942 -0.1938
  308MOL0     C41500   9.301   7.394   8.282  0.1054 -0.3837 -0.3401
  308MOL0     C41501   9.167   7.381   8.254 -0.1331  0.8555 -1.0086
  308MOL0     C41502   9.088   7.490   8.260 -0.2552 -0.3659  0.3763
  308MOL0     O41503   8.952   7.506   8.274  0.3196  0.4915  0.1174
  308MOL0     C41504   8.872   7.395   8.316 -0.2685 -0.1945  1.6563
  308MOL0     C41505   8.836   7.297   8.193 -1.0009  0.1161  0.2652
  308MOL0     C41506   8.757   7.166   8.239 -0.3866 -1.0109  0.7771
  308MOL0     C41507   8.842   7.044   8.246 -0.1235  0.3042  0.1231
  308MOL0     C41508   8.944   7.053   8.352 -0.1714  0.1778 -0.4624
  308MOL0     C41509   9.029   7.056   8.439  0.7659 -0.9224 -0.8340
  308MOL0     C41510   9.149   7.618   8.280  0.2101  0.2180 -0.2091
  308MOL0     C41511   9.291   7.632   8.301  1.0549  0.3663 -0.5140
  308MOL0     C41512   9.359   7.770   8.327 -0.4957  0.0746 -0.0142
  308MOL0     H41513   9.731   7.800   8.417  2.9013  2.3092 -1.4941
  308MOL0     H41514   9.982   7.792   8.404  0.3437  0.5077 -1.5708
  308MOL0     H41515  10.225   7.490   8.176  0.2806 -0.1088 -0.8256
  308MOL0     H41516  10.187   7.630   8.074 -0.6111  0.9387  1.6430
  308MOL0     H41517  10.451   7.622   8.203  1.7813  2.5540  2.6891
  308MOL0     H41518  10.344   7.668   8.339 -3.0478 -0.8738 -0.3642
  308MOL0     H41519  10.306   7.867   8.226  0.7051 -0.0467  0.3054
  308MOL0     H41520  10.339   7.802   8.066 -1.9582  1.2283  1.3446
  308MOL0     H41521  10.545   7.849   8.282  1.0643  0.5497 -0.0171
  308MOL0     H41522  10.580   7.779   8.130  0.7482  0.0620  0.6664
  308MOL0     H41523  10.470   8.059   8.181 -2.4522 -2.0875  0.4520
  308MOL0     H41524  10.637   8.033   8.164 -1.2899  1.2761  3.1844
  308MOL0     H41525  10.579   7.942   7.921 -1.5643 -1.6975 -0.1750
  308MOL0     H41526  10.417   8.006   7.954  0.4138  0.5722  1.1061
  308MOL0     H41527  10.680   8.154   7.913 -1.0916  1.1126 -1.0414
  308MOL0     H41528  10.557   8.217   8.035 -0.8214 -2.5649  1.4122
  308MOL0     H41529  10.515   8.151   7.747  1.1189  0.9738 -1.0541
  308MOL0     H41530  10.402   8.251   7.856  0.5700 -1.4626  2.6639
  308MOL0     H41531  10.702   8.265   7.628 -1.2303 -2.2713  1.3992
  308MOL0     H41532  10.935   8.547   7.718  0.0281 -1.2108 -0.4248
  308MOL0     H41533  10.893   8.430   7.582 -3.6804 -1.1058 -1.3511
  308MOL0     H41534  10.796   8.700   7.599 -0.2707 -2.1567  1.3548
  308MOL0     H41535  10.938   8.648   7.491 -0.2036  0.9102 -2.7747
  308MOL0     H41536  10.662   8.518   7.469  0.5206  0.2037  0.0336
  308MOL0     H41537  10.806   8.525   7.365  0.2778 -1.1190  1.6949
  308MOL0     H41538  10.632   8.748   7.469  1.9784 -2.5030  3.1543
  308MOL0     H41539  10.601   8.680   7.311 -1.7146  1.8852  1.0679
  308MOL0     H41540  10.721   8.620   7.128  3.0433 -3.1301  0.1858
  308MOL0     H41541  10.786   8.639   6.917 -2.3439  1.5385  0.1655
  308MOL0     H41542  10.913   9.131   6.569 -0.5492 -0.3704 -0.1697
  308MOL0     H41543  10.979   9.112   6.339  2.6790  2.2652 -0.8238
  308MOL0     H41544  11.339   8.846   6.185 -0.2425 -1.6745  2.0375
  308MOL0     H41545  11.194   8.759   6.254 -2.1578 -1.1197 -1.5142
  308MOL0     H41546  11.197   8.710   6.028  1.9238 -0.2216  1.0785
  308MOL0     H41547  11.063   8.824   6.040  0.1957  3.6463 -1.5971
  308MOL0     H41548  11.162   8.886   5.863  3.1592 -3.2012 -0.7054
  308MOL0     H41549  11.200   9.013   5.985 -2.1132 -0.3280 -0.8987
  308MOL0     H41550  11.378   8.790   5.872 -1.9845 -0.7851  1.3471
  308MOL0     H41551  11.433   8.888   6.006  4.3480 -1.9820 -1.8660
  308MOL0     H41552  11.366   9.088   5.854  1.0962  0.5784  0.6164
  308MOL0     H41553  11.341   8.985   5.719 -2.5560 -1.7160  0.5964
  308MOL0     H41554  11.624   8.995   5.866 -2.6170 -1.4709  1.6158
  308MOL0     H41555  11.574   8.904   5.720  1.7538 -1.2734  1.0673
  308MOL0     H41556  11.554   9.199   5.713 -0.6240 -0.1180 -0.4980
  308MOL0     H41557  11.554   9.075   5.578 -0.6753  1.4113  0.0271
  308MOL0     H41558  11.778   9.205   5.608  0.6146 -1.1591 -0.1015
  308MOL0     H41559  11.795   9.124   5.758  0.2524  1.2261 -0.0598
  308MOL0     H41560  11.309   8.858   6.455 -0.6565 -1.1892  2.4364
  308MOL0     H41561  11.198   8.834   6.674  0.9748  0.2447 -0.4599
  308MOL0     H41562  11.040   8.980   7.006  1.1311 -2.8732 -1.9613
  308MOL0     H41563  10.979   8.966   7.228  1.5081 -1.0366  0.5876
  308MOL0     H41564   9.969   7.460   8.137  0.2618  0.4453 -0.3828
  308MOL0     H41565   9.716   7.486   8.138  0.4827 -0.3195 -0.3618
  308MOL0     H41566   9.357   7.301   8.282  1.6681  0.4465 -3.1149
  308MOL0     H41567   9.130   7.280   8.265 -0.5098  1.1997  1.3626
  308MOL0     H41568   8.774   7.429   8.353 -0.8737 -1.7884  1.5837
  308MOL0     H41569   8.923   7.333   8.390  1.5912  1.8141  2.1544
  308MOL0     H41570   8.924   7.276   8.132 -0.3232 -0.3264  1.3864
  308MOL0     H41571   8.765   7.358   8.135  2.6374  1.7663 -2.9204
  308MOL0     H41572   8.675   7.152   8.168 -1.2611  0.7128  1.3911
  308MOL0     H41573   8.713   7.180   8.338  0.7186 -3.3084  1.6611
  308MOL0     H41574   8.778   6.957   8.266  0.7828  0.2454  3.4815
  308MOL0     H41575   8.885   7.030   8.147 -2.6750 -0.5788 -0.9482
  308MOL0     H41576   9.111   7.056   8.508  1.4811 -1.7047 -1.6606
  308MOL0     H41577   9.083   7.704   8.274 -0.2307 -0.1638 -0.9532
  308MOL0     H41578   9.427   7.773   8.412 -0.7771 -2.5806  0.3944
  308MOL0     H41579   9.403   7.799   8.231 -1.5871 -0.3876 -0.6746
  308MOL0     H41580   9.289   7.852   8.347 -1.1471 -0.7546  1.1880
  309MOL0     O41581   5.750   0.078   2.347 -0.0422  0.1533  0.2400
  309MOL0     C41582   5.738  -0.004   2.255 -0.2391 -0.0458 -0.8309
  309MOL0     O41583   5.832  -0.025   2.149  0.1758 -0.0254 -0.2156
  309MOL0     C41584   5.952   0.041   2.157  0.4066  0.0751  0.5690
  309MOL0     C41585   6.032   0.026   2.271  0.4378 -0.2973 -0.9965
  309MOL0     C41586   6.161   0.080   2.277 -0.2167 -0.1256  0.0783
  309MOL0     C41587   6.213   0.150   2.164 -0.3064  1.1748 -0.2615
  309MOL0     O41588   6.341   0.204   2.164  0.4868 -0.1371  0.0736
  309MOL0     C41589   6.439   0.140   2.252 -0.3386  0.1943 -0.3038
  309MOL0     C41590   6.580   0.182   2.220 -0.0342  0.1106  0.0947
  309MOL0     C41591   6.687   0.147   2.326  0.8928 -0.2791  1.1046
  309MOL0     C41592   6.697  -0.006   2.351 -0.0065  0.2580  0.2299
  309MOL0     C41593   6.821  -0.049   2.429 -0.3863 -0.3594 -0.2248
  309MOL0     C41594   6.931  -0.086   2.334  0.1816 -0.1931  0.0970
  309MOL0     C41595   7.075  -0.059   2.381 -0.6190  0.0518 -0.2674
  309MOL0     C41596   7.103  -0.140   2.514 -0.1136 -0.0035  0.2786
  309MOL0     N41597   7.237  -0.171   2.542 -0.1132 -0.1946 -0.2275
  309MOL0     C41598   7.325  -0.109   2.632 -0.4045 -0.3506  0.5496
  309MOL0     C41599   7.426  -0.196   2.648  0.2564 -0.2502 -0.0248
  309MOL0     C41600   7.543  -0.172   2.737 -0.6143  0.3115  0.1771
  309MOL0     C41601   7.680  -0.170   2.665  0.0709  0.4471 -0.7294
  309MOL0     C41602   7.713  -0.311   2.607  0.5475  0.2695 -0.6289
  309MOL0     C41603   7.865  -0.340   2.571  0.1597 -0.6907 -0.9191
  309MOL0     O41604   7.944  -0.248   2.658  0.3844  0.0817 -0.4281
  309MOL0     C41605   7.994  -0.289   2.778 -0.3882  0.1496  0.0544
  309MOL0     C41606   7.965  -0.405   2.837 -1.2310  0.2355  0.7829
  309MOL0     C41607   8.049  -0.437   2.944  0.3404  0.0339 -0.3205
  309MOL0     C41608   8.144  -0.345   2.999 -0.6088 -0.6720  0.0047
  309MOL0     C41609   8.212  -0.369   3.123 -0.1060  0.6809  0.1984
  309MOL0     O41610   8.282  -0.261   3.172 -0.1060  0.2266 -0.0574
  309MOL0     C41611   8.362  -0.282   3.282  0.3530 -0.5607 -0.4533
  309MOL0     C41612   8.355  -0.192   3.390 -0.5685 -1.0089 -0.2101
  309MOL0     C41613   8.433  -0.194   3.503 -0.0519 -0.2550  0.1310
  309MOL0     C41614   8.524  -0.302   3.516  0.0777  0.4184 -0.7151
  309MOL0     O41615   8.623  -0.304   3.616  0.1340  0.0778  0.7916
  309MOL0     C41616   8.610  -0.223   3.737 -0.0094  0.1834  0.2719
  309MOL0     C41617   8.709  -0.107   3.736  0.0798  0.0201 -0.3538
  309MOL0     C41618   8.674  -0.013   3.849  0.0662  0.2605 -0.5059
  309MOL0     C41619   8.790   0.096   3.875  0.9210 -0.0663  0.0344
  309MOL0     C41620   8.747   0.175   3.997  0.1707  0.8808 -1.0536
  309MOL0     C41621   8.846   0.289   4.022  0.1512  0.0014  0.4975
  309MOL0     C41622   8.819   0.416   3.929 -0.0731 -0.2163  0.2923
  309MOL0     C41623   8.906   0.537   3.964  0.0873  0.4058  0.2790
  309MOL0    Cl41624   9.077   0.497   3.920 -0.1158 -0.2650  0.5583
  309MOL0     C41625   8.534  -0.397   3.414 -0.0646  0.8806  0.1212
  309MOL0     C41626   8.455  -0.391   3.298 -0.4671 -0.7530 -0.4987
  309MOL0     O41627   8.189  -0.473   3.187  0.1533  0.3491 -0.1230
  309MOL0     C41628   8.172  -0.224   2.932  0.9611 -0.8511  0.5760
  309MOL0     C41629   8.095  -0.200   2.823  0.3730  0.5179  0.1461
  309MOL0     N41630   7.405  -0.310   2.573 -0.0430 -0.2758  0.4284
  309MOL0     N41631   7.294  -0.288   2.509  0.5289 -0.6350 -0.2110
  309MOL0     C41632   6.138   0.162   2.046  0.2809  0.1408  0.1658
  309MOL0     C41633   6.006   0.108   2.045  0.2035  0.6585  0.0202
  309MOL0     C41634   5.620  -0.095   2.248 -0.1903  0.2577 -0.1717
  309MOL0     C41635   5.577  -0.147   2.121  0.6943  0.4939  0.1672
  309MOL0     C41636   5.463  -0.231   2.108  0.5732 -0.3949 -0.0382
  309MOL0     C41637   5.390  -0.269   2.215 -0.4830  0.8592  0.0798
  309MOL0     O41638   5.288  -0.365   2.202 -0.6317 -0.4278 -0.0244
  309MOL0     C41639   5.219  -0.422   2.314  0.2983  0.5312 -0.0578
  309MOL0     C41640   5.109  -0.511   2.248 -0.5169 -0.3526  0.6214
  309MOL0     C41641   4.992  -0.421   2.205 -0.0371 -0.1675  0.0148
  309MOL0     C41642   4.902  -0.485   2.098 -0.1535  0.4495  1.0430
  309MOL0     C41643   4.806  -0.577   2.150  0.2299 -0.3187  0.2925
  309MOL0     C41644   4.730  -0.650   2.210  0.6721 -0.3293 -0.0480
  309MOL0     C41645   5.423  -0.212   2.343 -0.3169 -0.4683  1.3109
  309MOL0     C41646   5.533  -0.120   2.360 -0.3970 -0.3223  0.0774
  309MOL0     C41647   5.557  -0.077   2.501 -0.5078 -0.8197  0.4096
  309MOL0     H41648   5.999  -0.024   2.361  1.9078 -1.5208 -1.1034
  309MOL0     H41649   6.217   0.070   2.369  0.3343  5.7332  0.7692
  309MOL0     H41650   6.414   0.178   2.351 -1.2927  0.8345 -0.7681
  309MOL0     H41651   6.433   0.031   2.253 -1.2557  0.1786  2.9119
  309MOL0     H41652   6.581   0.291   2.220  0.5362  0.2494  4.1734
  309MOL0     H41653   6.606   0.144   2.121  0.7930 -0.2875  0.4553
  309MOL0     H41654   6.652   0.189   2.420 -1.5743  0.3476 -0.0212
  309MOL0     H41655   6.784   0.190   2.301  0.5361  0.3402  0.7552
  309MOL0     H41656   6.612  -0.028   2.416  2.4364 -2.1400  2.8622
  309MOL0     H41657   6.688  -0.052   2.252 -0.5667 -1.1458  0.9053
  309MOL0     H41658   6.855   0.037   2.487  1.5991 -0.7555 -0.7148
  309MOL0     H41659   6.789  -0.127   2.498  0.4082 -2.9286 -2.5790
  309MOL0     H41660   6.931  -0.189   2.300 -1.7343 -0.6616  1.3479
  309MOL0     H41661   6.916  -0.026   2.244 -3.3070 -2.9141 -1.3449
  309MOL0     H41662   7.102   0.046   2.399  2.4928 -0.1811 -2.6785
  309MOL0     H41663   7.142  -0.091   2.301  2.1544  1.8017  1.1694
  309MOL0     H41664   7.052  -0.086   2.595 -2.7564  0.1939 -1.3867
  309MOL0     H41665   7.037  -0.227   2.512 -1.1822  0.6992  1.9093
  309MOL0     H41666   7.323  -0.008   2.672 -3.6498 -0.2093  0.2990
  309MOL0     H41667   7.550  -0.075   2.787  0.0606  0.2892  0.1347
  309MOL0     H41668   7.531  -0.244   2.818 -0.0515  0.3531  0.3007
  309MOL0     H41669   7.683  -0.096   2.584  0.9132 -0.1192 -1.2291
  309MOL0     H41670   7.757  -0.143   2.738  1.0250 -0.2277 -1.4817
  309MOL0     H41671   7.652  -0.330   2.517 -1.4507 -1.9835  1.0695
  309MOL0     H41672   7.676  -0.385   2.678  3.7250 -0.1704  0.7272
  309MOL0     H41673   7.881  -0.316   2.466 -2.6043 -0.0152 -1.2890
  309MOL0     H41674   7.908  -0.437   2.595 -0.4932 -1.2693 -2.0204
  309MOL0     H41675   7.881  -0.469   2.815 -1.5245  0.5675  0.9168
  309MOL0     H41676   8.038  -0.533   2.993 -1.7120 -1.4406 -3.3262
  309MOL0     H41677   8.280  -0.117   3.367  0.5118 -0.1309 -0.9889
  309MOL0     H41678   8.429  -0.116   3.578 -0.4633 -2.0087  2.0137
  309MOL0     H41679   8.507  -0.200   3.763 -0.7234 -1.4209 -0.9454
  309MOL0     H41680   8.652  -0.288   3.814 -0.5710  1.7019  1.9364
  309MOL0     H41681   8.811  -0.146   3.740 -0.5975 -1.7917  0.0688
  309MOL0     H41682   8.695  -0.049   3.644 -5.7824  2.5480  1.6492
  309MOL0     H41683   8.572   0.026   3.844  0.1749  0.5155 -0.7590
  309MOL0     H41684   8.684  -0.072   3.940  0.5457  1.8192  0.4878
  309MOL0     H41685   8.800   0.159   3.786 -1.9077 -2.3765 -2.1033
  309MOL0     H41686   8.893   0.064   3.896  0.1176 -0.9556  3.0299
  309MOL0     H41687   8.760   0.109   4.083 -2.5447  1.2286 -0.2949
  309MOL0     H41688   8.639   0.193   3.994 -0.5577 -2.7075 -2.2150
  309MOL0     H41689   8.841   0.336   4.121 -0.3084  0.5407  0.2254
  309MOL0     H41690   8.952   0.265   4.013 -0.2074 -1.0289 -1.4085
  309MOL0     H41691   8.711   0.436   3.933 -0.4783 -1.7442 -1.5130
  309MOL0     H41692   8.828   0.386   3.824  0.7667  0.0840  0.2696
  309MOL0     H41693   8.873   0.625   3.907 -2.9427 -1.7201 -1.5147
  309MOL0     H41694   8.909   0.566   4.069  0.2230 -2.1630  1.0275
  309MOL0     H41695   8.595  -0.485   3.435 -0.3481  0.3469 -1.2054
  309MOL0     H41696   8.462  -0.467   3.220  1.3904 -0.5500 -0.5777
  309MOL0     H41697   8.254  -0.159   2.962  1.9125 -1.1369 -1.2652
  309MOL0     H41698   8.107  -0.103   2.775  0.1900  0.2454 -0.4516
  309MOL0     H41699   6.176   0.221   1.963  0.9171  1.8683  1.6199
  309MOL0     H41700   5.948   0.121   1.955  1.9034 -1.4045 -1.4648
  309MOL0     H41701   5.636  -0.125   2.032 -0.0839 -0.2812 -0.5664
  309MOL0     H41702   5.463  -0.271   2.008  0.9168  1.0721 -0.6468
  309MOL0     H41703   5.172  -0.351   2.382 -2.9275 -2.4921  1.1653
  309MOL0     H41704   5.290  -0.486   2.367  0.2185  0.2556 -0.2774
  309MOL0     H41705   5.088  -0.591   2.319  0.2889 -0.9775  0.1686
  309MOL0     H41706   5.150  -0.554   2.156  0.8760 -0.1615  1.1169
  309MOL0     H41707   5.041  -0.328   2.174  3.7350 -1.3957  1.6532
  309MOL0     H41708   4.931  -0.388   2.289  0.8252 -0.4093  0.7596
  309MOL0     H41709   4.840  -0.406   2.054  1.7506  2.4984  1.8750
  309MOL0     H41710   4.960  -0.532   2.018  0.3844 -1.0309  2.2610
  309MOL0     H41711   4.656  -0.706   2.263 -0.4635  0.8340 -0.3298
  309MOL0     H41712   5.357  -0.226   2.428 -1.6997  0.1396  0.3579
  309MOL0     H41713   5.665  -0.068   2.516 -0.5835 -0.0994  0.5542
  309MOL0     H41714   5.508   0.020   2.515  0.3566  0.3230 -3.2025
  309MOL0     H41715   5.523  -0.151   2.574 -1.6546  1.6056  2.4926
  310MOL0     O41716  10.282   9.063   5.675  0.3224 -0.1525  0.7791
  310MOL0     C41717  10.289   8.957   5.727  0.4743 -0.4930 -0.8897
  310MOL0     O41718  10.392   8.874   5.721 -0.0578  0.2732  0.0238
  310MOL0     C41719  10.496   8.913   5.638 -0.0895 -0.2399 -0.3206
  310MOL0     C41720  10.591   8.999   5.701 -0.6701 -0.9042  0.4645
  310MOL0     C41721  10.701   9.050   5.641  0.1340  0.0768 -0.1339
  310MOL0     C41722  10.713   9.020   5.507  0.2273  0.1562 -0.6889
  310MOL0     O41723  10.810   9.091   5.435 -0.1908  0.7715 -0.0994
  310MOL0     C41724  10.948   9.064   5.478  0.2840 -0.4117  0.1530
  310MOL0     C41725  11.045   9.138   5.377  0.2211 -0.4836  0.1936
  310MOL0     C41726  10.987   9.268   5.331  0.9554  0.8410 -0.7582
  310MOL0     C41727  11.072   9.345   5.233  0.1825 -0.2798 -0.0021
  310MOL0     C41728  10.993   9.462   5.151  0.0466  0.3490  0.1808
  310MOL0     C41729  10.924   9.551   5.246  0.8076 -0.6719 -0.2881
  310MOL0     C41730  10.838   9.665   5.174 -0.7688  1.1591  0.5270
  310MOL0     C41731  10.807   9.773   5.268 -0.3769 -1.1589  0.0338
  310MOL0     N41732  10.730   9.881   5.203 -0.4078  0.3543 -0.0927
  310MOL0     C41733  10.613   9.842   5.144 -0.3873  0.8785  0.4995
  310MOL0     C41734  10.556   9.957   5.113 -0.8535 -1.0894  0.1701
  310MOL0     C41735  10.416   9.966   5.078 -0.2074  0.5260  0.1859
  310MOL0     C41736  10.387   9.877   4.952  0.4429 -0.0882 -0.3292
  310MOL0     C41737  10.463   9.929   4.828  0.2739  0.0454  0.4377
  310MOL0     C41738  10.483   9.824   4.721  0.5720 -0.0413  0.4086
  310MOL0     O41739  10.557   9.706   4.758 -0.4149  0.2371 -0.1031
  310MOL0     C41740  10.696   9.714   4.760  0.2462 -0.2610 -0.6896
  310MOL0     C41741  10.764   9.825   4.728 -0.4153  0.2803  0.3357
  310MOL0     C41742  10.909   9.830   4.724  0.4285  0.3763  0.9923
  310MOL0     C41743  10.990   9.724   4.761 -0.7189 -0.6417 -0.7638
  310MOL0     C41744  11.135   9.734   4.743  0.7382  0.3742 -0.1163
  310MOL0     O41745  11.186   9.851   4.695 -0.3764 -0.4639  0.0119
  310MOL0     C41746  11.316   9.887   4.690 -0.1829 -0.0404  0.4249
  310MOL0     C41747  11.383   9.930   4.810  0.1439 -0.1879  1.1748
  310MOL0     C41748  11.521   9.962   4.804 -0.0896  0.7298 -0.5118
  310MOL0     C41749  11.590   9.938   4.682  0.6113  0.3297  0.7223
  310MOL0     O41750  11.720   9.980   4.674  0.4736  0.0309  0.2580
  310MOL0     C41751  11.810  10.013   4.786  0.2731  0.1154  0.7108
  310MOL0     C41752  11.951  10.032   4.743  0.2648 -0.1847 -0.7130
  310MOL0     C41753  12.042  10.040   4.863 -1.2091 -0.2468  0.6911
  310MOL0     C41754  12.180  10.080   4.806 -0.2196  0.3274 -0.1620
  310MOL0     C41755  12.290  10.058   4.919  0.4171  0.3852  0.0528
  310MOL0     C41756  12.431  10.116   4.898 -0.1432 -0.1457  0.1302
  310MOL0     C41757  12.486  10.061   4.764  0.3919  0.6068  0.2100
  310MOL0     C41758  12.623  10.128   4.727  0.1851  0.3248 -0.2163
  310MOL0    Cl41759  12.742  10.061   4.842 -0.2479  0.2270 -0.0786
  310MOL0     C41760  11.516   9.912   4.564 -0.1574 -0.1143  0.5452
  310MOL0     C41761  11.380   9.885   4.567  0.4209  0.3340 -0.1730
  310MOL0     O41762  11.203   9.641   4.768  0.0893 -0.0343 -0.6835
  310MOL0     C41763  10.917   9.620   4.819  0.8283  0.9766 -0.6461
  310MOL0     C41764  10.772   9.611   4.815 -0.4889 -0.4584  1.2133
  310MOL0     N41765  10.657  10.060   5.144  1.2718 -0.7448  1.0315
  310MOL0     N41766  10.765  10.009   5.182 -0.1295 -0.5405 -0.0202
  310MOL0     C41767  10.625   8.934   5.443  0.3461 -0.2122 -1.0572
  310MOL0     C41768  10.515   8.876   5.512 -0.0622  0.1087  0.9215
  310MOL0     C41769  10.161   8.901   5.793 -0.3698  0.4468  0.7531
  310MOL0     C41770  10.068   8.996   5.836  0.0350  0.1832 -0.7864
  310MOL0     C41771   9.949   8.960   5.898 -0.2197 -0.2069  0.1634
  310MOL0     C41772   9.924   8.828   5.913 -0.1580 -0.0788 -0.0653
  310MOL0     O41773   9.820   8.800   5.999  0.4575  0.2739  0.7404
  310MOL0     C41774   9.732   8.694   5.961  0.4410  0.3095  0.2764
  310MOL0     C41775   9.666   8.702   5.824 -0.0867 -0.0600  0.1414
  310MOL0     C41776   9.576   8.589   5.799 -0.2066  0.4968 -0.6501
  310MOL0     C41777   9.522   8.598   5.655 -0.2486  0.6303  0.4719
  310MOL0     C41778   9.395   8.684   5.663  0.1727  0.4536  0.7979
  310MOL0     C41779   9.295   8.755   5.656 -0.8177  0.3048  0.5926
  310MOL0     C41780  10.005   8.736   5.868  0.4799  0.4374  1.1223
  310MOL0     C41781  10.134   8.764   5.817 -0.5328 -0.0330 -0.1764
  310MOL0     C41782  10.217   8.643   5.777 -0.6348  0.8480  0.9064
  310MOL0     H41783  10.564   9.035   5.800 -1.0920  3.3543 -0.9877
  310MOL0     H41784  10.765   9.122   5.691 -0.0445  0.7768 -0.8833
  310MOL0     H41785  10.970   9.112   5.574  2.0209  1.5937 -1.1420
  310MOL0     H41786  10.961   8.955   5.480  1.4655 -0.2732  1.5876
  310MOL0     H41787  11.073   9.076   5.291  2.9030  3.2412 -1.9042
  310MOL0     H41788  11.136   9.159   5.435 -0.3106 -0.9430  1.2111
  310MOL0     H41789  10.952   9.337   5.409 -1.1424  0.1656 -1.0260
  310MOL0     H41790  10.904   9.237   5.267 -0.2761 -2.5675  2.1187
  310MOL0     H41791  11.155   9.391   5.287 -0.9468 -2.5701  4.1173
  310MOL0     H41792  11.106   9.267   5.164 -0.7329 -0.3264 -0.4147
  310MOL0     H41793  11.069   9.521   5.099  1.6270 -2.2511 -0.6644
  310MOL0     H41794  10.933   9.409   5.077  0.3085 -0.8592  0.8106
  310MOL0     H41795  10.860   9.493   5.313  0.3464  0.7595  0.5631
  310MOL0     H41796  10.997   9.607   5.305 -0.8142 -1.1005  2.2991
  310MOL0     H41797  10.755   9.626   5.115  0.3013 -0.0950 -0.1928
  310MOL0     H41798  10.907   9.698   5.097 -0.4898 -0.4015  0.0731
  310MOL0     H41799  10.757   9.735   5.357 -0.7501 -2.9250 -0.8835
  310MOL0     H41800  10.903   9.817   5.295  0.2735 -1.3979 -1.7210
  310MOL0     H41801  10.566   9.745   5.131 -0.8361  1.3080 -1.3776
  310MOL0     H41802  10.347   9.932   5.155 -0.5678 -0.2722 -0.4721
  310MOL0     H41803  10.389  10.071   5.063  0.4126  1.1027  2.6358
  310MOL0     H41804  10.392   9.773   4.986  2.6691  1.3753  4.9425
  310MOL0     H41805  10.282   9.883   4.920  0.2879 -0.8630  0.0030
  310MOL0     H41806  10.551   9.989   4.851  0.5432  0.1528 -0.8219
  310MOL0     H41807  10.390   9.999   4.787 -0.6233  0.2000  2.2144
  310MOL0     H41808  10.534   9.876   4.640  2.3991  0.3282  1.7179
  310MOL0     H41809  10.387   9.788   4.684  1.9035 -1.7713 -1.5809
  310MOL0     H41810  10.718   9.919   4.699  0.1266  0.6590  0.6861
  310MOL0     H41811  10.956   9.920   4.685  1.4766  0.9353  3.3767
  310MOL0     H41812  11.330   9.943   4.904 -1.0737  5.8233  0.0534
  310MOL0     H41813  11.582   9.995   4.888  3.4713 -2.4965 -1.4999
  310MOL0     H41814  11.781  10.106   4.837  1.3452  1.9810 -1.8262
  310MOL0     H41815  11.812   9.935   4.862  1.8524 -1.2548 -0.6789
  310MOL0     H41816  11.966   9.947   4.675  0.9802 -1.7049  1.2326
  310MOL0     H41817  11.961  10.126   4.688 -0.1783 -0.9464 -2.1387
  310MOL0     H41818  12.006  10.122   4.927  0.0024  1.1557 -0.3627
  310MOL0     H41819  12.056   9.944   4.914 -0.4365 -1.3243 -1.4340
  310MOL0     H41820  12.167  10.185   4.778  1.9568  0.6636 -0.0490
  310MOL0     H41821  12.211  10.023   4.718 -2.2180  1.0850 -1.4323
  310MOL0     H41822  12.296   9.951   4.938  1.0202  0.7103  1.8886
  310MOL0     H41823  12.260  10.109   5.012  0.6621 -0.8913  0.8611
  310MOL0     H41824  12.416  10.225   4.901  0.8854  0.0059  2.6060
  310MOL0     H41825  12.504  10.090   4.976  1.0947  3.0339  0.2195
  310MOL0     H41826  12.418  10.086   4.682 -0.4335  1.7484  1.1942
  310MOL0     H41827  12.490   9.952   4.759  0.9394  0.6348  0.0690
  310MOL0     H41828  12.659  10.111   4.626 -0.9278 -2.2223 -0.2643
  310MOL0     H41829  12.611  10.236   4.738  0.1676  0.3503 -0.4790
  310MOL0     H41830  11.570   9.905   4.470  0.2623  0.3413  0.7428
  310MOL0     H41831  11.320   9.862   4.479 -0.6020  3.0603 -0.3056
  310MOL0     H41832  10.967   9.536   4.866  0.4531  0.7596 -0.6280
  310MOL0     H41833  10.716   9.529   4.859 -0.0988 -0.0490  2.5140
  310MOL0     H41834  10.637   8.917   5.337 -1.9759 -1.4272 -1.1850
  310MOL0     H41835  10.454   8.796   5.472  2.2409 -1.0065 -0.6639
  310MOL0     H41836  10.089   9.101   5.815  1.5321 -0.8374 -5.6212
  310MOL0     H41837   9.880   9.037   5.931 -0.6374 -0.4835 -0.0450
  310MOL0     H41838   9.653   8.695   6.037 -0.1746  3.8183 -0.2427
  310MOL0     H41839   9.791   8.602   5.973 -0.2669 -0.0461  1.1401
  310MOL0     H41840   9.735   8.712   5.741 -1.2703  0.1516 -0.8447
  310MOL0     H41841   9.598   8.788   5.824  0.8689  0.8855 -3.7902
  310MOL0     H41842   9.494   8.582   5.871 -0.8096 -3.6767 -1.5125
  310MOL0     H41843   9.633   8.497   5.816  0.2545  0.9812  0.5734
  310MOL0     H41844   9.598   8.633   5.584  0.8735 -4.0231 -1.0240
  310MOL0     H41845   9.497   8.501   5.611 -0.5960  0.5333  0.8804
  310MOL0     H41846   9.214   8.825   5.657 -0.0553  1.2134  0.7183
  310MOL0     H41847   9.976   8.632   5.882  1.1282  0.2029  0.7588
  310MOL0     H41848  10.308   8.652   5.838 -0.5753 -0.3677  1.0346
  310MOL0     H41849  10.162   8.550   5.794 -1.2867  1.3442  1.5496
  310MOL0     H41850  10.250   8.640   5.673  3.0631  1.8009  1.8984
  311MOL0     O41851   8.136   4.274   5.702 -0.6738 -0.2883  0.0323
  311MOL0     C41852   8.227   4.340   5.653  0.3038  0.6194  0.2479
  311MOL0     O41853   8.214   4.439   5.559  0.0401  0.2827  0.8252
  311MOL0     C41854   8.089   4.469   5.510 -0.2097 -0.2071  0.3577
  311MOL0     C41855   8.060   4.592   5.460  1.2269  0.4471  1.0744
  311MOL0     C41856   7.936   4.626   5.413  0.3985 -0.8025  0.1982
  311MOL0     C41857   7.840   4.532   5.401  0.6119  0.4501 -0.2028
  311MOL0     O41858   7.707   4.554   5.373 -0.2592 -0.3332  1.2873
  311MOL0     C41859   7.648   4.640   5.473  0.2618 -0.1557  0.1677
  311MOL0     C41860   7.577   4.757   5.406  0.5560 -0.5531  0.3251
  311MOL0     C41861   7.522   4.857   5.504  0.1584 -0.0027 -0.2224
  311MOL0     C41862   7.619   4.946   5.586  0.3405  0.0133  0.0481
  311MOL0     C41863   7.702   5.046   5.497  0.3611 -0.1372  0.1881
  311MOL0     C41864   7.761   5.156   5.584  0.2439  0.3052 -1.4514
  311MOL0     C41865   7.790   5.121   5.731  0.1274 -0.6071 -0.0082
  311MOL0     C41866   7.862   5.243   5.791  0.2618  0.0577  0.0174
  311MOL0     N41867   7.904   5.213   5.925 -0.2985 -0.4886 -0.4679
  311MOL0     C41868   7.842   5.127   6.008 -0.5635  0.6776 -1.2305
  311MOL0     C41869   7.930   5.087   6.105  0.1303  0.0083 -0.9964
  311MOL0     C41870   7.911   4.980   6.215  0.0516 -0.0993  1.2243
  311MOL0     C41871   7.994   4.848   6.201  0.1892 -0.1528  0.0773
  311MOL0     C41872   7.990   4.761   6.327 -0.2623  0.2226  0.4797
  311MOL0     C41873   8.020   4.832   6.458  0.6034 -0.6682 -0.2299
  311MOL0     O41874   8.151   4.900   6.467  0.8324  0.1395  0.2912
  311MOL0     C41875   8.265   4.833   6.506 -0.2703 -0.0881 -0.7256
  311MOL0     C41876   8.376   4.911   6.540 -0.3154 -0.8100 -0.9346
  311MOL0     C41877   8.491   4.851   6.593  0.0262  0.6111 -0.2712
  311MOL0     C41878   8.504   4.711   6.611  0.1868  0.1012  0.1226
  311MOL0     C41879   8.629   4.646   6.667 -0.6701  0.1644  1.0998
  311MOL0     O41880   8.635   4.504   6.675 -0.5284 -0.3229  0.7957
  311MOL0     C41881   8.746   4.439   6.713  0.1788 -0.3323  0.0147
  311MOL0     C41882   8.873   4.488   6.676  0.7015  0.0822  0.1287
  311MOL0     C41883   8.982   4.416   6.730  0.0372  0.6136  0.0450
  311MOL0     C41884   8.968   4.301   6.805 -0.1043 -0.7716 -1.0664
  311MOL0     O41885   9.088   4.236   6.839 -0.3053 -0.0864  0.2488
  311MOL0     C41886   9.091   4.134   6.937  0.0856  0.0209 -0.8806
  311MOL0     C41887   9.241   4.129   6.980  0.7331 -0.3997  1.5291
  311MOL0     C41888   9.273   3.994   7.041 -0.2587  0.3394 -0.6542
  311MOL0     C41889   9.164   3.948   7.150  0.4357 -0.1695  0.1825
  311MOL0     C41890   9.229   3.832   7.235  0.0094 -0.0116  0.9892
  311MOL0     C41891   9.121   3.768   7.317 -0.0792  0.4385 -0.3362
  311MOL0     C41892   9.182   3.729   7.455 -0.4176 -0.0922  0.5419
  311MOL0     C41893   9.106   3.793   7.564  0.1668  0.3405  1.0730
  311MOL0    Cl41894   9.153   3.966   7.570  0.0014  0.0896 -0.5554
  311MOL0     C41895   8.840   4.248   6.840 -1.2523  0.4247 -0.1225
  311MOL0     C41896   8.730   4.320   6.793 -0.8951 -0.6501  0.6002
  311MOL0     O41897   8.714   4.734   6.690 -0.0675  0.3015  0.4337
  311MOL0     C41898   8.390   4.640   6.592  0.3145 -0.0943 -0.3783
  311MOL0     C41899   8.277   4.697   6.531  0.6068 -0.5621 -0.9116
  311MOL0     N41900   8.045   5.155   6.089 -0.5587 -0.3324  0.0642
  311MOL0     N41901   8.026   5.231   5.973 -0.2543 -0.2065  0.5901
  311MOL0     C41902   7.868   4.401   5.435 -0.9607 -0.0200  0.7778
  311MOL0     C41903   7.995   4.367   5.479  0.4384 -0.5682  0.5253
  311MOL0     C41904   8.360   4.301   5.699 -0.6717  0.3827 -0.3321
  311MOL0     C41905   8.397   4.168   5.730  1.0056 -0.2425 -0.0517
  311MOL0     C41906   8.531   4.127   5.754  0.6036  0.1550  0.3658
  311MOL0     C41907   8.638   4.212   5.765  0.6855  0.0569 -0.0981
  311MOL0     O41908   8.765   4.161   5.789 -0.7934 -0.2639 -0.6668
  311MOL0     C41909   8.880   4.255   5.789 -0.2339  0.1387 -0.7700
  311MOL0     C41910   8.897   4.321   5.651 -0.1406 -0.5627 -0.4653
  311MOL0     C41911   8.874   4.230   5.527  0.0757  0.4180  0.5846
  311MOL0     C41912   8.936   4.094   5.530 -0.1557  1.3599  0.4208
  311MOL0     C41913   8.929   4.015   5.407  0.4437  0.4167 -0.8062
  311MOL0     C41914   8.932   3.948   5.306 -0.4629 -0.9456  0.2687
  311MOL0     C41915   8.602   4.345   5.755 -0.0443  0.2444  0.2745
  311MOL0     C41916   8.472   4.389   5.709  0.0371 -0.6906 -0.1503
  311MOL0     C41917   8.446   4.540   5.709 -0.5350 -0.5860  0.0338
  311MOL0     H41918   8.130   4.674   5.478  1.3020  0.5887  0.2070
  311MOL0     H41919   7.912   4.731   5.398  0.2710 -0.6982  1.0627
  311MOL0     H41920   7.579   4.572   5.524  1.9914 -2.3769 -0.2666
  311MOL0     H41921   7.717   4.676   5.550  3.5072 -0.2732 -2.4653
  311MOL0     H41922   7.501   4.721   5.336  2.0903  0.1996 -1.8298
  311MOL0     H41923   7.650   4.806   5.341 -0.9046  0.5870 -0.5472
  311MOL0     H41924   7.451   4.803   5.567  1.8948 -0.5321  1.3744
  311MOL0     H41925   7.451   4.913   5.442  0.2786 -1.7656 -2.0609
  311MOL0     H41926   7.567   5.009   5.659 -1.0637 -1.1815  0.1250
  311MOL0     H41927   7.688   4.885   5.646  0.7572  0.6679  0.2525
  311MOL0     H41928   7.773   4.990   5.435 -0.1414  0.1424 -0.6622
  311MOL0     H41929   7.637   5.090   5.421  1.4910  0.2554 -0.5610
  311MOL0     H41930   7.854   5.184   5.534  1.3240 -2.2367 -1.0236
  311MOL0     H41931   7.693   5.241   5.593  1.1728  0.8933  4.9321
  311MOL0     H41932   7.851   5.030   5.734  0.2072 -0.5714  3.2762
  311MOL0     H41933   7.698   5.109   5.787 -0.1945 -3.0164 -0.9504
  311MOL0     H41934   7.946   5.275   5.729 -1.1669  0.4222 -1.8336
  311MOL0     H41935   7.790   5.325   5.804 -2.9949 -2.2114 -2.1298
  311MOL0     H41936   7.739   5.091   6.009 -0.5374  0.5300  1.2864
  311MOL0     H41937   7.941   5.039   6.301  3.6141 -0.8345  0.6269
  311MOL0     H41938   7.802   4.963   6.216 -0.8908  4.5375  0.0813
  311MOL0     H41939   7.979   4.791   6.109  0.0053 -0.3002  0.1970
  311MOL0     H41940   8.098   4.876   6.184 -0.1845 -0.0089 -2.3539
  311MOL0     H41941   8.047   4.668   6.317 -0.7262  0.1636 -2.9154
  311MOL0     H41942   7.887   4.724   6.331  0.4001 -1.6207  2.3054
  311MOL0     H41943   8.013   4.753   6.533  0.5332  0.9034  1.4933
  311MOL0     H41944   7.945   4.906   6.485 -0.9313 -2.8169  1.8518
  311MOL0     H41945   8.382   5.019   6.527  0.9125 -0.8683 -0.9549
  311MOL0     H41946   8.582   4.906   6.614  2.1355 -2.8410  0.2838
  311MOL0     H41947   8.888   4.574   6.611 -2.6845 -1.0182 -2.3809
  311MOL0     H41948   9.084   4.447   6.709 -0.4535  2.5317  0.3585
  311MOL0     H41949   9.023   4.158   7.019 -2.3725  2.7998 -3.4317
  311MOL0     H41950   9.048   4.037   6.909 -3.7531 -0.1493  4.1191
  311MOL0     H41951   9.309   4.158   6.900 -0.9900  2.7444  1.0065
  311MOL0     H41952   9.249   4.217   7.046  0.6674  1.1427 -0.4282
  311MOL0     H41953   9.265   3.914   6.968 -1.1203  0.1845 -0.3972
  311MOL0     H41954   9.365   3.995   7.101 -2.8199 -1.6549  3.8339
  311MOL0     H41955   9.079   3.902   7.099 -1.5224  0.4919  2.6943
  311MOL0     H41956   9.128   4.024   7.219  0.3019  1.5187 -1.6669
  311MOL0     H41957   9.302   3.880   7.301  0.2334  1.4446 -0.2455
  311MOL0     H41958   9.281   3.753   7.180 -0.8738 -0.1033  0.2697
  311MOL0     H41959   9.036   3.837   7.329 -0.7246 -0.5385  0.9754
  311MOL0     H41960   9.088   3.683   7.257  2.0417 -0.5528 -0.1713
  311MOL0     H41961   9.288   3.753   7.464 -0.7543  1.4229  0.6672
  311MOL0     H41962   9.177   3.620   7.465  0.3479 -0.0414  1.6633
  311MOL0     H41963   9.000   3.784   7.539 -0.0096  1.4289  1.3701
  311MOL0     H41964   9.130   3.757   7.665 -1.1411 -0.0562  1.2676
  311MOL0     H41965   8.815   4.153   6.885 -1.1951  0.6943  0.4869
  311MOL0     H41966   8.626   4.290   6.807 -1.7091  0.5230 -2.2188
  311MOL0     H41967   8.394   4.535   6.619 -0.2543 -0.0551 -0.1364
  311MOL0     H41968   8.196   4.629   6.509 -0.2605 -0.4157  1.5617
  311MOL0     H41969   7.797   4.321   5.415 -0.0565 -0.1395 -2.5967
  311MOL0     H41970   8.018   4.265   5.509  2.2955  0.2981  2.2423
  311MOL0     H41971   8.317   4.094   5.734  2.2863 -1.7241 -0.7803
  311MOL0     H41972   8.536   4.023   5.784  1.5645  0.3777  1.0163
  311MOL0     H41973   8.973   4.207   5.819  1.7452  3.0740 -1.6764
  311MOL0     H41974   8.856   4.331   5.865 -2.6002 -0.5464 -0.7564
  311MOL0     H41975   9.002   4.351   5.642 -0.1537 -0.7601 -1.3660
  311MOL0     H41976   8.836   4.409   5.632  0.1950 -0.5856 -1.7433
  311MOL0     H41977   8.912   4.289   5.443 -1.8340  1.9210  0.7201
  311MOL0     H41978   8.768   4.209   5.508  0.5693 -2.1551  0.2519
  311MOL0     H41979   9.044   4.091   5.546  0.0066 -0.3210 -0.6952
  311MOL0     H41980   8.897   4.042   5.618 -0.2394  2.0912  0.8228
  311MOL0     H41981   8.922   3.876   5.228 -0.1735 -1.2906  0.5437
  311MOL0     H41982   8.665   4.427   5.788 -2.5418  2.0581  0.8196
  311MOL0     H41983   8.507   4.588   5.785 -2.2029  2.4772 -0.3701
  311MOL0     H41984   8.490   4.581   5.617 -1.5145 -1.3790 -0.8250
  311MOL0     H41985   8.344   4.577   5.725  0.4585  0.9974  3.4432
  312MOL0     O41986   2.172   3.745   1.783  0.4422  0.1942  0.3815
  312MOL0     C41987   2.146   3.648   1.713  0.2195  0.3271 -0.6194
  312MOL0     O41988   2.235   3.571   1.653  0.1171 -0.3087  0.3119
  312MOL0     C41989   2.372   3.572   1.687  0.5657 -0.7094  0.3800
  312MOL0     C41990   2.439   3.450   1.720 -0.4147 -0.1382 -0.3532
  312MOL0     C41991   2.579   3.450   1.721  0.1679  0.3184  0.9088
  312MOL0     C41992   2.646   3.567   1.709 -0.1973  0.7418 -0.0843
  312MOL0     O41993   2.783   3.589   1.719 -0.4604 -0.6796 -0.2198
  312MOL0     C41994   2.871   3.492   1.755  0.0004  0.0087 -0.4918
  312MOL0     C41995   2.849   3.439   1.904  0.4928  0.8768  0.8362
  312MOL0     C41996   2.896   3.546   2.001  0.9368 -0.0017  0.9900
  312MOL0     C41997   2.829   3.521   2.133 -0.5433 -0.1441  0.5681
  312MOL0     C41998   2.856   3.611   2.260 -0.4105 -0.3736 -0.6251
  312MOL0     C41999   2.986   3.685   2.251 -1.1171  0.3052  0.5973
  312MOL0     C42000   3.023   3.752   2.377  0.5845 -0.2004 -0.1046
  312MOL0     C42001   3.168   3.813   2.367 -0.1126 -0.4183 -1.0643
  312MOL0     N42002   3.200   3.903   2.475  0.3853  0.1215 -0.2746
  312MOL0     C42003   3.139   4.021   2.505  1.1580  0.6296  0.3380
  312MOL0     C42004   3.215   4.061   2.611 -0.9249 -0.2855 -0.4527
  312MOL0     C42005   3.198   4.200   2.662 -0.5461 -0.4976 -0.0648
  312MOL0     C42006   3.288   4.303   2.586 -0.3013  0.0922 -0.7784
  312MOL0     C42007   3.432   4.308   2.629  0.4176  0.3568  0.2062
  312MOL0     C42008   3.518   4.416   2.563 -0.4446 -0.8337 -0.1763
  312MOL0     O42009   3.643   4.424   2.639  0.2390  0.7522 -0.6958
  312MOL0     C42010   3.737   4.521   2.611  0.5204  0.9079 -1.0879
  312MOL0     C42011   3.712   4.656   2.608  1.1759 -0.0376  0.9911
  312MOL0     C42012   3.817   4.745   2.571  0.0331 -0.7328 -1.0101
  312MOL0     C42013   3.947   4.691   2.555 -0.5377 -0.4222 -0.1047
  312MOL0     C42014   4.057   4.785   2.519 -0.4321  0.0253 -0.3147
  312MOL0     O42015   4.182   4.737   2.501 -0.1865  0.0204  0.0304
  312MOL0     C42016   4.292   4.809   2.482 -0.0015 -0.1611 -0.5818
  312MOL0     C42017   4.395   4.759   2.559  0.2655  0.4410  0.0582
  312MOL0     C42018   4.528   4.788   2.525  0.0405  0.1704 -0.2280
  312MOL0     C42019   4.548   4.870   2.420  0.3709  0.1870 -0.1817
  312MOL0     O42020   4.677   4.883   2.368 -0.1387 -0.2434 -0.1895
  312MOL0     C42021   4.722   4.767   2.287  0.6861  0.2051 -0.2866
  312MOL0     C42022   4.633   4.743   2.166 -0.2018 -0.0161 -0.6592
  312MOL0     C42023   4.691   4.655   2.050 -0.4703 -0.7154 -0.2040
  312MOL0     C42024   4.592   4.652   1.935  0.4615 -0.6649 -0.3460
  312MOL0     C42025   4.647   4.594   1.812 -0.8853  0.4505  0.2579
  312MOL0     C42026   4.632   4.442   1.811 -0.5039  0.8084 -0.3931
  312MOL0     C42027   4.711   4.379   1.689 -0.0590 -0.5104 -0.6375
  312MOL0     C42028   4.868   4.394   1.678 -0.2403  0.2492 -0.4861
  312MOL0    Cl42029   4.945   4.380   1.851 -0.0969 -0.4465 -0.1798
  312MOL0     C42030   4.439   4.936   2.355  0.3515 -1.1513  0.4119
  312MOL0     C42031   4.306   4.900   2.380 -0.2677 -1.0137  1.0517
  312MOL0     O42032   4.025   4.901   2.527 -0.0730 -0.4626  0.0524
  312MOL0     C42033   3.966   4.552   2.572  0.0829 -0.0727  0.1951
  312MOL0     C42034   3.860   4.471   2.601  0.8684 -0.6232  0.4878
  312MOL0     N42035   3.320   3.975   2.631 -0.5421  0.1710  0.1447
  312MOL0     N42036   3.310   3.878   2.554  0.3955  0.1052 -0.3638
  312MOL0     C42037   2.586   3.688   1.693  0.8957 -0.6392  0.7412
  312MOL0     C42038   2.449   3.699   1.688  0.4406  0.1608 -0.2823
  312MOL0     C42039   2.005   3.609   1.704 -0.2767  0.0589 -0.6373
  312MOL0     C42040   1.965   3.541   1.592  0.1999 -0.4218  0.6429
  312MOL0     C42041   1.832   3.501   1.570  0.5101  0.6595  0.1320
  312MOL0     C42042   1.733   3.525   1.671  0.3204  0.2015 -0.0969
  312MOL0     O42043   1.611   3.485   1.630 -0.0128 -0.8129 -0.6562
  312MOL0     C42044   1.573   3.351   1.656 -0.0919 -0.7356 -0.2613
  312MOL0     C42045   1.425   3.367   1.636  0.5263 -0.0292  0.2756
  312MOL0     C42046   1.348   3.230   1.652  0.8472  0.4217 -0.3903
  312MOL0     C42047   1.332   3.204   1.797  0.5808  0.5307 -0.4601
  312MOL0     C42048   1.253   3.082   1.827  0.3033 -0.4866 -0.1499
  312MOL0     C42049   1.216   2.965   1.853  0.1526 -0.3675 -0.1070
  312MOL0     C42050   1.763   3.616   1.769 -0.3134  0.5561  0.4345
  312MOL0     C42051   1.898   3.656   1.793  0.8549  0.8780  0.6584
  312MOL0     C42052   1.911   3.748   1.925  1.1341  0.2511  0.1189
  312MOL0     H42053   2.383   3.358   1.727 -0.6191  0.1123  2.6019
  312MOL0     H42054   2.617   3.350   1.739  0.3732  0.0260 -0.9772
  312MOL0     H42055   2.869   3.412   1.681  0.3056 -1.1981  0.7604
  312MOL0     H42056   2.971   3.536   1.766  1.0002 -2.1056 -0.5676
  312MOL0     H42057   2.909   3.349   1.915 -0.7540 -0.2207 -0.8627
  312MOL0     H42058   2.746   3.404   1.918 -0.0393  1.5591 -0.9966
  312MOL0     H42059   2.878   3.651   1.975  0.6791  0.2578  2.1638
  312MOL0     H42060   3.003   3.535   2.019  1.0695  0.0283  0.2837
  312MOL0     H42061   2.724   3.512   2.101  0.1423 -1.0850 -1.6753
  312MOL0     H42062   2.870   3.423   2.159  1.7791  1.3031  2.7982
  312MOL0     H42063   2.781   3.691   2.265  0.6768  0.6340  4.1354
  312MOL0     H42064   2.845   3.556   2.354 -2.4965 -1.0265 -1.1905
  312MOL0     H42065   3.067   3.614   2.230  0.9974  3.1490 -1.6416
  312MOL0     H42066   2.980   3.756   2.168 -1.6035 -0.0912  0.2903
  312MOL0     H42067   3.021   3.678   2.457 -0.5784  0.7543  0.7726
  312MOL0     H42068   2.947   3.823   2.411 -0.7695 -2.6548  2.3524
  312MOL0     H42069   3.232   3.725   2.373 -0.0039 -0.2411  1.3560
  312MOL0     H42070   3.180   3.865   2.271 -2.8280 -0.3583 -1.4687
  312MOL0     H42071   3.066   4.074   2.445 -0.9679 -1.0599  1.2751
  312MOL0     H42072   3.092   4.224   2.652 -0.5117  0.0499  0.7492
  312MOL0     H42073   3.240   4.213   2.762  1.7973  0.4408 -1.0768
  312MOL0     H42074   3.289   4.285   2.478  0.5354 -1.7225 -0.5060
  312MOL0     H42075   3.249   4.404   2.602  0.9262  0.3082  1.1458
  312MOL0     H42076   3.490   4.217   2.611 -0.8064 -0.4458  0.2158
  312MOL0     H42077   3.435   4.314   2.738  0.3225 -2.3370  0.4240
  312MOL0     H42078   3.464   4.512   2.562  0.9311 -0.0351 -1.2315
  312MOL0     H42079   3.544   4.389   2.461 -3.0454 -2.3712 -0.5226
  312MOL0     H42080   3.608   4.687   2.617  1.5938  2.4883 -1.5690
  312MOL0     H42081   3.791   4.850   2.559 -2.2279 -1.4341 -3.0242
  312MOL0     H42082   4.383   4.683   2.636 -1.5319  0.1864 -0.4429
  312MOL0     H42083   4.609   4.740   2.578  0.0160  0.1257 -0.2310
  312MOL0     H42084   4.822   4.783   2.245  1.6594 -1.9420  1.0281
  312MOL0     H42085   4.734   4.673   2.341 -1.4626  2.5261  4.8786
  312MOL0     H42086   4.552   4.679   2.202  1.3427 -1.8690 -0.3220
  312MOL0     H42087   4.596   4.839   2.130 -1.7181  0.5904  2.2040
  312MOL0     H42088   4.793   4.686   2.027 -0.4306 -0.1915  0.6129
  312MOL0     H42089   4.697   4.552   2.087  1.1316 -0.6434 -0.2101
  312MOL0     H42090   4.556   4.753   1.911 -4.0484 -2.2793 -1.3533
  312MOL0     H42091   4.510   4.593   1.976 -0.0979  0.1491 -0.2461
  312MOL0     H42092   4.756   4.601   1.814 -0.7726 -1.0091  2.2299
  312MOL0     H42093   4.609   4.652   1.727  1.5313  2.6812  0.5897
  312MOL0     H42094   4.667   4.404   1.907 -2.7532  0.4945  0.3526
  312MOL0     H42095   4.525   4.420   1.802 -0.6514  1.7952 -1.2824
  312MOL0     H42096   4.669   4.424   1.598 -1.2986  1.1335  0.6946
  312MOL0     H42097   4.685   4.273   1.690  2.8018 -1.3373  2.0475
  312MOL0     H42098   4.912   4.317   1.614 -0.7989 -0.8772  0.4633
  312MOL0     H42099   4.901   4.494   1.647 -1.4968  1.8861  2.9801
  312MOL0     H42100   4.460   5.013   2.281 -1.5102 -3.0025 -2.2141
  312MOL0     H42101   4.228   4.937   2.315  0.5731 -0.1927  0.4698
  312MOL0     H42102   4.066   4.509   2.582  0.4839  0.5611 -0.8608
  312MOL0     H42103   3.878   4.365   2.618  1.8449 -0.4720  0.4887
  312MOL0     H42104   2.645   3.779   1.692  0.1398 -0.0741 -1.9470
  312MOL0     H42105   2.400   3.794   1.669 -1.4449 -1.0643 -2.0175
  312MOL0     H42106   2.040   3.505   1.522  0.9840 -3.3097  2.7475
  312MOL0     H42107   1.795   3.441   1.487 -1.7036  1.3948  0.5267
  312MOL0     H42108   1.609   3.322   1.755  0.6695 -0.7645 -0.5465
  312MOL0     H42109   1.605   3.282   1.578 -1.0059 -1.0141 -0.4059
  312MOL0     H42110   1.398   3.416   1.541 -1.1808  1.6083  1.5333
  312MOL0     H42111   1.378   3.433   1.709 -1.2939 -0.2504 -0.6334
  312MOL0     H42112   1.387   3.147   1.593 -2.7305 -0.0090 -2.4739
  312MOL0     H42113   1.247   3.243   1.612  0.8992  0.5081 -0.4946
  312MOL0     H42114   1.432   3.190   1.838  0.2275  0.2473  0.3278
  312MOL0     H42115   1.298   3.293   1.851 -0.2312 -0.6232  1.0155
  312MOL0     H42116   1.175   2.869   1.875  1.5135 -0.8417  0.4909
  312MOL0     H42117   1.675   3.646   1.826 -2.8057 -2.4919 -1.4662
  312MOL0     H42118   2.014   3.781   1.940  1.6857 -2.3589  2.9816
  312MOL0     H42119   1.845   3.835   1.924  2.1132  1.0760 -2.5029
  312MOL0     H42120   1.880   3.696   2.015 -0.2534 -0.5390 -0.7820
  313MOL0     O42121   3.585   8.195   0.741 -0.5455  0.1151 -0.6504
  313MOL0     C42122   3.621   8.264   0.644  0.7577 -0.3972 -0.5407
  313MOL0     O42123   3.549   8.368   0.584 -0.3038  0.2729  0.2068
  313MOL0     C42124   3.441   8.410   0.647  0.0158  0.1772  0.1519
  313MOL0     C42125   3.312   8.369   0.608 -0.9583 -0.1139 -0.2063
  313MOL0     C42126   3.200   8.416   0.681 -0.1345 -0.0253 -0.0014
  313MOL0     C42127   3.210   8.504   0.788 -1.1118  0.1020 -0.2469
  313MOL0     O42128   3.109   8.543   0.875  0.0930  0.5966 -0.2391
  313MOL0     C42129   2.975   8.516   0.827  0.1588 -0.0169  0.2007
  313MOL0     C42130   2.884   8.557   0.940  0.5233  0.4549  0.6041
  313MOL0     C42131   2.730   8.562   0.904 -1.0131  0.1995 -0.5910
  313MOL0     C42132   2.691   8.639   0.774 -0.6465  0.7906 -0.7393
  313MOL0     C42133   2.545   8.604   0.749  0.5409 -0.3637  0.4465
  313MOL0     C42134   2.502   8.680   0.625 -0.5037  0.3338 -0.5458
  313MOL0     C42135   2.361   8.641   0.586  0.1900 -0.0680 -0.4098
  313MOL0     C42136   2.323   8.689   0.446 -0.4015 -0.4981 -0.5738
  313MOL0     N42137   2.209   8.620   0.382  0.1979 -0.2113 -0.7328
  313MOL0     C42138   2.124   8.529   0.446 -0.3120 -0.3508  1.0042
  313MOL0     C42139   2.027   8.511   0.358  0.5544  0.0996 -0.0569
  313MOL0     C42140   1.895   8.446   0.381 -0.0446 -0.4838  0.1367
  313MOL0     C42141   1.877   8.319   0.303  0.2665  0.7760 -0.5103
  313MOL0     C42142   1.835   8.334   0.155 -0.0489 -0.1247 -0.2780
  313MOL0     C42143   1.823   8.200   0.093 -0.1282  0.3377 -0.0880
  313MOL0     O42144   1.729   8.122   0.163  0.9390  0.0869 -0.1544
  313MOL0     C42145   1.606   8.099   0.101 -0.3227 -0.1226  0.3764
  313MOL0     C42146   1.593   8.002  -0.003 -0.1187 -0.0758 -0.0030
  313MOL0     C42147   1.460   7.977  -0.047  0.3233  0.0391  0.9098
  313MOL0     C42148   1.353   8.029   0.012  0.3872  0.6404 -0.1616
  313MOL0     C42149   1.221   7.997  -0.044  0.8720 -0.4235  0.2926
  313MOL0     O42150   1.114   8.028   0.033  0.2260  1.0282  0.0868
  313MOL0     C42151   0.978   8.007   0.012  0.6350 -0.0822 -0.3705
  313MOL0     C42152   0.918   7.985  -0.110  0.3790 -0.1371 -0.2079
  313MOL0     C42153   0.783   7.963  -0.121 -0.3102 -0.0627  0.1355
  313MOL0     C42154   0.696   7.978  -0.010 -1.3318 -0.5968 -0.3654
  313MOL0     O42155   0.568   7.970  -0.005  0.8391  0.1465 -0.7073
  313MOL0     C42156   0.493   7.976  -0.127  0.4607 -1.0664  0.0571
  313MOL0     C42157   0.337   8.001  -0.113  0.0955  0.9182  0.0194
  313MOL0     C42158   0.252   7.996  -0.240  0.0922 -1.3686  0.1225
  313MOL0     C42159   0.217   7.845  -0.267  0.1256  0.2077  0.3674
  313MOL0     C42160   0.135   7.811  -0.392  0.1241  0.0986 -0.0658
  313MOL0     C42161   0.001   7.892  -0.391 -0.9144  0.3429 -0.3398
  313MOL0     C42162  -0.091   7.850  -0.514  0.9004 -1.0840 -0.6372
  313MOL0     C42163  -0.199   7.963  -0.540 -0.1916  0.0859  0.6926
  313MOL0    Cl42164  -0.276   8.017  -0.386  0.2544  0.2773  0.1686
  313MOL0     C42165   0.755   7.997   0.116 -0.2576  0.1254 -0.2194
  313MOL0     C42166   0.894   8.023   0.126 -0.0523 -0.2643 -0.3682
  313MOL0     O42167   1.212   7.974  -0.166 -0.4660 -0.3947  0.3782
  313MOL0     C42168   1.368   8.126   0.114 -0.0729  0.2289 -0.3944
  313MOL0     C42169   1.497   8.154   0.158  0.5837  0.1733  0.2081
  313MOL0     N42170   2.056   8.583   0.242 -0.9398 -0.0479  0.0792
  313MOL0     N42171   2.166   8.649   0.255 -0.1418  0.2769 -0.8220
  313MOL0     C42172   3.341   8.545   0.819 -0.7003  0.1189 -0.3278
  313MOL0     C42173   3.449   8.503   0.745 -0.3396 -0.1501 -0.0755
  313MOL0     C42174   3.746   8.219   0.578  0.0616 -0.8094  0.1092
  313MOL0     C42175   3.851   8.185   0.662 -1.0846  0.8170  0.1951
  313MOL0     C42176   3.974   8.160   0.603  0.3319 -1.1048 -0.3863
  313MOL0     C42177   3.997   8.170   0.468 -1.2163 -0.6891 -0.2428
  313MOL0     O42178   4.118   8.158   0.409 -0.4377 -0.7016  0.2079
  313MOL0     C42179   4.226   8.070   0.446 -0.2755  0.2355 -0.7445
  313MOL0     C42180   4.345   8.131   0.515 -0.3553 -0.0820  0.3440
  313MOL0     C42181   4.406   8.240   0.427  0.2636 -0.3607 -0.0546
  313MOL0     C42182   4.546   8.277   0.470  0.2519 -0.3878 -0.2090
  313MOL0     C42183   4.542   8.338   0.604 -0.4855 -0.6709  1.0546
  313MOL0     C42184   4.545   8.396   0.705  0.3986  0.6159 -0.1444
  313MOL0     C42185   3.888   8.203   0.386  0.0453 -0.0481 -0.1822
  313MOL0     C42186   3.763   8.216   0.442  1.1849 -0.0963 -0.2153
  313MOL0     C42187   3.654   8.229   0.345  0.1903 -0.6468  0.1265
  313MOL0     H42188   3.308   8.297   0.527 -0.8362 -0.1936 -0.1417
  313MOL0     H42189   3.109   8.374   0.638 -0.1335  0.5166 -0.5450
  313MOL0     H42190   2.956   8.584   0.744 -0.7639 -1.9401 -1.2281
  313MOL0     H42191   2.965   8.411   0.798 -0.4949 -1.1079  3.8627
  313MOL0     H42192   2.908   8.661   0.963  0.6009  0.8538 -1.1137
  313MOL0     H42193   2.892   8.500   1.033 -0.3653  1.1077  1.0953
  313MOL0     H42194   2.677   8.594   0.994 -2.0947 -2.7171 -0.0737
  313MOL0     H42195   2.696   8.459   0.887  0.2134 -1.2009  4.0864
  313MOL0     H42196   2.704   8.747   0.784 -0.3192  0.5855  1.6638
  313MOL0     H42197   2.748   8.598   0.690 -1.6055 -0.6273 -0.7364
  313MOL0     H42198   2.524   8.499   0.732 -2.5334 -0.1671  2.3206
  313MOL0     H42199   2.493   8.634   0.840  1.2695 -1.9852  1.4218
  313MOL0     H42200   2.502   8.785   0.655  4.1219  0.5588 -0.6747
  313MOL0     H42201   2.573   8.658   0.545 -0.0114 -0.4243  0.0738
  313MOL0     H42202   2.291   8.672   0.664  0.7597  1.5890 -0.5091
  313MOL0     H42203   2.349   8.533   0.590 -3.7651  0.1636 -2.1239
  313MOL0     H42204   2.290   8.794   0.441 -1.4280 -0.8230 -0.8329
  313MOL0     H42205   2.406   8.683   0.376  1.0913  1.7779  0.8732
  313MOL0     H42206   2.117   8.500   0.550  0.2138  0.8489  1.3830
  313MOL0     H42207   1.880   8.426   0.487 -0.0755 -2.4831 -0.1957
  313MOL0     H42208   1.814   8.515   0.356 -0.5440 -0.8622  0.6913
  313MOL0     H42209   1.960   8.248   0.311 -1.3247 -1.0670  0.3772
  313MOL0     H42210   1.794   8.264   0.348  0.6423 -0.0762 -0.8295
  313MOL0     H42211   1.902   8.403   0.102  1.0281 -1.6276 -0.9803
  313MOL0     H42212   1.736   8.380   0.155  1.7153  4.2620 -2.4616
  313MOL0     H42213   1.919   8.147   0.097 -0.3766 -0.3274 -1.9514
  313MOL0     H42214   1.796   8.204  -0.013 -0.9292  1.8977  0.1549
  313MOL0     H42215   1.668   7.942  -0.053 -1.8107 -0.6507 -2.0273
  313MOL0     H42216   1.439   7.904  -0.125  0.7124  1.9503 -1.0697
  313MOL0     H42217   0.970   7.966  -0.204 -2.5203  3.5742 -2.8889
  313MOL0     H42218   0.729   7.941  -0.213 -2.1760  0.0074  1.1484
  313MOL0     H42219   0.518   8.055  -0.199 -2.0035  0.7417  1.0684
  313MOL0     H42220   0.504   7.878  -0.175 -1.4773 -1.5487  0.5087
  313MOL0     H42221   0.305   7.922  -0.044 -1.2612  2.7348  1.5913
  313MOL0     H42222   0.327   8.090  -0.050 -0.0634  1.0196 -0.1491
  313MOL0     H42223   0.166   8.057  -0.209  0.1424 -2.3339  2.3746
  313MOL0     H42224   0.298   8.041  -0.328  0.2834  1.9692  1.7345
  313MOL0     H42225   0.158   7.808  -0.184  0.2165  2.1711  1.3650
  313MOL0     H42226   0.316   7.798  -0.276 -0.4826 -0.8792 -1.0583
  313MOL0     H42227   0.119   7.703  -0.401 -0.1806  0.3235 -5.3751
  313MOL0     H42228   0.188   7.843  -0.482 -1.2183  1.4482 -0.4235
  313MOL0     H42229  -0.051   7.889  -0.295 -0.3891 -0.5788 -0.0681
  313MOL0     H42230   0.026   7.997  -0.412 -0.4184  0.6205  1.5331
  313MOL0     H42231  -0.135   7.750  -0.499  0.7979 -0.9010  0.3334
  313MOL0     H42232  -0.028   7.838  -0.603  1.3938 -3.3956 -0.0379
  313MOL0     H42233  -0.165   8.055  -0.587 -1.1705  0.7221  1.2050
  313MOL0     H42234  -0.274   7.913  -0.602  0.7826  0.0459 -0.4880
  313MOL0     H42235   0.694   7.995   0.206 -0.8645  0.0834 -0.6346
  313MOL0     H42236   0.939   8.048   0.221 -2.4300 -2.0480  1.3599
  313MOL0     H42237   1.283   8.173   0.161 -0.8664 -0.2826 -1.2659
  313MOL0     H42238   1.514   8.220   0.242 -1.0503 -0.4743  1.1058
  313MOL0     H42239   3.360   8.612   0.902  0.1410 -0.3527 -0.1252
  313MOL0     H42240   3.547   8.539   0.775 -0.7847  0.9973  0.0531
  313MOL0     H42241   3.835   8.182   0.769  0.2568 -4.7818  0.5332
  313MOL0     H42242   4.055   8.139   0.672 -2.4740  0.3601  3.7228
  313MOL0     H42243   4.267   8.025   0.356  1.0181  1.2750 -0.7031
  313MOL0     H42244   4.178   7.995   0.511  0.1203  2.7432  2.7488
  313MOL0     H42245   4.409   8.049   0.550 -1.6770 -0.8135  1.1416
  313MOL0     H42246   4.317   8.185   0.606 -0.2143 -0.1446  0.4248
  313MOL0     H42247   4.347   8.332   0.421  0.5369 -0.0350  1.7097
  313MOL0     H42248   4.401   8.217   0.320  0.1460  1.7372 -0.5507
  313MOL0     H42249   4.600   8.183   0.481  0.6954 -0.2681 -1.2660
  313MOL0     H42250   4.595   8.338   0.393  2.5847 -1.9333 -0.0599
  313MOL0     H42251   4.560   8.455   0.793  1.8672 -1.1847  0.8931
  313MOL0     H42252   3.905   8.209   0.279 -0.7838 -0.4672 -0.3449
  313MOL0     H42253   3.669   8.164   0.259 -2.0642 -0.2229 -0.6706
  313MOL0     H42254   3.562   8.198   0.396 -0.9990  1.6168 -0.4978
  313MOL0     H42255   3.642   8.332   0.310  3.9114 -0.1801 -0.1254
  314MOL0     O42256  10.912  10.471   9.340  0.0732  0.0382 -0.2243
  314MOL0     C42257  10.865  10.577   9.306  0.6341 -0.5541  0.5224
  314MOL0     O42258  10.932  10.678   9.245  0.1720  0.4215  0.9433
  314MOL0     C42259  11.059  10.664   9.185  0.4920  1.0348  0.0023
  314MOL0     C42260  11.102  10.547   9.116 -0.1346 -0.1890 -0.4068
  314MOL0     C42261  11.229  10.536   9.072  0.5319 -0.3267  0.3614
  314MOL0     C42262  11.323  10.641   9.090 -0.4412 -0.3431  0.2398
  314MOL0     O42263  11.452  10.645   9.061 -0.1798  0.0367 -0.8261
  314MOL0     C42264  11.521  10.533   9.018  0.1632  0.8141  0.3029
  314MOL0     C42265  11.647  10.520   9.104 -0.1834  0.0680  0.3824
  314MOL0     C42266  11.753  10.636   9.098 -0.0059 -0.5032  0.1377
  314MOL0     C42267  11.799  10.665   8.950  1.2506  0.2281  0.2275
  314MOL0     C42268  11.925  10.754   8.944  0.4472  0.9597  0.6988
  314MOL0     C42269  11.959  10.785   8.795 -0.4058  0.7266  0.2109
  314MOL0     C42270  12.079  10.875   8.777 -0.1325  0.6930  0.1392
  314MOL0     C42271  12.142  10.884   8.635  0.3283  0.2066  0.6669
  314MOL0     N42272  12.268  10.960   8.638 -0.1497 -0.2266  0.2947
  314MOL0     C42273  12.274  11.100   8.664 -0.0389  0.3460  0.0946
  314MOL0     C42274  12.406  11.121   8.690  0.2755  0.3538  0.3026
  314MOL0     C42275  12.467  11.253   8.719  0.3254 -0.0404  0.1521
  314MOL0     C42276  12.431  11.364   8.614 -0.2893 -0.6845  0.6028
  314MOL0     C42277  12.449  11.508   8.674 -0.2233  0.4448  0.0543
  314MOL0     C42278  12.435  11.619   8.566  0.4851  0.3310 -0.5341
  314MOL0     O42279  12.546  11.623   8.483  0.2916  0.1460 -0.4552
  314MOL0     C42280  12.650  11.711   8.503  0.3445  0.0377  0.3993
  314MOL0     C42281  12.726  11.733   8.391 -0.8423  0.0389  0.2874
  314MOL0     C42282  12.838  11.815   8.401 -0.9246 -0.8907 -1.0338
  314MOL0     C42283  12.873  11.881   8.528 -0.1785 -0.5621  0.0789
  314MOL0     C42284  12.986  11.975   8.531  0.1673  0.0931  1.4092
  314MOL0     O42285  13.040  12.015   8.416 -0.4997 -0.1044  0.3214
  314MOL0     C42286  13.161  12.076   8.422 -0.5133 -0.4371 -0.0004
  314MOL0     C42287  13.274  11.999   8.462 -0.9749 -0.0305 -0.1696
  314MOL0     C42288  13.393  12.057   8.515  0.7617  0.3760 -0.3805
  314MOL0     C42289  13.402  12.190   8.512  0.1976 -0.2083 -0.0302
  314MOL0     O42290  13.519  12.247   8.558  0.1411  0.0072  0.6645
  314MOL0     C42291  13.563  12.377   8.518  0.6078 -0.6288 -1.0809
  314MOL0     C42292  13.665  12.373   8.399 -0.3839 -0.0227  0.7902
  314MOL0     C42293  13.814  12.420   8.427 -0.1301  0.9152  0.1664
  314MOL0     C42294  13.899  12.388   8.296  0.1841 -0.1776 -0.1996
  314MOL0     C42295  14.046  12.395   8.320 -0.4125  0.3204  0.2602
  314MOL0     C42296  14.111  12.533   8.343 -0.1562  0.3140 -1.1785
  314MOL0     C42297  14.251  12.525   8.409  0.5099  0.3414 -0.0062
  314MOL0     C42298  14.305  12.663   8.440 -0.7269 -0.3069 -0.3448
  314MOL0    Cl42299  14.194  12.731   8.561 -0.2762 -0.1216  0.2930
  314MOL0     C42300  13.295  12.265   8.459 -1.0921  0.4345  0.3931
  314MOL0     C42301  13.164  12.216   8.421  0.4323 -0.6528  0.0420
  314MOL0     O42302  13.027  12.003   8.644  0.3202 -0.7034 -0.0056
  314MOL0     C42303  12.791  11.853   8.634 -0.0688  0.4793  0.8651
  314MOL0     C42304  12.682  11.768   8.627 -1.5531  0.2363  0.8245
  314MOL0     N42305  12.475  11.000   8.684  0.1023 -0.2896  0.8334
  314MOL0     N42306  12.390  10.910   8.657  0.2292  1.1607 -0.5255
  314MOL0     C42307  11.286  10.754   9.165 -0.3124  0.0223  0.1646
  314MOL0     C42308  11.149  10.768   9.205 -0.0895 -0.2436 -0.0314
  314MOL0     C42309  10.740  10.628   9.378 -0.1033 -0.4340 -0.0887
  314MOL0     C42310  10.765  10.736   9.466  0.7965 -0.2743 -0.0116
  314MOL0     C42311  10.651  10.799   9.529 -0.6197  0.5214 -1.1594
  314MOL0     C42312  10.524  10.744   9.518 -0.4006  0.5585 -0.0051
  314MOL0     O42313  10.424  10.792   9.606  0.5596 -0.0838  0.0548
  314MOL0     C42314  10.289  10.815   9.550  1.8211  0.1563  0.2625
  314MOL0     C42315  10.201  10.882   9.654  0.4958  0.2589  0.1183
  314MOL0     C42316  10.184  10.800   9.781  0.0281  0.2369  0.6079
  314MOL0     C42317  10.283  10.845   9.890 -0.5213  0.0600  0.2905
  314MOL0     C42318  10.280  10.744   9.992  0.2870  0.5998 -0.2859
  314MOL0     C42319  10.262  10.662  10.087 -0.0483  0.0357  0.6482
  314MOL0     C42320  10.511  10.630   9.439 -0.7761  0.2497  0.4902
  314MOL0     C42321  10.616  10.570   9.370  0.8928 -0.1964 -0.2176
  314MOL0     C42322  10.591  10.453   9.286 -0.1109  0.1365  0.0664
  314MOL0     H42323  11.029  10.466   9.118  3.0730 -3.3109  0.4788
  314MOL0     H42324  11.257  10.444   9.020  1.3812 -1.1585  2.1806
  314MOL0     H42325  11.467  10.439   9.036  0.2520  0.9439  1.3034
  314MOL0     H42326  11.551  10.553   8.914  2.8465  2.6433  1.3234
  314MOL0     H42327  11.705  10.429   9.084  2.5545  1.4300  1.5253
  314MOL0     H42328  11.607  10.510   9.206 -0.5166  1.4744  0.3999
  314MOL0     H42329  11.846  10.615   9.152 -0.3907  0.4760  1.2417
  314MOL0     H42330  11.727  10.722   9.161  0.2425 -0.4341  0.1512
  314MOL0     H42331  11.821  10.573   8.895 -1.5802  0.2242 -1.0580
  314MOL0     H42332  11.718  10.718   8.899  1.3460 -0.9518 -1.1859
  314MOL0     H42333  11.925  10.845   9.005 -0.9685  2.3182 -1.2140
  314MOL0     H42334  12.012  10.693   8.971  0.2825  1.2447  1.8972
  314MOL0     H42335  11.975  10.691   8.742  4.5991  1.2452  0.2815
  314MOL0     H42336  11.870  10.829   8.749  2.0970  2.9131 -3.1253
  314MOL0     H42337  12.146  10.843   8.857  0.0198  2.4968  0.7843
  314MOL0     H42338  12.061  10.976   8.815  3.3398  0.7180  2.1270
  314MOL0     H42339  12.160  10.782   8.599  0.1500  1.0207 -1.8904
  314MOL0     H42340  12.079  10.934   8.561  1.0237  1.1842  0.7094
  314MOL0     H42341  12.191  11.170   8.660  0.0274  0.4125 -0.0979
  314MOL0     H42342  12.437  11.280   8.821 -4.0472  3.4310 -1.7180
  314MOL0     H42343  12.575  11.238   8.710 -0.0039 -1.9082 -1.3262
  314MOL0     H42344  12.489  11.350   8.522 -2.6590  2.0474 -1.5441
  314MOL0     H42345  12.325  11.363   8.588  0.5034 -0.2265 -3.2625
  314MOL0     H42346  12.546  11.520   8.722 -0.9434  0.0597  1.6762
  314MOL0     H42347  12.367  11.519   8.746 -1.0143 -1.1205 -0.5424
  314MOL0     H42348  12.423  11.719   8.609 -0.7033  1.2413 -2.8292
  314MOL0     H42349  12.345  11.583   8.516 -1.5227  1.1077  2.2761
  314MOL0     H42350  12.706  11.679   8.299  1.2267  1.0298 -0.8280
  314MOL0     H42351  12.903  11.840   8.318  2.8975 -2.9648  0.9955
  314MOL0     H42352  13.263  11.891   8.464 -1.7178  0.0288 -0.4775
  314MOL0     H42353  13.476  12.000   8.555  1.4346 -0.3892 -2.6759
  314MOL0     H42354  13.487  12.452   8.494 -0.6090 -1.9143 -1.3489
  314MOL0     H42355  13.605  12.430   8.604 -4.1692 -1.1991  1.9626
  314MOL0     H42356  13.667  12.270   8.362  3.7650  0.1961 -0.0296
  314MOL0     H42357  13.621  12.429   8.316 -3.0186 -0.6069  1.6900
  314MOL0     H42358  13.819  12.526   8.453  2.1733  0.4672  1.9123
  314MOL0     H42359  13.853  12.370   8.516 -1.1098 -1.3358 -0.5939
  314MOL0     H42360  13.880  12.463   8.219  0.4745  2.5673  2.2393
  314MOL0     H42361  13.866  12.294   8.252 -0.2885  0.6357 -1.6340
  314MOL0     H42362  14.089  12.345   8.233 -0.7503 -1.2303  0.9517
  314MOL0     H42363  14.065  12.327   8.404 -0.5996 -0.2376 -0.1433
  314MOL0     H42364  14.124  12.591   8.251 -1.6351  0.5391 -1.2590
  314MOL0     H42365  14.040  12.580   8.411  2.2648 -1.4502  2.9504
  314MOL0     H42366  14.326  12.465   8.356  0.2109  0.2016 -0.2750
  314MOL0     H42367  14.248  12.469   8.504 -0.8735 -1.1716 -0.8835
  314MOL0     H42368  14.406  12.644   8.479 -0.1155  0.2235 -1.6037
  314MOL0     H42369  14.309  12.719   8.347  0.6763 -1.8118 -1.2597
  314MOL0     H42370  13.307  12.371   8.437 -0.1643  0.6748  1.9167
  314MOL0     H42371  13.087  12.291   8.403  1.7130  0.8913  0.7313
  314MOL0     H42372  12.806  11.904   8.728 -1.7194  0.6516  1.0749
  314MOL0     H42373  12.636  11.748   8.724  0.3586  0.1243  1.7735
  314MOL0     H42374  11.357  10.834   9.182 -1.8098  1.2781  0.7959
  314MOL0     H42375  11.121  10.854   9.265  2.1457 -1.0157  2.3334
  314MOL0     H42376  10.858  10.786   9.493 -0.3504  0.4024  3.1626
  314MOL0     H42377  10.662  10.873   9.608 -0.2802 -1.7766  1.0669
  314MOL0     H42378  10.236  10.724   9.519 -0.2351  0.6290  2.1152
  314MOL0     H42379  10.290  10.872   9.457  2.0654 -0.3657 -0.0592
  314MOL0     H42380  10.100  10.906   9.619 -0.1913 -0.6367  1.3988
  314MOL0     H42381  10.253  10.975   9.680  1.2786  0.4654 -2.0019
  314MOL0     H42382  10.196  10.695   9.752 -2.1442 -0.0722  0.6410
  314MOL0     H42383  10.083  10.814   9.820  0.3131  1.7169  0.9031
  314MOL0     H42384  10.384  10.862   9.851 -0.0807 -2.7381  0.0183
  314MOL0     H42385  10.243  10.938   9.932 -0.8113  0.1509 -0.1807
  314MOL0     H42386  10.218  10.601  10.164  2.2648 -2.1320  0.3926
  314MOL0     H42387  10.414  10.585   9.421  0.0213 -0.7052 -1.7775
  314MOL0     H42388  10.663  10.376   9.317  0.4215  0.5121 -0.2107
  314MOL0     H42389  10.487  10.422   9.293  0.0817 -0.2627  1.4219
  314MOL0     H42390  10.616  10.484   9.184  3.3661  1.2549  1.1219
  315MOL0     O42391   1.532   5.788   8.342  0.3315  0.1763  0.0796
  315MOL0     C42392   1.474   5.786   8.450 -0.6796 -0.1159 -0.8631
  315MOL0     O42393   1.509   5.709   8.555 -1.0800 -0.3541 -1.6475
  315MOL0     C42394   1.588   5.598   8.531  0.3322  0.0827  0.7185
  315MOL0     C42395   1.679   5.563   8.629  0.1574  0.3501 -0.5734
  315MOL0     C42396   1.754   5.446   8.610  0.2187  0.2939  0.8028
  315MOL0     C42397   1.735   5.353   8.504  0.5923  0.0962 -0.7536
  315MOL0     O42398   1.807   5.239   8.496  0.1491  0.8161  0.8107
  315MOL0     C42399   1.822   5.172   8.376  0.1940  0.0120  0.1037
  315MOL0     C42400   1.929   5.071   8.393 -0.2159 -0.0059  0.6329
  315MOL0     C42401   2.065   5.138   8.381 -0.0992 -0.3115 -0.2029
  315MOL0     C42402   2.162   5.019   8.396 -0.2824  0.3214  0.2492
  315MOL0     C42403   2.316   5.068   8.384 -0.2327  0.3005  0.2604
  315MOL0     C42404   2.410   4.947   8.376  0.5763 -0.1944  0.8076
  315MOL0     C42405   2.555   4.996   8.409  0.6799  0.0016 -0.5840
  315MOL0     C42406   2.646   4.872   8.420 -0.1772 -0.7456  0.0743
  315MOL0     N42407   2.781   4.919   8.443  1.0040  0.1539  0.1851
  315MOL0     C42408   2.868   4.984   8.360 -0.8765  0.4196  0.0869
  315MOL0     C42409   2.969   5.013   8.446 -0.7987  0.3866 -0.1479
  315MOL0     C42410   3.102   5.077   8.411  1.1883 -0.0430 -0.2285
  315MOL0     C42411   3.219   5.030   8.506 -0.1033 -0.8830  0.1726
  315MOL0     C42412   3.350   5.048   8.433  0.6682 -0.5140 -0.7700
  315MOL0     C42413   3.470   5.047   8.533  0.0368 -0.2271  1.3705
  315MOL0     O42414   3.525   4.925   8.568  0.4897 -0.3432  0.2156
  315MOL0     C42415   3.656   4.938   8.613 -0.1772 -0.1373  0.4173
  315MOL0     C42416   3.697   5.039   8.709  0.9338 -0.5659 -0.3444
  315MOL0     C42417   3.832   5.052   8.738  0.8445  0.8608 -0.1616
  315MOL0     C42418   3.922   4.959   8.680  0.5022  0.2198 -0.3498
  315MOL0     C42419   4.070   4.977   8.694 -0.3111  0.5238 -1.2118
  315MOL0     O42420   4.119   5.093   8.748  0.0655  0.3090 -0.2498
  315MOL0     C42421   4.253   5.090   8.763 -1.4264 -0.2530 -0.5328
  315MOL0     C42422   4.323   4.990   8.840 -0.1825 -0.7904  0.2200
  315MOL0     C42423   4.465   5.000   8.853  0.3276  0.5359  0.9604
  315MOL0     C42424   4.536   5.107   8.799 -0.0389 -0.8098 -0.7751
  315MOL0     O42425   4.658   5.137   8.850 -0.4175  0.0458 -0.8392
  315MOL0     C42426   4.754   5.121   8.743 -0.8114 -0.2492 -0.0798
  315MOL0     C42427   4.885   5.184   8.795  0.7230  0.7325  0.5560
  315MOL0     C42428   4.988   5.177   8.685 -0.7534 -0.1255 -0.1465
  315MOL0     C42429   5.044   5.034   8.651 -0.1828 -0.0368 -0.0095
  315MOL0     C42430   5.111   5.035   8.516 -0.1242 -0.0154 -0.2217
  315MOL0     C42431   5.167   4.886   8.496  0.0876  0.4397 -0.0310
  315MOL0     C42432   5.220   4.884   8.349 -0.4318  0.2889 -0.7551
  315MOL0     C42433   5.323   4.769   8.339  1.4623  0.0390 -0.2226
  315MOL0    Cl42434   5.263   4.602   8.293 -0.4891 -0.3960 -0.2342
  315MOL0     C42435   4.468   5.204   8.744 -0.7587 -0.7726  0.1121
  315MOL0     C42436   4.329   5.198   8.704  0.1370  0.2390  0.0624
  315MOL0     O42437   4.128   4.877   8.647 -0.8664 -0.6188  0.3032
  315MOL0     C42438   3.880   4.856   8.597 -0.1383  1.2098 -0.2319
  315MOL0     C42439   3.750   4.852   8.557  0.2106 -0.1784  0.3331
  315MOL0     N42440   2.947   4.961   8.569  0.0044 -0.7364 -1.2973
  315MOL0     N42441   2.829   4.913   8.567 -0.8960 -0.4156 -0.3213
  315MOL0     C42442   1.634   5.390   8.417 -0.1909  0.1912  0.6107
  315MOL0     C42443   1.565   5.511   8.425  0.3300  0.3307 -0.0696
  315MOL0     C42444   1.350   5.867   8.464  0.5739 -0.9157  0.7869
  315MOL0     C42445   1.257   5.816   8.556 -0.5508 -1.1185 -1.2272
  315MOL0     C42446   1.128   5.871   8.557  0.1628  0.2670 -0.3511
  315MOL0     C42447   1.101   5.986   8.477  0.3238 -0.0062  0.7644
  315MOL0     O42448   0.978   6.034   8.471  0.0788  0.3980  0.2668
  315MOL0     C42449   0.865   5.943   8.467 -1.6508 -1.1414 -0.6089
  315MOL0     C42450   0.735   5.990   8.524 -0.7738  0.2206  0.7446
  315MOL0     C42451   0.665   6.098   8.431  0.2122  0.0179  0.5282
  315MOL0     C42452   0.540   6.048   8.354  0.5076 -0.3488 -0.1741
  315MOL0     C42453   0.568   5.940   8.263 -0.3586  0.0892  0.5720
  315MOL0     C42454   0.588   5.854   8.181  0.4654  0.3879 -0.2180
  315MOL0     C42455   1.201   6.036   8.391  0.5092 -0.9424 -0.2275
  315MOL0     C42456   1.331   5.989   8.392  0.3684 -0.0102 -0.2397
  315MOL0     C42457   1.433   6.059   8.319  0.0473 -0.0609 -0.7104
  315MOL0     H42458   1.711   5.632   8.708  2.0884  1.3986 -2.1769
  315MOL0     H42459   1.828   5.417   8.683  0.6923  0.7661  0.5215
  315MOL0     H42460   1.737   5.107   8.353 -0.6830  0.5918  1.6067
  315MOL0     H42461   1.844   5.238   8.291 -1.5604 -3.4497 -3.4038
  315MOL0     H42462   1.921   4.996   8.314  1.1164 -0.5367  0.9708
  315MOL0     H42463   1.919   5.017   8.487  0.4147 -1.8450 -0.3090
  315MOL0     H42464   2.082   5.196   8.473 -1.8368 -2.4658  1.5925
  315MOL0     H42465   2.072   5.198   8.290 -3.0469 -3.3840 -2.6679
  315MOL0     H42466   2.148   4.966   8.490  2.6103  1.2682  1.3128
  315MOL0     H42467   2.136   4.951   8.314 -2.7290  0.5703  0.7190
  315MOL0     H42468   2.329   5.123   8.290 -5.0174  0.7463 -0.3485
  315MOL0     H42469   2.347   5.126   8.472 -1.1377 -0.6349  1.2218
  315MOL0     H42470   2.375   4.868   8.443 -1.4167 -0.7604 -0.7708
  315MOL0     H42471   2.399   4.914   8.272  1.4955  2.5265 -0.2469
  315MOL0     H42472   2.551   5.042   8.508 -1.6484 -1.3128  0.0206
  315MOL0     H42473   2.582   5.071   8.334 -1.6543  2.7046  1.0373
  315MOL0     H42474   2.605   4.819   8.506 -0.7748 -1.8003 -0.8368
  315MOL0     H42475   2.650   4.804   8.334  0.1066 -1.5938  0.7407
  315MOL0     H42476   2.859   5.015   8.256 -1.2923  3.2240  0.8923
  315MOL0     H42477   3.123   5.065   8.304 -1.7108 -0.4788 -0.8441
  315MOL0     H42478   3.096   5.186   8.420 -3.5133 -0.1950  1.8264
  315MOL0     H42479   3.227   5.100   8.589 -1.5133 -0.4181 -0.0472
  315MOL0     H42480   3.208   4.927   8.540  2.5579 -0.4803  2.6017
  315MOL0     H42481   3.341   5.149   8.393 -2.2125  1.5139  4.1818
  315MOL0     H42482   3.358   4.985   8.343  0.6719 -3.2673  1.0458
  315MOL0     H42483   3.454   5.107   8.623  2.1677  4.1868 -0.8727
  315MOL0     H42484   3.543   5.100   8.471 -1.1322 -0.9443 -0.7274
  315MOL0     H42485   3.628   5.110   8.753  0.7870 -1.6365  1.2258
  315MOL0     H42486   3.855   5.141   8.796  0.4524  2.1157 -1.8506
  315MOL0     H42487   4.270   4.905   8.882  0.8777 -1.1418  0.8896
  315MOL0     H42488   4.514   4.928   8.918  0.3695  1.9724  2.5995
  315MOL0     H42489   4.775   5.016   8.718 -1.8326 -0.5308  0.2160
  315MOL0     H42490   4.729   5.172   8.650  3.1474 -0.1738 -1.2985
  315MOL0     H42491   4.883   5.286   8.834  1.8950  0.8829  0.2844
  315MOL0     H42492   4.912   5.120   8.879 -0.5683 -1.4011 -0.5491
  315MOL0     H42493   4.945   5.220   8.593 -0.7915  0.9404  0.3503
  315MOL0     H42494   5.069   5.249   8.703 -0.8391 -0.1450  0.3280
  315MOL0     H42495   4.966   4.959   8.650 -0.9273  0.6463 -2.6508
  315MOL0     H42496   5.111   4.986   8.723 -1.7156  0.3946  1.7788
  315MOL0     H42497   5.191   5.108   8.528 -1.6822  1.2525  4.2120
  315MOL0     H42498   5.046   5.072   8.436 -0.2710  1.7816  0.6977
  315MOL0     H42499   5.245   4.844   8.560  1.8813 -0.2082 -2.5049
  315MOL0     H42500   5.083   4.815   8.490  0.0258  0.5256 -0.1755
  315MOL0     H42501   5.274   4.977   8.328  3.1921 -1.2936  0.7199
  315MOL0     H42502   5.140   4.882   8.274 -2.3309  1.3421  1.1635
  315MOL0     H42503   5.401   4.799   8.269  1.6929  3.6940  1.3963
  315MOL0     H42504   5.375   4.763   8.434 -2.9149 -0.8402  2.4200
  315MOL0     H42505   4.520   5.298   8.726  0.6499 -0.9066  2.8602
  315MOL0     H42506   4.283   5.281   8.650  0.0723 -0.5744 -1.1890
  315MOL0     H42507   3.943   4.770   8.578 -1.2736 -0.0878  1.5191
  315MOL0     H42508   3.719   4.767   8.497  0.3010 -1.9838  2.7240
  315MOL0     H42509   1.605   5.327   8.334 -3.0770  0.9271  0.9716
  315MOL0     H42510   1.489   5.533   8.351  2.1224 -0.2278 -2.1525
  315MOL0     H42511   1.283   5.732   8.619 -0.5325 -0.2838 -0.0908
  315MOL0     H42512   1.055   5.822   8.621 -0.2296  0.7343 -0.4375
  315MOL0     H42513   0.874   5.851   8.525 -4.4382 -0.8016  0.5116
  315MOL0     H42514   0.843   5.908   8.366 -2.4565 -1.0855 -0.4579
  315MOL0     H42515   0.759   6.043   8.617 -0.7186  0.7254  0.4427
  315MOL0     H42516   0.677   5.903   8.558  1.4950 -1.6973 -0.0131
  315MOL0     H42517   0.732   6.150   8.362 -0.7251  1.4315  0.6397
  315MOL0     H42518   0.623   6.174   8.497  0.4674  0.5359  0.1074
  315MOL0     H42519   0.466   6.012   8.427  1.1765 -2.0010 -0.2717
  315MOL0     H42520   0.507   6.133   8.293 -0.7355 -0.8368 -0.2219
  315MOL0     H42521   0.593   5.774   8.109 -1.4847 -1.2746  1.3485
  315MOL0     H42522   1.161   6.121   8.336  1.0497 -1.0914 -0.8639
  315MOL0     H42523   1.525   6.051   8.377 -2.4555  2.1772  4.2304
  315MOL0     H42524   1.456   6.022   8.219  0.2565 -0.7055 -0.4301
  315MOL0     H42525   1.403   6.163   8.306 -4.1347 -0.8977  0.4808
  316MOL0     O42526   0.623   5.355   8.092  0.8540  0.3010  0.1343
  316MOL0     C42527   0.664   5.381   7.974 -0.1080  0.6008 -0.2204
  316MOL0     O42528   0.749   5.302   7.907 -0.2907  0.1769  0.1905
  316MOL0     C42529   0.812   5.201   7.970  0.7241 -0.4129 -0.3655
  316MOL0     C42530   0.739   5.088   7.997  0.5225 -0.6941 -0.5630
  316MOL0     C42531   0.803   4.976   8.052  0.2768  0.8457 -0.0847
  316MOL0     C42532   0.938   4.966   8.067 -0.5558 -0.1546 -0.1118
  316MOL0     O42533   1.002   4.849   8.117  0.4726 -0.2165 -0.0839
  316MOL0     C42534   0.934   4.724   8.141  0.1624 -0.7494 -0.3193
  316MOL0     C42535   1.040   4.614   8.153  1.1301 -0.8266  0.3556
  316MOL0     C42536   1.117   4.610   8.288  0.0912 -0.5361 -0.3723
  316MOL0     C42537   1.207   4.474   8.294  0.6308 -0.7864 -0.4698
  316MOL0     C42538   1.339   4.493   8.376  0.2218 -0.1019 -1.3448
  316MOL0     C42539   1.399   4.355   8.386  0.0238  0.6902  0.3295
  316MOL0     C42540   1.526   4.363   8.453 -0.1188  0.7238  1.0680
  316MOL0     C42541   1.581   4.223   8.460  0.6604 -0.0979  0.0579
  316MOL0     N42542   1.718   4.213   8.509  0.5259  0.7605  1.3217
  316MOL0     C42543   1.751   4.226   8.639  0.5114 -0.4719  0.7212
  316MOL0     C42544   1.878   4.252   8.640 -0.6006  0.8198  0.2160
  316MOL0     C42545   1.957   4.309   8.765 -0.2305 -0.6871  0.1258
  316MOL0     C42546   2.049   4.204   8.830  0.2511  0.0566 -0.1521
  316MOL0     C42547   2.120   4.264   8.951  0.4625  0.0222 -0.0455
  316MOL0     C42548   2.191   4.161   9.036 -0.5840 -0.2555 -0.1964
  316MOL0     O42549   2.188   4.198   9.179  0.2326  0.3023  0.1681
  316MOL0     C42550   2.278   4.297   9.216  0.6859 -0.4923  0.2450
  316MOL0     C42551   2.267   4.326   9.350  0.1211 -0.0440 -0.2630
  316MOL0     C42552   2.345   4.427   9.410 -0.5145 -0.3443 -0.5586
  316MOL0     C42553   2.445   4.492   9.333 -0.1508 -0.4839  0.0268
  316MOL0     C42554   2.525   4.603   9.394 -0.0760 -0.4359 -0.5591
  316MOL0     O42555   2.624   4.652   9.318  0.1998 -0.3760  0.0551
  316MOL0     C42556   2.728   4.729   9.363  0.1653  0.2207 -0.7486
  316MOL0     C42557   2.717   4.865   9.379  0.1256  0.0025 -0.8262
  316MOL0     C42558   2.823   4.934   9.438  0.4833  0.4530  0.7421
  316MOL0     C42559   2.939   4.871   9.471  0.4996  0.1928 -0.5410
  316MOL0     O42560   3.046   4.948   9.510  0.2300 -0.4664  0.2791
  316MOL0     C42561   3.169   4.891   9.553  0.9962  0.6650 -1.3032
  316MOL0     C42562   3.274   4.986   9.615 -0.4453  1.5534 -0.2575
  316MOL0     C42563   3.317   5.100   9.522  0.9907  0.0399 -0.1261
  316MOL0     C42564   3.449   5.158   9.557 -0.0634  0.4970 -1.3566
  316MOL0     C42565   3.441   5.251   9.683 -0.4059 -0.1749  0.3363
  316MOL0     C42566   3.590   5.271   9.731  0.2816 -0.3925 -0.3988
  316MOL0     C42567   3.579   5.386   9.833 -0.0931 -0.3099 -0.1604
  316MOL0     C42568   3.689   5.492   9.801 -0.5954 -0.8277 -0.1876
  316MOL0    Cl42569   3.633   5.584   9.672  0.1879  0.2332  0.4847
  316MOL0     C42570   2.949   4.729   9.458 -0.4984  0.0868  0.7420
  316MOL0     C42571   2.843   4.664   9.393  0.2798 -0.3217  0.2697
  316MOL0     O42572   2.509   4.623   9.514  0.2177  0.5501 -0.6035
  316MOL0     C42573   2.451   4.453   9.202 -0.1807 -0.3376  0.6314
  316MOL0     C42574   2.373   4.364   9.135 -0.2072  0.0920  0.0751
  316MOL0     N42575   1.929   4.220   8.508  0.5483  0.0517  0.5958
  316MOL0     N42576   1.827   4.212   8.432 -0.0531  0.9089  0.1528
  316MOL0     C42577   1.015   5.075   8.026  0.1488  0.0583  0.3098
  316MOL0     C42578   0.952   5.198   7.984 -0.0401  0.1928 -0.9610
  316MOL0     C42579   0.623   5.513   7.921  1.3957  0.3460  0.0380
  316MOL0     C42580   0.487   5.536   7.919 -0.1202  0.1410 -0.1950
  316MOL0     C42581   0.446   5.658   7.870 -0.1918  0.5488 -0.0066
  316MOL0     C42582   0.533   5.766   7.849 -0.1289 -0.2854  0.5235
  316MOL0     O42583   0.468   5.889   7.821 -0.2011  0.2399  0.2262
  316MOL0     C42584   0.544   6.012   7.792  0.2578  0.7137  0.2788
  316MOL0     C42585   0.490   6.138   7.860  0.5260  0.4223 -0.4309
  316MOL0     C42586   0.347   6.171   7.807  1.2071 -0.1724 -0.5571
  316MOL0     C42587   0.262   6.277   7.889  0.3284  0.6916  0.2961
  316MOL0     C42588   0.310   6.407   7.845 -0.9736 -1.4407  0.0258
  316MOL0     C42589   0.339   6.527   7.828  0.7390 -0.0645 -0.0841
  316MOL0     C42590   0.674   5.735   7.858 -0.5205  0.0144  0.7447
  316MOL0     C42591   0.719   5.605   7.888 -0.0659 -0.2863 -0.3925
  316MOL0     C42592   0.865   5.564   7.883  0.0231 -0.2783 -0.1795
  316MOL0     H42593   0.632   5.106   7.994  0.6047 -0.2952 -1.4748
  316MOL0     H42594   0.748   4.891   8.091 -0.0483  0.4969 -1.2674
  316MOL0     H42595   0.884   4.713   8.238  4.3280 -2.8212  1.8598
  316MOL0     H42596   0.858   4.697   8.067 -2.4792 -2.2960  2.6854
  316MOL0     H42597   1.109   4.623   8.068  1.6797  1.3639  0.9610
  316MOL0     H42598   0.989   4.519   8.135  0.2066 -0.2673 -0.0029
  316MOL0     H42599   1.044   4.625   8.368 -0.3938  3.8886 -1.3810
  316MOL0     H42600   1.178   4.701   8.279 -1.8058  0.9391  0.8414
  316MOL0     H42601   1.135   4.400   8.332  0.6511 -0.2163  0.7166
  316MOL0     H42602   1.234   4.441   8.193  0.9203 -1.1366 -0.2809
  316MOL0     H42603   1.418   4.552   8.327  1.8680 -0.5057  0.7033
  316MOL0     H42604   1.330   4.545   8.472 -0.1167  0.2597 -1.5668
  316MOL0     H42605   1.330   4.284   8.434  0.3473 -0.9128 -1.4596
  316MOL0     H42606   1.419   4.315   8.286  1.3807  0.9891  0.4656
  316MOL0     H42607   1.514   4.406   8.552  0.6075  2.2966  0.5092
  316MOL0     H42608   1.595   4.421   8.390  1.1580 -1.3744  0.4226
  316MOL0     H42609   1.516   4.163   8.524 -0.0209 -0.8423 -1.2673
  316MOL0     H42610   1.578   4.172   8.363  0.3828 -1.3073  0.6876
  316MOL0     H42611   1.686   4.247   8.724  0.0059  2.1794 -0.2171
  316MOL0     H42612   2.022   4.394   8.742 -0.1802 -0.4955  0.9517
  316MOL0     H42613   1.889   4.332   8.847 -0.6406 -2.7900  0.4395
  316MOL0     H42614   1.990   4.120   8.867  1.7426 -0.1856  1.8926
  316MOL0     H42615   2.113   4.166   8.749 -0.1379  0.7465 -0.8018
  316MOL0     H42616   2.034   4.308   9.003 -0.3554 -0.7210 -0.7453
  316MOL0     H42617   2.179   4.351   8.922 -0.2680 -0.1361 -2.1845
  316MOL0     H42618   2.291   4.142   8.995  0.0160 -0.6861  1.3853
  316MOL0     H42619   2.136   4.067   9.027 -1.9867  0.7366 -3.8326
  316MOL0     H42620   2.193   4.275   9.410  2.9670  0.0643  3.7407
  316MOL0     H42621   2.323   4.467   9.509 -1.8215  2.3738 -1.8315
  316MOL0     H42622   2.632   4.927   9.353  1.5942  1.8466 -1.5251
  316MOL0     H42623   2.822   5.042   9.446 -1.2997  0.7269 -1.9543
  316MOL0     H42624   3.156   4.806   9.620  1.6718 -0.4324 -2.5198
  316MOL0     H42625   3.221   4.855   9.464  1.9906  0.7330 -0.7763
  316MOL0     H42626   3.232   5.018   9.711  2.2673  0.0060  1.5789
  316MOL0     H42627   3.361   4.931   9.653 -0.7032  0.9019 -0.5833
  316MOL0     H42628   3.306   5.058   9.422 -2.9588  0.1329  0.1312
  316MOL0     H42629   3.255   5.189   9.538  2.3576  0.7456  1.7764
  316MOL0     H42630   3.490   5.218   9.475 -0.6197  2.0350 -0.5667
  316MOL0     H42631   3.517   5.075   9.576 -1.6666 -1.2905 -3.0160
  316MOL0     H42632   3.385   5.193   9.758 -1.7276 -0.4860 -0.8418
  316MOL0     H42633   3.395   5.348   9.663  0.7860  0.3677  0.1345
  316MOL0     H42634   3.623   5.179   9.780  0.7035  0.4967  1.0641
  316MOL0     H42635   3.654   5.310   9.651  2.2130  1.5391  1.9308
  316MOL0     H42636   3.580   5.346   9.935 -0.6936 -1.4646 -0.5920
  316MOL0     H42637   3.484   5.440   9.823  0.2316  0.4914  0.8616
  316MOL0     H42638   3.690   5.547   9.896 -1.0924 -1.0476 -0.0481
  316MOL0     H42639   3.790   5.460   9.776 -0.5779 -0.1695 -0.9948
  316MOL0     H42640   3.038   4.669   9.477  0.0371  0.7811  0.4790
  316MOL0     H42641   2.837   4.558   9.367 -1.5724  0.0098 -0.8256
  316MOL0     H42642   2.531   4.497   9.144  1.1649 -1.2479  1.7617
  316MOL0     H42643   2.381   4.344   9.028 -1.0483  2.7343 -0.5339
  316MOL0     H42644   1.122   5.062   8.027  0.3192  0.5189 -2.6534
  316MOL0     H42645   1.014   5.283   7.956 -1.4322  0.8311 -2.2203
  316MOL0     H42646   0.418   5.453   7.935 -1.2272  0.9753 -0.5561
  316MOL0     H42647   0.341   5.661   7.844  0.2098 -1.9042 -2.3883
  316MOL0     H42648   0.537   6.034   7.685  0.6403  0.0848  0.1169
  316MOL0     H42649   0.651   5.997   7.811 -0.0595 -1.3003  0.6466
  316MOL0     H42650   0.560   6.217   7.830 -2.2636  3.1256 -0.3538
  316MOL0     H42651   0.482   6.130   7.968 -1.5912 -0.6037 -0.6103
  316MOL0     H42652   0.292   6.076   7.803  2.0091 -0.8127  1.6761
  316MOL0     H42653   0.351   6.206   7.704  0.3120  0.7398 -0.2909
  316MOL0     H42654   0.156   6.277   7.861  0.7296  0.0729 -1.3335
  316MOL0     H42655   0.268   6.269   7.998 -1.5196  1.5492  0.5021
  316MOL0     H42656   0.348   6.630   7.797  0.0307  1.5132  4.2574
  316MOL0     H42657   0.744   5.815   7.835 -1.4891  0.8520  0.6447
  316MOL0     H42658   0.879   5.490   7.804 -4.1557 -1.0768 -0.3799
  316MOL0     H42659   0.927   5.652   7.864 -1.4730  1.2660  1.6593
  316MOL0     H42660   0.902   5.529   7.980  1.1466  0.7246 -0.2232
  317MOL0     O42661   4.918   4.219   3.762 -0.0231  0.5409 -0.1776
  317MOL0     C42662   4.834   4.177   3.841 -0.3613 -0.4995  0.7290
  317MOL0     O42663   4.858   4.139   3.969  0.0940  0.4705  0.2403
  317MOL0     C42664   4.978   4.179   4.018 -0.1157 -0.9963  0.2032
  317MOL0     C42665   4.997   4.316   4.049  0.5089  0.1368  0.1141
  317MOL0     C42666   5.123   4.362   4.086 -0.6092  0.2540 -0.0857
  317MOL0     C42667   5.230   4.280   4.104  0.6051  0.8119 -0.4060
  317MOL0     O42668   5.353   4.333   4.134 -0.1952  0.0859 -0.3928
  317MOL0     C42669   5.444   4.255   4.206  0.1930  0.1037  0.0528
  317MOL0     C42670   5.551   4.352   4.262  0.0203  0.2069 -0.9026
  317MOL0     C42671   5.676   4.275   4.306  0.3429 -0.2183  0.6527
  317MOL0     C42672   5.791   4.361   4.357  0.4130 -0.0883 -0.3776
  317MOL0     C42673   5.909   4.309   4.441  0.9391  0.2977  0.2024
  317MOL0     C42674   5.870   4.194   4.528  0.2103  0.7328 -0.5053
  317MOL0     C42675   5.981   4.158   4.629 -0.1223 -0.4698  0.1071
  317MOL0     C42676   5.983   4.016   4.684  1.0194 -0.9591 -0.1899
  317MOL0     N42677   6.068   4.014   4.799 -0.5125 -0.4089 -0.0500
  317MOL0     C42678   6.201   3.974   4.791 -0.0482 -0.2113  1.1885
  317MOL0     C42679   6.257   3.999   4.907  0.0943 -0.4193  0.0924
  317MOL0     C42680   6.405   4.000   4.955 -0.3242 -1.2550 -0.7845
  317MOL0     C42681   6.463   4.142   4.968 -0.1032  0.6810  0.0768
  317MOL0     C42682   6.604   4.105   5.015  0.8440  0.0864  0.3068
  317MOL0     C42683   6.670   4.241   5.029 -0.4697  0.4354  0.5330
  317MOL0     O42684   6.801   4.216   5.074 -0.3972 -0.8390  0.5805
  317MOL0     C42685   6.898   4.309   5.056  0.1583  0.2610 -0.1256
  317MOL0     C42686   6.866   4.440   5.057  0.0161 -0.1841  0.0597
  317MOL0     C42687   6.970   4.539   5.057 -0.9401 -0.1153  0.6916
  317MOL0     C42688   7.109   4.505   5.037 -0.1288 -0.0277  0.3448
  317MOL0     C42689   7.211   4.610   5.025 -0.0926  0.2392  0.3334
  317MOL0     O42690   7.332   4.565   4.993  0.3964  0.6177  0.6131
  317MOL0     C42691   7.433   4.661   4.986 -0.2718  0.6696 -0.8714
  317MOL0     C42692   7.553   4.633   5.057  0.1071  0.7632 -0.1260
  317MOL0     C42693   7.659   4.727   5.068 -0.0471  0.5260  0.4750
  317MOL0     C42694   7.655   4.845   4.994 -0.8136  0.1011 -0.6364
  317MOL0     O42695   7.757   4.937   5.009 -0.1349  0.7229 -1.0457
  317MOL0     C42696   7.894   4.897   4.980 -0.1835  0.5320 -0.1843
  317MOL0     C42697   7.995   4.990   5.044  0.7460 -0.3338 -0.3441
  317MOL0     C42698   7.978   4.996   5.202  0.3857 -0.2566  0.1269
  317MOL0     C42699   8.103   5.012   5.292  0.4082  1.0336 -0.1851
  317MOL0     C42700   8.073   5.037   5.443  0.0465  0.2121 -0.9731
  317MOL0     C42701   8.198   5.006   5.536  0.6237 -1.5181  0.3746
  317MOL0     C42702   8.180   5.059   5.676  0.3977 -0.3774  0.1378
  317MOL0     C42703   8.277   5.008   5.774  0.2519  0.0302  0.3451
  317MOL0    Cl42704   8.268   4.830   5.806  0.1419  0.0585 -0.0052
  317MOL0     C42705   7.542   4.877   4.923  0.3122  0.4972 -0.1779
  317MOL0     C42706   7.434   4.779   4.914  0.7591  0.7607  0.2908
  317MOL0     O42707   7.176   4.727   5.041 -0.1116  0.1934  0.6967
  317MOL0     C42708   7.138   4.364   5.023  0.1907 -0.1660  0.2391
  317MOL0     C42709   7.033   4.273   5.041  0.1188 -0.4297 -0.2576
  317MOL0     N42710   6.155   4.057   4.986 -0.6360  0.7332  0.0265
  317MOL0     N42711   6.045   4.059   4.928  1.4418 -0.4309 -0.4851
  317MOL0     C42712   5.202   4.142   4.086 -0.3691 -0.4631 -0.6404
  317MOL0     C42713   5.088   4.095   4.041 -0.4344 -0.5617 -0.3504
  317MOL0     C42714   4.698   4.154   3.805 -0.1305 -0.1853  0.0559
  317MOL0     C42715   4.618   4.074   3.890 -0.0557 -0.0299 -0.4703
  317MOL0     C42716   4.482   4.040   3.856 -0.0225  0.2920  0.6278
  317MOL0     C42717   4.428   4.088   3.738  0.3848 -0.7324 -1.0650
  317MOL0     O42718   4.302   4.059   3.711  1.0744 -0.4985  0.8425
  317MOL0     C42719   4.269   3.997   3.583 -1.0121  0.8861  0.6947
  317MOL0     C42720   4.342   3.868   3.566  0.6084 -0.0132  1.1382
  317MOL0     C42721   4.300   3.751   3.657 -0.9789 -0.5005  1.0355
  317MOL0     C42722   4.152   3.720   3.655 -0.4510  0.1413  0.4577
  317MOL0     C42723   4.131   3.586   3.706  0.1459  0.0645 -0.4951
  317MOL0     C42724   4.100   3.472   3.728 -0.5736  0.1992  0.6615
  317MOL0     C42725   4.508   4.165   3.653 -0.3878  1.0659  0.0987
  317MOL0     C42726   4.643   4.193   3.681  1.0095  0.2151 -0.3544
  317MOL0     C42727   4.719   4.256   3.573 -0.2840 -0.4207  1.0473
  317MOL0     H42728   4.912   4.382   4.041  0.6480  0.8772  3.2732
  317MOL0     H42729   5.136   4.468   4.107 -1.1355 -0.0865  2.2906
  317MOL0     H42730   5.400   4.178   4.270 -2.5280  2.9860  1.9490
  317MOL0     H42731   5.503   4.194   4.137 -0.5206 -3.7120  2.5408
  317MOL0     H42732   5.517   4.406   4.350 -1.6293  0.2272 -1.5269
  317MOL0     H42733   5.580   4.421   4.181  2.1416  2.4226  1.5461
  317MOL0     H42734   5.717   4.218   4.223  1.0473  1.7947 -0.4700
  317MOL0     H42735   5.632   4.197   4.369 -0.0687 -1.9498 -1.6878
  317MOL0     H42736   5.829   4.417   4.270  0.1224 -2.1747 -1.9313
  317MOL0     H42737   5.733   4.421   4.428  2.3460 -0.8052  1.9337
  317MOL0     H42738   5.991   4.280   4.374 -0.4218 -0.7400 -1.0698
  317MOL0     H42739   5.942   4.394   4.501 -1.2509  0.3795  1.3859
  317MOL0     H42740   5.781   4.218   4.588  2.6020  3.7481  2.1767
  317MOL0     H42741   5.852   4.107   4.464 -1.4302  0.9619 -0.4176
  317MOL0     H42742   5.983   4.230   4.711 -0.1032 -1.7923  1.3136
  317MOL0     H42743   6.083   4.174   4.591  0.2898  0.0354  1.3782
  317MOL0     H42744   5.879   3.994   4.707  0.4749  1.1466 -0.3632
  317MOL0     H42745   6.018   3.944   4.610 -0.3827 -0.0946 -1.7729
  317MOL0     H42746   6.261   3.948   4.704  0.7907  3.1059  0.6372
  317MOL0     H42747   6.407   3.951   5.053 -3.6108  1.2357  0.7348
  317MOL0     H42748   6.466   3.947   4.881 -0.3576 -1.8604 -0.3853
  317MOL0     H42749   6.469   4.184   4.867  0.4384 -1.6214 -0.9408
  317MOL0     H42750   6.397   4.203   5.029 -1.4191  2.0046 -2.4932
  317MOL0     H42751   6.666   4.043   4.949  0.6141 -0.8787  0.9836
  317MOL0     H42752   6.601   4.067   5.117 -4.2016  2.6188  1.4226
  317MOL0     H42753   6.609   4.293   5.103 -0.5870 -0.2368  0.9093
  317MOL0     H42754   6.666   4.304   4.939  1.9923  1.1079  0.8194
  317MOL0     H42755   6.765   4.480   5.069  1.1883  2.5041  2.1248
  317MOL0     H42756   6.940   4.643   5.069 -1.1759 -0.1600  0.5130
  317MOL0     H42757   7.563   4.543   5.117  1.5807  1.0937  0.1736
  317MOL0     H42758   7.740   4.708   5.139  2.8713 -2.1174 -3.1803
  317MOL0     H42759   7.916   4.804   5.032 -1.3472  0.3870  0.0887
  317MOL0     H42760   7.899   4.884   4.872  1.2794 -3.8852  0.2452
  317MOL0     H42761   8.091   4.953   5.007  0.2511  0.7122 -2.8210
  317MOL0     H42762   7.993   5.093   5.009 -2.0813 -0.2056  0.0226
  317MOL0     H42763   7.910   5.078   5.227  0.2062 -0.6115  0.8195
  317MOL0     H42764   7.925   4.904   5.229  0.3589 -0.3957 -0.3885
  317MOL0     H42765   8.172   5.092   5.263  0.2741  1.9605  1.8299
  317MOL0     H42766   8.165   4.923   5.279 -0.1825  0.7942 -1.5369
  317MOL0     H42767   7.987   4.987   5.488  1.7089 -2.3299 -0.4149
  317MOL0     H42768   8.056   5.145   5.448 -0.5051  0.5113 -5.4844
  317MOL0     H42769   8.214   4.898   5.549  0.9531 -1.3671  1.2721
  317MOL0     H42770   8.290   5.044   5.490 -0.4849 -1.9825 -2.4915
  317MOL0     H42771   8.082   5.028   5.714  0.5714 -0.1201  0.8057
  317MOL0     H42772   8.199   5.165   5.698 -1.3478 -0.1478  0.7370
  317MOL0     H42773   8.381   5.030   5.748  0.7016 -1.6918  0.5465
  317MOL0     H42774   8.266   5.059   5.871  0.6163  2.5620 -0.8719
  317MOL0     H42775   7.537   4.973   4.873 -0.4775  0.9350  0.7023
  317MOL0     H42776   7.346   4.813   4.860  0.9504 -0.3365 -0.7439
  317MOL0     H42777   7.241   4.333   5.007 -0.8415 -2.4868 -2.9108
  317MOL0     H42778   7.048   4.166   5.049  1.8050 -0.2065  0.0188
  317MOL0     H42779   5.288   4.077   4.096  1.3219  2.0351  4.1170
  317MOL0     H42780   5.088   3.989   4.018 -0.6764 -0.2516 -1.9188
  317MOL0     H42781   4.639   4.027   3.985 -1.0655 -2.1569 -1.2052
  317MOL0     H42782   4.426   3.977   3.925  0.1947 -0.0875  0.4653
  317MOL0     H42783   4.291   4.063   3.498  1.2490 -2.1005 -1.2387
  317MOL0     H42784   4.161   3.981   3.574 -1.0608  0.3728  2.0179
  317MOL0     H42785   4.448   3.887   3.582  1.2775 -2.6821  0.3108
  317MOL0     H42786   4.342   3.826   3.466 -0.5447  0.8143  0.7654
  317MOL0     H42787   4.323   3.776   3.761  2.7654  1.7837 -0.1477
  317MOL0     H42788   4.363   3.664   3.634 -1.7563 -0.6388 -0.6936
  317MOL0     H42789   4.104   3.800   3.712 -1.4224 -0.0449 -0.0857
  317MOL0     H42790   4.105   3.724   3.557 -0.8600  1.9737  0.6905
  317MOL0     H42791   4.081   3.372   3.762 -0.7053  0.8142  2.4779
  317MOL0     H42792   4.473   4.196   3.555  3.1518  0.5171 -1.5251
  317MOL0     H42793   4.643   4.279   3.498 -1.7251  0.6372  2.7822
  317MOL0     H42794   4.760   4.348   3.616  0.7713 -0.9251  1.1539
  317MOL0     H42795   4.806   4.204   3.531  0.8386  4.0604 -3.1967
  318MOL0     O42796   1.736  11.340   6.899 -0.4787 -0.3072 -0.0451
  318MOL0     C42797   1.662  11.300   6.984 -0.9220  0.2891 -0.2161
  318MOL0     O42798   1.695  11.295   7.116  0.0209 -0.0754  0.2688
  318MOL0     C42799   1.791  11.378   7.164 -0.1656 -0.6823  0.7535
  318MOL0     C42800   1.922  11.368   7.121  0.2932 -0.3672  0.4051
  318MOL0     C42801   2.013  11.457   7.168 -0.7747 -0.5114 -0.1516
  318MOL0     C42802   1.976  11.553   7.264 -1.1382  0.0182 -0.4355
  318MOL0     O42803   2.074  11.638   7.310  0.0656  0.2105  0.3690
  318MOL0     C42804   2.055  11.701   7.433  0.6589 -0.4294 -0.1759
  318MOL0     C42805   2.139  11.825   7.432 -0.0135 -0.9026 -0.4037
  318MOL0     C42806   2.284  11.801   7.469  0.4504 -0.3861  1.4183
  318MOL0     C42807   2.350  11.943   7.500  0.7731 -0.0840  0.8348
  318MOL0     C42808   2.491  11.920   7.562  0.1633  1.0858  0.1410
  318MOL0     C42809   2.542  12.049   7.603 -0.2192  0.7033 -0.1046
  318MOL0     C42810   2.634  12.052   7.727  0.0960  0.7440 -0.6072
  318MOL0     C42811   2.765  11.982   7.691  0.5699 -0.5352 -0.1419
  318MOL0     N42812   2.865  12.067   7.624 -0.6451  0.0201  0.4324
  318MOL0     C42813   2.880  12.097   7.488 -0.6288  0.2132 -0.2443
  318MOL0     C42814   2.987  12.180   7.484 -0.0781 -0.1358  0.4051
  318MOL0     C42815   3.056  12.223   7.358 -0.5496 -0.0756  0.1779
  318MOL0     C42816   3.204  12.186   7.351 -0.4808 -0.2199  0.9507
  318MOL0     C42817   3.240  12.037   7.337  0.0696  0.1306 -0.3206
  318MOL0     C42818   3.394  12.009   7.328 -0.2477 -0.0007 -0.6442
  318MOL0     O42819   3.456  11.995   7.453  0.2839 -0.3782 -0.0514
  318MOL0     C42820   3.587  11.970   7.467 -0.7113  0.3824 -0.1187
  318MOL0     C42821   3.665  11.924   7.362 -0.5564  0.1377  0.0618
  318MOL0     C42822   3.801  11.925   7.368 -0.4970 -1.1872 -0.1543
  318MOL0     C42823   3.866  11.962   7.484  0.3474  0.6634  0.3218
  318MOL0     C42824   4.014  11.954   7.494 -0.1298 -0.6015 -0.1424
  318MOL0     O42825   4.065  11.997   7.617 -0.7081  0.4004 -0.0696
  318MOL0     C42826   4.193  11.956   7.660  0.8230  0.4914  0.5294
  318MOL0     C42827   4.230  11.822   7.645  0.4944 -0.1036 -0.0003
  318MOL0     C42828   4.344  11.777   7.715  0.5550 -0.4786 -0.6028
  318MOL0     C42829   4.424  11.870   7.784 -0.4726  0.1150  0.3681
  318MOL0     O42830   4.533  11.829   7.849 -0.2149  0.4903 -0.4088
  318MOL0     C42831   4.608  11.914   7.941 -0.7232  0.4518 -0.4766
  318MOL0     C42832   4.699  11.820   8.025 -0.2436 -0.2203  1.1406
  318MOL0     C42833   4.820  11.784   7.937 -0.1949  0.5825 -0.6366
  318MOL0     C42834   4.931  11.721   8.021 -0.3426  0.1558 -0.0618
  318MOL0     C42835   5.049  11.673   7.919  0.2419 -0.1921  0.3952
  318MOL0     C42836   5.171  11.617   7.990 -1.0700 -0.2879 -0.1478
  318MOL0     C42837   5.276  11.545   7.887  0.1240 -0.5568 -0.6209
  318MOL0     C42838   5.238  11.415   7.827  0.2411 -0.2713  0.3120
  318MOL0    Cl42839   5.376  11.338   7.739  0.5192  0.0530 -0.0416
  318MOL0     C42840   4.387  12.003   7.788  0.1776  0.7037 -0.0785
  318MOL0     C42841   4.266  12.039   7.741  0.2307 -0.4503  0.9665
  318MOL0     O42842   4.084  11.917   7.395 -0.9348 -1.2782 -0.4491
  318MOL0     C42843   3.787  11.995   7.593  0.0041  0.1119  0.8261
  318MOL0     C42844   3.645  11.995   7.593  0.3747 -0.4844 -0.3465
  318MOL0     N42845   3.036  12.199   7.614 -0.0372  0.0038  0.0920
  318MOL0     N42846   2.966  12.128   7.688 -0.6145  0.0545  1.1865
  318MOL0     C42847   1.848  11.544   7.321 -0.5936 -0.3290 -0.0176
  318MOL0     C42848   1.751  11.461   7.266  0.0365  0.2190  0.0970
  318MOL0     C42849   1.528  11.238   6.940  0.3217 -0.0987 -1.2430
  318MOL0     C42850   1.436  11.209   7.041 -0.8581  0.6467 -0.2215
  318MOL0     C42851   1.309  11.161   7.016 -0.8290 -0.0306 -0.9319
  318MOL0     C42852   1.265  11.138   6.883 -0.6786  0.5505 -0.2258
  318MOL0     O42853   1.136  11.105   6.862 -0.7259 -0.0849 -0.3739
  318MOL0     C42854   1.115  11.023   6.748 -0.2220  0.1557 -0.5190
  318MOL0     C42855   0.967  11.009   6.725 -0.3427 -0.1467 -0.0041
  318MOL0     C42856   0.899  10.935   6.827  0.6444  0.2299 -1.0052
  318MOL0     C42857   0.748  10.945   6.830  0.4409  0.3822 -0.4865
  318MOL0     C42858   0.691  10.881   6.719 -0.5695  0.5437 -0.3556
  318MOL0     C42859   0.633  10.854   6.626 -0.6715 -0.7001  0.0377
  318MOL0     C42860   1.366  11.155   6.786 -0.4813 -0.6003  0.2418
  318MOL0     C42861   1.490  11.207   6.812  0.2357 -0.9810  0.0358
  318MOL0     C42862   1.571  11.245   6.682 -0.4163 -0.2374  0.4008
  318MOL0     H42863   1.953  11.312   7.033  1.5330  0.1952  0.4766
  318MOL0     H42864   2.114  11.453   7.128 -0.8532  1.3175 -0.6619
  318MOL0     H42865   1.953  11.729   7.461  1.6790  1.5031  1.8729
  318MOL0     H42866   2.087  11.638   7.516  0.3971 -2.2369 -1.3701
  318MOL0     H42867   2.093  11.880   7.515 -2.9194 -3.5351 -0.1313
  318MOL0     H42868   2.123  11.888   7.344 -0.0358  0.8158  0.7618
  318MOL0     H42869   2.331  11.757   7.381 -0.8253 -2.3274  1.6534
  318MOL0     H42870   2.286  11.731   7.553 -3.6554 -1.2572  1.0286
  318MOL0     H42871   2.359  11.998   7.406 -3.0356 -0.9071 -0.1821
  318MOL0     H42872   2.282  12.004   7.559  1.6601  0.1993  1.5935
  318MOL0     H42873   2.472  11.847   7.641  0.5606  2.0170  1.1120
  318MOL0     H42874   2.561  11.879   7.488 -1.8280 -1.6409 -0.4085
  318MOL0     H42875   2.596  12.087   7.516 -1.6263 -2.9526 -2.8146
  318MOL0     H42876   2.465  12.125   7.619  0.2198  1.0296  0.5213
  318MOL0     H42877   2.583  11.983   7.794 -2.9284  2.7893 -0.6468
  318MOL0     H42878   2.646  12.146   7.781 -0.3676  1.3245 -1.4995
  318MOL0     H42879   2.817  11.959   7.785  2.0885  2.7509 -0.0210
  318MOL0     H42880   2.747  11.894   7.629 -0.7612 -1.4121  1.4323
  318MOL0     H42881   2.808  12.073   7.410 -0.6090  0.3637 -0.3083
  318MOL0     H42882   3.004  12.178   7.272 -1.5513 -0.1031  0.7802
  318MOL0     H42883   3.051  12.333   7.357  3.9476  0.3243 -0.3217
  318MOL0     H42884   3.246  12.237   7.264 -0.4733 -1.3272  0.2956
  318MOL0     H42885   3.247  12.216   7.448 -0.9588 -0.8478  1.3624
  318MOL0     H42886   3.193  12.000   7.246  0.7394 -2.0497  0.1501
  318MOL0     H42887   3.193  11.987   7.422  0.8211  1.9880  1.2710
  318MOL0     H42888   3.446  12.087   7.272  1.7124 -0.8290 -0.0354
  318MOL0     H42889   3.412  11.914   7.276 -1.6845 -1.2100  0.9402
  318MOL0     H42890   3.634  11.923   7.258  4.0677  2.4340 -1.5918
  318MOL0     H42891   3.847  11.899   7.274  1.4283  1.3588 -0.0028
  318MOL0     H42892   4.180  11.742   7.591  3.1174 -0.9979 -1.2751
  318MOL0     H42893   4.375  11.673   7.708 -0.3925 -0.7725 -0.5719
  318MOL0     H42894   4.666  11.997   7.899 -0.0317  1.0924  1.6229
  318MOL0     H42895   4.534  11.967   8.001  0.4848  1.0506  0.5284
  318MOL0     H42896   4.716  11.875   8.117 -1.4413  0.5273  0.9343
  318MOL0     H42897   4.638  11.730   8.038 -2.5475  1.3042  1.3546
  318MOL0     H42898   4.807  11.722   7.848 -0.8036 -1.1290  0.5807
  318MOL0     H42899   4.856  11.878   7.895 -0.9069  1.2401  0.1872
  318MOL0     H42900   4.893  11.625   8.057  2.0789 -0.4214  1.1338
  318MOL0     H42901   4.977  11.781   8.100  0.4448 -3.0501  2.1026
  318MOL0     H42902   5.083  11.752   7.850 -1.7396  0.5206  0.1317
  318MOL0     H42903   5.014  11.592   7.854 -1.3065 -0.5534  1.5969
  318MOL0     H42904   5.217  11.694   8.052 -2.1444  0.4451 -0.2325
  318MOL0     H42905   5.137  11.541   8.061 -0.9184  0.4926  0.7819
  318MOL0     H42906   5.367  11.538   7.947  1.0449 -2.9942 -2.1487
  318MOL0     H42907   5.288  11.605   7.796 -1.7288 -0.8605 -1.1047
  318MOL0     H42908   5.185  11.348   7.895  0.0700 -0.3953  0.0588
  318MOL0     H42909   5.162  11.433   7.750  1.2454 -1.2229 -0.9687
  318MOL0     H42910   4.445  12.076   7.844  1.4703 -2.4665  3.1109
  318MOL0     H42911   4.241  12.142   7.763 -4.4650 -1.2193  0.3099
  318MOL0     H42912   3.830  12.035   7.684  0.6685 -2.8175  1.9299
  318MOL0     H42913   3.579  12.020   7.675  0.2996  5.7840 -1.7638
  318MOL0     H42914   1.817  11.606   7.405  0.3398  2.3947 -1.5762
  318MOL0     H42915   1.648  11.463   7.301 -0.7306 -0.4079 -1.9470
  318MOL0     H42916   1.453  11.233   7.146 -2.0422 -0.6698  0.3086
  318MOL0     H42917   1.238  11.150   7.097 -2.5199 -2.6593 -2.6382
  318MOL0     H42918   1.164  10.926   6.759 -0.1011  0.3104  0.3581
  318MOL0     H42919   1.148  11.056   6.649  0.4973 -2.5840 -1.2775
  318MOL0     H42920   0.954  10.960   6.628  2.8153 -1.1532 -0.0297
  318MOL0     H42921   0.921  11.108   6.719  0.9019  0.4748  0.3075
  318MOL0     H42922   0.929  10.971   6.925  1.4679  0.4811 -1.3461
  318MOL0     H42923   0.942  10.836   6.809  2.0643  0.8504 -1.1490
  318MOL0     H42924   0.713  10.895   6.920 -0.6744  3.2237  0.7786
  318MOL0     H42925   0.717  11.050   6.832 -4.0688 -0.6634 -2.5009
  318MOL0     H42926   0.584  10.838   6.532  2.5715  0.9381 -2.1126
  318MOL0     H42927   1.340  11.160   6.681 -0.6960 -1.5228  0.2443
  318MOL0     H42928   1.573  11.354   6.682  1.7202 -0.2106  2.5088
  318MOL0     H42929   1.671  11.202   6.688 -0.7467 -0.8417  2.5079
  318MOL0     H42930   1.525  11.211   6.588 -0.0416  2.0184 -0.6662
  319MOL0     O42931   7.171   7.623   8.699 -0.3689 -0.2485 -0.3883
  319MOL0     C42932   7.146   7.500   8.696  0.2589 -0.4465  0.3303
  319MOL0     O42933   7.079   7.435   8.599 -0.1464  0.1819 -0.1531
  319MOL0     C42934   7.004   7.520   8.520 -0.3112 -0.5513  1.5319
  319MOL0     C42935   7.014   7.496   8.382 -0.0810 -0.2241 -0.9635
  319MOL0     C42936   6.930   7.560   8.294 -0.3174 -0.8416  0.4063
  319MOL0     C42937   6.846   7.655   8.341  0.2997  0.1020 -0.2008
  319MOL0     O42938   6.764   7.724   8.257  0.2645  1.2384  0.2956
  319MOL0     C42939   6.779   7.725   8.112  1.0317 -0.1879  0.9941
  319MOL0     C42940   6.692   7.841   8.049  0.0711  0.5185  0.2261
  319MOL0     C42941   6.665   7.826   7.897 -0.0930  0.4013  0.4477
  319MOL0     C42942   6.562   7.928   7.862  0.2757 -1.1455  0.0496
  319MOL0     C42943   6.541   7.944   7.715 -0.3727 -0.1450 -0.8783
  319MOL0     C42944   6.579   8.094   7.670 -0.1668 -0.2028  0.3986
  319MOL0     C42945   6.728   8.129   7.689  0.9790  0.4492  0.9249
  319MOL0     C42946   6.802   8.080   7.567 -0.2592  0.3046  0.3368
  319MOL0     N42947   6.947   8.076   7.580 -0.0330 -0.1068 -0.3123
  319MOL0     C42948   7.033   8.173   7.618  0.4589 -0.0508 -0.6490
  319MOL0     C42949   7.157   8.112   7.623  0.4312  0.1036 -0.0655
  319MOL0     C42950   7.291   8.169   7.647 -0.3033 -0.1862 -0.3668
  319MOL0     C42951   7.372   8.162   7.520  0.4981 -1.1484  0.1196
  319MOL0     C42952   7.490   8.253   7.541 -0.0873 -0.1873  0.3641
  319MOL0     C42953   7.593   8.194   7.446 -0.2567  0.0983  0.2062
  319MOL0     O42954   7.706   8.274   7.485 -0.2802 -0.8577  0.0331
  319MOL0     C42955   7.836   8.251   7.457 -0.6441 -0.1112 -0.2274
  319MOL0     C42956   7.931   8.347   7.490  0.5404 -0.1227 -0.1048
  319MOL0     C42957   8.071   8.328   7.457  0.0227 -0.1270  0.1745
  319MOL0     C42958   8.110   8.209   7.390 -0.1176 -0.1144  0.0265
  319MOL0     C42959   8.249   8.168   7.365 -0.4629  0.2258  0.8054
  319MOL0     O42960   8.283   8.041   7.337 -0.7244  0.3585 -0.1014
  319MOL0     C42961   8.407   7.992   7.317 -0.2985 -0.1071 -0.3243
  319MOL0     C42962   8.423   7.915   7.199 -0.4824  0.4636  0.3424
  319MOL0     C42963   8.546   7.853   7.176 -0.4112  0.6154  0.5820
  319MOL0     C42964   8.649   7.854   7.271 -0.8600 -0.4729 -0.3803
  319MOL0     O42965   8.774   7.797   7.242  0.1808  0.3711  0.4866
  319MOL0     C42966   8.839   7.862   7.137 -0.0943 -0.3389  0.5321
  319MOL0     C42967   8.987   7.836   7.158  0.5227  0.3348 -0.2484
  319MOL0     C42968   9.061   7.900   7.276  0.0661  0.9196  0.6867
  319MOL0     C42969   8.991   7.895   7.407 -0.4079 -0.6086 -0.1751
  319MOL0     C42970   9.081   7.955   7.512 -1.2827 -0.7633  0.0316
  319MOL0     C42971   9.031   7.943   7.665 -0.1206  0.4643 -0.1406
  319MOL0     C42972   9.118   8.035   7.755  0.1686  0.0398  0.3057
  319MOL0     C42973   9.235   7.946   7.817 -0.0727 -0.2985  0.4142
  319MOL0    Cl42974   9.312   8.030   7.952  0.2467  0.1871  0.0537
  319MOL0     C42975   8.633   7.923   7.392 -0.5721  0.1059  0.3226
  319MOL0     C42976   8.511   7.993   7.413  0.9331 -0.3412 -0.1728
  319MOL0     O42977   8.333   8.256   7.363 -0.0181 -1.0202 -0.6213
  319MOL0     C42978   8.010   8.110   7.373  0.4185  0.4918  1.1915
  319MOL0     C42979   7.875   8.137   7.391  0.1399 -0.4869 -0.1781
  319MOL0     N42980   7.146   7.977   7.592  0.1462 -0.8572 -0.7283
  319MOL0     N42981   7.019   7.956   7.580 -0.7273 -1.1091  0.4417
  319MOL0     C42982   6.845   7.692   8.471  0.9030 -0.0635 -1.4861
  319MOL0     C42983   6.924   7.629   8.561 -0.9460 -0.3303  0.6010
  319MOL0     C42984   7.216   7.400   8.781  0.7509  0.7868 -0.8595
  319MOL0     C42985   7.146   7.292   8.819  0.2390  0.1557  0.0837
  319MOL0     C42986   7.198   7.196   8.903 -0.2983 -0.7233 -1.2970
  319MOL0     C42987   7.327   7.202   8.960 -0.6653  0.3368  0.5091
  319MOL0     O42988   7.370   7.083   9.019 -0.3362  0.3981  0.0778
  319MOL0     C42989   7.513   7.063   9.030 -0.2502 -0.2265  0.2005
  319MOL0     C42990   7.526   6.910   9.064 -0.7227 -0.4129 -0.1842
  319MOL0     C42991   7.671   6.859   9.068  0.2773  0.4910 -0.7186
  319MOL0     C42992   7.743   6.930   9.181  0.5988  0.0984  0.7696
  319MOL0     C42993   7.874   6.869   9.194  0.0937 -0.4852  0.1813
  319MOL0     C42994   7.988   6.817   9.212  0.5085  0.4512 -0.0838
  319MOL0     C42995   7.395   7.311   8.918 -0.2645 -0.4716 -0.2808
  319MOL0     C42996   7.345   7.418   8.842 -0.4668  0.6842 -0.6803
  319MOL0     C42997   7.444   7.529   8.807  0.2651  0.3688 -0.0431
  319MOL0     H42998   7.079   7.418   8.344 -0.1265 -0.8142  0.1006
  319MOL0     H42999   6.921   7.536   8.188  0.2715  0.5060  0.0242
  319MOL0     H43000   6.881   7.753   8.081  0.1711  1.6978 -0.3477
  319MOL0     H43001   6.751   7.632   8.062  3.3571  0.3725 -1.6543
  319MOL0     H43002   6.739   7.938   8.066 -1.1788  1.2155 -0.1561
  319MOL0     H43003   6.600   7.842   8.109 -0.2442 -0.1061 -0.2250
  319MOL0     H43004   6.641   7.723   7.868  1.2200  0.4447 -0.9104
  319MOL0     H43005   6.761   7.849   7.850  0.9824 -2.6893  0.9168
  319MOL0     H43006   6.469   7.894   7.907  0.4134 -0.2094  1.0931
  319MOL0     H43007   6.584   8.029   7.897  0.1529 -0.4279 -1.8152
  319MOL0     H43008   6.603   7.871   7.662 -0.0392 -0.6678  0.2011
  319MOL0     H43009   6.435   7.927   7.692 -0.1412  1.9039 -4.1238
  319MOL0     H43010   6.561   8.112   7.564  3.0506  1.0693 -0.0406
  319MOL0     H43011   6.511   8.161   7.724 -0.9660 -1.3147  0.8005
  319MOL0     H43012   6.767   8.087   7.783  0.0691 -1.8844  0.3291
  319MOL0     H43013   6.722   8.238   7.689  0.6893  0.4394  1.4152
  319MOL0     H43014   6.771   7.977   7.546 -0.6732  0.2502  1.2022
  319MOL0     H43015   6.781   8.147   7.484  0.0477 -0.8934 -0.7426
  319MOL0     H43016   7.007   8.276   7.639  0.5633 -0.0492 -0.5322
  319MOL0     H43017   7.272   8.275   7.668 -0.6464 -0.6239  1.6728
  319MOL0     H43018   7.334   8.109   7.728 -2.3882  0.0532  0.9899
  319MOL0     H43019   7.402   8.057   7.507  0.7030 -1.0884  0.0892
  319MOL0     H43020   7.315   8.201   7.436  1.7224  0.4978  0.0044
  319MOL0     H43021   7.536   8.245   7.640  1.2056 -0.1662 -0.2189
  319MOL0     H43022   7.468   8.358   7.519  1.5763  0.0475 -0.2837
  319MOL0     H43023   7.558   8.215   7.344 -0.8652  1.0546  0.5961
  319MOL0     H43024   7.607   8.086   7.459 -0.4284  0.1488  0.8349
  319MOL0     H43025   7.895   8.439   7.534  0.7207 -0.0968 -0.0112
  319MOL0     H43026   8.132   8.416   7.475 -1.0119  0.3697  1.4595
  319MOL0     H43027   8.344   7.901   7.125 -1.0464 -0.7622  1.1568
  319MOL0     H43028   8.562   7.800   7.082  0.7428 -0.3071  1.2691
  319MOL0     H43029   8.813   7.830   7.036 -0.9763  0.6383  0.4354
  319MOL0     H43030   8.819   7.969   7.129  0.6537 -0.0965  1.5925
  319MOL0     H43031   8.988   7.728   7.169 -1.8417  0.3087  0.1118
  319MOL0     H43032   9.049   7.861   7.071 -1.3647 -0.6794 -1.9363
  319MOL0     H43033   9.152   7.840   7.281 -1.9996 -2.4911 -0.0470
  319MOL0     H43034   9.086   8.005   7.257 -0.4592  1.1761  1.3568
  319MOL0     H43035   8.978   7.789   7.431  0.6898 -0.5171  0.9633
  319MOL0     H43036   8.903   7.959   7.398 -2.1425 -2.7907  0.3324
  319MOL0     H43037   9.081   8.063   7.492  2.5153 -0.7064 -0.4529
  319MOL0     H43038   9.188   7.932   7.513 -0.4080  2.7628  1.2728
  319MOL0     H43039   8.934   7.994   7.674  0.6214  2.1731 -1.1466
  319MOL0     H43040   9.023   7.839   7.696 -1.4297  0.4572 -0.4382
  319MOL0     H43041   9.054   8.084   7.829  0.1929  0.9813 -0.2827
  319MOL0     H43042   9.158   8.116   7.694 -0.8053 -0.4774 -1.0804
  319MOL0     H43043   9.195   7.856   7.864 -3.4544  0.4569 -0.7488
  319MOL0     H43044   9.300   7.918   7.733 -0.4997  2.8741 -1.1399
  319MOL0     H43045   8.714   7.932   7.465 -0.0528 -0.8698 -0.1142
  319MOL0     H43046   8.501   8.046   7.507 -0.0516 -1.2800  0.2689
  319MOL0     H43047   8.043   8.017   7.329  1.9483  2.8424 -3.2241
  319MOL0     H43048   7.806   8.058   7.360 -1.9284  1.6187 -1.2584
  319MOL0     H43049   6.777   7.770   8.504 -0.8002 -2.9443  2.6945
  319MOL0     H43050   6.890   7.654   8.661 -1.2038 -0.8463  0.6445
  319MOL0     H43051   7.045   7.278   8.781  0.7294 -1.5875 -0.6884
  319MOL0     H43052   7.127   7.122   8.938 -3.2435  2.7213  0.6931
  319MOL0     H43053   7.570   7.118   9.105 -1.2088 -1.9241  2.2991
  319MOL0     H43054   7.549   7.094   8.932 -0.2838 -1.9393 -0.3863
  319MOL0     H43055   7.458   6.856   8.998  0.2527 -2.5514  0.4659
  319MOL0     H43056   7.492   6.895   9.167  0.6232  0.6663  0.4463
  319MOL0     H43057   7.724   6.888   8.977 -3.9831  0.4635 -3.4265
  319MOL0     H43058   7.679   6.750   9.073 -0.2990  0.4937  1.0840
  319MOL0     H43059   7.745   7.039   9.174  1.0732 -0.0238 -1.6491
  319MOL0     H43060   7.688   6.913   9.274 -1.9845  0.4302 -0.6132
  319MOL0     H43061   8.074   6.757   9.234  0.3723  1.4380  3.7089
  319MOL0     H43062   7.484   7.320   8.980 -2.5373 -3.2603  3.9250
  319MOL0     H43063   7.447   7.597   8.893  0.5882  1.0124 -0.5505
  319MOL0     H43064   7.544   7.485   8.801 -0.4231 -1.2370 -0.2123
  319MOL0     H43065   7.420   7.590   8.719 -2.3525 -0.6519 -0.1435
  320MOL0     O43066   5.354   5.193   5.250 -0.3735  0.2790 -0.4836
  320MOL0     C43067   5.299   5.191   5.143 -0.3744  0.1461  0.8825
  320MOL0     O43068   5.363   5.225   5.024  0.1151  0.7919  0.3431
  320MOL0     C43069   5.507   5.232   5.007  0.2076 -0.0503  0.4132
  320MOL0     C43070   5.607   5.216   5.107 -0.6786  0.3157 -1.1170
  320MOL0     C43071   5.743   5.216   5.085  0.1696 -0.8814  0.1221
  320MOL0     C43072   5.787   5.228   4.948 -0.1229  0.0442  0.3114
  320MOL0     O43073   5.923   5.224   4.921  0.1288 -0.9481 -0.5241
  320MOL0     C43074   6.028   5.239   5.020 -0.4321  0.0767 -0.2415
  320MOL0     C43075   6.166   5.242   4.956  0.5487  0.5754  0.1440
  320MOL0     C43076   6.277   5.246   5.060  0.1909 -0.9463 -0.2497
  320MOL0     C43077   6.245   5.159   5.174 -0.4521 -0.7479 -0.3028
  320MOL0     C43078   6.369   5.126   5.256 -0.4346  0.4822  0.1155
  320MOL0     C43079   6.439   5.235   5.333 -0.0710 -0.7888  0.1380
  320MOL0     C43080   6.559   5.183   5.409  0.2643  0.2118  0.6232
  320MOL0     C43081   6.648   5.301   5.462 -0.1481 -0.3455  0.4398
  320MOL0     N43082   6.719   5.376   5.353 -0.6397 -0.1739 -0.4736
  320MOL0     C43083   6.836   5.329   5.297  0.3861  0.0882  0.3581
  320MOL0     C43084   6.877   5.427   5.221 -0.2439 -0.3328 -0.3678
  320MOL0     C43085   6.990   5.413   5.126 -0.1252 -0.0880  0.6930
  320MOL0     C43086   7.100   5.528   5.144  0.0611  0.0407  0.7429
  320MOL0     C43087   7.189   5.503   5.267  0.1827  0.1505  0.8894
  320MOL0     C43088   7.320   5.586   5.256 -0.0169 -0.3838 -0.5865
  320MOL0     O43089   7.310   5.731   5.251 -0.0910 -0.7127 -0.0067
  320MOL0     C43090   7.417   5.811   5.285 -1.1320  0.2215 -0.0881
  320MOL0     C43091   7.542   5.762   5.316 -0.3315  0.7440  0.3542
  320MOL0     C43092   7.646   5.840   5.355  0.0024  0.7448  0.6201
  320MOL0     C43093   7.627   5.976   5.361 -0.6555  1.4490 -0.2651
  320MOL0     C43094   7.736   6.067   5.406  0.0602 -0.4780  0.3709
  320MOL0     O43095   7.746   6.184   5.340 -0.3376 -1.1175 -0.0733
  320MOL0     C43096   7.861   6.252   5.369 -0.2089 -0.5830  0.3374
  320MOL0     C43097   7.971   6.227   5.291 -0.9195  0.4396  0.6798
  320MOL0     C43098   8.092   6.293   5.320  0.6169  0.4397 -0.2865
  320MOL0     C43099   8.095   6.405   5.407 -0.4683 -1.1664  0.1304
  320MOL0     O43100   8.210   6.480   5.424  1.0207 -0.4048  0.5786
  320MOL0     C43101   8.284   6.508   5.307 -0.3808 -0.7330  0.2759
  320MOL0     C43102   8.216   6.597   5.207 -0.4436 -0.8795 -0.5778
  320MOL0     C43103   8.322   6.643   5.113  0.5084  0.5424  0.3228
  320MOL0     C43104   8.264   6.718   4.991 -0.0077 -0.6324 -0.6977
  320MOL0     C43105   8.358   6.826   4.940  1.4568  0.1585 -0.9577
  320MOL0     C43106   8.503   6.777   4.900  0.3049 -0.2763 -0.0669
  320MOL0     C43107   8.599   6.901   4.899  1.0842 -0.4982  0.6120
  320MOL0     C43108   8.741   6.866   4.836 -0.1821  0.3769  0.9442
  320MOL0    Cl43109   8.729   6.910   4.667  0.4909 -0.2469  0.3680
  320MOL0     C43110   7.988   6.428   5.483 -0.4307 -0.2698  0.4881
  320MOL0     C43111   7.872   6.351   5.466 -0.1560  0.4423  0.4174
  320MOL0     O43112   7.822   6.023   5.488  0.2016 -0.6222  0.4000
  320MOL0     C43113   7.500   6.028   5.325 -1.2596  0.8215 -0.8278
  320MOL0     C43114   7.396   5.948   5.282 -0.1360  1.2818  0.0456
  320MOL0     N43115   6.799   5.537   5.233 -0.3878  0.1769  0.1979
  320MOL0     N43116   6.705   5.506   5.324  0.1567 -0.3205  0.8181
  320MOL0     C43117   5.690   5.230   4.847 -0.2657  0.0741  0.1966
  320MOL0     C43118   5.552   5.235   4.873 -0.3894 -0.6233  0.5746
  320MOL0     C43119   5.170   5.129   5.149  0.6524  0.3581 -0.0293
  320MOL0     C43120   5.116   5.108   5.281 -1.1991 -0.1153  0.2349
  320MOL0     C43121   4.996   5.026   5.294 -0.7163  0.5638  0.2568
  320MOL0     C43122   4.924   4.975   5.188 -0.0914 -0.2059  0.2789
  320MOL0     O43123   4.820   4.891   5.211 -0.6909  0.0099 -0.5143
  320MOL0     C43124   4.688   4.953   5.210  0.1909  0.2747  0.7816
  320MOL0     C43125   4.573   4.870   5.262  0.6311  0.0201  0.0061
  320MOL0     C43126   4.514   4.781   5.153  0.3218 -0.1203 -0.1829
  320MOL0     C43127   4.615   4.696   5.071  0.0649 -0.5792 -0.4539
  320MOL0     C43128   4.545   4.580   5.003  0.7429  0.2077  0.5587
  320MOL0     C43129   4.501   4.477   4.944  0.2717 -0.5843 -0.1785
  320MOL0     C43130   4.967   5.008   5.062  0.8433  0.3334 -0.4642
  320MOL0     C43131   5.091   5.084   5.032  0.5845  0.0455 -0.0986
  320MOL0     C43132   5.146   5.076   4.891 -0.7261  0.0938 -0.4646
  320MOL0     H43133   5.587   5.201   5.213 -1.4697  3.5538 -0.6839
  320MOL0     H43134   5.812   5.204   5.168 -0.2877 -0.1456  0.6234
  320MOL0     H43135   6.029   5.334   5.074 -0.8740 -0.3504  0.5323
  320MOL0     H43136   6.023   5.160   5.094 -0.2945 -0.9209 -1.2694
  320MOL0     H43137   6.168   5.316   4.875 -1.9039 -0.9153 -1.4052
  320MOL0     H43138   6.177   5.151   4.896 -1.8750  0.3948 -0.1517
  320MOL0     H43139   6.294   5.348   5.095 -0.4385 -0.8415 -0.2389
  320MOL0     H43140   6.376   5.211   5.028  1.2619  1.4782  0.1338
  320MOL0     H43141   6.187   5.226   5.239  1.9804 -0.6248  1.9502
  320MOL0     H43142   6.194   5.064   5.162  2.6761 -3.0843  2.9269
  320MOL0     H43143   6.338   5.047   5.325  0.5313  0.8774  1.0319
  320MOL0     H43144   6.448   5.082   5.195  1.0840  3.4051 -0.1950
  320MOL0     H43145   6.471   5.316   5.266  1.0902 -2.4029 -1.3723
  320MOL0     H43146   6.360   5.283   5.391 -1.3595 -1.2247 -1.1821
  320MOL0     H43147   6.624   5.120   5.346 -2.4179 -1.9167 -0.2073
  320MOL0     H43148   6.527   5.111   5.485 -2.2895 -2.1874 -2.4363
  320MOL0     H43149   6.600   5.377   5.524  0.0614  1.4872 -1.5320
  320MOL0     H43150   6.721   5.259   5.532  1.7213  3.8079  1.2851
  320MOL0     H43151   6.878   5.229   5.308 -1.0142 -0.7430 -1.3513
  320MOL0     H43152   7.034   5.317   5.152  2.0321  0.7930  0.5038
  320MOL0     H43153   6.955   5.401   5.023  0.2382 -5.9970  0.9669
  320MOL0     H43154   7.149   5.543   5.047 -3.2627  2.6504 -0.7396
  320MOL0     H43155   7.060   5.626   5.169  0.7848 -0.0389  2.3302
  320MOL0     H43156   7.222   5.398   5.261  0.6805  0.3685 -3.6030
  320MOL0     H43157   7.147   5.532   5.364 -0.1002  0.6417  0.6163
  320MOL0     H43158   7.370   5.541   5.170 -0.6916  0.3536 -1.3730
  320MOL0     H43159   7.392   5.557   5.334  0.6040  2.1505 -0.1408
  320MOL0     H43160   7.560   5.655   5.322 -1.3000  0.6527  2.4022
  320MOL0     H43161   7.737   5.795   5.395 -1.6926 -0.1081  3.9400
  320MOL0     H43162   7.984   6.149   5.217  2.0234  1.7356 -0.3040
  320MOL0     H43163   8.173   6.270   5.250  0.1297 -2.2936 -0.0902
  320MOL0     H43164   8.370   6.567   5.342 -1.1357  1.4404 -1.2683
  320MOL0     H43165   8.322   6.422   5.252  4.3626  0.5959  1.0095
  320MOL0     H43166   8.137   6.548   5.149  0.2773 -1.8432 -0.7796
  320MOL0     H43167   8.180   6.683   5.264  3.5864  0.4270  0.2989
  320MOL0     H43168   8.379   6.721   5.164  0.4816  2.8290 -2.8251
  320MOL0     H43169   8.386   6.560   5.081  1.9982  1.6233  0.3858
  320MOL0     H43170   8.175   6.774   5.023  0.8493  1.1623 -1.3389
  320MOL0     H43171   8.223   6.650   4.916 -1.8040 -2.4575  1.7449
  320MOL0     H43172   8.353   6.902   5.018  1.7615  0.4630 -1.2313
  320MOL0     H43173   8.319   6.882   4.854 -1.7447  2.3452  1.6440
  320MOL0     H43174   8.548   6.701   4.964  1.5915  1.7398  1.5281
  320MOL0     H43175   8.505   6.733   4.800  0.3985 -0.8130  0.1701
  320MOL0     H43176   8.619   6.922   5.004  0.2672 -4.1398  1.6519
  320MOL0     H43177   8.565   6.981   4.834  1.6120 -0.2057  0.6865
  320MOL0     H43178   8.827   6.911   4.887  0.3861 -1.6696  1.9030
  320MOL0     H43179   8.755   6.760   4.857  0.2256  0.1461 -0.4232
  320MOL0     H43180   7.989   6.515   5.548  1.3931 -1.4976  2.2123
  320MOL0     H43181   7.780   6.386   5.510  0.4268  0.1865  1.8960
  320MOL0     H43182   7.497   6.137   5.321  3.6990  1.2398 -0.3025
  320MOL0     H43183   7.300   5.989   5.253 -0.4536 -1.3102 -3.1467
  320MOL0     H43184   5.723   5.219   4.744 -0.5131 -0.7477  0.1980
  320MOL0     H43185   5.476   5.238   4.795  0.0147 -3.1758 -0.0271
  320MOL0     H43186   5.175   5.138   5.367  1.5834  2.5965 -2.3943
  320MOL0     H43187   4.968   5.022   5.399 -1.4663  0.9978  0.0813
  320MOL0     H43188   4.654   4.978   5.110 -0.9593  1.6240  1.4743
  320MOL0     H43189   4.713   5.047   5.261 -2.0675  1.2571  0.2053
  320MOL0     H43190   4.501   4.938   5.308 -0.0948 -1.0897  0.5598
  320MOL0     H43191   4.616   4.808   5.342 -0.3667 -0.3448  0.2759
  320MOL0     H43192   4.470   4.852   5.081 -1.7689 -2.3172 -1.2087
  320MOL0     H43193   4.432   4.717   5.186 -0.6594 -0.3906 -2.8907
  320MOL0     H43194   4.664   4.752   4.990  0.4138 -0.3189 -0.0680
  320MOL0     H43195   4.694   4.658   5.136 -1.0214 -1.9920  0.0776
  320MOL0     H43196   4.455   4.388   4.904 -0.2035 -0.8078  0.8225
  320MOL0     H43197   4.906   4.976   4.978  1.1533 -2.4222  0.2650
  320MOL0     H43198   5.226   5.002   4.889  1.5642  2.4742 -1.0116
  320MOL0     H43199   5.062   5.048   4.826 -2.3486  0.3643  1.3839
  320MOL0     H43200   5.176   5.175   4.856  2.7673 -0.3864  0.8131
  321MOL0     O43201   1.749   7.411   0.474 -0.0042 -0.2998 -1.1091
  321MOL0     C43202   1.744   7.444   0.599 -0.0583 -0.4548  0.9602
  321MOL0     O43203   1.848   7.495   0.676  0.0689 -0.1847  0.4171
  321MOL0     C43204   1.974   7.526   0.621 -0.7505  0.2060  0.8027
  321MOL0     C43205   1.998   7.591   0.503  0.5575 -0.7184  0.2512
  321MOL0     C43206   2.131   7.629   0.475  0.3294  0.3150  0.6522
  321MOL0     C43207   2.235   7.582   0.548 -0.7227 -0.6070  0.6360
  321MOL0     O43208   2.367   7.605   0.514  0.1107  0.8726 -0.0429
  321MOL0     C43209   2.408   7.690   0.401 -0.3667 -0.3365 -0.9215
  321MOL0     C43210   2.560   7.689   0.378 -0.3915  0.5676  0.3260
  321MOL0     C43211   2.593   7.789   0.270  0.0866  1.0014 -0.2224
  321MOL0     C43212   2.738   7.821   0.250 -0.2981 -0.5326  0.1690
  321MOL0     C43213   2.749   7.907   0.120 -0.5524 -0.2703  0.4058
  321MOL0     C43214   2.899   7.916   0.091  0.0345 -0.1072  0.0452
  321MOL0     C43215   2.936   8.015  -0.031 -0.9151 -0.0646 -0.5466
  321MOL0     C43216   3.083   8.010  -0.070  0.7281 -0.5438  0.7478
  321MOL0     N43217   3.125   8.123  -0.163  0.2473  0.1060  0.0152
  321MOL0     C43218   3.064   8.249  -0.180  0.1674 -0.2468  0.1080
  321MOL0     C43219   3.160   8.324  -0.234  0.4355 -0.0084  0.1118
  321MOL0     C43220   3.141   8.467  -0.276 -0.4194  0.2402  0.4917
  321MOL0     C43221   3.259   8.570  -0.246 -0.9417  0.7054 -1.1916
  321MOL0     C43222   3.390   8.547  -0.325  0.8362 -0.0483 -1.0839
  321MOL0     C43223   3.492   8.654  -0.280 -0.7469 -0.4386 -0.4600
  321MOL0     O43224   3.596   8.656  -0.381 -0.3730  0.2599 -0.3292
  321MOL0     C43225   3.712   8.722  -0.357  0.3351  0.6088 -0.2438
  321MOL0     C43226   3.749   8.783  -0.235  0.5440 -0.1352  0.2006
  321MOL0     C43227   3.874   8.845  -0.235 -1.1767  0.9319  1.0718
  321MOL0     C43228   3.979   8.835  -0.338  0.8460  0.7269 -0.1533
  321MOL0     C43229   4.108   8.899  -0.306  0.6980  0.5301  0.8220
  321MOL0     O43230   4.120   8.949  -0.181 -0.3759  0.8384  0.2714
  321MOL0     C43231   4.243   8.972  -0.127 -0.2962  0.5476 -0.4157
  321MOL0     C43232   4.258   9.071  -0.028  1.2110  0.3682 -0.2654
  321MOL0     C43233   4.380   9.102   0.023 -0.3519 -0.0708  0.1367
  321MOL0     C43234   4.497   9.033  -0.004 -1.1052  0.1672  0.4525
  321MOL0     O43235   4.612   9.072   0.048 -0.7848 -1.0189  0.1867
  321MOL0     C43236   4.683   9.182  -0.016 -0.0333  0.4593 -1.3756
  321MOL0     C43237   4.833   9.177   0.018 -1.1112  0.2485  0.0220
  321MOL0     C43238   4.924   9.297  -0.021  0.6146 -0.8897  0.3649
  321MOL0     C43239   5.052   9.290   0.060 -0.5293  0.3524  0.1986
  321MOL0     C43240   5.165   9.393   0.017 -0.1137  0.5411  0.3737
  321MOL0     C43241   5.314   9.358   0.035 -0.4968 -0.1743  0.2243
  321MOL0     C43242   5.368   9.339   0.172 -0.1353 -0.4771 -0.2291
  321MOL0     C43243   5.417   9.457   0.255  0.2298  0.6414  0.2465
  321MOL0    Cl43244   5.567   9.512   0.185  0.0703 -0.4318  0.0753
  321MOL0     C43245   4.490   8.928  -0.099  0.2448 -0.3109  0.1324
  321MOL0     C43246   4.361   8.898  -0.151  0.1489 -0.2186 -0.2646
  321MOL0     O43247   4.198   8.887  -0.386 -0.4713 -0.7080 -0.2291
  321MOL0     C43248   3.931   8.770  -0.456 -0.0648  0.8024 -0.5100
  321MOL0     C43249   3.795   8.717  -0.465 -0.4322 -0.5729 -1.0434
  321MOL0     N43250   3.265   8.248  -0.263  0.1073 -0.2997 -0.8257
  321MOL0     N43251   3.247   8.129  -0.218 -0.0316  0.7722  0.7305
  321MOL0     C43252   2.213   7.516   0.668 -0.2604  0.4017  0.3061
  321MOL0     C43253   2.083   7.480   0.700 -0.4571 -0.5335  0.2805
  321MOL0     C43254   1.615   7.424   0.670 -0.2590 -0.6215 -0.5078
  321MOL0     C43255   1.529   7.318   0.625  0.6408  0.5944  0.0157
  321MOL0     C43256   1.406   7.300   0.679  0.4229 -1.2014  0.4413
  321MOL0     C43257   1.357   7.376   0.789 -0.2772  0.6867 -0.1944
  321MOL0     O43258   1.232   7.343   0.835 -0.0773 -0.6519 -0.1808
  321MOL0     C43259   1.130   7.431   0.783  0.6277 -0.8525 -0.2379
  321MOL0     C43260   1.091   7.424   0.636  0.9086  0.3213 -0.4421
  321MOL0     C43261   1.063   7.278   0.595 -0.1462 -0.0180  0.4812
  321MOL0     C43262   1.071   7.273   0.446  0.5247  0.2477  0.0399
  321MOL0     C43263   1.054   7.131   0.411  0.5297  1.1203  0.5380
  321MOL0     C43264   1.055   7.013   0.386 -0.0864  0.2693 -0.4932
  321MOL0     C43265   1.450   7.465   0.848 -0.3012 -0.1455  0.6066
  321MOL0     C43266   1.572   7.496   0.784  0.4866  0.6903 -0.4758
  321MOL0     C43267   1.652   7.614   0.850 -0.0439 -0.0569  0.8359
  321MOL0     H43268   1.912   7.633   0.452  0.7493  2.2927  2.1534
  321MOL0     H43269   2.142   7.671   0.375 -4.5434  1.7389  0.4586
  321MOL0     H43270   2.355   7.664   0.309 -0.5337 -0.4030 -0.8067
  321MOL0     H43271   2.375   7.792   0.422 -1.3639 -0.9877  0.9188
  321MOL0     H43272   2.579   7.586   0.348 -1.0592  0.2475  0.9908
  321MOL0     H43273   2.610   7.706   0.474  0.6495 -2.5373  0.4181
  321MOL0     H43274   2.539   7.882   0.290 -1.5298 -0.2329  1.6094
  321MOL0     H43275   2.539   7.757   0.181 -0.4881  0.7450  0.2094
  321MOL0     H43276   2.774   7.878   0.336  0.4831 -1.1477  0.2650
  321MOL0     H43277   2.805   7.734   0.251  1.6359  0.8613  2.0863
  321MOL0     H43278   2.699   7.863   0.034  1.9245  0.4581 -1.5181
  321MOL0     H43279   2.708   8.001   0.156  0.1122 -0.6692  2.3263
  321MOL0     H43280   2.943   7.954   0.184 -2.7204  1.2573  0.9019
  321MOL0     H43281   2.927   7.813   0.070 -2.6216 -0.7545 -0.7509
  321MOL0     H43282   2.916   8.115   0.008  1.0221  0.7042 -1.4015
  321MOL0     H43283   2.871   7.999  -0.118 -1.9869 -2.0366  0.5392
  321MOL0     H43284   3.147   7.997   0.018 -0.2450 -0.5600  1.4782
  321MOL0     H43285   3.089   7.912  -0.118 -0.5441  0.8058 -2.4359
  321MOL0     H43286   2.962   8.284  -0.163 -0.0628 -1.6036  1.8015
  321MOL0     H43287   3.127   8.454  -0.383  4.0340  0.0160 -0.2361
  321MOL0     H43288   3.056   8.517  -0.227 -0.2639  0.0406  0.9751
  321MOL0     H43289   3.232   8.675  -0.262  0.4190  1.3502  0.3850
  321MOL0     H43290   3.273   8.565  -0.137 -0.2136  1.0482 -1.2715
  321MOL0     H43291   3.365   8.552  -0.432 -0.0410  0.0378 -0.8873
  321MOL0     H43292   3.419   8.448  -0.291 -2.6732 -0.8130  0.1452
  321MOL0     H43293   3.537   8.630  -0.183 -0.5155 -1.7891 -0.8849
  321MOL0     H43294   3.440   8.749  -0.266  0.3168 -0.2680  3.5339
  321MOL0     H43295   3.680   8.792  -0.151 -0.0462  0.2728 -0.3168
  321MOL0     H43296   3.885   8.900  -0.142  1.3449  1.3894  0.5904
  321MOL0     H43297   4.174   9.135  -0.005 -0.0675 -0.2460 -2.8626
  321MOL0     H43298   4.391   9.179   0.098  1.5385  0.3510 -0.5314
  321MOL0     H43299   4.670   9.186  -0.125  1.6116  2.7461 -1.5464
  321MOL0     H43300   4.646   9.277   0.024 -0.9435 -1.2069  2.1887
  321MOL0     H43301   4.841   9.154   0.124  0.2884 -3.7203 -0.7799
  321MOL0     H43302   4.870   9.086  -0.029 -1.3748 -1.9670  3.7615
  321MOL0     H43303   4.948   9.282  -0.127 -2.5586  0.1631 -0.6159
  321MOL0     H43304   4.876   9.395  -0.025  0.5680 -0.9618 -1.9874
  321MOL0     H43305   5.090   9.189   0.079 -3.1000 -0.4038  1.8728
  321MOL0     H43306   5.021   9.305   0.164 -2.4984 -3.2374  0.2996
  321MOL0     H43307   5.147   9.495   0.052 -0.6507  0.5409  0.1126
  321MOL0     H43308   5.157   9.405  -0.092 -0.0782  0.1835  0.3322
  321MOL0     H43309   5.330   9.264  -0.018  2.3745  1.0559 -1.3639
  321MOL0     H43310   5.373   9.431  -0.021 -1.0911 -1.3429 -2.0501
  321MOL0     H43311   5.460   9.280   0.159 -0.6765 -1.1962 -0.9523
  321MOL0     H43312   5.298   9.291   0.240 -2.7240  1.2564 -1.5108
  321MOL0     H43313   5.346   9.539   0.238  0.7287  0.5448 -3.0962
  321MOL0     H43314   5.426   9.446   0.363  3.5482  4.6294  0.6319
  321MOL0     H43315   4.582   8.875  -0.122 -0.6140 -1.8777  0.1688
  321MOL0     H43316   4.343   8.813  -0.217 -2.8897 -1.2789  1.6934
  321MOL0     H43317   3.975   8.778  -0.555 -0.4518  1.0559 -0.6618
  321MOL0     H43318   3.762   8.676  -0.560 -2.5989  0.3690 -0.7646
  321MOL0     H43319   2.301   7.485   0.725 -1.9421  2.3553  4.3605
  321MOL0     H43320   2.070   7.426   0.793 -1.1631 -0.0866  0.4479
  321MOL0     H43321   1.562   7.255   0.543 -0.7899  0.2438 -0.3122
  321MOL0     H43322   1.335   7.234   0.629  0.9910 -1.6390  0.2058
  321MOL0     H43323   1.168   7.529   0.811  0.3343 -1.1725  1.3659
  321MOL0     H43324   1.043   7.414   0.847  0.7390 -0.3572  0.0433
  321MOL0     H43325   1.180   7.448   0.576  2.4023 -1.4964  0.9061
  321MOL0     H43326   1.002   7.483   0.615 -1.5434 -2.4319  1.4276
  321MOL0     H43327   0.960   7.259   0.624 -0.3006  0.2386  0.1149
  321MOL0     H43328   1.133   7.206   0.638 -1.3352 -0.0334  2.4786
  321MOL0     H43329   0.995   7.339   0.404 -1.0221 -1.5194 -0.0953
  321MOL0     H43330   1.173   7.309   0.426  0.8808 -0.4604  0.5341
  321MOL0     H43331   1.076   6.911   0.364 -1.4719  0.0770 -1.0211
  321MOL0     H43332   1.429   7.516   0.942  0.5793 -2.4466  2.1313
  321MOL0     H43333   1.579   7.681   0.897 -0.8625 -1.3815  1.5212
  321MOL0     H43334   1.723   7.588   0.929 -2.2480 -1.8093  2.3837
  321MOL0     H43335   1.707   7.680   0.783 -1.4786  0.7779  0.4249
  322MOL0     O43336   9.248   7.846   4.947 -0.3602 -0.5103 -0.2988
  322MOL0     C43337   9.289   7.753   4.880  0.7443 -0.9316  0.1956
  322MOL0     O43338   9.222   7.704   4.769 -0.3671 -0.5537  0.0102
  322MOL0     C43339   9.089   7.712   4.745 -0.2389  0.5079 -0.7030
  322MOL0     C43340   8.996   7.767   4.829  0.7557  0.1262  0.3146
  322MOL0     C43341   8.863   7.783   4.792  0.1729 -0.4195  0.3474
  322MOL0     C43342   8.818   7.746   4.658 -0.3870 -0.0159  0.7080
  322MOL0     O43343   8.694   7.768   4.618  0.0165  0.4097 -0.0323
  322MOL0     C43344   8.676   7.791   4.478 -0.0961 -0.5026 -0.7274
  322MOL0     C43345   8.539   7.842   4.437 -0.0166  0.3672 -0.9097
  322MOL0     C43346   8.420   7.770   4.510  0.0150  0.5553 -0.7425
  322MOL0     C43347   8.425   7.613   4.507  0.8849 -0.4066 -0.0832
  322MOL0     C43348   8.396   7.570   4.361  0.0335 -0.6181 -0.1387
  322MOL0     C43349   8.474   7.441   4.321  0.5209 -0.8479  0.3009
  322MOL0     C43350   8.483   7.420   4.168 -0.3728 -0.7027 -0.0440
  322MOL0     C43351   8.564   7.525   4.092  0.4483  0.4263 -0.4154
  322MOL0     N43352   8.705   7.519   4.127  0.2208 -0.8962  0.5138
  322MOL0     C43353   8.800   7.449   4.057 -0.2318  0.2916  0.1419
  322MOL0     C43354   8.912   7.505   4.101  1.0598  0.2448 -0.5329
  322MOL0     C43355   9.041   7.466   4.045 -0.1899 -0.3925  0.0521
  322MOL0     C43356   9.124   7.375   4.139 -0.1733 -0.4990 -0.0056
  322MOL0     C43357   9.246   7.303   4.073  0.3726  0.1758 -0.1609
  322MOL0     C43358   9.366   7.398   4.054 -0.2686  0.5879  0.6082
  322MOL0     O43359   9.465   7.333   3.959  0.3790 -0.0617 -0.5187
  322MOL0     C43360   9.596   7.375   3.974 -0.1379 -0.1604 -0.2770
  322MOL0     C43361   9.690   7.305   3.889  0.8801  0.3253  0.5466
  322MOL0     C43362   9.819   7.337   3.883  0.3926  0.6013  0.6218
  322MOL0     C43363   9.875   7.413   3.975  0.1033 -0.6865  0.3374
  322MOL0     C43364  10.027   7.427   3.984  0.0495 -0.2765  0.2155
  322MOL0     O43365  10.096   7.329   3.922  0.5850  0.4729  0.8478
  322MOL0     C43366  10.227   7.321   3.946 -0.4290  0.0749 -0.0334
  322MOL0     C43367  10.324   7.372   3.858 -0.6351 -0.1274 -0.4182
  322MOL0     C43368  10.462   7.373   3.893  0.0429  1.4614  0.4972
  322MOL0     C43369  10.511   7.309   4.011  0.4703  0.1744 -0.2907
  322MOL0     O43370  10.646   7.328   4.040 -0.2949  0.5060  0.4392
  322MOL0     C43371  10.701   7.235   4.136  0.1972  0.5723  0.0197
  322MOL0     C43372  10.856   7.225   4.131  0.6425 -0.2227 -0.2112
  322MOL0     C43373  10.910   7.126   4.017  0.4063  0.6170  0.9790
  322MOL0     C43374  11.062   7.128   4.019  0.2711  1.0816  0.4029
  322MOL0     C43375  11.120   7.040   3.901 -0.1944 -0.2978  0.0668
  322MOL0     C43376  11.272   7.071   3.905  0.3803 -0.8734  0.0242
  322MOL0     C43377  11.335   7.022   4.027 -0.6053 -0.2457 -0.0999
  322MOL0     C43378  11.480   6.974   4.018  0.2610 -0.6423  0.1429
  322MOL0    Cl43379  11.582   7.104   3.948 -0.3470 -0.2077 -0.2839
  322MOL0     C43380  10.413   7.270   4.104 -0.4971  0.1740  0.5472
  322MOL0     C43381  10.273   7.274   4.070 -0.7144 -0.5437  0.5196
  322MOL0     O43382  10.084   7.500   4.061  0.1264  0.3504 -0.2313
  322MOL0     C43383   9.789   7.487   4.058 -0.4863 -0.2309  0.3325
  322MOL0     C43384   9.650   7.473   4.056 -0.1578 -0.4792 -0.1402
  322MOL0     N43385   8.891   7.593   4.207 -0.0094 -0.0325 -0.4499
  322MOL0     N43386   8.763   7.601   4.223 -0.2173 -0.2316  0.2990
  322MOL0     C43387   8.912   7.674   4.581  0.7271 -0.2620 -0.2513
  322MOL0     C43388   9.042   7.662   4.614 -0.6449 -0.6305 -0.3425
  322MOL0     C43389   9.424   7.696   4.906  0.4892 -0.0130 -0.8880
  322MOL0     C43390   9.465   7.591   4.831  1.4468 -1.7228  0.5681
  322MOL0     C43391   9.591   7.543   4.842  0.4025  0.3217  0.1651
  322MOL0     C43392   9.680   7.596   4.933 -0.9783 -0.3406 -0.1554
  322MOL0     O43393   9.808   7.543   4.930  0.5654  0.2072 -0.3294
  322MOL0     C43394   9.883   7.541   5.049 -0.1533  0.0560  0.0764
  322MOL0     C43395  10.027   7.504   5.018 -0.2037  1.0465 -0.8526
  322MOL0     C43396  10.047   7.354   5.014  0.3131 -0.0971 -0.5034
  322MOL0     C43397  10.188   7.307   5.035 -0.2054  0.2131 -1.3762
  322MOL0     C43398  10.285   7.342   4.932  0.3684  0.1815  0.2934
  322MOL0     C43399  10.364   7.377   4.850 -0.0726 -0.3012  0.5039
  322MOL0     C43400   9.639   7.698   5.018 -0.0641  0.1576 -0.3561
  322MOL0     C43401   9.512   7.747   5.008 -0.7343  0.4912  0.1084
  322MOL0     C43402   9.472   7.841   5.119  0.1062  0.3860 -0.3083
  322MOL0     H43403   9.029   7.797   4.928  2.4984  1.2582 -0.5443
  322MOL0     H43404   8.786   7.826   4.856  0.4000 -0.0243  0.3620
  322MOL0     H43405   8.751   7.856   4.432  0.1709 -0.7247 -0.6093
  322MOL0     H43406   8.692   7.694   4.431 -1.0817 -1.2862  0.4960
  322MOL0     H43407   8.533   7.843   4.328 -0.6750  0.2303 -0.8816
  322MOL0     H43408   8.537   7.948   4.464  1.7733  0.3843 -0.7144
  322MOL0     H43409   8.328   7.799   4.459 -1.2761  1.2087  1.8329
  322MOL0     H43410   8.413   7.792   4.617 -1.1379 -2.6105 -0.0428
  322MOL0     H43411   8.511   7.565   4.555  0.6458  1.3036  2.2179
  322MOL0     H43412   8.342   7.578   4.569  1.4185  0.1255  0.9547
  322MOL0     H43413   8.288   7.560   4.346 -0.4510 -1.3366  3.0162
  322MOL0     H43414   8.426   7.652   4.295 -0.6192 -2.0217 -2.2784
  322MOL0     H43415   8.578   7.444   4.354 -0.1572 -3.9440  3.3031
  322MOL0     H43416   8.427   7.358   4.375  1.1850 -3.2733 -2.5579
  322MOL0     H43417   8.381   7.412   4.129 -0.4470 -1.4365  0.2746
  322MOL0     H43418   8.532   7.326   4.143  0.6578  0.0745 -1.0276
  322MOL0     H43419   8.548   7.503   3.987  3.1075 -1.1607 -0.5712
  322MOL0     H43420   8.534   7.628   4.116 -0.5922 -0.1508  0.9556
  322MOL0     H43421   8.792   7.376   3.977 -0.3501  1.8548 -1.3378
  322MOL0     H43422   9.027   7.423   3.945  1.1611  0.9592 -0.7750
  322MOL0     H43423   9.091   7.561   4.026 -1.1647  0.3463  1.0994
  322MOL0     H43424   9.162   7.437   4.221 -1.5792 -1.6441  1.5820
  322MOL0     H43425   9.060   7.302   4.190 -0.9068 -0.0389 -0.2568
  322MOL0     H43426   9.209   7.274   3.974 -3.0668  0.7963  0.7853
  322MOL0     H43427   9.273   7.203   4.106  0.8299 -0.3301 -1.9553
  322MOL0     H43428   9.418   7.424   4.147  3.9772 -3.2909 -0.3047
  322MOL0     H43429   9.330   7.490   4.008 -1.2243  0.5160  1.1845
  322MOL0     H43430   9.652   7.227   3.823  0.3381  2.0270 -1.2528
  322MOL0     H43431   9.890   7.298   3.810 -2.7623  1.4724 -3.2401
  322MOL0     H43432  10.290   7.427   3.770 -2.3258 -0.3345  0.0859
  322MOL0     H43433  10.533   7.422   3.827 -0.6840 -1.0112 -2.3307
  322MOL0     H43434  10.667   7.242   4.240 -0.1315 -0.1001 -0.0403
  322MOL0     H43435  10.663   7.138   4.105  2.3501 -0.3506  0.1017
  322MOL0     H43436  10.904   7.323   4.128  1.1111 -0.4761 -2.0732
  322MOL0     H43437  10.883   7.192   4.232  0.9696  0.8799  0.0787
  322MOL0     H43438  10.866   7.026   4.019  2.1521 -0.1960  0.8391
  322MOL0     H43439  10.880   7.169   3.920 -0.9704  0.3455  1.2675
  322MOL0     H43440  11.096   7.088   4.115  0.0769 -2.2841 -0.7688
  322MOL0     H43441  11.075   7.236   4.018 -2.5223  1.4856  1.1110
  322MOL0     H43442  11.078   7.062   3.802  0.4693 -0.4765 -0.2606
  322MOL0     H43443  11.087   6.938   3.922  3.5081 -1.5402  0.5334
  322MOL0     H43444  11.319   7.016   3.823  0.7029 -0.8886  0.2178
  322MOL0     H43445  11.275   7.178   3.887 -1.8721 -0.9515 -1.1830
  322MOL0     H43446  11.297   6.926   4.061  2.6843 -2.2617 -1.5947
  322MOL0     H43447  11.319   7.095   4.107 -1.8035 -1.1471  0.5195
  322MOL0     H43448  11.522   6.947   4.116  2.0041  2.4157  0.3347
  322MOL0     H43449  11.474   6.891   3.947 -1.0085  0.5761 -1.2593
  322MOL0     H43450  10.437   7.239   4.205 -0.9740  0.7899  0.8563
  322MOL0     H43451  10.200   7.242   4.144 -1.4217  3.2128  1.6459
  322MOL0     H43452   9.838   7.559   4.123  2.0885 -2.3412  0.9342
  322MOL0     H43453   9.590   7.544   4.111  1.0902  0.0906  0.5338
  322MOL0     H43454   8.879   7.624   4.491  0.4143  0.0359 -0.3042
  322MOL0     H43455   9.113   7.621   4.543  0.9462  2.8222 -0.9411
  322MOL0     H43456   9.396   7.554   4.756  1.1949  1.6760 -1.0678
  322MOL0     H43457   9.631   7.475   4.767 -0.6581  0.1729 -0.2883
  322MOL0     H43458   9.831   7.475   5.120 -0.3412  1.0125  0.8472
  322MOL0     H43459   9.884   7.644   5.086  0.5267 -0.8457  2.7754
  322MOL0     H43460  10.084   7.546   5.101  0.9400 -1.8170 -0.0444
  322MOL0     H43461  10.072   7.542   4.927  0.7159 -0.1868 -0.9509
  322MOL0     H43462  10.003   7.318   4.920  0.4522  2.3257 -1.5502
  322MOL0     H43463   9.995   7.307   5.099 -0.4632 -3.6449 -2.7020
  322MOL0     H43464  10.221   7.340   5.134  1.6251  0.4579 -2.0246
  322MOL0     H43465  10.191   7.198   5.036  1.0662  0.2218 -1.9149
  322MOL0     H43466  10.431   7.386   4.767  1.1407 -1.8864  1.2419
  322MOL0     H43467   9.713   7.739   5.086  2.0148 -2.5494 -0.8001
  322MOL0     H43468   9.379   7.806   5.165  0.0907 -3.8534 -2.9444
  322MOL0     H43469   9.552   7.840   5.194  1.0791 -0.2307 -1.3112
  322MOL0     H43470   9.460   7.942   5.079  0.1131 -0.3859 -2.4065
  323MOL0     O43471   2.119   3.579   5.598  0.5558 -0.4909  0.4680
  323MOL0     C43472   2.183   3.664   5.655  0.9002  0.7013  0.3546
  323MOL0     O43473   2.293   3.722   5.605 -0.2491 -0.0180 -0.1385
  323MOL0     C43474   2.382   3.663   5.510 -0.1653  0.6022 -0.7384
  323MOL0     C43475   2.522   3.683   5.551  0.8547 -0.1442  0.0212
  323MOL0     C43476   2.611   3.623   5.466 -0.8869  0.1989  0.8529
  323MOL0     C43477   2.586   3.540   5.356  0.4658  0.2888  0.0117
  323MOL0     O43478   2.683   3.475   5.288  0.2650 -0.7361  0.5833
  323MOL0     C43479   2.789   3.562   5.244 -0.2135 -0.2654  0.4669
  323MOL0     C43480   2.899   3.472   5.188 -1.0530 -0.1149 -0.3266
  323MOL0     C43481   3.008   3.563   5.119  0.2523 -0.0493 -0.3183
  323MOL0     C43482   3.120   3.466   5.065  0.4900  0.4577 -0.1633
  323MOL0     C43483   3.187   3.531   4.945 -0.4478  0.1856  0.1232
  323MOL0     C43484   3.295   3.438   4.878 -0.1819 -0.5810  0.3245
  323MOL0     C43485   3.431   3.433   4.960 -0.1325  0.9876  0.1282
  323MOL0     C43486   3.497   3.570   4.965 -0.5353 -0.0751 -0.4733
  323MOL0     N43487   3.646   3.557   4.960  0.0574 -0.4528  0.9872
  323MOL0     C43488   3.715   3.482   5.051  0.0048 -0.1757 -0.0172
  323MOL0     C43489   3.843   3.482   4.999 -0.3679 -0.1022  0.9305
  323MOL0     C43490   3.952   3.411   5.073  0.6302  0.3927  0.0134
  323MOL0     C43491   4.079   3.490   5.068 -0.2930  0.0247  0.0831
  323MOL0     C43492   4.214   3.425   5.104  0.5738 -0.2261  0.5110
  323MOL0     C43493   4.343   3.513   5.076  0.7907  0.5734 -0.5393
  323MOL0     O43494   4.373   3.620   5.167  0.2916  0.7859  0.0786
  323MOL0     C43495   4.505   3.612   5.199 -0.9486 -0.0448  0.7971
  323MOL0     C43496   4.603   3.648   5.100  0.1093 -0.7670 -0.5101
  323MOL0     C43497   4.737   3.649   5.147 -0.5474  0.4811 -0.3294
  323MOL0     C43498   4.771   3.603   5.278 -0.8523 -0.1420 -1.2957
  323MOL0     C43499   4.920   3.616   5.317 -0.3370  0.5204  0.3986
  323MOL0     O43500   5.011   3.607   5.218  0.6257  0.0678  0.4706
  323MOL0     C43501   5.136   3.578   5.253 -0.5316 -0.4287  0.0041
  323MOL0     C43502   5.213   3.662   5.336 -0.0248 -0.5361  0.4483
  323MOL0     C43503   5.344   3.619   5.377  0.7199  0.4014  0.4231
  323MOL0     C43504   5.392   3.492   5.332  0.5406  0.0426  0.8562
  323MOL0     O43505   5.513   3.459   5.373 -0.1214  0.1834 -1.0142
  323MOL0     C43506   5.591   3.352   5.320  0.1901 -0.6597 -0.1910
  323MOL0     C43507   5.732   3.344   5.364 -0.3099  0.0477  0.4686
  323MOL0     C43508   5.744   3.327   5.517  1.0381 -0.1994 -0.3348
  323MOL0     C43509   5.887   3.350   5.561 -0.1103 -0.1375 -0.3873
  323MOL0     C43510   5.901   3.300   5.698 -0.3827  0.0285  0.3373
  323MOL0     C43511   6.022   3.357   5.768 -0.3806  0.1921 -0.1948
  323MOL0     C43512   6.045   3.308   5.911  0.0287 -0.1600  0.6517
  323MOL0     C43513   5.966   3.393   6.011 -0.1010  0.1259  0.5366
  323MOL0    Cl43514   5.946   3.299   6.157 -0.3106  0.2695 -0.4946
  323MOL0     C43515   5.309   3.416   5.240 -0.2552 -1.1149 -0.1718
  323MOL0     C43516   5.184   3.465   5.191 -0.0714  0.4453 -0.4501
  323MOL0     O43517   4.950   3.609   5.438  0.4602 -0.1884  0.7272
  323MOL0     C43518   4.670   3.559   5.369  0.6444  0.1667  0.5770
  323MOL0     C43519   4.533   3.563   5.325  0.4138  0.1211  0.5568
  323MOL0     N43520   3.846   3.548   4.875  0.7001 -0.2449 -0.8170
  323MOL0     N43521   3.728   3.597   4.854  0.2416 -0.3470  0.1892
  323MOL0     C43522   2.450   3.523   5.319 -0.8551 -0.2470 -0.3471
  323MOL0     C43523   2.354   3.590   5.399  0.3893 -0.1019  0.0421
  323MOL0     C43524   2.108   3.736   5.761 -0.3764 -0.3886 -0.4302
  323MOL0     C43525   1.964   3.732   5.768 -0.7400 -0.3197 -1.4541
  323MOL0     C43526   1.901   3.805   5.874  0.4529  0.6571 -0.0623
  323MOL0     C43527   1.971   3.867   5.977  0.4147  0.1662 -0.1835
  323MOL0     O43528   1.896   3.925   6.077  0.1359  0.2559 -0.4265
  323MOL0     C43529   1.948   4.031   6.158  0.4423 -0.0087  1.2307
  323MOL0     C43530   2.049   3.977   6.264  0.0564  0.3147 -0.9534
  323MOL0     C43531   2.011   4.014   6.409 -0.1513 -0.0739  0.9793
  323MOL0     C43532   2.092   3.943   6.526 -0.2246 -0.6158 -0.0816
  323MOL0     C43533   2.052   4.017   6.647  0.1623  0.2111 -1.1942
  323MOL0     C43534   1.998   4.085   6.727 -0.2553 -0.5045  0.5957
  323MOL0     C43535   2.109   3.872   5.973  0.6526 -0.8933  0.9689
  323MOL0     C43536   2.184   3.816   5.863  0.3731 -0.1849 -0.2333
  323MOL0     C43537   2.329   3.838   5.850  0.6900  0.1651 -0.9129
  323MOL0     H43538   2.555   3.731   5.642 -2.0188 -0.1936  1.1727
  323MOL0     H43539   2.713   3.627   5.504  0.3518  0.3412 -2.2288
  323MOL0     H43540   2.758   3.646   5.182  0.9405  0.4757  0.8619
  323MOL0     H43541   2.833   3.601   5.336  0.0321 -1.3977  0.8391
  323MOL0     H43542   2.869   3.393   5.119 -0.5069  0.1012 -0.8199
  323MOL0     H43543   2.944   3.414   5.270 -0.0473  0.8107 -0.1956
  323MOL0     H43544   3.056   3.630   5.192  0.3770  0.6185 -1.0034
  323MOL0     H43545   2.959   3.625   5.043  2.5395  0.8197 -1.1733
  323MOL0     H43546   3.185   3.425   5.143  0.3689  3.2568  1.5658
  323MOL0     H43547   3.070   3.381   5.019  1.6239 -0.1771 -0.2660
  323MOL0     H43548   3.105   3.539   4.873 -0.3201  2.5044  0.1624
  323MOL0     H43549   3.226   3.625   4.987  1.2087 -1.8326  3.5916
  323MOL0     H43550   3.258   3.335   4.866 -3.7014  0.2038  2.7926
  323MOL0     H43551   3.316   3.471   4.776  0.7602 -3.6856 -0.6038
  323MOL0     H43552   3.496   3.357   4.917 -2.1674 -0.6313 -0.1989
  323MOL0     H43553   3.405   3.402   5.062  0.3627  0.9280  0.2378
  323MOL0     H43554   3.463   3.620   4.874 -0.2996  1.1027  0.0621
  323MOL0     H43555   3.462   3.622   5.055 -0.0072  0.5127 -0.5960
  323MOL0     H43556   3.680   3.430   5.140  0.5199 -1.3503 -0.4832
  323MOL0     H43557   3.919   3.377   5.172  0.8113 -2.1649 -0.7292
  323MOL0     H43558   3.970   3.314   5.026  1.6713 -1.0105  3.0190
  323MOL0     H43559   4.082   3.528   4.966 -2.7152  0.6387  0.1797
  323MOL0     H43560   4.066   3.574   5.138  0.9590 -1.7928  2.6492
  323MOL0     H43561   4.229   3.339   5.039  1.8560  0.3820 -0.0361
  323MOL0     H43562   4.218   3.388   5.207  0.5933 -3.6412 -0.6134
  323MOL0     H43563   4.337   3.557   4.976 -2.4586 -0.1190 -0.7689
  323MOL0     H43564   4.430   3.446   5.076 -0.7777 -1.6559  2.0415
  323MOL0     H43565   4.577   3.685   5.002 -0.9976 -0.6974 -0.2036
  323MOL0     H43566   4.808   3.702   5.083  0.5552 -0.9522 -0.3481
  323MOL0     H43567   5.179   3.759   5.370  0.3413 -0.2433  0.0035
  323MOL0     H43568   5.407   3.674   5.446  2.4052  1.9396 -2.1359
  323MOL0     H43569   5.538   3.263   5.357  0.6856 -0.1495  1.8676
  323MOL0     H43570   5.572   3.349   5.212 -3.0796  0.2423  0.2351
  323MOL0     H43571   5.778   3.261   5.310  2.6940  3.0650 -2.0439
  323MOL0     H43572   5.780   3.432   5.319  0.2817  1.1526  3.0924
  323MOL0     H43573   5.676   3.398   5.565  1.1504  1.1006 -1.9970
  323MOL0     H43574   5.712   3.228   5.550 -0.8525  0.1321 -1.0130
  323MOL0     H43575   5.914   3.456   5.561  2.7093 -0.7749  0.6490
  323MOL0     H43576   5.957   3.296   5.496 -1.0302 -0.2932 -1.2706
  323MOL0     H43577   5.903   3.192   5.684  2.3955  0.2463 -1.7987
  323MOL0     H43578   5.806   3.318   5.750 -0.7219  2.3819 -0.9577
  323MOL0     H43579   6.117   3.341   5.717 -0.3805  2.2017 -0.9293
  323MOL0     H43580   6.011   3.466   5.770 -2.3414  0.1263 -2.9094
  323MOL0     H43581   6.151   3.312   5.935 -0.6180  0.7696  3.7987
  323MOL0     H43582   6.011   3.204   5.921 -1.6373  0.1837 -0.8187
  323MOL0     H43583   6.026   3.481   6.035 -1.9634  1.0883  1.9277
  323MOL0     H43584   5.868   3.411   5.965  0.8545 -0.6910 -1.9686
  323MOL0     H43585   5.347   3.318   5.212  1.3152 -0.3700 -0.7869
  323MOL0     H43586   5.114   3.418   5.123 -0.4086  1.6323 -0.9527
  323MOL0     H43587   4.700   3.523   5.467  0.5077 -0.3607  0.4266
  323MOL0     H43588   4.449   3.528   5.385 -1.8032  3.2258 -0.5117
  323MOL0     H43589   2.423   3.468   5.229  1.4649 -0.6461 -0.8685
  323MOL0     H43590   2.250   3.568   5.373  1.5335 -5.3619 -1.3634
  323MOL0     H43591   1.898   3.676   5.703 -4.4813 -1.5782  2.9864
  323MOL0     H43592   1.792   3.797   5.873  0.5090 -0.6311  1.1176
  323MOL0     H43593   1.875   4.090   6.213  1.6486  1.9198  0.8906
  323MOL0     H43594   2.002   4.096   6.088 -2.8736  0.0076 -1.5701
  323MOL0     H43595   2.148   4.018   6.243  1.3755 -0.7318  2.4828
  323MOL0     H43596   2.044   3.867   6.265  0.3714  0.2121  2.4573
  323MOL0     H43597   1.905   3.987   6.414 -0.7114  1.4337 -1.2333
  323MOL0     H43598   2.022   4.122   6.419  1.3768 -0.0275 -0.7009
  323MOL0     H43599   2.058   3.839   6.528 -2.4556  0.0218 -1.4748
  323MOL0     H43600   2.200   3.936   6.513 -0.3803 -1.5700 -0.9983
  323MOL0     H43601   1.937   4.140   6.796 -1.0564 -1.4768  0.6750
  323MOL0     H43602   2.163   3.929   6.048  0.1459  0.4742  0.3213
  323MOL0     H43603   2.344   3.886   5.753  1.1310 -1.0382 -1.4606
  323MOL0     H43604   2.351   3.900   5.937 -5.0556 -1.1195  1.9568
  323MOL0     H43605   2.371   3.737   5.859  1.2522  0.3173 -1.7556
  324MOL0     O43606   9.418   5.563   6.163 -0.4904 -0.0760 -0.7223
  324MOL0     C43607   9.322   5.645   6.169 -0.8712  1.1651  0.6986
  324MOL0     O43608   9.278   5.723   6.068 -0.6775 -0.1798  0.0508
  324MOL0     C43609   9.377   5.772   5.991  0.7755 -0.8269 -0.1238
  324MOL0     C43610   9.380   5.740   5.854 -0.3253 -0.2236  0.5057
  324MOL0     C43611   9.475   5.785   5.754 -0.5790  0.2840 -0.9105
  324MOL0     C43612   9.579   5.862   5.797  0.7944  0.4711 -0.2646
  324MOL0     O43613   9.687   5.909   5.720  0.8922  0.3530 -0.3209
  324MOL0     C43614   9.724   5.822   5.614 -0.1333  0.3315 -0.5727
  324MOL0     C43615   9.869   5.859   5.578  0.4061  0.0654  0.0308
  324MOL0     C43616   9.970   5.824   5.691 -0.0412  0.2694  0.7940
  324MOL0     C43617  10.104   5.784   5.618 -0.0241  0.4647 -0.1490
  324MOL0     C43618  10.194   5.697   5.709 -0.4138  0.4328 -0.1743
  324MOL0     C43619  10.342   5.684   5.646  0.5552 -0.0319 -0.0535
  324MOL0     C43620  10.406   5.812   5.605 -0.3677 -0.6113  0.2044
  324MOL0     C43621  10.558   5.798   5.591  0.0486 -0.7100  0.5753
  324MOL0     N43622  10.636   5.924   5.590 -0.3601  0.6351 -0.1042
  324MOL0     C43623  10.688   5.998   5.690  0.3782 -0.4653  0.4924
  324MOL0     C43624  10.750   6.102   5.631  1.1174  0.5913  0.5447
  324MOL0     C43625  10.829   6.210   5.697 -0.7469 -0.5915  0.5334
  324MOL0     C43626  10.751   6.334   5.733  0.0767 -0.1980 -0.2106
  324MOL0     C43627  10.845   6.443   5.792  0.3873  0.2425 -0.0299
  324MOL0     C43628  10.964   6.485   5.709  0.4460  0.0270  0.2043
  324MOL0     O43629  11.038   6.593   5.760 -0.4786  0.6972  0.2829
  324MOL0     C43630  11.150   6.637   5.686  0.0554  0.3178  0.0258
  324MOL0     C43631  11.140   6.729   5.576  0.0334 -0.4070 -0.4404
  324MOL0     C43632  11.253   6.758   5.497  0.0971 -0.4209 -0.5302
  324MOL0     C43633  11.380   6.692   5.524 -0.4187 -0.2392  0.1734
  324MOL0     C43634  11.499   6.724   5.443  0.0161  0.3316  0.2176
  324MOL0     O43635  11.488   6.820   5.348  0.0864  0.6234  0.8298
  324MOL0     C43636  11.588   6.850   5.259 -0.4076  0.7750 -0.0990
  324MOL0     C43637  11.549   6.895   5.137  0.3619 -0.0888  0.0898
  324MOL0     C43638  11.643   6.913   5.035  0.7691 -0.3663 -0.5100
  324MOL0     C43639  11.780   6.881   5.046  0.1673 -0.1953  0.3136
  324MOL0     O43640  11.864   6.906   4.935 -0.6974  0.0727  0.0388
  324MOL0     C43641  12.008   6.901   4.966 -0.5391 -0.4352  0.3783
  324MOL0     C43642  12.092   6.972   4.849 -0.6526  0.4036 -0.6541
  324MOL0     C43643  12.243   6.968   4.878 -0.6518  0.5067  0.6014
  324MOL0     C43644  12.331   7.051   4.779 -0.3290  0.0558  0.6451
  324MOL0     C43645  12.467   6.993   4.764  0.1529  0.3813 -0.7096
  324MOL0     C43646  12.544   7.079   4.665 -0.7041  0.1744 -0.9107
  324MOL0     C43647  12.681   7.017   4.636  0.0908 -0.2041  1.0651
  324MOL0     C43648  12.669   6.903   4.534  0.4043  0.1712 -0.1744
  324MOL0    Cl43649  12.605   6.976   4.380  0.0388  0.1807  0.1570
  324MOL0     C43650  11.820   6.830   5.170  0.1794 -0.0666  0.5229
  324MOL0     C43651  11.723   6.819   5.277 -1.2241 -0.3676 -0.3901
  324MOL0     O43652  11.599   6.654   5.467 -0.7048  0.4626  0.4320
  324MOL0     C43653  11.384   6.609   5.633  0.1665 -0.3679 -1.2088
  324MOL0     C43654  11.282   6.592   5.720  0.0864  0.1650 -0.1898
  324MOL0     N43655  10.740   6.088   5.497  0.6691  0.0632  0.2083
  324MOL0     N43656  10.661   5.980   5.475 -0.6814 -0.4654  0.0168
  324MOL0     C43657   9.583   5.888   5.936 -0.0215 -1.0092  0.2386
  324MOL0     C43658   9.492   5.841   6.038 -0.0218  0.7652 -0.3764
  324MOL0     C43659   9.235   5.657   6.289 -0.5943  0.6183  0.0338
  324MOL0     C43660   9.098   5.685   6.273  0.5196  0.8420 -0.5607
  324MOL0     C43661   9.020   5.699   6.381  0.1087 -0.0799 -0.2404
  324MOL0     C43662   9.076   5.702   6.514 -0.7623 -0.1579 -0.2894
  324MOL0     O43663   9.008   5.719   6.634 -0.5997 -0.3154 -0.0789
  324MOL0     C43664   8.877   5.760   6.639  0.2039 -0.8370 -0.3938
  324MOL0     C43665   8.836   5.837   6.770 -0.5085 -0.2023 -0.1253
  324MOL0     C43666   8.693   5.888   6.743 -0.2932  1.1045 -1.2720
  324MOL0     C43667   8.662   6.010   6.841 -0.1863 -0.0718 -0.4228
  324MOL0     C43668   8.641   5.966   6.972 -0.5232 -0.3158 -0.2852
  324MOL0     C43669   8.613   5.930   7.079 -0.2440  0.1832  0.0048
  324MOL0     C43670   9.216   5.686   6.530  0.1813 -0.2639 -0.0999
  324MOL0     C43671   9.287   5.646   6.419  0.1214 -0.0884  0.1478
  324MOL0     C43672   9.437   5.644   6.438  0.6519 -0.6637 -0.2499
  324MOL0     H43673   9.298   5.677   5.819  1.1449 -2.6085  1.1182
  324MOL0     H43674   9.468   5.754   5.650  1.7205 -0.7472 -0.8247
  324MOL0     H43675   9.703   5.716   5.634  1.0208  0.0631 -0.7339
  324MOL0     H43676   9.665   5.856   5.529 -0.4937  0.8832 -0.1103
  324MOL0     H43677   9.878   5.965   5.555 -4.7790  0.8822  0.4820
  324MOL0     H43678   9.885   5.798   5.489  0.4813  0.3697 -0.1623
  324MOL0     H43679   9.931   5.745   5.756 -0.8862  0.8668  1.0426
  324MOL0     H43680   9.993   5.914   5.749 -2.0438  1.8018 -0.6518
  324MOL0     H43681  10.104   5.732   5.522  1.9867 -0.6594  0.4044
  324MOL0     H43682  10.155   5.874   5.581 -0.7664  0.3983 -1.4033
  324MOL0     H43683  10.206   5.724   5.814  1.2662 -0.9663  0.0390
  324MOL0     H43684  10.161   5.593   5.714  1.7299 -0.3243 -0.8214
  324MOL0     H43685  10.403   5.637   5.724 -0.7896  2.0108  2.3746
  324MOL0     H43686  10.340   5.619   5.558 -2.7601 -1.5651  0.9713
  324MOL0     H43687  10.400   5.872   5.697 -0.2324  1.3333 -1.0002
  324MOL0     H43688  10.365   5.865   5.518 -0.9735 -1.2020  0.1251
  324MOL0     H43689  10.597   5.728   5.667  2.1250  0.0728  0.3043
  324MOL0     H43690  10.563   5.753   5.491 -4.0858 -1.2255  0.4234
  324MOL0     H43691  10.682   5.984   5.798  0.2532  3.6827  1.1994
  324MOL0     H43692  10.883   6.165   5.781  0.5406 -1.5522 -0.7596
  324MOL0     H43693  10.914   6.227   5.629  0.0000 -2.6582  0.8830
  324MOL0     H43694  10.702   6.370   5.643  0.1334 -0.6986 -0.4423
  324MOL0     H43695  10.676   6.315   5.811  0.0367  1.0834  0.0900
  324MOL0     H43696  10.886   6.417   5.889  0.9312 -0.2738 -0.3932
  324MOL0     H43697  10.783   6.532   5.807  0.8331  0.6507 -0.5837
  324MOL0     H43698  10.921   6.512   5.612 -0.9533 -0.3123  0.7188
  324MOL0     H43699  11.030   6.398   5.700  0.2770 -0.1284  0.4647
  324MOL0     H43700  11.050   6.777   5.540  1.9260  3.3277 -0.7002
  324MOL0     H43701  11.226   6.825   5.416  1.6642  1.0907  0.1189
  324MOL0     H43702  11.449   6.929   5.112 -0.2187 -2.3378 -0.8035
  324MOL0     H43703  11.615   6.952   4.937 -0.4399  1.5756  0.5333
  324MOL0     H43704  12.023   6.967   5.052 -0.1648  2.2918 -1.6302
  324MOL0     H43705  12.052   6.801   4.969  1.5163  0.3525 -1.2167
  324MOL0     H43706  12.077   6.929   4.749  6.0575 -1.2607 -1.4072
  324MOL0     H43707  12.073   7.079   4.835  0.5762  0.8435  0.8294
  324MOL0     H43708  12.258   7.000   4.982  0.6319  0.0783  0.5648
  324MOL0     H43709  12.262   6.861   4.865 -2.6023 -0.0168  1.7131
  324MOL0     H43710  12.336   7.158   4.800  0.2178  0.4437 -1.2549
  324MOL0     H43711  12.290   7.054   4.677  3.5794  2.3470 -1.0926
  324MOL0     H43712  12.468   6.886   4.744  1.1498 -0.3389  2.5918
  324MOL0     H43713  12.507   6.998   4.866 -2.9813  0.5834  0.6205
  324MOL0     H43714  12.499   7.104   4.568 -0.4296 -1.3424 -1.4572
  324MOL0     H43715  12.564   7.171   4.720  1.3684 -0.7759  0.0552
  324MOL0     H43716  12.724   6.974   4.727 -0.8625 -1.8043  0.8152
  324MOL0     H43717  12.746   7.094   4.593 -1.9744  2.3640  2.2246
  324MOL0     H43718  12.765   6.856   4.511 -0.4575 -1.9572  0.2962
  324MOL0     H43719  12.598   6.826   4.567  0.6945 -2.4899 -4.8712
  324MOL0     H43720  11.924   6.808   5.193  0.4628 -0.6526 -1.1964
  324MOL0     H43721  11.766   6.793   5.373  0.0151  0.1715 -0.7798
  324MOL0     H43722  11.473   6.554   5.663  2.2408  2.8333 -1.0119
  324MOL0     H43723  11.295   6.525   5.804  1.9220 -0.2250 -0.7359
  324MOL0     H43724   9.672   5.950   5.951 -0.6812  0.5149 -1.6776
  324MOL0     H43725   9.498   5.859   6.145 -1.2153 -0.2959 -0.1187
  324MOL0     H43726   9.050   5.689   6.176  0.9374  1.1875 -0.7580
  324MOL0     H43727   8.915   5.685   6.359 -0.2344  1.6993  0.1159
  324MOL0     H43728   8.807   5.677   6.636 -1.6575  0.6811 -2.8364
  324MOL0     H43729   8.853   5.834   6.562 -1.8338 -0.4756  0.5197
  324MOL0     H43730   8.907   5.917   6.793 -0.7079 -0.6126  2.0673
  324MOL0     H43731   8.834   5.764   6.851  2.0281 -0.0095  0.2000
  324MOL0     H43732   8.620   5.809   6.761  0.1507  0.7100 -1.1677
  324MOL0     H43733   8.676   5.922   6.641 -2.0170  0.7683 -1.1214
  324MOL0     H43734   8.755   6.067   6.837 -0.2669  0.0807 -0.1052
  324MOL0     H43735   8.576   6.074   6.820 -0.5263 -0.1010  0.8179
  324MOL0     H43736   8.579   5.901   7.177 -1.3004 -3.5330 -1.2600
  324MOL0     H43737   9.261   5.704   6.627  3.1991  1.4721 -1.6698
  324MOL0     H43738   9.477   5.738   6.401  0.6471  0.5174  2.5199
  324MOL0     H43739   9.452   5.650   6.546 -0.2841  2.4939 -0.2151
  324MOL0     H43740   9.476   5.558   6.381  0.6194 -0.1276 -1.0947
  325MOL0     O43741   9.994   3.621   7.923 -0.7745  0.0589  0.0710
  325MOL0     C43742   9.981   3.499   7.943 -0.1607 -0.4215  0.1468
  325MOL0     O43743  10.071   3.419   7.990  0.4875  0.0178  0.0084
  325MOL0     C43744  10.208   3.437   7.983 -0.8924 -0.4084 -0.2450
  325MOL0     C43745  10.287   3.349   8.058  0.8847 -0.0710  0.3433
  325MOL0     C43746  10.422   3.366   8.068  0.0253 -0.2444 -0.1719
  325MOL0     C43747  10.487   3.470   7.994  0.1834 -0.0368 -1.0506
  325MOL0     O43748  10.623   3.491   8.003  0.1697  0.4591  0.2623
  325MOL0     C43749  10.706   3.389   8.054 -1.6111 -0.0321 -0.0790
  325MOL0     C43750  10.854   3.440   8.083 -0.1611  0.3126 -0.4624
  325MOL0     C43751  10.951   3.337   8.144  1.3680  1.0394 -0.5545
  325MOL0     C43752  11.097   3.375   8.134  0.7817 -1.1317  0.1077
  325MOL0     C43753  11.189   3.275   8.194 -0.3254  0.2241  0.3127
  325MOL0     C43754  11.334   3.327   8.181  0.4074 -1.1908 -0.4785
  325MOL0     C43755  11.440   3.233   8.245  0.8415 -0.5398  0.1679
  325MOL0     C43756  11.568   3.300   8.229 -0.4618 -0.4288  0.1487
  325MOL0     N43757  11.697   3.248   8.285  0.0719 -0.6132  0.5127
  325MOL0     C43758  11.782   3.309   8.381  0.4199  0.8166  0.6278
  325MOL0     C43759  11.899   3.232   8.377  0.5158  0.3693  0.1999
  325MOL0     C43760  11.995   3.231   8.493 -0.2030 -0.6760 -0.4524
  325MOL0     C43761  11.945   3.139   8.604  0.0142 -0.0968 -1.3025
  325MOL0     C43762  12.057   3.090   8.696 -0.3243 -0.0938  0.2406
  325MOL0     C43763  12.158   2.989   8.629  0.0605  0.0349  0.9960
  325MOL0     O43764  12.221   2.890   8.708  0.1665 -0.1262  0.6571
  325MOL0     C43765  12.304   2.940   8.809  0.1900  0.5704 -0.1004
  325MOL0     C43766  12.356   3.073   8.816  0.8879 -0.5596  1.1548
  325MOL0     C43767  12.437   3.114   8.920 -0.1049 -0.1490  0.1500
  325MOL0     C43768  12.477   3.027   9.029  0.7767 -0.6912  0.6008
  325MOL0     C43769  12.542   3.080   9.151  0.2080  0.0773 -0.2173
  325MOL0     O43770  12.515   3.017   9.266 -0.0087 -0.7181 -0.7507
  325MOL0     C43771  12.558   3.082   9.381 -0.5388  0.1282  0.3013
  325MOL0     C43772  12.532   3.215   9.408 -0.4322 -0.0323  0.8777
  325MOL0     C43773  12.596   3.295   9.503 -0.7551  0.5828 -1.1222
  325MOL0     C43774  12.697   3.238   9.592  1.0730  0.6737 -0.8261
  325MOL0     O43775  12.773   3.303   9.689  0.0220  0.6600 -0.2584
  325MOL0     C43776  12.757   3.445   9.713 -0.8713 -0.0867 -0.1447
  325MOL0     C43777  12.855   3.519   9.618 -0.3308  0.3365 -0.1144
  325MOL0     C43778  12.871   3.669   9.657 -0.5819 -0.5328 -0.5149
  325MOL0     C43779  12.944   3.752   9.565 -0.9579  0.0199 -0.5129
  325MOL0     C43780  12.940   3.898   9.620 -0.3744  0.2634  0.5882
  325MOL0     C43781  12.973   3.988   9.506 -0.2921  0.2307 -0.0864
  325MOL0     C43782  13.117   3.976   9.449 -0.2954 -0.4145 -0.0092
  325MOL0     C43783  13.166   4.088   9.357 -0.5344  0.5856 -0.4566
  325MOL0    Cl43784  13.347   4.072   9.331  0.0187 -0.0481  0.1546
  325MOL0     C43785  12.706   3.099   9.581 -0.1407 -0.0272  0.8513
  325MOL0     C43786  12.643   3.024   9.481  0.0866 -0.6829  0.9464
  325MOL0     O43787  12.613   3.179   9.136 -0.2677 -0.2397 -0.3731
  325MOL0     C43788  12.427   2.894   9.017 -0.6902 -0.1141  0.6973
  325MOL0     C43789  12.343   2.854   8.914  0.5190  0.5425 -0.2583
  325MOL0     N43790  11.890   3.138   8.277  0.4915 -0.7808  0.0041
  325MOL0     N43791  11.768   3.147   8.220  0.0942 -0.6871 -0.3364
  325MOL0     C43792  10.407   3.547   7.913  0.0409 -0.1139  0.0658
  325MOL0     C43793  10.270   3.533   7.909  0.3511  0.5994  0.4642
  325MOL0     C43794   9.837   3.456   7.936  0.1441  0.2038  0.2945
  325MOL0     C43795   9.796   3.361   8.038  0.4357 -0.0736  0.4277
  325MOL0     C43796   9.662   3.318   8.038  0.0795 -0.3110 -0.6755
  325MOL0     C43797   9.575   3.353   7.933 -0.3310 -0.0905  0.1942
  325MOL0     O43798   9.435   3.330   7.938  0.0643  0.2056  0.8294
  325MOL0     C43799   9.371   3.352   8.055  0.9871  0.1295 -0.0943
  325MOL0     C43800   9.224   3.310   8.052  0.2809 -0.2285 -0.1009
  325MOL0     C43801   9.154   3.353   8.187  0.4497 -0.4441 -0.5422
  325MOL0     C43802   9.060   3.243   8.235  0.5112  0.0881 -0.0112
  325MOL0     C43803   8.929   3.216   8.165 -0.3496 -0.6658 -0.1292
  325MOL0     C43804   8.820   3.213   8.116  0.1719 -0.5784 -0.3346
  325MOL0     C43805   9.624   3.430   7.830 -0.4153  0.2332  0.1040
  325MOL0     C43806   9.751   3.485   7.826  0.1932 -0.2144  0.7549
  325MOL0     C43807   9.785   3.578   7.708 -0.3238 -1.0266  0.1357
  325MOL0     H43808  10.243   3.263   8.109  1.0439  0.3540  1.2148
  325MOL0     H43809  10.478   3.287   8.115  2.7540  0.3785 -2.1153
  325MOL0     H43810  10.659   3.356   8.147 -1.2589  2.6470  1.1560
  325MOL0     H43811  10.719   3.300   7.993  4.1522 -0.3012  0.9397
  325MOL0     H43812  10.853   3.536   8.135  1.2463 -0.5834  1.3233
  325MOL0     H43813  10.890   3.452   7.980 -4.9721  0.1439 -2.4055
  325MOL0     H43814  10.939   3.238   8.098  2.4313 -0.8806  2.9408
  325MOL0     H43815  10.923   3.322   8.248  0.9187 -0.0538 -0.8137
  325MOL0     H43816  11.121   3.400   8.030  1.8147  1.6147  0.9269
  325MOL0     H43817  11.096   3.468   8.192  0.9420 -1.4156  0.5729
  325MOL0     H43818  11.165   3.259   8.300  0.4022 -1.6042  0.2366
  325MOL0     H43819  11.202   3.181   8.141 -0.8488  0.1508  0.3126
  325MOL0     H43820  11.360   3.358   8.079  0.2226  1.6390  0.2487
  325MOL0     H43821  11.333   3.425   8.230 -2.6265 -1.4819  0.2489
  325MOL0     H43822  11.448   3.137   8.194 -0.5890 -1.1485  1.0183
  325MOL0     H43823  11.421   3.225   8.353  0.2130  1.4014  0.2403
  325MOL0     H43824  11.586   3.322   8.123  1.3547 -0.3771  0.4410
  325MOL0     H43825  11.555   3.402   8.267  1.8799  0.6049 -1.5350
  325MOL0     H43826  11.758   3.386   8.453  3.4870  0.9647  1.6477
  325MOL0     H43827  12.089   3.195   8.451  0.7748  0.7294  0.4539
  325MOL0     H43828  12.006   3.333   8.533 -0.8710 -0.8008  0.0773
  325MOL0     H43829  11.868   3.197   8.654  1.5474 -0.6779  1.9575
  325MOL0     H43830  11.893   3.052   8.561 -1.6232 -1.2496  2.5897
  325MOL0     H43831  12.011   3.037   8.781 -1.2300  0.3640  0.0430
  325MOL0     H43832  12.112   3.173   8.740 -0.5050  0.6570 -0.9185
  325MOL0     H43833  12.240   3.031   8.570 -1.4123 -2.2981 -3.1548
  325MOL0     H43834  12.103   2.929   8.556  0.8883 -1.0586  1.2549
  325MOL0     H43835  12.338   3.152   8.743  1.4301 -1.8396 -0.4460
  325MOL0     H43836  12.470   3.217   8.920 -3.4844  1.0774  0.4917
  325MOL0     H43837  12.470   3.267   9.336  2.4065 -2.8499 -4.1074
  325MOL0     H43838  12.573   3.402   9.500 -1.7020  0.4470  0.2350
  325MOL0     H43839  12.656   3.486   9.707  0.4363  3.2522 -3.1417
  325MOL0     H43840  12.790   3.462   9.816  0.1550 -0.7646 -0.3383
  325MOL0     H43841  12.950   3.465   9.630 -0.5416 -0.5611 -2.1276
  325MOL0     H43842  12.821   3.508   9.514 -0.8477 -0.9125  0.1720
  325MOL0     H43843  12.769   3.705   9.676 -0.2614  0.6082 -0.8978
  325MOL0     H43844  12.925   3.667   9.752 -1.2392 -1.0148 -0.1398
  325MOL0     H43845  12.899   3.746   9.466  1.9410 -1.0799 -1.8705
  325MOL0     H43846  13.047   3.716   9.562 -1.1456 -0.4978 -0.7199
  325MOL0     H43847  13.006   3.911   9.707 -0.4783  1.6628  0.4888
  325MOL0     H43848  12.835   3.910   9.648 -0.8985 -0.6438 -0.9134
  325MOL0     H43849  12.910   3.972   9.418 -0.1665  1.3314 -0.3817
  325MOL0     H43850  12.955   4.092   9.533  1.7762  0.8297 -0.8409
  325MOL0     H43851  13.137   3.893   9.380  2.1926  1.2677 -1.4618
  325MOL0     H43852  13.184   3.982   9.535  0.4441 -0.2738 -0.5848
  325MOL0     H43853  13.121   4.076   9.258 -1.4142 -2.9394  0.2584
  325MOL0     H43854  13.128   4.180   9.402 -0.8575 -0.0185  0.5159
  325MOL0     H43855  12.777   3.048   9.646  2.5415 -1.2565 -2.7407
  325MOL0     H43856  12.658   2.919   9.461 -1.2358 -0.6323 -0.4941
  325MOL0     H43857  12.453   2.817   9.089 -1.8425 -1.6997 -0.5031
  325MOL0     H43858  12.301   2.754   8.903  1.0583  0.4127 -1.2714
  325MOL0     H43859  10.459   3.622   7.855  0.6696 -1.3771 -1.0603
  325MOL0     H43860  10.220   3.613   7.855 -2.2006 -0.5808  0.9202
  325MOL0     H43861   9.854   3.346   8.129 -0.5037 -1.9709  0.7800
  325MOL0     H43862   9.622   3.254   8.117 -1.1730  1.3964  0.1555
  325MOL0     H43863   9.374   3.460   8.068 -2.0741  0.3028  0.0811
  325MOL0     H43864   9.411   3.294   8.138  0.0393 -0.8196 -0.2651
  325MOL0     H43865   9.216   3.202   8.043  3.4542 -0.5496 -0.5118
  325MOL0     H43866   9.179   3.359   7.965  0.9131 -1.1162 -0.9438
  325MOL0     H43867   9.086   3.438   8.179 -0.8341 -1.1239  2.1446
  325MOL0     H43868   9.233   3.351   8.262 -0.3435 -1.1664  0.2935
  325MOL0     H43869   9.108   3.144   8.232 -1.1173 -0.7525  0.2547
  325MOL0     H43870   9.021   3.264   8.335 -0.8055  0.2947 -0.5509
  325MOL0     H43871   8.723   3.225   8.071  0.0011  0.4209  0.2780
  325MOL0     H43872   9.549   3.461   7.758  0.1142 -0.0973 -0.6035
  325MOL0     H43873   9.737   3.534   7.620 -3.5892  0.9297  0.7603
  325MOL0     H43874   9.741   3.675   7.734 -0.6223 -1.8439  3.0882
  325MOL0     H43875   9.892   3.598   7.696 -0.5931  1.8452  1.6121
  326MOL0     O43876   0.157   0.662   0.581 -0.1828 -0.2591  0.9463
  326MOL0     C43877   0.169   0.764   0.645 -0.7560  0.1100 -0.3495
  326MOL0     O43878   0.289   0.828   0.678  0.1757  0.1112  0.2031
  326MOL0     C43879   0.413   0.763   0.665  1.0261 -0.5681 -0.3147
  326MOL0     C43880   0.458   0.671   0.574  0.4290 -0.3715  0.8966
  326MOL0     C43881   0.590   0.639   0.560  1.5225  0.6785 -0.2745
  326MOL0     C43882   0.687   0.701   0.646  0.1837  0.1842 -0.1630
  326MOL0     O43883   0.809   0.646   0.630 -0.0138  0.2958  0.0628
  326MOL0     C43884   0.928   0.734   0.625  0.2604 -0.2622 -0.6826
  326MOL0     C43885   1.062   0.662   0.593  0.4872  0.5420  0.2872
  326MOL0     C43886   1.119   0.594   0.716 -0.6951  0.5116  0.2642
  326MOL0     C43887   1.256   0.521   0.710  0.2725 -0.8303  0.0023
  326MOL0     C43888   1.376   0.619   0.675  0.4223  1.2297  0.3291
  326MOL0     C43889   1.513   0.551   0.663  0.3092  0.7885 -0.7630
  326MOL0     C43890   1.581   0.526   0.805 -1.1496  0.8081  0.8178
  326MOL0     C43891   1.724   0.478   0.791 -0.1185  0.9619  0.8560
  326MOL0     N43892   1.790   0.440   0.911  0.4935 -0.6342 -0.0634
  326MOL0     C43893   1.888   0.351   0.928  0.4623 -0.5104 -0.2300
  326MOL0     C43894   1.920   0.361   1.060 -0.7908  0.1683 -0.3631
  326MOL0     C43895   2.048   0.306   1.120  0.0564 -0.3817 -0.6149
  326MOL0     C43896   2.160   0.419   1.141 -1.2877 -0.7841  0.6223
  326MOL0     C43897   2.194   0.518   1.034 -0.3974  0.3087  0.1067
  326MOL0     C43898   2.268   0.434   0.923  0.2195 -0.6099  0.7157
  326MOL0     O43899   2.327   0.515   0.826 -0.1930 -0.0502 -0.0614
  326MOL0     C43900   2.439   0.585   0.849  0.4892  0.0072  0.2305
  326MOL0     C43901   2.474   0.663   0.740  0.2244 -0.2226 -1.1640
  326MOL0     C43902   2.597   0.727   0.727 -0.3492  0.0612 -0.6305
  326MOL0     C43903   2.685   0.719   0.838  0.0432 -1.0055  0.4405
  326MOL0     C43904   2.821   0.769   0.833  0.1419  0.4418 -0.1866
  326MOL0     O43905   2.890   0.780   0.955 -0.1171  0.3047 -0.1193
  326MOL0     C43906   3.002   0.847   0.950 -0.3679 -0.8207  0.2263
  326MOL0     C43907   2.998   0.986   0.991 -1.2598  0.3311  0.4047
  326MOL0     C43908   3.115   1.065   0.996 -0.4051  0.6266 -0.2731
  326MOL0     C43909   3.241   1.010   0.960  1.2130 -0.2418  0.1443
  326MOL0     O43910   3.358   1.078   0.944  0.1391 -0.2415 -0.2077
  326MOL0     C43911   3.401   1.188   1.035  0.1640 -0.0193  0.3137
  326MOL0     C43912   3.549   1.223   1.001  0.0263 -0.6289  0.3144
  326MOL0     C43913   3.575   1.234   0.852  0.0428 -0.0250 -0.8114
  326MOL0     C43914   3.519   1.358   0.778  0.2755 -0.1135 -0.1839
  326MOL0     C43915   3.557   1.493   0.836 -0.2050  0.8250 -0.3049
  326MOL0     C43916   3.712   1.507   0.815 -0.2161  0.7232  0.3305
  326MOL0     C43917   3.759   1.528   0.671 -0.1243  0.6180  0.1896
  326MOL0     C43918   3.907   1.548   0.677 -0.1205 -0.6730  0.0198
  326MOL0    Cl43919   4.017   1.414   0.726  0.0017 -0.0503 -0.1854
  326MOL0     C43920   3.244   0.875   0.926 -0.4628 -0.6620  0.6898
  326MOL0     C43921   3.134   0.792   0.921  1.0629 -0.4714  0.3737
  326MOL0     O43922   2.858   0.803   0.722  0.0127 -0.0394 -0.7720
  326MOL0     C43923   2.645   0.652   0.947 -0.2915  0.0483 -0.6070
  326MOL0     C43924   2.528   0.578   0.956  0.0055  0.5072  0.1045
  326MOL0     N43925   1.838   0.452   1.127  0.3432  0.2656  0.4580
  326MOL0     N43926   1.771   0.505   1.024  1.1041 -0.8416 -0.3990
  326MOL0     C43927   0.641   0.796   0.747 -0.1452  0.3204  0.3314
  326MOL0     C43928   0.506   0.821   0.756  0.4915  0.5504 -0.0349
  326MOL0     C43929   0.053   0.829   0.703  1.0257 -0.1605  0.4890
  326MOL0     C43930  -0.018   0.754   0.795 -1.2409  0.4549 -0.0075
  326MOL0     C43931  -0.130   0.807   0.852 -0.5739  1.2709 -0.9990
  326MOL0     C43932  -0.176   0.940   0.825  0.5097  0.1438  0.2409
  326MOL0     O43933  -0.277   1.017   0.881 -0.0919  0.5070 -0.6208
  326MOL0     C43934  -0.359   0.966   0.984  0.2429  0.5617 -0.6553
  326MOL0     C43935  -0.477   1.061   1.013 -0.0484  0.2288 -0.5499
  326MOL0     C43936  -0.585   1.077   0.906 -0.6716 -0.2426  0.4293
  326MOL0     C43937  -0.672   0.954   0.901  0.3174 -0.0980  0.9918
  326MOL0     C43938  -0.779   1.000   0.818  0.1198 -0.1465  0.4213
  326MOL0     C43939  -0.862   1.041   0.736  0.1799  0.7085 -0.2427
  326MOL0     C43940  -0.097   1.014   0.738 -0.8413  0.9214  0.6696
  326MOL0     C43941   0.017   0.961   0.678 -0.7293  0.2042 -0.1519
  326MOL0     C43942   0.087   1.044   0.576  0.0280  0.5047 -0.7337
  326MOL0     H43943   0.400   0.629   0.492 -0.1142  1.2176  0.4426
  326MOL0     H43944   0.628   0.575   0.481 -1.6243  0.6534 -1.9568
  326MOL0     H43945   0.912   0.806   0.544 -0.2074  2.3294  1.5538
  326MOL0     H43946   0.931   0.789   0.719 -2.1613 -1.4312  0.1738
  326MOL0     H43947   1.132   0.736   0.552  1.4272 -0.3393  0.2597
  326MOL0     H43948   1.030   0.581   0.527  0.2775 -2.6584  3.9528
  326MOL0     H43949   1.041   0.533   0.762 -1.9799  3.1933  1.8755
  326MOL0     H43950   1.138   0.682   0.779  1.1229  1.1724 -1.1127
  326MOL0     H43951   1.287   0.471   0.803 -0.9544  0.9891  1.4793
  326MOL0     H43952   1.246   0.450   0.628 -0.2109 -1.9472  1.0089
  326MOL0     H43953   1.340   0.673   0.587 -3.3014  0.1685  1.0117
  326MOL0     H43954   1.384   0.694   0.754 -1.6421  0.8157  1.0005
  326MOL0     H43955   1.501   0.456   0.610  1.1917  0.9792 -1.3136
  326MOL0     H43956   1.590   0.606   0.609 -0.2536  0.3416 -2.0618
  326MOL0     H43957   1.520   0.461   0.868 -0.5848 -0.2617  0.2921
  326MOL0     H43958   1.589   0.622   0.856 -2.3354  1.6265 -0.4635
  326MOL0     H43959   1.709   0.387   0.732 -3.2006  2.2681 -0.6104
  326MOL0     H43960   1.783   0.547   0.730 -1.8115  0.5760 -1.3416
  326MOL0     H43961   1.928   0.298   0.841  0.2798 -1.5908  0.3264
  326MOL0     H43962   2.033   0.273   1.223  1.6474 -0.8817 -0.5184
  326MOL0     H43963   2.087   0.229   1.053  2.7674  0.0004  0.3815
  326MOL0     H43964   2.142   0.490   1.222  1.1808  0.0853  0.4955
  326MOL0     H43965   2.257   0.368   1.150  0.3855  1.3654 -2.8910
  326MOL0     H43966   2.260   0.600   1.064  0.1216 -0.0806  0.0366
  326MOL0     H43967   2.100   0.563   1.001 -0.5225  0.6332  0.8862
  326MOL0     H43968   2.195   0.378   0.864  2.8259 -1.8867 -1.5511
  326MOL0     H43969   2.340   0.357   0.953  0.8150 -1.8099 -3.2712
  326MOL0     H43970   2.410   0.683   0.655  0.3341  0.6231 -1.0501
  326MOL0     H43971   2.616   0.782   0.636  0.7707 -3.8490 -3.0323
  326MOL0     H43972   2.909   1.039   1.023 -0.1408  3.0145 -0.7000
  326MOL0     H43973   3.120   1.166   1.036 -0.2487  0.9361 -1.0608
  326MOL0     H43974   3.336   1.276   1.028 -2.4596 -1.8624 -0.0555
  326MOL0     H43975   3.399   1.145   1.135  1.8508 -0.1576  0.3172
  326MOL0     H43976   3.577   1.310   1.061 -2.9463 -0.0052  0.9462
  326MOL0     H43977   3.608   1.135   1.028  0.4247  0.8171  4.9277
  326MOL0     H43978   3.683   1.231   0.837  0.1569  2.5181 -0.9286
  326MOL0     H43979   3.536   1.144   0.803  1.5271 -0.0902 -1.9442
  326MOL0     H43980   3.411   1.363   0.792  0.2088  0.4373 -0.8542
  326MOL0     H43981   3.535   1.349   0.670 -0.3915  1.0592 -0.3974
  326MOL0     H43982   3.537   1.488   0.943 -0.4561  1.6023 -0.3076
  326MOL0     H43983   3.498   1.576   0.795  0.0173  0.6227 -1.0487
  326MOL0     H43984   3.736   1.590   0.881  0.8652 -0.9404  2.1186
  326MOL0     H43985   3.758   1.418   0.857 -0.3469  0.4970  0.0061
  326MOL0     H43986   3.717   1.616   0.622  1.4205  0.7691 -0.9689
  326MOL0     H43987   3.738   1.440   0.609 -0.3427 -0.7530  2.1219
  326MOL0     H43988   3.933   1.576   0.575 -0.6761  1.2284  0.3569
  326MOL0     H43989   3.924   1.631   0.746 -0.4409 -2.1841  2.0192
  326MOL0     H43990   3.345   0.841   0.908 -0.3978 -1.1136  1.8075
  326MOL0     H43991   3.141   0.686   0.900  0.0509 -0.1328 -1.9912
  326MOL0     H43992   2.694   0.652   1.044 -1.1756 -1.2567 -0.1315
  326MOL0     H43993   2.510   0.502   1.032  1.7218 -0.5097 -0.4305
  326MOL0     H43994   0.695   0.832   0.833 -0.0540  1.3574 -0.1306
  326MOL0     H43995   0.478   0.893   0.832  1.1210 -1.0912  1.8168
  326MOL0     H43996   0.018   0.653   0.814  0.7403  0.8211 -1.5159
  326MOL0     H43997  -0.191   0.755   0.925  0.6382  1.6527  0.3119
  326MOL0     H43998  -0.289   0.957   1.068 -0.3342  2.8340  0.1173
  326MOL0     H43999  -0.411   0.875   0.953 -3.3367  2.0224  0.5309
  326MOL0     H44000  -0.437   1.162   1.009  1.3529 -0.1717  1.5472
  326MOL0     H44001  -0.509   1.049   1.117 -1.3926  3.2002 -0.5110
  326MOL0     H44002  -0.534   1.088   0.809 -0.5123  0.4702  0.5941
  326MOL0     H44003  -0.628   1.174   0.931  2.1724  1.6600 -1.5051
  326MOL0     H44004  -0.613   0.868   0.865 -0.8371 -0.5137  0.0231
  326MOL0     H44005  -0.715   0.932   0.999 -1.5711  1.3850  0.5597
  326MOL0     H44006  -0.939   1.091   0.679 -2.6191 -1.1432  1.6290
  326MOL0     H44007  -0.121   1.117   0.713 -0.3226  0.5043 -1.7845
  326MOL0     H44008   0.010   1.065   0.501 -0.4641 -1.1346 -0.7287
  326MOL0     H44009   0.123   1.139   0.619 -1.6739 -0.1230  2.4406
  326MOL0     H44010   0.171   0.992   0.532 -1.9915 -2.4659 -1.3575
  327MOL0     O44011   9.509   8.225  11.387 -0.2080 -0.4097 -0.4985
  327MOL0     C44012   9.501   8.104  11.414  0.0876 -0.3441  0.1495
  327MOL0     O44013   9.409   8.013  11.369 -0.2668 -0.4852 -0.1052
  327MOL0     C44014   9.309   8.070  11.295  0.0536 -0.3174 -0.0323
  327MOL0     C44015   9.328   8.097  11.160 -0.0022  0.6400  0.4722
  327MOL0     C44016   9.222   8.145  11.076 -0.2365  0.0956 -0.1859
  327MOL0     C44017   9.089   8.174  11.137 -0.2989 -0.9776  0.3941
  327MOL0     O44018   8.971   8.219  11.074 -0.2855 -0.4026  0.0470
  327MOL0     C44019   8.932   8.161  10.950 -0.0550  0.1201 -0.2789
  327MOL0     C44020   8.780   8.164  10.921 -0.6578 -0.6027 -0.4616
  327MOL0     C44021   8.763   8.083  10.787 -0.2282 -0.0855 -0.0132
  327MOL0     C44022   8.626   8.119  10.718 -0.0535 -0.6758 -0.2188
  327MOL0     C44023   8.618   8.057  10.576 -0.6115  0.2766 -0.1532
  327MOL0     C44024   8.518   8.135  10.488 -0.5297  0.2856  0.1821
  327MOL0     C44025   8.372   8.136  10.547  0.1855  0.2212  0.1900
  327MOL0     C44026   8.287   8.239  10.481 -0.4439  0.8443  0.3196
  327MOL0     N44027   8.151   8.197  10.517  0.9162 -0.2112  0.2813
  327MOL0     C44028   8.084   8.227  10.636  0.0608 -0.1524 -0.0836
  327MOL0     C44029   7.974   8.149  10.634  0.1953  0.0216 -1.3634
  327MOL0     C44030   7.886   8.130  10.754 -0.2149  0.8210  0.0661
  327MOL0     C44031   7.769   8.022  10.746 -0.4648 -0.2237 -0.1344
  327MOL0     C44032   7.652   8.052  10.646 -0.6424  0.0467  0.4285
  327MOL0     C44033   7.622   7.943  10.545  0.8390 -0.2160  0.8016
  327MOL0     O44034   7.528   7.990  10.446 -0.5838 -0.5778 -0.2312
  327MOL0     C44035   7.407   8.032  10.500 -0.1410  0.6642  0.9985
  327MOL0     C44036   7.391   8.162  10.490 -0.1875  0.4817 -0.1596
  327MOL0     C44037   7.279   8.217  10.548  0.6865  0.4742 -0.0827
  327MOL0     C44038   7.177   8.142  10.609 -0.3501 -0.0144  0.1206
  327MOL0     C44039   7.067   8.205  10.677  0.2919 -1.7044  0.0995
  327MOL0     O44040   6.964   8.116  10.686  0.4560 -0.6146 -0.5437
  327MOL0     C44041   6.843   8.174  10.715  1.3196  0.7673 -0.1552
  327MOL0     C44042   6.788   8.198  10.838 -0.1854  0.2992  0.0277
  327MOL0     C44043   6.652   8.239  10.855  0.5544  0.4887 -0.0370
  327MOL0     C44044   6.574   8.267  10.740  0.5193  0.2494  0.0089
  327MOL0     O44045   6.441   8.305  10.762  0.6999 -0.0397 -0.4224
  327MOL0     C44046   6.368   8.363  10.657  0.0638 -0.0097  1.0376
  327MOL0     C44047   6.220   8.378  10.691 -0.0927  0.0907 -0.6699
  327MOL0     C44048   6.122   8.443  10.589  0.9371  0.0279  0.5608
  327MOL0     C44049   5.965   8.419  10.637  0.1093 -0.2419  0.3716
  327MOL0     C44050   5.852   8.489  10.567 -0.5330  0.5296 -0.2393
  327MOL0     C44051   5.712   8.443  10.609  1.0056  0.9111  0.6428
  327MOL0     C44052   5.689   8.396  10.757 -0.2338 -0.0752  0.1607
  327MOL0     C44053   5.542   8.363  10.775  0.5385 -1.3341 -0.6333
  327MOL0    Cl44054   5.516   8.279  10.935  0.1420  0.2195 -0.4810
  327MOL0     C44055   6.630   8.258  10.615 -0.4078 -0.9419 -0.8638
  327MOL0     C44056   6.764   8.205  10.604  0.0321  0.4711 -0.2425
  327MOL0     O44057   7.078   8.330  10.704  0.3496  0.3920 -0.2411
  327MOL0     C44058   7.194   8.005  10.607  0.7224 -0.1915 -0.2492
  327MOL0     C44059   7.308   7.947  10.550  0.3839 -0.2313  0.1989
  327MOL0     N44060   7.973   8.069  10.522  0.2314 -1.1522  0.7068
  327MOL0     N44061   8.083   8.098  10.453  0.2734 -0.1869 -0.4839
  327MOL0     C44062   9.080   8.150  11.272 -0.8333  1.0046 -0.5011
  327MOL0     C44063   9.185   8.092  11.349  0.1048 -1.1335 -0.1705
  327MOL0     C44064   9.615   8.052  11.493 -0.0594  1.1099 -0.1188
  327MOL0     C44065   9.642   7.913  11.467  0.1996 -0.8336  0.1596
  327MOL0     C44066   9.728   7.843  11.554  0.9918 -0.2995 -0.3007
  327MOL0     C44067   9.798   7.909  11.651  0.9226  0.0528  0.4574
  327MOL0     O44068   9.863   7.826  11.742  0.2734  0.1448 -0.2703
  327MOL0     C44069   9.948   7.878  11.840 -0.3094 -0.6463 -0.0691
  327MOL0     C44070  10.033   7.760  11.897 -0.1223  0.8386 -0.6797
  327MOL0     C44071  10.186   7.786  11.895 -0.0930  0.3227  0.0584
  327MOL0     C44072  10.227   7.751  11.744  0.5543  0.1404 -0.1068
  327MOL0     C44073  10.370   7.711  11.747 -0.4299  0.6745  0.5070
  327MOL0     C44074  10.471   7.649  11.719 -0.3891  1.4117 -0.5395
  327MOL0     C44075   9.780   8.043  11.670  0.2432  0.0403  0.1470
  327MOL0     C44076   9.688   8.120  11.594 -0.1242 -0.5878  0.4227
  327MOL0     C44077   9.661   8.258  11.627  0.5929  0.2276  0.0871
  327MOL0     H44078   9.421   8.070  11.110 -0.8683  0.9446 -1.3868
  327MOL0     H44079   9.229   8.164  10.970 -0.1750  2.2851  0.1617
  327MOL0     H44080   8.977   8.233  10.881  0.2364  2.1463  1.8844
  327MOL0     H44081   8.967   8.059  10.935  0.8373  0.1770  1.1861
  327MOL0     H44082   8.743   8.267  10.924 -0.2845 -0.4672 -0.3693
  327MOL0     H44083   8.733   8.117  11.008  3.1733  1.0011  2.7527
  327MOL0     H44084   8.767   7.977  10.814  1.1576  0.3907  1.8774
  327MOL0     H44085   8.842   8.103  10.714 -0.9353  0.8707 -0.5310
  327MOL0     H44086   8.539   8.090  10.777 -0.8752 -4.2538 -2.8567
  327MOL0     H44087   8.635   8.228  10.715  0.0724 -0.7046 -0.9600
  327MOL0     H44088   8.709   8.068  10.517 -1.3089 -1.8981 -1.7827
  327MOL0     H44089   8.592   7.951  10.585  0.9417 -0.2229 -1.2353
  327MOL0     H44090   8.551   8.239  10.475  0.2332  0.1110  0.6950
  327MOL0     H44091   8.525   8.096  10.386  3.5894  0.0567  0.3965
  327MOL0     H44092   8.381   8.168  10.651  0.2100  2.9580 -0.5656
  327MOL0     H44093   8.325   8.038  10.542  0.4945  0.0749  0.1026
  327MOL0     H44094   8.288   8.342  10.516 -1.0122  1.4024 -1.2386
  327MOL0     H44095   8.301   8.235  10.373 -1.7156  1.6237  0.0997
  327MOL0     H44096   8.115   8.279  10.726  1.5181 -2.8180  1.0816
  327MOL0     H44097   7.940   8.087  10.839  0.3656 -2.1388 -1.6564
  327MOL0     H44098   7.846   8.228  10.784  1.3230  1.9168 -1.2828
  327MOL0     H44099   7.818   7.925  10.737  0.0764 -0.0528  0.8755
  327MOL0     H44100   7.731   8.013  10.848  0.6228 -3.0740  0.1077
  327MOL0     H44101   7.669   8.140  10.583 -0.1396 -0.3137  0.0456
  327MOL0     H44102   7.562   8.074  10.704 -0.1724  2.2345  0.4320
  327MOL0     H44103   7.577   7.864  10.606  1.3130 -0.8952  0.3006
  327MOL0     H44104   7.712   7.902  10.498  1.7565  1.3865  1.1159
  327MOL0     H44105   7.474   8.222  10.454  0.9963 -1.5009 -0.9547
  327MOL0     H44106   7.267   8.324  10.541  0.1126  0.3168 -2.4638
  327MOL0     H44107   6.849   8.182  10.926  0.4106  0.2251 -0.3962
  327MOL0     H44108   6.589   8.245  10.943 -0.2519  0.1822 -0.5774
  327MOL0     H44109   6.406   8.461  10.626 -2.0979  0.2372 -1.1300
  327MOL0     H44110   6.373   8.301  10.567 -3.5393  3.3402 -1.8460
  327MOL0     H44111   6.189   8.282  10.732 -1.8471 -0.2625 -2.6746
  327MOL0     H44112   6.204   8.448  10.774  2.6830  0.4123 -0.2922
  327MOL0     H44113   6.130   8.552  10.584 -2.6435  0.4038  0.4062
  327MOL0     H44114   6.142   8.392  10.494 -1.3365 -0.2284  0.1654
  327MOL0     H44115   5.948   8.450  10.740 -2.2180 -1.4555  0.4206
  327MOL0     H44116   5.942   8.312  10.629 -3.9510  0.4542  0.4169
  327MOL0     H44117   5.864   8.463  10.461  3.0686  3.0050 -0.6321
  327MOL0     H44118   5.863   8.598  10.570 -4.2106  0.9784  0.7177
  327MOL0     H44119   5.647   8.529  10.592  2.1841  1.8865  0.9418
  327MOL0     H44120   5.675   8.369  10.537 -3.4087  3.2381  0.1795
  327MOL0     H44121   5.714   8.471  10.833  0.8128 -1.6767  1.4653
  327MOL0     H44122   5.757   8.315  10.781  0.4530  0.7087  0.9372
  327MOL0     H44123   5.472   8.447  10.770  0.4371 -1.4799 -1.9272
  327MOL0     H44124   5.508   8.296  10.696 -0.4386  0.8474 -2.1620
  327MOL0     H44125   6.573   8.287  10.527 -0.1079  3.2752  0.1294
  327MOL0     H44126   6.781   8.184  10.499 -4.2449  1.7177 -1.3973
  327MOL0     H44127   7.113   7.936  10.628 -0.0676 -1.0370 -5.0823
  327MOL0     H44128   7.309   7.840  10.535 -3.2176 -0.0617 -2.3887
  327MOL0     H44129   8.987   8.156  11.328  0.2010 -1.5022  1.6519
  327MOL0     H44130   9.154   8.061  11.448  2.4750  0.2171  1.0917
  327MOL0     H44131   9.592   7.861  11.386 -0.4587 -1.0717  0.7147
  327MOL0     H44132   9.742   7.736  11.540 -0.7072 -0.2504 -3.3294
  327MOL0     H44133   9.894   7.928  11.921  2.2088  0.3234  1.1184
  327MOL0     H44134  10.011   7.958  11.799  2.2092 -3.0829 -1.2440
  327MOL0     H44135  10.008   7.662  11.853 -0.0393 -0.1918  1.4364
  327MOL0     H44136  10.016   7.759  12.005  1.8220  2.2608 -0.3012
  327MOL0     H44137  10.243   7.709  11.947 -1.1922 -0.3718  0.2489
  327MOL0     H44138  10.223   7.886  11.919  0.0084 -0.3545  3.0914
  327MOL0     H44139  10.180   7.657  11.711  0.1110  0.6751 -1.0290
  327MOL0     H44140  10.197   7.831  11.675  0.8867  0.7653  0.4714
  327MOL0     H44141  10.549   7.586  11.683 -1.1973  1.6294 -2.8798
  327MOL0     H44142   9.830   8.098  11.749 -1.8143  1.3165  0.6336
  327MOL0     H44143   9.708   8.270  11.725 -1.3817 -2.2033  1.4308
  327MOL0     H44144   9.703   8.324  11.551  0.8174  1.7183  1.4422
  327MOL0     H44145   9.554   8.276  11.636  0.6400  0.8521 -0.5465
  328MOL0     O44146  10.732   9.261   2.960  0.7255  0.5697  0.1868
  328MOL0     C44147  10.649   9.347   2.966 -0.7348 -0.7623  0.7586
  328MOL0     O44148  10.673   9.477   2.936  0.8767  0.4060 -0.0153
  328MOL0     C44149  10.790   9.544   2.921 -0.2628  0.2648  0.5757
  328MOL0     C44150  10.909   9.479   2.893 -0.6536  0.9227 -0.0113
  328MOL0     C44151  11.022   9.554   2.845 -0.1810  0.0542 -0.2746
  328MOL0     C44152  11.023   9.695   2.859  0.2277 -0.2079  0.7317
  328MOL0     O44153  11.138   9.764   2.825 -0.4274  0.3310 -0.0322
  328MOL0     C44154  11.122   9.863   2.720 -0.0256 -0.6187  0.3319
  328MOL0     C44155  11.076   9.799   2.586  0.0328 -0.6848  0.2841
  328MOL0     C44156  11.174   9.695   2.535 -0.1024 -0.8840 -0.0784
  328MOL0     C44157  11.122   9.606   2.413  0.2841  0.4247  0.2443
  328MOL0     C44158  11.195   9.471   2.399  0.1012  0.3211  0.2130
  328MOL0     C44159  11.350   9.487   2.378  0.6300 -0.0322  0.3821
  328MOL0     C44160  11.421   9.356   2.344  0.0634  0.1989 -0.9299
  328MOL0     C44161  11.559   9.392   2.272  0.0232 -0.0241 -0.7299
  328MOL0     N44162  11.611   9.253   2.266 -0.9362 -0.6091  0.2600
  328MOL0     C44163  11.741   9.229   2.286 -0.2089  0.6093 -0.0158
  328MOL0     C44164  11.755   9.107   2.228 -0.2912  0.0819 -0.1786
  328MOL0     C44165  11.886   9.025   2.220  0.0998 -0.1888  0.5321
  328MOL0     C44166  12.002   9.091   2.139  0.7478  0.8219  0.4736
  328MOL0     C44167  12.111   8.978   2.104  0.5077  0.1187 -0.1956
  328MOL0     C44168  12.204   8.944   2.223  0.4734 -0.3009 -0.0685
  328MOL0     O44169  12.269   9.053   2.278 -0.0597  0.4148 -0.3654
  328MOL0     C44170  12.390   9.101   2.218  0.5749  0.6676  0.1646
  328MOL0     C44171  12.456   9.028   2.118 -0.5355  0.4054  0.1054
  328MOL0     C44172  12.578   9.087   2.063  0.5131  0.0472 -0.1018
  328MOL0     C44173  12.625   9.210   2.099  0.5480 -0.1133  0.4908
  328MOL0     C44174  12.745   9.265   2.040  0.4655 -0.2833  0.1682
  328MOL0     O44175  12.785   9.393   2.086  0.4634 -0.0968  0.6278
  328MOL0     C44176  12.906   9.437   2.044  0.5648 -0.7548 -0.4457
  328MOL0     C44177  12.999   9.460   2.132 -0.3349 -0.1311  0.3669
  328MOL0     C44178  13.128   9.506   2.094  0.6050  0.2627 -0.7968
  328MOL0     C44179  13.150   9.513   1.958 -0.4131 -0.1370  0.5166
  328MOL0     O44180  13.274   9.519   1.899 -0.0555  0.1781  0.4512
  328MOL0     C44181  13.397   9.559   1.962  1.2928  0.0638  0.5212
  328MOL0     C44182  13.492   9.440   1.956 -0.7620 -0.3964 -0.1509
  328MOL0     C44183  13.515   9.400   1.810 -0.1698 -0.2307  0.6292
  328MOL0     C44184  13.613   9.283   1.793  0.5784 -0.9998 -1.2214
  328MOL0     C44185  13.652   9.250   1.648  0.0688  0.3107  0.4070
  328MOL0     C44186  13.784   9.169   1.630 -0.1612  0.2786 -0.3950
  328MOL0     C44187  13.795   9.052   1.726 -0.0576 -0.0498  0.5568
  328MOL0     C44188  13.682   8.948   1.714 -0.3523  0.2546  0.1985
  328MOL0    Cl44189  13.636   8.906   1.545 -0.3175  0.3672  0.0357
  328MOL0     C44190  13.048   9.493   1.869  0.2349 -0.1461 -0.4575
  328MOL0     C44191  12.921   9.460   1.909  0.1888  0.8349 -0.0475
  328MOL0     O44192  12.810   9.184   1.976  0.3941  0.2635 -0.8991
  328MOL0     C44193  12.556   9.275   2.199 -0.5976  0.1587  0.6929
  328MOL0     C44194  12.439   9.225   2.254 -0.0651  0.0716  0.1577
  328MOL0     N44195  11.631   9.063   2.184 -0.5977  0.2328 -0.7179
  328MOL0     N44196  11.541   9.156   2.206 -0.4706  0.2293  0.2471
  328MOL0     C44197  10.898   9.758   2.905 -0.3679 -1.0181  0.8420
  328MOL0     C44198  10.792   9.683   2.941 -0.9793  0.3563  0.3767
  328MOL0     C44199  10.512   9.313   3.020  0.1348 -0.1728  0.7738
  328MOL0     C44200  10.479   9.181   3.014  0.1146  0.3163 -0.2236
  328MOL0     C44201  10.349   9.133   3.051 -0.2744 -0.3021 -0.9370
  328MOL0     C44202  10.257   9.225   3.116 -0.7897  0.0671  0.3840
  328MOL0     O44203  10.149   9.183   3.175 -1.1570 -0.1052 -0.8574
  328MOL0     C44204  10.030   9.167   3.085 -0.5976 -0.5465 -0.7948
  328MOL0     C44205   9.996   9.017   3.073 -0.4518  0.8131  0.1309
  328MOL0     C44206   9.961   8.957   3.207 -0.0947 -0.4623 -0.1362
  328MOL0     C44207   9.911   8.809   3.195  0.5604 -1.2524 -0.5901
  328MOL0     C44208   9.879   8.772   3.332 -0.3543  0.4455  0.8959
  328MOL0     C44209   9.852   8.735   3.439 -0.6231  0.8193 -0.1994
  328MOL0     C44210  10.293   9.349   3.134 -0.4248 -0.4310  0.6106
  328MOL0     C44211  10.418   9.395   3.094 -0.2971  0.4241 -0.0378
  328MOL0     C44212  10.458   9.534   3.123  0.3585  0.5632 -0.8940
  328MOL0     H44213  10.913   9.373   2.867 -0.5353  1.4670 -2.4484
  328MOL0     H44214  11.111   9.499   2.816  0.5779  1.1632 -0.1214
  328MOL0     H44215  11.044   9.933   2.751  1.0251  0.2883  0.9941
  328MOL0     H44216  11.212   9.925   2.712 -0.0937 -0.0782  3.0142
  328MOL0     H44217  11.048   9.885   2.526  1.2508  2.1167  3.4080
  328MOL0     H44218  10.980   9.754   2.611 -0.4444  0.1401 -0.0465
  328MOL0     H44219  11.203   9.634   2.621 -1.9472 -3.7664 -1.3645
  328MOL0     H44220  11.262   9.750   2.500 -1.2005  2.4197  1.9513
  328MOL0     H44221  11.014   9.591   2.420  0.2198  1.2623  1.3013
  328MOL0     H44222  11.143   9.666   2.323  0.0393  0.0151 -0.0910
  328MOL0     H44223  11.184   9.420   2.496 -2.4089 -1.0795 -0.6984
  328MOL0     H44224  11.145   9.413   2.321  1.7539  0.1608 -0.7549
  328MOL0     H44225  11.380   9.560   2.303  0.3094  0.9560  1.1899
  328MOL0     H44226  11.377   9.521   2.478  0.3058  2.4165 -0.3026
  328MOL0     H44227  11.364   9.312   2.262 -3.4057  3.2905 -0.4417
  328MOL0     H44228  11.422   9.288   2.430 -2.5987 -0.5158 -1.3760
  328MOL0     H44229  11.549   9.432   2.171  0.0867  2.5539  0.2298
  328MOL0     H44230  11.622   9.463   2.326  0.4454 -1.6239  0.9747
  328MOL0     H44231  11.820   9.288   2.331 -1.3495  0.5799  2.1493
  328MOL0     H44232  11.926   9.021   2.322 -1.2468 -0.7485  1.0565
  328MOL0     H44233  11.870   8.921   2.189  0.4906  0.3890 -1.7441
  328MOL0     H44234  11.964   9.123   2.042 -0.4228 -3.9052 -0.8635
  328MOL0     H44235  12.050   9.172   2.195  0.5200  0.7887  0.7168
  328MOL0     H44236  12.181   9.015   2.029  1.9444 -0.4169  0.8298
  328MOL0     H44237  12.065   8.892   2.056 -0.7737  1.0853 -0.7696
  328MOL0     H44238  12.271   8.861   2.199 -0.8940 -2.2511  2.3398
  328MOL0     H44239  12.137   8.908   2.302 -1.6434  1.6070 -0.8790
  328MOL0     H44240  12.432   8.936   2.066  2.8686 -0.7855  0.4101
  328MOL0     H44241  12.626   9.029   1.984  2.5411  1.2319  0.1840
  328MOL0     H44242  12.981   9.430   2.235 -3.2932 -4.4868 -1.1271
  328MOL0     H44243  13.203   9.524   2.170 -0.2791 -2.0610  0.7417
  328MOL0     H44244  13.436   9.653   1.922 -1.4657  0.4357 -1.6267
  328MOL0     H44245  13.368   9.577   2.066 -1.3492  3.2925 -0.5817
  328MOL0     H44246  13.586   9.477   1.997 -1.2008  1.2093 -0.5163
  328MOL0     H44247  13.466   9.353   2.017  0.0127 -0.6158 -0.1230
  328MOL0     H44248  13.424   9.364   1.762  1.9086 -0.7157 -3.4579
  328MOL0     H44249  13.555   9.487   1.757  0.0570 -0.8596 -0.2540
  328MOL0     H44250  13.591   9.194   1.852  2.0910 -2.5396 -2.8687
  328MOL0     H44251  13.702   9.326   1.841  0.1459 -0.9748 -0.4236
  328MOL0     H44252  13.657   9.345   1.595 -3.0141  0.0759 -0.5104
  328MOL0     H44253  13.569   9.196   1.600 -0.3137 -0.4588  1.8737
  328MOL0     H44254  13.783   9.131   1.528  0.2668  1.7726 -0.9839
  328MOL0     H44255  13.866   9.239   1.648  0.5645 -0.0309 -2.2717
  328MOL0     H44256  13.785   9.084   1.830 -0.5436  0.1750  0.4446
  328MOL0     H44257  13.891   9.002   1.710 -1.7556 -3.1438 -0.9864
  328MOL0     H44258  13.717   8.860   1.768 -1.7628  1.0367  2.4828
  328MOL0     H44259  13.589   8.978   1.762 -1.7509 -1.4381 -1.2954
  328MOL0     H44260  13.073   9.508   1.764  2.7442  4.2866  0.5305
  328MOL0     H44261  12.839   9.440   1.841 -0.1212  2.7147 -0.2904
  328MOL0     H44262  12.597   9.368   2.237 -2.1103  0.3102  2.0443
  328MOL0     H44263  12.395   9.294   2.325  2.0884  0.4579  1.2072
  328MOL0     H44264  10.900   9.866   2.912  4.5956 -0.8545  0.2965
  328MOL0     H44265  10.703   9.739   2.971 -1.3526  1.1950 -2.1024
  328MOL0     H44266  10.553   9.112   2.974  2.5671  3.4914 -1.5860
  328MOL0     H44267  10.323   9.027   3.045 -1.1871 -0.0177 -2.4909
  328MOL0     H44268  10.062   9.203   2.987  3.0488  2.0305  1.0901
  328MOL0     H44269   9.940   9.213   3.125 -0.7715 -3.6289  2.9439
  328MOL0     H44270  10.075   8.958   3.024  0.4443  1.3906  0.8651
  328MOL0     H44271   9.911   8.996   3.007 -0.1993 -1.5553  0.4529
  328MOL0     H44272   9.894   9.011   3.275  2.1432  0.2336  1.6497
  328MOL0     H44273  10.051   8.947   3.269  0.3052 -2.5756 -0.9688
  328MOL0     H44274   9.819   8.801   3.136  0.2240 -1.5909 -0.0235
  328MOL0     H44275   9.985   8.739   3.155  2.7823 -0.1924  1.4783
  328MOL0     H44276   9.821   8.702   3.536  0.1741  0.8326  0.0643
  328MOL0     H44277  10.230   9.414   3.194  1.1525 -0.3203  2.2257
  328MOL0     H44278  10.407   9.562   3.216 -0.0028 -2.3629 -0.1359
  328MOL0     H44279  10.564   9.551   3.141 -0.1986  1.3738  2.2510
  328MOL0     H44280  10.412   9.597   3.046 -1.1205 -1.9979 -2.2508
  329MOL0     O44281   3.475   8.295   8.966 -0.1072 -0.3615 -0.6296
  329MOL0     C44282   3.440   8.180   8.995 -0.5075 -0.1472  0.2982
  329MOL0     O44283   3.534   8.083   9.024  0.5270 -0.4358  0.3135
  329MOL0     C44284   3.668   8.095   9.031  0.0934  0.2697  0.1499
  329MOL0     C44285   3.737   8.206   9.085 -0.3414  1.0727 -0.2407
  329MOL0     C44286   3.876   8.200   9.102  0.1043  0.0812 -0.8147
  329MOL0     C44287   3.945   8.083   9.070  0.4981  0.1937 -0.4635
  329MOL0     O44288   4.076   8.078   9.109  0.4442 -0.3796 -0.2508
  329MOL0     C44289   4.144   7.950   9.099 -0.0645  0.0322  0.1790
  329MOL0     C44290   4.252   7.947   9.197 -0.2783  0.2731 -0.1065
  329MOL0     C44291   4.361   8.043   9.156 -1.1402  0.3862  0.4300
  329MOL0     C44292   4.471   8.046   9.263 -0.3041  0.4772 -0.1478
  329MOL0     C44293   4.529   7.908   9.312  0.0940 -0.0341 -0.1519
  329MOL0     C44294   4.628   7.928   9.430 -0.8002 -0.2493  0.9374
  329MOL0     C44295   4.654   7.796   9.487  0.3933 -0.3384  0.6481
  329MOL0     C44296   4.773   7.792   9.588  0.0889 -0.1886 -0.2876
  329MOL0     N44297   4.902   7.797   9.524 -0.3110 -0.2888 -0.3368
  329MOL0     C44298   4.928   7.796   9.390 -0.4298  0.3195 -0.3020
  329MOL0     C44299   5.062   7.765   9.377 -0.0128 -0.1435  0.7888
  329MOL0     C44300   5.129   7.757   9.254 -0.5121  0.9210  0.6555
  329MOL0     C44301   5.251   7.660   9.264  0.6071 -0.0819  0.0614
  329MOL0     C44302   5.385   7.714   9.320 -0.0353 -0.2366 -0.4879
  329MOL0     C44303   5.475   7.594   9.335  0.3712 -0.0929  0.2256
  329MOL0     O44304   5.590   7.647   9.415 -0.1716  0.1154 -0.1246
  329MOL0     C44305   5.721   7.627   9.372 -0.3665 -0.6430 -0.0905
  329MOL0     C44306   5.758   7.609   9.238 -0.1980  0.5987  0.3943
  329MOL0     C44307   5.899   7.596   9.204 -0.4199 -0.5911  0.4180
  329MOL0     C44308   6.002   7.584   9.304 -0.1264  0.7943  0.1598
  329MOL0     C44309   6.145   7.570   9.276  0.3250  0.1969  0.2040
  329MOL0     O44310   6.224   7.551   9.380 -0.1163  0.0937 -0.6001
  329MOL0     C44311   6.320   7.446   9.365  0.3662 -0.0068 -0.5363
  329MOL0     C44312   6.315   7.324   9.300  0.3891  0.6776  0.5297
  329MOL0     C44313   6.421   7.224   9.314 -0.5534  0.1707 -0.3151
  329MOL0     C44314   6.534   7.259   9.385 -0.6702 -0.6027 -0.2814
  329MOL0     O44315   6.623   7.157   9.390  0.2471 -0.1415 -0.2908
  329MOL0     C44316   6.738   7.158   9.471 -0.3837 -0.9064 -0.1960
  329MOL0     C44317   6.812   7.026   9.462 -0.2792  0.6757 -0.0021
  329MOL0     C44318   6.928   7.031   9.561 -0.2982 -0.4632  0.1842
  329MOL0     C44319   7.017   6.908   9.532  0.2113 -0.7817  1.1051
  329MOL0     C44320   7.149   6.936   9.596 -0.1810  0.8254  0.3394
  329MOL0     C44321   7.248   6.817   9.584  1.2836 -0.2103  0.3500
  329MOL0     C44322   7.375   6.860   9.654 -0.5588 -0.8406 -0.3983
  329MOL0     C44323   7.477   6.743   9.644 -0.3955 -0.4060  0.1705
  329MOL0    Cl44324   7.507   6.701   9.473  0.0318 -0.3082 -0.2047
  329MOL0     C44325   6.542   7.392   9.439 -1.1895  0.4489  0.0926
  329MOL0     C44326   6.443   7.485   9.422 -0.3968 -0.1218 -0.4092
  329MOL0     O44327   6.175   7.556   9.158  0.3599 -0.2465  0.2812
  329MOL0     C44328   5.960   7.599   9.436 -0.1223 -0.1757 -0.3368
  329MOL0     C44329   5.824   7.624   9.462  0.0357  0.0763 -0.6834
  329MOL0     N44330   5.116   7.760   9.502  0.6851 -0.1545 -0.3493
  329MOL0     N44331   5.019   7.777   9.592  0.2605  0.3714 -0.5289
  329MOL0     C44332   3.877   7.978   9.016  0.0694 -1.3006  0.3421
  329MOL0     C44333   3.743   7.988   8.994 -1.1207  0.8994  0.8450
  329MOL0     C44334   3.293   8.154   9.002  0.4200 -0.1638  0.3374
  329MOL0     C44335   3.247   8.077   9.112  0.2356 -0.9503  0.1423
  329MOL0     C44336   3.111   8.057   9.134  0.6164 -0.8345  0.0424
  329MOL0     C44337   3.010   8.130   9.056 -0.3518  0.3801  0.1935
  329MOL0     O44338   2.874   8.113   9.059 -0.4536 -0.2780  0.0005
  329MOL0     C44339   2.817   8.015   9.133 -0.6962  0.2208  0.1429
  329MOL0     C44340   2.660   8.032   9.108 -1.0574  0.7662  0.1809
  329MOL0     C44341   2.569   7.952   9.206 -0.2789  0.7024 -1.1807
  329MOL0     C44342   2.416   7.996   9.199  0.3941  0.0061 -0.5490
  329MOL0     C44343   2.346   7.902   9.113 -0.8990 -0.0272 -0.2246
  329MOL0     C44344   2.289   7.811   9.058 -0.5409 -0.0402  0.2751
  329MOL0     C44345   3.060   8.206   8.946 -0.5856  0.2829  0.3854
  329MOL0     C44346   3.201   8.223   8.919  0.3758 -0.2137  0.0137
  329MOL0     C44347   3.240   8.313   8.809  1.0161 -0.6443  0.1935
  329MOL0     H44348   3.684   8.296   9.113  1.7026  2.6774 -1.2476
  329MOL0     H44349   3.927   8.280   9.154  0.7930 -1.2123  0.6152
  329MOL0     H44350   4.082   7.861   9.111  0.4586 -1.1208 -4.0569
  329MOL0     H44351   4.179   7.939   8.995 -0.2219 -1.6322  0.2705
  329MOL0     H44352   4.292   7.848   9.175  3.9049  1.8434 -0.4170
  329MOL0     H44353   4.217   7.952   9.301 -0.3429  1.1894 -0.1632
  329MOL0     H44354   4.312   8.140   9.152  1.6809  2.1520  3.6716
  329MOL0     H44355   4.410   8.018   9.062  0.2948 -0.7289  1.4355
  329MOL0     H44356   4.548   8.118   9.234  0.4811 -0.5300 -0.6340
  329MOL0     H44357   4.437   8.106   9.348  1.1172  0.6867  0.3007
  329MOL0     H44358   4.443   7.849   9.344 -1.8433  2.0582 -1.2352
  329MOL0     H44359   4.587   7.864   9.230 -2.0041  0.8637 -2.2243
  329MOL0     H44360   4.718   7.968   9.383 -2.0940  0.0818 -1.4345
  329MOL0     H44361   4.587   7.997   9.504  1.4032  2.9749 -0.5958
  329MOL0     H44362   4.662   7.716   9.413 -1.0738 -0.3075  0.4196
  329MOL0     H44363   4.555   7.776   9.529 -0.4222 -0.0354 -1.0887
  329MOL0     H44364   4.771   7.867   9.668  0.8779  0.9311 -1.2777
  329MOL0     H44365   4.786   7.697   9.640 -0.5670 -0.3850 -0.4739
  329MOL0     H44366   4.870   7.816   9.300  1.1963  1.8128 -1.0817
  329MOL0     H44367   5.069   7.726   9.168  1.9459 -0.2302 -0.7383
  329MOL0     H44368   5.164   7.858   9.235 -1.6595  0.5522 -5.7850
  329MOL0     H44369   5.204   7.581   9.323 -1.7929  1.5623  0.5166
  329MOL0     H44370   5.272   7.617   9.166  4.6364 -1.3673  1.3323
  329MOL0     H44371   5.366   7.761   9.417  1.0263  0.4995 -0.6113
  329MOL0     H44372   5.414   7.802   9.260 -1.8495  1.2615  0.7135
  329MOL0     H44373   5.492   7.542   9.241 -3.4615  0.0454 -0.7343
  329MOL0     H44374   5.423   7.516   9.392 -0.4648 -1.8360 -2.7349
  329MOL0     H44375   5.693   7.613   9.152  3.9351  1.3025 -3.0773
  329MOL0     H44376   5.920   7.589   9.098 -3.2559  0.8506 -0.3287
  329MOL0     H44377   6.218   7.301   9.258 -0.7653  3.9828  1.1433
  329MOL0     H44378   6.413   7.124   9.275 -0.4710 -1.4026  3.3140
  329MOL0     H44379   6.794   7.248   9.445  0.9318 -0.4636  3.6610
  329MOL0     H44380   6.712   7.160   9.577  0.4819  1.7438  0.0370
  329MOL0     H44381   6.748   6.940   9.484  1.1160 -0.5787 -0.6446
  329MOL0     H44382   6.863   7.024   9.365 -0.8064 -3.2228 -0.3654
  329MOL0     H44383   6.984   7.122   9.541 -1.8184  1.1179  2.6035
  329MOL0     H44384   6.885   7.030   9.662  2.4418 -1.6437  1.4496
  329MOL0     H44385   7.033   6.894   9.425  1.3115  0.7782  1.0307
  329MOL0     H44386   6.957   6.825   9.569 -0.4633 -1.2297 -0.9150
  329MOL0     H44387   7.134   6.961   9.701 -0.7278 -1.6438  0.8966
  329MOL0     H44388   7.190   7.027   9.550 -2.5905  1.7125 -0.1995
  329MOL0     H44389   7.190   6.733   9.623 -0.6204  0.4496 -0.8916
  329MOL0     H44390   7.270   6.800   9.479 -1.2341 -1.5849 -0.0369
  329MOL0     H44391   7.357   6.874   9.761  3.9888 -1.9774  0.7309
  329MOL0     H44392   7.420   6.950   9.611 -1.4658 -0.7410 -1.1762
  329MOL0     H44393   7.576   6.769   9.683  0.0657  1.3326 -1.9260
  329MOL0     H44394   7.426   6.656   9.684 -1.0353 -1.1351 -2.0678
  329MOL0     H44395   6.630   7.417   9.498 -1.2587 -1.2053  0.9730
  329MOL0     H44396   6.438   7.581   9.471 -2.0671  0.9834 -2.5646
  329MOL0     H44397   6.030   7.607   9.519 -1.9899  1.1409  1.2043
  329MOL0     H44398   5.809   7.648   9.567  1.9426  0.0747 -0.3692
  329MOL0     H44399   3.921   7.881   8.998 -2.1248 -2.6887  1.8845
  329MOL0     H44400   3.694   7.901   8.951  2.2419 -1.1392  0.7635
  329MOL0     H44401   3.318   8.016   9.168 -0.3917 -0.9985  0.9018
  329MOL0     H44402   3.084   7.988   9.213 -2.3999 -0.5646 -0.6503
  329MOL0     H44403   2.831   8.037   9.240 -0.4074 -0.5433  0.2643
  329MOL0     H44404   2.849   7.913   9.112  1.9726  0.4272  2.5243
  329MOL0     H44405   2.639   8.002   9.005  2.0417 -0.8707 -0.0622
  329MOL0     H44406   2.629   8.137   9.115  1.2892  1.3840  2.5300
  329MOL0     H44407   2.591   7.982   9.309  0.0807 -1.3423 -0.6065
  329MOL0     H44408   2.581   7.845   9.186 -2.0157  0.5590 -1.5795
  329MOL0     H44409   2.366   8.001   9.297 -1.2059 -0.5729 -1.2962
  329MOL0     H44410   2.397   8.100   9.169 -0.3560  0.3285  0.9497
  329MOL0     H44411   2.228   7.732   9.019 -0.1817 -0.9054  1.4134
  329MOL0     H44412   2.985   8.251   8.882 -1.7992 -0.5419  1.1922
  329MOL0     H44413   3.157   8.333   8.741  2.8671  1.1494 -1.7068
  329MOL0     H44414   3.275   8.407   8.853  0.9474 -0.2767 -0.5148
  329MOL0     H44415   3.318   8.266   8.749  0.4205 -3.3290  1.3656
  330MOL0     O44416   5.699  10.962   4.495 -0.0526  0.3344  0.3480
  330MOL0     C44417   5.599  11.027   4.477  0.2038  0.7679  0.4029
  330MOL0     O44418   5.578  11.159   4.512  0.3355 -0.3480  0.1616
  330MOL0     C44419   5.678  11.233   4.575  0.0812  0.5224 -0.4052
  330MOL0     C44420   5.783  11.179   4.653  0.2140 -0.2502 -0.6959
  330MOL0     C44421   5.871  11.270   4.724 -0.0617 -1.0364 -0.6373
  330MOL0     C44422   5.857  11.407   4.704 -0.5428 -0.4089  0.7680
  330MOL0     O44423   5.937  11.501   4.773  0.1480 -0.2409  0.4513
  330MOL0     C44424   6.012  11.454   4.886  0.2466 -0.0643 -0.1068
  330MOL0     C44425   6.078  11.567   4.972  0.3049  0.5293  0.1356
  330MOL0     C44426   6.222  11.544   5.009 -0.6607  0.3385  0.3341
  330MOL0     C44427   6.290  11.661   5.087  0.3831  0.3970 -0.6594
  330MOL0     C44428   6.387  11.601   5.186  0.3350  0.0936  0.9367
  330MOL0     C44429   6.477  11.707   5.246 -0.0503  0.7943  0.3241
  330MOL0     C44430   6.569  11.637   5.350 -0.1782 -0.3902  0.6487
  330MOL0     C44431   6.492  11.587   5.468  0.7420  0.5233  0.1746
  330MOL0     N44432   6.571  11.568   5.590  0.1688  0.5576 -0.4009
  330MOL0     C44433   6.672  11.475   5.625  0.8818  0.7819  1.0175
  330MOL0     C44434   6.746  11.533   5.716 -0.8905  1.0845 -0.1474
  330MOL0     C44435   6.864  11.469   5.783 -0.1973 -0.4019  0.2343
  330MOL0     C44436   6.820  11.339   5.841  0.1645 -0.2586 -0.8856
  330MOL0     C44437   6.930  11.282   5.935  0.3775  0.6199  0.4748
  330MOL0     C44438   7.067  11.265   5.866 -0.1796 -1.0345 -1.0118
  330MOL0     O44439   7.159  11.198   5.956  0.0417  0.3794  0.2833
  330MOL0     C44440   7.225  11.278   6.042 -0.5646  0.3336 -0.0544
  330MOL0     C44441   7.209  11.419   6.055  0.9437  0.0585 -1.2243
  330MOL0     C44442   7.292  11.493   6.145 -1.3566 -0.1002 -0.4834
  330MOL0     C44443   7.387  11.432   6.222 -0.2341 -0.5446 -0.3466
  330MOL0     C44444   7.484  11.503   6.309 -0.4357  0.2317 -0.5645
  330MOL0     O44445   7.604  11.436   6.334 -0.2660 -0.5973 -0.2663
  330MOL0     C44446   7.710  11.501   6.393  0.6792 -0.2569  0.0971
  330MOL0     C44447   7.753  11.625   6.355  1.1871 -0.2541 -0.7861
  330MOL0     C44448   7.861  11.694   6.407  0.0209  1.2190  0.4588
  330MOL0     C44449   7.936  11.627   6.501 -0.7668 -0.3235 -0.7001
  330MOL0     O44450   8.046  11.668   6.562 -0.7024 -0.2838 -0.3731
  330MOL0     C44451   8.134  11.755   6.484 -0.5367 -0.2201 -0.1034
  330MOL0     C44452   8.281  11.718   6.525 -0.2439 -0.4325  1.1412
  330MOL0     C44453   8.372  11.787   6.417 -0.1882 -0.3871 -0.3458
  330MOL0     C44454   8.514  11.813   6.484 -1.0817 -0.1868 -0.2870
  330MOL0     C44455   8.614  11.704   6.444 -0.4512 -0.1701  0.5391
  330MOL0     C44456   8.744  11.721   6.523  1.0615 -0.5754  0.6259
  330MOL0     C44457   8.830  11.595   6.522 -0.1141 -0.9307  0.8236
  330MOL0     C44458   8.964  11.616   6.581  0.3751 -0.7715  0.1560
  330MOL0    Cl44459   8.945  11.643   6.749 -0.1377  0.4358 -0.5462
  330MOL0     C44460   7.904  11.497   6.544 -0.5611  0.3811  0.7948
  330MOL0     C44461   7.802  11.435   6.478  0.2218 -0.5189 -0.3213
  330MOL0     O44462   7.462  11.624   6.339 -0.5554  0.0068 -0.7107
  330MOL0     C44463   7.412  11.292   6.201 -0.4901 -0.9367 -0.5424
  330MOL0     C44464   7.328  11.221   6.116  0.1760 -0.0543 -0.7287
  330MOL0     N44465   6.682  11.647   5.755 -1.0543 -0.2655 -0.0022
  330MOL0     N44466   6.579  11.665   5.687 -0.4428  0.3161  0.8014
  330MOL0     C44467   5.754  11.461   4.623  0.5322 -0.2411  0.4311
  330MOL0     C44468   5.670  11.368   4.558  0.0152  0.1247 -0.4143
  330MOL0     C44469   5.488  10.944   4.426  0.4887 -0.2546  1.0694
  330MOL0     C44470   5.484  10.811   4.460  0.9913  0.5199  0.2047
  330MOL0     C44471   5.377  10.731   4.421  0.2259  0.7636  0.7455
  330MOL0     C44472   5.269  10.785   4.349 -0.6123  0.5869  0.0535
  330MOL0     O44473   5.157  10.717   4.319 -0.4735  0.2284  0.4687
  330MOL0     C44474   5.178  10.573   4.319 -0.8904 -0.7700  0.3174
  330MOL0     C44475   5.068  10.512   4.240  0.1265 -0.0258  0.3564
  330MOL0     C44476   5.094  10.538   4.089 -0.4364 -0.2382 -0.3730
  330MOL0     C44477   4.967  10.510   4.004  0.3483  0.3224  1.0241
  330MOL0     C44478   5.010  10.541   3.861 -0.6468 -0.5181 -0.0785
  330MOL0     C44479   5.043  10.566   3.748  0.7620  0.1948  0.3676
  330MOL0     C44480   5.264  10.920   4.320  0.4976  0.2475  1.6634
  330MOL0     C44481   5.372  11.001   4.357  0.3430 -0.0991 -0.0583
  330MOL0     C44482   5.360  11.150   4.327 -0.2092 -0.0115 -0.7423
  330MOL0     H44483   5.792  11.074   4.681  1.6752 -0.3938 -1.5905
  330MOL0     H44484   5.951  11.233   4.788 -0.2167  0.4729  0.4809
  330MOL0     H44485   5.954  11.392   4.955  1.3195  0.7084  1.5407
  330MOL0     H44486   6.093  11.385   4.861 -0.3183 -1.2833  1.2425
  330MOL0     H44487   6.029  11.586   5.068  4.0764 -1.1598  2.6188
  330MOL0     H44488   6.076  11.658   4.911  1.8914  0.4824 -0.0382
  330MOL0     H44489   6.276  11.514   4.919 -1.2196 -3.1109  1.0116
  330MOL0     H44490   6.230  11.452   5.067 -0.4785  0.2622  0.1863
  330MOL0     H44491   6.346  11.716   5.011 -1.5844  2.0545 -0.9847
  330MOL0     H44492   6.203  11.708   5.133 -0.0808 -1.3444  0.3425
  330MOL0     H44493   6.333  11.547   5.263  0.4029  0.3697  1.1796
  330MOL0     H44494   6.446  11.530   5.128 -1.4664  0.6075 -1.7382
  330MOL0     H44495   6.537  11.748   5.164 -1.2115  1.0030 -0.4414
  330MOL0     H44496   6.424  11.787   5.297 -0.3212  1.3541 -0.8020
  330MOL0     H44497   6.630  11.723   5.376  1.7193  0.0078 -4.1412
  330MOL0     H44498   6.632  11.560   5.306  2.8006  2.4042 -0.3131
  330MOL0     H44499   6.421  11.666   5.494 -1.9137 -1.7569  0.3725
  330MOL0     H44500   6.437  11.493   5.454  0.7904  0.5295 -0.0700
  330MOL0     H44501   6.701  11.391   5.563 -1.6521  1.5423 -1.3966
  330MOL0     H44502   6.941  11.445   5.709 -0.6548  0.8381 -0.6777
  330MOL0     H44503   6.907  11.536   5.858 -0.0673  0.3315 -0.4677
  330MOL0     H44504   6.723  11.356   5.889  0.5158  0.5154 -0.4335
  330MOL0     H44505   6.803  11.272   5.756 -1.3470  1.0697 -1.6762
  330MOL0     H44506   6.900  11.184   5.972  1.9568 -0.4473 -0.9677
  330MOL0     H44507   6.940  11.362   6.009  2.1568  1.9352 -1.0884
  330MOL0     H44508   7.103  11.359   5.823 -1.8242 -0.0200 -0.2644
  330MOL0     H44509   7.061  11.192   5.785  0.5883 -2.7103  0.3699
  330MOL0     H44510   7.135  11.476   6.000  0.0744  0.6723  0.5168
  330MOL0     H44511   7.273  11.600   6.136 -0.0321  0.1148 -0.9650
  330MOL0     H44512   7.689  11.681   6.288  0.1572 -0.5786 -0.0986
  330MOL0     H44513   7.885  11.795   6.375  2.3400  1.2368  1.9494
  330MOL0     H44514   8.126  11.721   6.380 -2.0935 -1.9327  0.5371
  330MOL0     H44515   8.110  11.860   6.505 -1.0813 -0.4200  0.2648
  330MOL0     H44516   8.306  11.749   6.627  1.6052  1.4962  0.1678
  330MOL0     H44517   8.300  11.610   6.525 -0.6749 -0.5454 -0.8189
  330MOL0     H44518   8.382  11.715   6.335  4.3467  0.5144 -0.8223
  330MOL0     H44519   8.328  11.878   6.376 -0.8290 -1.8354 -3.1397
  330MOL0     H44520   8.512  11.831   6.592  1.7003  0.4254 -0.2640
  330MOL0     H44521   8.569  11.901   6.448  0.6696 -1.2556 -0.3689
  330MOL0     H44522   8.635  11.706   6.337  0.2936  1.8642  0.6954
  330MOL0     H44523   8.576  11.602   6.460 -0.3327 -0.8120 -2.6099
  330MOL0     H44524   8.804  11.791   6.464  1.3213 -2.5244 -1.5374
  330MOL0     H44525   8.727  11.744   6.628  1.4294 -0.0671  0.5753
  330MOL0     H44526   8.841  11.552   6.422  1.0498  1.9556 -0.4130
  330MOL0     H44527   8.774  11.525   6.584 -3.4929 -0.4520 -1.4324
  330MOL0     H44528   9.028  11.528   6.571 -1.2229 -1.7845 -2.0001
  330MOL0     H44529   9.019  11.700   6.537 -0.5228  0.1925  0.8483
  330MOL0     H44530   7.964  11.453   6.623 -0.3500  2.0641  1.5977
  330MOL0     H44531   7.785  11.330   6.501  0.8531 -0.2338  1.7060
  330MOL0     H44532   7.493  11.239   6.250  0.4587  2.8363  2.5119
  330MOL0     H44533   7.343  11.115   6.103 -1.6360 -0.7101  1.7955
  330MOL0     H44534   5.730  11.566   4.633  0.3903  0.0593 -2.3001
  330MOL0     H44535   5.584  11.404   4.503 -0.4846 -1.4224 -0.7031
  330MOL0     H44536   5.555  10.760   4.523 -1.8357 -2.1699  1.4710
  330MOL0     H44537   5.386  10.628   4.454 -1.6873 -0.0743 -1.1399
  330MOL0     H44538   5.179  10.535   4.421  0.1161  0.8167  0.9300
  330MOL0     H44539   5.272  10.544   4.271  0.2910 -1.0360  2.6798
  330MOL0     H44540   4.975  10.553   4.280 -0.5827 -2.9991  2.1266
  330MOL0     H44541   5.064  10.404   4.256  0.5038 -0.1189 -0.1739
  330MOL0     H44542   5.176  10.477   4.052  0.6060 -0.7184  2.5041
  330MOL0     H44543   5.124  10.643   4.086  0.1151 -0.4081 -2.0813
  330MOL0     H44544   4.940  10.404   4.007  1.1039  0.1436  2.8060
  330MOL0     H44545   4.885  10.575   4.035 -0.2995  0.7584 -1.4301
  330MOL0     H44546   5.079  10.596   3.652  1.1427 -0.0197  0.4378
  330MOL0     H44547   5.171  10.959   4.279 -1.1199 -0.9333  3.9875
  330MOL0     H44548   5.325  11.195   4.421  0.0485 -1.9711  0.3456
  330MOL0     H44549   5.452  11.189   4.282  0.2480 -2.2449 -1.8582
  330MOL0     H44550   5.286  11.153   4.247  1.4267 -5.1669 -2.8439
  331MOL0     O44551   6.396   5.859  10.622  0.6910  0.1099 -0.4559
  331MOL0     C44552   6.347   5.864  10.734  0.1400  0.7409 -0.5416
  331MOL0     O44553   6.419   5.870  10.847 -0.2499 -0.6532  0.0498
  331MOL0     C44554   6.556   5.855  10.855 -0.3986  0.6261 -0.9698
  331MOL0     C44555   6.630   5.779  10.760  0.4749 -0.0544 -0.7545
  331MOL0     C44556   6.763   5.759  10.775 -1.1701  0.5991  0.1263
  331MOL0     C44557   6.824   5.800  10.889  0.7958  1.1981 -0.4417
  331MOL0     O44558   6.950   5.781  10.927 -0.0373  0.3823  0.6082
  331MOL0     C44559   7.057   5.762  10.830  0.1990 -0.0583  0.3760
  331MOL0     C44560   7.194   5.772  10.891 -0.0584 -0.1804  0.5391
  331MOL0     C44561   7.261   5.651  10.944 -0.4296  0.8323  0.1506
  331MOL0     C44562   7.407   5.695  10.982  0.3962  0.8795 -0.1011
  331MOL0     C44563   7.492   5.569  11.020  0.5714 -0.5215 -0.4895
  331MOL0     C44564   7.638   5.598  11.034  0.1698  0.3591  0.1755
  331MOL0     C44565   7.707   5.459  11.040 -0.2278  0.4997  0.6180
  331MOL0     C44566   7.849   5.483  11.003 -0.2702  0.3622  0.0896
  331MOL0     N44567   7.941   5.370  11.006 -0.2602 -0.1021 -0.8652
  331MOL0     C44568   7.972   5.291  11.117  0.7592 -0.0832  0.0276
  331MOL0     C44569   8.059   5.206  11.061 -0.3163  0.0840 -0.8522
  331MOL0     C44570   8.138   5.116  11.152 -0.5341  0.0956  0.0396
  331MOL0     C44571   8.245   5.198  11.227 -0.3284 -0.9515 -0.7541
  331MOL0     C44572   8.202   5.283  11.356  0.3793 -0.2260  0.5530
  331MOL0     C44573   8.311   5.346  11.434 -0.1882  1.1253 -0.0686
  331MOL0     O44574   8.249   5.411  11.550 -0.0608  0.1774  0.3758
  331MOL0     C44575   8.345   5.438  11.647  0.2525  0.4378  0.1145
  331MOL0     C44576   8.470   5.374  11.670  0.5650  0.6218  0.7241
  331MOL0     C44577   8.554   5.419  11.767  0.4457  0.4529 -0.4590
  331MOL0     C44578   8.522   5.538  11.840  0.2854 -0.3149 -0.1140
  331MOL0     C44579   8.615   5.600  11.939 -0.4776  0.0218 -1.0754
  331MOL0     O44580   8.719   5.525  11.996  0.3120  1.3050  0.1623
  331MOL0     C44581   8.796   5.556  12.103 -0.7310  0.0220  0.3378
  331MOL0     C44582   8.788   5.667  12.189 -0.4606 -0.2659 -0.8895
  331MOL0     C44583   8.870   5.679  12.303  0.1008  0.4882  0.0312
  331MOL0     C44584   8.977   5.592  12.314 -0.0299  0.4115 -0.3440
  331MOL0     O44585   9.075   5.626  12.414  0.3401 -0.2633 -0.0539
  331MOL0     C44586   9.129   5.759  12.401  0.4088 -0.1852  0.8905
  331MOL0     C44587   9.243   5.768  12.498 -0.1819  0.5819 -0.1913
  331MOL0     C44588   9.198   5.796  12.642 -0.0204  0.3859 -0.1515
  331MOL0     C44589   9.140   5.674  12.708 -0.5193 -0.5157  0.1384
  331MOL0     C44590   9.125   5.699  12.860 -0.2141  0.3614  0.4998
  331MOL0     C44591   9.254   5.679  12.941  0.1375  0.7544  0.0629
  331MOL0     C44592   9.306   5.538  12.920 -0.0336  0.7480 -1.0113
  331MOL0     C44593   9.435   5.519  12.999  0.9020 -1.0076 -1.1885
  331MOL0    Cl44594   9.392   5.473  13.172  0.1989  0.0471  0.1915
  331MOL0     C44595   8.991   5.481  12.230  0.1999 -0.4076 -0.4713
  331MOL0     C44596   8.898   5.464  12.125 -0.9975  0.4165  0.4922
  331MOL0     O44597   8.580   5.712  11.982  0.2942 -0.2383 -0.0919
  331MOL0     C44598   8.393   5.598  11.820  0.4412 -0.4139  0.4091
  331MOL0     C44599   8.308   5.545  11.728  0.5318  0.1321  0.1054
  331MOL0     N44600   8.072   5.227  10.928  0.3728  0.7963 -0.1194
  331MOL0     N44601   8.008   5.328  10.893 -0.4195  0.0587  0.5859
  331MOL0     C44602   6.757   5.865  10.987  0.2964  0.3815  0.2393
  331MOL0     C44603   6.620   5.899  10.967  0.0040  0.5002 -0.4255
  331MOL0     C44604   6.197   5.847  10.743  0.1459  0.0026 -0.5027
  331MOL0     C44605   6.150   5.853  10.874 -0.8220 -0.3879  0.2215
  331MOL0     C44606   6.018   5.828  10.900 -0.7071  0.9967  0.4288
  331MOL0     C44607   5.924   5.792  10.797 -1.4045 -0.6459  0.5707
  331MOL0     O44608   5.798   5.758  10.835 -0.5866 -0.1869 -1.0878
  331MOL0     C44609   5.721   5.689  10.731 -0.0847  0.1741 -0.2147
  331MOL0     C44610   5.592   5.646  10.805  0.1250 -0.1601 -0.7557
  331MOL0     C44611   5.632   5.545  10.914 -0.8307 -0.8836  0.0325
  331MOL0     C44612   5.505   5.491  10.986  0.8044 -0.4606  0.5722
  331MOL0     C44613   5.535   5.435  11.118  0.3760 -1.4772 -0.1604
  331MOL0     C44614   5.555   5.396  11.235  0.6096 -0.3450  0.0967
  331MOL0     C44615   5.971   5.791  10.667  0.0447 -0.4050  0.0902
  331MOL0     C44616   6.109   5.812  10.633  0.8138 -0.1036 -0.6574
  331MOL0     C44617   6.147   5.795  10.489  0.3517  0.3343  0.8143
  331MOL0     H44618   6.581   5.736  10.673 -0.2969 -0.4287 -0.1409
  331MOL0     H44619   6.821   5.727  10.689 -3.1250 -1.0238 -0.6686
  331MOL0     H44620   7.049   5.661  10.787 -0.2560  0.5078 -0.9056
  331MOL0     H44621   7.050   5.847  10.762  0.2768  0.1819  0.6646
  331MOL0     H44622   7.187   5.859  10.958 -0.4688  0.6771 -0.5811
  331MOL0     H44623   7.259   5.799  10.807  0.0145 -2.0285 -0.0332
  331MOL0     H44624   7.265   5.577  10.863  3.0400 -0.5510  1.3624
  331MOL0     H44625   7.213   5.604  11.030 -3.1825  0.4852 -1.4422
  331MOL0     H44626   7.450   5.756  10.902 -0.1687  2.9879  1.1263
  331MOL0     H44627   7.415   5.746  11.078  1.3982  1.0573 -0.2609
  331MOL0     H44628   7.446   5.527  11.110  2.1932  0.0825  0.6642
  331MOL0     H44629   7.493   5.502  10.934 -0.9527  0.1687 -1.0910
  331MOL0     H44630   7.674   5.659  10.950 -1.1575 -0.1397 -0.7942
  331MOL0     H44631   7.668   5.654  11.123  3.9372 -3.5568  1.7692
  331MOL0     H44632   7.667   5.399  10.958 -1.5524  1.0048  0.8681
  331MOL0     H44633   7.710   5.408  11.137  0.0693  0.5103  0.6146
  331MOL0     H44634   7.858   5.540  10.910  0.1857  1.1242  0.5886
  331MOL0     H44635   7.894   5.546  11.080  2.7672 -2.9365  1.3139
  331MOL0     H44636   7.939   5.304  11.220 -0.3180  0.0334 -0.3266
  331MOL0     H44637   8.077   5.060  11.223  0.0292 -1.2140 -0.4834
  331MOL0     H44638   8.202   5.058  11.086 -1.6258 -0.5712 -0.4543
  331MOL0     H44639   8.316   5.124  11.266  1.7874  1.2300 -0.2410
  331MOL0     H44640   8.303   5.261  11.159 -0.4453 -1.8522 -1.7082
  331MOL0     H44641   8.145   5.217  11.421 -1.6719 -1.4160 -2.2574
  331MOL0     H44642   8.145   5.373  11.328 -2.8188 -2.3876 -0.3879
  331MOL0     H44643   8.369   5.420  11.379 -0.8276  0.5994 -1.5076
  331MOL0     H44644   8.381   5.264  11.454 -2.3707 -1.7620 -3.0454
  331MOL0     H44645   8.500   5.290  11.608  0.0824  0.6772  0.4043
  331MOL0     H44646   8.653   5.374  11.775  0.3452  0.1571 -0.8489
  331MOL0     H44647   8.695   5.724  12.194  0.7147  1.5981  2.5206
  331MOL0     H44648   8.853   5.756  12.378  0.8042 -0.3665  1.0874
  331MOL0     H44649   9.165   5.774  12.299 -1.3635  3.3427  0.6119
  331MOL0     H44650   9.052   5.836  12.409  0.1560 -0.0352 -1.9906
  331MOL0     H44651   9.311   5.682  12.490 -2.1338 -1.2802  1.8696
  331MOL0     H44652   9.311   5.853  12.484 -0.6738  1.1741  0.9244
  331MOL0     H44653   9.281   5.820  12.708 -0.3189  0.0158  0.3676
  331MOL0     H44654   9.137   5.887  12.647 -0.0111  0.3402  1.0075
  331MOL0     H44655   9.205   5.590  12.681  0.2198  1.3474 -5.0329
  331MOL0     H44656   9.041   5.647  12.670 -0.5413  0.0688 -0.2333
  331MOL0     H44657   9.049   5.635  12.905 -1.8032  2.7092  1.3387
  331MOL0     H44658   9.083   5.799  12.877  2.1512  1.1778  2.0110
  331MOL0     H44659   9.334   5.749  12.916  1.7964 -0.9897  0.2575
  331MOL0     H44660   9.225   5.688  13.046  0.2545  0.0406  0.1608
  331MOL0     H44661   9.337   5.519  12.817  2.2018  0.0343 -0.2610
  331MOL0     H44662   9.235   5.465  12.961 -2.1551  2.8313 -0.7369
  331MOL0     H44663   9.498   5.438  12.961  1.4614 -0.2710 -1.8668
  331MOL0     H44664   9.510   5.598  13.002  0.4658 -0.6182  1.0626
  331MOL0     H44665   9.081   5.421  12.230  0.2840 -0.2838 -0.6323
  331MOL0     H44666   8.900   5.380  12.057  1.1710  0.3792  0.5120
  331MOL0     H44667   8.383   5.686  11.881  0.1978  0.9146 -1.4476
  331MOL0     H44668   8.217   5.603  11.712  0.0844 -0.9803 -1.5823
  331MOL0     H44669   6.827   5.882  11.068 -0.2037 -0.9875  0.9871
  331MOL0     H44670   6.563   5.937  11.050  0.0210  2.2173 -1.1673
  331MOL0     H44671   6.215   5.870  10.959 -1.0648 -0.9740  0.5296
  331MOL0     H44672   5.977   5.840  10.999 -3.4315 -2.1409 -0.1465
  331MOL0     H44673   5.765   5.597  10.692 -1.8044 -0.5543 -0.5651
  331MOL0     H44674   5.688   5.754  10.649 -2.7501  0.3210  0.8672
  331MOL0     H44675   5.512   5.600  10.747 -2.1268  3.1652 -0.6254
  331MOL0     H44676   5.544   5.733  10.853  0.2837 -0.4698 -0.0171
  331MOL0     H44677   5.686   5.603  10.990 -1.5779 -0.9701  0.6313
  331MOL0     H44678   5.701   5.466  10.883 -0.1954 -0.5642  0.5971
  331MOL0     H44679   5.429   5.570  10.994  1.6918  0.5979 -0.9827
  331MOL0     H44680   5.462   5.414  10.922 -1.8726  3.6311 -3.1590
  331MOL0     H44681   5.589   5.360  11.330  2.6519  0.5954 -0.2309
  331MOL0     H44682   5.895   5.780  10.590  1.1410 -0.0758 -1.0763
  331MOL0     H44683   6.061   5.772  10.425  1.3832 -1.2119 -0.0898
  331MOL0     H44684   6.205   5.877  10.446 -0.6728 -0.3622 -2.1543
  331MOL0     H44685   6.202   5.701  10.486 -0.4138 -0.3313  4.0298
  332MOL0     O44686   1.384   7.511   2.309  0.1868  0.2178  0.4109
  332MOL0     C44687   1.376   7.479   2.425  0.0911  0.7147 -0.3248
  332MOL0     O44688   1.473   7.448   2.518  0.6419  0.2899  0.3993
  332MOL0     C44689   1.606   7.477   2.478  0.4824 -0.2175 -0.3438
  332MOL0     C44690   1.644   7.614   2.475  0.5556  0.4260 -0.4394
  332MOL0     C44691   1.767   7.661   2.440  0.0017  0.0878 -0.3400
  332MOL0     C44692   1.863   7.558   2.424 -1.0542  0.0777  0.5638
  332MOL0     O44693   1.992   7.587   2.395 -0.6671 -0.5712  0.1096
  332MOL0     C44694   2.064   7.674   2.485 -0.0267 -0.3313 -0.2752
  332MOL0     C44695   2.215   7.644   2.488  0.5997  0.5969  0.5125
  332MOL0     C44696   2.234   7.498   2.535 -0.3164  0.1400 -0.1057
  332MOL0     C44697   2.382   7.465   2.556  0.1580 -0.4139  0.8767
  332MOL0     C44698   2.406   7.316   2.568  0.1972  0.9006  0.7874
  332MOL0     C44699   2.344   7.249   2.694  0.6222 -1.1692  0.5991
  332MOL0     C44700   2.438   7.248   2.813 -0.4076 -0.2330 -0.0721
  332MOL0     C44701   2.539   7.133   2.792 -0.1587  0.3341 -0.5188
  332MOL0     N44702   2.524   7.011   2.876  0.8865  0.9183  0.4278
  332MOL0     C44703   2.405   6.938   2.909 -0.9105 -0.5503 -1.2717
  332MOL0     C44704   2.446   6.856   3.008  0.2144 -0.1811  0.1272
  332MOL0     C44705   2.358   6.753   3.081 -0.2406 -0.5801  0.9018
  332MOL0     C44706   2.256   6.826   3.174  0.6683  0.1590  0.3755
  332MOL0     C44707   2.125   6.891   3.106 -0.0050  0.1624  0.2302
  332MOL0     C44708   2.010   6.895   3.212 -0.2714  0.0904  0.2326
  332MOL0     O44709   1.892   6.932   3.143 -0.1740 -0.2922  0.5819
  332MOL0     C44710   1.769   6.940   3.213 -0.3717 -0.1634 -0.7335
  332MOL0     C44711   1.649   6.981   3.149  1.3262 -0.1437  0.5012
  332MOL0     C44712   1.517   6.977   3.216 -0.4695  0.0524  0.1772
  332MOL0     C44713   1.508   6.962   3.356 -0.5746 -0.0860  0.6545
  332MOL0     C44714   1.384   6.989   3.438 -0.0509  0.5379  0.0963
  332MOL0     O44715   1.406   6.985   3.571  0.1439  0.5710  0.2656
  332MOL0     C44716   1.315   7.033   3.658  0.1331  0.0878 -0.2549
  332MOL0     C44717   1.360   7.114   3.761 -0.5395  1.0232  1.5967
  332MOL0     C44718   1.274   7.146   3.866  0.0442  0.4184 -0.1628
  332MOL0     C44719   1.138   7.097   3.868  0.6758  0.3025 -0.5269
  332MOL0     O44720   1.041   7.126   3.967  0.0840 -0.3684 -0.0896
  332MOL0     C44721   1.073   7.242   4.045  0.4995 -0.0552 -0.8485
  332MOL0     C44722   0.959   7.258   4.152 -0.3119 -0.5439 -0.6497
  332MOL0     C44723   0.997   7.372   4.240  0.4268  0.1098 -0.8146
  332MOL0     C44724   1.071   7.333   4.372 -0.3929  0.2166  0.2817
  332MOL0     C44725   1.086   7.453   4.469 -0.3551  0.6707  0.6591
  332MOL0     C44726   1.197   7.554   4.425 -0.9478 -0.4686 -0.2443
  332MOL0     C44727   1.201   7.690   4.505  0.1584  0.4606  0.2652
  332MOL0     C44728   1.316   7.789   4.472 -0.2281 -0.2459  0.0813
  332MOL0    Cl44729   1.476   7.718   4.421 -0.2242  0.2105  0.2248
  332MOL0     C44730   1.093   7.027   3.767  1.2445 -0.0895  1.0078
  332MOL0     C44731   1.180   6.995   3.659  0.0493  0.5696 -0.3907
  332MOL0     O44732   1.278   7.007   3.382 -0.6105  0.4389  0.4699
  332MOL0     C44733   1.629   6.924   3.414 -0.1596 -0.3118 -0.1665
  332MOL0     C44734   1.758   6.921   3.350  0.6232 -0.1315  0.4501
  332MOL0     N44735   2.580   6.882   3.034 -0.0442  0.0550 -0.0636
  332MOL0     N44736   2.625   6.961   2.952 -0.5286  0.0660  0.1638
  332MOL0     C44737   1.825   7.421   2.425  0.0807 -0.0760  0.3446
  332MOL0     C44738   1.701   7.378   2.453  0.1622  0.0821  0.7415
  332MOL0     C44739   1.231   7.468   2.459  0.5245 -0.0341 -0.1798
  332MOL0     C44740   1.149   7.371   2.392  0.3301 -0.1417  0.5654
  332MOL0     C44741   1.022   7.357   2.426 -0.0951 -1.0208 -0.3413
  332MOL0     C44742   0.962   7.451   2.512 -0.2770  0.4581  0.0936
  332MOL0     O44743   0.832   7.444   2.560  0.2049  0.5130 -0.1834
  332MOL0     C44744   0.736   7.435   2.458  0.0786 -0.3449  0.6560
  332MOL0     C44745   0.597   7.458   2.521 -0.7478 -0.2121  1.3754
  332MOL0     C44746   0.496   7.419   2.402 -0.5754 -0.1900 -0.3308
  332MOL0     C44747   0.354   7.409   2.459  0.6928  0.2251  1.0050
  332MOL0     C44748   0.257   7.389   2.346 -0.3608 -0.4377  0.3578
  332MOL0     C44749   0.170   7.373   2.263  0.2916  0.5954 -0.0500
  332MOL0     C44750   1.040   7.554   2.574  0.5517  0.4548  0.3952
  332MOL0     C44751   1.170   7.570   2.540  0.2648 -0.6673 -0.1887
  332MOL0     C44752   1.232   7.698   2.587  0.0295 -0.8354  0.6165
  332MOL0     H44753   1.556   7.678   2.482 -0.6697 -1.1779 -0.5880
  332MOL0     H44754   1.791   7.766   2.437 -1.4068  0.6469  2.9829
  332MOL0     H44755   2.055   7.774   2.442 -2.0001 -0.6065 -0.6029
  332MOL0     H44756   2.025   7.673   2.587  0.5643 -2.6466 -0.0069
  332MOL0     H44757   2.249   7.718   2.561  0.6095  1.1808 -0.0749
  332MOL0     H44758   2.267   7.677   2.397 -3.6587  1.5153 -1.8428
  332MOL0     H44759   2.223   7.440   2.443  4.2714 -0.7810 -0.3284
  332MOL0     H44760   2.160   7.464   2.609 -0.2157 -1.8282 -0.8417
  332MOL0     H44761   2.439   7.512   2.476 -3.2689  1.2263 -0.8353
  332MOL0     H44762   2.421   7.511   2.647 -3.3691 -0.6707  2.6886
  332MOL0     H44763   2.364   7.266   2.480 -1.5001  0.4282  1.8055
  332MOL0     H44764   2.514   7.303   2.558  0.0080  1.0035 -2.0104
  332MOL0     H44765   2.252   7.301   2.722  1.5529  1.4144 -0.8216
  332MOL0     H44766   2.319   7.144   2.675  0.7269 -0.7533 -2.2171
  332MOL0     H44767   2.370   7.219   2.895 -2.7850  0.5932 -1.6494
  332MOL0     H44768   2.496   7.340   2.819  3.3428 -2.2262 -1.8874
  332MOL0     H44769   2.531   7.096   2.690  0.2757 -0.5802 -0.2304
  332MOL0     H44770   2.641   7.173   2.797 -0.1095  0.1786 -0.2840
  332MOL0     H44771   2.306   6.962   2.872 -2.2555 -1.0192  1.6823
  332MOL0     H44772   2.314   6.682   3.011  0.6194  1.2353 -1.6242
  332MOL0     H44773   2.425   6.690   3.140 -1.2093 -1.9193  0.6256
  332MOL0     H44774   2.231   6.747   3.246 -0.3933  0.5393  0.4441
  332MOL0     H44775   2.305   6.911   3.224 -0.8783  1.6843 -0.5954
  332MOL0     H44776   2.102   6.835   3.015  1.3280  1.1016 -0.7315
  332MOL0     H44777   2.150   6.993   3.074  0.1975  0.5733  1.6149
  332MOL0     H44778   2.037   6.969   3.288  0.8142  0.9239 -0.9147
  332MOL0     H44779   2.000   6.794   3.251 -1.1269  0.0324 -0.1062
  332MOL0     H44780   1.655   6.994   3.042  3.2081 -2.7963  0.1730
  332MOL0     H44781   1.425   6.993   3.160 -0.4763  1.7942  0.6345
  332MOL0     H44782   1.467   7.135   3.765 -0.2693 -0.3977  2.4309
  332MOL0     H44783   1.300   7.204   3.954 -0.3750  0.1316  0.1541
  332MOL0     H44784   1.166   7.239   4.101 -0.0806  2.9440  0.4507
  332MOL0     H44785   1.073   7.331   3.982 -0.0847 -1.0041 -2.2496
  332MOL0     H44786   0.869   7.283   4.095  1.7037  1.4133 -3.2180
  332MOL0     H44787   0.940   7.169   4.212 -0.4629  1.4652  2.5572
  332MOL0     H44788   1.062   7.434   4.179  0.7145 -0.4707 -1.1031
  332MOL0     H44789   0.907   7.429   4.265  1.3551  1.6556 -0.8383
  332MOL0     H44790   1.172   7.289   4.365 -0.6638 -0.6018  1.2801
  332MOL0     H44791   1.008   7.259   4.422 -2.1717  0.9174 -0.8545
  332MOL0     H44792   1.101   7.407   4.567  2.3574  1.9959  0.9511
  332MOL0     H44793   0.991   7.504   4.487 -1.6593 -0.8305 -1.4739
  332MOL0     H44794   1.297   7.509   4.423 -1.4122 -1.4833 -1.9288
  332MOL0     H44795   1.177   7.581   4.321  0.2059 -0.6520 -0.5296
  332MOL0     H44796   1.208   7.671   4.613  0.8494 -0.3574  0.0856
  332MOL0     H44797   1.113   7.749   4.480 -0.4089 -1.0022 -1.3973
  332MOL0     H44798   1.287   7.845   4.382  1.4522  1.7730  0.7050
  332MOL0     H44799   1.325   7.861   4.555 -1.6361 -1.9548  1.8102
  332MOL0     H44800   0.990   6.992   3.771  1.5500 -1.0066  1.2963
  332MOL0     H44801   1.131   6.934   3.584 -1.9643  2.9700 -1.1703
  332MOL0     H44802   1.637   6.913   3.521 -0.2707 -0.3257 -0.1589
  332MOL0     H44803   1.840   6.897   3.418  1.8706 -1.5527 -1.4497
  332MOL0     H44804   1.896   7.341   2.410 -0.5423 -0.5928  0.1045
  332MOL0     H44805   1.662   7.276   2.453 -2.6162  1.0477  0.8406
  332MOL0     H44806   1.194   7.300   2.323 -2.9299  0.5456 -2.6154
  332MOL0     H44807   0.973   7.264   2.403 -0.0479 -1.3167  0.6867
  332MOL0     H44808   0.736   7.334   2.415  2.5959 -0.0617 -0.1681
  332MOL0     H44809   0.755   7.495   2.369 -2.5919  0.2110  0.3684
  332MOL0     H44810   0.581   7.560   2.558  0.0685  0.8611 -1.0099
  332MOL0     H44811   0.587   7.384   2.600 -1.8414 -0.3120  1.1664
  332MOL0     H44812   0.517   7.326   2.349  2.2292  0.0917  0.1403
  332MOL0     H44813   0.513   7.492   2.323  1.8332  0.6923  0.8966
  332MOL0     H44814   0.339   7.336   2.539  1.0833 -1.3345 -0.2985
  332MOL0     H44815   0.332   7.505   2.508  3.6180  0.2138  2.6002
  332MOL0     H44816   0.107   7.373   2.176 -1.2440  1.0411  1.0156
  332MOL0     H44817   1.008   7.624   2.651 -0.6201 -1.1975  1.4988
  332MOL0     H44818   1.340   7.694   2.601  0.0934  0.7862  0.7990
  332MOL0     H44819   1.225   7.775   2.510  2.5076 -1.7874 -0.6625
  332MOL0     H44820   1.184   7.735   2.679  1.1222 -2.8140  2.0583
  333MOL0     O44821   4.891   0.640   1.132 -0.2433 -0.0389  0.2735
  333MOL0     C44822   4.899   0.530   1.188  0.3020 -1.3564 -0.4176
  333MOL0     O44823   5.005   0.497   1.265 -0.1401  0.0842 -0.2386
  333MOL0     C44824   5.070   0.580   1.350  0.5639  0.3310  0.3011
  333MOL0     C44825   5.160   0.510   1.432  0.1001  0.5856  0.7252
  333MOL0     C44826   5.224   0.582   1.535 -0.7761 -0.0565 -0.5189
  333MOL0     C44827   5.202   0.722   1.557  0.4291  0.0093  0.7974
  333MOL0     O44828   5.274   0.775   1.661  0.4518  0.1254 -0.1365
  333MOL0     C44829   5.340   0.905   1.651  0.0199  0.1124  0.2791
  333MOL0     C44830   5.437   0.924   1.530 -0.3772 -0.8485  0.0605
  333MOL0     C44831   5.558   0.827   1.531  0.3888 -0.0938 -0.1676
  333MOL0     C44832   5.657   0.863   1.419  0.0196  0.3827  0.4112
  333MOL0     C44833   5.795   0.786   1.423  0.7637 -0.3624  0.3425
  333MOL0     C44834   5.877   0.810   1.299 -0.3432  0.0334  0.2465
  333MOL0     C44835   5.819   0.758   1.170  0.3687  0.0194  0.4835
  333MOL0     C44836   5.907   0.753   1.048  0.3472 -0.3111 -0.4361
  333MOL0     N44837   5.959   0.889   1.019  0.0330 -0.1304  0.8881
  333MOL0     C44838   5.901   1.008   0.975  0.3494  0.0240  0.6111
  333MOL0     C44839   6.001   1.105   0.972 -0.0876 -0.2302  0.3995
  333MOL0     C44840   5.985   1.242   0.918  0.6488  0.1331 -0.0888
  333MOL0     C44841   6.048   1.242   0.777  0.7315  0.2067 -0.1850
  333MOL0     C44842   6.006   1.358   0.681 -0.3552  0.6632 -0.2004
  333MOL0     C44843   6.120   1.444   0.618 -0.7442 -0.5555 -0.4536
  333MOL0     O44844   6.070   1.576   0.587 -1.0422  0.0097 -0.0257
  333MOL0     C44845   6.145   1.666   0.513  0.1348 -0.3378 -0.8506
  333MOL0     C44846   6.079   1.792   0.517 -0.2630  0.7737  0.5797
  333MOL0     C44847   6.137   1.900   0.458  0.1551  0.3578  0.8933
  333MOL0     C44848   6.272   1.890   0.398 -0.5378 -0.0731  0.2159
  333MOL0     C44849   6.349   2.009   0.336  0.8096 -0.0541 -0.5282
  333MOL0     O44850   6.491   1.999   0.316  0.5472  0.1416 -0.2033
  333MOL0     C44851   6.569   2.115   0.306 -0.3553  0.0422 -0.3050
  333MOL0     C44852   6.551   2.223   0.403  0.3763 -0.0107  0.0686
  333MOL0     C44853   6.641   2.326   0.412 -0.3895  0.4039  0.5247
  333MOL0     C44854   6.742   2.333   0.306  0.3943 -0.3368 -0.7013
  333MOL0     O44855   6.815   2.450   0.304 -0.2811 -0.0888 -0.6191
  333MOL0     C44856   6.957   2.432   0.284 -0.7616 -0.2452 -0.0027
  333MOL0     C44857   6.990   2.495   0.148 -1.6931  0.1224  0.5324
  333MOL0     C44858   7.145   2.468   0.113  0.2741  0.5590 -0.4159
  333MOL0     C44859   7.223   2.596   0.146  0.0361 -0.4597  0.4007
  333MOL0     C44860   7.374   2.575   0.168  1.3824 -0.0685  0.3177
  333MOL0     C44861   7.462   2.536   0.045  0.6010 -0.1465  0.1034
  333MOL0     C44862   7.608   2.499   0.106 -0.8175 -0.0318 -0.0073
  333MOL0     C44863   7.728   2.516   0.019 -0.0295  0.6095  0.5857
  333MOL0    Cl44864   7.872   2.523   0.129  0.0707  0.4433 -0.4012
  333MOL0     C44865   6.764   2.230   0.211  0.2208 -0.0847 -0.7028
  333MOL0     C44866   6.678   2.118   0.212  1.1880  1.2035 -0.1134
  333MOL0     O44867   6.284   2.107   0.294  0.1147  0.4494  0.8114
  333MOL0     C44868   6.336   1.768   0.410 -0.9790 -0.0503 -0.1990
  333MOL0     C44869   6.272   1.656   0.457  0.4915  0.6981  0.1905
  333MOL0     N44870   6.125   1.042   1.013  0.5435  0.0662 -0.0948
  333MOL0     N44871   6.090   0.919   1.036 -0.5571  0.9576 -0.3886
  333MOL0     C44872   5.101   0.787   1.478 -0.1021  0.3907 -0.5628
  333MOL0     C44873   5.038   0.717   1.380 -0.7197  0.3440  0.6024
  333MOL0     C44874   4.792   0.429   1.163  0.5032  0.9305  0.5535
  333MOL0     C44875   4.779   0.317   1.252 -1.1357 -0.6548 -0.6828
  333MOL0     C44876   4.704   0.207   1.210 -0.0096 -0.9914  0.1894
  333MOL0     C44877   4.622   0.207   1.095  0.6279 -0.3817 -0.1761
  333MOL0     O44878   4.534   0.115   1.056  0.0961  0.7814 -0.0766
  333MOL0     C44879   4.508   0.009   1.146  0.8739 -0.7876  0.4542
  333MOL0     C44880   4.424   0.070   1.263  0.7794  0.1777  0.0340
  333MOL0     C44881   4.390  -0.036   1.374 -0.1182  0.7141 -0.5620
  333MOL0     C44882   4.505  -0.074   1.471  0.3780  0.0708  0.2571
  333MOL0     C44883   4.561   0.040   1.545 -0.3487  0.1476 -0.1833
  333MOL0     C44884   4.616   0.138   1.589 -0.5791 -0.1517  0.1289
  333MOL0     C44885   4.633   0.328   1.011  0.1832 -0.1868 -0.6122
  333MOL0     C44886   4.712   0.431   1.044 -0.0261  0.2240 -0.1040
  333MOL0     C44887   4.729   0.533   0.931 -0.8924  0.2496  0.2094
  333MOL0     H44888   5.196   0.410   1.409 -1.2553  0.2188  0.0579
  333MOL0     H44889   5.297   0.544   1.606 -0.7428 -0.4026 -0.7397
  333MOL0     H44890   5.261   0.978   1.633 -1.5324 -1.9022 -1.6784
  333MOL0     H44891   5.390   0.927   1.746 -1.5972  2.9183  0.5899
  333MOL0     H44892   5.469   1.028   1.526  3.5355 -1.9181 -0.7836
  333MOL0     H44893   5.375   0.902   1.442 -0.3097 -0.0791 -0.1871
  333MOL0     H44894   5.524   0.724   1.513  1.6072 -1.2799  3.4365
  333MOL0     H44895   5.608   0.825   1.628 -1.0501  0.4564  0.6044
  333MOL0     H44896   5.597   0.845   1.329  1.5819  0.6734 -0.7349
  333MOL0     H44897   5.687   0.969   1.424 -1.5634  0.8035  2.1113
  333MOL0     H44898   5.842   0.830   1.511 -0.3371  2.9828 -0.6126
  333MOL0     H44899   5.781   0.677   1.430 -0.5596 -0.2717 -0.6046
  333MOL0     H44900   5.907   0.913   1.281  0.2455 -0.4677 -1.9696
  333MOL0     H44901   5.971   0.761   1.326 -1.0874 -0.6252  1.7221
  333MOL0     H44902   5.727   0.808   1.139  0.4458 -0.2173 -0.1410
  333MOL0     H44903   5.796   0.654   1.194  0.5035  0.3825  2.3357
  333MOL0     H44904   5.995   0.691   1.065  1.2604  0.5767 -1.7054
  333MOL0     H44905   5.852   0.712   0.962  2.8241  0.0829 -2.3165
  333MOL0     H44906   5.795   1.028   0.968  0.1588  1.7549  5.1907
  333MOL0     H44907   5.882   1.275   0.900  1.5181  3.7804  0.6563
  333MOL0     H44908   6.039   1.315   0.980  1.8100  0.6143 -1.5931
  333MOL0     H44909   6.154   1.264   0.794  0.7692 -1.0410  1.5806
  333MOL0     H44910   6.033   1.145   0.728 -1.6840  0.7621 -0.6444
  333MOL0     H44911   5.935   1.423   0.733 -2.3122 -1.6570  0.2116
  333MOL0     H44912   5.964   1.306   0.595  0.9173 -2.1862  0.7518
  333MOL0     H44913   6.162   1.400   0.527 -0.3305  0.2405 -0.6560
  333MOL0     H44914   6.196   1.451   0.697 -0.3383 -1.8035 -0.7139
  333MOL0     H44915   5.983   1.806   0.566 -0.1238 -0.0553  1.1137
  333MOL0     H44916   6.092   1.999   0.456  0.8786  0.6890 -0.3682
  333MOL0     H44917   6.486   2.216   0.490  2.4669  1.2291  1.8468
  333MOL0     H44918   6.632   2.412   0.478  1.4475 -0.0481  1.4225
  333MOL0     H44919   7.014   2.488   0.358  1.0682  0.7781 -2.0728
  333MOL0     H44920   6.990   2.327   0.282  0.8867  0.2498  0.0504
  333MOL0     H44921   6.931   2.447   0.070  1.0525 -1.6929 -0.6064
  333MOL0     H44922   6.977   2.603   0.160  0.9325  0.7044 -0.9812
  333MOL0     H44923   7.186   2.390   0.178  0.5409  1.4790  0.5534
  333MOL0     H44924   7.172   2.425   0.016 -2.2450  0.1178 -0.9896
  333MOL0     H44925   7.180   2.641   0.236 -0.3485 -1.5295  0.7688
  333MOL0     H44926   7.208   2.668   0.064  0.9362 -1.0322 -0.2805
  333MOL0     H44927   7.386   2.511   0.256 -0.0034  0.7363  1.1281
  333MOL0     H44928   7.422   2.669   0.196 -1.9163  2.2972 -1.2687
  333MOL0     H44929   7.423   2.453  -0.015  1.0918  0.3172 -0.8902
  333MOL0     H44930   7.483   2.626  -0.015  1.6724  0.5064  1.4080
  333MOL0     H44931   7.611   2.395   0.142  1.5916  0.5949  1.8195
  333MOL0     H44932   7.631   2.552   0.199  3.3333  0.5787 -1.2020
  333MOL0     H44933   7.730   2.436  -0.056 -2.2035  0.7981  0.2376
  333MOL0     H44934   7.718   2.605  -0.044  1.7809  0.9473  0.7284
  333MOL0     H44935   6.840   2.236   0.134 -0.0652 -0.0198 -0.9823
  333MOL0     H44936   6.700   2.034   0.148  0.0898  0.7812  0.0497
  333MOL0     H44937   6.436   1.746   0.374 -0.1724 -0.4184  2.1052
  333MOL0     H44938   6.324   1.560   0.455  4.6814  2.7055  1.1796
  333MOL0     H44939   5.076   0.891   1.496 -1.4818 -0.1549  0.8095
  333MOL0     H44940   4.969   0.775   1.321  0.1778  0.3505 -0.4799
  333MOL0     H44941   4.839   0.315   1.342 -0.6170 -2.2140 -1.0219
  333MOL0     H44942   4.698   0.133   1.289  0.5345 -0.0973  1.1025
  333MOL0     H44943   4.603  -0.032   1.180  1.4147 -0.8557 -1.0774
  333MOL0     H44944   4.454  -0.067   1.089 -0.5330 -0.2835  1.0755
  333MOL0     H44945   4.328   0.097   1.218  1.0708 -0.5134 -1.0205
  333MOL0     H44946   4.476   0.153   1.313 -0.9054  2.3315 -1.5693
  333MOL0     H44947   4.345  -0.120   1.320  0.6888  2.0908 -3.6335
  333MOL0     H44948   4.313   0.007   1.438  0.2646  1.5149 -0.6220
  333MOL0     H44949   4.480  -0.154   1.541  1.2319  0.1886  0.7116
  333MOL0     H44950   4.586  -0.110   1.407  0.4815  0.0015  0.4271
  333MOL0     H44951   4.655   0.229   1.629 -1.1446 -0.9916  2.7723
  333MOL0     H44952   4.575   0.325   0.920  0.7961 -0.0007 -1.0176
  333MOL0     H44953   4.667   0.505   0.846  0.2617  0.2536 -0.6512
  333MOL0     H44954   4.695   0.634   0.957  2.5696  1.4681  0.4945
  333MOL0     H44955   4.831   0.524   0.892 -1.4296  0.3460 -1.2588
  334MOL0     O44956   8.917   3.757   7.813 -0.0305  0.4721  0.2932
  334MOL0     C44957   8.869   3.711   7.915 -0.9450  0.3089  0.4533
  334MOL0     O44958   8.939   3.678   8.020 -0.2739  0.0254  0.2228
  334MOL0     C44959   9.063   3.735   8.040  0.1187 -0.1186 -0.9671
  334MOL0     C44960   9.170   3.691   7.962 -0.5561 -0.5286  0.5897
  334MOL0     C44961   9.300   3.749   7.967 -0.3221 -0.3497 -0.0587
  334MOL0     C44962   9.320   3.848   8.063 -0.4310  0.4105 -0.5581
  334MOL0     O44963   9.445   3.906   8.083  0.0845 -0.0505 -0.0754
  334MOL0     C44964   9.545   3.832   8.151  0.5456  0.4859 -0.0768
  334MOL0     C44965   9.682   3.908   8.147  0.2383  0.9446 -0.1031
  334MOL0     C44966   9.809   3.828   8.175 -0.2134 -0.4088  0.1495
  334MOL0     C44967   9.930   3.910   8.205  0.1119 -0.2046 -0.2423
  334MOL0     C44968  10.047   3.814   8.251  0.1167 -0.1939 -0.1047
  334MOL0     C44969  10.160   3.898   8.305 -0.1223  0.4734 -0.2806
  334MOL0     C44970  10.285   3.809   8.316 -0.1851 -0.0703 -0.8176
  334MOL0     C44971  10.409   3.884   8.361  0.1882  0.5418 -0.3062
  334MOL0     N44972  10.505   3.794   8.430  0.5067  0.3606  0.9308
  334MOL0     C44973  10.580   3.695   8.366 -0.0845  0.5074  0.2305
  334MOL0     C44974  10.652   3.636   8.466  0.4569 -0.0210 -0.1553
  334MOL0     C44975  10.748   3.518   8.459 -0.3821  0.2903 -0.4148
  334MOL0     C44976  10.884   3.561   8.509 -0.1637 -0.1555 -0.7659
  334MOL0     C44977  10.951   3.661   8.417 -0.6477 -0.3913  0.5748
  334MOL0     C44978  11.081   3.713   8.464  1.0098  0.5118 -0.3441
  334MOL0     O44979  11.150   3.601   8.502  0.5511 -1.1475 -0.1134
  334MOL0     C44980  11.283   3.622   8.529  0.4878 -0.3046 -0.5399
  334MOL0     C44981  11.361   3.510   8.556  0.4964 -0.2937 -0.8547
  334MOL0     C44982  11.501   3.519   8.577 -0.8356 -0.3868  0.1102
  334MOL0     C44983  11.560   3.646   8.579  0.3275 -0.5408 -0.3965
  334MOL0     C44984  11.708   3.658   8.613 -0.0061 -0.2275  0.0444
  334MOL0     O44985  11.751   3.774   8.670  0.2997  0.6434 -0.1344
  334MOL0     C44986  11.883   3.782   8.697  0.7157  0.3858 -0.4355
  334MOL0     C44987  11.985   3.809   8.607  0.2624 -1.2426  0.3750
  334MOL0     C44988  12.113   3.810   8.650 -0.0304 -0.2742  0.0112
  334MOL0     C44989  12.144   3.776   8.777 -0.1247  1.2385  0.3845
  334MOL0     O44990  12.275   3.799   8.809  0.2582  0.2556 -0.3904
  334MOL0     C44991  12.343   3.724   8.914  0.7481  1.1216  0.0438
  334MOL0     C44992  12.360   3.578   8.886 -0.0896  0.2989 -0.1697
  334MOL0     C44993  12.446   3.555   8.747 -1.0765  0.1365 -0.9744
  334MOL0     C44994  12.376   3.444   8.668  0.5868 -0.2340  0.4191
  334MOL0     C44995  12.457   3.403   8.543 -0.1793 -0.2043 -0.0188
  334MOL0     C44996  12.369   3.339   8.434  0.3771  0.2419 -0.2334
  334MOL0     C44997  12.281   3.442   8.362 -0.0272 -0.1189  0.0787
  334MOL0     C44998  12.245   3.400   8.217  0.6929  0.1064 -0.2627
  334MOL0    Cl44999  12.102   3.480   8.152  0.1681  0.1264  0.1691
  334MOL0     C45000  12.045   3.750   8.878  0.9896  0.8755  0.5865
  334MOL0     C45001  11.915   3.750   8.831  0.0777 -0.3997  0.7734
  334MOL0     O45002  11.775   3.558   8.592  0.2592 -0.4317 -0.1866
  334MOL0     C45003  11.485   3.760   8.558 -0.4578  0.1887 -0.3222
  334MOL0     C45004  11.349   3.752   8.528  0.5258 -0.2280  0.0534
  334MOL0     N45005  10.631   3.713   8.576  0.5533 -1.2165  0.3133
  334MOL0     N45006  10.537   3.799   8.564  0.9157  0.5956 -0.0418
  334MOL0     C45007   9.217   3.889   8.139 -0.4796 -0.8922 -0.0810
  334MOL0     C45008   9.089   3.831   8.133 -0.4347 -0.4501  0.1891
  334MOL0     C45009   8.724   3.655   7.898 -0.0783 -0.1720 -0.6542
  334MOL0     C45010   8.668   3.661   7.767 -0.2609 -0.2498 -0.0642
  334MOL0     C45011   8.548   3.601   7.745  0.8098  0.5554  0.2598
  334MOL0     C45012   8.473   3.543   7.843 -0.1914  0.3133  0.2311
  334MOL0     O45013   8.356   3.476   7.803 -0.0960  0.0700 -0.1023
  334MOL0     C45014   8.292   3.384   7.899 -0.2997  0.1170 -0.4390
  334MOL0     C45015   8.185   3.308   7.814 -0.3365  0.0320  0.2521
  334MOL0     C45016   8.073   3.386   7.750 -1.4001 -1.2724 -0.7172
  334MOL0     C45017   7.978   3.305   7.662  0.6337 -0.6382 -0.1487
  334MOL0     C45018   7.851   3.381   7.638  0.2326  0.6933 -0.0206
  334MOL0     C45019   7.744   3.430   7.620 -0.4047 -1.0827 -0.1769
  334MOL0     C45020   8.520   3.543   7.972 -0.4379  1.6599 -0.3023
  334MOL0     C45021   8.648   3.599   8.001 -0.0719  0.6971  0.2415
  334MOL0     C45022   8.697   3.604   8.145  0.2839  0.5164  0.7663
  334MOL0     H45023   9.141   3.611   7.895 -1.0931 -2.6323  3.1963
  334MOL0     H45024   9.372   3.700   7.902  2.8785  1.0331  2.2118
  334MOL0     H45025   9.515   3.811   8.254  0.2283  0.7872 -0.1049
  334MOL0     H45026   9.544   3.731   8.109 -3.1727 -1.4462  3.8642
  334MOL0     H45027   9.672   3.970   8.237  0.2764 -2.8716  2.7792
  334MOL0     H45028   9.692   3.953   8.047  5.8565 -1.1210 -0.8241
  334MOL0     H45029   9.841   3.779   8.083 -0.4240 -1.4559  0.6172
  334MOL0     H45030   9.788   3.754   8.253 -0.3803 -0.3282  0.1818
  334MOL0     H45031   9.961   3.963   8.114  1.8964  2.1611  1.6180
  334MOL0     H45032   9.901   3.989   8.275  0.7791  0.0466 -0.2493
  334MOL0     H45033  10.011   3.758   8.338  0.8035  1.9300  1.6429
  334MOL0     H45034  10.065   3.739   8.173 -0.7618  0.9039 -1.4164
  334MOL0     H45035  10.183   3.976   8.233 -1.6611 -1.6623 -3.2944
  334MOL0     H45036  10.131   3.942   8.401 -0.4654  2.0887 -1.1012
  334MOL0     H45037  10.299   3.756   8.222  1.5682  2.8640 -2.3759
  334MOL0     H45038  10.265   3.737   8.396  1.3899 -0.4249 -0.7081
  334MOL0     H45039  10.462   3.932   8.279  0.4635  1.1370  0.2095
  334MOL0     H45040  10.371   3.963   8.426 -1.9782  0.1860 -1.0717
  334MOL0     H45041  10.563   3.641   8.273 -0.3972  0.9127  0.0511
  334MOL0     H45042  10.701   3.431   8.506 -1.7928  0.4562 -1.4330
  334MOL0     H45043  10.743   3.493   8.352 -0.2885  0.3528 -0.4325
  334MOL0     H45044  10.884   3.601   8.611  5.0665 -0.2511 -0.4493
  334MOL0     H45045  10.943   3.469   8.515 -0.0432 -0.1312 -1.5128
  334MOL0     H45046  10.892   3.752   8.402  2.0614  2.0394  3.0953
  334MOL0     H45047  10.963   3.613   8.319  1.4270 -0.3161  0.7337
  334MOL0     H45048  11.062   3.781   8.547 -3.4700 -1.3180  0.4275
  334MOL0     H45049  11.123   3.772   8.382 -0.4832  1.9020 -0.1758
  334MOL0     H45050  11.306   3.416   8.558 -0.0938 -0.0256 -2.5314
  334MOL0     H45051  11.568   3.434   8.574  0.3294  0.5192 -2.1950
  334MOL0     H45052  11.963   3.828   8.503 -0.2113  1.8739  0.9711
  334MOL0     H45053  12.199   3.835   8.589  1.5268  2.6159  3.0478
  334MOL0     H45054  12.445   3.760   8.899  1.0647  0.7722  1.2472
  334MOL0     H45055  12.310   3.749   9.015  0.5611  0.7539  0.0768
  334MOL0     H45056  12.411   3.535   8.973  0.3536  1.6323  0.2565
  334MOL0     H45057  12.260   3.534   8.878 -0.9682  1.9780  0.9796
  334MOL0     H45058  12.448   3.648   8.689 -1.3560  0.0568 -1.1145
  334MOL0     H45059  12.544   3.515   8.771 -0.7603  0.0940 -2.2655
  334MOL0     H45060  12.272   3.462   8.639  0.9357  0.0532 -0.7043
  334MOL0     H45061  12.384   3.356   8.732  1.4042 -0.3170  0.2221
  334MOL0     H45062  12.530   3.326   8.570 -0.6600 -0.8875 -0.6110
  334MOL0     H45063  12.515   3.486   8.502  1.7629 -1.2381  0.5040
  334MOL0     H45064  12.441   3.296   8.364  0.2211  0.7429 -0.7083
  334MOL0     H45065  12.307   3.262   8.481 -0.0101  1.9010  2.1322
  334MOL0     H45066  12.333   3.538   8.359 -2.8193  1.7293  3.6525
  334MOL0     H45067  12.187   3.462   8.413 -1.9876 -2.2266 -2.4361
  334MOL0     H45068  12.326   3.408   8.144 -0.1441 -2.3560 -1.5916
  334MOL0     H45069  12.220   3.294   8.227 -1.8861  0.7487  0.9359
  334MOL0     H45070  12.065   3.733   8.983 -1.8889  1.2643  1.3014
  334MOL0     H45071  11.835   3.720   8.898 -0.4413  1.7161  1.1803
  334MOL0     H45072  11.535   3.856   8.548  0.5353 -0.2842  0.0095
  334MOL0     H45073  11.290   3.838   8.494 -1.4637 -0.4726  2.5965
  334MOL0     H45074   9.225   3.961   8.220 -2.0674 -0.9385  0.1333
  334MOL0     H45075   9.006   3.862   8.195 -0.3782 -0.5287  0.3047
  334MOL0     H45076   8.717   3.705   7.681  3.2790 -4.2985 -0.4454
  334MOL0     H45077   8.514   3.600   7.642  0.9518 -2.4197  0.1501
  334MOL0     H45078   8.233   3.430   7.979 -2.6122  1.8565 -2.9515
  334MOL0     H45079   8.359   3.306   7.936 -2.5770 -1.4300  0.7009
  334MOL0     H45080   8.141   3.235   7.882 -0.0880 -0.1737  0.1930
  334MOL0     H45081   8.238   3.252   7.736  5.4570  1.8956  2.3273
  334MOL0     H45082   8.109   3.465   7.683 -1.5319  0.1576  0.8197
  334MOL0     H45083   8.028   3.438   7.835 -1.6696  0.3257 -1.7920
  334MOL0     H45084   8.026   3.276   7.569  1.9972 -1.4988  0.7900
  334MOL0     H45085   7.940   3.217   7.715  1.6172 -0.5734  0.6964
  334MOL0     H45086   7.650   3.479   7.601  0.0533 -0.9152 -2.2234
  334MOL0     H45087   8.464   3.509   8.059 -0.2366  0.1101 -0.7476
  334MOL0     H45088   8.743   3.694   8.187 -0.8182  1.6450 -0.3522
  334MOL0     H45089   8.616   3.588   8.217 -1.2848 -2.5404 -1.4458
  334MOL0     H45090   8.774   3.527   8.146  1.2960  1.4747 -0.4248
  335MOL0     O45091   5.142   5.191   3.678  0.4486 -0.4908  0.5556
  335MOL0     C45092   5.122   5.091   3.739 -0.5317  0.7804 -0.1143
  335MOL0     O45093   5.220   4.996   3.787 -0.3159 -0.1614 -0.2702
  335MOL0     C45094   5.346   4.999   3.739  0.4237  0.2681 -0.3931
  335MOL0     C45095   5.440   5.091   3.786 -0.3435  1.4187  1.1358
  335MOL0     C45096   5.574   5.073   3.750  0.2358  0.7876 -0.0162
  335MOL0     C45097   5.616   4.963   3.672  0.3177  0.1123 -0.2868
  335MOL0     O45098   5.751   4.951   3.631 -0.2351 -0.5931 -0.3589
  335MOL0     C45099   5.818   5.068   3.585 -0.4497 -0.5525 -0.6747
  335MOL0     C45100   5.960   5.066   3.648 -0.0969  0.3828  0.0059
  335MOL0     C45101   6.031   5.200   3.605  0.6933  0.1074 -0.1289
  335MOL0     C45102   6.182   5.198   3.650  0.1734  0.1257 -0.1626
  335MOL0     C45103   6.247   5.338   3.617 -0.0412 -0.8101 -0.1555
  335MOL0     C45104   6.398   5.335   3.606 -0.3419  0.7779 -0.6541
  335MOL0     C45105   6.461   5.470   3.594  0.0551 -0.1869 -0.5100
  335MOL0     C45106   6.482   5.509   3.449  0.6337 -0.1299  0.0251
  335MOL0     N45107   6.564   5.638   3.440  0.6695 -0.2679 -0.0937
  335MOL0     C45108   6.533   5.764   3.401  0.4215 -0.4653  0.0147
  335MOL0     C45109   6.637   5.841   3.415 -0.2827 -0.2975  0.5263
  335MOL0     C45110   6.645   5.986   3.372 -0.2513  0.4582  0.3657
  335MOL0     C45111   6.588   6.070   3.487 -0.1983 -0.3553 -0.4143
  335MOL0     C45112   6.557   6.222   3.453  0.4426  0.0272  0.0417
  335MOL0     C45113   6.544   6.299   3.578  0.9585 -0.3888  0.4881
  335MOL0     O45114   6.500   6.433   3.552 -0.7091  0.1061  0.4566
  335MOL0     C45115   6.573   6.499   3.447  0.1927 -0.1060  0.0312
  335MOL0     C45116   6.678   6.575   3.483  0.5429  0.4531 -0.0119
  335MOL0     C45117   6.738   6.657   3.391 -0.2073  0.0622  0.7072
  335MOL0     C45118   6.693   6.661   3.259 -0.7144 -0.4278 -0.1282
  335MOL0     C45119   6.761   6.747   3.159 -0.4857  0.4735  0.3887
  335MOL0     O45120   6.842   6.846   3.209 -0.4712 -0.2436 -0.0162
  335MOL0     C45121   6.939   6.913   3.134  0.2593 -0.1581 -0.0953
  335MOL0     C45122   7.072   6.882   3.166  0.1971  1.6460  0.9361
  335MOL0     C45123   7.173   6.932   3.084 -0.1451  0.1164  0.1348
  335MOL0     C45124   7.155   6.986   2.960 -0.0718 -0.1405 -0.0112
  335MOL0     O45125   7.259   7.020   2.884 -0.0731  0.5637  0.1263
  335MOL0     C45126   7.347   7.113   2.958  0.5344 -0.9203  0.0701
  335MOL0     C45127   7.406   7.211   2.849 -0.0320 -0.0660  0.4631
  335MOL0     C45128   7.504   7.145   2.759 -0.0006  1.7136  0.0708
  335MOL0     C45129   7.640   7.124   2.831 -0.4275 -0.2348 -0.8370
  335MOL0     C45130   7.754   7.066   2.751 -0.1791 -0.5813  0.4485
  335MOL0     C45131   7.812   7.148   2.641 -0.1218 -0.9144  0.7155
  335MOL0     C45132   7.963   7.113   2.608  0.7699  0.6926  0.0444
  335MOL0     C45133   7.971   7.126   2.456 -0.3785  0.2787  0.2262
  335MOL0    Cl45134   8.150   7.103   2.410 -0.3892 -0.4371 -0.1298
  335MOL0     C45135   7.018   7.008   2.921 -0.0289  0.0458 -0.3898
  335MOL0     C45136   6.911   6.975   3.009  0.4527 -0.0239 -0.7324
  335MOL0     O45137   6.734   6.727   3.039  1.0434  0.3400 -0.4274
  335MOL0     C45138   6.573   6.592   3.230 -0.5899 -0.9489 -0.0837
  335MOL0     C45139   6.512   6.506   3.323  0.2837  0.2413  0.3888
  335MOL0     N45140   6.721   5.769   3.489  0.5035 -0.6201  0.4989
  335MOL0     N45141   6.676   5.652   3.509 -0.8433 -0.2638  0.7646
  335MOL0     C45142   5.521   4.858   3.637  0.4309  0.0177 -0.2212
  335MOL0     C45143   5.387   4.893   3.658  1.3683  0.3823 -0.3093
  335MOL0     C45144   4.986   5.075   3.792 -0.5855 -0.1623  0.1941
  335MOL0     C45145   4.883   5.038   3.702  0.0641  0.2073 -0.0948
  335MOL0     C45146   4.761   4.988   3.755 -0.6106  0.0726  0.3268
  335MOL0     C45147   4.728   5.005   3.887  0.7233 -0.6680 -0.0280
  335MOL0     O45148   4.596   4.974   3.916 -0.1158  0.6865 -0.2173
  335MOL0     C45149   4.544   5.030   4.040  0.8476  0.1511  0.8735
  335MOL0     C45150   4.389   5.054   4.037  0.0890 -0.4902 -0.6457
  335MOL0     C45151   4.310   4.934   3.985  0.0857  1.1656  0.1238
  335MOL0     C45152   4.159   4.960   4.006 -0.8111  0.1168  0.6747
  335MOL0     C45153   4.065   4.858   3.953 -0.2586 -0.4599 -0.2446
  335MOL0     C45154   3.985   4.770   3.920  0.2494 -0.0529  0.1046
  335MOL0     C45155   4.828   5.042   3.977 -0.5004  0.9891 -0.0803
  335MOL0     C45156   4.957   5.079   3.931 -0.5317  0.4660 -0.6349
  335MOL0     C45157   5.061   5.115   4.026 -1.1039 -0.5623  0.0025
  335MOL0     H45158   5.404   5.176   3.843 -1.0126  1.9120  0.0159
  335MOL0     H45159   5.652   5.137   3.791  1.5805 -0.2287 -0.8849
  335MOL0     H45160   5.806   5.089   3.478 -2.8683  3.1924  0.1566
  335MOL0     H45161   5.777   5.160   3.627  2.4762 -0.0963  1.4755
  335MOL0     H45162   6.020   4.977   3.630  2.1492  0.6228  4.7009
  335MOL0     H45163   5.943   5.072   3.756 -1.5547 -1.3099 -0.0801
  335MOL0     H45164   5.986   5.273   3.674 -0.9025 -0.1588 -0.8467
  335MOL0     H45165   6.006   5.235   3.505 -1.4878 -4.1555 -1.3044
  335MOL0     H45166   6.186   5.176   3.757  0.0812 -2.0157 -0.5502
  335MOL0     H45167   6.243   5.118   3.609  2.4013  2.0296 -0.7570
  335MOL0     H45168   6.215   5.382   3.522 -1.0752  0.2798  0.6632
  335MOL0     H45169   6.218   5.411   3.693  1.8050 -0.2373  0.0417
  335MOL0     H45170   6.436   5.281   3.694 -1.0079 -2.9365 -2.4448
  335MOL0     H45171   6.440   5.265   3.533 -0.5702 -1.0638  0.8767
  335MOL0     H45172   6.559   5.465   3.643 -0.0160 -0.2120 -0.3685
  335MOL0     H45173   6.393   5.540   3.643 -0.6842 -0.8300 -0.6048
  335MOL0     H45174   6.544   5.433   3.402  0.8095  0.3572 -0.5484
  335MOL0     H45175   6.395   5.511   3.382 -0.4924  2.4991  1.4261
  335MOL0     H45176   6.440   5.811   3.371  2.0262  1.6377 -2.1469
  335MOL0     H45177   6.750   6.018   3.366 -0.9588  3.3729  1.5477
  335MOL0     H45178   6.589   5.999   3.279 -0.8928 -0.1456  0.6592
  335MOL0     H45179   6.489   6.029   3.507 -0.1381 -1.3112 -1.9034
  335MOL0     H45180   6.661   6.060   3.568  0.3283 -0.3886 -0.8876
  335MOL0     H45181   6.468   6.244   3.394  1.0539  2.6901  0.0127
  335MOL0     H45182   6.638   6.255   3.387 -0.2406  1.2381 -0.2101
  335MOL0     H45183   6.638   6.306   3.633  1.4863 -0.4291 -0.3807
  335MOL0     H45184   6.476   6.262   3.654 -1.1519  1.3973 -0.4216
  335MOL0     H45185   6.722   6.583   3.582 -1.7355  1.9295  0.9803
  335MOL0     H45186   6.832   6.706   3.416 -1.1263  1.9074  0.7262
  335MOL0     H45187   7.097   6.827   3.256  2.1516  0.5639 -0.2191
  335MOL0     H45188   7.276   6.907   3.107  1.4779  2.9026 -3.2465
  335MOL0     H45189   7.281   7.173   3.021  0.5520 -2.7220  1.9100
  335MOL0     H45190   7.421   7.056   3.015 -1.2388 -1.8957  1.5242
  335MOL0     H45191   7.326   7.246   2.785  0.6756 -0.7487 -0.8355
  335MOL0     H45192   7.455   7.300   2.890  4.9671 -1.4647 -1.6515
  335MOL0     H45193   7.472   7.046   2.725  0.3285  0.8433  2.1439
  335MOL0     H45194   7.509   7.207   2.669  1.2890  2.6050  0.7188
  335MOL0     H45195   7.633   7.051   2.912 -0.1627  1.5232  0.8666
  335MOL0     H45196   7.666   7.220   2.877 -4.2188  2.2016 -3.2409
  335MOL0     H45197   7.724   6.963   2.727 -1.0365 -0.7402  2.0355
  335MOL0     H45198   7.835   7.045   2.822  0.0577  0.1855  0.4074
  335MOL0     H45199   7.749   7.149   2.551 -1.1658  1.0387  1.4330
  335MOL0     H45200   7.809   7.250   2.680 -0.8212 -0.9002  0.6348
  335MOL0     H45201   7.982   7.008   2.633  0.9676  0.1677 -2.0822
  335MOL0     H45202   8.039   7.171   2.661  2.9829  0.0702 -2.2401
  335MOL0     H45203   7.903   7.054   2.409 -1.0145  1.6805 -1.0886
  335MOL0     H45204   7.932   7.219   2.414 -1.0972  0.4269  1.1831
  335MOL0     H45205   6.989   7.044   2.823 -1.0534 -1.5616 -0.7115
  335MOL0     H45206   6.807   7.003   2.997 -0.2028  0.6966  4.2098
  335MOL0     H45207   6.523   6.608   3.135 -0.4969  3.1777  0.3854
  335MOL0     H45208   6.429   6.440   3.302  1.8045 -2.6485  2.6764
  335MOL0     H45209   5.551   4.779   3.569 -1.0620  0.3972 -1.3611
  335MOL0     H45210   5.308   4.826   3.624  0.9703 -1.2413  3.2623
  335MOL0     H45211   4.900   5.042   3.595 -1.9628 -0.3112 -0.4776
  335MOL0     H45212   4.676   4.954   3.696 -0.2333 -2.4675  1.1211
  335MOL0     H45213   4.581   5.133   4.046 -0.8689  0.8324  0.3580
  335MOL0     H45214   4.573   4.959   4.118 -2.4036 -3.5687 -0.9359
  335MOL0     H45215   4.385   5.133   3.961  0.3718  0.0729 -0.0888
  335MOL0     H45216   4.372   5.096   4.137  1.4629 -2.0912  0.3169
  335MOL0     H45217   4.346   4.840   4.027  1.2085  1.0717 -0.9844
  335MOL0     H45218   4.331   4.923   3.878  1.0955 -2.5007  0.5884
  335MOL0     H45219   4.142   4.964   4.114  0.7666 -1.8741  1.0553
  335MOL0     H45220   4.125   5.051   3.954  0.8826 -0.0167 -0.7359
  335MOL0     H45221   3.913   4.691   3.912 -0.5675  0.7029 -0.2036
  335MOL0     H45222   4.812   5.043   4.085  0.3427  0.4426  0.0592
  335MOL0     H45223   5.152   5.055   4.033 -0.7583  0.1123  1.7629
  335MOL0     H45224   5.084   5.221   4.014 -1.3378 -0.6212 -1.0261
  335MOL0     H45225   5.026   5.111   4.130 -0.2421 -1.2416  0.2810
  336MOL0     O45226   1.425   3.024   0.197  0.1836  0.5613 -0.4517
  336MOL0     C45227   1.420   2.908   0.177 -0.1059  0.4759 -0.3930
  336MOL0     O45228   1.521   2.821   0.191 -1.2865  0.3371  0.1176
  336MOL0     C45229   1.638   2.884   0.236 -0.5468  0.1362 -0.8763
  336MOL0     C45230   1.734   2.948   0.163 -0.3089  0.4327  0.1426
  336MOL0     C45231   1.861   2.973   0.212 -0.0028  0.3944  0.5123
  336MOL0     C45232   1.899   2.949   0.344 -0.2247 -0.0008  0.4965
  336MOL0     O45233   2.024   2.987   0.388 -0.0345  0.0652 -0.1666
  336MOL0     C45234   2.084   2.886   0.484  0.2425  0.2809  0.8300
  336MOL0     C45235   2.237   2.881   0.463 -0.4626 -0.3966 -0.3973
  336MOL0     C45236   2.261   2.796   0.340  0.3223  0.3116  1.6543
  336MOL0     C45237   2.300   2.872   0.210  0.9506 -0.2371 -0.5655
  336MOL0     C45238   2.305   2.773   0.101  0.1467  0.3436  0.0623
  336MOL0     C45239   2.382   2.825  -0.029  0.7705  0.0110 -0.1784
  336MOL0     C45240   2.393   2.705  -0.134 -0.1787  0.1471 -0.9407
  336MOL0     C45241   2.256   2.688  -0.209 -0.2186 -0.2598  0.0965
  336MOL0     N45242   2.170   2.586  -0.146 -0.7621 -0.5883  0.0224
  336MOL0     C45243   2.056   2.607  -0.075 -0.9807 -0.2343  0.1113
  336MOL0     C45244   2.035   2.484  -0.015  0.9183  0.4145 -0.7084
  336MOL0     C45245   1.902   2.451   0.067 -0.1254 -0.1586 -0.2305
  336MOL0     C45246   1.943   2.366   0.188 -0.5535  0.0280 -0.6100
  336MOL0     C45247   2.019   2.440   0.299 -0.1605 -0.0655  0.6016
  336MOL0     C45248   2.031   2.365   0.435 -0.6706 -0.6180 -0.4435
  336MOL0     O45249   2.098   2.451   0.535  0.2824  0.5541 -0.2792
  336MOL0     C45250   2.232   2.478   0.542  0.1497  0.1058  0.2374
  336MOL0     C45251   2.321   2.448   0.441 -0.1613  0.5825 -0.2538
  336MOL0     C45252   2.451   2.492   0.451  0.0497  0.2228  1.7440
  336MOL0     C45253   2.499   2.578   0.550  0.3154 -0.3946 -0.7703
  336MOL0     C45254   2.633   2.632   0.553 -0.1303 -0.0265 -0.8592
  336MOL0     O45255   2.663   2.737   0.632  0.2267  0.0674  0.0505
  336MOL0     C45256   2.801   2.760   0.637  0.0852 -0.1055 -0.5780
  336MOL0     C45257   2.875   2.815   0.531 -0.5182 -0.4436  0.7839
  336MOL0     C45258   3.008   2.859   0.551 -0.2637  1.3156 -0.2676
  336MOL0     C45259   3.070   2.833   0.679 -0.3460  0.3627  0.4524
  336MOL0     O45260   3.203   2.867   0.682 -0.2076  0.3821  0.3716
  336MOL0     C45261   3.282   2.796   0.781 -0.3512 -0.3661 -0.9817
  336MOL0     C45262   3.288   2.883   0.913  0.1461  0.7892  0.8226
  336MOL0     C45263   3.284   2.780   1.031 -0.0837 -0.3920 -0.3131
  336MOL0     C45264   3.271   2.856   1.169 -0.2051 -0.0035  1.0251
  336MOL0     C45265   3.406   2.898   1.226 -0.3925  0.1360  0.0393
  336MOL0     C45266   3.382   2.983   1.359 -1.1346  0.4371  0.7206
  336MOL0     C45267   3.301   2.903   1.467  0.0821 -0.3240 -1.3356
  336MOL0     C45268   3.297   2.977   1.604  0.5443  0.1595 -0.1698
  336MOL0    Cl45269   3.181   3.112   1.592  0.4200 -0.2546  0.0727
  336MOL0     C45270   2.997   2.777   0.785  0.2748  0.2740  0.1628
  336MOL0     C45271   2.864   2.754   0.759  0.1340  0.2708 -0.6279
  336MOL0     O45272   2.708   2.581   0.473 -0.4254  0.7020  0.5200
  336MOL0     C45273   2.410   2.595   0.658 -0.4193  0.0717 -0.5840
  336MOL0     C45274   2.287   2.542   0.654  0.3073 -0.4258 -0.2798
  336MOL0     N45275   2.133   2.395  -0.055 -0.4215  0.2761  0.1732
  336MOL0     N45276   2.216   2.455  -0.134 -0.2021  0.1955 -0.6984
  336MOL0     C45277   1.801   2.885   0.425 -0.3668 -0.6595 -0.0828
  336MOL0     C45278   1.670   2.856   0.372 -0.9846 -0.5775  0.4539
  336MOL0     C45279   1.290   2.842   0.150  0.1038 -0.4521  0.6165
  336MOL0     C45280   1.264   2.710   0.185 -0.3637  0.2837  0.2560
  336MOL0     C45281   1.139   2.653   0.176 -0.0697  0.4625  0.2316
  336MOL0     C45282   1.042   2.716   0.101  0.1528 -0.3462  0.5569
  336MOL0     O45283   0.911   2.678   0.084  0.4142  0.3827  0.9710
  336MOL0     C45284   0.863   2.623  -0.035 -0.2246 -0.0270 -0.3354
  336MOL0     C45285   0.962   2.509  -0.073  0.6285 -0.1912 -0.8604
  336MOL0     C45286   0.884   2.412  -0.158 -0.0687  0.7982 -0.5614
  336MOL0     C45287   0.806   2.472  -0.272 -0.8883 -0.7500  0.2260
  336MOL0     C45288   0.777   2.359  -0.370 -0.1448 -0.6581 -0.2884
  336MOL0     C45289   0.739   2.270  -0.444  0.7635  0.8882  0.4594
  336MOL0     C45290   1.070   2.838   0.042 -1.1576  0.0953 -0.0062
  336MOL0     C45291   1.192   2.908   0.067  0.8948  1.0264 -0.5355
  336MOL0     C45292   1.218   3.046   0.012  0.0050  0.7449  0.1576
  336MOL0     H45293   1.721   2.983   0.060 -0.8297 -0.6677 -0.1798
  336MOL0     H45294   1.939   3.016   0.149  1.0759 -0.5175  1.1899
  336MOL0     H45295   2.067   2.910   0.589 -1.1990  1.5688  0.3453
  336MOL0     H45296   2.052   2.785   0.456  2.5656  0.0470 -1.3423
  336MOL0     H45297   2.280   2.848   0.557 -3.0124  0.1151  1.0452
  336MOL0     H45298   2.278   2.982   0.449  1.4492 -0.9114  1.1149
  336MOL0     H45299   2.178   2.734   0.305  2.4162 -3.5236  2.9291
  336MOL0     H45300   2.334   2.720   0.369 -1.3518 -1.4187  1.5442
  336MOL0     H45301   2.235   2.954   0.177 -0.8884 -1.6029 -0.5121
  336MOL0     H45302   2.398   2.916   0.229  0.2742  1.0293  0.1894
  336MOL0     H45303   2.358   2.681   0.129 -2.2497 -0.7460  1.3462
  336MOL0     H45304   2.200   2.753   0.079 -0.3994  2.9765 -0.0788
  336MOL0     H45305   2.330   2.906  -0.081  2.3632 -0.5520 -2.8471
  336MOL0     H45306   2.487   2.845  -0.007  1.1901 -2.4627  0.3054
  336MOL0     H45307   2.427   2.611  -0.090  1.3695  0.0170 -2.3372
  336MOL0     H45308   2.473   2.723  -0.205  1.8324 -5.0053 -0.4039
  336MOL0     H45309   2.203   2.784  -0.214 -0.8636 -0.6656 -2.6492
  336MOL0     H45310   2.291   2.660  -0.309 -0.7029 -2.6853  0.5295
  336MOL0     H45311   1.985   2.688  -0.062  0.4277  0.6430  3.8203
  336MOL0     H45312   1.848   2.535   0.112 -0.3968 -0.1484 -0.5630
  336MOL0     H45313   1.829   2.402   0.000 -1.2756  0.4377  0.5569
  336MOL0     H45314   1.858   2.315   0.236  0.4923 -1.1710  0.0437
  336MOL0     H45315   2.005   2.283   0.152 -0.2982 -0.9916  1.9023
  336MOL0     H45316   1.967   2.534   0.322  0.3311 -0.0522  1.7084
  336MOL0     H45317   2.122   2.455   0.264  1.1108 -1.8955  3.2924
  336MOL0     H45318   2.092   2.275   0.434  1.0622  0.4889  0.5844
  336MOL0     H45319   1.934   2.328   0.470 -0.2485 -1.5485 -0.2175
  336MOL0     H45320   2.288   2.374   0.369 -3.5135  0.6454  1.0311
  336MOL0     H45321   2.523   2.464   0.374  0.6955  1.5813  1.8153
  336MOL0     H45322   2.829   2.848   0.438 -0.9875  2.7635  2.0300
  336MOL0     H45323   3.059   2.903   0.466 -0.1973  1.5155 -0.1251
  336MOL0     H45324   3.233   2.699   0.794 -3.2359  1.3372  4.3998
  336MOL0     H45325   3.382   2.777   0.742  0.3118  0.3761  0.2852
  336MOL0     H45326   3.372   2.952   0.920  0.8929  0.1022 -0.6956
  336MOL0     H45327   3.198   2.945   0.914 -0.0358  0.6681 -1.5287
  336MOL0     H45328   3.198   2.714   1.017 -1.6993  1.3652  0.8547
  336MOL0     H45329   3.380   2.729   1.045  0.6948  1.2772  0.7154
  336MOL0     H45330   3.218   2.789   1.238  0.1107 -0.1837  1.0932
  336MOL0     H45331   3.205   2.943   1.158  0.9538  0.8664  0.7274
  336MOL0     H45332   3.458   2.956   1.149 -0.7781  0.7728  0.2436
  336MOL0     H45333   3.469   2.817   1.261  1.3987  2.6673  3.2927
  336MOL0     H45334   3.474   3.025   1.399 -1.4443  0.2412  1.6571
  336MOL0     H45335   3.313   3.066   1.340 -4.1811 -2.4983 -2.7020
  336MOL0     H45336   3.345   2.806   1.490 -1.9414 -1.0588 -0.2469
  336MOL0     H45337   3.194   2.885   1.449 -1.2958  2.1922  2.8670
  336MOL0     H45338   3.267   2.907   1.683 -0.6841  1.7615  0.8428
  336MOL0     H45339   3.394   3.022   1.628  0.6563  1.8485 -3.2719
  336MOL0     H45340   3.041   2.745   0.879  2.3789  0.6269 -0.6419
  336MOL0     H45341   2.801   2.716   0.839  1.9719  1.6799  1.6375
  336MOL0     H45342   2.432   2.659   0.743  1.4563 -0.0460 -0.9240
  336MOL0     H45343   2.228   2.552   0.745  1.0997 -1.1354  0.3214
  336MOL0     H45344   1.835   2.868   0.527 -0.0631  1.0059  0.1185
  336MOL0     H45345   1.596   2.807   0.434  2.0348 -3.3611  2.1634
  336MOL0     H45346   1.342   2.654   0.236  2.0277  1.0440 -2.3685
  336MOL0     H45347   1.106   2.560   0.222  1.1712  0.8758  2.0684
  336MOL0     H45348   0.853   2.703  -0.110  1.6355 -2.0229 -2.8772
  336MOL0     H45349   0.763   2.587  -0.011  0.0455  0.9920  2.7974
  336MOL0     H45350   1.006   2.451   0.009  0.4798 -0.2552 -0.8261
  336MOL0     H45351   1.038   2.554  -0.138 -0.6128  1.2492 -1.3732
  336MOL0     H45352   0.817   2.357  -0.091  1.6549 -1.1733 -0.3561
  336MOL0     H45353   0.960   2.341  -0.190  0.7486  2.9632 -3.9246
  336MOL0     H45354   0.715   2.516  -0.231  1.5830  2.4093  2.8130
  336MOL0     H45355   0.866   2.549  -0.321 -0.2938 -2.5564 -2.1117
  336MOL0     H45356   0.712   2.192  -0.512  0.5462 -1.2439  2.8423
  336MOL0     H45357   0.995   2.899  -0.006  1.4821  3.3441 -0.3026
  336MOL0     H45358   1.201   3.119   0.092  1.3913  0.9814  0.2573
  336MOL0     H45359   1.325   3.051  -0.013  0.4533  1.4519  2.0792
  336MOL0     H45360   1.166   3.071  -0.081  1.6815  3.0117 -0.2471
  337MOL0     O45361   5.383   9.110   6.940 -0.3653 -0.2234 -0.1045
  337MOL0     C45362   5.319   9.173   6.850 -0.9752  1.0174 -0.2921
  337MOL0     O45363   5.375   9.219   6.737  0.1758  0.6391 -0.4228
  337MOL0     C45364   5.505   9.203   6.703  0.6796  0.2592  0.8392
  337MOL0     C45365   5.609   9.202   6.793 -0.0869  0.6460 -0.8541
  337MOL0     C45366   5.738   9.173   6.747  0.3901 -0.2476  0.3991
  337MOL0     C45367   5.774   9.154   6.613 -0.5650  0.2576  1.1459
  337MOL0     O45368   5.905   9.139   6.565 -0.3277  0.1352 -0.5784
  337MOL0     C45369   6.014   9.158   6.653 -0.2919  0.7186  0.3124
  337MOL0     C45370   6.144   9.166   6.583 -0.6406  0.5699  0.0299
  337MOL0     C45371   6.220   9.032   6.546 -0.1954 -0.0458 -0.4310
  337MOL0     C45372   6.334   9.059   6.448  0.1431 -0.2990  0.1016
  337MOL0     C45373   6.394   8.930   6.395  0.5776  0.2211  0.2334
  337MOL0     C45374   6.531   8.950   6.316  0.9882 -0.1482 -0.3653
  337MOL0     C45375   6.490   9.029   6.192 -0.0351  0.8757 -0.4354
  337MOL0     C45376   6.602   9.029   6.087  0.1708 -0.0859  0.4088
  337MOL0     N45377   6.668   9.157   6.067 -0.0539  0.1912  0.0456
  337MOL0     C45378   6.810   9.166   6.066 -0.3806 -0.5339  0.1354
  337MOL0     C45379   6.844   9.286   5.997 -0.1048  0.4730  0.8322
  337MOL0     C45380   6.980   9.343   5.942  0.1060  0.3606  0.1433
  337MOL0     C45381   7.071   9.379   6.068  0.3797  0.4453  1.1919
  337MOL0     C45382   7.208   9.398   6.015 -0.5600  0.2905  0.1723
  337MOL0     C45383   7.319   9.428   6.122 -0.2689  0.2500 -0.3627
  337MOL0     O45384   7.289   9.557   6.183  0.0995 -0.2800 -0.0061
  337MOL0     C45385   7.357   9.585   6.307  0.3601 -0.0809  0.2330
  337MOL0     C45386   7.447   9.508   6.380 -0.0685  1.1206  1.0203
  337MOL0     C45387   7.511   9.548   6.497 -0.0705 -0.7316 -0.7530
  337MOL0     C45388   7.480   9.674   6.554 -0.4607  0.1166 -0.2570
  337MOL0     C45389   7.554   9.719   6.671 -0.3160  0.2889 -0.4214
  337MOL0     O45390   7.494   9.822   6.739  0.7821  0.5100  0.1690
  337MOL0     C45391   7.539   9.838   6.862  0.6515 -0.1416  0.1524
  337MOL0     C45392   7.522   9.745   6.975  0.4257 -0.3477 -0.7553
  337MOL0     C45393   7.560   9.786   7.102 -0.5684 -0.1078 -0.1353
  337MOL0     C45394   7.614   9.916   7.134 -0.4111 -0.0894  0.5407
  337MOL0     O45395   7.670   9.957   7.259  0.7788  0.1260 -0.1605
  337MOL0     C45396   7.651   9.861   7.372  0.2903  0.4668  0.1829
  337MOL0     C45397   7.719   9.902   7.498  0.2638 -0.1220 -0.3077
  337MOL0     C45398   7.677   9.803   7.616  0.4555  0.4136  0.2870
  337MOL0     C45399   7.767   9.846   7.731  0.5981  0.5463 -0.2310
  337MOL0     C45400   7.744   9.742   7.838 -0.4675 -0.6179 -0.3091
  337MOL0     C45401   7.856   9.734   7.945 -0.9528 -0.2296  0.2131
  337MOL0     C45402   7.877   9.876   8.006  0.8100 -0.2483  0.9882
  337MOL0     C45403   7.950   9.870   8.126 -0.2598 -0.8473 -0.1419
  337MOL0    Cl45404   8.110   9.840   8.077 -0.4235 -0.3469  0.4076
  337MOL0     C45405   7.620   9.993   7.018  0.3833 -0.2073 -0.1758
  337MOL0     C45406   7.573   9.966   6.887  0.0761  0.6813  0.4025
  337MOL0     O45407   7.657   9.659   6.706  0.9921  0.5460  0.0870
  337MOL0     C45408   7.394   9.759   6.477  0.2501  0.5625  0.5078
  337MOL0     C45409   7.331   9.713   6.366  0.5246 -0.2725 -0.6894
  337MOL0     N45410   6.722   9.340   5.961  0.0833 -1.2381 -0.3197
  337MOL0     N45411   6.616   9.268   5.992 -0.7671 -0.1843  0.0665
  337MOL0     C45412   5.668   9.169   6.522  0.6595  0.1746  0.5719
  337MOL0     C45413   5.532   9.183   6.562 -0.4752 -0.6258  0.1843
  337MOL0     C45414   5.180   9.211   6.886 -1.1626  0.7245 -0.2173
  337MOL0     C45415   5.156   9.294   6.998 -0.6897  0.3352  0.5754
  337MOL0     C45416   5.018   9.334   7.021 -0.2771  0.2505 -0.5707
  337MOL0     C45417   4.915   9.289   6.937  0.0306 -0.1384 -0.5398
  337MOL0     O45418   4.788   9.345   6.964  0.1969  0.0973 -0.2753
  337MOL0     C45419   4.722   9.281   7.076 -0.0194 -0.0299 -0.2668
  337MOL0     C45420   4.612   9.176   7.040 -0.2216 -0.4487  0.4670
  337MOL0     C45421   4.490   9.241   6.975  0.6994 -0.5766  0.2381
  337MOL0     C45422   4.374   9.141   6.964  0.3276 -0.2638 -0.3749
  337MOL0     C45423   4.378   9.034   6.866  0.5997  0.2167 -0.2883
  337MOL0     C45424   4.390   8.941   6.794  0.4791  1.0347 -0.3956
  337MOL0     C45425   4.939   9.205   6.832 -0.4500  0.5595  0.9719
  337MOL0     C45426   5.076   9.160   6.801  0.6076  0.3515 -0.3555
  337MOL0     C45427   5.089   9.056   6.697  0.2514  1.1075  0.0337
  337MOL0     H45428   5.610   9.206   6.902 -1.3125 -1.6769 -0.6984
  337MOL0     H45429   5.817   9.151   6.818  1.6687 -0.5004 -1.0592
  337MOL0     H45430   5.999   9.248   6.715 -0.9685  1.9944 -1.6180
  337MOL0     H45431   6.023   9.071   6.719 -1.1935 -0.0117 -0.5087
  337MOL0     H45432   6.218   9.224   6.637  0.2944 -0.3394 -0.2500
  337MOL0     H45433   6.116   9.220   6.492 -2.1572  1.0431  0.7397
  337MOL0     H45434   6.149   8.964   6.498  0.0852 -0.5587 -0.1300
  337MOL0     H45435   6.264   8.994   6.639  1.6110  1.9410 -0.3896
  337MOL0     H45436   6.310   9.119   6.359  1.4501 -2.3426 -1.7195
  337MOL0     H45437   6.417   9.099   6.508  0.6541 -0.3543 -0.5580
  337MOL0     H45438   6.413   8.867   6.483 -3.2364 -0.7645  0.5525
  337MOL0     H45439   6.322   8.871   6.337  1.5217 -2.4651  1.6430
  337MOL0     H45440   6.605   9.005   6.375  0.7982  1.8991 -1.9194
  337MOL0     H45441   6.575   8.855   6.288 -1.8576 -0.7724 -3.2370
  337MOL0     H45442   6.447   9.128   6.212 -0.5837  0.7587 -0.9919
  337MOL0     H45443   6.412   8.965   6.150 -0.4559 -1.3609  3.3028
  337MOL0     H45444   6.676   8.954   6.116  0.7187 -0.0191 -0.7666
  337MOL0     H45445   6.557   8.994   5.994 -1.7523  0.4401  1.0902
  337MOL0     H45446   6.883   9.087   6.073  0.6721  0.3823 -0.2470
  337MOL0     H45447   7.027   9.272   5.874 -1.2865 -0.9420  0.4700
  337MOL0     H45448   6.960   9.432   5.881 -1.3606 -0.0571 -0.0271
  337MOL0     H45449   7.038   9.472   6.115  3.6646  1.8107  1.0313
  337MOL0     H45450   7.069   9.290   6.132 -4.6000 -2.1240 -1.9059
  337MOL0     H45451   7.199   9.484   5.947  0.9255  0.4127  0.0836
  337MOL0     H45452   7.227   9.309   5.954  1.7691  0.2856  0.8056
  337MOL0     H45453   7.417   9.428   6.073 -0.3349  1.5268 -0.5055
  337MOL0     H45454   7.307   9.348   6.196 -2.3820  0.9392  0.1026
  337MOL0     H45455   7.482   9.412   6.343 -0.9272  1.5451 -1.0425
  337MOL0     H45456   7.574   9.467   6.534  0.7664  0.1101 -0.2900
  337MOL0     H45457   7.475   9.647   6.969  1.1132 -0.6640 -1.0283
  337MOL0     H45458   7.552   9.707   7.176  0.5666 -0.8637 -0.7724
  337MOL0     H45459   7.547   9.854   7.403  0.4672 -0.0523  0.6788
  337MOL0     H45460   7.678   9.757   7.351 -0.9132 -0.1684  1.5966
  337MOL0     H45461   7.825   9.898   7.472  1.2495  1.2295  3.0322
  337MOL0     H45462   7.689  10.003   7.527  2.4768  0.9969 -1.5955
  337MOL0     H45463   7.570   9.818   7.635 -0.1979 -1.2449 -1.7793
  337MOL0     H45464   7.686   9.700   7.579 -2.4174  0.0675  0.2714
  337MOL0     H45465   7.739   9.948   7.757  1.4716 -0.0523  3.5976
  337MOL0     H45466   7.872   9.846   7.701  1.1386  1.5925  1.5370
  337MOL0     H45467   7.742   9.642   7.793  1.2065 -1.5779  1.5944
  337MOL0     H45468   7.650   9.764   7.890  0.1464  1.3828  0.0206
  337MOL0     H45469   7.834   9.658   8.021  0.0368  0.9371  1.7285
  337MOL0     H45470   7.950   9.700   7.900 -1.0164  0.3741 -0.3785
  337MOL0     H45471   7.777   9.918   8.020 -0.0674 -2.2759  1.1652
  337MOL0     H45472   7.928   9.925   7.923 -0.3303 -2.1086 -0.9220
  337MOL0     H45473   7.948   9.966   8.177  2.0859 -1.1788  0.7261
  337MOL0     H45474   7.907   9.794   8.191 -0.2873  0.0925  0.9670
  337MOL0     H45475   7.667  10.091   7.024  1.6402 -0.3820 -4.1396
  337MOL0     H45476   7.577  10.038   6.806 -2.7498 -0.6647 -1.1095
  337MOL0     H45477   7.380   9.855   6.524 -3.1221 -1.1477  3.4736
  337MOL0     H45478   7.250   9.770   6.321  0.2012  1.3574  1.7625
  337MOL0     H45479   5.697   9.179   6.418 -0.9837  3.6642  0.3102
  337MOL0     H45480   5.443   9.187   6.500  0.0019  0.9870 -0.4543
  337MOL0     H45481   5.235   9.338   7.057  0.7477  1.6756 -2.1455
  337MOL0     H45482   5.006   9.377   7.120 -1.3991  0.2647 -0.7045
  337MOL0     H45483   4.675   9.355   7.142  1.7064  1.7763 -0.9452
  337MOL0     H45484   4.801   9.238   7.139 -1.0955 -1.1125  0.3777
  337MOL0     H45485   4.578   9.123   7.130  0.7044  0.9370  1.6880
  337MOL0     H45486   4.659   9.116   6.962 -1.0496 -0.3677 -0.1048
  337MOL0     H45487   4.520   9.295   6.885 -2.6167  3.3444  1.1903
  337MOL0     H45488   4.456   9.322   7.040  4.5797 -0.3649  2.2877
  337MOL0     H45489   4.349   9.097   7.061  1.7118 -2.0430 -0.7859
  337MOL0     H45490   4.287   9.206   6.947  0.7709  1.1032  1.9955
  337MOL0     H45491   4.418   8.862   6.727  2.4934  2.0927 -0.8899
  337MOL0     H45492   4.853   9.171   6.775  0.0508 -0.5626  0.8528
  337MOL0     H45493   5.158   9.084   6.616  0.8094  3.2299  1.1777
  337MOL0     H45494   5.142   8.976   6.749  2.1227  0.5146 -2.5796
  337MOL0     H45495   4.996   9.015   6.655 -0.4437  1.4542  1.1834
  338MOL0     O45496  10.651   3.985   4.518 -1.1745  0.3352 -0.5461
  338MOL0     C45497  10.613   4.098   4.555  0.0800  0.6333 -0.3780
  338MOL0     O45498  10.481   4.135   4.554  0.2033 -0.3397  0.1804
  338MOL0     C45499  10.375   4.061   4.504  0.3079 -0.2721 -0.3324
  338MOL0     C45500  10.299   3.975   4.588 -0.0197  0.7536  0.1389
  338MOL0     C45501  10.190   3.908   4.536 -0.8368  0.0711 -0.4692
  338MOL0     C45502  10.157   3.907   4.397  0.1170 -1.1775  1.0188
  338MOL0     O45503  10.052   3.847   4.325  0.0832 -0.0389 -0.6683
  338MOL0     C45504   9.976   3.753   4.402 -0.0988  0.3556  0.4242
  338MOL0     C45505   9.863   3.696   4.309 -0.9525  0.1732  0.6891
  338MOL0     C45506   9.777   3.816   4.257 -0.1947 -0.5819  0.4918
  338MOL0     C45507   9.679   3.871   4.361 -0.3766 -0.4083  0.5580
  338MOL0     C45508   9.598   3.987   4.299  0.7468 -0.0866 -0.5426
  338MOL0     C45509   9.655   4.112   4.330  0.5814 -0.1122  0.4228
  338MOL0     C45510   9.558   4.227   4.297  0.1826 -0.0844  0.4794
  338MOL0     C45511   9.616   4.365   4.323  0.0426  0.1442 -0.1758
  338MOL0     N45512   9.718   4.406   4.224 -0.1843  0.0842 -0.2854
  338MOL0     C45513   9.849   4.422   4.253 -0.1079 -0.7097  0.0193
  338MOL0     C45514   9.914   4.420   4.134  1.1115 -0.1255 -0.2410
  338MOL0     C45515  10.065   4.437   4.108 -0.3690 -0.1401  0.5395
  338MOL0     C45516  10.088   4.565   4.029  0.1713  0.6340 -0.6424
  338MOL0     C45517  10.228   4.630   4.037  0.6256  0.4956 -0.1090
  338MOL0     C45518  10.346   4.543   3.999 -0.7456  0.1848 -0.2169
  338MOL0     O45519  10.468   4.624   4.009  0.1980 -0.9641 -0.3922
  338MOL0     C45520  10.562   4.604   3.912 -0.3289 -0.1336 -0.5790
  338MOL0     C45521  10.617   4.477   3.887  0.1794  0.7100  0.8746
  338MOL0     C45522  10.732   4.473   3.806 -0.7557 -0.0595 -0.1249
  338MOL0     C45523  10.784   4.582   3.748  0.1021  0.4021  0.0234
  338MOL0     C45524  10.910   4.566   3.667  1.0181 -0.7087 -0.4687
  338MOL0     O45525  10.932   4.673   3.577 -0.0689  0.0996 -0.2550
  338MOL0     C45526  11.053   4.671   3.514  0.5960  0.1027 -0.1777
  338MOL0     C45527  11.168   4.724   3.565 -0.5222  0.0914 -0.4547
  338MOL0     C45528  11.285   4.735   3.479  0.2853  0.1995  1.3959
  338MOL0     C45529  11.284   4.687   3.342  0.1394 -0.1330 -0.1999
  338MOL0     O45530  11.402   4.696   3.275 -0.6613  0.4441 -0.9189
  338MOL0     C45531  11.414   4.663   3.141 -0.7531  0.1539 -0.0024
  338MOL0     C45532  11.562   4.697   3.114 -0.1850 -0.0831  0.0860
  338MOL0     C45533  11.580   4.663   2.969  0.3141 -0.0600 -0.6420
  338MOL0     C45534  11.733   4.674   2.941 -0.2436  0.4125  0.7346
  338MOL0     C45535  11.769   4.626   2.796  0.8352 -1.0813 -0.2931
  338MOL0     C45536  11.768   4.468   2.788  0.5320  0.2952  0.4041
  338MOL0     C45537  11.757   4.417   2.637 -0.3024 -0.2478 -0.1605
  338MOL0     C45538  11.614   4.403   2.578  0.2902 -0.6757  0.6004
  338MOL0    Cl45539  11.517   4.285   2.669 -0.2208 -0.2083 -0.5540
  338MOL0     C45540  11.162   4.637   3.288  0.3882  0.4368  0.7960
  338MOL0     C45541  11.053   4.627   3.380 -0.3114  0.5830  0.0536
  338MOL0     O45542  10.982   4.472   3.685  0.1883  0.4553  0.1540
  338MOL0     C45543  10.719   4.706   3.759 -0.4479  0.4403  0.2937
  338MOL0     C45544  10.611   4.717   3.844  0.0712  0.4107 -0.7151
  338MOL0     N45545   9.819   4.405   4.034 -0.6149  0.6005  0.0022
  338MOL0     N45546   9.703   4.394   4.087 -0.3162  0.4429  0.1878
  338MOL0     C45547  10.241   3.983   4.316 -0.0591  0.8173  0.0937
  338MOL0     C45548  10.343   4.067   4.364 -0.4263  0.3623 -0.0363
  338MOL0     C45549  10.718   4.202   4.608 -0.4429  0.0510  0.5548
  338MOL0     C45550  10.685   4.287   4.713 -0.8247  0.2073  0.6224
  338MOL0     C45551  10.780   4.366   4.779 -0.3684 -0.6073 -0.2789
  338MOL0     C45552  10.910   4.374   4.731 -0.8177  0.8745  0.1864
  338MOL0     O45553  11.019   4.454   4.764  0.1978  0.3716 -0.7552
  338MOL0     C45554  10.996   4.551   4.861 -0.8384 -0.2311  0.4057
  338MOL0     C45555  11.132   4.606   4.906  0.1329  0.1662  0.3615
  338MOL0     C45556  11.128   4.711   5.018 -0.0517 -0.1951 -0.2473
  338MOL0     C45557  11.263   4.791   5.034 -0.4602 -0.2527  0.2716
  338MOL0     C45558  11.384   4.711   5.062 -0.1860 -0.7658 -1.0180
  338MOL0     C45559  11.465   4.633   5.107  0.0785  0.4829  0.4886
  338MOL0     C45560  10.948   4.288   4.623  0.0941  0.0628  0.1497
  338MOL0     C45561  10.857   4.192   4.568  1.2457  0.6656 -0.1085
  338MOL0     C45562  10.901   4.099   4.454  0.3968  0.5817  0.4222
  338MOL0     H45563  10.328   3.989   4.692  4.2252  2.5212 -1.0609
  338MOL0     H45564  10.119   3.851   4.596 -0.5056  1.3237  1.2081
  338MOL0     H45565  10.048   3.679   4.437 -0.4449  0.2601  0.9502
  338MOL0     H45566   9.932   3.803   4.489  3.0241 -0.3504  2.5893
  338MOL0     H45567   9.806   3.611   4.345  0.5409 -1.2907 -0.2602
  338MOL0     H45568   9.927   3.650   4.233  1.6831 -0.6176  3.2058
  338MOL0     H45569   9.719   3.775   4.174 -0.3383 -1.1486  0.8687
  338MOL0     H45570   9.833   3.897   4.209 -2.1522 -0.8372 -2.4578
  338MOL0     H45571   9.616   3.792   4.404 -0.8309  1.8802  4.6131
  338MOL0     H45572   9.736   3.899   4.450 -1.3530 -2.3124  1.8493
  338MOL0     H45573   9.573   3.975   4.193 -0.8144 -2.1154 -0.0104
  338MOL0     H45574   9.503   3.988   4.353  1.8792  1.0471  1.5317
  338MOL0     H45575   9.674   4.120   4.438  0.9025  1.1361  0.2920
  338MOL0     H45576   9.740   4.130   4.264  1.4333 -0.1566  1.4808
  338MOL0     H45577   9.469   4.223   4.360 -0.9481  3.0893 -0.7454
  338MOL0     H45578   9.532   4.216   4.191  0.7994  2.1715  0.0491
  338MOL0     H45579   9.537   4.439   4.334 -0.0156 -0.1337  1.5257
  338MOL0     H45580   9.676   4.360   4.415  1.0571  1.2468 -0.7454
  338MOL0     H45581   9.886   4.448   4.352 -2.2094  1.2894  0.3476
  338MOL0     H45582  10.119   4.447   4.203  3.6694 -0.7053 -1.4675
  338MOL0     H45583  10.112   4.357   4.051  1.8938  2.5685 -1.7260
  338MOL0     H45584  10.064   4.528   3.929 -1.5255 -2.1399  0.6698
  338MOL0     H45585  10.018   4.639   4.069  0.6855  0.4863  0.5841
  338MOL0     H45586  10.226   4.669   4.139 -2.9887  1.7019 -0.4935
  338MOL0     H45587  10.222   4.719   3.974  1.2261  0.5393 -0.1154
  338MOL0     H45588  10.329   4.494   3.903  0.5183 -1.6601  0.4274
  338MOL0     H45589  10.341   4.463   4.074 -6.3400  1.9210  1.7881
  338MOL0     H45590  10.580   4.391   3.942 -1.3160  0.5873 -0.2449
  338MOL0     H45591  10.769   4.372   3.791 -1.0758 -0.0840 -0.8405
  338MOL0     H45592  11.186   4.773   3.660 -1.1726  1.8144 -1.1899
  338MOL0     H45593  11.375   4.788   3.510  1.8522  0.0799 -2.3887
  338MOL0     H45594  11.387   4.558   3.126  0.7941 -0.8607  3.2407
  338MOL0     H45595  11.349   4.731   3.085 -1.2293 -0.4091 -0.1426
  338MOL0     H45596  11.591   4.801   3.132  1.9861 -0.4477 -0.9208
  338MOL0     H45597  11.624   4.630   3.174 -1.0642 -1.2453 -0.2668
  338MOL0     H45598  11.542   4.565   2.940 -0.9504  0.6930 -1.6170
  338MOL0     H45599  11.530   4.742   2.911  0.0576 -0.4603 -0.9672
  338MOL0     H45600  11.785   4.606   3.009  1.8437 -0.1441 -1.3239
  338MOL0     H45601  11.755   4.779   2.961 -3.4960  1.0019  1.9192
  338MOL0     H45602  11.865   4.672   2.770  1.9666 -2.1898  1.6900
  338MOL0     H45603  11.691   4.670   2.733  0.4693  3.1941  2.7445
  338MOL0     H45604  11.860   4.437   2.838  2.2090 -0.5971 -2.9551
  338MOL0     H45605  11.687   4.428   2.851  2.2338 -0.1124  2.4222
  338MOL0     H45606  11.818   4.327   2.628 -0.3004 -0.1159 -1.8560
  338MOL0     H45607  11.813   4.488   2.575 -2.1733  0.9892 -0.5550
  338MOL0     H45608  11.550   4.490   2.591  0.2059 -0.6723  0.1903
  338MOL0     H45609  11.632   4.372   2.474  2.7547  1.8727  0.1403
  338MOL0     H45610  11.156   4.602   3.186 -0.4185 -0.7384  1.2186
  338MOL0     H45611  10.961   4.587   3.340 -0.0803  1.5311 -1.5271
  338MOL0     H45612  10.761   4.793   3.709  0.9439  0.2200  1.0117
  338MOL0     H45613  10.572   4.814   3.872  0.3626  0.9506 -2.0664
  338MOL0     H45614  10.217   3.982   4.210  1.9997  3.4063 -0.5024
  338MOL0     H45615  10.408   4.124   4.298  2.7943 -1.5486  1.2274
  338MOL0     H45616  10.585   4.271   4.753 -0.6825 -0.7120  0.6324
  338MOL0     H45617  10.744   4.425   4.863  0.9952  3.3059 -2.2121
  338MOL0     H45618  10.929   4.512   4.938  0.0111  1.4678  2.0761
  338MOL0     H45619  10.940   4.630   4.809  1.3648  0.7264 -0.6782
  338MOL0     H45620  11.196   4.620   4.818 -0.9590  1.1758 -0.2823
  338MOL0     H45621  11.177   4.518   4.954  1.4151 -0.2292 -1.4281
  338MOL0     H45622  11.098   4.663   5.112  0.8463  0.5813  0.4613
  338MOL0     H45623  11.054   4.788   4.994 -0.5433 -0.4076  0.5458
  338MOL0     H45624  11.285   4.844   4.941 -3.6622  0.1033 -0.4296
  338MOL0     H45625  11.256   4.869   5.110 -2.7984 -0.2537  0.1275
  338MOL0     H45626  11.526   4.555   5.149 -0.1536 -0.8913 -1.5821
  338MOL0     H45627  11.050   4.288   4.586  0.1343  1.9034  0.1756
  338MOL0     H45628  10.899   3.995   4.487  2.3028  0.7147  1.0604
  338MOL0     H45629  10.842   4.106   4.361  0.7198 -1.9877 -0.0699
  338MOL0     H45630  11.004   4.118   4.424 -0.0956  1.2389 -0.9854
  339MOL0     O45631   1.389   5.958   4.475  0.3371  0.4698 -0.2178
  339MOL0     C45632   1.329   5.999   4.369 -0.3244 -0.3663  0.1155
  339MOL0     O45633   1.368   5.965   4.237 -0.2018 -0.7274  0.5571
  339MOL0     C45634   1.494   5.917   4.211 -0.7660  0.0595  0.1459
  339MOL0     C45635   1.570   5.837   4.299  0.0927 -0.0104 -0.2048
  339MOL0     C45636   1.705   5.814   4.270 -0.3702 -0.1079  0.2074
  339MOL0     C45637   1.761   5.851   4.142 -0.0859 -0.0635  0.3690
  339MOL0     O45638   1.886   5.815   4.104  0.2441  0.0697 -0.7999
  339MOL0     C45639   1.987   5.832   4.197  0.3366 -0.5826  0.1410
  339MOL0     C45640   2.134   5.826   4.144 -0.2523 -0.3505  0.0018
  339MOL0     C45641   2.249   5.796   4.238  0.3336  0.2819 -0.1963
  339MOL0     C45642   2.247   5.647   4.289  0.0301 -0.0480  0.2025
  339MOL0     C45643   2.368   5.619   4.374  0.8731  0.4621  0.3886
  339MOL0     C45644   2.488   5.579   4.280  0.4577 -0.7209  0.0135
  339MOL0     C45645   2.606   5.563   4.376 -0.1993  0.0721 -0.2558
  339MOL0     C45646   2.741   5.541   4.298 -0.0412 -0.2331  0.4167
  339MOL0     N45647   2.858   5.510   4.389  0.1389  0.3691  0.7997
  339MOL0     C45648   2.914   5.599   4.479  0.2934  0.6538 -0.1591
  339MOL0     C45649   3.015   5.530   4.536 -0.6844 -0.5720 -0.6481
  339MOL0     C45650   3.115   5.579   4.648 -0.7720 -0.5427  0.0503
  339MOL0     C45651   3.060   5.640   4.773 -0.4587 -0.3541 -1.3406
  339MOL0     C45652   2.946   5.567   4.837 -0.0118 -0.6944  0.9298
  339MOL0     C45653   2.980   5.436   4.897  0.4540  0.2209 -0.2900
  339MOL0     O45654   3.065   5.453   5.006  0.2445 -0.7266 -0.8198
  339MOL0     C45655   3.173   5.368   5.031  0.9447 -0.3415  0.1587
  339MOL0     C45656   3.254   5.313   4.933  0.7519 -0.1815  0.1138
  339MOL0     C45657   3.363   5.230   4.962  0.5698  0.2596 -1.0838
  339MOL0     C45658   3.394   5.201   5.092  0.1576 -0.2580  0.3622
  339MOL0     C45659   3.494   5.106   5.127  0.3272  0.1128  0.0782
  339MOL0     O45660   3.504   5.073   5.259 -0.4448  0.2380  0.2668
  339MOL0     C45661   3.583   4.969   5.309 -0.0479 -0.4180  0.2819
  339MOL0     C45662   3.578   4.947   5.447 -0.6680  0.4403 -0.5873
  339MOL0     C45663   3.662   4.848   5.511 -0.8349 -0.5860 -0.6889
  339MOL0     C45664   3.724   4.753   5.423  0.4527  0.5608  0.7264
  339MOL0     O45665   3.821   4.671   5.489  0.1290  0.3417  0.3031
  339MOL0     C45666   3.801   4.533   5.458 -0.0681 -0.0320 -0.2865
  339MOL0     C45667   3.867   4.426   5.545  0.3340 -0.6322  0.3872
  339MOL0     C45668   3.847   4.477   5.693 -0.3395 -0.0322  0.0037
  339MOL0     C45669   3.703   4.426   5.740 -0.1577  0.2718 -0.0357
  339MOL0     C45670   3.668   4.449   5.892 -1.6380  0.6630 -0.4638
  339MOL0     C45671   3.736   4.575   5.947 -0.7705 -0.4116 -0.5974
  339MOL0     C45672   3.677   4.613   6.074  0.5786  0.1359 -0.2597
  339MOL0     C45673   3.736   4.741   6.126  0.0823 -0.3031  0.5003
  339MOL0    Cl45674   3.712   4.763   6.289 -0.5294  0.1708  0.2838
  339MOL0     C45675   3.722   4.778   5.288  0.4204 -0.1580 -0.0422
  339MOL0     C45676   3.646   4.877   5.225 -0.8487 -0.9023 -0.5444
  339MOL0     O45677   3.564   5.062   5.040  0.3577 -0.5440 -0.1169
  339MOL0     C45678   3.318   5.264   5.191  0.2585  0.7977  1.0112
  339MOL0     C45679   3.199   5.337   5.168 -1.0561  0.3073 -0.1501
  339MOL0     N45680   3.014   5.404   4.482  0.2070 -0.4842 -0.3671
  339MOL0     N45681   2.924   5.394   4.396  0.4855  0.2504 -0.1109
  339MOL0     C45682   1.680   5.909   4.046  0.3339  0.4697  0.1090
  339MOL0     C45683   1.553   5.958   4.092 -0.0095  0.7782 -0.9917
  339MOL0     C45684   1.195   6.073   4.391  0.1995  0.8738  0.0612
  339MOL0     C45685   1.121   6.041   4.502 -0.3802  0.3433 -0.9832
  339MOL0     C45686   0.991   6.096   4.521 -0.2089 -0.2647 -0.1496
  339MOL0     C45687   0.934   6.176   4.427  0.5459  0.1925  0.0453
  339MOL0     O45688   0.811   6.223   4.427 -0.1073 -0.8866  0.1382
  339MOL0     C45689   0.717   6.184   4.526 -0.4087  0.2108  0.3743
  339MOL0     C45690   0.572   6.232   4.484  0.6941  0.1283 -1.1616
  339MOL0     C45691   0.517   6.170   4.353 -0.4622  0.5591 -0.2711
  339MOL0     C45692   0.420   6.262   4.290 -0.5549 -0.1844  0.7527
  339MOL0     C45693   0.296   6.283   4.378 -0.5391 -1.0337 -0.0934
  339MOL0     C45694   0.204   6.285   4.465 -0.2192  0.7111  0.6062
  339MOL0     C45695   1.010   6.204   4.311  0.1925  0.1760 -0.7961
  339MOL0     C45696   1.140   6.148   4.283  0.3480  0.0379 -0.1717
  339MOL0     C45697   1.206   6.197   4.159  0.1105 -0.1846 -0.4969
  339MOL0     H45698   1.533   5.790   4.389  0.0674 -2.5887 -1.4608
  339MOL0     H45699   1.752   5.751   4.344  1.9446 -1.6258 -2.3808
  339MOL0     H45700   1.976   5.931   4.243 -1.0603  0.2972 -1.9143
  339MOL0     H45701   1.969   5.756   4.274  0.0115 -0.2134  0.4370
  339MOL0     H45702   2.168   5.920   4.100  2.9593 -1.3622  0.0213
  339MOL0     H45703   2.141   5.748   4.067 -1.6504  0.9680 -1.5217
  339MOL0     H45704   2.241   5.865   4.323 -0.8434 -0.1989  0.0916
  339MOL0     H45705   2.346   5.798   4.187 -0.6900 -0.8809 -2.2982
  339MOL0     H45706   2.155   5.639   4.349  0.2347 -0.0042  0.5277
  339MOL0     H45707   2.239   5.578   4.205  0.1627  1.0662 -0.7576
  339MOL0     H45708   2.390   5.709   4.432  1.7216 -0.0643  0.8905
  339MOL0     H45709   2.345   5.534   4.439  1.0461  1.6225  2.0108
  339MOL0     H45710   2.469   5.489   4.221 -0.6904 -0.4930  0.0020
  339MOL0     H45711   2.516   5.654   4.206  2.4565 -0.5247  0.9037
  339MOL0     H45712   2.588   5.486   4.452  0.0941  1.0848  0.8755
  339MOL0     H45713   2.621   5.656   4.432 -1.2713  1.0081 -1.4592
  339MOL0     H45714   2.737   5.467   4.218  2.2156 -2.9222  2.5708
  339MOL0     H45715   2.769   5.632   4.245 -1.3746 -0.7674 -1.2901
  339MOL0     H45716   2.879   5.702   4.490  0.3229  0.8649 -1.8207
  339MOL0     H45717   3.178   5.495   4.678  1.3949  0.2980 -1.7798
  339MOL0     H45718   3.188   5.650   4.607 -1.2983  0.2427  0.4499
  339MOL0     H45719   3.137   5.647   4.850 -0.6044  2.6405 -1.3462
  339MOL0     H45720   3.038   5.745   4.748  1.2786  0.3612 -0.0322
  339MOL0     H45721   2.856   5.560   4.775 -1.5186 -0.7599  3.0108
  339MOL0     H45722   2.906   5.626   4.919  0.3911 -0.0364  0.6639
  339MOL0     H45723   3.040   5.385   4.821  1.0035 -4.7710  3.0153
  339MOL0     H45724   2.890   5.381   4.925  1.4459 -0.6205  1.4150
  339MOL0     H45725   3.227   5.345   4.832 -0.7987  1.4461  0.9817
  339MOL0     H45726   3.422   5.180   4.886  0.3902 -0.6707 -0.6288
  339MOL0     H45727   3.531   5.013   5.519  0.1364 -0.6000  0.9647
  339MOL0     H45728   3.686   4.849   5.617 -0.2744 -1.1134 -0.8003
  339MOL0     H45729   3.692   4.521   5.450 -0.2691  0.7617  1.0527
  339MOL0     H45730   3.842   4.513   5.358  0.3586 -1.9175  0.2206
  339MOL0     H45731   3.826   4.326   5.527 -1.9228  0.3448 -0.3839
  339MOL0     H45732   3.974   4.431   5.526  0.9016  0.7629  3.2928
  339MOL0     H45733   3.931   4.441   5.753  0.6254  1.5988 -0.3213
  339MOL0     H45734   3.851   4.585   5.707  2.5543 -0.0745 -0.0115
  339MOL0     H45735   3.688   4.319   5.720 -3.2187  0.1505  2.2114
  339MOL0     H45736   3.627   4.489   5.694 -1.4091 -0.8582  0.4264
  339MOL0     H45737   3.700   4.366   5.955  1.7055  1.3782 -1.0283
  339MOL0     H45738   3.559   4.458   5.894 -1.8746 -1.5732 -0.6181
  339MOL0     H45739   3.843   4.559   5.959 -1.0229 -0.6229  1.7727
  339MOL0     H45740   3.712   4.660   5.883  2.0924  1.1031  0.1938
  339MOL0     H45741   3.689   4.542   6.155  0.3804  0.8326  0.3948
  339MOL0     H45742   3.573   4.635   6.048  0.1950 -0.9599  0.3200
  339MOL0     H45743   3.842   4.743   6.098 -0.4027 -0.0403 -1.4708
  339MOL0     H45744   3.685   4.823   6.074  0.0553 -0.7483 -0.1892
  339MOL0     H45745   3.785   4.725   5.217 -3.4776 -0.3883 -3.7695
  339MOL0     H45746   3.644   4.865   5.117  0.6883  0.4064 -0.7701
  339MOL0     H45747   3.356   5.247   5.292  0.9146  0.5730  0.7357
  339MOL0     H45748   3.139   5.381   5.247  0.1528  2.2627 -0.2553
  339MOL0     H45749   1.708   5.927   3.943  0.6285 -0.5424  0.0058
  339MOL0     H45750   1.492   6.018   4.025 -1.5094  1.1112  0.5776
  339MOL0     H45751   1.138   5.969   4.582 -2.4639 -0.4261 -1.1929
  339MOL0     H45752   0.938   6.065   4.610  2.6385 -1.4762  1.2385
  339MOL0     H45753   0.751   6.242   4.613 -0.8115 -2.0668  2.1361
  339MOL0     H45754   0.723   6.076   4.541  1.0338 -0.1931 -2.3735
  339MOL0     H45755   0.571   6.338   4.457  0.1267 -0.6147 -4.5593
  339MOL0     H45756   0.502   6.216   4.567  1.2022  0.0632 -0.7405
  339MOL0     H45757   0.468   6.074   4.372 -1.3745  0.8246 -1.1469
  339MOL0     H45758   0.604   6.154   4.288  0.3627  0.1922  0.8998
  339MOL0     H45759   0.474   6.354   4.266  0.1268 -0.8265 -0.2535
  339MOL0     H45760   0.392   6.216   4.195  1.5137  0.7668 -0.3779
  339MOL0     H45761   0.131   6.262   4.540  1.9976  2.2375  3.4134
  339MOL0     H45762   0.966   6.259   4.229 -2.0596 -0.9296 -0.4080
  339MOL0     H45763   1.170   6.298   4.138  0.2456 -0.1883 -0.7491
  339MOL0     H45764   1.313   6.218   4.169  0.8323 -3.0725 -1.1860
  339MOL0     H45765   1.170   6.124   4.086 -2.4661 -0.5687  1.0400
  340MOL0     O45766   0.499  11.317   0.998 -0.1179 -0.0570  0.6574
  340MOL0     C45767   0.546  11.206   0.988 -0.5856  0.5043  0.3906
  340MOL0     O45768   0.522  11.130   0.871 -0.1069  0.1445  0.2809
  340MOL0     C45769   0.395  11.138   0.829  0.5289 -0.6995  0.2749
  340MOL0     C45770   0.372  11.219   0.721 -0.4046 -0.5101  0.4144
  340MOL0     C45771   0.247  11.243   0.663  0.3534  0.3831 -0.1331
  340MOL0     C45772   0.141  11.156   0.707 -1.3995 -0.1324  0.6235
  340MOL0     O45773   0.022  11.188   0.675 -0.1915  0.0643  0.0226
  340MOL0     C45774  -0.022  11.317   0.711 -0.1610  0.8327 -0.7199
  340MOL0     C45775  -0.172  11.308   0.701 -0.4462 -0.1413 -0.3963
  340MOL0     C45776  -0.249  11.252   0.826  0.1052  0.8889  0.4782
  340MOL0     C45777  -0.275  11.097   0.820 -0.8761 -0.5616  0.2968
  340MOL0     C45778  -0.431  11.074   0.835 -0.6454 -0.6286 -0.8418
  340MOL0     C45779  -0.466  10.928   0.845 -0.4631 -0.7117  0.1234
  340MOL0     C45780  -0.618  10.904   0.837  0.2272  0.1926  0.0802
  340MOL0     C45781  -0.688  10.982   0.723  0.7547 -1.3873 -0.2357
  340MOL0     N45782  -0.817  10.922   0.692 -0.3319 -0.3447 -0.0431
  340MOL0     C45783  -0.940  10.946   0.745 -0.4859  0.1017 -0.5047
  340MOL0     C45784  -1.031  10.867   0.681 -0.3563 -0.4679  0.1754
  340MOL0     C45785  -1.179  10.851   0.710  0.2346  0.0031  0.4277
  340MOL0     C45786  -1.192  10.752   0.834  0.1626 -0.0982  1.1492
  340MOL0     C45787  -1.200  10.608   0.781 -0.1146 -0.0284  0.1122
  340MOL0     C45788  -1.141  10.497   0.881 -0.4007  0.3724 -0.6227
  340MOL0     O45789  -0.997  10.502   0.884  0.0406 -0.4626 -0.3830
  340MOL0     C45790  -0.943  10.419   0.792 -0.5885 -0.3009 -0.2202
  340MOL0     C45791  -0.960  10.280   0.802  0.6227  0.1228  0.5775
  340MOL0     C45792  -0.911  10.197   0.696  0.3076 -0.4764  0.3651
  340MOL0     C45793  -0.842  10.255   0.589  0.3971 -0.0806  0.7537
  340MOL0     C45794  -0.796  10.172   0.476 -0.3532  0.1352 -0.1702
  340MOL0     O45795  -0.719  10.231   0.383 -0.7986  0.5243  0.0613
  340MOL0     C45796  -0.643  10.137   0.312 -1.2666 -0.5097 -0.3000
  340MOL0     C45797  -0.644  10.166   0.180  0.0249 -0.2783  0.5192
  340MOL0     C45798  -0.561  10.094   0.097  0.3134  0.1365  0.0918
  340MOL0     C45799  -0.486   9.991   0.139 -0.1914 -0.1479  0.4372
  340MOL0     O45800  -0.413   9.916   0.052 -0.2045 -0.1778  0.2318
  340MOL0     C45801  -0.312   9.972  -0.024 -0.1171 -0.6214  0.0078
  340MOL0     C45802  -0.221   9.854  -0.070  0.3127  0.1635 -0.5268
  340MOL0     C45803  -0.289   9.738  -0.137 -0.4481 -0.8332 -0.1491
  340MOL0     C45804  -0.264   9.736  -0.284  0.3940 -0.3378 -0.7825
  340MOL0     C45805  -0.319   9.611  -0.354  0.2360 -0.0790  0.2376
  340MOL0     C45806  -0.261   9.619  -0.499  0.1291 -0.2798  0.5507
  340MOL0     C45807  -0.133   9.541  -0.512  0.7233  0.4087 -1.2544
  340MOL0     C45808  -0.087   9.531  -0.653  0.5306 -0.1439 -0.0259
  340MOL0    Cl45809   0.059   9.418  -0.660  0.0883 -0.3466  0.3114
  340MOL0     C45810  -0.490   9.964   0.280 -0.1809 -0.4242  0.1686
  340MOL0     C45811  -0.567  10.043   0.369 -0.4720  0.1463 -0.2824
  340MOL0     O45812  -0.832  10.056   0.484  0.0877 -1.1404 -0.2181
  340MOL0     C45813  -0.815  10.396   0.584  0.4605  1.1038  0.0515
  340MOL0     C45814  -0.867  10.475   0.692  0.3563 -0.4095 -0.0642
  340MOL0     N45815  -0.964  10.800   0.579  0.2511 -0.0443 -0.0117
  340MOL0     N45816  -0.836  10.831   0.592 -1.0110  0.1906 -0.0010
  340MOL0     C45817   0.163  11.067   0.808  0.1379  0.9935 -0.0777
  340MOL0     C45818   0.287  11.054   0.868 -0.0993 -0.7091  0.3818
  340MOL0     C45819   0.664  11.173   1.076  0.0395  0.3973 -0.2318
  340MOL0     C45820   0.738  11.281   1.134 -0.5735  0.1568  0.3771
  340MOL0     C45821   0.828  11.242   1.240  0.7918  0.6016  0.0867
  340MOL0     C45822   0.835  11.113   1.288  0.4039  0.5476  0.6184
  340MOL0     O45823   0.923  11.104   1.389 -0.6377 -0.0329 -0.5949
  340MOL0     C45824   0.939  10.984   1.464 -1.0631  1.3679  0.5462
  340MOL0     C45825   1.058  11.000   1.568 -0.7704  0.3669  0.2947
  340MOL0     C45826   1.192  11.029   1.508 -0.1623 -0.0969  0.0108
  340MOL0     C45827   1.283  11.067   1.613 -0.2318 -0.7749 -0.2572
  340MOL0     C45828   1.274  11.207   1.626  0.6059 -0.7391 -0.3403
  340MOL0     C45829   1.266  11.325   1.606  0.6871 -0.1248  0.4818
  340MOL0     C45830   0.752  11.014   1.238 -0.1644  0.1286 -0.2236
  340MOL0     C45831   0.669  11.043   1.135  0.4355 -0.5076  0.0835
  340MOL0     C45832   0.577  10.934   1.078 -0.2276 -0.1383 -0.6773
  340MOL0     H45833   0.452  11.282   0.682 -1.0866 -0.9262 -1.7940
  340MOL0     H45834   0.223  11.321   0.592  1.4228  0.9730  0.1285
  340MOL0     H45835   0.004  11.339   0.815 -1.4396  0.4048 -0.2871
  340MOL0     H45836   0.025  11.395   0.650 -1.9335  0.9171 -2.0599
  340MOL0     H45837  -0.200  11.263   0.605  0.4180 -1.1141 -0.2113
  340MOL0     H45838  -0.203  11.412   0.690  0.9063  0.0598 -3.2150
  340MOL0     H45839  -0.339  11.314   0.822  0.7267  1.8058  0.2695
  340MOL0     H45840  -0.199  11.278   0.919 -0.7873  2.6230  0.5288
  340MOL0     H45841  -0.235  11.050   0.729  2.4154  2.1664  0.1582
  340MOL0     H45842  -0.217  11.064   0.907  0.6279  0.1742 -0.4040
  340MOL0     H45843  -0.473  11.124   0.923 -0.8150 -0.3178 -1.0973
  340MOL0     H45844  -0.484  11.127   0.756 -3.7241 -0.1632  1.3419
  340MOL0     H45845  -0.417  10.879   0.761  1.3436 -0.3359  0.9048
  340MOL0     H45846  -0.420  10.884   0.934 -1.9477 -4.2364 -0.7186
  340MOL0     H45847  -0.659  10.948   0.929 -1.5210  0.7268 -0.9178
  340MOL0     H45848  -0.649  10.799   0.836  0.9123 -0.1328  3.0779
  340MOL0     H45849  -0.716  11.083   0.752  1.1466 -1.5374  0.7175
  340MOL0     H45850  -0.631  10.984   0.629  4.2368  2.4620  1.6625
  340MOL0     H45851  -0.960  11.006   0.833 -2.8888 -3.6796  1.8189
  340MOL0     H45852  -1.227  10.945   0.739 -1.2940 -0.8708  0.8917
  340MOL0     H45853  -1.228  10.802   0.625  0.3975 -0.3149  0.5133
  340MOL0     H45854  -1.101  10.766   0.894  1.5391 -2.5256 -0.2156
  340MOL0     H45855  -1.287  10.766   0.886 -1.0700 -2.5802 -0.2390
  340MOL0     H45856  -1.146  10.600   0.686  0.2875 -0.2576  0.3574
  340MOL0     H45857  -1.305  10.587   0.761  0.1569 -0.9696 -0.3906
  340MOL0     H45858  -1.174  10.394   0.867 -1.9546  0.9752 -1.5819
  340MOL0     H45859  -1.190  10.522   0.975 -2.7779 -0.6207 -1.5247
  340MOL0     H45860  -1.017  10.232   0.881  0.4390  0.0150  0.3823
  340MOL0     H45861  -0.931  10.092   0.715 -1.4313  0.0654  1.8756
  340MOL0     H45862  -0.694  10.251   0.137 -0.5061 -0.2416  1.1835
  340MOL0     H45863  -0.551  10.138  -0.002  0.2864  0.7060  0.3331
  340MOL0     H45864  -0.351  10.043  -0.098  3.0653  2.2556  0.8034
  340MOL0     H45865  -0.255  10.035   0.046 -0.9352  1.4563 -1.1021
  340MOL0     H45866  -0.142   9.898  -0.132  2.5378 -0.6901  1.5584
  340MOL0     H45867  -0.188   9.814   0.026 -0.7771 -1.8632 -0.9499
  340MOL0     H45868  -0.235   9.651  -0.099  3.1564  0.8492 -0.9697
  340MOL0     H45869  -0.396   9.746  -0.117  0.0336  3.7933  1.9386
  340MOL0     H45870  -0.156   9.735  -0.300  0.4592  0.5203 -0.4547
  340MOL0     H45871  -0.304   9.822  -0.339 -0.3133 -1.5718 -2.2572
  340MOL0     H45872  -0.429   9.620  -0.354  0.3356  1.6578  1.3716
  340MOL0     H45873  -0.284   9.525  -0.296  0.2232 -0.5976 -0.5123
  340MOL0     H45874  -0.340   9.576  -0.561  1.0004 -1.4786  0.2433
  340MOL0     H45875  -0.244   9.723  -0.529  2.3979 -0.3035  1.5183
  340MOL0     H45876  -0.165   9.441  -0.483 -2.1974  1.8634  1.1924
  340MOL0     H45877  -0.054   9.575  -0.444 -0.7537  0.0999  0.6978
  340MOL0     H45878  -0.171   9.494  -0.712  0.8406 -2.0931  0.6864
  340MOL0     H45879  -0.052   9.625  -0.697  0.4750  0.5951  1.4527
  340MOL0     H45880  -0.426   9.883   0.314  0.4626 -1.1793 -2.5357
  340MOL0     H45881  -0.554  10.029   0.475 -1.9114  2.0252  0.1958
  340MOL0     H45882  -0.746  10.443   0.514  0.3596  0.6259 -0.3740
  340MOL0     H45883  -0.850  10.582   0.702 -2.4046 -0.1272  3.8631
  340MOL0     H45884   0.082  11.001   0.840  0.0373  1.7000  1.1840
  340MOL0     H45885   0.290  10.994   0.958  1.0100  0.4216  1.1127
  340MOL0     H45886   0.739  11.385   1.105 -2.7009  1.5900  4.5075
  340MOL0     H45887   0.894  11.317   1.283  2.0887 -0.0466 -0.7023
  340MOL0     H45888   0.970  10.898   1.404  1.0164  0.7255  2.4341
  340MOL0     H45889   0.849  10.961   1.522 -0.4664  0.3314  1.0773
  340MOL0     H45890   1.071  10.907   1.624  1.7759  0.9150  0.7289
  340MOL0     H45891   1.038  11.076   1.645 -0.7253  0.1114  0.5625
  340MOL0     H45892   1.194  11.112   1.436  0.2313 -0.0174  0.1146
  340MOL0     H45893   1.226  10.941   1.452 -0.7329 -0.3508  0.0555
  340MOL0     H45894   1.265  11.027   1.713  1.7205 -0.1160  0.4097
  340MOL0     H45895   1.387  11.042   1.590  0.4435  1.6445 -0.1741
  340MOL0     H45896   1.242  11.414   1.551  2.6950 -1.1234 -2.2018
  340MOL0     H45897   0.758  10.908   1.259 -2.9949 -0.6576 -2.6600
  340MOL0     H45898   0.474  10.972   1.074  0.5531  2.2146 -0.0356
  340MOL0     H45899   0.605  10.917   0.974 -0.8316 -0.5042 -0.7887
  340MOL0     H45900   0.581  10.839   1.131  3.6368  0.9568  1.3535
  341MOL0     O45901   8.383  11.070   8.047  0.0752 -0.6026 -0.2874
  341MOL0     C45902   8.403  11.108   8.160 -0.2857  0.5204  0.3384
  341MOL0     O45903   8.316  11.182   8.239 -0.9018 -0.2884  0.6732
  341MOL0     C45904   8.232  11.266   8.170  0.2995 -0.0422  0.3414
  341MOL0     C45905   8.274  11.357   8.076 -0.1997  0.1810 -0.0857
  341MOL0     C45906   8.191  11.460   8.033  1.1488 -0.2544 -0.3123
  341MOL0     C45907   8.059  11.478   8.085 -0.2166 -0.2234  0.6231
  341MOL0     O45908   7.972  11.574   8.042 -0.5865 -1.1819 -0.1079
  341MOL0     C45909   7.836  11.540   8.043  0.1661  0.2550 -1.1642
  341MOL0     C45910   7.760  11.628   7.953  0.0057 -0.1599 -0.1473
  341MOL0     C45911   7.612  11.579   7.931  0.6446 -0.1496  0.2120
  341MOL0     C45912   7.529  11.656   7.825 -0.1953 -0.6282  0.4924
  341MOL0     C45913   7.387  11.600   7.800 -0.0528  0.5463  0.4717
  341MOL0     C45914   7.286  11.704   7.739  0.0901  0.8174 -0.3695
  341MOL0     C45915   7.147  11.656   7.738 -0.6898 -0.3698 -0.5061
  341MOL0     C45916   7.061  11.758   7.658  0.1232  0.1224  0.3307
  341MOL0     N45917   6.916  11.727   7.666  0.2101  0.3168 -0.6029
  341MOL0     C45918   6.835  11.706   7.552 -0.3831  0.3546 -0.1921
  341MOL0     C45919   6.709  11.732   7.592  0.5142 -0.3177  0.1407
  341MOL0     C45920   6.580  11.708   7.517 -0.7419  0.1313 -0.6828
  341MOL0     C45921   6.513  11.838   7.470  0.6209 -1.0291 -0.5833
  341MOL0     C45922   6.581  11.917   7.360  0.1246  0.3385  0.3355
  341MOL0     C45923   6.497  12.033   7.324 -0.5664  0.1884  1.0479
  341MOL0     O45924   6.372  12.003   7.261  0.2390 -0.2650 -0.0504
  341MOL0     C45925   6.289  12.109   7.236  0.1724  0.8288 -0.4778
  341MOL0     C45926   6.152  12.067   7.217 -0.1335 -0.0442 -0.7199
  341MOL0     C45927   6.056  12.163   7.158 -0.3534 -0.1857 -0.6213
  341MOL0     C45928   6.088  12.293   7.122 -0.1150  0.4178  0.8408
  341MOL0     C45929   5.979  12.373   7.053  0.2120 -0.5524  0.6006
  341MOL0     O45930   5.853  12.344   7.074  0.3676 -0.5757 -0.8478
  341MOL0     C45931   5.746  12.430   7.041  0.2048  0.4092  0.3727
  341MOL0     C45932   5.704  12.464   6.909 -0.5872 -0.1431 -0.3238
  341MOL0     C45933   5.592  12.549   6.885 -0.5670 -0.3056 -0.2008
  341MOL0     C45934   5.519  12.593   6.995 -0.9003  0.6297 -0.1644
  341MOL0     O45935   5.401  12.657   6.973 -0.3071 -0.4825 -0.3062
  341MOL0     C45936   5.308  12.685   7.087  0.0702  0.2709 -0.2391
  341MOL0     C45937   5.162  12.700   7.048 -0.6835  0.0124 -0.1203
  341MOL0     C45938   5.072  12.746   7.160  0.5903 -0.1893  0.3882
  341MOL0     C45939   4.914  12.735   7.126  0.2448 -0.7821 -0.1441
  341MOL0     C45940   4.820  12.762   7.249  0.6025  0.7764 -0.0291
  341MOL0     C45941   4.674  12.788   7.215  0.1503  0.2053  0.5109
  341MOL0     C45942   4.575  12.795   7.326 -0.2313  0.0177  0.7073
  341MOL0     C45943   4.551  12.664   7.403  0.0801  0.4316 -0.1794
  341MOL0    Cl45944   4.495  12.539   7.298  0.4530  0.2892  0.2087
  341MOL0     C45945   5.580  12.579   7.122 -0.1715  0.0136 -0.8430
  341MOL0     C45946   5.684  12.493   7.150  0.2771 -0.5839 -0.1266
  341MOL0     O45947   6.017  12.476   6.998  1.1381 -0.4857  0.1362
  341MOL0     C45948   6.219  12.330   7.141 -0.5883 -0.0420  0.1623
  341MOL0     C45949   6.313  12.243   7.210 -0.0061 -0.5113  0.0398
  341MOL0     N45950   6.705  11.755   7.730  0.7400 -0.2981  0.1485
  341MOL0     N45951   6.829  11.758   7.767  0.9056 -0.1138  0.1046
  341MOL0     C45952   8.022  11.388   8.188  0.0920  0.4262  1.0874
  341MOL0     C45953   8.109  11.286   8.222  0.7824 -0.6788 -0.8206
  341MOL0     C45954   8.534  11.065   8.223  0.1367  0.1675 -0.1247
  341MOL0     C45955   8.531  11.015   8.349 -0.1825 -0.8460 -0.0735
  341MOL0     C45956   8.647  10.955   8.404  0.6730  1.6430 -0.0888
  341MOL0     C45957   8.777  10.965   8.345  0.8006  0.4150  0.9109
  341MOL0     O45958   8.887  10.904   8.400  0.1148  0.3355 -0.8166
  341MOL0     C45959   8.888  10.774   8.464  0.2935 -0.9394  0.0437
  341MOL0     C45960   9.014  10.697   8.413  0.7315 -0.6921 -0.5255
  341MOL0     C45961   9.021  10.560   8.475  0.2555 -0.0541  0.3432
  341MOL0     C45962   9.049  10.562   8.626  0.4038  0.6186  0.2497
  341MOL0     C45963   9.180  10.614   8.669  0.1113 -0.2265 -0.1144
  341MOL0     C45964   9.291  10.651   8.690 -0.1563 -0.0134 -0.5772
  341MOL0     C45965   8.780  11.038   8.222 -0.1031 -0.0993 -0.3106
  341MOL0     C45966   8.658  11.075   8.153  0.3476  0.3058  0.3886
  341MOL0     C45967   8.680  11.136   8.019  0.6545  0.2345  0.0901
  341MOL0     H45968   8.370  11.356   8.025  0.2750  1.4758  0.7388
  341MOL0     H45969   8.227  11.533   7.961  1.3799 -2.3313 -2.4449
  341MOL0     H45970   7.824  11.438   8.005  1.0245 -0.1307 -0.4273
  341MOL0     H45971   7.785  11.551   8.139 -1.1031  0.0806 -1.7966
  341MOL0     H45972   7.810  11.644   7.857  0.0877  1.2109  0.1056
  341MOL0     H45973   7.762  11.730   7.994  3.1546 -0.9283  1.9982
  341MOL0     H45974   7.561  11.582   8.027  0.5160  0.9901  0.1203
  341MOL0     H45975   7.605  11.476   7.894 -1.4580  0.5182 -1.4679
  341MOL0     H45976   7.510  11.760   7.853 -1.0021  0.2988 -3.0178
  341MOL0     H45977   7.586  11.656   7.732  2.3713  0.8366  1.9735
  341MOL0     H45978   7.385  11.507   7.743  0.8155 -0.2533  1.7130
  341MOL0     H45979   7.359  11.575   7.902  0.6627  0.7160  0.7114
  341MOL0     H45980   7.283  11.797   7.796 -3.2567 -0.3195  1.5446
  341MOL0     H45981   7.321  11.736   7.640 -3.4183  2.0127 -1.3808
  341MOL0     H45982   7.111  11.669   7.841  1.7968 -1.4263  0.5795
  341MOL0     H45983   7.137  11.550   7.714  2.9268 -0.6019 -1.4871
  341MOL0     H45984   7.082  11.857   7.699 -0.6047  0.3684  0.1194
  341MOL0     H45985   7.088  11.766   7.552  2.2354  4.3014  0.9713
  341MOL0     H45986   6.868  11.685   7.451  0.4368  0.0281  0.1381
  341MOL0     H45987   6.611  11.649   7.430  1.1983 -0.0198  0.0696
  341MOL0     H45988   6.505  11.654   7.575  0.3211 -0.9503 -0.2856
  341MOL0     H45989   6.409  11.833   7.437  0.1112  0.3744  0.6820
  341MOL0     H45990   6.503  11.903   7.557  0.6237 -0.0894 -1.2630
  341MOL0     H45991   6.603  11.855   7.273  0.1397  2.3554 -1.1760
  341MOL0     H45992   6.677  11.951   7.401  1.2628  0.5466 -2.3151
  341MOL0     H45993   6.561  12.084   7.252 -1.1058 -0.3884  0.1437
  341MOL0     H45994   6.487  12.100   7.410 -1.0833 -1.4199  2.3039
  341MOL0     H45995   6.114  11.968   7.237 -0.7199  0.3100 -0.0575
  341MOL0     H45996   5.958  12.125   7.130  0.9135 -2.0205 -2.7931
  341MOL0     H45997   5.741  12.415   6.820  1.9626 -1.0483  1.1446
  341MOL0     H45998   5.551  12.577   6.789  2.3194 -2.7048 -2.3375
  341MOL0     H45999   5.315  12.602   7.158  0.5230  0.8875  0.4572
  341MOL0     H46000   5.337  12.777   7.139 -1.0263 -0.4208  1.7372
  341MOL0     H46001   5.147  12.753   6.954 -0.3105  0.0191 -0.1749
  341MOL0     H46002   5.125  12.599   7.026 -2.8388  1.1036 -1.9597
  341MOL0     H46003   5.084  12.684   7.248 -3.6462 -2.8216 -0.6098
  341MOL0     H46004   5.103  12.845   7.196 -0.6202  0.9102 -1.3829
  341MOL0     H46005   4.900  12.634   7.087  1.4817 -0.1590 -2.4037
  341MOL0     H46006   4.887  12.805   7.047 -1.4647  1.1396  2.0165
  341MOL0     H46007   4.849  12.860   7.287 -1.3892  1.4962 -0.2432
  341MOL0     H46008   4.833  12.683   7.324  0.8146  0.1900 -0.6668
  341MOL0     H46009   4.674  12.888   7.170  0.0151 -0.5264 -1.1695
  341MOL0     H46010   4.643  12.716   7.139  1.1249 -0.4441  0.7082
  341MOL0     H46011   4.485  12.814   7.267  1.0535  4.0309 -0.2282
  341MOL0     H46012   4.589  12.880   7.394 -0.0393 -0.3468  1.1333
  341MOL0     H46013   4.642  12.631   7.455  0.8967  0.5934 -1.4648
  341MOL0     H46014   4.478  12.689   7.481  0.4083  0.4641  0.1234
  341MOL0     H46015   5.533  12.629   7.207  1.8592 -0.4757  0.6476
  341MOL0     H46016   5.703  12.488   7.256 -0.4634 -1.6905 -0.0279
  341MOL0     H46017   6.263  12.426   7.113  0.5935 -1.1231 -1.9326
  341MOL0     H46018   6.411  12.281   7.235  0.5474 -0.1323 -2.4661
  341MOL0     H46019   7.924  11.391   8.235 -1.4421  0.1454 -1.8020
  341MOL0     H46020   8.076  11.215   8.297 -0.6924 -0.3377 -1.1175
  341MOL0     H46021   8.432  11.013   8.393 -0.9717  1.4030 -1.5558
  341MOL0     H46022   8.641  10.913   8.504  1.1487  0.8029 -0.4020
  341MOL0     H46023   8.802  10.714   8.433  0.5573  0.3669 -3.6917
  341MOL0     H46024   8.895  10.778   8.574 -1.2032 -1.0973  0.1680
  341MOL0     H46025   9.106  10.757   8.412  0.4670 -0.2786 -1.0414
  341MOL0     H46026   8.996  10.682   8.306 -0.7358 -0.1328 -0.3914
  341MOL0     H46027   9.106  10.512   8.427 -0.6796 -0.9427 -0.4675
  341MOL0     H46028   8.932  10.499   8.456 -0.0239  0.0575  1.2342
  341MOL0     H46029   8.977  10.620   8.685 -1.5981 -0.8729 -0.6073
  341MOL0     H46030   9.033  10.465   8.672 -2.8490  1.8672  2.0770
  341MOL0     H46031   9.388  10.695   8.698 -0.0046 -0.3925 -0.2751
  341MOL0     H46032   8.875  11.052   8.172  1.4335  2.0847  2.8641
  341MOL0     H46033   8.668  11.063   7.938  2.7001 -0.1297  0.0675
  341MOL0     H46034   8.600  11.210   8.028  1.0234  0.5645  0.6901
  341MOL0     H46035   8.772  11.192   8.002  0.5478  0.4661  0.2645
  342MOL0     O46036   2.769   3.419   3.822 -0.1453  0.0254 -0.5901
  342MOL0     C46037   2.685   3.352   3.884  0.2196 -0.0866 -0.7585
  342MOL0     O46038   2.724   3.280   3.993 -0.0125  0.6216 -0.5034
  342MOL0     C46039   2.853   3.226   4.007  0.5238 -0.7568  0.3804
  342MOL0     C46040   2.923   3.208   4.123 -0.0821 -0.1107 -0.3131
  342MOL0     C46041   3.055   3.147   4.122  0.4017  0.2217 -0.5089
  342MOL0     C46042   3.114   3.089   4.010 -0.3313  0.1638  0.1066
  342MOL0     O46043   3.236   3.028   4.001 -0.2560  0.2576  0.0384
  342MOL0     C46044   3.342   3.072   4.097  0.1665 -0.1705  0.0453
  342MOL0     C46045   3.455   2.980   4.102 -0.0475  0.3526  0.3168
  342MOL0     C46046   3.592   3.046   4.122  0.6114  0.3458 -0.3207
  342MOL0     C46047   3.684   2.935   4.175  0.9421 -0.5877  0.5868
  342MOL0     C46048   3.835   2.974   4.185 -0.1691 -0.3155  0.5059
  342MOL0     C46049   3.877   3.048   4.312 -0.2487  0.5969  1.0846
  342MOL0     C46050   4.037   3.052   4.317  0.0375 -0.1998 -0.5960
  342MOL0     C46051   4.095   3.173   4.235 -0.0034  0.4143 -0.3108
  342MOL0     N46052   4.235   3.192   4.267 -0.5742 -0.9405  0.4948
  342MOL0     C46053   4.283   3.315   4.319 -0.5858 -0.1653  0.2634
  342MOL0     C46054   4.417   3.311   4.302 -0.1239  0.0195  0.3881
  342MOL0     C46055   4.501   3.424   4.332 -0.5745 -0.2753 -0.7251
  342MOL0     C46056   4.638   3.397   4.411  0.7006  0.5798  0.2508
  342MOL0     C46057   4.746   3.335   4.317 -0.5467  0.2386  0.4876
  342MOL0     C46058   4.775   3.189   4.322  1.3653  0.3515  0.1018
  342MOL0     O46059   4.856   3.148   4.224 -0.4024 -0.1287  0.1690
  342MOL0     C46060   4.904   3.022   4.217 -0.7004 -0.2017 -0.3765
  342MOL0     C46061   5.006   2.999   4.126 -0.3968 -0.0579 -0.8094
  342MOL0     C46062   5.069   2.870   4.125  1.0375 -0.5522 -0.2047
  342MOL0     C46063   5.020   2.764   4.202  0.3939  0.1808  0.3905
  342MOL0     C46064   5.082   2.626   4.185 -0.4983 -0.6346 -0.6381
  342MOL0     O46065   5.152   2.610   4.078  0.2732 -0.1663 -0.0625
  342MOL0     C46066   5.222   2.498   4.050 -0.3520 -0.2774  0.3845
  342MOL0     C46067   5.166   2.376   4.024  0.0094  0.4736 -1.1295
  342MOL0     C46068   5.238   2.261   3.991  0.6003 -0.0007  0.6760
  342MOL0     C46069   5.373   2.255   4.014  0.2110 -1.1023  0.8883
  342MOL0     O46070   5.452   2.146   3.992  0.1928  0.7572 -0.0457
  342MOL0     C46071   5.588   2.140   4.031  0.1833  1.0577 -0.0586
  342MOL0     C46072   5.646   2.005   3.998  0.5668 -0.2819  0.1919
  342MOL0     C46073   5.795   1.996   4.051  0.3391 -0.1469 -0.6391
  342MOL0     C46074   5.891   2.087   3.982 -0.9734  0.3287 -0.7848
  342MOL0     C46075   6.036   2.074   4.018 -0.3535 -0.9019  0.0740
  342MOL0     C46076   6.058   2.073   4.173 -0.7442  0.2543  0.2105
  342MOL0     C46077   6.208   2.076   4.217  1.2138  0.3910 -0.3609
  342MOL0     C46078   6.272   2.216   4.205 -0.2410 -0.1777 -0.3445
  342MOL0    Cl46079   6.177   2.348   4.286 -0.5695  0.3934  0.0289
  342MOL0     C46080   5.428   2.380   4.042 -0.5794 -0.7845  0.3370
  342MOL0     C46081   5.360   2.497   4.057 -0.2413  0.6260 -0.5190
  342MOL0     O46082   5.051   2.542   4.266  0.3144  0.1910 -0.1032
  342MOL0     C46083   4.917   2.786   4.296 -0.0387 -0.3953 -0.2230
  342MOL0     C46084   4.865   2.913   4.298  0.2013 -0.4429 -0.0684
  342MOL0     N46085   4.445   3.187   4.243  0.3891  0.0850  0.6053
  342MOL0     N46086   4.338   3.119   4.213 -0.6100 -0.0343  0.0988
  342MOL0     C46087   3.040   3.107   3.895 -0.1857  0.1579  0.6474
  342MOL0     C46088   2.913   3.165   3.894  1.1293 -0.4106 -0.7683
  342MOL0     C46089   2.536   3.351   3.849 -0.8971 -0.9073 -0.5534
  342MOL0     C46090   2.452   3.294   3.942  0.0753  0.4675  0.2707
  342MOL0     C46091   2.314   3.285   3.922 -1.1928  1.0038 -0.1259
  342MOL0     C46092   2.255   3.352   3.817  0.7289  0.6616  0.0788
  342MOL0     O46093   2.118   3.335   3.807 -0.2246  0.7042  0.0168
  342MOL0     C46094   2.072   3.333   3.672 -0.3915 -0.2386  1.1350
  342MOL0     C46095   1.927   3.288   3.665 -0.8399 -0.5277 -0.8764
  342MOL0     C46096   1.818   3.365   3.741 -0.4436  0.6302 -0.4233
  342MOL0     C46097   1.683   3.293   3.726  0.2698 -0.0214  0.1088
  342MOL0     C46098   1.633   3.292   3.597  0.2114  0.5105  0.7825
  342MOL0     C46099   1.597   3.302   3.480  0.0162  0.3905 -0.0886
  342MOL0     C46100   2.328   3.429   3.739 -0.1731 -0.3237  0.1747
  342MOL0     C46101   2.471   3.427   3.750  0.0460  0.4030  0.0594
  342MOL0     C46102   2.545   3.549   3.676  0.2517 -0.1010  0.1656
  342MOL0     H46103   2.893   3.256   4.216 -0.3152  1.4122 -1.1445
  342MOL0     H46104   3.105   3.135   4.217 -2.1799  2.9759  1.3363
  342MOL0     H46105   3.369   3.175   4.072 -3.8208  1.1738  0.5408
  342MOL0     H46106   3.292   3.083   4.194 -2.3686 -1.6095 -1.0165
  342MOL0     H46107   3.455   2.930   4.004  2.1125  0.2234  0.3340
  342MOL0     H46108   3.437   2.917   4.189 -0.1092  2.1865  1.6948
  342MOL0     H46109   3.579   3.122   4.199 -1.7443 -3.1825  3.1454
  342MOL0     H46110   3.632   3.086   4.028 -1.1795  0.8447 -0.9006
  342MOL0     H46111   3.640   2.924   4.275  2.0077  3.7124  1.7736
  342MOL0     H46112   3.685   2.840   4.122 -0.5072 -1.1314  1.4720
  342MOL0     H46113   3.895   2.883   4.174 -0.5360 -0.5262  0.1815
  342MOL0     H46114   3.873   3.026   4.096 -0.9429 -2.6579 -1.3065
  342MOL0     H46115   3.828   3.145   4.312  1.6208  1.5839  1.9826
  342MOL0     H46116   3.850   2.995   4.404  1.2484  1.2428  1.9245
  342MOL0     H46117   4.076   2.955   4.283 -0.3060  0.2301 -2.3485
  342MOL0     H46118   4.058   3.080   4.420  0.6575 -0.7433 -0.5708
  342MOL0     H46119   4.084   3.156   4.128 -1.8994  2.1134 -0.4499
  342MOL0     H46120   4.034   3.261   4.258  0.3957  0.5649  0.2101
  342MOL0     H46121   4.228   3.399   4.360 -0.8304  0.5010 -1.3786
  342MOL0     H46122   4.527   3.471   4.237  1.1623  0.3315  0.0114
  342MOL0     H46123   4.451   3.499   4.394  0.8327 -1.8725  2.6141
  342MOL0     H46124   4.680   3.495   4.435  1.7418 -0.2296  1.9129
  342MOL0     H46125   4.623   3.331   4.498  0.9940 -0.8845 -0.7739
  342MOL0     H46126   4.844   3.385   4.321  1.0350 -2.5673 -0.4824
  342MOL0     H46127   4.718   3.353   4.213 -1.5961 -3.0415  0.0981
  342MOL0     H46128   4.683   3.130   4.324  0.9299  1.0409  0.5683
  342MOL0     H46129   4.829   3.175   4.417 -0.1517  0.1978  0.9659
  342MOL0     H46130   5.036   3.082   4.062  0.2861  0.5859  0.3119
  342MOL0     H46131   5.151   2.856   4.055  0.5913 -2.4510 -0.3998
  342MOL0     H46132   5.058   2.366   4.021 -0.4441  0.8294  4.4416
  342MOL0     H46133   5.182   2.176   3.953  0.3570  0.3522  0.2351
  342MOL0     H46134   5.649   2.219   3.986  0.3522  2.7935  2.9853
  342MOL0     H46135   5.593   2.147   4.140  0.7619  0.8590 -0.0681
  342MOL0     H46136   5.590   1.925   4.048  0.0663 -0.5577 -0.7869
  342MOL0     H46137   5.649   1.987   3.891  2.1328 -0.2408  0.2150
  342MOL0     H46138   5.790   2.023   4.157 -1.1910 -1.7918 -0.2159
  342MOL0     H46139   5.822   1.890   4.045 -1.1840 -0.5649 -0.6291
  342MOL0     H46140   5.857   2.190   3.988  0.4820  0.7972 -0.0533
  342MOL0     H46141   5.884   2.049   3.880  1.3041 -0.7543 -0.5981
  342MOL0     H46142   6.082   2.163   3.973  0.9235 -1.3197  0.4921
  342MOL0     H46143   6.073   1.986   3.965  0.1340 -0.2128 -0.7791
  342MOL0     H46144   6.004   2.154   4.223  0.4615 -0.3233  2.6123
  342MOL0     H46145   6.021   1.974   4.202 -2.5319  0.1669 -2.0273
  342MOL0     H46146   6.266   2.010   4.152  2.1105 -0.2872  1.0859
  342MOL0     H46147   6.195   2.049   4.322 -0.5182 -0.7025 -0.8172
  342MOL0     H46148   6.372   2.217   4.251 -0.5329 -2.3613  0.4655
  342MOL0     H46149   6.278   2.249   4.101  0.0505 -3.0205 -1.3323
  342MOL0     H46150   5.535   2.391   4.055 -0.6003 -0.5120  0.2840
  342MOL0     H46151   5.427   2.579   4.082  0.5764 -0.8154  2.5629
  342MOL0     H46152   4.879   2.715   4.369 -0.2392 -0.5399 -0.4664
  342MOL0     H46153   4.809   2.947   4.385  0.2258 -0.3455 -0.0906
  342MOL0     H46154   3.067   3.058   3.802 -1.4908  1.6871 -0.6257
  342MOL0     H46155   2.862   3.132   3.804  1.7497 -3.2563 -0.1713
  342MOL0     H46156   2.498   3.248   4.029  1.0388  1.0492  0.0910
  342MOL0     H46157   2.246   3.240   3.993 -1.1036  0.7784 -0.1844
  342MOL0     H46158   2.137   3.264   3.617  1.2874 -1.4380  4.3510
  342MOL0     H46159   2.095   3.429   3.626  0.7312 -0.7463  0.5857
  342MOL0     H46160   1.934   3.181   3.687  1.0156 -0.9022 -2.9808
  342MOL0     H46161   1.903   3.285   3.559 -0.5804  1.8099 -1.0443
  342MOL0     H46162   1.816   3.464   3.694  2.8565  0.8970 -0.2048
  342MOL0     H46163   1.852   3.361   3.844  1.0841 -0.7700 -0.9524
  342MOL0     H46164   1.696   3.188   3.754  2.9550  0.7987  2.4182
  342MOL0     H46165   1.604   3.339   3.787  0.3484 -0.0723  0.2497
  342MOL0     H46166   1.563   3.309   3.379  0.5841 -0.5125 -0.3476
  342MOL0     H46167   2.278   3.498   3.671  1.7529  1.8216  0.8074
  342MOL0     H46168   2.617   3.510   3.604  2.0713  1.9334  0.7819
  342MOL0     H46169   2.480   3.617   3.621  3.1521  1.2081 -1.8656
  342MOL0     H46170   2.588   3.622   3.745 -0.0502  0.3211 -0.0858
  343MOL0     O46171   9.767  10.630   2.051  0.4145 -0.7819 -0.5204
  343MOL0     C46172   9.772  10.617   2.175 -0.4354 -0.1873  0.0173
  343MOL0     O46173   9.891  10.633   2.236  0.3386  0.9645 -0.1844
  343MOL0     C46174  10.002  10.676   2.168 -1.1406 -0.0726 -0.5297
  343MOL0     C46175  10.059  10.803   2.191 -0.0645  0.1741 -0.4494
  343MOL0     C46176  10.174  10.837   2.134  0.1933 -0.4654  0.0167
  343MOL0     C46177  10.243  10.748   2.052  0.2029 -0.1493 -0.3678
  343MOL0     O46178  10.357  10.793   1.993  0.1307  0.1554 -0.1896
  343MOL0     C46179  10.453  10.693   1.939 -0.3394  0.7174  0.3120
  343MOL0     C46180  10.585  10.761   1.932  0.0416 -0.0234 -0.3981
  343MOL0     C46181  10.686  10.676   1.859  0.0244  0.4501 -0.8498
  343MOL0     C46182  10.822  10.753   1.852  0.3354 -0.7013  0.0208
  343MOL0     C46183  10.928  10.658   1.809  0.4364 -0.6635  0.5718
  343MOL0     C46184  11.062  10.716   1.765 -0.6481  0.3302 -0.1564
  343MOL0     C46185  11.153  10.770   1.885 -0.2347 -1.1284  0.5929
  343MOL0     C46186  11.261  10.869   1.847 -0.3593 -0.0909  0.0407
  343MOL0     N46187  11.375  10.811   1.793  0.0967 -0.4020  0.3886
  343MOL0     C46188  11.387  10.740   1.677 -0.8671  0.9395 -0.4650
  343MOL0     C46189  11.525  10.730   1.648  0.6526  0.3791 -0.0029
  343MOL0     C46190  11.593  10.676   1.521  1.7214  0.3193  0.1952
  343MOL0     C46191  11.595  10.522   1.506 -0.0221  0.0886  0.5870
  343MOL0     C46192  11.640  10.484   1.359  0.5551 -0.1210 -0.0815
  343MOL0     C46193  11.666  10.331   1.334  0.4824 -0.3940  0.4428
  343MOL0     O46194  11.741  10.312   1.215 -0.6562 -0.2742 -0.5708
  343MOL0     C46195  11.877  10.339   1.222 -0.4993  0.8716 -0.1596
  343MOL0     C46196  11.967  10.316   1.333  0.8302  0.3999  0.8333
  343MOL0     C46197  12.099  10.369   1.316 -0.9655  0.1674 -0.3453
  343MOL0     C46198  12.140  10.439   1.197  0.1563  0.0850  0.3923
  343MOL0     C46199  12.278  10.499   1.186 -0.2929 -0.7273  0.1246
  343MOL0     O46200  12.312  10.589   1.075 -0.0027 -0.7776 -0.1829
  343MOL0     C46201  12.439  10.639   1.086  0.1357 -0.0981 -0.1366
  343MOL0     C46202  12.555  10.572   1.041  0.5960  0.0812  0.2625
  343MOL0     C46203  12.685  10.632   1.031 -0.2286  0.8204 -0.0683
  343MOL0     C46204  12.696  10.766   1.078  0.0716  0.4499 -0.3419
  343MOL0     O46205  12.827  10.808   1.081  0.0103 -0.1428  0.5395
  343MOL0     C46206  12.842  10.949   1.088  0.6574  0.1947 -0.3410
  343MOL0     C46207  12.989  10.981   1.043 -0.3990  0.6403  0.3010
  343MOL0     C46208  12.999  11.136   1.015  0.5263  0.1536 -0.0459
  343MOL0     C46209  13.130  11.186   0.943  0.7177  0.7216  0.0872
  343MOL0     C46210  13.265  11.130   1.007  0.7637  0.0418 -0.3476
  343MOL0     C46211  13.287  11.178   1.153 -0.2001  0.0088  0.3855
  343MOL0     C46212  13.430  11.132   1.186  0.5027 -1.1005  0.1635
  343MOL0     C46213  13.510  11.262   1.238  0.1692 -0.0158  1.4382
  343MOL0    Cl46214  13.567  11.366   1.108  0.6244  0.0964 -0.2066
  343MOL0     C46215  12.581  10.840   1.130  0.2495  0.0839 -0.6074
  343MOL0     C46216  12.452  10.772   1.128 -0.3049 -0.5249  0.9233
  343MOL0     O46217  12.360  10.458   1.267  0.3699 -0.3959 -0.3017
  343MOL0     C46218  12.046  10.448   1.089 -0.3807  0.3390 -0.3065
  343MOL0     C46219  11.919  10.408   1.114 -0.6940 -0.3705 -0.1333
  343MOL0     N46220  11.585  10.789   1.758  0.1216  0.0635  0.0473
  343MOL0     N46221  11.494  10.830   1.838 -0.7478  0.6731 -0.4078
  343MOL0     C46222  10.190  10.619   2.022 -1.1248  0.4403  0.9723
  343MOL0     C46223  10.073  10.588   2.081  0.2267 -0.3616 -0.3627
  343MOL0     C46224   9.657  10.557   2.254  0.3882  0.2135 -0.5745
  343MOL0     C46225   9.526  10.572   2.208  1.1419 -0.5268 -0.0632
  343MOL0     C46226   9.415  10.512   2.269 -0.1360  0.3294  0.6356
  343MOL0     C46227   9.430  10.446   2.394 -0.0711 -0.5009  0.3111
  343MOL0     O46228   9.324  10.385   2.462 -0.0705 -0.2412 -0.2593
  343MOL0     C46229   9.254  10.283   2.392 -0.0518 -0.0849  0.7459
  343MOL0     C46230   9.109  10.302   2.428  0.1719 -0.1291  0.1784
  343MOL0     C46231   9.051  10.433   2.370  0.0998  0.2467  0.4340
  343MOL0     C46232   8.892  10.419   2.370  0.1768  0.0425 -0.3919
  343MOL0     C46233   8.833  10.330   2.274  0.4307  0.4842  0.2361
  343MOL0     C46234   8.764  10.274   2.188  0.8871 -0.4918 -0.3122
  343MOL0     C46235   9.565  10.438   2.440  0.0425  0.3657 -0.0655
  343MOL0     C46236   9.675  10.487   2.373 -0.1257 -0.0073  0.3289
  343MOL0     C46237   9.812  10.459   2.430 -0.5949 -0.1010  0.3460
  343MOL0     H46238  10.005  10.877   2.251  1.3008 -1.4579  3.0339
  343MOL0     H46239  10.195  10.943   2.128 -0.5794 -0.3661 -1.5718
  343MOL0     H46240  10.460  10.600   1.997  1.2174  0.0566 -0.8535
  343MOL0     H46241  10.425  10.655   1.840 -3.1815 -3.3771  2.4023
  343MOL0     H46242  10.620  10.778   2.034 -1.6338  1.2824 -0.0033
  343MOL0     H46243  10.581  10.861   1.887  1.6301 -0.7668 -2.3601
  343MOL0     H46244  10.661  10.641   1.759 -3.5283 -0.3275  0.1836
  343MOL0     H46245  10.713  10.584   1.911  2.8301  0.5897 -1.8697
  343MOL0     H46246  10.811  10.834   1.780 -1.9448 -0.3773  0.6594
  343MOL0     H46247  10.851  10.799   1.947  0.7148 -2.1781  0.6597
  343MOL0     H46248  10.940  10.575   1.880  0.4819 -1.2424 -0.1062
  343MOL0     H46249  10.878  10.620   1.720 -0.5224  2.0809 -0.1281
  343MOL0     H46250  11.111  10.633   1.712  1.2515  1.0560  0.3842
  343MOL0     H46251  11.041  10.794   1.692 -1.8359 -0.4146 -0.6343
  343MOL0     H46252  11.202  10.688   1.939 -2.6857 -1.3005  2.7241
  343MOL0     H46253  11.093  10.817   1.963 -0.0408  0.9576 -0.4549
  343MOL0     H46254  11.222  10.936   1.770  0.5568  0.0620 -0.3079
  343MOL0     H46255  11.281  10.932   1.935  2.1305  0.3139 -0.7269
  343MOL0     H46256  11.301  10.705   1.620 -0.9373  3.0103 -1.7564
  343MOL0     H46257  11.531  10.718   1.441  0.7292 -2.4324 -0.5693
  343MOL0     H46258  11.691  10.724   1.521  1.6156  0.5728  1.1426
  343MOL0     H46259  11.664  10.484   1.581  1.4350  2.5259  0.5936
  343MOL0     H46260  11.495  10.485   1.530 -0.4475 -0.0539 -1.2894
  343MOL0     H46261  11.736  10.532   1.338 -0.7621  2.7922  0.1376
  343MOL0     H46262  11.562  10.514   1.288  1.4272 -3.1210 -2.5554
  343MOL0     H46263  11.572  10.280   1.311  0.1955  0.8668 -1.4172
  343MOL0     H46264  11.705  10.276   1.420 -1.7912 -4.5401 -0.9359
  343MOL0     H46265  11.937  10.289   1.433 -0.0241  0.8326  0.6966
  343MOL0     H46266  12.163  10.375   1.403 -1.1407  0.4356 -0.2317
  343MOL0     H46267  12.524  10.471   1.017 -0.1757  0.8566 -2.3796
  343MOL0     H46268  12.759  10.565   0.988 -0.1408 -0.3424  1.7844
  343MOL0     H46269  12.785  10.998   1.008 -0.4952 -0.8860 -0.2012
  343MOL0     H46270  12.816  10.986   1.187  2.1027  0.6001 -0.0862
  343MOL0     H46271  13.048  10.939   1.124 -1.6146 -1.4394  0.2021
  343MOL0     H46272  13.020  10.928   0.952  0.1565 -2.2146  2.0149
  343MOL0     H46273  12.915  11.157   0.948  0.1292  0.9451  0.6836
  343MOL0     H46274  13.011  11.185   1.112  3.1727 -2.1904  0.9476
  343MOL0     H46275  13.119  11.293   0.960 -1.1020  0.1858  2.9353
  343MOL0     H46276  13.125  11.164   0.835 -1.8336  0.0660  0.2726
  343MOL0     H46277  13.347  11.156   0.939 -0.1910  1.0071 -1.1501
  343MOL0     H46278  13.258  11.021   1.012 -0.2779  0.1105 -0.2126
  343MOL0     H46279  13.263  11.284   1.166  1.1108  0.1894  1.5473
  343MOL0     H46280  13.218  11.129   1.223  3.2083 -4.3410  1.1632
  343MOL0     H46281  13.498  11.100   1.107  0.0859 -3.2733  0.6343
  343MOL0     H46282  13.428  11.045   1.252  0.0661 -1.5296 -0.4050
  343MOL0     H46283  13.460  11.318   1.318 -0.8624 -0.4662  1.1146
  343MOL0     H46284  13.593  11.219   1.294  2.7770  1.8015 -0.7498
  343MOL0     H46285  12.594  10.940   1.171  1.4631 -0.8108  1.2993
  343MOL0     H46286  12.368  10.832   1.162 -0.4039 -0.4350  0.5240
  343MOL0     H46287  12.075  10.505   1.001  2.3423  1.6701  1.3265
  343MOL0     H46288  11.848  10.413   1.032  0.0103 -0.2189 -0.7354
  343MOL0     H46289  10.244  10.543   1.966  1.3389  3.8471 -1.6840
  343MOL0     H46290  10.025  10.490   2.074 -0.1297 -0.2520  0.3938
  343MOL0     H46291   9.507  10.629   2.117  1.1231 -0.5484 -0.0729
  343MOL0     H46292   9.320  10.521   2.217  0.4137 -2.6404 -1.1096
  343MOL0     H46293   9.299  10.186   2.417 -0.5596 -0.3816  0.5377
  343MOL0     H46294   9.281  10.281   2.286  1.2291  0.3941  1.0480
  343MOL0     H46295   9.097  10.306   2.536 -0.3303  2.1398  0.0950
  343MOL0     H46296   9.058  10.212   2.394 -0.5384 -0.0480  1.0136
  343MOL0     H46297   9.093  10.441   2.269 -1.1094  0.0154 -0.1172
  343MOL0     H46298   9.084  10.515   2.434  0.1047 -0.5575  1.4896
  343MOL0     H46299   8.852  10.392   2.469  0.1716  0.1341 -0.3686
  343MOL0     H46300   8.854  10.519   2.344  1.1529  0.2256 -1.1626
  343MOL0     H46301   8.687  10.243   2.119  4.0075 -2.1305 -3.3894
  343MOL0     H46302   9.590  10.383   2.530  1.5059 -0.0116 -0.6755
  343MOL0     H46303   9.818  10.386   2.511  1.3415 -0.5884 -0.1682
  343MOL0     H46304   9.876  10.417   2.352 -0.6146 -2.0874  1.3444
  343MOL0     H46305   9.853  10.554   2.466 -0.1910  1.3123 -3.3514
  344MOL0     O46306   7.796   3.101   7.012  0.0381 -0.6611  0.5694
  344MOL0     C46307   7.874   3.037   6.939 -0.3210 -0.7168  0.8240
  344MOL0     O46308   7.999   3.075   6.909  0.1713 -0.3069 -0.3394
  344MOL0     C46309   8.025   3.208   6.913  0.5747 -0.1794  0.7580
  344MOL0     C46310   7.977   3.292   6.804  0.0553 -0.3007  0.7435
  344MOL0     C46311   8.004   3.430   6.809  0.5110 -0.3803 -0.0715
  344MOL0     C46312   8.083   3.483   6.914  0.2059 -0.6584  0.3399
  344MOL0     O46313   8.139   3.608   6.898  0.3527 -0.8705 -0.1495
  344MOL0     C46314   8.172   3.690   7.016  0.0805  0.3043 -1.3505
  344MOL0     C46315   8.243   3.813   6.962 -0.2978 -0.5139 -0.2050
  344MOL0     C46316   8.326   3.904   7.053  0.5666  0.4478  0.0360
  344MOL0     C46317   8.231   3.993   7.135 -0.1846 -0.7631  0.3697
  344MOL0     C46318   8.317   4.094   7.218  0.1578 -0.6436 -0.8447
  344MOL0     C46319   8.231   4.171   7.323  0.0623 -0.2018  0.9702
  344MOL0     C46320   8.318   4.253   7.422  0.4156 -0.2849 -0.4630
  344MOL0     C46321   8.231   4.349   7.518  0.2083 -0.1592  0.1961
  344MOL0     N46322   8.325   4.431   7.601  0.4290 -0.1571 -0.3873
  344MOL0     C46323   8.403   4.392   7.708  0.0666  0.2218  0.5018
  344MOL0     C46324   8.414   4.496   7.795  0.2230  0.0510 -0.4305
  344MOL0     C46325   8.469   4.489   7.936  1.1672 -0.4810 -1.5933
  344MOL0     C46326   8.616   4.546   7.952 -1.7729  0.2564  0.1505
  344MOL0     C46327   8.651   4.689   7.891 -0.9417  0.4509  0.1452
  344MOL0     C46328   8.800   4.722   7.898 -0.4015 -0.4552 -0.0409
  344MOL0     O46329   8.847   4.744   8.033 -0.1503  0.0580 -0.1564
  344MOL0     C46330   8.980   4.701   8.058  0.9567 -0.2957 -0.2956
  344MOL0     C46331   9.002   4.631   8.179 -0.5285 -0.0274 -0.3002
  344MOL0     C46332   9.135   4.606   8.212 -0.3110  1.2047  0.5063
  344MOL0     C46333   9.239   4.645   8.123  0.4383 -0.0985 -0.1404
  344MOL0     C46334   9.385   4.623   8.169  0.9914  1.0542 -0.2474
  344MOL0     O46335   9.476   4.664   8.083  0.2897  0.3457  0.2410
  344MOL0     C46336   9.605   4.690   8.130  0.6853 -0.7344 -0.0313
  344MOL0     C46337   9.620   4.795   8.211  0.1515  0.9132 -0.0030
  344MOL0     C46338   9.744   4.824   8.266  0.5426 -0.0265  0.2998
  344MOL0     C46339   9.853   4.750   8.222 -0.8723 -0.1530  0.2032
  344MOL0     O46340   9.982   4.773   8.248  0.9189  0.1914  0.1533
  344MOL0     C46341  10.013   4.840   8.365  0.1960  0.0407  0.2926
  344MOL0     C46342  10.163   4.792   8.375  0.1362 -0.5293 -0.2706
  344MOL0     C46343  10.208   4.773   8.517 -0.2270 -0.4209 -0.6387
  344MOL0     C46344  10.348   4.718   8.521 -0.8757 -0.3224  0.2518
  344MOL0     C46345  10.424   4.769   8.647 -0.2957  0.1380  0.5491
  344MOL0     C46346  10.563   4.710   8.665  0.0670 -0.2473 -0.5102
  344MOL0     C46347  10.636   4.782   8.778 -0.0688 -0.7262 -0.7032
  344MOL0     C46348  10.707   4.915   8.727  0.3957  0.1666  0.4742
  344MOL0    Cl46349  10.820   4.994   8.846  0.1730 -0.0783  0.2274
  344MOL0     C46350   9.837   4.653   8.130 -0.0306  0.6739  0.8706
  344MOL0     C46351   9.710   4.622   8.082 -0.3640 -0.2571 -0.7943
  344MOL0     O46352   9.401   4.589   8.284 -0.2426  0.1807  0.6740
  344MOL0     C46353   9.212   4.714   8.010  0.3385 -0.1649 -0.0935
  344MOL0     C46354   9.080   4.734   7.964  0.0633 -1.0211  0.0571
  344MOL0     N46355   8.366   4.608   7.737  0.4162  0.4883 -0.1490
  344MOL0     N46356   8.304   4.569   7.631 -0.4909  0.1284 -0.8624
  344MOL0     C46357   8.122   3.396   7.008 -0.4131 -0.4511 -0.4223
  344MOL0     C46358   8.100   3.259   7.015 -0.2892  0.0300  0.7101
  344MOL0     C46359   7.824   2.919   6.866  0.8047  0.0456 -0.7115
  344MOL0     C46360   7.894   2.869   6.755 -0.1963  0.3118  0.1126
  344MOL0     C46361   7.858   2.759   6.684  0.1654 -0.5501 -0.3410
  344MOL0     C46362   7.747   2.689   6.728  0.8536  0.7411  0.1834
  344MOL0     O46363   7.698   2.572   6.674 -0.6458 -0.4687  0.0396
  344MOL0     C46364   7.784   2.459   6.636  0.7332 -0.0316  0.0471
  344MOL0     C46365   7.842   2.467   6.495 -0.1821  0.5175  0.0500
  344MOL0     C46366   7.908   2.326   6.463  0.1423 -0.0654 -0.6473
  344MOL0     C46367   7.971   2.330   6.328  0.4313  0.0306  0.0045
  344MOL0     C46368   7.874   2.324   6.219  0.6895  0.8379 -0.4338
  344MOL0     C46369   7.812   2.318   6.115 -0.5914 -0.6745  1.1591
  344MOL0     C46370   7.667   2.746   6.831  0.3685 -0.3532 -0.3156
  344MOL0     C46371   7.699   2.865   6.896  0.4735  0.5238  0.3055
  344MOL0     C46372   7.588   2.917   6.978 -0.1040 -0.0435 -0.0128
  344MOL0     H46373   7.918   3.250   6.723  0.7455 -0.0561  0.1010
  344MOL0     H46374   7.965   3.504   6.741 -0.8535  1.1691  2.2494
  344MOL0     H46375   8.077   3.715   7.064  1.4093  2.0198  0.5853
  344MOL0     H46376   8.239   3.642   7.089  0.1311 -1.3711 -2.4439
  344MOL0     H46377   8.167   3.873   6.911 -1.2232 -1.7324 -0.2938
  344MOL0     H46378   8.310   3.776   6.884 -1.6757  1.3617 -2.4150
  344MOL0     H46379   8.388   3.964   6.986  0.3703  2.3202  1.4557
  344MOL0     H46380   8.393   3.850   7.120 -0.9740  1.0789  2.1989
  344MOL0     H46381   8.164   4.057   7.077  1.8793  1.4168  0.2095
  344MOL0     H46382   8.173   3.928   7.201  3.9816 -3.2013  2.0261
  344MOL0     H46383   8.389   4.040   7.280 -0.5140  1.5561  2.0530
  344MOL0     H46384   8.362   4.174   7.159 -0.5272 -0.1438 -0.7074
  344MOL0     H46385   8.151   4.225   7.271 -0.0065 -2.0071 -0.9514
  344MOL0     H46386   8.177   4.088   7.369 -0.1803 -0.6957 -0.1562
  344MOL0     H46387   8.392   4.321   7.377 -1.8046  2.2856 -0.4716
  344MOL0     H46388   8.383   4.183   7.476 -1.3185 -1.1992  0.5066
  344MOL0     H46389   8.174   4.427   7.468  1.2861 -1.3152 -3.1562
  344MOL0     H46390   8.171   4.286   7.584  0.3494 -2.5443 -1.8030
  344MOL0     H46391   8.439   4.291   7.728  2.5389  1.1864  1.2969
  344MOL0     H46392   8.418   4.559   8.003 -0.2882 -0.1657 -2.9810
  344MOL0     H46393   8.459   4.391   7.982  0.2097 -0.4641 -1.7408
  344MOL0     H46394   8.637   4.551   8.060  1.8836 -0.0187 -0.4244
  344MOL0     H46395   8.684   4.478   7.899 -1.9392 -1.0655  1.5571
  344MOL0     H46396   8.589   4.766   7.938  0.0474  0.5264  1.3818
  344MOL0     H46397   8.628   4.684   7.784  3.5945 -2.8411 -0.9659
  344MOL0     H46398   8.815   4.815   7.843 -3.8654  0.1480 -0.1761
  344MOL0     H46399   8.851   4.636   7.853 -3.4825 -1.9240 -0.9891
  344MOL0     H46400   8.925   4.618   8.255  0.5414 -0.6543  0.7195
  344MOL0     H46401   9.150   4.545   8.301 -1.0927  0.4673  0.1473
  344MOL0     H46402   9.542   4.866   8.239  0.3370 -0.6290  5.6116
  344MOL0     H46403   9.756   4.914   8.325 -1.3817 -0.3615  1.3020
  344MOL0     H46404  10.002   4.948   8.364  0.5519  0.0737  0.1484
  344MOL0     H46405   9.940   4.797   8.434  0.0628 -0.9544 -0.4376
  344MOL0     H46406  10.176   4.698   8.321  2.3735  0.2819 -1.2469
  344MOL0     H46407  10.219   4.874   8.329 -2.1584  0.6108 -1.1864
  344MOL0     H46408  10.191   4.873   8.558  0.1714  0.8485 -3.3823
  344MOL0     H46409  10.151   4.698   8.572  1.7016 -3.3042 -2.3173
  344MOL0     H46410  10.407   4.742   8.432  0.2520 -3.5774  0.0193
  344MOL0     H46411  10.345   4.609   8.526 -0.4557 -0.2777  2.0865
  344MOL0     H46412  10.357   4.758   8.733  1.5582  0.3384  2.0883
  344MOL0     H46413  10.437   4.877   8.638  2.9753  0.1436  3.2077
  344MOL0     H46414  10.545   4.610   8.704  0.6793 -0.3060 -0.3605
  344MOL0     H46415  10.623   4.716   8.574  0.3249 -1.1412 -0.4090
  344MOL0     H46416  10.717   4.721   8.818 -0.6751 -0.2809  1.2918
  344MOL0     H46417  10.577   4.824   8.860  0.6704  1.4458 -1.2146
  344MOL0     H46418  10.748   4.913   8.625 -0.6294  0.4670  0.0442
  344MOL0     H46419  10.618   4.976   8.712 -1.5300 -2.6235 -0.2348
  344MOL0     H46420   9.915   4.589   8.089 -0.9043  0.2856 -0.2161
  344MOL0     H46421   9.692   4.548   8.005 -3.0601 -2.6003  1.8284
  344MOL0     H46422   9.296   4.761   7.959  0.6328 -0.9345 -0.3351
  344MOL0     H46423   9.059   4.786   7.871 -0.8639 -1.5952 -0.0766
  344MOL0     H46424   8.187   3.434   7.086 -0.3127 -0.9612 -0.2503
  344MOL0     H46425   8.135   3.198   7.098  0.4698 -0.2758  0.1813
  344MOL0     H46426   7.996   2.901   6.733  0.0642 -1.0162 -0.6786
  344MOL0     H46427   7.921   2.733   6.600 -1.7491  1.2674 -2.4780
  344MOL0     H46428   7.725   2.367   6.641 -0.4055  0.6805 -0.0113
  344MOL0     H46429   7.856   2.451   6.718 -2.2769  0.5532  2.9507
  344MOL0     H46430   7.917   2.546   6.497 -2.1900  2.5210  1.6249
  344MOL0     H46431   7.757   2.480   6.427 -1.8808 -1.1652  1.7389
  344MOL0     H46432   7.831   2.249   6.457  2.6158 -2.5654 -2.7721
  344MOL0     H46433   7.982   2.298   6.539 -1.2079  1.7247  1.4684
  344MOL0     H46434   8.019   2.428   6.329 -1.5979  1.1013  2.6369
  344MOL0     H46435   8.040   2.244   6.324 -1.7440 -1.7917 -0.1386
  344MOL0     H46436   7.746   2.329   6.031 -1.1183 -1.3184  1.4817
  344MOL0     H46437   7.575   2.692   6.852  0.7578 -0.7542  0.4009
  344MOL0     H46438   7.613   2.947   7.080  2.8666 -1.1757 -0.3011
  344MOL0     H46439   7.560   3.013   6.933 -0.3235 -1.2719 -2.7531
  344MOL0     H46440   7.499   2.854   6.971 -0.3498  0.3235 -0.2526
  345MOL0     O46441   9.931   3.332   8.378 -0.3733  0.4540  0.5817
  345MOL0     C46442   9.926   3.289   8.490  0.5059 -0.4514 -0.3514
  345MOL0     O46443  10.034   3.247   8.564 -0.3292 -1.1516  0.3674
  345MOL0     C46444  10.145   3.213   8.502 -0.1979  0.6057  0.9475
  345MOL0     C46445  10.185   3.081   8.495 -0.0010  0.4756 -0.6852
  345MOL0     C46446  10.303   3.036   8.434  0.2619 -0.9507  0.1666
  345MOL0     C46447  10.387   3.133   8.377 -0.2347 -0.2681  0.4220
  345MOL0     O46448  10.501   3.103   8.309 -0.2968  0.0051 -1.1503
  345MOL0     C46449  10.532   2.964   8.288 -0.3745 -1.5776 -0.9820
  345MOL0     C46450  10.667   2.961   8.210  0.0278 -0.1851  0.4804
  345MOL0     C46451  10.780   3.044   8.279  0.0791 -0.5153 -0.2190
  345MOL0     C46452  10.854   2.964   8.377 -0.3603  0.2562 -0.1096
  345MOL0     C46453  10.978   3.028   8.435  0.0987  0.9447  0.4325
  345MOL0     C46454  11.041   2.963   8.558 -0.3835 -0.4166  0.1160
  345MOL0     C46455  11.126   3.068   8.637  0.5918 -0.5764  0.4161
  345MOL0     C46456  11.214   2.994   8.727 -0.3940 -0.0102  0.0903
  345MOL0     N46457  11.314   3.084   8.789 -0.1797 -0.8511 -0.4226
  345MOL0     C46458  11.387   3.054   8.898 -0.8058  0.3817 -1.5664
  345MOL0     C46459  11.463   3.170   8.913 -0.2852 -0.2478 -0.1164
  345MOL0     C46460  11.561   3.189   9.021  0.4235 -0.1749  0.9598
  345MOL0     C46461  11.619   3.331   9.013  0.1030 -0.7120  0.0316
  345MOL0     C46462  11.726   3.353   9.115 -0.5706  0.5310  0.6979
  345MOL0     C46463  11.678   3.332   9.262 -0.2587 -0.5344 -0.0780
  345MOL0     O46464  11.751   3.416   9.358  0.3335  0.4735  0.3631
  345MOL0     C46465  11.709   3.409   9.492  0.1126  0.8799 -0.0033
  345MOL0     C46466  11.582   3.365   9.536 -0.0458 -0.3728 -0.0721
  345MOL0     C46467  11.562   3.347   9.677  0.1247 -0.4078 -0.6221
  345MOL0     C46468  11.651   3.388   9.780  0.3339  0.4893 -0.2583
  345MOL0     C46469  11.626   3.369   9.923  0.0073  0.3193  0.1369
  345MOL0     O46470  11.504   3.348   9.959  0.4810 -0.1905  0.1016
  345MOL0     C46471  11.474   3.361  10.094 -0.1620  0.6718 -0.1261
  345MOL0     C46472  11.444   3.479  10.160 -0.0782 -0.1960  0.6843
  345MOL0     C46473  11.400   3.491  10.302  0.3788 -0.7164  1.1831
  345MOL0     C46474  11.390   3.372  10.364  0.3139 -0.0127 -0.4716
  345MOL0     O46475  11.362   3.373  10.495 -0.3154  0.0525  0.4966
  345MOL0     C46476  11.235   3.329  10.530  0.0271 -0.2596  0.7887
  345MOL0     C46477  11.141   3.448  10.585 -0.5652 -0.5500  0.4339
  345MOL0     C46478  11.035   3.383  10.669 -1.1814  0.7688  0.2562
  345MOL0     C46479  10.925   3.488  10.709  0.1033 -0.1297 -0.0156
  345MOL0     C46480  10.846   3.439  10.827 -0.5338  0.5597  0.2154
  345MOL0     C46481  10.721   3.528  10.848  0.3425  0.1297 -0.7480
  345MOL0     C46482  10.636   3.493  10.966 -0.2211 -0.5874 -0.4486
  345MOL0     C46483  10.495   3.576  10.973 -0.5563 -0.2253  0.2301
  345MOL0    Cl46484  10.387   3.530  10.847 -0.1733 -0.0296 -0.0657
  345MOL0     C46485  11.432   3.247  10.298  0.8120  0.4847  0.6678
  345MOL0     C46486  11.466   3.243  10.162  0.0098  0.9167 -0.5398
  345MOL0     O46487  11.722   3.364   9.999  0.1050 -0.2639 -0.0078
  345MOL0     C46488  11.779   3.433   9.733  0.5756  1.2716 -0.2014
  345MOL0     C46489  11.802   3.438   9.596  0.8442 -0.1118  0.1176
  345MOL0     N46490  11.432   3.254   8.811 -0.0043 -0.1654  0.1554
  345MOL0     N46491  11.341   3.201   8.739 -0.1166 -0.1206 -0.1825
  345MOL0     C46492  10.358   3.263   8.404 -0.1425 -0.0304 -0.4463
  345MOL0     C46493  10.245   3.303   8.478 -0.4135 -0.3854 -0.5457
  345MOL0     C46494   9.805   3.296   8.564  1.3315 -0.5101 -0.2181
  345MOL0     C46495   9.791   3.230   8.691 -0.2996 -1.1596 -0.8825
  345MOL0     C46496   9.670   3.226   8.766  0.1818  0.7453  0.2835
  345MOL0     C46497   9.548   3.262   8.703 -1.0101 -0.7657 -0.2042
  345MOL0     O46498   9.423   3.237   8.756 -0.3752  0.2987 -0.4545
  345MOL0     C46499   9.411   3.175   8.888 -0.8296  0.4426  0.3573
  345MOL0     C46500   9.274   3.127   8.916 -0.3230  1.0434 -0.9714
  345MOL0     C46501   9.228   3.006   8.830  0.1820 -0.7953 -0.0015
  345MOL0     C46502   9.093   2.953   8.879  0.0682 -0.0475 -0.0357
  345MOL0     C46503   8.976   3.039   8.847 -0.5974  0.4511  0.7475
  345MOL0     C46504   8.881   3.105   8.809  0.1523  0.0831  0.6179
  345MOL0     C46505   9.552   3.337   8.589 -0.0376 -0.6610 -0.0777
  345MOL0     C46506   9.680   3.353   8.512  1.0715  0.3006  0.3068
  345MOL0     C46507   9.665   3.440   8.398 -0.3903 -0.2302 -1.1538
  345MOL0     H46508  10.120   3.004   8.537 -0.1814  0.3916 -1.1141
  345MOL0     H46509  10.315   2.928   8.430 -2.5753 -1.4709  2.2747
  345MOL0     H46510  10.542   2.929   8.391  1.3992  1.5641  0.0518
  345MOL0     H46511  10.451   2.916   8.233 -2.1202  1.0906 -0.9147
  345MOL0     H46512  10.653   3.009   8.113  1.3647 -0.7478 -0.0181
  345MOL0     H46513  10.701   2.858   8.196 -0.9120 -0.2556 -1.7577
  345MOL0     H46514  10.745   3.132   8.334  1.3973 -0.3965  0.4795
  345MOL0     H46515  10.858   3.077   8.210 -0.5924 -1.4273 -1.4388
  345MOL0     H46516  10.793   2.931   8.461  0.0387  1.6641  0.7736
  345MOL0     H46517  10.887   2.879   8.317 -2.5290  0.7916 -2.2174
  345MOL0     H46518  11.050   3.022   8.353 -1.7363 -2.4609 -1.1181
  345MOL0     H46519  10.954   3.133   8.456 -3.4604  0.6755 -1.4281
  345MOL0     H46520  10.963   2.920   8.622  0.8586 -0.6686  1.5038
  345MOL0     H46521  11.107   2.888   8.515  0.1093  1.3832 -2.4763
  345MOL0     H46522  11.062   3.140   8.687 -0.7081 -0.4622 -1.3256
  345MOL0     H46523  11.189   3.115   8.561  0.3896  1.3829  1.4131
  345MOL0     H46524  11.152   2.943   8.801 -1.3664 -0.3258 -0.9213
  345MOL0     H46525  11.268   2.917   8.672  0.4053  0.6874 -0.1332
  345MOL0     H46526  11.393   2.963   8.956 -0.6299 -0.1319 -2.3622
  345MOL0     H46527  11.498   3.192   9.110  2.5848  2.9443  2.5902
  345MOL0     H46528  11.629   3.103   9.026  2.5862  1.4819  1.9185
  345MOL0     H46529  11.666   3.346   8.915  0.3354  0.4421  0.3140
  345MOL0     H46530  11.548   3.413   9.025  3.3178  2.4250 -0.5210
  345MOL0     H46531  11.767   3.454   9.113 -2.8860  1.5079 -0.4704
  345MOL0     H46532  11.799   3.277   9.088 -0.5387  0.9204 -0.3392
  345MOL0     H46533  11.697   3.225   9.278  0.7109 -0.6652 -1.8620
  345MOL0     H46534  11.571   3.354   9.266 -0.2256 -0.4828  0.6655
  345MOL0     H46535  11.505   3.346   9.463  2.2062 -0.6187 -2.5203
  345MOL0     H46536  11.476   3.286   9.702 -0.7516  1.4136  1.0701
  345MOL0     H46537  11.459   3.576  10.113 -0.2159  0.5176  2.0683
  345MOL0     H46538  11.393   3.592  10.341  1.9928  0.7535 -1.9299
  345MOL0     H46539  11.182   3.284  10.445 -3.2002  0.2936  2.3747
  345MOL0     H46540  11.263   3.256  10.606  0.9862 -0.8499 -0.0968
  345MOL0     H46541  11.196   3.523  10.642 -1.1509  0.7643 -0.6754
  345MOL0     H46542  11.104   3.498  10.495  0.5117  2.4590  1.5464
  345MOL0     H46543  10.983   3.302  10.616 -1.6470 -0.9882  3.1654
  345MOL0     H46544  11.085   3.344  10.758 -1.0208  0.6793  0.1260
  345MOL0     H46545  10.857   3.520  10.630  2.5579  4.0030 -0.7744
  345MOL0     H46546  10.976   3.580  10.742  1.5773 -0.0542 -2.2467
  345MOL0     H46547  10.927   3.444  10.901  2.5340 -1.4940 -2.7176
  345MOL0     H46548  10.822   3.333  10.817 -1.1772  0.7089  0.1388
  345MOL0     H46549  10.759   3.630  10.846  1.4403 -0.2801 -1.2595
  345MOL0     H46550  10.645   3.517  10.770 -0.3277 -1.7086  0.1035
  345MOL0     H46551  10.690   3.515  11.058 -2.0866 -0.7526  0.7192
  345MOL0     H46552  10.608   3.388  10.976 -2.7017 -0.1551 -1.9034
  345MOL0     H46553  10.442   3.561  11.067  1.1513 -2.1201  0.9489
  345MOL0     H46554  10.503   3.685  10.975 -0.5123 -0.2343  0.6495
  345MOL0     H46555  11.417   3.158  10.357  1.5944  0.4364  0.7948
  345MOL0     H46556  11.496   3.164  10.094  2.4355 -1.2692  2.7798
  345MOL0     H46557  11.856   3.459   9.804 -0.1688 -0.2009  1.1998
  345MOL0     H46558  11.886   3.491   9.553  0.1173 -0.3310 -1.6910
  345MOL0     H46559  10.427   3.340   8.372 -1.6772  1.2351 -0.8660
  345MOL0     H46560  10.235   3.408   8.503  1.3140 -0.6878  1.8215
  345MOL0     H46561   9.880   3.178   8.725  0.4307  0.7268  0.3265
  345MOL0     H46562   9.675   3.176   8.863 -1.2495 -0.0270 -0.0011
  345MOL0     H46563   9.435   3.255   8.959  0.2132  0.8473 -0.4244
  345MOL0     H46564   9.475   3.088   8.903 -1.2398  0.2626  1.1398
  345MOL0     H46565   9.207   3.212   8.903  0.2789  2.8802  4.9439
  345MOL0     H46566   9.263   3.096   9.020 -2.8674 -0.6306 -1.6660
  345MOL0     H46567   9.307   2.931   8.831  1.4691  0.4420 -1.6108
  345MOL0     H46568   9.220   3.049   8.729  0.7510 -1.4629 -0.3310
  345MOL0     H46569   9.072   2.850   8.847 -0.2794 -0.0851  0.3164
  345MOL0     H46570   9.091   2.945   8.988 -0.4707  0.1120 -0.0308
  345MOL0     H46571   8.800   3.168   8.778  2.6052  2.2606 -1.9008
  345MOL0     H46572   9.466   3.382   8.540 -1.4298 -1.9977  1.0584
  345MOL0     H46573   9.754   3.491   8.359 -0.6486  1.3987  0.3044
  345MOL0     H46574   9.622   3.384   8.315 -2.3490  1.4848 -1.3638
  345MOL0     H46575   9.603   3.526   8.423 -0.9204 -0.1488 -2.6398
  346MOL0     O46576   4.503  11.007   1.087  0.2946  0.4272  0.0829
  346MOL0     C46577   4.557  10.979   0.983 -0.0836 -0.2802  0.1665
  346MOL0     O46578   4.664  11.049   0.932  0.5235 -0.0093  0.5343
  346MOL0     C46579   4.737  11.140   1.006 -0.8509 -0.0009  0.5868
  346MOL0     C46580   4.809  11.236   0.942 -1.2714  0.7516 -0.3760
  346MOL0     C46581   4.907  11.315   1.014 -0.2701  0.1433  0.8925
  346MOL0     C46582   4.921  11.308   1.154  0.8415 -0.7940  0.2129
  346MOL0     O46583   5.010  11.375   1.232  0.4031  0.3885  0.5780
  346MOL0     C46584   5.101  11.450   1.171 -0.8578 -0.0045 -0.3801
  346MOL0     C46585   5.173  11.538   1.272 -0.9547 -0.4956 -0.2573
  346MOL0     C46586   5.265  11.461   1.370 -0.4610  0.2447 -0.7982
  346MOL0     C46587   5.339  11.559   1.466  0.1671  0.8256  0.4310
  346MOL0     C46588   5.450  11.630   1.383 -0.1646 -0.8093 -0.1063
  346MOL0     C46589   5.544  11.692   1.494 -1.0780 -0.2546  0.8794
  346MOL0     C46590   5.659  11.755   1.424  0.5051 -0.7273 -0.5020
  346MOL0     C46591   5.772  11.654   1.392 -0.1183 -0.7501  0.0770
  346MOL0     N46592   5.874  11.720   1.310 -0.6350  0.0606 -0.6849
  346MOL0     C46593   5.969  11.798   1.353 -0.0330 -0.1398  0.2382
  346MOL0     C46594   6.052  11.812   1.244  0.1585  1.0888  0.4324
  346MOL0     C46595   6.183  11.893   1.243 -0.4677  0.1634 -0.2699
  346MOL0     C46596   6.301  11.790   1.236  0.3799 -0.3725 -0.3937
  346MOL0     C46597   6.429  11.866   1.194  0.5603 -0.0287 -0.1847
  346MOL0     C46598   6.552  11.793   1.250 -0.1787 -0.3320 -0.0033
  346MOL0     O46599   6.669  11.819   1.177  0.3353 -0.9568  0.2573
  346MOL0     C46600   6.792  11.797   1.222  0.2606 -0.1806  0.4684
  346MOL0     C46601   6.892  11.839   1.140  0.6923 -0.0828  0.0555
  346MOL0     C46602   7.030  11.817   1.163 -0.1300  0.3337 -0.2988
  346MOL0     C46603   7.067  11.748   1.277 -0.2400  0.9238  0.2863
  346MOL0     C46604   7.209  11.727   1.310  0.3974 -0.0913  1.1248
  346MOL0     O46605   7.303  11.778   1.229 -0.7678 -0.1997 -0.2964
  346MOL0     C46606   7.438  11.750   1.249  1.1063  0.6876 -0.1207
  346MOL0     C46607   7.503  11.842   1.318  0.0397 -1.2263 -0.5655
  346MOL0     C46608   7.644  11.833   1.315  0.4896  0.2301 -0.1282
  346MOL0     C46609   7.706  11.711   1.269  0.5205 -0.2629  0.8529
  346MOL0     O46610   7.841  11.698   1.285 -0.7277 -0.1178 -0.1904
  346MOL0     C46611   7.878  11.670   1.416 -0.6301  0.4806  0.4351
  346MOL0     C46612   7.977  11.770   1.476  0.4958  0.8016  0.4954
  346MOL0     C46613   8.110  11.765   1.389  0.0852  0.4498 -0.4613
  346MOL0     C46614   8.209  11.873   1.430 -0.1628  0.5495  0.5047
  346MOL0     C46615   8.331  11.880   1.321 -0.1387 -0.0249 -0.1797
  346MOL0     C46616   8.403  11.764   1.258  0.0748  0.5237  0.4671
  346MOL0     C46617   8.463  11.660   1.356 -0.7893 -0.8138 -0.0195
  346MOL0     C46618   8.534  11.559   1.272  0.5981  0.4649  0.6228
  346MOL0    Cl46619   8.426  11.467   1.174  0.6285 -0.1340  0.0608
  346MOL0     C46620   7.629  11.603   1.235  0.3015  0.1610  0.1412
  346MOL0     C46621   7.491  11.629   1.211 -0.9646 -0.2434 -0.0073
  346MOL0     O46622   7.230  11.662   1.412 -0.8737  0.8004  1.1193
  346MOL0     C46623   6.966  11.698   1.359 -0.0401  0.4001 -0.3628
  346MOL0     C46624   6.833  11.725   1.330  0.6607 -0.2721  0.3476
  346MOL0     N46625   5.990  11.760   1.129 -0.1499  0.8353  0.1721
  346MOL0     N46626   5.878  11.698   1.173 -0.5152  0.0416  0.0696
  346MOL0     C46627   4.837  11.212   1.219 -0.3492 -0.1163  0.3008
  346MOL0     C46628   4.755  11.130   1.144 -0.2793 -0.3773 -0.4092
  346MOL0     C46629   4.524  10.851   0.914 -0.0662  0.1714  0.0402
  346MOL0     C46630   4.404  10.790   0.958 -0.0061 -0.6328 -0.6649
  346MOL0     C46631   4.348  10.669   0.907  0.6082  0.2993 -0.1702
  346MOL0     C46632   4.423  10.604   0.810 -1.1842 -0.2793  0.3298
  346MOL0     O46633   4.394  10.483   0.749 -0.6623 -0.6380  0.3138
  346MOL0     C46634   4.264  10.430   0.753  1.0430 -0.2538 -0.1968
  346MOL0     C46635   4.210  10.358   0.880 -0.9569 -0.2787 -0.6834
  346MOL0     C46636   4.323  10.267   0.933 -0.3650 -1.3489 -0.2137
  346MOL0     C46637   4.270  10.198   1.067  0.7219  0.3170 -0.1236
  346MOL0     C46638   4.392  10.174   1.154 -0.0230 -0.0741 -0.6643
  346MOL0     C46639   4.499  10.160   1.213  0.9683 -1.2782 -0.4690
  346MOL0     C46640   4.545  10.659   0.764  0.7346  1.0308  0.6957
  346MOL0     C46641   4.601  10.773   0.814 -0.2025 -0.7113  0.0567
  346MOL0     C46642   4.723  10.824   0.743 -0.9785 -0.3168 -0.1708
  346MOL0     H46643   4.790  11.243   0.836 -3.0776  2.4072 -0.0275
  346MOL0     H46644   4.965  11.381   0.949 -0.3493 -0.3291  0.3370
  346MOL0     H46645   5.171  11.382   1.121 -2.7985 -1.4513 -1.2314
  346MOL0     H46646   5.056  11.522   1.102 -1.3563  1.3995  1.3145
  346MOL0     H46647   5.103  11.615   1.307 -0.5047  0.2908 -1.0213
  346MOL0     H46648   5.236  11.599   1.205 -2.6970  0.4710 -1.0881
  346MOL0     H46649   5.336  11.390   1.326 -0.6310 -1.3608  1.3503
  346MOL0     H46650   5.206  11.393   1.432  1.9870  0.1086  1.5503
  346MOL0     H46651   5.275  11.628   1.521  0.9092 -0.8366  3.6404
  346MOL0     H46652   5.384  11.496   1.544 -0.1070  0.7620  0.5399
  346MOL0     H46653   5.511  11.562   1.324  0.6479  1.2958 -1.8453
  346MOL0     H46654   5.417  11.705   1.311 -2.4397 -3.2996 -1.8272
  346MOL0     H46655   5.477  11.762   1.544 -1.7378  0.2996 -0.7088
  346MOL0     H46656   5.580  11.614   1.561 -0.9747 -2.3477 -1.4518
  346MOL0     H46657   5.689  11.836   1.492 -0.8734  0.7206 -1.5565
  346MOL0     H46658   5.633  11.807   1.332  2.5541  0.6381 -0.3826
  346MOL0     H46659   5.821  11.619   1.483  1.3006 -1.1803 -0.8231
  346MOL0     H46660   5.730  11.563   1.349  0.0601 -0.1575 -1.4047
  346MOL0     H46661   5.989  11.843   1.449  0.9288  0.9643 -0.4466
  346MOL0     H46662   6.174  11.957   1.155 -1.7534  4.9839  2.9663
  346MOL0     H46663   6.186  11.971   1.319 -1.7131  1.0906 -1.1280
  346MOL0     H46664   6.325  11.753   1.336 -0.8413  0.8930  0.3998
  346MOL0     H46665   6.286  11.712   1.162 -2.9048 -0.8076  0.5657
  346MOL0     H46666   6.425  11.970   1.224 -1.2059 -0.0196 -0.3951
  346MOL0     H46667   6.442  11.852   1.086  1.4460 -1.9377  0.1090
  346MOL0     H46668   6.523  11.688   1.237 -2.8536  0.3831 -0.4547
  346MOL0     H46669   6.564  11.816   1.356  1.5451 -0.0616 -0.2304
  346MOL0     H46670   6.863  11.892   1.050  0.2962  1.4839  1.0647
  346MOL0     H46671   7.106  11.864   1.101 -2.1674  0.9133 -2.4718
  346MOL0     H46672   7.450  11.928   1.359  1.0278 -1.3605  1.0379
  346MOL0     H46673   7.707  11.913   1.352  4.3526 -0.8642 -3.5347
  346MOL0     H46674   7.788  11.668   1.478  0.4362  0.6297  2.0550
  346MOL0     H46675   7.921  11.570   1.410 -0.9409  0.3928 -0.6309
  346MOL0     H46676   7.942  11.874   1.476 -2.1810 -0.0280 -0.0950
  346MOL0     H46677   7.991  11.736   1.579 -2.9626 -0.4798  0.6830
  346MOL0     H46678   8.156  11.666   1.387  0.5995  0.6999 -1.4952
  346MOL0     H46679   8.072  11.782   1.288 -2.0702  1.4952  0.4554
  346MOL0     H46680   8.246  11.853   1.531  1.1046  1.3515  0.2294
  346MOL0     H46681   8.147  11.963   1.432 -2.0478 -0.7019  0.3682
  346MOL0     H46682   8.412  11.929   1.376  0.0779 -0.5979  0.0243
  346MOL0     H46683   8.298  11.949   1.243 -2.4028 -1.1451 -0.3070
  346MOL0     H46684   8.328  11.713   1.196  0.5255  0.0978  0.2633
  346MOL0     H46685   8.487  11.791   1.194  1.0375 -0.6802  1.1934
  346MOL0     H46686   8.391  11.609   1.421 -0.3881 -0.9556  0.3143
  346MOL0     H46687   8.540  11.703   1.421  0.8170 -1.3026 -1.5328
  346MOL0     H46688   8.604  11.609   1.204  0.6755  0.6640  0.8443
  346MOL0     H46689   8.586  11.486   1.335  1.0419 -1.2105 -1.5694
  346MOL0     H46690   7.682  11.510   1.220  1.1159  0.7352 -0.6221
  346MOL0     H46691   7.425  11.550   1.179 -1.9060 -0.4440  2.2111
  346MOL0     H46692   6.992  11.647   1.452  0.4956 -0.0666 -0.7586
  346MOL0     H46693   6.758  11.683   1.397  0.6085 -0.7580 -0.0129
  346MOL0     H46694   4.848  11.204   1.326  1.4944 -0.8820  0.0846
  346MOL0     H46695   4.704  11.049   1.196  0.7365 -0.2776  0.7846
  346MOL0     H46696   4.344  10.849   1.027  0.1651 -0.7900 -0.3811
  346MOL0     H46697   4.250  10.633   0.939  0.6753  1.0303  0.9168
  346MOL0     H46698   4.253  10.364   0.666 -2.0962 -0.3953  0.1758
  346MOL0     H46699   4.204  10.518   0.728 -0.3732 -1.4636 -1.2110
  346MOL0     H46700   4.127  10.291   0.855 -2.0859  1.0955 -0.6845
  346MOL0     H46701   4.184  10.426   0.961 -1.0385 -0.8453 -0.2277
  346MOL0     H46702   4.407  10.333   0.957  0.8584 -1.6596 -3.1441
  346MOL0     H46703   4.360  10.197   0.857 -3.0931 -2.2300 -0.8615
  346MOL0     H46704   4.201  10.268   1.116 -0.2789 -1.3029  0.8682
  346MOL0     H46705   4.210  10.114   1.030  2.4817 -0.2819 -1.7448
  346MOL0     H46706   4.586  10.154   1.275  0.4910 -0.5848  0.3015
  346MOL0     H46707   4.602  10.605   0.689 -0.0894  0.8836  0.1730
  346MOL0     H46708   4.788  10.742   0.712  0.7387  1.0701 -0.3817
  346MOL0     H46709   4.696  10.888   0.659  0.2953  0.5326  0.0319
  346MOL0     H46710   4.781  10.886   0.812  3.8039 -2.3786 -1.8540
  347MOL0     O46711   8.123   2.829   6.484 -0.1887 -0.0059 -0.2606
  347MOL0     C46712   8.041   2.912   6.455 -0.9222  0.4680  0.0498
  347MOL0     O46713   8.057   3.052   6.480  0.0549 -0.3004  0.2967
  347MOL0     C46714   8.163   3.113   6.541  0.4719  0.0785  0.7000
  347MOL0     C46715   8.198   3.244   6.497 -0.5536  0.1945 -0.1980
  347MOL0     C46716   8.301   3.311   6.567 -0.4104 -0.3669  0.0416
  347MOL0     C46717   8.365   3.251   6.671 -0.8631  0.4848  0.6283
  347MOL0     O46718   8.468   3.312   6.744  0.2252 -0.1778  0.3393
  347MOL0     C46719   8.406   3.411   6.831 -0.7332  0.4865 -0.2717
  347MOL0     C46720   8.510   3.503   6.895  0.3930  0.1403  0.2104
  347MOL0     C46721   8.574   3.594   6.794  0.7261 -0.0549  0.5430
  347MOL0     C46722   8.682   3.690   6.840 -0.4118  0.3089 -0.3641
  347MOL0     C46723   8.639   3.773   6.966 -0.4488 -0.2826 -0.2510
  347MOL0     C46724   8.729   3.888   7.007  0.7913 -0.0429 -0.6054
  347MOL0     C46725   8.701   3.949   7.148  0.5718  0.4359 -0.3459
  347MOL0     C46726   8.704   3.844   7.257 -0.0187  0.8095 -0.0963
  347MOL0     N46727   8.687   3.906   7.386 -0.7510  0.2332 -0.1784
  347MOL0     C46728   8.774   3.989   7.446 -1.4398 -1.6207 -1.2932
  347MOL0     C46729   8.710   4.043   7.552 -0.2308  0.2053 -0.3245
  347MOL0     C46730   8.764   4.160   7.635  0.7069  0.0807 -0.7813
  347MOL0     C46731   8.717   4.175   7.781  0.1009 -0.1822  0.2694
  347MOL0     C46732   8.782   4.090   7.888  0.4996 -0.0235  0.1091
  347MOL0     C46733   8.933   4.106   7.883  0.6061  0.3432  0.9579
  347MOL0     O46734   8.984   4.241   7.883  0.3219  0.0938  0.4445
  347MOL0     C46735   9.121   4.258   7.876 -0.4631 -0.8761 -0.7997
  347MOL0     C46736   9.173   4.391   7.884  0.5648  1.1143  0.5436
  347MOL0     C46737   9.305   4.412   7.868 -0.3541 -0.4845 -0.8367
  347MOL0     C46738   9.396   4.296   7.852  0.8950 -0.2095 -0.7557
  347MOL0     C46739   9.532   4.316   7.819  0.0344 -0.3421  0.7665
  347MOL0     O46740   9.620   4.214   7.850 -0.2352 -0.7408 -0.1866
  347MOL0     C46741   9.753   4.218   7.819  0.4480 -0.1030 -0.5106
  347MOL0     C46742   9.842   4.324   7.821  0.1909 -0.3399  1.2565
  347MOL0     C46743   9.981   4.307   7.808 -0.9480  0.1252  0.2856
  347MOL0     C46744  10.033   4.175   7.793 -0.7481  0.2339  0.9568
  347MOL0     O46745  10.167   4.152   7.792  0.1285  0.5075 -0.2812
  347MOL0     C46746  10.228   4.047   7.722 -0.3621  0.8651 -0.0704
  347MOL0     C46747  10.242   3.915   7.801  0.0500  0.2041 -0.5130
  347MOL0     C46748  10.261   3.923   7.951  0.0854  0.9380  0.2265
  347MOL0     C46749  10.396   3.989   7.989  0.6785  0.2551  0.7574
  347MOL0     C46750  10.514   3.888   7.975 -0.6376 -0.4094 -0.7426
  347MOL0     C46751  10.650   3.946   8.024  0.1199  0.3910 -0.1802
  347MOL0     C46752  10.774   3.854   8.002  0.1765 -0.5845 -1.2369
  347MOL0     C46753  10.896   3.898   8.082  0.2755  0.0734 -1.2018
  347MOL0    Cl46754  11.042   3.801   8.037  0.1391 -0.2025  0.5742
  347MOL0     C46755   9.942   4.070   7.772 -0.0960 -0.5826  0.7588
  347MOL0     C46756   9.805   4.088   7.798  0.5389 -1.0314 -0.2605
  347MOL0     O46757   9.561   4.420   7.762 -0.6454 -1.0748  0.1176
  347MOL0     C46758   9.342   4.165   7.860 -0.4229 -0.1950 -0.7030
  347MOL0     C46759   9.209   4.146   7.871  0.6580  0.3141 -1.6419
  347MOL0     N46760   8.583   3.984   7.551  0.6224  0.3164 -0.4818
  347MOL0     N46761   8.569   3.917   7.447 -0.4043  0.1291 -0.2150
  347MOL0     C46762   8.328   3.120   6.708 -0.4540  0.3313 -0.1121
  347MOL0     C46763   8.231   3.048   6.647  0.0881 -0.2738  0.9248
  347MOL0     C46764   7.927   2.851   6.379  0.3875  0.4339  0.7298
  347MOL0     C46765   7.953   2.746   6.293 -0.9006 -0.3056  0.0560
  347MOL0     C46766   7.854   2.681   6.231 -0.2082  0.4711  0.3824
  347MOL0     C46767   7.714   2.715   6.233 -0.1039  0.7447  0.4074
  347MOL0     O46768   7.637   2.639   6.155  1.0673 -0.0237 -0.6377
  347MOL0     C46769   7.514   2.703   6.124 -0.3811  0.2011 -0.4026
  347MOL0     C46770   7.446   2.622   6.003  0.7272  0.8702  0.1457
  347MOL0     C46771   7.427   2.471   6.034  0.0755 -0.1299 -0.2080
  347MOL0     C46772   7.350   2.383   5.927  0.3466 -0.3084 -0.0523
  347MOL0     C46773   7.210   2.357   5.977 -0.2027 -0.2425 -0.6067
  347MOL0     C46774   7.096   2.324   6.003 -0.4996 -0.3770 -0.3139
  347MOL0     C46775   7.687   2.831   6.308  0.6993 -0.1208  0.7091
  347MOL0     C46776   7.791   2.902   6.373 -0.1703 -0.0206  0.6756
  347MOL0     C46777   7.738   3.008   6.457 -0.4079  0.2046 -0.6970
  347MOL0     H46778   8.131   3.280   6.420 -3.7342 -0.0719  2.2387
  347MOL0     H46779   8.329   3.406   6.520  2.8467 -1.1879  0.0681
  347MOL0     H46780   8.340   3.471   6.769 -1.5835 -1.3691 -1.2477
  347MOL0     H46781   8.337   3.364   6.902 -0.8199 -0.4694 -0.9680
  347MOL0     H46782   8.589   3.447   6.946 -0.9494 -0.8904  1.2121
  347MOL0     H46783   8.448   3.559   6.966  0.7536 -1.5962  1.9919
  347MOL0     H46784   8.492   3.634   6.732  0.6902 -0.0501  0.5941
  347MOL0     H46785   8.627   3.526   6.727 -0.6423 -1.3612  0.7235
  347MOL0     H46786   8.771   3.629   6.860 -1.0518 -1.3805 -2.3499
  347MOL0     H46787   8.698   3.762   6.760 -0.7888  0.3503 -0.4003
  347MOL0     H46788   8.542   3.820   6.949 -0.5975 -0.4962  0.0120
  347MOL0     H46789   8.642   3.708   7.053 -0.6825  1.1884  0.8975
  347MOL0     H46790   8.835   3.860   7.007  0.4894 -1.2385 -1.6413
  347MOL0     H46791   8.717   3.971   6.937  0.8408  0.4014 -0.1023
  347MOL0     H46792   8.599   3.989   7.146  1.2013  2.0843 -0.5799
  347MOL0     H46793   8.774   4.029   7.163 -0.9163  2.0243 -1.1800
  347MOL0     H46794   8.625   3.770   7.240 -1.2854  1.5475  2.1676
  347MOL0     H46795   8.799   3.792   7.241 -0.5975 -0.2668 -0.1315
  347MOL0     H46796   8.869   4.029   7.410 -2.0630  2.3322  0.9196
  347MOL0     H46797   8.872   4.152   7.621  0.7475 -2.2101  0.3230
  347MOL0     H46798   8.722   4.249   7.588 -0.2122  0.4448  0.6707
  347MOL0     H46799   8.737   4.279   7.809 -0.6734 -1.0015  4.5586
  347MOL0     H46800   8.611   4.147   7.784 -0.2512  0.9551 -0.6586
  347MOL0     H46801   8.745   3.989   7.865 -0.3977  0.0777  1.0359
  347MOL0     H46802   8.757   4.131   7.986  2.8800  0.0342  0.7595
  347MOL0     H46803   8.959   4.048   7.793 -0.2906  0.3275  0.7014
  347MOL0     H46804   8.979   4.055   7.968  0.9861  0.0015  0.5565
  347MOL0     H46805   9.112   4.479   7.900  2.2034  2.0361  2.1163
  347MOL0     H46806   9.336   4.516   7.872  1.6638 -1.0555 -0.8764
  347MOL0     H46807   9.799   4.423   7.832  0.1849 -0.2449  0.3845
  347MOL0     H46808  10.047   4.393   7.813 -4.1858  3.2369 -3.5515
  347MOL0     H46809  10.186   4.023   7.624  1.3489 -1.0007 -0.4112
  347MOL0     H46810  10.327   4.090   7.703 -0.1776  0.1853 -0.7035
  347MOL0     H46811  10.157   3.846   7.789 -1.6806  1.6938  2.1727
  347MOL0     H46812  10.323   3.869   7.745 -0.7995  0.0573 -1.6603
  347MOL0     H46813  10.185   3.990   7.993  2.8342  3.9219  0.8169
  347MOL0     H46814  10.244   3.822   7.989 -1.0874  0.7214 -0.7851
  347MOL0     H46815  10.378   4.003   8.096  0.1330 -3.3825  1.2819
  347MOL0     H46816  10.405   4.090   7.949 -2.3078 -0.0800 -1.0361
  347MOL0     H46817  10.534   3.862   7.871  0.9601  1.8092 -1.0549
  347MOL0     H46818  10.505   3.795   8.033 -2.5848 -0.9761 -1.8508
  347MOL0     H46819  10.679   4.046   7.990  0.7681  0.6956  1.2150
  347MOL0     H46820  10.623   3.949   8.129 -1.5267 -1.7664 -0.4658
  347MOL0     H46821  10.796   3.860   7.895  3.0489 -1.0081 -0.7640
  347MOL0     H46822  10.751   3.750   8.025  1.6666 -1.3333 -2.8547
  347MOL0     H46823  10.911   4.006   8.075 -0.8408  0.3630  0.3445
  347MOL0     H46824  10.877   3.882   8.189  0.9767  2.6340 -0.6323
  347MOL0     H46825   9.990   3.974   7.755  1.6888  0.1330  1.5181
  347MOL0     H46826   9.738   4.002   7.797  2.2796 -2.4641 -0.8035
  347MOL0     H46827   9.407   4.079   7.846 -2.6025 -1.8140 -1.3126
  347MOL0     H46828   9.183   4.040   7.868 -0.7439  0.5656  0.2466
  347MOL0     H46829   8.373   3.072   6.794  2.0174 -2.3344 -2.6531
  347MOL0     H46830   8.198   2.956   6.695 -2.1713  0.5507  1.0928
  347MOL0     H46831   8.055   2.711   6.285 -0.7651 -0.7266  2.6201
  347MOL0     H46832   7.878   2.592   6.174  5.6098  1.0142  1.3471
  347MOL0     H46833   7.528   2.807   6.096  2.2568 -0.2398 -0.9624
  347MOL0     H46834   7.450   2.685   6.211  0.7599 -0.9157  0.2565
  347MOL0     H46835   7.497   2.634   5.907 -0.5830 -0.3905 -0.7475
  347MOL0     H46836   7.354   2.680   5.986  1.6290  2.0042 -1.1534
  347MOL0     H46837   7.382   2.449   6.132 -3.6375 -1.4335 -2.0048
  347MOL0     H46838   7.521   2.417   6.046 -0.1909 -0.3777  0.9097
  347MOL0     H46839   7.349   2.429   5.828 -0.1035 -0.9843 -0.3700
  347MOL0     H46840   7.396   2.284   5.916  0.2033 -0.3358 -0.4061
  347MOL0     H46841   7.018   2.275   6.056  0.9059 -0.8097  1.4473
  347MOL0     H46842   7.585   2.867   6.316  0.9883  0.4033  2.3749
  347MOL0     H46843   7.700   3.091   6.397 -1.0441 -0.0313 -0.6276
  347MOL0     H46844   7.649   2.966   6.504  1.0350 -2.1115  0.1518
  347MOL0     H46845   7.814   3.048   6.525 -0.7968  1.4959 -0.9990
  348MOL0     O46846   2.253   5.261   4.983  0.1165  0.6473  0.4360
  348MOL0     C46847   2.152   5.220   5.026  0.9184  0.2320 -1.1812
  348MOL0     O46848   2.137   5.115   5.119  0.5736 -0.3877  0.1484
  348MOL0     C46849   2.252   5.046   5.143 -0.6860 -0.5934  0.2888
  348MOL0     C46850   2.301   5.044   5.267  0.8496  0.3489 -0.8713
  348MOL0     C46851   2.427   4.985   5.287 -0.1228  0.2037  0.4445
  348MOL0     C46852   2.503   4.932   5.184 -0.0369 -1.0597  0.0728
  348MOL0     O46853   2.629   4.891   5.213  0.1907  0.1739  0.1961
  348MOL0     C46854   2.704   4.809   5.129 -0.4150  0.2582  0.2589
  348MOL0     C46855   2.845   4.792   5.177  0.2363  0.1819  0.4055
  348MOL0     C46856   2.905   4.668   5.110  0.1475  0.4622  0.3039
  348MOL0     C46857   3.030   4.613   5.176 -0.3846 -0.6078 -0.1153
  348MOL0     C46858   3.092   4.501   5.092 -0.0656  0.3448 -0.7890
  348MOL0     C46859   3.224   4.434   5.151  0.8772 -0.0374 -0.2392
  348MOL0     C46860   3.339   4.535   5.139  0.1945  0.7203 -0.5027
  348MOL0     C46861   3.475   4.491   5.204 -0.5545 -0.2913 -0.3181
  348MOL0     N46862   3.463   4.419   5.324  0.5233 -0.1167 -0.0485
  348MOL0     C46863   3.394   4.460   5.433 -0.3666 -0.6913  0.5977
  348MOL0     C46864   3.412   4.370   5.532  0.5666  0.7416 -0.6280
  348MOL0     C46865   3.383   4.365   5.682 -0.0609 -1.5202  0.0219
  348MOL0     C46866   3.247   4.320   5.706  0.2480 -0.7000  0.6549
  348MOL0     C46867   3.142   4.400   5.626  0.3029 -0.4230 -0.9246
  348MOL0     C46868   3.006   4.407   5.691  0.0412 -0.2801  0.2541
  348MOL0     O46869   2.900   4.457   5.607 -0.0162 -0.7448  0.6180
  348MOL0     C46870   2.841   4.579   5.619 -0.0903  0.4536  0.0251
  348MOL0     C46871   2.756   4.615   5.512  0.9685  0.0414  0.0808
  348MOL0     C46872   2.679   4.727   5.535 -0.0449 -0.0637 -0.0889
  348MOL0     C46873   2.690   4.813   5.648 -0.1281 -1.2883 -0.0507
  348MOL0     C46874   2.608   4.933   5.659 -0.2233 -0.3346 -0.7987
  348MOL0     O46875   2.481   4.926   5.602  0.3089  0.8325 -0.2037
  348MOL0     C46876   2.390   5.014   5.647 -0.4621  0.7394 -0.0545
  348MOL0     C46877   2.288   4.962   5.721 -0.3663 -0.6835  0.8496
  348MOL0     C46878   2.178   5.049   5.752 -0.0728  0.2819  0.7436
  348MOL0     C46879   2.167   5.181   5.701 -0.8637 -0.1439  1.0746
  348MOL0     O46880   2.058   5.263   5.726  0.2653  0.5004  0.5766
  348MOL0     C46881   1.940   5.202   5.786  0.3015  0.3799  0.3911
  348MOL0     C46882   1.831   5.310   5.815  0.1654  0.3046 -0.5277
  348MOL0     C46883   1.703   5.243   5.860  0.3427  0.2925  0.6419
  348MOL0     C46884   1.602   5.354   5.900 -0.1831 -1.6544 -0.2791
  348MOL0     C46885   1.499   5.292   5.992 -0.7817 -0.3069  0.2320
  348MOL0     C46886   1.406   5.394   6.044  1.0856 -0.0222 -0.0368
  348MOL0     C46887   1.290   5.327   6.123 -0.8802 -0.3699  0.2652
  348MOL0     C46888   1.217   5.420   6.221 -0.2130 -0.6455 -0.4069
  348MOL0    Cl46889   1.101   5.518   6.121  0.2770 -0.3827 -0.3695
  348MOL0     C46890   2.269   5.225   5.619  0.0567  0.2061  0.0942
  348MOL0     C46891   2.382   5.144   5.594 -0.1481 -0.1799  0.0081
  348MOL0     O46892   2.648   5.010   5.744 -1.1673  1.2432  0.4388
  348MOL0     C46893   2.790   4.779   5.747 -0.4680 -0.4991  0.2419
  348MOL0     C46894   2.865   4.661   5.728 -0.2846  1.1304  0.4838
  348MOL0     N46895   3.483   4.262   5.475 -0.2861 -0.0205 -0.0557
  348MOL0     N46896   3.518   4.301   5.355 -0.2666  0.4183  0.2311
  348MOL0     C46897   2.448   4.930   5.055 -0.8008 -0.3414 -0.7813
  348MOL0     C46898   2.328   5.001   5.034  0.7854  0.2577 -0.0816
  348MOL0     C46899   2.025   5.290   4.994  0.6546 -0.1441  0.7199
  348MOL0     C46900   1.929   5.303   5.100 -0.4289  0.0514  0.3470
  348MOL0     C46901   1.813   5.386   5.084  1.0065  0.2383 -0.2431
  348MOL0     C46902   1.793   5.443   4.955  1.0096  0.8302  0.2270
  348MOL0     O46903   1.682   5.518   4.911  0.0147  0.3543  0.0854
  348MOL0     C46904   1.593   5.574   5.010 -0.0756  0.4588 -0.0020
  348MOL0     C46905   1.464   5.616   4.952  0.2784  0.0184  0.4051
  348MOL0     C46906   1.465   5.759   4.895  0.1091  0.3614 -0.8905
  348MOL0     C46907   1.361   5.774   4.777 -0.4899 -0.4759 -0.5826
  348MOL0     C46908   1.235   5.709   4.802  0.6305  0.5023 -0.3268
  348MOL0     C46909   1.133   5.653   4.812 -0.2622 -0.0397  0.1777
  348MOL0     C46910   1.877   5.424   4.851  0.1044  1.0308 -0.3813
  348MOL0     C46911   1.996   5.353   4.867  0.3244 -0.2531 -0.6555
  348MOL0     C46912   2.092   5.344   4.746  0.2330  0.0180 -0.0395
  348MOL0     H46913   2.248   5.100   5.344  1.9960  0.3686 -0.0633
  348MOL0     H46914   2.478   4.980   5.383  1.1963 -2.2721 -0.2856
  348MOL0     H46915   2.656   4.711   5.122  0.0465  0.0920 -0.6561
  348MOL0     H46916   2.708   4.847   5.027 -3.6872  0.2511  0.0064
  348MOL0     H46917   2.837   4.773   5.284 -2.9297  0.5752  0.3413
  348MOL0     H46918   2.890   4.887   5.145  0.1400  0.8701  2.2114
  348MOL0     H46919   2.921   4.682   5.003  1.8000 -2.5184  0.0623
  348MOL0     H46920   2.839   4.581   5.115  1.0071 -0.2187 -0.1082
  348MOL0     H46921   3.104   4.694   5.175 -1.0499  0.0024 -0.0001
  348MOL0     H46922   3.011   4.576   5.277  1.2724 -1.8416 -0.2051
  348MOL0     H46923   3.010   4.429   5.078  0.4799 -0.2002 -1.2343
  348MOL0     H46924   3.112   4.527   4.988 -0.4626 -1.8680 -1.4673
  348MOL0     H46925   3.193   4.391   5.246 -1.1104 -4.9406 -2.7783
  348MOL0     H46926   3.263   4.345   5.100  1.3591  0.1488 -0.2027
  348MOL0     H46927   3.299   4.615   5.202 -0.7250 -1.0360  1.2716
  348MOL0     H46928   3.353   4.563   5.034 -1.5066  2.3718 -0.3553
  348MOL0     H46929   3.534   4.430   5.135 -0.6618  0.0424 -0.7097
  348MOL0     H46930   3.534   4.582   5.224 -0.4137  0.5519 -3.8554
  348MOL0     H46931   3.348   4.557   5.444  0.0947 -0.3295 -0.4712
  348MOL0     H46932   3.453   4.293   5.726 -0.5497 -2.1551 -0.2202
  348MOL0     H46933   3.396   4.464   5.727 -1.8997 -1.8320  1.3394
  348MOL0     H46934   3.243   4.215   5.674 -2.3431 -0.3533 -0.3691
  348MOL0     H46935   3.233   4.318   5.814 -1.2626 -1.4374  0.4775
  348MOL0     H46936   3.131   4.358   5.525 -1.0098 -1.1763 -0.4980
  348MOL0     H46937   3.175   4.502   5.606 -2.8601  0.9697  0.2560
  348MOL0     H46938   3.013   4.458   5.788 -2.3128 -0.8462  0.7856
  348MOL0     H46939   2.979   4.307   5.726 -0.9340  0.7292  2.6344
  348MOL0     H46940   2.739   4.543   5.432  2.8841 -1.2921  0.8000
  348MOL0     H46941   2.607   4.752   5.458 -0.2579 -1.3935 -0.3527
  348MOL0     H46942   2.294   4.860   5.760 -0.6511 -0.0619  2.5981
  348MOL0     H46943   2.090   5.005   5.798  1.5133 -1.1651  2.5834
  348MOL0     H46944   1.905   5.122   5.721  2.3217 -0.8516  0.7399
  348MOL0     H46945   1.966   5.153   5.881  1.1295  1.5975  0.8206
  348MOL0     H46946   1.873   5.378   5.891 -0.3717 -1.3106  1.3088
  348MOL0     H46947   1.802   5.363   5.724 -1.5176 -1.7739 -1.2658
  348MOL0     H46948   1.673   5.169   5.786  1.2465 -0.5414  1.0902
  348MOL0     H46949   1.721   5.187   5.952  0.5296  1.3960  1.3045
  348MOL0     H46950   1.552   5.394   5.811  0.3265 -0.0154  0.1300
  348MOL0     H46951   1.646   5.437   5.956  2.4463 -0.0224 -4.2540
  348MOL0     H46952   1.556   5.250   6.075  0.0363  0.6327  0.1600
  348MOL0     H46953   1.453   5.204   5.947 -1.3551 -0.2753  0.7385
  348MOL0     H46954   1.457   5.463   6.111 -2.0829  3.4527 -0.8495
  348MOL0     H46955   1.379   5.456   5.958  0.6911  0.1646  0.2171
  348MOL0     H46956   1.329   5.252   6.192 -1.7550 -2.4399 -1.3717
  348MOL0     H46957   1.211   5.279   6.065 -1.8382  1.6077 -0.1296
  348MOL0     H46958   1.163   5.371   6.303  1.1669 -1.4786  0.0388
  348MOL0     H46959   1.280   5.493   6.271 -1.2135  0.3491 -0.5569
  348MOL0     H46960   2.250   5.318   5.566  4.4177  0.2226 -1.8840
  348MOL0     H46961   2.464   5.179   5.532  1.6673 -0.3474  2.2118
  348MOL0     H46962   2.819   4.849   5.825 -0.3330 -0.6019  0.2846
  348MOL0     H46963   2.953   4.636   5.787 -1.0705 -0.9899  0.8281
  348MOL0     H46964   2.508   4.887   4.974  0.0870 -1.1614  0.2780
  348MOL0     H46965   2.290   5.014   4.933  0.4240  1.9737  0.2466
  348MOL0     H46966   1.948   5.265   5.200 -0.6541  2.4678  1.3760
  348MOL0     H46967   1.747   5.419   5.164  1.1562 -0.7668  0.3116
  348MOL0     H46968   1.629   5.668   5.053 -0.3520  0.9127 -0.7377
  348MOL0     H46969   1.572   5.503   5.090  1.0828  1.7921  1.5505
  348MOL0     H46970   1.390   5.613   5.032 -1.1626 -1.5533 -0.9156
  348MOL0     H46971   1.428   5.549   4.873  2.7127 -1.5407  0.5143
  348MOL0     H46972   1.561   5.786   4.851 -0.2582  1.0365 -1.3006
  348MOL0     H46973   1.435   5.824   4.978 -0.1296 -0.5354 -0.2564
  348MOL0     H46974   1.352   5.883   4.774  2.4120 -0.1775 -0.7373
  348MOL0     H46975   1.396   5.728   4.684 -1.4743 -0.8861 -0.7607
  348MOL0     H46976   1.038   5.605   4.821 -1.9612  2.4892 -2.5576
  348MOL0     H46977   1.854   5.464   4.752 -1.8640 -0.2874 -0.5217
  348MOL0     H46978   2.064   5.420   4.672 -2.1704 -0.4843  0.2767
  348MOL0     H46979   2.196   5.368   4.769  0.4564 -1.0489  0.1261
  348MOL0     H46980   2.103   5.244   4.703  1.1610 -0.2627  0.8099
  349MOL0     O46981  10.836   5.637   7.934  0.5731  0.4983  0.2914
  349MOL0     C46982  10.866   5.755   7.899 -0.5616  0.0238  0.2654
  349MOL0     O46983  10.906   5.853   7.981  0.4965 -0.3594 -0.9159
  349MOL0     C46984  10.955   5.817   8.100 -0.2113  0.9514  0.1926
  349MOL0     C46985  11.096   5.802   8.127  0.6393 -0.4024  0.2340
  349MOL0     C46986  11.155   5.748   8.242 -0.5476 -0.3164  0.2623
  349MOL0     C46987  11.071   5.691   8.336 -0.7226  0.1647 -0.1529
  349MOL0     O46988  11.107   5.611   8.440 -0.0303  0.2716 -0.3479
  349MOL0     C46989  11.241   5.600   8.468 -0.1430  1.1620 -0.3203
  349MOL0     C46990  11.249   5.478   8.565  0.0563 -0.2982 -0.3156
  349MOL0     C46991  11.390   5.428   8.575 -0.1336 -0.3957  0.2787
  349MOL0     C46992  11.430   5.313   8.489 -0.8596 -0.1906  0.0111
  349MOL0     C46993  11.568   5.254   8.526 -0.4406 -0.3474 -0.2981
  349MOL0     C46994  11.618   5.150   8.427 -0.1086  0.2113 -0.7819
  349MOL0     C46995  11.761   5.108   8.457 -0.0794 -0.3294  0.3145
  349MOL0     C46996  11.871   5.217   8.431  0.2634 -0.3181  0.6312
  349MOL0     N46997  11.993   5.170   8.487 -0.3139 -0.0147 -0.6353
  349MOL0     C46998  12.071   5.078   8.421  0.2639 -0.1046 -0.2743
  349MOL0     C46999  12.172   5.052   8.508  0.0045 -0.2325 -0.4092
  349MOL0     C47000  12.278   4.955   8.466  0.6463  1.3293  0.3081
  349MOL0     C47001  12.408   5.001   8.511  0.0765 -0.8622 -0.0037
  349MOL0     C47002  12.516   4.905   8.483 -1.2797  1.2906 -0.3049
  349MOL0     C47003  12.647   4.967   8.547 -0.1100 -0.0625 -0.6163
  349MOL0     O47004  12.760   4.871   8.554  0.0371  0.4360  0.3930
  349MOL0     C47005  12.887   4.901   8.599 -0.2940 -0.1747 -0.5086
  349MOL0     C47006  12.979   4.798   8.619  0.8606 -0.5794 -0.3520
  349MOL0     C47007  13.107   4.814   8.680 -0.1135 -0.0724  0.0403
  349MOL0     C47008  13.142   4.946   8.727 -0.3042 -0.0060  0.1118
  349MOL0     C47009  13.275   4.966   8.788 -0.9046 -0.8823 -0.5149
  349MOL0     O47010  13.305   5.092   8.841 -0.7076 -0.2000  0.1865
  349MOL0     C47011  13.437   5.110   8.869 -0.9941 -0.5688  1.0793
  349MOL0     C47012  13.482   5.127   8.999  0.3364 -0.2446  0.2776
  349MOL0     C47013  13.608   5.168   9.033  0.1841 -0.0799  0.4382
  349MOL0     C47014  13.699   5.193   8.916  0.8464  0.3865 -0.8769
  349MOL0     O47015  13.824   5.245   8.931  0.5504 -0.9875  0.1588
  349MOL0     C47016  13.854   5.312   9.054 -0.8361  0.0750 -0.4455
  349MOL0     C47017  13.992   5.388   9.060  0.1656 -1.2805  1.1139
  349MOL0     C47018  14.030   5.411   9.204  0.7825 -0.3530  0.4555
  349MOL0     C47019  14.161   5.482   9.208  0.6952 -0.2310  0.4575
  349MOL0     C47020  14.235   5.484   9.347 -0.1458 -0.6754 -0.0242
  349MOL0     C47021  14.175   5.401   9.455  0.3293  0.1130  0.3014
  349MOL0     C47022  14.250   5.408   9.580  0.6763  0.3737 -0.0174
  349MOL0     C47023  14.404   5.392   9.577  0.8653  0.3970 -0.4060
  349MOL0    Cl47024  14.472   5.300   9.713 -0.0800 -0.2061 -0.3624
  349MOL0     C47025  13.657   5.156   8.782 -0.7744 -0.1891 -0.6556
  349MOL0     C47026  13.525   5.125   8.757  0.1570  0.4252 -0.3311
  349MOL0     O47027  13.347   4.868   8.807 -0.5368  0.3412  0.4192
  349MOL0     C47028  13.045   5.049   8.712 -0.6982  0.4875 -0.6365
  349MOL0     C47029  12.922   5.025   8.647 -0.9626  0.0003 -0.7081
  349MOL0     N47030  12.151   5.116   8.631  0.1799 -0.2837 -0.2050
  349MOL0     N47031  12.037   5.181   8.617 -0.1240  1.2408 -0.7832
  349MOL0     C47032  10.935   5.690   8.311 -0.5507 -1.1806 -0.2404
  349MOL0     C47033  10.881   5.751   8.196  0.4022  0.6998 -0.6892
  349MOL0     C47034  10.876   5.785   7.753 -0.1902 -0.1762  0.5668
  349MOL0     C47035  10.905   5.924   7.721  0.3133  0.7101  0.8985
  349MOL0     C47036  10.924   5.956   7.588 -0.2904 -0.4318  0.4276
  349MOL0     C47037  10.946   5.857   7.489  0.9169 -0.0662 -0.0867
  349MOL0     O47038  11.011   5.897   7.373  0.8213  0.5986 -0.2623
  349MOL0     C47039  11.020   5.792   7.273  0.2961  0.7803  0.2462
  349MOL0     C47040  11.124   5.829   7.155 -0.2761 -0.2646 -0.3650
  349MOL0     C47041  11.265   5.836   7.201 -0.2306 -0.0820 -0.1273
  349MOL0     C47042  11.364   5.886   7.094  0.1487  0.4483  0.2418
  349MOL0     C47043  11.336   6.028   7.071 -0.2529  1.1237  0.5166
  349MOL0     C47044  11.293   6.138   7.064 -0.6203 -0.0855 -0.8368
  349MOL0     C47045  10.914   5.722   7.521 -1.0330  0.6829 -0.3212
  349MOL0     C47046  10.877   5.690   7.644  0.2249 -0.4216  0.2454
  349MOL0     C47047  10.843   5.544   7.667 -0.5696 -0.2368 -0.2096
  349MOL0     H47048  11.161   5.846   8.052  0.2633  3.3156  1.8791
  349MOL0     H47049  11.263   5.739   8.244 -0.1919  1.1421 -3.6231
  349MOL0     H47050  11.304   5.576   8.382 -0.4233  0.1861 -0.2579
  349MOL0     H47051  11.274   5.685   8.529  0.7062 -0.3390  1.3858
  349MOL0     H47052  11.178   5.402   8.532 -1.6861  1.5303 -0.9596
  349MOL0     H47053  11.220   5.507   8.666 -0.3253 -1.7034 -0.0139
  349MOL0     H47054  11.406   5.399   8.679 -0.0425  0.9300  0.6571
  349MOL0     H47055  11.458   5.510   8.553  0.8644 -1.8950 -2.6769
  349MOL0     H47056  11.358   5.231   8.497 -0.8100 -0.0353  3.0335
  349MOL0     H47057  11.435   5.340   8.383 -0.3565 -2.3216 -0.5684
  349MOL0     H47058  11.645   5.332   8.535  1.4429 -2.1712  0.3957
  349MOL0     H47059  11.561   5.200   8.621  1.4820  1.4679  0.9849
  349MOL0     H47060  11.551   5.063   8.430  0.6424 -0.3826 -1.1272
  349MOL0     H47061  11.614   5.188   8.325  0.4403  0.1280 -0.8350
  349MOL0     H47062  11.794   5.023   8.397  1.2823  0.5702 -0.2623
  349MOL0     H47063  11.776   5.086   8.563  0.3763  1.9894  0.7738
  349MOL0     H47064  11.898   5.236   8.326 -0.7836 -3.9955 -0.4579
  349MOL0     H47065  11.847   5.309   8.484 -4.5314 -0.8101 -0.2575
  349MOL0     H47066  12.069   5.052   8.316  0.8586 -0.0218 -0.3113
  349MOL0     H47067  12.259   4.852   8.499 -0.5025  1.2471 -0.5646
  349MOL0     H47068  12.283   4.952   8.357  1.5569  1.7525  0.3296
  349MOL0     H47069  12.430   5.104   8.479  1.0634 -0.1445  2.6968
  349MOL0     H47070  12.404   5.011   8.619  0.0076  0.1796 -0.0930
  349MOL0     H47071  12.529   4.896   8.375  1.3344 -1.8205  0.1055
  349MOL0     H47072  12.500   4.802   8.519  3.8442  0.0955 -0.7028
  349MOL0     H47073  12.625   5.010   8.645 -0.4058 -2.9189  0.6875
  349MOL0     H47074  12.685   5.053   8.492 -2.2889  1.6998  0.4626
  349MOL0     H47075  12.947   4.696   8.598  0.6375 -0.8484  1.1425
  349MOL0     H47076  13.167   4.724   8.692  2.1609  1.0277 -2.1634
  349MOL0     H47077  13.412   5.105   9.079  1.0461 -0.1189  0.9432
  349MOL0     H47078  13.649   5.189   9.131  1.5154 -0.5468 -0.0020
  349MOL0     H47079  13.776   5.386   9.076 -0.1451 -0.0232  2.8621
  349MOL0     H47080  13.850   5.247   9.142 -0.3319  1.3971  0.5886
  349MOL0     H47081  14.071   5.332   9.009 -0.1260 -0.8122  0.1172
  349MOL0     H47082  13.976   5.484   9.011  0.4005 -0.6685  2.2065
  349MOL0     H47083  13.950   5.461   9.259 -0.6250 -0.5931 -1.2743
  349MOL0     H47084  14.046   5.314   9.252 -3.9313 -2.0551 -0.8143
  349MOL0     H47085  14.142   5.581   9.166 -2.2980 -1.6204 -1.7272
  349MOL0     H47086  14.226   5.431   9.136 -2.1472 -2.3642 -0.7703
  349MOL0     H47087  14.230   5.589   9.374 -1.9256 -0.3622 -1.3630
  349MOL0     H47088  14.337   5.447   9.332  0.1747 -1.2766  3.0597
  349MOL0     H47089  14.077   5.439   9.486 -0.6305  0.5719 -2.9326
  349MOL0     H47090  14.159   5.298   9.421  2.4784 -0.2682  0.3217
  349MOL0     H47091  14.203   5.327   9.637 -1.1625  1.0812 -0.4448
  349MOL0     H47092  14.214   5.496   9.634 -3.7790 -1.4828  0.5557
  349MOL0     H47093  14.444   5.341   9.489  1.1329  3.1357 -1.9624
  349MOL0     H47094  14.453   5.489   9.570  2.2926 -0.3113 -0.6028
  349MOL0     H47095  13.724   5.176   8.699 -1.8164  1.8980 -1.0626
  349MOL0     H47096  13.480   5.117   8.658  2.8595 -1.7626 -1.4856
  349MOL0     H47097  13.062   5.150   8.749  0.1778  0.4423 -0.8952
  349MOL0     H47098  12.859   5.113   8.645 -0.2996  0.4840 -0.6590
  349MOL0     H47099  10.867   5.639   8.378  0.4411 -2.6808 -0.3093
  349MOL0     H47100  10.774   5.749   8.178  0.6348  0.3669 -2.1472
  349MOL0     H47101  10.901   5.998   7.800  4.5790  0.7173  1.3283
  349MOL0     H47102  10.940   6.057   7.552  0.0861 -0.6594 -0.0626
  349MOL0     H47103  10.923   5.766   7.230  0.7785 -2.2711  0.7651
  349MOL0     H47104  11.055   5.696   7.312 -1.0996 -0.0466 -0.4558
  349MOL0     H47105  11.088   5.924   7.115 -0.1875 -0.1766 -0.2320
  349MOL0     H47106  11.110   5.753   7.077 -2.1685 -0.4457  0.0843
  349MOL0     H47107  11.295   5.738   7.241 -0.8280 -0.3143 -0.2442
  349MOL0     H47108  11.265   5.912   7.279 -1.7257  0.2931 -0.4670
  349MOL0     H47109  11.464   5.872   7.135 -1.1059 -0.5363  3.2772
  349MOL0     H47110  11.365   5.826   7.002  2.2612 -1.9914  1.7414
  349MOL0     H47111  11.265   6.241   7.072  0.6530  0.4817 -2.7803
  349MOL0     H47112  10.922   5.647   7.442  0.1820  0.9904 -0.5047
  349MOL0     H47113  10.838   5.488   7.573 -0.2013  3.0763 -2.3817
  349MOL0     H47114  10.924   5.515   7.735  1.1244  3.2858 -0.5167
  349MOL0     H47115  10.748   5.536   7.720  0.6081 -3.1994  1.7683
  350MOL0     O47116   2.081   5.452   2.084  0.3273 -0.5591  0.1680
  350MOL0     C47117   2.004   5.362   2.115  0.2419  0.5775  0.5130
  350MOL0     O47118   1.955   5.263   2.027 -0.2864  0.2630  0.5071
  350MOL0     C47119   1.997   5.277   1.897 -0.2180 -0.3235 -0.2467
  350MOL0     C47120   2.120   5.225   1.866  0.2953 -0.2379  0.8134
  350MOL0     C47121   2.177   5.253   1.740  0.3359  0.3777  0.0482
  350MOL0     C47122   2.098   5.327   1.642  0.5393  0.3703  0.1432
  350MOL0     O47123   2.152   5.347   1.515  0.0109 -0.2795  0.2075
  350MOL0     C47124   2.300   5.372   1.521  0.0649  0.2636  0.7362
  350MOL0     C47125   2.349   5.467   1.408 -0.2257  0.2649 -0.4384
  350MOL0     C47126   2.497   5.476   1.381 -1.0535  0.5955  0.2661
  350MOL0     C47127   2.576   5.532   1.498  0.5421 -0.1076 -0.5671
  350MOL0     C47128   2.710   5.582   1.447  0.1670 -0.2405 -0.2881
  350MOL0     C47129   2.817   5.605   1.561 -0.1420  0.8313  0.3673
  350MOL0     C47130   2.959   5.630   1.498 -0.2335 -0.3358 -0.0267
  350MOL0     C47131   3.059   5.663   1.612  0.2438 -0.0264 -0.7917
  350MOL0     N47132   3.190   5.643   1.552 -0.3366  0.1144 -0.4724
  350MOL0     C47133   3.241   5.528   1.501 -0.4423 -0.2868  0.3913
  350MOL0     C47134   3.364   5.566   1.465  0.4100 -0.5499 -0.3111
  350MOL0     C47135   3.464   5.469   1.410  0.6494  0.7386  0.0035
  350MOL0     C47136   3.481   5.348   1.496  0.6185 -0.1485 -0.7873
  350MOL0     C47137   3.545   5.243   1.416  0.2960  0.4017  0.3119
  350MOL0     C47138   3.603   5.134   1.500 -0.7095 -0.3629 -0.5459
  350MOL0     O47139   3.724   5.178   1.553 -0.4360  0.6459 -0.1639
  350MOL0     C47140   3.843   5.113   1.512  0.6844  0.3025  1.0202
  350MOL0     C47141   3.941   5.178   1.437 -0.3633  0.0517  0.6241
  350MOL0     C47142   4.057   5.107   1.413 -0.0068  0.5387 -0.1933
  350MOL0     C47143   4.078   4.977   1.450 -0.6040 -0.1644 -1.3527
  350MOL0     C47144   4.197   4.902   1.421 -0.6679  0.2869  0.0165
  350MOL0     O47145   4.193   4.769   1.423 -0.1368  0.3370  0.1439
  350MOL0     C47146   4.298   4.689   1.381  0.0240  0.1305  0.1075
  350MOL0     C47147   4.422   4.690   1.450  0.3663  0.1242  0.2400
  350MOL0     C47148   4.528   4.596   1.408 -0.9284 -1.2471  0.2195
  350MOL0     C47149   4.518   4.536   1.280  0.4761  0.4338 -0.2204
  350MOL0     O47150   4.626   4.456   1.251 -0.3253 -0.4567 -0.0678
  350MOL0     C47151   4.736   4.549   1.216 -0.2076 -0.7329 -0.2122
  350MOL0     C47152   4.858   4.466   1.229  0.2371 -0.5343  0.5412
  350MOL0     C47153   4.956   4.547   1.144 -0.5826  0.5489 -0.4885
  350MOL0     C47154   5.094   4.488   1.174 -0.5009  0.3100 -0.3886
  350MOL0     C47155   5.192   4.541   1.075 -0.4004 -0.0776  0.9246
  350MOL0     C47156   5.346   4.509   1.124  0.2213 -0.0108 -0.6011
  350MOL0     C47157   5.455   4.552   1.030 -0.1064  0.2416 -0.3984
  350MOL0     C47158   5.507   4.686   1.067  0.7846  0.1559  0.6264
  350MOL0    Cl47159   5.635   4.724   0.950  0.1403  0.4857 -0.0788
  350MOL0     C47160   4.395   4.538   1.210  1.0707  0.5731 -0.3108
  350MOL0     C47161   4.285   4.605   1.270  0.2306  0.2539  0.1412
  350MOL0     O47162   4.297   4.969   1.408 -0.3366  0.5759 -0.2724
  350MOL0     C47163   3.983   4.909   1.533 -0.2594  0.1201  0.9077
  350MOL0     C47164   3.862   4.980   1.564  0.4759 -0.5833 -0.6609
  350MOL0     N47165   3.386   5.702   1.479 -0.2720 -0.2375 -0.8896
  350MOL0     N47166   3.281   5.748   1.546  0.0362  0.7492 -0.2348
  350MOL0     C47167   1.975   5.374   1.677  0.6067  0.4242 -0.2939
  350MOL0     C47168   1.926   5.353   1.807 -0.1035 -0.1434  0.4412
  350MOL0     C47169   1.959   5.337   2.246  0.8082  0.1213 -0.1162
  350MOL0     C47170   1.821   5.344   2.276  0.1879  0.5070 -0.2777
  350MOL0     C47171   1.772   5.303   2.399  1.1325  0.4103  0.1094
  350MOL0     C47172   1.854   5.261   2.504  0.9178  0.3248 -0.4601
  350MOL0     O47173   1.795   5.239   2.626  0.0147 -0.9857 -0.2519
  350MOL0     C47174   1.747   5.349   2.688 -0.0503 -0.1589  0.0137
  350MOL0     C47175   1.613   5.303   2.734 -0.2343  0.1619 -0.0945
  350MOL0     C47176   1.535   5.420   2.791  0.2742 -0.0496  0.2557
  350MOL0     C47177   1.387   5.378   2.764 -0.6515 -0.3281 -0.7298
  350MOL0     C47178   1.301   5.444   2.857  0.3655 -1.3169 -0.0044
  350MOL0     C47179   1.228   5.506   2.932  1.1170 -0.5416 -0.6005
  350MOL0     C47180   1.987   5.253   2.478 -0.5290 -0.3142  0.5330
  350MOL0     C47181   2.046   5.294   2.350  0.4537  0.5484  0.2968
  350MOL0     C47182   2.191   5.298   2.323  0.0318  0.5040  0.1844
  350MOL0     H47183   2.177   5.166   1.938  3.7704 -2.3682 -3.2022
  350MOL0     H47184   2.277   5.218   1.714 -0.5871 -0.1611 -3.2551
  350MOL0     H47185   2.333   5.418   1.615 -0.3325 -1.6311  1.8608
  350MOL0     H47186   2.358   5.279   1.521  1.9053  1.3167  2.3646
  350MOL0     H47187   2.313   5.565   1.440  0.3433 -0.0153  1.1501
  350MOL0     H47188   2.305   5.438   1.312 -1.2553  3.7008 -1.1349
  350MOL0     H47189   2.517   5.538   1.293  2.5244 -1.9259 -0.9473
  350MOL0     H47190   2.540   5.377   1.362 -0.6808  0.8250 -0.0918
  350MOL0     H47191   2.520   5.619   1.534 -3.0048 -1.2778 -2.6780
  350MOL0     H47192   2.585   5.465   1.583 -0.3547 -1.1477 -1.2643
  350MOL0     H47193   2.746   5.500   1.386  3.0373  0.2621  0.6099
  350MOL0     H47194   2.712   5.672   1.385 -2.1281 -0.2963 -0.5409
  350MOL0     H47195   2.787   5.685   1.630  0.9818  1.8916 -0.3449
  350MOL0     H47196   2.822   5.516   1.625 -1.4798 -0.8642 -1.7575
  350MOL0     H47197   2.953   5.715   1.429 -0.1339 -0.5273 -0.2701
  350MOL0     H47198   2.983   5.541   1.440  1.6214 -0.4824  0.8973
  350MOL0     H47199   3.050   5.765   1.650  2.3572  0.0672 -0.4544
  350MOL0     H47200   3.042   5.597   1.698 -0.0988  2.3276  1.0434
  350MOL0     H47201   3.192   5.434   1.480 -0.6957 -0.1342  0.2931
  350MOL0     H47202   3.434   5.444   1.308 -1.7223  6.3989 -1.0262
  350MOL0     H47203   3.563   5.512   1.395  1.1954 -0.4995 -0.0511
  350MOL0     H47204   3.531   5.382   1.588  1.1956 -2.8116 -0.0355
  350MOL0     H47205   3.384   5.309   1.527 -0.1077  0.0124 -2.7303
  350MOL0     H47206   3.619   5.288   1.349 -1.4051  3.0390  0.0501
  350MOL0     H47207   3.470   5.190   1.355  3.5073 -1.7691 -2.0739
  350MOL0     H47208   3.613   5.040   1.445 -2.5170  0.0012 -1.5954
  350MOL0     H47209   3.535   5.111   1.583  0.8178  0.0046  0.8517
  350MOL0     H47210   3.923   5.279   1.402  0.9054  0.2058  0.3761
  350MOL0     H47211   4.136   5.158   1.358 -0.1763  1.0203  0.0073
  350MOL0     H47212   4.433   4.752   1.538  1.9793 -0.0710  0.2022
  350MOL0     H47213   4.625   4.586   1.456 -0.2863 -2.9136 -1.2954
  350MOL0     H47214   4.731   4.581   1.111  2.1302  0.6136  0.0433
  350MOL0     H47215   4.750   4.643   1.269 -5.2623 -0.0338  0.3876
  350MOL0     H47216   4.895   4.458   1.332  0.8563 -0.7333  0.3109
  350MOL0     H47217   4.842   4.366   1.188 -0.1696 -0.1665 -0.2090
  350MOL0     H47218   4.935   4.528   1.038  0.5813 -0.8381 -0.4983
  350MOL0     H47219   4.958   4.653   1.169  0.1058 -0.3120  4.0138
  350MOL0     H47220   5.083   4.379   1.176  1.2202 -0.0030  4.2182
  350MOL0     H47221   5.126   4.514   1.276  2.2585 -0.4246 -0.9874
  350MOL0     H47222   5.190   4.648   1.055 -0.0457 -0.1764  0.3228
  350MOL0     H47223   5.164   4.490   0.982 -2.0522  0.0339  1.3238
  350MOL0     H47224   5.366   4.558   1.220  1.8349 -1.1746 -0.3051
  350MOL0     H47225   5.354   4.402   1.142  0.7288 -0.0048 -0.7747
  350MOL0     H47226   5.422   4.543   0.927 -1.2069 -0.4252 -0.0067
  350MOL0     H47227   5.544   4.496   1.057 -0.3059  0.3885  0.6120
  350MOL0     H47228   5.431   4.764   1.061  0.5092 -0.0509  1.3561
  350MOL0     H47229   5.549   4.670   1.167 -0.0721 -1.3075  0.7811
  350MOL0     H47230   4.387   4.466   1.129  3.4581 -2.2429  1.7302
  350MOL0     H47231   4.185   4.601   1.227 -0.3607 -0.8239  1.5787
  350MOL0     H47232   3.997   4.807   1.567  1.6149 -0.1511 -0.5141
  350MOL0     H47233   3.785   4.945   1.632  1.8830  0.8525  1.8145
  350MOL0     H47234   1.919   5.416   1.594  3.8617  0.5217 -2.6306
  350MOL0     H47235   1.826   5.389   1.829  0.6000  2.5600 -0.3797
  350MOL0     H47236   1.746   5.372   2.203 -0.6910  2.0135  1.1463
  350MOL0     H47237   1.666   5.295   2.419  0.4818  2.3668 -2.1329
  350MOL0     H47238   1.739   5.435   2.621  1.9493  0.2478  0.2113
  350MOL0     H47239   1.803   5.385   2.775  0.7487 -2.5707  0.5823
  350MOL0     H47240   1.609   5.223   2.809 -4.5783 -1.8441 -2.1458
  350MOL0     H47241   1.561   5.274   2.643 -0.6708  0.8737 -0.0766
  350MOL0     H47242   1.566   5.516   2.749 -1.4217 -0.2588 -1.6372
  350MOL0     H47243   1.556   5.417   2.898  2.6441 -1.2279 -0.1844
  350MOL0     H47244   1.369   5.430   2.670  0.1132  0.1223 -0.6313
  350MOL0     H47245   1.375   5.270   2.752  0.8132 -0.7239  0.8914
  350MOL0     H47246   1.166   5.555   3.004 -0.2161 -0.3642 -1.8319
  350MOL0     H47247   2.051   5.217   2.558  2.2993  2.4758 -0.2796
  350MOL0     H47248   2.249   5.282   2.414 -0.8862 -2.1409  0.4001
  350MOL0     H47249   2.214   5.216   2.254  2.2208  1.4078 -0.2376
  350MOL0     H47250   2.204   5.395   2.275 -2.9422  0.1533 -1.5787
  351MOL0     O47251   3.404   9.199   3.813  0.8964 -0.0889 -0.2275
  351MOL0     C47252   3.402   9.081   3.780 -0.1188  0.8489  0.2922
  351MOL0     O47253   3.511   8.990   3.807  0.9978  0.2639  0.2091
  351MOL0     C47254   3.608   9.029   3.894 -0.3274  0.5146  0.6067
  351MOL0     C47255   3.735   8.988   3.854 -0.3264 -0.1905 -0.5293
  351MOL0     C47256   3.848   9.034   3.918  1.2170  0.7817 -0.0797
  351MOL0     C47257   3.832   9.115   4.035 -0.4249 -0.1113  0.5942
  351MOL0     O47258   3.954   9.154   4.097  0.4745  0.1025  0.1637
  351MOL0     C47259   3.989   9.288   4.082 -0.2062  0.1937 -0.2204
  351MOL0     C47260   4.120   9.324   4.154 -0.2202 -0.2927  0.1160
  351MOL0     C47261   4.137   9.477   4.176  0.4457 -0.0906  0.4642
  351MOL0     C47262   4.276   9.484   4.230 -0.7490 -0.2599 -0.3712
  351MOL0     C47263   4.308   9.623   4.282  0.5515  0.3389  0.9185
  351MOL0     C47264   4.444   9.620   4.350 -0.9242  0.4062 -0.4072
  351MOL0     C47265   4.476   9.776   4.390  0.1489  0.0402 -0.0455
  351MOL0     C47266   4.591   9.791   4.487  0.3441 -0.2503  0.5829
  351MOL0     N47267   4.724   9.791   4.417  0.1834 -0.0218 -0.2240
  351MOL0     C47268   4.755   9.848   4.299 -0.1434 -0.2692  0.3598
  351MOL0     C47269   4.879   9.810   4.270  0.5327  0.0687  0.8369
  351MOL0     C47270   4.950   9.841   4.146 -0.0078  0.1955 -0.3757
  351MOL0     C47271   5.037   9.962   4.167  0.0218  0.4040 -0.4651
  351MOL0     C47272   5.137   9.989   4.062  0.7100 -0.0207  0.4686
  351MOL0     C47273   5.230  10.117   4.080 -0.5015  0.1053  1.0549
  351MOL0     O47274   5.288  10.124   4.210  0.7832  0.2678 -0.1863
  351MOL0     C47275   5.384  10.209   4.227 -0.4201 -0.0940 -0.2613
  351MOL0     C47276   5.432  10.307   4.134  0.3016 -0.2209  0.5364
  351MOL0     C47277   5.534  10.392   4.159  0.4736  0.0966  0.9248
  351MOL0     C47278   5.602  10.378   4.278 -1.1930  0.4925  0.6868
  351MOL0     C47279   5.715  10.467   4.314  0.3778 -0.2581 -0.1555
  351MOL0     O47280   5.744  10.581   4.243  0.2072  0.1071  0.5618
  351MOL0     C47281   5.861  10.654   4.264  0.4260 -0.6253  0.0937
  351MOL0     C47282   5.863  10.797   4.285 -0.0991  0.7158 -0.4862
  351MOL0     C47283   5.991  10.856   4.289 -0.5806  0.1282  1.1955
  351MOL0     C47284   6.105  10.788   4.280 -0.3616  0.4023 -0.0213
  351MOL0     O47285   6.226  10.853   4.293 -0.8829  0.2013  0.4264
  351MOL0     C47286   6.337  10.815   4.206 -0.0431 -0.1042  0.4335
  351MOL0     C47287   6.476  10.889   4.238  0.1078  0.2750  0.4307
  351MOL0     C47288   6.527  10.868   4.380  0.7633 -0.9799 -0.2962
  351MOL0     C47289   6.667  10.929   4.383 -0.9313 -0.0607 -0.4301
  351MOL0     C47290   6.728  10.905   4.524  1.2913  0.3420 -0.1734
  351MOL0     C47291   6.869  10.951   4.525  0.2686 -0.3421 -0.5737
  351MOL0     C47292   6.926  10.964   4.667  0.6575 -0.6337  0.3417
  351MOL0     C47293   6.888  11.103   4.729 -0.0001  0.3558 -0.2517
  351MOL0    Cl47294   6.890  11.067   4.908  0.2304 -0.0237  0.1250
  351MOL0     C47295   6.101  10.656   4.268  0.5740 -0.0225  0.1503
  351MOL0     C47296   5.980  10.591   4.249 -1.0523 -0.3347  0.6434
  351MOL0     O47297   5.782  10.424   4.413 -0.0336  0.4796 -0.2687
  351MOL0     C47298   5.564  10.282   4.375  0.2353  0.6799 -0.0227
  351MOL0     C47299   5.453  10.203   4.352 -0.2028 -0.0346 -0.3598
  351MOL0     N47300   4.927   9.730   4.371  0.1298  0.1937 -0.4640
  351MOL0     N47301   4.839   9.732   4.463 -0.4928  0.5766 -1.2690
  351MOL0     C47302   3.699   9.144   4.087  0.2079 -0.6206 -0.3425
  351MOL0     C47303   3.590   9.113   4.010 -0.2848  0.7496  0.9747
  351MOL0     C47304   3.291   9.020   3.710 -0.1380  0.2338 -0.4647
  351MOL0     C47305   3.304   8.902   3.622  0.1144 -0.6567 -0.6821
  351MOL0     C47306   3.183   8.844   3.564 -0.2055  0.3716 -0.2204
  351MOL0     C47307   3.054   8.893   3.600 -0.6356  0.8229 -0.2707
  351MOL0     O47308   2.958   8.829   3.532  0.3816 -0.5196  0.1349
  351MOL0     C47309   2.837   8.905   3.529  0.5169 -0.4675 -0.2077
  351MOL0     C47310   2.744   8.867   3.418 -0.4274 -0.0136  0.5538
  351MOL0     C47311   2.597   8.902   3.438  0.0368  0.2682 -0.8101
  351MOL0     C47312   2.575   9.054   3.469  0.0189  0.2877 -0.1405
  351MOL0     C47313   2.615   9.151   3.357  0.0187  0.6646  0.2001
  351MOL0     C47314   2.651   9.201   3.254  0.0865 -0.3138  0.1180
  351MOL0     C47315   3.043   9.001   3.675  0.2521 -0.8051  0.2039
  351MOL0     C47316   3.153   9.066   3.733 -0.1722  0.9055  0.1221
  351MOL0     C47317   3.115   9.176   3.833  0.1164 -0.1028 -0.6863
  351MOL0     H47318   3.755   8.918   3.773  5.1318 -1.3943  1.4411
  351MOL0     H47319   3.951   9.007   3.896  1.0621 -2.9037  2.7481
  351MOL0     H47320   4.022   9.306   3.979  1.3255  0.2715  0.2720
  351MOL0     H47321   3.902   9.352   4.101 -1.1963 -0.3736 -2.4218
  351MOL0     H47322   4.204   9.282   4.097  1.7618  2.4736  0.7960
  351MOL0     H47323   4.119   9.279   4.253 -1.5558 -2.1411 -0.6709
  351MOL0     H47324   4.064   9.515   4.247 -3.0271 -1.1105 -2.2864
  351MOL0     H47325   4.127   9.527   4.078 -2.7638  0.9736  1.2162
  351MOL0     H47326   4.302   9.403   4.299 -1.8940 -0.3338  0.0041
  351MOL0     H47327   4.347   9.469   4.148  3.1077  2.8016  2.0702
  351MOL0     H47328   4.317   9.684   4.192 -0.0767 -0.4245  0.3216
  351MOL0     H47329   4.229   9.659   4.349 -0.6642  0.1035 -0.3368
  351MOL0     H47330   4.445   9.538   4.424 -1.8738  0.7866  0.0516
  351MOL0     H47331   4.518   9.588   4.277 -3.5547 -0.4040 -2.9240
  351MOL0     H47332   4.399   9.804   4.462  1.3905  0.3587  1.1951
  351MOL0     H47333   4.472   9.855   4.314  0.4362  1.9419  1.8109
  351MOL0     H47334   4.579   9.886   4.540 -0.6410 -0.7178  1.2377
  351MOL0     H47335   4.584   9.720   4.570 -1.2838 -0.5065  0.2630
  351MOL0     H47336   4.703   9.910   4.227 -1.1398 -1.9052 -0.3910
  351MOL0     H47337   5.023   9.762   4.126  0.2549  0.0779  0.9158
  351MOL0     H47338   4.879   9.844   4.064  0.6405 -2.7992 -1.1691
  351MOL0     H47339   4.962  10.041   4.175  1.0504  1.6651 -2.2627
  351MOL0     H47340   5.086   9.950   4.264 -1.1147 -2.2068 -0.1542
  351MOL0     H47341   5.076   9.998   3.972  2.4696 -3.0914 -1.2095
  351MOL0     H47342   5.197   9.899   4.049 -1.3775 -1.6327  1.4344
  351MOL0     H47343   5.177  10.211   4.064  3.1511  2.5414  1.8699
  351MOL0     H47344   5.309  10.104   4.006  0.1844 -3.3645  2.2072
  351MOL0     H47345   5.391  10.312   4.034  1.6616 -1.3593 -0.1051
  351MOL0     H47346   5.561  10.464   4.083 -0.8045  0.0203  0.3654
  351MOL0     H47347   5.776  10.862   4.289  0.3076  1.2190  0.6342
  351MOL0     H47348   6.005  10.962   4.308 -0.4621 -0.1200  2.6039
  351MOL0     H47349   6.347  10.707   4.201 -2.0080 -0.5461  3.4285
  351MOL0     H47350   6.328  10.859   4.106  2.7580  0.2770  0.2552
  351MOL0     H47351   6.542  10.872   4.152  1.0285 -0.9218  1.3447
  351MOL0     H47352   6.448  10.995   4.242  0.3596  0.2988  2.0795
  351MOL0     H47353   6.460  10.905   4.458  1.4607 -1.1815  0.4108
  351MOL0     H47354   6.534  10.760   4.391 -2.9294 -1.6074 -2.4374
  351MOL0     H47355   6.661  11.035   4.356  0.3183  0.0921 -0.1648
  351MOL0     H47356   6.731  10.882   4.308  0.0507  1.1884 -0.4044
  351MOL0     H47357   6.726  10.798   4.543  0.6230  0.6881  1.9917
  351MOL0     H47358   6.661  10.956   4.594 -1.4197 -0.2802 -2.1358
  351MOL0     H47359   6.930  10.877   4.473 -1.0696 -0.2872 -2.2982
  351MOL0     H47360   6.881  11.041   4.464  0.3863 -0.2151 -0.3649
  351MOL0     H47361   7.035  10.966   4.660  0.5590  1.9549 -2.1645
  351MOL0     H47362   6.893  10.882   4.732  0.9532 -0.4360  0.7437
  351MOL0     H47363   6.947  11.193   4.709 -1.4726  0.9284 -2.2709
  351MOL0     H47364   6.788  11.133   4.698 -0.8816  0.0986  2.0879
  351MOL0     H47365   6.190  10.594   4.274  0.4994  0.0322  3.4306
  351MOL0     H47366   5.965  10.484   4.240 -1.6034 -0.1510 -0.7654
  351MOL0     H47367   5.601  10.268   4.476  1.2358 -2.8634 -0.7520
  351MOL0     H47368   5.426  10.130   4.427 -3.4015  0.8497 -0.4933
  351MOL0     H47369   3.702   9.209   4.174 -1.3844  0.8171 -1.3054
  351MOL0     H47370   3.489   9.149   4.030 -1.1114  0.3200 -1.9926
  351MOL0     H47371   3.397   8.858   3.589  0.3099 -2.0048  1.4492
  351MOL0     H47372   3.206   8.758   3.502  0.1715 -0.0908  0.5379
  351MOL0     H47373   2.863   9.008   3.504  1.3445 -1.3221 -3.2108
  351MOL0     H47374   2.781   8.891   3.622  1.9305  4.5875  1.7569
  351MOL0     H47375   2.754   8.759   3.403  1.2349  0.1740  0.1142
  351MOL0     H47376   2.780   8.919   3.329 -1.9886  0.6962  0.3014
  351MOL0     H47377   2.548   8.838   3.513 -2.2359 -1.2606 -3.4167
  351MOL0     H47378   2.551   8.883   3.341 -0.8599  2.7596 -0.9401
  351MOL0     H47379   2.466   9.057   3.475  0.0252 -0.4413  0.6650
  351MOL0     H47380   2.612   9.088   3.566  1.4900 -2.2302  0.2908
  351MOL0     H47381   2.692   9.239   3.163 -0.5080  0.5504  0.1984
  351MOL0     H47382   2.946   9.045   3.698  0.6312  1.2530 -1.8007
  351MOL0     H47383   3.135   9.281   3.809 -2.5443  0.9092  1.0636
  351MOL0     H47384   3.010   9.180   3.864  0.2512 -0.6132 -0.1506
  351MOL0     H47385   3.181   9.168   3.920 -0.0205  2.6572 -0.2207
  352MOL0     O47386   8.666   0.922  10.983  0.2844  0.0587 -0.1508
  352MOL0     C47387   8.608   1.024  11.009  0.8312 -0.4394  0.2730
  352MOL0     O47388   8.653   1.124  11.096  0.2247  0.1322  0.2519
  352MOL0     C47389   8.766   1.094  11.169 -0.1846 -0.0666  0.5692
  352MOL0     C47390   8.891   1.140  11.129  0.3192 -0.0965 -0.5768
  352MOL0     C47391   9.004   1.119  11.211  0.7130 -0.7648  0.3727
  352MOL0     C47392   8.985   1.053  11.338 -0.3010 -0.6716  0.8129
  352MOL0     O47393   9.085   1.044  11.434  0.2160  0.8301  0.2608
  352MOL0     C47394   9.217   1.017  11.385  0.4495  0.2853 -0.0525
  352MOL0     C47395   9.283   0.917  11.477 -0.9371 -0.3538  0.0927
  352MOL0     C47396   9.410   0.856  11.423 -0.5772  0.1148  0.1624
  352MOL0     C47397   9.536   0.871  11.508 -0.8494 -0.8451 -0.3042
  352MOL0     C47398   9.661   0.813  11.444  0.6712  0.0648 -1.1022
  352MOL0     C47399   9.789   0.823  11.534 -0.7019  0.1271 -0.5673
  352MOL0     C47400   9.920   0.776  11.461  0.5560  0.2783 -0.0143
  352MOL0     C47401   9.923   0.630  11.433 -0.6044 -0.3390  0.1192
  352MOL0     N47402  10.053   0.592  11.387 -0.5049 -0.1559 -0.6527
  352MOL0     C47403  10.121   0.645  11.279 -0.3452  0.5397  0.7443
  352MOL0     C47404  10.249   0.601  11.285 -1.2931  0.6659  0.1444
  352MOL0     C47405  10.361   0.643  11.199  0.3754  0.0651 -0.1147
  352MOL0     C47406  10.436   0.765  11.255  0.3028  1.6853  1.2178
  352MOL0     C47407  10.544   0.809  11.158 -0.6096 -0.4673  0.5631
  352MOL0     C47408  10.654   0.701  11.159  0.1245  0.0032  0.0227
  352MOL0     O47409  10.741   0.728  11.272 -0.1955 -0.0050 -0.5614
  352MOL0     C47410  10.820   0.630  11.316 -0.9286  0.1810 -0.9400
  352MOL0     C47411  10.942   0.662  11.367  0.0230 -1.2885  0.2744
  352MOL0     C47412  11.019   0.581  11.452  0.3436 -0.8331 -0.0629
  352MOL0     C47413  10.978   0.450  11.471  0.1174  0.2976  0.1782
  352MOL0     C47414  11.052   0.350  11.550  0.5478  0.5509  0.1300
  352MOL0     O47415  11.169   0.394  11.602  0.6987 -0.7241 -0.3925
  352MOL0     C47416  11.271   0.320  11.657 -0.6129 -0.4659  0.0101
  352MOL0     C47417  11.378   0.394  11.717 -0.1130 -0.3347  0.3638
  352MOL0     C47418  11.496   0.336  11.764  0.3638  0.1826 -0.1823
  352MOL0     C47419  11.514   0.194  11.758  0.0444 -0.2444  0.4651
  352MOL0     O47420  11.622   0.116  11.802  0.2087  0.4674 -0.4859
  352MOL0     C47421  11.735   0.201  11.822 -0.2696 -0.0851 -0.3293
  352MOL0     C47422  11.859   0.115  11.839  0.0696 -0.6046 -0.3722
  352MOL0     C47423  11.993   0.196  11.832  0.2934  0.3603  0.3596
  352MOL0     C47424  12.116   0.114  11.875 -0.3303  0.5195 -0.6319
  352MOL0     C47425  12.240   0.195  11.910  0.0343 -0.8087  0.9737
  352MOL0     C47426  12.348   0.102  11.966  0.6536 -0.1699  0.2556
  352MOL0     C47427  12.484   0.167  11.995 -0.0177 -0.0323 -0.0299
  352MOL0     C47428  12.564   0.172  11.866  0.2737  0.2295 -0.3159
  352MOL0    Cl47429  12.722   0.233  11.888  0.2825  0.1855 -0.2354
  352MOL0     C47430  11.412   0.115  11.702 -1.0583 -0.6548  0.5577
  352MOL0     C47431  11.300   0.180  11.653 -0.3158  0.4987 -0.2794
  352MOL0     O47432  11.016   0.234  11.540 -0.2427  0.1344  0.3973
  352MOL0     C47433  10.864   0.405  11.391 -0.1223 -0.4327 -0.5775
  352MOL0     C47434  10.789   0.500  11.325 -0.3927  0.0091 -0.5637
  352MOL0     N47435  10.267   0.517  11.400 -0.0271  0.4560  0.3408
  352MOL0     N47436  10.148   0.512  11.451  0.2793  0.3800  0.2376
  352MOL0     C47437   8.860   1.009  11.371  0.7400 -0.4761  0.2187
  352MOL0     C47438   8.754   1.025  11.285  1.1352  0.0298  0.8053
  352MOL0     C47439   8.495   1.064  10.910 -0.1106 -0.8078 -0.5823
  352MOL0     C47440   8.487   1.204  10.881  0.2870  0.3050 -0.4046
  352MOL0     C47441   8.383   1.253  10.809  0.3688 -0.4041  0.4497
  352MOL0     C47442   8.275   1.174  10.767 -0.1149 -0.9712 -0.6777
  352MOL0     O47443   8.171   1.238  10.711  0.3500 -0.2146 -0.2839
  352MOL0     C47444   8.036   1.175  10.714  1.2104  0.6673  0.2087
  352MOL0     C47445   7.941   1.295  10.692 -0.4817  0.4305  0.0986
  352MOL0     C47446   7.799   1.269  10.706  0.5579 -0.8170 -0.6106
  352MOL0     C47447   7.739   1.187  10.593  0.2332 -0.0511  0.2685
  352MOL0     C47448   7.593   1.208  10.592  0.3585  0.0683 -0.0949
  352MOL0     C47449   7.477   1.243  10.577  0.0979 -0.0552 -0.6788
  352MOL0     C47450   8.279   1.042  10.789 -0.3340  0.1413  0.2379
  352MOL0     C47451   8.387   0.985  10.859 -0.3352  0.0440  0.4540
  352MOL0     C47452   8.386   0.839  10.879 -0.8028  0.0217 -1.0142
  352MOL0     H47453   8.893   1.175  11.026  2.4971  0.4476 -0.3884
  352MOL0     H47454   9.105   1.158  11.203  0.4614  0.9393  3.6959
  352MOL0     H47455   9.206   0.959  11.292 -0.6647 -2.2139  1.5232
  352MOL0     H47456   9.275   1.107  11.364  0.2953  0.1450 -1.1600
  352MOL0     H47457   9.208   0.840  11.497  0.6548 -1.5857  1.6736
  352MOL0     H47458   9.301   0.967  11.572 -1.6134  1.2759 -0.6033
  352MOL0     H47459   9.434   0.892  11.322 -1.7875 -1.3740 -0.6999
  352MOL0     H47460   9.386   0.749  11.416  0.4226 -0.1706  0.8756
  352MOL0     H47461   9.554   0.977  11.526 -0.3013 -1.0137  0.1949
  352MOL0     H47462   9.528   0.818  11.604  1.6407  0.5388  0.7737
  352MOL0     H47463   9.643   0.707  11.425 -2.5120  0.1175  0.8258
  352MOL0     H47464   9.688   0.870  11.355 -0.1641  2.9084  0.3375
  352MOL0     H47465   9.791   0.927  11.567  0.0279  0.5809 -1.9998
  352MOL0     H47466   9.780   0.760  11.624 -0.6145 -0.2314 -0.8079
  352MOL0     H47467  10.010   0.797  11.520  0.2242 -0.6264  0.8461
  352MOL0     H47468   9.925   0.842  11.374  2.6231 -0.2740 -0.3751
  352MOL0     H47469   9.909   0.583  11.532  3.6552  2.0865  2.1383
  352MOL0     H47470   9.846   0.602  11.361  0.8275  1.2537 -2.1292
  352MOL0     H47471  10.089   0.728  11.217 -1.3216 -0.0611  0.4203
  352MOL0     H47472  10.429   0.558  11.188 -0.9826 -0.8170 -2.4756
  352MOL0     H47473  10.320   0.659  11.099 -0.0512 -0.4131 -0.0172
  352MOL0     H47474  10.359   0.841  11.267 -2.9603 -1.3402  0.9645
  352MOL0     H47475  10.481   0.745  11.353 -0.6484  2.1152  1.7589
  352MOL0     H47476  10.590   0.899  11.198  4.0929 -2.4352  0.2147
  352MOL0     H47477  10.498   0.829  11.060 -0.8227  2.2846  1.1614
  352MOL0     H47478  10.719   0.712  11.071 -2.0931  1.2732 -1.5563
  352MOL0     H47479  10.612   0.600  11.153 -0.8318  0.0925  3.3464
  352MOL0     H47480  10.980   0.762  11.348 -0.7828 -0.9995  0.1402
  352MOL0     H47481  11.106   0.625  11.500  0.4242 -0.7584 -0.2773
  352MOL0     H47482  11.366   0.501  11.729  0.5309 -0.5829  6.0485
  352MOL0     H47483  11.572   0.393  11.818 -0.4968  2.2336 -1.0031
  352MOL0     H47484  11.744   0.268  11.736  0.5356  0.4084  0.1192
  352MOL0     H47485  11.718   0.266  11.908  0.0957  0.6760 -0.8184
  352MOL0     H47486  11.861   0.059  11.933  1.2428 -2.7781 -1.6096
  352MOL0     H47487  11.855   0.036  11.764  1.7951 -2.6797  1.5656
  352MOL0     H47488  12.011   0.225  11.728  1.6513  1.5081  0.8756
  352MOL0     H47489  11.989   0.287  11.892  0.8326 -0.1483  1.1745
  352MOL0     H47490  12.131   0.036  11.799  0.3662 -1.7679  1.6959
  352MOL0     H47491  12.098   0.051  11.963  1.7983 -0.3460 -0.7567
  352MOL0     H47492  12.208   0.269  11.984 -0.1833 -1.1881  1.2590
  352MOL0     H47493  12.273   0.242  11.817  1.5183 -2.2275  0.7327
  352MOL0     H47494  12.306   0.066  12.060  1.4381  0.7326  0.9754
  352MOL0     H47495  12.349   0.021  11.893 -0.9933 -0.2148  0.2577
  352MOL0     H47496  12.538   0.098  12.061 -0.7281  1.1495  1.8799
  352MOL0     H47497  12.483   0.265  12.045  0.7102 -0.3133  0.5608
  352MOL0     H47498  12.572   0.072  11.822 -1.9243 -1.4039  2.6761
  352MOL0     H47499  12.504   0.245  11.811 -0.3870  0.7621  1.0582
  352MOL0     H47500  11.428   0.009  11.692  1.5613 -0.1068 -2.7241
  352MOL0     H47501  11.226   0.130  11.590 -0.2334  0.5346 -0.4051
  352MOL0     H47502  10.831   0.301  11.388  2.2885 -1.2511 -2.8386
  352MOL0     H47503  10.694   0.471  11.282 -1.0888  1.1834  0.1143
  352MOL0     H47504   8.844   0.959  11.466  1.5571  0.1046  0.6723
  352MOL0     H47505   8.656   0.984  11.308 -0.0141  0.9051 -2.0319
  352MOL0     H47506   8.554   1.286  10.904  0.8403  0.2857 -1.8333
  352MOL0     H47507   8.378   1.357  10.776 -0.4824  0.2142  2.4015
  352MOL0     H47508   8.016   1.115  10.803  3.2143  0.5381  0.6183
  352MOL0     H47509   8.025   1.102  10.633  2.1764 -1.3294  1.7879
  352MOL0     H47510   7.964   1.329  10.591  0.8278 -3.1593 -0.9948
  352MOL0     H47511   7.970   1.367  10.769 -2.0496  0.9010  0.2832
  352MOL0     H47512   7.754   1.368  10.709  0.0329 -0.8207 -4.3137
  352MOL0     H47513   7.774   1.206  10.793  2.3129 -1.3044 -0.4264
  352MOL0     H47514   7.789   1.212  10.499 -0.9759 -2.6922 -1.1966
  352MOL0     H47515   7.760   1.083  10.618  0.1439  0.3393  2.0767
  352MOL0     H47516   7.374   1.273  10.570  0.1069 -0.0747 -0.8905
  352MOL0     H47517   8.209   0.962  10.769  2.0315 -1.5865 -1.6448
  352MOL0     H47518   8.428   0.823  10.979  2.1785  2.8200 -1.6463
  352MOL0     H47519   8.288   0.793  10.867 -1.6541  1.4650  0.0439
  352MOL0     H47520   8.456   0.801  10.804 -0.9383 -0.2644 -0.9962
  353MOL0     O47521   6.417   5.018   1.313  0.5770 -0.1550 -0.4074
  353MOL0     C47522   6.433   5.012   1.441 -0.4971  0.2314  0.9907
  353MOL0     O47523   6.339   4.980   1.527  0.5212 -0.2063 -0.7450
  353MOL0     C47524   6.206   4.982   1.493 -0.6338 -0.7114 -0.3687
  353MOL0     C47525   6.137   4.883   1.559 -0.0122 -0.4457 -1.2960
  353MOL0     C47526   6.002   4.850   1.526  0.1951  1.0376  0.0266
  353MOL0     C47527   5.930   4.933   1.448  0.1545 -0.7967 -0.1338
  353MOL0     O47528   5.793   4.908   1.436 -0.3072  0.5529  0.5433
  353MOL0     C47529   5.713   4.968   1.333 -1.0672  0.7903 -0.2683
  353MOL0     C47530   5.574   4.925   1.372  0.1837  0.6711  0.7896
  353MOL0     C47531   5.464   4.988   1.281 -0.6863  0.1547  0.2673
  353MOL0     C47532   5.322   4.933   1.309 -0.3925 -0.3668  0.5572
  353MOL0     C47533   5.208   5.026   1.260 -0.3446  0.4950 -0.4151
  353MOL0     C47534   5.082   4.949   1.271  0.6093  0.1003 -0.4188
  353MOL0     C47535   4.951   5.025   1.274 -0.9500 -0.0909  0.1081
  353MOL0     C47536   4.825   4.948   1.318  0.8143  1.0227  0.2759
  353MOL0     N47537   4.840   4.911   1.454 -0.7783 -0.8952  0.5848
  353MOL0     C47538   4.841   5.010   1.558 -0.6111 -0.1517 -0.1278
  353MOL0     C47539   4.781   4.952   1.664 -0.4891  0.7444 -0.3737
  353MOL0     C47540   4.729   5.018   1.785  0.2220 -0.0137 -0.0396
  353MOL0     C47541   4.576   5.043   1.774  0.4847  0.9379 -0.6315
  353MOL0     C47542   4.536   5.159   1.683 -0.0180  0.5279  0.8777
  353MOL0     C47543   4.383   5.179   1.691 -0.3178  0.4012 -0.2319
  353MOL0     O47544   4.339   5.193   1.832  0.2488 -0.3339 -0.2146
  353MOL0     C47545   4.203   5.193   1.854 -0.2850  0.0769 -0.1376
  353MOL0     C47546   4.105   5.249   1.778  0.0820  0.8159  0.6232
  353MOL0     C47547   3.967   5.244   1.822  0.1796 -0.1562 -0.4442
  353MOL0     C47548   3.940   5.221   1.955  1.2696  0.5374  0.4174
  353MOL0     C47549   3.805   5.257   2.014  0.2228 -0.4169  0.2049
  353MOL0     O47550   3.706   5.302   1.925  0.5101 -0.0533 -0.3799
  353MOL0     C47551   3.580   5.345   1.964 -0.4494 -0.2041 -0.2402
  353MOL0     C47552   3.495   5.287   2.062 -0.1584 -0.4140 -0.2601
  353MOL0     C47553   3.358   5.332   2.071 -0.4243  0.7145 -0.4155
  353MOL0     C47554   3.311   5.437   2.001 -0.2840 -0.6616 -0.8092
  353MOL0     O47555   3.188   5.500   2.018  0.2703 -0.0600  0.0320
  353MOL0     C47556   3.068   5.425   2.057  0.9182  0.3308  0.3938
  353MOL0     C47557   2.950   5.521   2.047 -0.3809 -0.0862 -0.2727
  353MOL0     C47558   2.818   5.470   2.115 -0.1785 -0.5452  0.4945
  353MOL0     C47559   2.725   5.589   2.154 -0.0438 -0.1908 -0.0546
  353MOL0     C47560   2.610   5.537   2.246 -0.4989 -0.1690  0.8150
  353MOL0     C47561   2.494   5.461   2.183 -0.2042 -0.6336 -0.0056
  353MOL0     C47562   2.405   5.558   2.094  0.3309  0.6121 -0.2516
  353MOL0     C47563   2.369   5.481   1.965  0.2195 -0.6558  0.3351
  353MOL0    Cl47564   2.508   5.441   1.856  0.2308 -0.0098  0.3238
  353MOL0     C47565   3.396   5.490   1.903  0.2346  0.5123 -0.1759
  353MOL0     C47566   3.530   5.443   1.878 -1.0834 -0.3308 -0.0196
  353MOL0     O47567   3.795   5.259   2.138 -0.1168  0.7988 -0.0541
  353MOL0     C47568   4.041   5.159   2.029 -0.5605  0.1290 -0.6551
  353MOL0     C47569   4.169   5.142   1.975 -0.8321 -0.4754 -0.7354
  353MOL0     N47570   4.759   4.820   1.639 -0.6411 -0.2470  0.4589
  353MOL0     N47571   4.792   4.796   1.513 -0.1376  0.0294  0.3104
  353MOL0     C47572   5.998   5.046   1.379 -0.8423 -0.3876  0.1271
  353MOL0     C47573   6.135   5.059   1.398  0.2458 -0.4389  0.2450
  353MOL0     C47574   6.568   5.037   1.490 -0.5283 -0.1574 -0.8177
  353MOL0     C47575   6.679   4.984   1.421  0.2401 -0.2780  0.1319
  353MOL0     C47576   6.814   5.009   1.458  0.9918  0.8606  0.8037
  353MOL0     C47577   6.838   5.082   1.572 -0.0608 -0.9871 -0.1690
  353MOL0     O47578   6.963   5.129   1.604 -0.1922 -0.0530  0.2240
  353MOL0     C47579   7.077   5.075   1.528  0.1727 -0.0795 -0.8832
  353MOL0     C47580   7.214   5.128   1.584  0.0821 -0.0490 -0.1641
  353MOL0     C47581   7.285   5.039   1.693  0.2929  0.2508 -0.1000
  353MOL0     C47582   7.413   4.984   1.641  0.0677  0.0166 -0.6094
  353MOL0     C47583   7.512   5.090   1.632 -0.2562 -0.2478  0.3290
  353MOL0     C47584   7.598   5.177   1.612  0.7422  0.1202  0.7134
  353MOL0     C47585   6.732   5.131   1.641  0.2007  0.4110 -0.3611
  353MOL0     C47586   6.596   5.112   1.598 -0.3291  1.1381 -0.5544
  353MOL0     C47587   6.493   5.188   1.674  0.5942 -0.5987  0.2506
  353MOL0     H47588   6.174   4.813   1.634 -2.6279  0.1929  0.7699
  353MOL0     H47589   5.948   4.761   1.555  0.4484  0.5576 -0.9472
  353MOL0     H47590   5.731   5.076   1.331 -0.9606  0.9278  2.9416
  353MOL0     H47591   5.741   4.916   1.242  1.8542  0.6389  0.6141
  353MOL0     H47592   5.568   4.950   1.479  0.9991 -0.2829  1.0726
  353MOL0     H47593   5.578   4.818   1.354 -0.0471  0.7667  0.1526
  353MOL0     H47594   5.487   4.968   1.176  1.4029  1.9814  0.3051
  353MOL0     H47595   5.471   5.097   1.283  0.3156  0.1498 -1.5154
  353MOL0     H47596   5.311   4.839   1.254 -0.9388  1.5579 -2.9175
  353MOL0     H47597   5.301   4.926   1.416  0.5427 -0.0237  0.7730
  353MOL0     H47598   5.210   5.123   1.311 -1.4546  0.5108 -0.3750
  353MOL0     H47599   5.226   5.043   1.153  0.2030  1.8761 -0.1335
  353MOL0     H47600   5.084   4.869   1.195 -1.4459 -0.9053  0.5233
  353MOL0     H47601   5.091   4.894   1.365 -0.8435 -1.5609 -1.1865
  353MOL0     H47602   4.938   5.066   1.173 -1.1841 -0.4418 -0.0049
  353MOL0     H47603   4.966   5.109   1.342  2.5894  0.4280 -1.1238
  353MOL0     H47604   4.743   5.021   1.323 -1.1113 -1.0522  0.4325
  353MOL0     H47605   4.800   4.867   1.250 -0.0915  2.6652 -1.4576
  353MOL0     H47606   4.874   5.113   1.555  0.5604 -0.5189 -0.8210
  353MOL0     H47607   4.758   4.958   1.872 -0.5150 -0.5797 -0.1794
  353MOL0     H47608   4.779   5.115   1.796  0.2310 -0.2783  3.4670
  353MOL0     H47609   4.542   4.947   1.734  2.8349 -1.0054  1.6264
  353MOL0     H47610   4.552   5.063   1.879  0.1998  1.0162 -0.7129
  353MOL0     H47611   4.567   5.130   1.582  4.6153  2.4833  1.5001
  353MOL0     H47612   4.577   5.254   1.717  0.9583  0.1629  0.7402
  353MOL0     H47613   4.328   5.095   1.648 -0.7413  0.5959 -0.0722
  353MOL0     H47614   4.361   5.270   1.634  4.2251  0.7784 -1.7813
  353MOL0     H47615   4.130   5.292   1.682 -0.9065 -2.1977 -1.0844
  353MOL0     H47616   3.885   5.269   1.754  1.6247  0.5401 -2.0067
  353MOL0     H47617   3.527   5.200   2.118 -0.1705 -0.7733 -0.8122
  353MOL0     H47618   3.294   5.290   2.147  0.2981  3.9736  2.2406
  353MOL0     H47619   3.056   5.337   1.993  0.3866  0.7487 -0.0936
  353MOL0     H47620   3.091   5.398   2.160  0.2780 -0.5200  0.3260
  353MOL0     H47621   2.982   5.606   2.107 -0.3469 -1.8798  2.3972
  353MOL0     H47622   2.931   5.551   1.943  0.2652  0.0543 -0.3573
  353MOL0     H47623   2.777   5.406   2.037  0.7258 -0.0461 -0.4230
  353MOL0     H47624   2.850   5.418   2.206  1.1091  1.6286  1.3801
  353MOL0     H47625   2.687   5.627   2.060  0.7558 -0.2060 -0.3957
  353MOL0     H47626   2.778   5.662   2.217 -1.0690 -0.3871  1.0776
  353MOL0     H47627   2.560   5.628   2.281 -0.3755  0.2875 -0.1815
  353MOL0     H47628   2.651   5.492   2.337 -3.4056 -1.4326  1.6248
  353MOL0     H47629   2.540   5.387   2.117 -0.8828 -0.4625 -0.6872
  353MOL0     H47630   2.430   5.413   2.258 -0.2508 -0.0554  0.3327
  353MOL0     H47631   2.441   5.657   2.064 -1.6295  1.2582 -0.5930
  353MOL0     H47632   2.312   5.562   2.151  0.0738  0.6163 -0.6745
  353MOL0     H47633   2.312   5.393   1.998 -0.4894  0.1793  1.3926
  353MOL0     H47634   2.290   5.533   1.910  1.0078 -1.1925 -1.3824
  353MOL0     H47635   3.359   5.567   1.835 -1.2118 -0.5438 -0.6384
  353MOL0     H47636   3.583   5.483   1.792 -1.5914 -0.8759 -0.5982
  353MOL0     H47637   4.023   5.125   2.130  3.0599 -0.6913 -0.1415
  353MOL0     H47638   4.249   5.101   2.036 -1.0349 -0.4886 -0.4775
  353MOL0     H47639   5.954   5.118   1.310 -0.4904  1.2908  1.5864
  353MOL0     H47640   6.185   5.143   1.350  1.1737 -0.3335  1.3495
  353MOL0     H47641   6.656   4.931   1.329 -4.0476  1.2785  0.0478
  353MOL0     H47642   6.896   4.982   1.392  2.5935  0.1183  2.9802
  353MOL0     H47643   7.067   5.107   1.424 -2.4023 -1.6976 -1.2321
  353MOL0     H47644   7.088   4.966   1.528  3.8910  0.0733  2.5045
  353MOL0     H47645   7.202   5.229   1.622 -1.3878  0.1398 -1.0464
  353MOL0     H47646   7.286   5.143   1.503  1.9882 -2.0630  1.0241
  353MOL0     H47647   7.224   4.953   1.722  0.3714 -0.0916 -0.9244
  353MOL0     H47648   7.306   5.097   1.784  0.7606  1.0435 -0.7024
  353MOL0     H47649   7.445   4.900   1.703 -0.8339  0.4899  0.5299
  353MOL0     H47650   7.394   4.941   1.542  0.9367  0.2900 -0.9068
  353MOL0     H47651   7.673   5.249   1.587  0.0261  0.5259 -0.3389
  353MOL0     H47652   6.745   5.199   1.724  1.2642  0.8872 -0.8822
  353MOL0     H47653   6.411   5.119   1.696  0.1319 -0.9167 -2.1569
  353MOL0     H47654   6.529   5.213   1.774 -3.6662 -0.2761  1.9128
  353MOL0     H47655   6.452   5.274   1.621 -1.7656 -0.8580  1.5012
  354MOL0     O47656   5.421   7.451   0.741 -0.6653 -0.3635  0.7478
  354MOL0     C47657   5.461   7.568   0.745  0.0677 -0.5306  0.7129
  354MOL0     O47658   5.583   7.608   0.794  0.2127  0.5206 -0.7981
  354MOL0     C47659   5.681   7.516   0.817 -1.0553 -0.8018 -0.4588
  354MOL0     C47660   5.708   7.450   0.942  0.0261  0.7120  0.5718
  354MOL0     C47661   5.827   7.371   0.964 -0.3640  0.3549 -0.6704
  354MOL0     C47662   5.915   7.351   0.861  0.2958 -1.0307  0.3923
  354MOL0     O47663   6.029   7.289   0.908  0.0523 -0.1138 -0.1416
  354MOL0     C47664   6.115   7.234   0.805 -0.2451 -0.1013  0.3744
  354MOL0     C47665   6.249   7.187   0.865  0.5155 -0.9746  0.4165
  354MOL0     C47666   6.355   7.165   0.751 -0.2347  0.4120  0.5743
  354MOL0     C47667   6.456   7.061   0.808  0.3210  0.0329 -0.1117
  354MOL0     C47668   6.608   7.088   0.760 -0.1928 -0.1410 -0.2460
  354MOL0     C47669   6.686   6.977   0.834  0.4343 -0.5239  0.8395
  354MOL0     C47670   6.831   6.975   0.804 -0.4621 -0.9014 -0.4872
  354MOL0     C47671   6.904   7.076   0.900  0.0277 -0.5804  0.2855
  354MOL0     N47672   7.039   7.042   0.883 -0.0652 -0.5926 -0.6843
  354MOL0     C47673   7.108   6.942   0.940 -0.5973 -0.2431 -0.3008
  354MOL0     C47674   7.236   6.954   0.893  1.2672  0.5390 -0.2664
  354MOL0     C47675   7.351   6.858   0.918 -0.0708 -0.3603 -0.2070
  354MOL0     C47676   7.483   6.938   0.951 -0.0242  0.8697 -0.4845
  354MOL0     C47677   7.588   6.840   1.001 -0.7311 -0.4228 -0.2296
  354MOL0     C47678   7.627   6.747   0.887 -0.0925 -0.1880  1.2787
  354MOL0     O47679   7.739   6.659   0.912  0.4443 -0.4916  0.0694
  354MOL0     C47680   7.864   6.708   0.908  0.4288 -0.7748  0.1254
  354MOL0     C47681   7.898   6.837   0.867  1.1506  0.6193  0.9922
  354MOL0     C47682   8.028   6.882   0.863 -0.1869  0.9656 -1.2614
  354MOL0     C47683   8.136   6.799   0.901  0.5475 -0.9967  0.2892
  354MOL0     C47684   8.273   6.851   0.883  0.0759 -0.6656  0.0856
  354MOL0     O47685   8.289   6.962   0.801 -1.1674 -0.5962 -0.2222
  354MOL0     C47686   8.417   7.024   0.802  0.6174 -0.5407 -0.0478
  354MOL0     C47687   8.410   7.149   0.860  0.5938 -0.4805 -0.4275
  354MOL0     C47688   8.524   7.223   0.859 -1.3597 -0.8893  0.0340
  354MOL0     C47689   8.655   7.176   0.819  0.0173 -0.0811 -0.3172
  354MOL0     O47690   8.765   7.259   0.845 -0.5722 -0.3404 -0.1152
  354MOL0     C47691   8.891   7.203   0.807 -0.0860  0.4300  0.9826
  354MOL0     C47692   8.994   7.322   0.812  0.0975 -0.0217  0.2071
  354MOL0     C47693   9.045   7.353   0.941 -0.5236 -0.7406 -1.2137
  354MOL0     C47694   9.180   7.418   0.923  0.3306  0.1837  0.0404
  354MOL0     C47695   9.245   7.445   1.058 -0.1617 -0.3360 -0.2007
  354MOL0     C47696   9.390   7.499   1.043  1.0039 -0.8826  0.1393
  354MOL0     C47697   9.490   7.442   0.947 -0.0184  0.2645  0.1974
  354MOL0     C47698   9.615   7.516   0.935  0.6013  0.2233 -0.3154
  354MOL0    Cl47699   9.704   7.466   0.794 -0.0817  0.5651  0.3869
  354MOL0     C47700   8.653   7.045   0.766 -0.2585  0.2630  0.5192
  354MOL0     C47701   8.537   6.973   0.750  0.5498  0.1444 -0.9061
  354MOL0     O47702   8.364   6.792   0.950  0.4596 -0.2116  0.3554
  354MOL0     C47703   8.107   6.671   0.942 -0.1107  0.4775 -0.7513
  354MOL0     C47704   7.969   6.632   0.949  0.2338 -0.9304 -0.0459
  354MOL0     N47705   7.244   7.067   0.819 -0.4777 -0.5118  0.2903
  354MOL0     N47706   7.128   7.111   0.813  0.1138 -0.6843  0.5435
  354MOL0     C47707   5.883   7.410   0.742 -0.0107  0.2507 -0.3623
  354MOL0     C47708   5.767   7.482   0.718 -0.2692 -0.4156 -0.1125
  354MOL0     C47709   5.367   7.676   0.710 -0.3940 -0.8085 -0.1073
  354MOL0     C47710   5.424   7.798   0.662  0.3819  0.2881  0.1854
  354MOL0     C47711   5.359   7.894   0.600 -0.5571 -0.5058  0.6344
  354MOL0     C47712   5.225   7.871   0.579 -0.0910 -0.2161 -0.7486
  354MOL0     O47713   5.138   7.959   0.524  0.3095 -0.8511  0.2520
  354MOL0     C47714   5.155   7.999   0.380  0.1956  0.5742  0.0576
  354MOL0     C47715   5.128   8.157   0.365 -1.2567  0.0853  0.0032
  354MOL0     C47716   4.985   8.182   0.337  0.6362 -0.1827 -0.3411
  354MOL0     C47717   4.945   8.315   0.279  0.0046 -0.2617  0.2160
  354MOL0     C47718   4.914   8.406   0.386 -0.8596 -0.9696 -0.3238
  354MOL0     C47719   4.871   8.483   0.476  0.3853 -0.0889  0.2617
  354MOL0     C47720   5.157   7.757   0.630  0.0544 -0.0432  0.1543
  354MOL0     C47721   5.227   7.661   0.700 -0.0304 -0.0601 -0.1161
  354MOL0     C47722   5.148   7.534   0.738 -0.6773  0.0497  0.1629
  354MOL0     H47723   5.646   7.456   1.032 -0.7001  3.6317 -0.0432
  354MOL0     H47724   5.840   7.338   1.067  0.2762 -0.5044 -1.0105
  354MOL0     H47725   6.063   7.150   0.759 -2.1545  0.1552  1.8855
  354MOL0     H47726   6.139   7.318   0.739  2.5682  1.6937  3.4066
  354MOL0     H47727   6.243   7.099   0.930  2.2287 -0.3951  1.4266
  354MOL0     H47728   6.284   7.276   0.918  2.2711 -1.8352  0.7710
  354MOL0     H47729   6.399   7.257   0.711 -1.6995 -0.5447 -3.8555
  354MOL0     H47730   6.318   7.117   0.659  1.8903 -1.6273  0.7070
  354MOL0     H47731   6.459   7.048   0.916  3.0600  1.2642  0.0450
  354MOL0     H47732   6.428   6.961   0.774 -0.0488 -0.5897  1.8989
  354MOL0     H47733   6.613   7.083   0.650 -2.8525 -1.9960 -0.3764
  354MOL0     H47734   6.637   7.188   0.793 -1.9275  1.7630 -3.8352
  354MOL0     H47735   6.668   6.992   0.941  0.6582 -0.5824  0.8844
  354MOL0     H47736   6.637   6.884   0.803  1.0326 -0.3507 -0.7238
  354MOL0     H47737   6.835   6.994   0.696 -0.7199  1.3807 -0.1555
  354MOL0     H47738   6.869   6.877   0.832  2.7625  0.9473  2.2990
  354MOL0     H47739   6.872   7.177   0.872 -2.2167 -0.7119  2.0627
  354MOL0     H47740   6.876   7.067   1.005 -0.0912  3.2089  0.7473
  354MOL0     H47741   7.075   6.868   1.012 -0.5985  1.8363  1.9681
  354MOL0     H47742   7.315   6.782   0.988 -2.2728  0.8178  0.0238
  354MOL0     H47743   7.357   6.823   0.815  0.3414  1.0323 -0.6812
  354MOL0     H47744   7.514   6.988   0.858 -1.5321  2.4224 -0.1834
  354MOL0     H47745   7.460   7.022   1.017  0.3382 -1.0608  2.2725
  354MOL0     H47746   7.551   6.778   1.083 -2.5670  2.1917  1.0688
  354MOL0     H47747   7.676   6.892   1.040 -0.0734 -2.9586  1.9973
  354MOL0     H47748   7.656   6.803   0.797  2.5561 -4.0764 -0.5776
  354MOL0     H47749   7.541   6.687   0.857  0.6805 -1.0430  0.6898
  354MOL0     H47750   7.825   6.916   0.858  0.1068 -0.2874  1.2539
  354MOL0     H47751   8.059   6.984   0.847  2.1484  0.5637  0.2360
  354MOL0     H47752   8.316   7.194   0.891  2.0918  1.9583  0.9205
  354MOL0     H47753   8.519   7.323   0.901  1.5299 -1.0813  1.0877
  354MOL0     H47754   8.931   7.132   0.880  1.0535 -0.7412 -0.7233
  354MOL0     H47755   8.890   7.155   0.709  3.5771  0.9313  0.5499
  354MOL0     H47756   9.074   7.286   0.746  0.7495 -4.1803  2.9007
  354MOL0     H47757   8.954   7.414   0.768 -0.2083 -1.0249 -1.7222
  354MOL0     H47758   8.975   7.428   0.978  0.0417 -0.5946 -0.3930
  354MOL0     H47759   9.055   7.259   0.996  0.0126 -0.1259 -0.2153
  354MOL0     H47760   9.165   7.517   0.878  2.6514  0.0305 -1.2374
  354MOL0     H47761   9.241   7.357   0.856 -3.3330 -1.8970 -1.6718
  354MOL0     H47762   9.257   7.362   1.128 -1.4497  0.2937  0.8001
  354MOL0     H47763   9.178   7.514   1.110 -0.4755  0.3021 -1.4231
  354MOL0     H47764   9.376   7.604   1.015  1.8266 -0.5658  0.8639
  354MOL0     H47765   9.431   7.506   1.144  0.2303  0.6743  0.3799
  354MOL0     H47766   9.450   7.440   0.845  3.2463  2.8472 -1.3112
  354MOL0     H47767   9.518   7.348   0.996 -0.6689 -0.5956 -1.0109
  354MOL0     H47768   9.590   7.622   0.924 -0.0477  0.0767 -0.2443
  354MOL0     H47769   9.672   7.503   1.028 -1.1918 -2.4266  0.4940
  354MOL0     H47770   8.741   6.991   0.731 -1.5741 -1.1087 -0.7984
  354MOL0     H47771   8.536   6.880   0.693 -0.2876 -0.3461 -0.1282
  354MOL0     H47772   8.195   6.611   0.964 -1.0978 -1.6456 -2.2662
  354MOL0     H47773   7.944   6.538   0.998  0.1035  0.2971  2.3731
  354MOL0     H47774   5.954   7.413   0.661  0.6399  0.9820  0.2212
  354MOL0     H47775   5.756   7.525   0.619 -1.8573 -1.0937 -0.2528
  354MOL0     H47776   5.532   7.805   0.670  0.3712  0.2808  0.3239
  354MOL0     H47777   5.392   7.989   0.560 -0.5464 -1.2116 -1.1191
  354MOL0     H47778   5.096   7.938   0.311 -1.8245  0.2539  1.9797
  354MOL0     H47779   5.262   7.983   0.360 -0.3240 -1.8384 -1.1725
  354MOL0     H47780   5.186   8.182   0.275  1.7834 -2.3832  1.1043
  354MOL0     H47781   5.170   8.213   0.449  0.3915 -2.1039  0.7206
  354MOL0     H47782   4.918   8.160   0.420  0.0209  1.9451 -0.2210
  354MOL0     H47783   4.969   8.116   0.251  0.3603  1.8065 -1.8771
  354MOL0     H47784   5.037   8.352   0.232  0.1965 -1.7410 -0.6642
  354MOL0     H47785   4.863   8.303   0.209  0.9847  2.1695 -1.4840
  354MOL0     H47786   4.852   8.558   0.549 -0.2612 -0.3296  0.3434
  354MOL0     H47787   5.048   7.753   0.627 -0.1468  2.9969  0.5775
  354MOL0     H47788   5.040   7.540   0.726 -1.0962 -3.3686  1.3228
  354MOL0     H47789   5.176   7.456   0.667 -0.7829 -0.3695  0.5787
  354MOL0     H47790   5.179   7.511   0.841  2.4141  3.4230  0.2125
  355MOL0     O47791   1.853   6.479   6.027  0.3678 -1.1969  0.0728
  355MOL0     C47792   1.768   6.563   6.020 -0.1004 -0.7165  0.0727
  355MOL0     O47793   1.741   6.646   5.914  0.2174  1.3239  0.3749
  355MOL0     C47794   1.828   6.660   5.807 -0.7642 -0.7959  1.2977
  355MOL0     C47795   1.954   6.603   5.782  0.1261  0.5548  0.2594
  355MOL0     C47796   2.016   6.633   5.660  0.0840 -0.5548 -0.1214
  355MOL0     C47797   1.970   6.722   5.567  0.0023 -0.1326 -0.5971
  355MOL0     O47798   2.043   6.734   5.450 -0.8910 -0.0625  0.6732
  355MOL0     C47799   1.993   6.797   5.331  0.5993 -0.8144  0.2897
  355MOL0     C47800   2.027   6.723   5.201 -0.2617  0.2726 -0.1830
  355MOL0     C47801   2.186   6.715   5.192 -0.1162 -0.3820  0.3881
  355MOL0     C47802   2.227   6.670   5.047  0.0173  0.0007 -0.2949
  355MOL0     C47803   2.378   6.651   5.035  0.2138 -0.3458 -0.1099
  355MOL0     C47804   2.455   6.776   5.052  0.0135 -0.5989  0.5923
  355MOL0     C47805   2.609   6.750   5.077 -0.3417 -0.0810  0.6021
  355MOL0     C47806   2.646   6.702   5.209  0.1565 -0.4344 -0.0626
  355MOL0     N47807   2.765   6.618   5.222 -0.2382 -0.6329  0.3465
  355MOL0     C47808   2.888   6.665   5.228  0.1370 -0.4798  0.0401
  355MOL0     C47809   2.963   6.552   5.239 -0.0364 -0.4938 -0.2175
  355MOL0     C47810   3.105   6.536   5.224 -0.1900 -0.0588 -1.1165
  355MOL0     C47811   3.177   6.600   5.344 -0.6964 -0.4825  0.6965
  355MOL0     C47812   3.326   6.558   5.349 -0.0943 -0.0124 -0.2719
  355MOL0     C47813   3.426   6.668   5.405  0.8150  0.0720 -0.4863
  355MOL0     O47814   3.556   6.641   5.349  0.7711  0.2397 -0.2788
  355MOL0     C47815   3.651   6.741   5.330 -0.2848  0.8469 -0.3379
  355MOL0     C47816   3.624   6.876   5.317  0.7231 -0.1992  0.3476
  355MOL0     C47817   3.737   6.960   5.351  0.7284  0.2968  0.1694
  355MOL0     C47818   3.864   6.908   5.383  0.2289 -0.0146  0.2333
  355MOL0     C47819   3.977   6.998   5.428  1.2330  0.6447  0.0474
  355MOL0     O47820   4.087   6.937   5.486  0.4234  0.2666  0.3194
  355MOL0     C47821   4.201   7.008   5.506 -0.2437  0.0101 -0.1099
  355MOL0     C47822   4.290   6.956   5.604 -0.5031 -0.5491  0.7398
  355MOL0     C47823   4.403   7.029   5.644 -0.3041 -0.2880 -0.5958
  355MOL0     C47824   4.444   7.148   5.590  0.4485  0.6569  0.2920
  355MOL0     O47825   4.567   7.188   5.631 -1.4191 -0.0397  0.1509
  355MOL0     C47826   4.620   7.310   5.565  0.2729  0.8442  0.2645
  355MOL0     C47827   4.674   7.283   5.426 -0.6258  0.8638 -0.4027
  355MOL0     C47828   4.782   7.173   5.447 -0.0543 -0.2175  0.3936
  355MOL0     C47829   4.860   7.159   5.316  1.0447  0.7685 -0.3886
  355MOL0     C47830   4.964   7.049   5.332  0.1059 -0.7249  0.3059
  355MOL0     C47831   5.023   7.037   5.194  0.2672 -0.4904 -0.1017
  355MOL0     C47832   5.145   6.941   5.195 -0.4458 -0.7245  0.0588
  355MOL0     C47833   5.123   6.810   5.283 -0.2722  0.4172  0.2537
  355MOL0    Cl47834   5.289   6.747   5.283 -0.3707 -0.6546  0.1690
  355MOL0     C47835   4.352   7.203   5.489 -0.2198 -0.9784 -0.2761
  355MOL0     C47836   4.236   7.133   5.449 -0.2512  0.3556  0.2164
  355MOL0     O47837   3.948   7.116   5.419  0.1943  0.7309  0.5755
  355MOL0     C47838   3.882   6.769   5.386 -0.2911  0.0133  0.4414
  355MOL0     C47839   3.774   6.686   5.364  0.2171  0.1739  0.7759
  355MOL0     N47840   2.882   6.443   5.242  0.1393  0.1361 -0.0538
  355MOL0     N47841   2.761   6.479   5.232 -0.2557 -0.7553  0.5969
  355MOL0     C47842   1.851   6.785   5.597 -0.4541  0.6454 -0.5162
  355MOL0     C47843   1.775   6.746   5.709 -0.0132  0.6757 -0.0285
  355MOL0     C47844   1.698   6.571   6.157  0.5795  0.2167  0.6828
  355MOL0     C47845   1.567   6.636   6.145 -0.2787  0.7541 -0.0353
  355MOL0     C47846   1.482   6.632   6.251  0.0443  0.7225  0.2223
  355MOL0     C47847   1.520   6.575   6.365  0.0997 -0.2641  1.0023
  355MOL0     O47848   1.424   6.547   6.454  0.3744 -0.0510 -0.6041
  355MOL0     C47849   1.389   6.637   6.557  0.8575 -0.6824 -0.6982
  355MOL0     C47850   1.302   6.762   6.515  0.0771  0.2733 -0.5086
  355MOL0     C47851   1.172   6.750   6.428  0.6328 -0.1220  0.7490
  355MOL0     C47852   1.075   6.640   6.465 -1.2992  0.4497  0.2555
  355MOL0     C47853   1.037   6.641   6.604  0.2045 -0.5204 -0.1747
  355MOL0     C47854   1.010   6.658   6.718  0.1909 -0.0972  0.0276
  355MOL0     C47855   1.648   6.515   6.384  0.6312 -0.5060  0.2697
  355MOL0     C47856   1.741   6.509   6.279 -0.1505  0.0962 -0.8216
  355MOL0     C47857   1.876   6.446   6.301  0.4908  0.5580  0.2832
  355MOL0     H47858   1.989   6.531   5.855 -2.0489  1.2311  2.0958
  355MOL0     H47859   2.111   6.592   5.627  1.8762  0.8802  2.8332
  355MOL0     H47860   1.884   6.802   5.336  0.6758  2.3216  1.3511
  355MOL0     H47861   2.030   6.900   5.322  1.5759 -1.2724 -1.0578
  355MOL0     H47862   1.988   6.785   5.121  1.9267  2.7101  0.4907
  355MOL0     H47863   1.979   6.624   5.206 -0.9602  0.4866 -2.0864
  355MOL0     H47864   2.221   6.638   5.262  1.8073  0.1415  0.0471
  355MOL0     H47865   2.239   6.809   5.213  0.8698 -0.8061 -0.1314
  355MOL0     H47866   2.177   6.573   5.035  1.4391 -1.0976  1.9604
  355MOL0     H47867   2.190   6.747   4.979  1.0388  1.1229  0.3941
  355MOL0     H47868   2.415   6.583   5.112  2.7023  1.9780  0.9227
  355MOL0     H47869   2.395   6.602   4.939 -0.2944  0.5555 -0.6819
  355MOL0     H47870   2.448   6.830   4.957  0.9425 -2.4893 -0.6138
  355MOL0     H47871   2.428   6.837   5.139  1.3634 -1.9819  2.0615
  355MOL0     H47872   2.663   6.837   5.038 -1.8802 -0.4583 -2.7261
  355MOL0     H47873   2.648   6.667   5.017  2.1412  1.0516  0.5183
  355MOL0     H47874   2.653   6.798   5.262  0.5042  1.4263 -3.2057
  355MOL0     H47875   2.564   6.646   5.254 -0.2821  0.5505  0.4102
  355MOL0     H47876   2.925   6.766   5.212  0.5618 -0.8235 -1.3841
  355MOL0     H47877   3.124   6.428   5.221  0.1824  0.0210 -2.4740
  355MOL0     H47878   3.127   6.585   5.129  2.2516  0.0537 -0.5581
  355MOL0     H47879   3.172   6.709   5.353 -0.5123 -0.4961  0.9923
  355MOL0     H47880   3.125   6.560   5.432 -0.5372  2.2330  2.1180
  355MOL0     H47881   3.354   6.529   5.247 -0.7974  3.6101 -1.6237
  355MOL0     H47882   3.332   6.471   5.416  2.4968 -0.2850 -0.7535
  355MOL0     H47883   3.419   6.664   5.515 -2.7406  0.7556 -0.5668
  355MOL0     H47884   3.379   6.763   5.376 -0.0586  0.1086  0.9281
  355MOL0     H47885   3.526   6.918   5.298 -0.0228 -1.0007  2.2908
  355MOL0     H47886   3.731   7.068   5.361  0.9714  0.2224  1.3994
  355MOL0     H47887   4.269   6.858   5.646 -0.3127  0.1885  2.6661
  355MOL0     H47888   4.468   6.980   5.716 -0.3737 -0.7705 -0.8574
  355MOL0     H47889   4.543   7.387   5.554  1.0817  1.4199 -2.1559
  355MOL0     H47890   4.699   7.348   5.631  0.2809 -0.5188  1.0642
  355MOL0     H47891   4.584   7.256   5.371  1.4805  0.1224 -3.7986
  355MOL0     H47892   4.719   7.373   5.385  0.9279 -1.0196 -3.1746
  355MOL0     H47893   4.851   7.200   5.527  0.7931  0.0979 -0.4273
  355MOL0     H47894   4.725   7.086   5.482 -1.4061  1.3407  2.2965
  355MOL0     H47895   4.906   7.257   5.304 -1.0809  2.0002  0.9122
  355MOL0     H47896   4.790   7.130   5.237  2.8724 -1.9315 -1.1739
  355MOL0     H47897   4.913   6.959   5.368 -1.5004 -0.7471 -1.8191
  355MOL0     H47898   5.041   7.074   5.406  0.1629  0.1310 -0.0322
  355MOL0     H47899   4.951   7.001   5.120  1.7622  0.4667 -2.0986
  355MOL0     H47900   5.057   7.135   5.160 -1.2279  0.3801  0.7862
  355MOL0     H47901   5.231   6.993   5.237  0.0034 -1.8743  0.6170
  355MOL0     H47902   5.165   6.901   5.095  1.6029  0.4369 -0.0379
  355MOL0     H47903   5.079   6.821   5.382 -2.0917  2.8991 -0.7094
  355MOL0     H47904   5.056   6.738   5.236  2.1801 -1.5413 -0.4221
  355MOL0     H47905   4.384   7.299   5.450  0.7399 -0.7903  0.9120
  355MOL0     H47906   4.161   7.173   5.382 -1.3648  2.6884  2.6383
  355MOL0     H47907   3.980   6.735   5.420 -1.4238 -3.0292  0.9012
  355MOL0     H47908   3.800   6.584   5.390  0.7692  0.5025  1.5782
  355MOL0     H47909   1.803   6.848   5.522  1.5347  1.1568 -1.4528
  355MOL0     H47910   1.681   6.796   5.728  0.4233  0.3097  3.8625
  355MOL0     H47911   1.523   6.681   6.056  0.7084 -1.2833 -1.6303
  355MOL0     H47912   1.381   6.668   6.234 -0.9895 -1.7516  0.6229
  355MOL0     H47913   1.485   6.655   6.607 -0.2032 -0.1484  1.2242
  355MOL0     H47914   1.329   6.585   6.632  0.7763  1.0151  0.4566
  355MOL0     H47915   1.376   6.821   6.460  1.7506 -0.9727  0.3405
  355MOL0     H47916   1.299   6.823   6.606  1.6594  3.5816 -2.4811
  355MOL0     H47917   1.201   6.730   6.324  1.0636 -1.9239  1.1888
  355MOL0     H47918   1.117   6.845   6.420 -2.9080 -2.1138 -1.3024
  355MOL0     H47919   0.979   6.653   6.413 -1.5895  0.6259  0.8325
  355MOL0     H47920   1.120   6.547   6.430  1.5011  1.9265 -0.3208
  355MOL0     H47921   0.973   6.680   6.816 -0.0772 -2.0695  0.4098
  355MOL0     H47922   1.663   6.465   6.479  3.0337  2.5486  1.6636
  355MOL0     H47923   1.878   6.413   6.405 -1.3355 -2.5599 -0.5704
  355MOL0     H47924   1.890   6.361   6.235 -0.4477 -0.3294  1.1861
  355MOL0     H47925   1.951   6.522   6.276 -2.1459  3.5684  0.9205
  356MOL0     O47926  10.995   7.018   5.639 -0.0823 -0.2482 -0.6842
  356MOL0     C47927  11.074   7.030   5.734  0.0097  0.0307 -0.7597
  356MOL0     O47928  11.194   7.080   5.729  0.4561 -0.3179  0.1490
  356MOL0     C47929  11.236   7.129   5.610 -0.9692  0.6239  0.4001
  356MOL0     C47930  11.166   7.225   5.537  0.2957 -0.3814 -0.5127
  356MOL0     C47931  11.221   7.257   5.411 -0.5947  0.4847  0.3416
  356MOL0     C47932  11.336   7.198   5.358  0.5914 -0.8518  0.0917
  356MOL0     O47933  11.381   7.223   5.232  0.0375 -0.1035 -0.1497
  356MOL0     C47934  11.356   7.354   5.192 -0.2298 -0.9264 -0.2082
  356MOL0     C47935  11.435   7.404   5.068 -0.2372  0.5112  0.2832
  356MOL0     C47936  11.410   7.337   4.936  1.5857 -0.8145 -0.7037
  356MOL0     C47937  11.532   7.348   4.846  0.7520  0.3750 -0.2905
  356MOL0     C47938  11.503   7.281   4.705  0.1853 -1.0590 -0.3707
  356MOL0     C47939  11.629   7.231   4.630 -0.2785  0.0089 -0.5095
  356MOL0     C47940  11.687   7.105   4.693 -0.1332  0.0241  0.4210
  356MOL0     C47941  11.812   7.050   4.635 -0.0032  0.0841 -0.0171
  356MOL0     N47942  11.820   7.039   4.493 -0.6198  0.8861  0.5554
  356MOL0     C47943  11.927   7.072   4.419  0.5144 -0.5295  0.7555
  356MOL0     C47944  11.887   7.044   4.289 -0.3102  0.7514  0.3268
  356MOL0     C47945  11.971   7.086   4.175  0.6171 -0.4906 -0.1272
  356MOL0     C47946  11.988   6.961   4.089 -0.6140 -0.1073 -0.2052
  356MOL0     C47947  12.116   6.963   4.019 -0.1153 -0.5139  0.1332
  356MOL0     C47948  12.139   6.848   3.917  0.7184 -0.2971 -0.3330
  356MOL0     O47949  12.167   6.732   3.989  0.2225  0.2889  0.1748
  356MOL0     C47950  12.296   6.704   4.010 -0.0772 -0.0091 -0.7555
  356MOL0     C47951  12.402   6.788   4.015  0.3572  0.1363  0.5689
  356MOL0     C47952  12.528   6.742   3.994  0.2101 -0.0310 -0.4954
  356MOL0     C47953  12.543   6.598   3.984 -0.3566 -0.0879  0.4243
  356MOL0     C47954  12.684   6.538   3.981  1.1782  0.5742  1.3416
  356MOL0     O47955  12.687   6.414   3.924 -0.1711  0.1025  0.2988
  356MOL0     C47956  12.802   6.347   3.906  0.1856 -0.4057 -0.5782
  356MOL0     C47957  12.905   6.329   3.997 -0.1162  1.1597  0.2546
  356MOL0     C47958  13.028   6.276   3.945  0.5214 -0.4284  0.5229
  356MOL0     C47959  13.042   6.233   3.811 -0.5191  0.5367  0.8522
  356MOL0     O47960  13.155   6.166   3.748 -0.1662  0.1778 -0.5210
  356MOL0     C47961  13.286   6.189   3.810  1.4077  0.5720 -0.2158
  356MOL0     C47962  13.406   6.136   3.732 -0.3672 -0.1735 -0.3815
  356MOL0     C47963  13.440   5.997   3.782  0.3095  0.0680 -0.5606
  356MOL0     C47964  13.538   5.934   3.683  0.4749 -0.3827 -1.4806
  356MOL0     C47965  13.625   5.824   3.746  0.3806  0.4229 -0.7057
  356MOL0     C47966  13.722   5.879   3.840 -0.1246  0.1109 -0.1866
  356MOL0     C47967  13.829   5.777   3.864 -0.3490  0.0313 -0.0443
  356MOL0     C47968  13.934   5.846   3.959  0.8760  0.1123  0.2370
  356MOL0    Cl47969  14.059   5.718   3.988 -0.0248 -0.3729 -0.2349
  356MOL0     C47970  12.941   6.252   3.728  0.1473 -0.6499 -0.0290
  356MOL0     C47971  12.821   6.313   3.773 -0.1450 -0.1036  0.7937
  356MOL0     O47972  12.779   6.610   3.993 -0.4102 -0.0703 -0.4684
  356MOL0     C47973  12.433   6.514   3.980 -0.8856  0.3476 -0.7366
  356MOL0     C47974  12.311   6.565   3.992 -0.9204  0.2545  0.0042
  356MOL0     N47975  11.756   6.995   4.287 -0.3697 -0.2330 -0.4832
  356MOL0     N47976  11.718   6.992   4.412 -0.7010 -0.2834 -0.3342
  356MOL0     C47977  11.403   7.116   5.437 -0.2912  0.3994  0.2902
  356MOL0     C47978  11.355   7.074   5.562 -0.6648 -0.2044 -0.9494
  356MOL0     C47979  11.028   6.979   5.873 -0.2162  0.8644  0.1503
  356MOL0     C47980  10.951   6.860   5.877  0.5628 -0.1050  0.3538
  356MOL0     C47981  10.930   6.783   5.990 -0.2622  0.8074 -0.1734
  356MOL0     C47982  10.979   6.829   6.107  0.7612 -0.1284  0.0588
  356MOL0     O47983  10.975   6.763   6.227 -0.6368  0.9493  0.3419
  356MOL0     C47984  10.885   6.646   6.245  0.8592  0.9910 -0.6338
  356MOL0     C47985  10.731   6.686   6.219  0.2705 -0.2875 -0.9471
  356MOL0     C47986  10.643   6.562   6.259 -0.1568  0.2623 -0.5928
  356MOL0     C47987  10.656   6.465   6.141  0.3797 -0.1007 -0.7658
  356MOL0     C47988  10.545   6.366   6.142 -0.1016 -0.3964  0.1055
  356MOL0     C47989  10.454   6.291   6.159  0.9077  0.0773  0.3306
  356MOL0     C47990  11.037   6.953   6.117  0.2927  0.7948 -0.8536
  356MOL0     C47991  11.060   7.030   5.999  0.0691 -0.3937 -0.5128
  356MOL0     C47992  11.144   7.157   6.012 -0.2936 -0.5785 -0.0337
  356MOL0     H47993  11.072   7.257   5.579 -0.6124 -1.2104 -1.8190
  356MOL0     H47994  11.157   7.323   5.354 -1.6011 -0.9914 -0.3103
  356MOL0     H47995  11.254   7.369   5.155 -0.4665  0.1097  0.8061
  356MOL0     H47996  11.377   7.415   5.280 -1.5849 -2.3325  1.1273
  356MOL0     H47997  11.540   7.390   5.098  0.0764  0.6678 -0.7063
  356MOL0     H47998  11.418   7.512   5.063 -0.9898  0.4117  0.5443
  356MOL0     H47999  11.331   7.393   4.885  1.6413  0.0412  0.1175
  356MOL0     H48000  11.399   7.229   4.952  3.7044 -1.1716 -1.2947
  356MOL0     H48001  11.557   7.452   4.823 -1.4467  0.7072 -1.4971
  356MOL0     H48002  11.623   7.305   4.888  0.5833  0.6831  0.3940
  356MOL0     H48003  11.434   7.198   4.715 -1.6721  0.3040 -1.1835
  356MOL0     H48004  11.456   7.362   4.648 -0.2661 -1.7316 -0.9740
  356MOL0     H48005  11.601   7.208   4.527  0.9495  1.2595 -1.1589
  356MOL0     H48006  11.711   7.304   4.628 -0.8914  0.7506 -2.8648
  356MOL0     H48007  11.606   7.032   4.709 -1.3314  1.1252 -0.4361
  356MOL0     H48008  11.721   7.134   4.793 -0.8270  2.0187  0.1253
  356MOL0     H48009  11.895   7.117   4.660  0.0691  0.4358 -1.1465
  356MOL0     H48010  11.838   6.954   4.681 -0.5435  1.5748  3.7001
  356MOL0     H48011  12.021   7.122   4.440  0.1638 -0.2432  1.6914
  356MOL0     H48012  11.916   7.162   4.119 -0.3234 -1.5842 -0.7293
  356MOL0     H48013  12.074   7.104   4.206 -0.3108 -1.1732  4.0214
  356MOL0     H48014  11.974   6.871   4.150  1.1641 -0.9137 -0.9326
  356MOL0     H48015  11.910   6.965   4.012  1.6543  0.4706 -2.5936
  356MOL0     H48016  12.187   6.953   4.102 -1.1456  3.3948  1.7184
  356MOL0     H48017  12.145   7.061   3.979  1.7373  0.1019  2.7361
  356MOL0     H48018  12.209   6.870   3.836 -1.3907  0.0369 -2.1630
  356MOL0     H48019  12.048   6.841   3.856  1.0362  0.3405 -0.8954
  356MOL0     H48020  12.391   6.896   4.024  4.0607  0.7332 -0.3680
  356MOL0     H48021  12.620   6.799   3.996  0.7198 -0.7858 -1.5001
  356MOL0     H48022  12.893   6.354   4.102 -1.6026 -1.8592  0.9162
  356MOL0     H48023  13.122   6.287   3.997  0.4087  3.8612  0.1287
  356MOL0     H48024  13.296   6.298   3.803  0.6532  0.7337  0.8206
  356MOL0     H48025  13.281   6.154   3.914 -0.0465  1.7821  0.1716
  356MOL0     H48026  13.373   6.119   3.629 -1.3578 -1.6184  0.1390
  356MOL0     H48027  13.488   6.208   3.741 -0.8179  0.2787  0.1047
  356MOL0     H48028  13.478   6.016   3.883  0.5119  3.6815 -1.1600
  356MOL0     H48029  13.346   5.941   3.787 -0.0061  0.6655  0.6033
  356MOL0     H48030  13.602   6.013   3.641 -1.5093  1.0002 -2.0469
  356MOL0     H48031  13.470   5.897   3.606 -2.4916  2.7520 -0.6022
  356MOL0     H48032  13.672   5.772   3.661 -1.5437 -0.1522 -1.4777
  356MOL0     H48033  13.563   5.761   3.810  1.0900  2.9641  2.7527
  356MOL0     H48034  13.775   5.967   3.802  0.1234  0.7820  1.6128
  356MOL0     H48035  13.675   5.905   3.936 -0.8863  1.1433 -0.8090
  356MOL0     H48036  13.861   5.727   3.772 -2.1705 -0.8309 -0.2600
  356MOL0     H48037  13.792   5.709   3.942 -0.4288  1.8509  1.5756
  356MOL0     H48038  13.976   5.940   3.922  0.1300  0.7462  0.9834
  356MOL0     H48039  13.885   5.870   4.053  0.0289  1.2939 -0.4877
  356MOL0     H48040  12.957   6.236   3.622  5.1397  1.7969  0.0590
  356MOL0     H48041  12.751   6.327   3.691  0.7232 -1.2352 -0.1878
  356MOL0     H48042  12.442   6.406   3.972  1.0987  0.3843  0.3614
  356MOL0     H48043  12.223   6.504   3.977  0.8680 -3.6174  3.1868
  356MOL0     H48044  11.497   7.081   5.394 -0.2389 -0.1530  0.8365
  356MOL0     H48045  11.410   7.002   5.621 -1.2319  1.3226  1.6142
  356MOL0     H48046  10.924   6.799   5.792  2.3594 -3.0657  1.7435
  356MOL0     H48047  10.897   6.681   5.978  2.5685 -0.3170  0.8313
  356MOL0     H48048  10.892   6.611   6.349  1.0980  0.9559 -0.6594
  356MOL0     H48049  10.926   6.572   6.177 -1.0742 -1.8647  1.1063
  356MOL0     H48050  10.704   6.729   6.122 -2.8698 -1.9317 -0.9597
  356MOL0     H48051  10.706   6.762   6.294 -0.3635 -0.2189 -1.2232
  356MOL0     H48052  10.539   6.581   6.285  0.6360  2.6439  1.2680
  356MOL0     H48053  10.688   6.514   6.347 -2.7743  3.3499  2.7249
  356MOL0     H48054  10.673   6.504   6.040 -0.0053  1.2280 -0.3340
  356MOL0     H48055  10.748   6.407   6.157 -0.4971 -1.4025 -0.3016
  356MOL0     H48056  10.380   6.214   6.164 -0.3441  1.1993 -0.2580
  356MOL0     H48057  11.075   6.991   6.212  2.0946  1.7392 -1.8889
  356MOL0     H48058  11.133   7.217   6.102  0.1268  3.3068 -2.3474
  356MOL0     H48059  11.252   7.142   6.000  0.3282  1.6866  1.9330
  356MOL0     H48060  11.112   7.219   5.928  2.0151  1.8514  0.7289
  357MOL0     O48061   3.736   9.305   0.322 -0.3227  0.9915 -0.1315
  357MOL0     C48062   3.763   9.221   0.244 -0.0185 -0.9458 -0.5422
  357MOL0     O48063   3.886   9.153   0.234  0.4638 -0.4189  0.3627
  357MOL0     C48064   3.974   9.185   0.336  0.1408 -0.5314  0.2746
  357MOL0     C48065   4.065   9.287   0.329  1.0789 -0.0347  0.3031
  357MOL0     C48066   4.146   9.322   0.440 -0.2831  0.9125 -0.0693
  357MOL0     C48067   4.148   9.245   0.553 -0.4140  0.2008 -0.7040
  357MOL0     O48068   4.222   9.262   0.668 -0.1424 -0.0328  0.5159
  357MOL0     C48069   4.320   9.366   0.652 -0.6046 -0.0590 -0.0302
  357MOL0     C48070   4.411   9.353   0.766 -0.1943 -0.4606 -0.7134
  357MOL0     C48071   4.358   9.366   0.909 -0.0624  0.0162  0.3241
  357MOL0     C48072   4.477   9.355   1.012  1.0199  0.6678 -0.0091
  357MOL0     C48073   4.532   9.217   1.010 -0.1578 -0.3067  0.4147
  357MOL0     C48074   4.610   9.176   1.132  0.7116 -0.4308  0.9268
  357MOL0     C48075   4.667   9.039   1.118  0.3065 -0.3184  0.0743
  357MOL0     C48076   4.726   8.988   1.259  0.2956 -0.3317 -0.2215
  357MOL0     N48077   4.812   8.869   1.257 -0.7823  0.0966  0.4973
  357MOL0     C48078   4.948   8.864   1.284 -0.3655 -0.5273  0.4649
  357MOL0     C48079   4.983   8.735   1.286  0.0474  0.2236 -0.2840
  357MOL0     C48080   5.122   8.701   1.337  0.2511  0.4050  0.6404
  357MOL0     C48081   5.207   8.688   1.213  0.7363 -0.1436 -0.1689
  357MOL0     C48082   5.351   8.676   1.253  0.3097 -0.0639 -0.5391
  357MOL0     C48083   5.446   8.618   1.144 -0.6426  1.0218  0.3807
  357MOL0     O48084   5.576   8.628   1.199 -0.7623 -0.1652  0.3822
  357MOL0     C48085   5.682   8.560   1.147 -0.1266 -0.1722  0.7210
  357MOL0     C48086   5.804   8.576   1.219  0.3757 -0.4168 -0.6021
  357MOL0     C48087   5.915   8.519   1.168 -0.4203  0.0424 -0.0848
  357MOL0     C48088   5.919   8.445   1.049  0.3635 -0.6034  0.2473
  357MOL0     C48089   6.048   8.388   0.998 -0.5269  0.7811 -0.3229
  357MOL0     O48090   6.159   8.401   1.076 -0.5763  0.2704  1.2222
  357MOL0     C48091   6.274   8.333   1.047  1.1033 -1.1689 -0.1520
  357MOL0     C48092   6.393   8.409   1.064  0.0916  0.1845 -0.9436
  357MOL0     C48093   6.518   8.341   1.038  0.6243  0.6664 -0.1752
  357MOL0     C48094   6.522   8.208   0.999  0.3390 -0.4908  0.3787
  357MOL0     O48095   6.648   8.158   0.982 -0.0513  0.6712 -0.3301
  357MOL0     C48096   6.659   8.029   0.906  0.7013 -0.6426 -0.4873
  357MOL0     C48097   6.804   8.001   0.884  0.0745  0.2519  0.7283
  357MOL0     C48098   6.895   7.990   1.003 -0.7306 -0.2755 -0.0008
  357MOL0     C48099   7.030   7.935   0.964  0.6198 -0.7217  1.4199
  357MOL0     C48100   7.141   7.942   1.060 -1.2407 -0.6345 -0.0234
  357MOL0     C48101   7.265   7.869   1.000 -0.3910 -0.6212  0.5257
  357MOL0     C48102   7.359   7.820   1.122  0.1207  1.3622 -0.1583
  357MOL0     C48103   7.298   7.676   1.155 -0.4257 -0.2613  0.3986
  357MOL0    Cl48104   7.375   7.637   1.305  0.1942 -0.7080  0.6617
  357MOL0     C48105   6.398   8.145   0.967 -0.3319 -0.9177 -0.7598
  357MOL0     C48106   6.279   8.204   0.995 -0.5731 -0.4486 -0.0797
  357MOL0     O48107   6.047   8.330   0.886 -0.1820  0.6137  0.2022
  357MOL0     C48108   5.804   8.441   0.974 -0.2354  0.1358 -0.2291
  357MOL0     C48109   5.681   8.492   1.025 -0.3860 -0.0019  0.3380
  357MOL0     N48110   4.872   8.653   1.274  0.5082 -0.3834  1.2261
  357MOL0     N48111   4.774   8.736   1.252  0.1279 -0.7953 -0.4371
  357MOL0     C48112   4.060   9.136   0.556 -0.3251 -0.5574  0.6140
  357MOL0     C48113   3.970   9.113   0.451  0.3144  0.3885  0.9916
  357MOL0     C48114   3.651   9.178   0.153 -1.1812  0.8373 -0.2432
  357MOL0     C48115   3.657   9.048   0.102 -0.4468 -0.6498 -0.7739
  357MOL0     C48116   3.560   8.989   0.028  0.7312 -0.1528 -0.0605
  357MOL0     C48117   3.455   9.073  -0.025  0.1905 -0.4325  0.3352
  357MOL0     O48118   3.367   9.023  -0.117  0.4723  0.4008 -0.0095
  357MOL0     C48119   3.274   9.100  -0.190  0.6049 -0.5112  0.0186
  357MOL0     C48120   3.228   9.007  -0.297  0.9101  0.3373 -0.3742
  357MOL0     C48121   3.107   9.055  -0.372  0.3592  0.2008  0.1092
  357MOL0     C48122   3.122   9.188  -0.454  0.0169  0.8408 -0.0715
  357MOL0     C48123   3.118   9.306  -0.370 -0.4244  0.6461 -0.0635
  357MOL0     C48124   3.107   9.408  -0.306  0.0309 -0.3750  0.4431
  357MOL0     C48125   3.446   9.201   0.035 -0.2124  0.1096 -0.3111
  357MOL0     C48126   3.542   9.257   0.124  0.8933 -0.6978  0.1891
  357MOL0     C48127   3.522   9.393   0.165 -0.9217 -0.1457 -1.0299
  357MOL0     H48128   4.069   9.346   0.238 -0.0979 -1.3286 -0.6354
  357MOL0     H48129   4.214   9.405   0.422 -0.7974  0.8791 -2.4531
  357MOL0     H48130   4.394   9.358   0.572 -1.5278 -1.2566 -0.8167
  357MOL0     H48131   4.268   9.462   0.653  1.2249  1.0006 -1.1860
  357MOL0     H48132   4.486   9.432   0.754  0.6219 -1.1969 -0.5502
  357MOL0     H48133   4.458   9.255   0.754  5.2219  1.1249  3.6280
  357MOL0     H48134   4.286   9.287   0.935  1.0518 -1.4757 -0.9292
  357MOL0     H48135   4.302   9.459   0.918  0.8501  0.4684  1.6083
  357MOL0     H48136   4.545   9.432   0.975  1.0764 -0.5547 -2.6787
  357MOL0     H48137   4.449   9.378   1.115 -0.2474  0.9954 -0.4100
  357MOL0     H48138   4.448   9.147   1.004 -2.0934  0.9909  5.9599
  357MOL0     H48139   4.609   9.220   0.933 -0.1664 -2.3116  0.2859
  357MOL0     H48140   4.699   9.238   1.145  0.5972  0.4738 -1.8416
  357MOL0     H48141   4.539   9.186   1.214 -1.2360 -0.7771 -0.6612
  357MOL0     H48142   4.737   9.047   1.035 -0.5730  1.6403 -0.5455
  357MOL0     H48143   4.592   8.967   1.083  0.6678  0.3488 -2.2374
  357MOL0     H48144   4.782   9.078   1.287 -2.2417  1.1764  0.3811
  357MOL0     H48145   4.646   8.979   1.333 -2.5966 -1.7706 -3.2213
  357MOL0     H48146   5.020   8.941   1.311  1.4851 -1.4892 -1.3969
  357MOL0     H48147   5.165   8.780   1.399 -0.5513  2.0695 -0.8404
  357MOL0     H48148   5.115   8.613   1.402 -2.6762 -0.4472 -0.6289
  357MOL0     H48149   5.174   8.594   1.168  2.1787 -0.3453 -0.8397
  357MOL0     H48150   5.192   8.777   1.152 -0.0362  1.0794  1.6920
  357MOL0     H48151   5.347   8.608   1.338 -1.3036 -0.3931 -0.8361
  357MOL0     H48152   5.380   8.778   1.279 -1.3451  0.3387 -0.1318
  357MOL0     H48153   5.441   8.677   1.052 -0.2728  1.8979  0.9102
  357MOL0     H48154   5.415   8.515   1.122 -0.1797  0.8160  0.6714
  357MOL0     H48155   5.807   8.640   1.307 -0.4080  0.7797 -1.4143
  357MOL0     H48156   6.004   8.534   1.229 -1.2275  1.2340  0.8404
  357MOL0     H48157   6.391   8.515   1.085  1.2292  0.4567 -2.0560
  357MOL0     H48158   6.621   8.376   1.034  1.0302 -0.6251 -2.3474
  357MOL0     H48159   6.610   7.947   0.959  1.0310 -0.6121 -0.1310
  357MOL0     H48160   6.617   8.051   0.807  3.2462 -0.7392 -1.6734
  357MOL0     H48161   6.820   7.911   0.824 -1.2295  1.7322 -2.0365
  357MOL0     H48162   6.833   8.088   0.824 -1.7081 -1.4180 -2.8762
  357MOL0     H48163   6.900   8.094   1.037 -1.5090  0.8503 -3.0247
  357MOL0     H48164   6.856   7.919   1.076 -1.8152 -0.4603 -0.7358
  357MOL0     H48165   7.060   7.997   0.879  2.1308 -0.5269  2.0736
  357MOL0     H48166   7.017   7.832   0.929  2.0885 -0.0440 -1.4228
  357MOL0     H48167   7.110   7.883   1.147  1.6653 -0.9148  0.9586
  357MOL0     H48168   7.165   8.042   1.097  1.2064 -1.4652  0.8728
  357MOL0     H48169   7.237   7.787   0.935 -0.6841  1.4218 -2.0777
  357MOL0     H48170   7.314   7.940   0.932  0.7895 -0.5305  1.4189
  357MOL0     H48171   7.346   7.881   1.212 -0.3157 -2.8470  2.9661
  357MOL0     H48172   7.463   7.804   1.091  0.8465 -0.8457  2.9279
  357MOL0     H48173   7.188   7.675   1.158 -0.5772  2.4060 -1.3637
  357MOL0     H48174   7.326   7.604   1.078 -1.0743  0.2571 -0.3312
  357MOL0     H48175   6.388   8.045   0.925 -0.0800 -0.9236 -0.8109
  357MOL0     H48176   6.187   8.153   0.972 -1.3332  0.7472  0.2121
  357MOL0     H48177   5.803   8.387   0.880  0.3587 -1.9965  0.9264
  357MOL0     H48178   5.599   8.479   0.955  0.1742  1.4274 -0.6221
  357MOL0     H48179   4.054   9.073   0.645 -2.3414 -2.0903 -0.5070
  357MOL0     H48180   3.894   9.037   0.458  0.2753  0.4764  1.6006
  357MOL0     H48181   3.739   8.983   0.129 -0.3359 -1.4530 -2.8712
  357MOL0     H48182   3.582   8.884   0.007  2.9347  0.4802 -1.1773
  357MOL0     H48183   3.335   9.186  -0.220  0.7586 -0.0336  1.6119
  357MOL0     H48184   3.192   9.123  -0.121 -0.8098 -1.6928 -1.2066
  357MOL0     H48185   3.212   8.908  -0.252 -0.0762  1.2359  1.3209
  357MOL0     H48186   3.316   9.004  -0.363  1.7738 -1.3831  0.7916
  357MOL0     H48187   3.021   9.061  -0.305 -0.9402 -1.4425 -1.3305
  357MOL0     H48188   3.085   8.976  -0.444  0.6134 -0.9818  1.2858
  357MOL0     H48189   3.218   9.170  -0.502 -0.5459 -0.2639 -0.8459
  357MOL0     H48190   3.044   9.191  -0.531  0.8417  0.7163 -0.9360
  357MOL0     H48191   3.094   9.499  -0.250 -0.6530  2.1281 -3.3677
  357MOL0     H48192   3.351   9.247   0.012 -0.9197 -1.5697 -0.9085
  357MOL0     H48193   3.441   9.448   0.117 -2.2045 -1.6446 -0.6900
  357MOL0     H48194   3.494   9.403   0.270 -4.0805  1.9864 -1.9414
  357MOL0     H48195   3.617   9.442   0.143 -0.9570  0.4980  0.2124
  358MOL0     O48196   3.031  10.681   5.327 -0.5233  0.2242  0.2620
  358MOL0     C48197   2.997  10.564   5.333  0.3786  0.2414  0.5650
  358MOL0     O48198   3.055  10.458   5.269 -0.1935 -0.1921  0.3390
  358MOL0     C48199   3.173  10.481   5.202  0.5792  0.4419 -0.6567
  358MOL0     C48200   3.196  10.433   5.071 -0.6697 -0.0117  0.2152
  358MOL0     C48201   3.315  10.452   5.013 -0.1241  0.0789  0.0757
  358MOL0     C48202   3.424  10.529   5.073  1.1881  0.4823  0.8056
  358MOL0     O48203   3.546  10.570   5.022  0.3284  0.3255  0.3503
  358MOL0     C48204   3.560  10.576   4.879 -0.0175 -0.3438  0.0994
  358MOL0     C48205   3.630  10.443   4.841  0.4943  1.0154  0.5546
  358MOL0     C48206   3.773  10.457   4.850 -0.4441 -0.1823  0.3717
  358MOL0     C48207   3.838  10.309   4.865  0.3104 -0.6977  0.7039
  358MOL0     C48208   3.834  10.229   4.722  0.7987  0.2739  0.0283
  358MOL0     C48209   3.932  10.112   4.731  0.1843 -1.0282 -0.3506
  358MOL0     C48210   3.908  10.030   4.868 -1.1481  0.0463 -0.4142
  358MOL0     C48211   3.970   9.888   4.853  0.4874  0.8020 -0.6973
  358MOL0     N48212   4.122   9.900   4.842  0.0327 -0.7147 -0.2534
  358MOL0     C48213   4.209   9.947   4.939  0.1770  0.9145 -0.2505
  358MOL0     C48214   4.327   9.950   4.878  0.1136  0.2398  0.1464
  358MOL0     C48215   4.449  10.004   4.937 -0.0753  0.7116 -0.1368
  358MOL0     C48216   4.575   9.964   4.855  0.5016  0.2820  0.3834
  358MOL0     C48217   4.698  10.007   4.922 -0.3178  0.4502  0.5153
  358MOL0     C48218   4.815   9.934   4.863  0.1629  0.3891 -0.4338
  358MOL0     O48219   4.928   9.932   4.959 -0.6546 -0.3025  0.0728
  358MOL0     C48220   5.054   9.942   4.902  0.2830  0.3803  0.2107
  358MOL0     C48221   5.160   9.972   4.986 -0.3415  0.2082 -0.0792
  358MOL0     C48222   5.298   9.982   4.941  0.8419  0.7323  0.8420
  358MOL0     C48223   5.331   9.970   4.811  0.6071 -0.0776 -0.4519
  358MOL0     C48224   5.467   9.992   4.762  0.1586 -0.5579  1.0807
  358MOL0     O48225   5.569  10.024   4.846  0.1180 -0.8318  0.3218
  358MOL0     C48226   5.700  10.050   4.805  0.2244 -0.1397 -0.2130
  358MOL0     C48227   5.793  10.055   4.914 -0.2240 -0.0057  0.1259
  358MOL0     C48228   5.931  10.065   4.896  0.1567  0.0659  0.7521
  358MOL0     C48229   5.978  10.073   4.765  0.3765 -0.6295  0.7312
  358MOL0     O48230   6.111  10.102   4.749 -0.2305  0.2714  0.0047
  358MOL0     C48231   6.134  10.236   4.714 -0.2991 -0.5759  0.7827
  358MOL0     C48232   6.293  10.257   4.723  0.5668  0.6139  0.3173
  358MOL0     C48233   6.313  10.403   4.721  0.4890  0.4977 -0.3367
  358MOL0     C48234   6.437  10.444   4.808 -0.8775  0.3973  0.6596
  358MOL0     C48235   6.574  10.391   4.755 -0.9164 -0.2097  0.3568
  358MOL0     C48236   6.674  10.425   4.872 -0.2414 -0.1258  0.5068
  358MOL0     C48237   6.819  10.419   4.828 -0.0926  0.5440 -0.1451
  358MOL0     C48238   6.881  10.286   4.864  0.8665  1.0673 -0.0414
  358MOL0    Cl48239   7.027  10.265   4.753  0.1557 -0.2705 -0.2222
  358MOL0     C48240   5.892  10.088   4.658 -0.6271 -0.6281 -1.4693
  358MOL0     C48241   5.759  10.074   4.678  0.8296  0.0996  1.0487
  358MOL0     O48242   5.471   9.989   4.638 -0.2564 -0.5370 -0.0849
  358MOL0     C48243   5.223   9.946   4.721 -0.2164 -0.5993 -0.3933
  358MOL0     C48244   5.095   9.913   4.767 -0.2423  0.2352  0.1382
  358MOL0     N48245   4.305   9.915   4.746 -1.5146  0.1037 -0.4912
  358MOL0     N48246   4.195   9.874   4.734  0.0161  0.4693  0.2517
  358MOL0     C48247   3.399  10.566   5.202 -0.0767 -1.3584 -0.9426
  358MOL0     C48248   3.272  10.546   5.265 -0.9364 -1.1961 -0.5246
  358MOL0     C48249   2.875  10.539   5.400 -0.0498  0.1053 -0.0276
  358MOL0     C48250   2.758  10.526   5.334  1.3040 -0.0324 -0.3625
  358MOL0     C48251   2.635  10.493   5.398  0.2433  0.7157  0.4790
  358MOL0     C48252   2.629  10.482   5.537  0.4235 -0.1644  0.7990
  358MOL0     O48253   2.498  10.450   5.583 -0.6346 -1.1762  0.7488
  358MOL0     C48254   2.500  10.404   5.720 -0.1760 -0.5784  0.2972
  358MOL0     C48255   2.352  10.376   5.766 -0.2567 -0.4383  0.1488
  358MOL0     C48256   2.275  10.504   5.826  0.3523  0.2344 -0.5334
  358MOL0     C48257   2.200  10.478   5.954  0.3748  0.1898 -0.1302
  358MOL0     C48258   2.074  10.399   5.935 -0.5867 -0.3643  0.2097
  358MOL0     C48259   1.963  10.353   5.930  0.2452  0.6154  0.6413
  358MOL0     C48260   2.750  10.504   5.605  0.0405 -0.1709 -0.4316
  358MOL0     C48261   2.873  10.533   5.542  0.2390  0.1509 -0.3388
  358MOL0     C48262   2.992  10.529   5.637  0.1556  0.4676  0.3700
  358MOL0     H48263   3.111  10.387   5.023 -0.1750  0.6855 -1.3751
  358MOL0     H48264   3.315  10.422   4.909 -0.4524  0.9519 -0.1850
  358MOL0     H48265   3.463  10.599   4.834  0.9659  1.4298 -1.2688
  358MOL0     H48266   3.633  10.653   4.851  2.4822 -1.6684  2.5392
  358MOL0     H48267   3.594  10.423   4.739 -1.8059  1.4643  1.2214
  358MOL0     H48268   3.595  10.355   4.896 -0.7006  1.2796  0.2498
  358MOL0     H48269   3.798  10.520   4.936  0.7141  0.0230 -0.0982
  358MOL0     H48270   3.814  10.513   4.766 -0.9007 -0.4774 -0.0538
  358MOL0     H48271   3.942  10.320   4.896  0.3642  0.6773  0.0998
  358MOL0     H48272   3.790  10.255   4.947 -1.7561  1.0405  0.7077
  358MOL0     H48273   3.736  10.187   4.697  1.4399 -1.4507  0.3177
  358MOL0     H48274   3.871  10.301   4.648  1.8912 -1.5020 -1.2249
  358MOL0     H48275   3.918  10.051   4.641 -0.1976 -0.2271 -0.8437
  358MOL0     H48276   4.033  10.152   4.717 -0.0538 -1.2119 -3.0908
  358MOL0     H48277   3.801  10.024   4.894 -0.6547  0.6526  1.9776
  358MOL0     H48278   3.967  10.079   4.946 -3.7039  0.3952  1.4438
  358MOL0     H48279   3.937   9.816   4.929 -0.2931  0.6990 -1.1249
  358MOL0     H48280   3.930   9.844   4.761 -0.3639  0.7561 -0.3130
  358MOL0     H48281   4.183   9.984   5.037 -2.6030  1.2447 -1.0108
  358MOL0     H48282   4.449  10.113   4.935  2.7005  0.9331  2.7919
  358MOL0     H48283   4.462   9.977   5.042  1.1540 -0.9384 -0.6712
  358MOL0     H48284   4.578   9.855   4.839 -0.6540  0.0615  1.5235
  358MOL0     H48285   4.564  10.010   4.756 -0.2360  0.9251  0.7595
  358MOL0     H48286   4.691   9.989   5.030 -0.6065  3.5583  1.1070
  358MOL0     H48287   4.720  10.114   4.921 -0.3370  0.4492  0.0532
  358MOL0     H48288   4.829   9.989   4.769  0.6869 -1.1276 -1.2914
  358MOL0     H48289   4.795   9.832   4.830 -0.0712  0.6687 -1.1837
  358MOL0     H48290   5.144   9.987   5.092 -1.4931  1.1672 -0.3654
  358MOL0     H48291   5.367  10.005   5.021  2.5935 -1.0725 -0.0588
  358MOL0     H48292   5.751  10.050   5.014  1.1856 -0.3734  0.7215
  358MOL0     H48293   5.995  10.074   4.983  1.6672 -1.9774 -0.0650
  358MOL0     H48294   6.100  10.252   4.612  1.0501 -0.0751  0.3990
  358MOL0     H48295   6.085  10.317   4.770  1.0988  3.0902 -2.8189
  358MOL0     H48296   6.330  10.204   4.811  0.3551 -1.0725 -0.5529
  358MOL0     H48297   6.334  10.207   4.635 -2.4384 -1.3124 -0.1544
  358MOL0     H48298   6.338  10.442   4.621  4.0160  0.0087  0.2179
  358MOL0     H48299   6.229  10.457   4.764 -0.0845 -1.4421  1.1242
  358MOL0     H48300   6.420  10.428   4.915  0.1903 -0.2158  0.7571
  358MOL0     H48301   6.452  10.553   4.811 -0.4455  0.3390  0.6800
  358MOL0     H48302   6.602  10.449   4.667  3.3601  0.9629  2.2090
  358MOL0     H48303   6.569  10.285   4.729 -0.7350  0.7732 -4.6107
  358MOL0     H48304   6.654  10.527   4.906  0.3318  0.0819  0.2270
  358MOL0     H48305   6.652  10.353   4.951 -1.7124  0.7158  0.9091
  358MOL0     H48306   6.880  10.500   4.866 -1.9627  2.1308 -0.3613
  358MOL0     H48307   6.829  10.435   4.720  2.1708  0.1017 -0.0490
  358MOL0     H48308   6.905  10.275   4.970 -0.6222 -0.5328  0.1805
  358MOL0     H48309   6.809  10.205   4.848  1.3686  0.6816 -0.4041
  358MOL0     H48310   5.931  10.108   4.559  1.0221 -0.1037 -0.7559
  358MOL0     H48311   5.700  10.069   4.588  2.4400 -3.2249  0.0187
  358MOL0     H48312   5.237   9.956   4.614 -1.2351  1.3211 -0.3949
  358MOL0     H48313   5.023   9.880   4.692 -0.5920  1.6994 -0.1940
  358MOL0     H48314   3.460  10.641   5.253 -3.7746  1.1583  0.2881
  358MOL0     H48315   3.249  10.583   5.365 -0.1153  0.5681 -0.9534
  358MOL0     H48316   2.764  10.534   5.226 -1.2855  0.0008 -0.5594
  358MOL0     H48317   2.539  10.492   5.346 -0.7115  0.7422  2.1743
  358MOL0     H48318   2.549  10.477   5.784  1.0825 -0.6505 -0.5466
  358MOL0     H48319   2.556  10.311   5.734 -0.4245 -0.8102 -0.2182
  358MOL0     H48320   2.347  10.301   5.845 -0.1967  1.5513  2.1532
  358MOL0     H48321   2.295  10.342   5.679 -1.4726 -2.7782  1.7498
  358MOL0     H48322   2.208  10.546   5.750 -0.6840  1.8275  1.1515
  358MOL0     H48323   2.356  10.570   5.858 -1.6975  2.0967  1.2507
  358MOL0     H48324   2.256  10.418   6.027 -0.8731 -3.3841 -1.8830
  358MOL0     H48325   2.173  10.576   5.994  0.8064 -0.0307  0.7161
  358MOL0     H48326   1.863  10.318   5.910 -0.0333  1.1075  1.1423
  358MOL0     H48327   2.747  10.504   5.714 -0.0737  1.2447 -0.4117
  358MOL0     H48328   3.057  10.445   5.611  0.4028  0.8535 -0.2993
  358MOL0     H48329   3.057  10.616   5.621  0.4046  0.3640  0.8023
  358MOL0     H48330   2.960  10.531   5.741 -0.3660  1.5671  0.1969
  359MOL0     O48331   0.602   0.491   6.213  0.4084 -0.2971 -0.3178
  359MOL0     C48332   0.656   0.388   6.245  0.2723 -0.7078  0.0067
  359MOL0     O48333   0.588   0.264   6.242 -0.3506  0.1967 -0.2529
  359MOL0     C48334   0.455   0.246   6.241  0.0824 -0.1088  0.2626
  359MOL0     C48335   0.370   0.335   6.308 -0.4038 -0.0271  0.0280
  359MOL0     C48336   0.238   0.305   6.313  0.6608  0.3113  0.1392
  359MOL0     C48337   0.189   0.194   6.253  0.1164  0.4189 -0.1676
  359MOL0     O48338   0.054   0.198   6.233 -0.0449  0.8992  0.3269
  359MOL0     C48339  -0.014   0.073   6.208 -0.6377 -0.6192 -0.2155
  359MOL0     C48340  -0.168   0.098   6.211  0.8099 -0.1066  0.1554
  359MOL0     C48341  -0.223   0.136   6.346  0.4623  0.6583  0.2137
  359MOL0     C48342  -0.375   0.130   6.356  0.0352 -0.0421  0.0530
  359MOL0     C48343  -0.406   0.128   6.507 -0.1095  0.5267 -0.8141
  359MOL0     C48344  -0.555   0.151   6.527  0.1834 -0.4266  0.7774
  359MOL0     C48345  -0.622   0.044   6.614  0.1310  0.8082 -0.2280
  359MOL0     C48346  -0.769   0.037   6.599  0.1024 -0.4157 -0.9716
  359MOL0     N48347  -0.836   0.130   6.683  0.5410  0.6679 -0.6479
  359MOL0     C48348  -0.918   0.232   6.640  0.0605  0.4463 -0.1240
  359MOL0     C48349  -0.949   0.300   6.749  0.7393  0.2541 -0.0209
  359MOL0     C48350  -1.027   0.431   6.758 -0.1564 -0.2257 -0.4290
  359MOL0     C48351  -0.974   0.549   6.666 -0.0774  0.8607  0.4709
  359MOL0     C48352  -0.956   0.686   6.741 -0.7492  0.5970  0.0711
  359MOL0     C48353  -0.879   0.779   6.657  1.3933 -0.2632 -0.0206
  359MOL0     O48354  -0.880   0.914   6.699 -0.2114  0.2692 -0.7918
  359MOL0     C48355  -0.762   0.971   6.739  0.0145 -0.2881  0.0084
  359MOL0     C48356  -0.648   0.912   6.793 -0.1105 -0.2589  0.6098
  359MOL0     C48357  -0.536   0.989   6.830  0.9501 -0.2474  0.0104
  359MOL0     C48358  -0.544   1.135   6.818 -0.1168 -0.3160  0.4506
  359MOL0     C48359  -0.430   1.219   6.871 -0.7213  0.7477  0.3297
  359MOL0     O48360  -0.334   1.143   6.916  0.7519 -0.2039 -0.0251
  359MOL0     C48361  -0.223   1.186   6.997  0.3006 -0.0088  0.1519
  359MOL0     C48362  -0.164   1.088   7.076  0.4968 -0.1665 -0.2208
  359MOL0     C48363  -0.072   1.110   7.167 -0.3490  0.2733 -0.3699
  359MOL0     C48364  -0.024   1.240   7.191  0.8118 -0.5151 -0.4669
  359MOL0     O48365   0.075   1.256   7.288 -0.0791  0.4022  0.5062
  359MOL0     C48366   0.034   1.232   7.425  0.2108 -0.3705  0.6864
  359MOL0     C48367   0.123   1.297   7.528  0.6885 -0.4083  0.4282
  359MOL0     C48368   0.238   1.196   7.565  1.2237  0.2499  0.2278
  359MOL0     C48369   0.354   1.186   7.465  0.1573  0.4450  0.2406
  359MOL0     C48370   0.461   1.093   7.516 -0.4593 -0.3225  1.3753
  359MOL0     C48371   0.576   1.077   7.423 -1.1564  0.1377  0.1465
  359MOL0     C48372   0.672   0.960   7.468 -0.3196  0.1601 -0.6828
  359MOL0     C48373   0.785   0.931   7.374 -0.4140  0.1798 -0.1165
  359MOL0    Cl48374   0.917   1.052   7.422 -0.5886  0.3321  0.2977
  359MOL0     C48375  -0.066   1.341   7.106  0.5807 -0.6679  0.7216
  359MOL0     C48376  -0.165   1.314   7.011 -0.0367  0.1705 -0.2418
  359MOL0     O48377  -0.429   1.339   6.884 -0.3247  0.3303 -0.3477
  359MOL0     C48378  -0.665   1.195   6.778 -1.1517  0.4898 -1.0507
  359MOL0     C48379  -0.768   1.114   6.730 -0.6072 -0.4420 -0.4380
  359MOL0     N48380  -0.888   0.243   6.860 -0.5231 -0.0196 -0.6618
  359MOL0     N48381  -0.815   0.141   6.818  0.4146  0.0806 -0.0407
  359MOL0     C48382   0.273   0.108   6.183 -0.4739  0.0791  0.6080
  359MOL0     C48383   0.417   0.127   6.171 -0.3288 -0.6670  0.0755
  359MOL0     C48384   0.794   0.390   6.271 -0.1118 -0.5939 -0.8142
  359MOL0     C48385   0.855   0.267   6.293 -0.5948  0.6712  0.3201
  359MOL0     C48386   0.991   0.249   6.298 -0.4381 -0.4232  0.3316
  359MOL0     C48387   1.075   0.360   6.320 -0.2756 -0.7594 -0.0701
  359MOL0     O48388   1.210   0.330   6.336  0.0859 -0.4974  0.1606
  359MOL0     C48389   1.300   0.428   6.381  0.2195 -0.2368  0.2581
  359MOL0     C48390   1.349   0.515   6.264 -0.2028  0.1078  0.1849
  359MOL0     C48391   1.477   0.460   6.206 -0.6785  0.3355 -0.0864
  359MOL0     C48392   1.558   0.544   6.111  0.5034 -0.5356 -0.5533
  359MOL0     C48393   1.700   0.503   6.096  0.0737 -0.1283  0.9485
  359MOL0     C48394   1.810   0.452   6.089 -0.4298  1.5841  0.1360
  359MOL0     C48395   1.022   0.489   6.302  0.8105  0.1179  0.1939
  359MOL0     C48396   0.878   0.507   6.281 -0.4470 -0.5365 -0.2889
  359MOL0     C48397   0.841   0.647   6.246 -0.0955  1.1790 -0.9058
  359MOL0     H48398   0.392   0.429   6.357  0.0985 -0.5805  0.8825
  359MOL0     H48399   0.176   0.369   6.375  0.1479  2.9210 -2.8357
  359MOL0     H48400  -0.003   0.029   6.109 -1.7227 -0.7422 -0.2904
  359MOL0     H48401   0.022  -0.003   6.278 -0.4205 -0.2569  0.0753
  359MOL0     H48402  -0.229   0.013   6.179  3.5728 -1.7915 -1.0478
  359MOL0     H48403  -0.193   0.174   6.136 -2.1667  0.2676  1.4038
  359MOL0     H48404  -0.188   0.231   6.387 -1.6581  0.3917  2.9566
  359MOL0     H48405  -0.185   0.046   6.396 -1.4988 -2.1682 -2.9480
  359MOL0     H48406  -0.428   0.214   6.309 -0.9028 -0.7895 -0.2651
  359MOL0     H48407  -0.409   0.039   6.305  1.4709 -0.2801 -0.5236
  359MOL0     H48408  -0.384   0.031   6.552  1.2170  1.0530 -0.2852
  359MOL0     H48409  -0.350   0.204   6.562  2.0054  0.3450 -2.5810
  359MOL0     H48410  -0.565   0.247   6.581 -2.3314 -0.1242 -0.0761
  359MOL0     H48411  -0.594   0.158   6.425  4.8027 -1.1868 -1.2919
  359MOL0     H48412  -0.588   0.050   6.718 -2.3718  0.9595  0.6651
  359MOL0     H48413  -0.587  -0.056   6.586 -4.9791 -2.0879  2.1253
  359MOL0     H48414  -0.801   0.040   6.494 -1.2603 -4.0935 -0.8116
  359MOL0     H48415  -0.812  -0.061   6.623 -1.4748  0.3690 -0.4172
  359MOL0     H48416  -0.947   0.255   6.538 -2.0476  0.6591  0.4619
  359MOL0     H48417  -1.131   0.414   6.731 -0.2698  0.4830 -0.4617
  359MOL0     H48418  -1.014   0.459   6.863  0.6292  1.3850 -0.9129
  359MOL0     H48419  -0.876   0.527   6.624  0.4851  2.2238  1.0158
  359MOL0     H48420  -1.041   0.560   6.580 -0.6606  2.3302  1.0779
  359MOL0     H48421  -0.886   0.660   6.822  1.9073  0.1452 -2.2295
  359MOL0     H48422  -1.045   0.739   6.777 -0.1649 -0.0806  2.7724
  359MOL0     H48423  -0.925   0.772   6.558 -0.8636  1.5767  0.7874
  359MOL0     H48424  -0.777   0.745   6.639  1.9981  0.6647  1.4375
  359MOL0     H48425  -0.636   0.805   6.804  1.4053 -0.5381 -2.5953
  359MOL0     H48426  -0.449   0.945   6.877  1.1511  3.0388  3.1085
  359MOL0     H48427  -0.200   0.986   7.066  2.4790 -0.8292 -1.0796
  359MOL0     H48428  -0.035   1.029   7.229 -2.1550 -0.6117 -0.3924
  359MOL0     H48429  -0.067   1.275   7.433 -0.2943 -1.7254  2.1709
  359MOL0     H48430   0.027   1.125   7.445 -2.8276 -0.1658  1.3385
  359MOL0     H48431   0.173   1.391   7.503 -0.4357 -0.0065 -0.3845
  359MOL0     H48432   0.051   1.319   7.607 -0.6154 -1.7854 -0.3050
  359MOL0     H48433   0.283   1.238   7.656 -0.7901 -0.4532  1.6361
  359MOL0     H48434   0.202   1.098   7.597 -0.3411  1.3445  2.0752
  359MOL0     H48435   0.391   1.287   7.445 -1.1893  0.2656 -4.3227
  359MOL0     H48436   0.315   1.164   7.366 -1.8045  3.4804  0.2069
  359MOL0     H48437   0.413   0.995   7.523 -0.7425 -0.6031 -2.2145
  359MOL0     H48438   0.509   1.130   7.607 -3.2120 -0.4133  2.9694
  359MOL0     H48439   0.539   1.050   7.324 -0.1360 -2.5339  0.3941
  359MOL0     H48440   0.642   1.164   7.420 -0.1232 -0.4194  3.1802
  359MOL0     H48441   0.607   0.872   7.472 -0.1168  0.0236 -0.3341
  359MOL0     H48442   0.707   0.973   7.571  2.8292 -1.8343 -1.3888
  359MOL0     H48443   0.818   0.833   7.408 -1.0070  0.8529  2.6389
  359MOL0     H48444   0.772   0.925   7.265 -2.6340  0.6237  0.0693
  359MOL0     H48445  -0.015   1.436   7.100 -1.8726  0.7757  1.5115
  359MOL0     H48446  -0.187   1.400   6.949  0.3688 -0.5884 -1.4867
  359MOL0     H48447  -0.682   1.302   6.775 -0.8465  0.5799 -0.0934
  359MOL0     H48448  -0.861   1.165   6.708  0.7430  2.0427 -0.8396
  359MOL0     H48449   0.215   0.034   6.130 -0.6788  0.2903  0.5393
  359MOL0     H48450   0.489   0.063   6.121  0.8277 -0.3154  1.2204
  359MOL0     H48451   0.790   0.180   6.294 -0.6989  0.7120 -1.1463
  359MOL0     H48452   1.017   0.146   6.277 -1.6032 -1.3068  2.8377
  359MOL0     H48453   1.384   0.372   6.424 -1.5252 -1.3714  2.3928
  359MOL0     H48454   1.253   0.496   6.453 -0.8472  2.0831 -2.4298
  359MOL0     H48455   1.363   0.615   6.308 -0.9153  0.0847  0.4719
  359MOL0     H48456   1.279   0.516   6.180  1.9206  0.8784 -1.6893
  359MOL0     H48457   1.465   0.363   6.155 -1.0954  1.4112 -2.1565
  359MOL0     H48458   1.544   0.452   6.292 -0.3875  3.1158  0.0197
  359MOL0     H48459   1.524   0.553   6.008  0.5835 -0.4471 -0.5725
  359MOL0     H48460   1.564   0.646   6.152  0.1241 -0.9333  0.5411
  359MOL0     H48461   1.899   0.393   6.083 -2.4670 -1.7361 -0.8219
  359MOL0     H48462   1.083   0.578   6.290  3.8824 -2.0235 -1.5578
  359MOL0     H48463   0.923   0.719   6.248 -0.0719  1.2566  3.1700
  359MOL0     H48464   0.794   0.640   6.147  1.3869  2.1709 -1.7275
  359MOL0     H48465   0.760   0.683   6.309 -1.5993 -3.0208 -0.0823
  360MOL0     O48466   7.624   5.314   4.204  0.0064 -0.2625  0.2635
  360MOL0     C48467   7.685   5.405   4.153 -0.0439  0.5993  0.1860
  360MOL0     O48468   7.665   5.445   4.023 -0.5010  0.0600  0.2463
  360MOL0     C48469   7.594   5.366   3.942 -0.2232  0.0687  1.2356
  360MOL0     C48470   7.679   5.276   3.868 -0.5506 -0.2630  0.0936
  360MOL0     C48471   7.616   5.191   3.775 -0.0648 -0.1554  0.6537
  360MOL0     C48472   7.485   5.198   3.735 -0.1513  0.0797  0.3221
  360MOL0     O48473   7.421   5.123   3.640 -0.1945  0.0370 -0.2587
  360MOL0     C48474   7.495   5.049   3.539  0.4628 -0.1056 -0.2794
  360MOL0     C48475   7.390   4.974   3.453  0.6856  0.0354 -0.1669
  360MOL0     C48476   7.295   5.064   3.380 -0.6624  0.8780  0.6504
  360MOL0     C48477   7.354   5.160   3.274 -0.6070 -0.2982  0.4255
  360MOL0     C48478   7.393   5.299   3.331 -0.4110  0.6746 -0.2123
  360MOL0     C48479   7.405   5.393   3.216 -0.1351 -0.2702 -1.1774
  360MOL0     C48480   7.521   5.363   3.130 -0.3221  0.6305  0.3037
  360MOL0     C48481   7.519   5.461   3.019 -0.1196 -0.2562 -0.2335
  360MOL0     N48482   7.585   5.425   2.895 -0.2163  0.2879 -0.0170
  360MOL0     C48483   7.708   5.355   2.892 -1.0142  0.2026  0.7916
  360MOL0     C48484   7.714   5.312   2.766  0.3180 -0.0930 -0.4816
  360MOL0     C48485   7.821   5.218   2.710 -0.3824 -0.5419 -0.1206
  360MOL0     C48486   7.747   5.124   2.613  0.6220  0.0138 -0.5066
  360MOL0     C48487   7.825   5.022   2.535  0.5118  0.5731  0.1050
  360MOL0     C48488   7.923   4.921   2.607  0.1083 -0.5846  0.6110
  360MOL0     O48489   8.045   4.983   2.628 -0.3320 -0.9918 -0.0657
  360MOL0     C48490   8.151   4.904   2.665  0.2084 -0.0843  0.7113
  360MOL0     C48491   8.149   4.758   2.681  0.0494 -0.1224 -0.5223
  360MOL0     C48492   8.251   4.690   2.736 -0.6426 -0.6342 -0.5324
  360MOL0     C48493   8.371   4.754   2.781 -0.6659 -0.1349  0.3628
  360MOL0     C48494   8.487   4.675   2.828  0.6440  0.5991 -0.3367
  360MOL0     O48495   8.471   4.543   2.865 -0.2615 -0.1137  0.2741
  360MOL0     C48496   8.584   4.465   2.894 -0.2420 -1.1542 -0.1083
  360MOL0     C48497   8.712   4.517   2.952  0.7554 -0.7528  0.1425
  360MOL0     C48498   8.813   4.423   2.976  0.5854 -0.3929  0.0508
  360MOL0     C48499   8.795   4.288   2.936  0.4008 -0.1958  0.5673
  360MOL0     O48500   8.912   4.210   2.942 -0.2134  0.6340  0.5197
  360MOL0     C48501   8.930   4.101   2.843 -0.1582  0.0699  0.0847
  360MOL0     C48502   9.066   4.039   2.848  0.7940 -0.3111  0.3858
  360MOL0     C48503   9.077   3.933   2.736  0.5339 -0.9875  0.9799
  360MOL0     C48504   9.200   3.841   2.733  0.4337  0.0593 -0.7872
  360MOL0     C48505   9.212   3.745   2.615  0.1068 -0.1894 -0.1343
  360MOL0     C48506   9.118   3.627   2.653 -0.4763 -0.2952 -0.2397
  360MOL0     C48507   9.089   3.559   2.524 -0.9097  1.3571 -0.5475
  360MOL0     C48508   9.010   3.425   2.534  0.4019  0.0049 -0.9082
  360MOL0    Cl48509   9.063   3.322   2.672 -0.0583 -0.5371  0.1528
  360MOL0     C48510   8.673   4.243   2.881  0.6538  0.0513  0.1396
  360MOL0     C48511   8.567   4.330   2.875  0.9390  0.3155  0.5102
  360MOL0     O48512   8.592   4.733   2.815 -0.3209 -0.0661  0.6916
  360MOL0     C48513   8.369   4.894   2.776 -0.0685  0.8074 -0.6124
  360MOL0     C48514   8.260   4.967   2.726 -0.1292  0.6530 -0.1868
  360MOL0     N48515   7.614   5.369   2.693  0.0863  0.0389 -0.0106
  360MOL0     N48516   7.533   5.423   2.772 -0.4268 -0.3695 -0.1383
  360MOL0     C48517   7.409   5.284   3.815 -0.1590  1.1489  0.2485
  360MOL0     C48518   7.462   5.365   3.908 -0.2284 -1.0067  0.3053
  360MOL0     C48519   7.773   5.483   4.237  0.1492  0.2875  0.2104
  360MOL0     C48520   7.852   5.415   4.335 -0.0705  0.8922  1.3374
  360MOL0     C48521   7.945   5.478   4.408 -0.2930  0.5741  0.8906
  360MOL0     C48522   7.956   5.613   4.411  0.1875 -0.1929  0.3081
  360MOL0     O48523   8.039   5.666   4.508 -0.0613 -0.4920 -0.3137
  360MOL0     C48524   8.167   5.718   4.459 -0.0310  1.0111 -0.6214
  360MOL0     C48525   8.287   5.689   4.564 -1.0016 -0.2380  1.1633
  360MOL0     C48526   8.285   5.787   4.677  0.7336  0.1160  0.4710
  360MOL0     C48527   8.413   5.790   4.765  0.3145  0.6305  0.0046
  360MOL0     C48528   8.514   5.889   4.717  0.5203  0.3767 -0.4435
  360MOL0     C48529   8.604   5.964   4.687  0.1568 -0.5591  0.4263
  360MOL0     C48530   7.869   5.685   4.329  0.0666  0.6462 -0.0168
  360MOL0     C48531   7.774   5.620   4.245  0.5534 -0.3954 -0.9096
  360MOL0     C48532   7.672   5.709   4.175  0.4828 -0.5585  0.0319
  360MOL0     H48533   7.785   5.272   3.890 -0.6274 -2.7102  0.2069
  360MOL0     H48534   7.695   5.138   3.723  3.7557  2.9275  2.7814
  360MOL0     H48535   7.556   5.121   3.484  0.4967  0.9394  1.0689
  360MOL0     H48536   7.569   4.990   3.594  2.1948  2.9436  0.8779
  360MOL0     H48537   7.327   4.906   3.512  2.1399  0.4164  1.9412
  360MOL0     H48538   7.438   4.920   3.371 -1.7058  0.6614 -2.0891
  360MOL0     H48539   7.224   5.118   3.445 -2.4257 -1.9171  1.2067
  360MOL0     H48540   7.226   4.997   3.328 -0.1811  1.3709 -0.6629
  360MOL0     H48541   7.438   5.122   3.215 -0.6809  3.0506 -2.0968
  360MOL0     H48542   7.277   5.183   3.200 -0.3769  2.4708  0.9564
  360MOL0     H48543   7.309   5.325   3.394 -1.8614 -1.5877 -1.0963
  360MOL0     H48544   7.490   5.289   3.381 -0.7980 -0.8626  0.2955
  360MOL0     H48545   7.313   5.378   3.160  0.1861 -2.8563 -1.1553
  360MOL0     H48546   7.423   5.490   3.263 -1.5145 -1.3038  1.7226
  360MOL0     H48547   7.511   5.262   3.087  1.5796  0.4029  0.3263
  360MOL0     H48548   7.615   5.367   3.185 -1.9748  1.8402  3.2742
  360MOL0     H48549   7.415   5.484   2.992  0.9799  2.1643 -2.9565
  360MOL0     H48550   7.562   5.555   3.055  0.4902 -0.8276  0.5634
  360MOL0     H48551   7.777   5.327   2.971 -0.8484 -0.7011  0.3511
  360MOL0     H48552   7.897   5.281   2.663  2.5506 -2.6535  1.4655
  360MOL0     H48553   7.876   5.155   2.780 -1.4092 -1.5245 -0.1738
  360MOL0     H48554   7.681   5.063   2.675 -0.9912  1.1006 -1.0854
  360MOL0     H48555   7.678   5.170   2.542 -2.1552 -4.1538 -0.8820
  360MOL0     H48556   7.887   5.084   2.469  1.9248 -0.5170  0.3500
  360MOL0     H48557   7.752   4.964   2.478  0.1439  2.2590 -1.2320
  360MOL0     H48558   7.943   4.838   2.538  2.2272  1.2490 -1.1591
  360MOL0     H48559   7.890   4.873   2.700 -1.7434 -2.5143 -0.9118
  360MOL0     H48560   8.075   4.699   2.627 -1.6968  2.1554 -0.7908
  360MOL0     H48561   8.260   4.582   2.735 -0.2824 -0.6815  2.2748
  360MOL0     H48562   8.719   4.623   2.976 -0.6042 -0.5146 -0.3981
  360MOL0     H48563   8.904   4.456   3.027  0.5632  0.3031 -0.3401
  360MOL0     H48564   8.851   4.031   2.871 -2.7733  3.5502  2.2714
  360MOL0     H48565   8.920   4.150   2.745 -1.6433  0.9125  0.6261
  360MOL0     H48566   9.144   4.112   2.829 -0.4078  0.9629  0.1459
  360MOL0     H48567   9.079   3.991   2.945  1.8297  0.0252  0.4254
  360MOL0     H48568   8.986   3.872   2.735  0.2188 -0.5425 -0.5065
  360MOL0     H48569   9.079   3.981   2.638  0.3476 -1.2878  0.8252
  360MOL0     H48570   9.187   3.780   2.822  2.3567  0.3272 -0.2912
  360MOL0     H48571   9.292   3.899   2.742 -0.3160  1.0395  1.0509
  360MOL0     H48572   9.316   3.712   2.612  0.2944  0.3693  0.1813
  360MOL0     H48573   9.177   3.788   2.521 -1.3226 -3.0961 -1.0804
  360MOL0     H48574   9.152   3.551   2.723 -4.3599 -2.7917 -0.7215
  360MOL0     H48575   9.034   3.663   2.714  1.6884  1.7483  1.7243
  360MOL0     H48576   9.188   3.552   2.477 -0.6957  0.1579  0.0518
  360MOL0     H48577   9.032   3.622   2.455 -3.1928 -0.1941 -0.1937
  360MOL0     H48578   8.909   3.453   2.566  0.6213  1.8803 -1.7788
  360MOL0     H48579   9.003   3.369   2.440 -1.4098 -0.0704 -0.7646
  360MOL0     H48580   8.660   4.137   2.860 -0.0653  0.0699  0.4588
  360MOL0     H48581   8.485   4.282   2.822  2.6136 -1.9717 -0.2152
  360MOL0     H48582   8.449   4.956   2.816  1.8258  0.2444 -3.2360
  360MOL0     H48583   8.254   5.075   2.738 -0.4365  0.8095 -1.5555
  360MOL0     H48584   7.302   5.272   3.797  0.3611 -2.1117 -1.5128
  360MOL0     H48585   7.391   5.431   3.958  0.7489  1.8247 -1.7805
  360MOL0     H48586   7.848   5.307   4.345  1.2390  0.4915 -1.4757
  360MOL0     H48587   8.001   5.419   4.479  0.2017  0.7373  0.6390
  360MOL0     H48588   8.158   5.825   4.437  2.4449  1.5668  0.7312
  360MOL0     H48589   8.200   5.670   4.366 -2.5999 -0.7081 -0.7567
  360MOL0     H48590   8.383   5.713   4.519 -1.5620  1.3160  0.7467
  360MOL0     H48591   8.291   5.588   4.607 -0.5611 -1.5719 -1.7593
  360MOL0     H48592   8.205   5.755   4.744 -1.9210 -1.3431 -3.0746
  360MOL0     H48593   8.258   5.890   4.652 -0.2210  0.4819  2.8103
  360MOL0     H48594   8.389   5.822   4.867 -2.1080 -0.3032 -0.2010
  360MOL0     H48595   8.445   5.686   4.778 -0.6719  0.6588  3.6997
  360MOL0     H48596   8.669   6.043   4.657 -1.2723  0.3980 -0.2847
  360MOL0     H48597   7.870   5.794   4.326 -1.7599  0.6705 -0.8951
  360MOL0     H48598   7.689   5.737   4.071  1.2922 -0.1862  0.2536
  360MOL0     H48599   7.573   5.666   4.188  0.6146 -0.0772  4.3029
  360MOL0     H48600   7.664   5.803   4.231  0.7908 -0.8394  0.5620
  361MOL0     O48601   7.575   0.950   4.960 -0.2097 -0.1765  0.3186
  361MOL0     C48602   7.497   0.894   5.037  0.1517 -0.5807 -0.4356
  361MOL0     O48603   7.520   0.779   5.095  0.3941  0.4137  0.6686
  361MOL0     C48604   7.630   0.746   5.167 -0.2779  0.8672  0.2495
  361MOL0     C48605   7.753   0.814   5.158 -0.2657  0.9846  0.0245
  361MOL0     C48606   7.864   0.760   5.212 -0.3246  0.7447  0.1393
  361MOL0     C48607   7.858   0.653   5.302 -0.4388 -0.4206 -1.4298
  361MOL0     O48608   7.968   0.597   5.351  0.1125  0.0422  0.0402
  361MOL0     C48609   7.979   0.582   5.491  0.4083 -1.3081 -0.2348
  361MOL0     C48610   8.120   0.535   5.521 -1.2623  0.3302  0.7547
  361MOL0     C48611   8.117   0.389   5.471 -0.0143  0.1803  0.2724
  361MOL0     C48612   8.231   0.359   5.378 -0.0992  0.1369 -0.9489
  361MOL0     C48613   8.350   0.304   5.453  0.2241  0.7648  0.0765
  361MOL0     C48614   8.401   0.373   5.585  0.4151  0.2706  1.3909
  361MOL0     C48615   8.538   0.332   5.628 -0.8307  0.9481  0.2803
  361MOL0     C48616   8.532   0.189   5.697 -0.4472  0.5985 -0.0286
  361MOL0     N48617   8.666   0.132   5.695 -0.4540  0.3972 -1.0946
  361MOL0     C48618   8.763   0.164   5.783  0.1081 -0.4842 -0.5940
  361MOL0     C48619   8.872   0.104   5.743  0.1672  0.4218  1.1623
  361MOL0     C48620   9.014   0.097   5.809  0.7800 -0.2169 -0.0891
  361MOL0     C48621   9.093   0.224   5.782  0.1437 -0.5243 -0.4833
  361MOL0     C48622   9.233   0.212   5.839 -0.4600 -0.5720  0.5231
  361MOL0     C48623   9.326   0.337   5.827 -0.6787 -0.4699  0.2964
  361MOL0     O48624   9.433   0.344   5.927  0.1835  0.5095 -0.0331
  361MOL0     C48625   9.515   0.453   5.941 -0.1494  0.6079 -0.4930
  361MOL0     C48626   9.504   0.574   5.872 -0.2554  0.1864 -0.5213
  361MOL0     C48627   9.590   0.681   5.892 -1.0953  0.0463  1.1388
  361MOL0     C48628   9.697   0.674   5.986 -0.6005  0.2889  0.4111
  361MOL0     C48629   9.784   0.790   6.002 -0.1021 -0.3506 -0.0996
  361MOL0     O48630   9.881   0.780   6.098 -0.1382 -0.0239  0.5389
  361MOL0     C48631   9.983   0.871   6.099  1.4018 -0.1804 -0.2561
  361MOL0     C48632  10.082   0.882   5.996 -0.4711 -0.4232  0.3915
  361MOL0     C48633  10.174   0.977   6.001  0.0997 -0.1462 -0.3281
  361MOL0     C48634  10.178   1.078   6.112 -0.3565  1.1023 -0.3942
  361MOL0     O48635  10.270   1.179   6.137  0.0777  0.6993 -0.0804
  361MOL0     C48636  10.360   1.209   6.029  0.2445  0.8205  0.7091
  361MOL0     C48637  10.460   1.313   6.065  0.8581  0.0535 -0.2017
  361MOL0     C48638  10.554   1.344   5.957  0.5598  0.6702 -0.9829
  361MOL0     C48639  10.673   1.238   5.961 -0.0462 -0.3553  0.9119
  361MOL0     C48640  10.808   1.297   5.916  0.0076 -0.4855 -1.0995
  361MOL0     C48641  10.897   1.374   6.017  0.1035  0.1219 -0.5157
  361MOL0     C48642  11.040   1.396   5.964  0.7360  0.2871 -0.2642
  361MOL0     C48643  11.124   1.477   6.069  0.1587 -0.0780 -0.3386
  361MOL0    Cl48644  11.067   1.647   6.063 -0.1501  0.3632  0.2517
  361MOL0     C48645  10.084   1.062   6.206  0.4088 -0.0267  0.4865
  361MOL0     C48646   9.974   0.972   6.192  0.3679  0.4301  0.4435
  361MOL0     O48647   9.764   0.895   5.927 -0.4391  0.3420 -0.2350
  361MOL0     C48648   9.719   0.545   6.052 -1.2171  0.3675  1.2173
  361MOL0     C48649   9.629   0.439   6.032  0.9102  0.1821  0.4820
  361MOL0     N48650   8.843   0.036   5.628  0.1847  0.4397  0.2521
  361MOL0     N48651   8.722   0.047   5.604 -0.2045  0.4240  0.0700
  361MOL0     C48652   7.738   0.592   5.316  0.0399 -0.5204  0.0283
  361MOL0     C48653   7.624   0.634   5.249 -0.0762  0.0452  0.7324
  361MOL0     C48654   7.355   0.947   5.038  0.8069  0.4308 -0.3273
  361MOL0     C48655   7.297   0.986   4.913  0.3689 -0.0672 -0.3273
  361MOL0     C48656   7.165   1.012   4.888 -0.2295 -0.4576 -0.8812
  361MOL0     C48657   7.080   1.019   4.998 -0.3027 -0.2293 -0.2761
  361MOL0     O48658   6.945   1.063   4.995  0.3572  0.7048  0.3006
  361MOL0     C48659   6.884   1.054   4.870  0.4536  0.2258  0.2307
  361MOL0     C48660   6.731   1.077   4.865  0.6524  0.9894 -1.2913
  361MOL0     C48661   6.639   0.989   4.965 -0.1880 -0.3004 -0.3363
  361MOL0     C48662   6.486   0.974   4.937  0.1875 -0.5967  0.2374
  361MOL0     C48663   6.466   0.907   4.812 -0.2364  0.1445 -0.4753
  361MOL0     C48664   6.418   0.862   4.709 -0.0110  0.0942 -0.4801
  361MOL0     C48665   7.129   0.990   5.132 -0.0052  0.9189 -0.2078
  361MOL0     C48666   7.259   0.936   5.152  0.7903  0.9677 -0.2189
  361MOL0     C48667   7.310   0.890   5.281  0.2814  0.2659 -0.0021
  361MOL0     H48668   7.774   0.897   5.091  0.2466  1.0657  0.2857
  361MOL0     H48669   7.960   0.805   5.191  1.2308 -1.7219  1.4529
  361MOL0     H48670   7.970   0.680   5.538  0.4659 -0.8446 -1.1798
  361MOL0     H48671   7.900   0.519   5.534  0.7546  0.5453  3.5278
  361MOL0     H48672   8.149   0.535   5.626 -0.9708  0.3396  0.6754
  361MOL0     H48673   8.198   0.591   5.469 -1.1593 -0.2921  0.2324
  361MOL0     H48674   8.030   0.362   5.411 -1.7113  2.1581  1.6857
  361MOL0     H48675   8.121   0.322   5.558 -1.0500 -2.3115 -1.4787
  361MOL0     H48676   8.200   0.282   5.307 -0.8007  0.0627 -0.5694
  361MOL0     H48677   8.268   0.443   5.319  0.5784  0.3487 -0.2460
  361MOL0     H48678   8.321   0.200   5.474 -0.9540  1.6368  3.3901
  361MOL0     H48679   8.425   0.303   5.373 -1.8358 -1.2712 -2.0175
  361MOL0     H48680   8.407   0.480   5.562 -4.3022  1.2033  3.3807
  361MOL0     H48681   8.327   0.350   5.662  0.7003 -1.8808  1.0786
  361MOL0     H48682   8.582   0.397   5.704 -1.9831 -1.2384  3.0504
  361MOL0     H48683   8.593   0.326   5.534 -1.5257 -1.0853 -0.0442
  361MOL0     H48684   8.492   0.200   5.799 -3.4640  0.9616 -1.1493
  361MOL0     H48685   8.465   0.123   5.641 -0.4823  0.0447  0.6577
  361MOL0     H48686   8.745   0.224   5.872  3.3152 -0.9356  0.5198
  361MOL0     H48687   9.007   0.083   5.917  3.1381 -0.5530  0.0715
  361MOL0     H48688   9.053   0.006   5.765  2.4179 -1.2694  3.1810
  361MOL0     H48689   9.088   0.250   5.675 -2.5169 -0.0101 -0.3047
  361MOL0     H48690   9.053   0.307   5.841  0.8640 -0.8051  0.4247
  361MOL0     H48691   9.282   0.125   5.794  0.8531  1.2770 -1.8989
  361MOL0     H48692   9.222   0.194   5.946  2.7818  0.4883  1.1517
  361MOL0     H48693   9.263   0.427   5.824  1.6013  1.2045 -2.4872
  361MOL0     H48694   9.371   0.332   5.728  1.5910  1.5679  1.1335
  361MOL0     H48695   9.427   0.579   5.795 -3.4384 -0.5406  2.3618
  361MOL0     H48696   9.576   0.770   5.831  0.0245 -0.9848 -0.7401
  361MOL0     H48697  10.078   0.816   5.909  0.6239  0.5422 -0.4080
  361MOL0     H48698  10.242   0.971   5.917 -1.5301  0.2626 -1.7422
  361MOL0     H48699  10.402   1.110   6.009 -4.1189 -1.3394  0.9966
  361MOL0     H48700  10.302   1.246   5.944  1.0253  1.1605  0.3146
  361MOL0     H48701  10.405   1.407   6.077 -0.1708 -0.6356  0.6280
  361MOL0     H48702  10.506   1.289   6.161 -1.3315 -1.3465  0.5669
  361MOL0     H48703  10.499   1.348   5.862  0.6907 -1.6040 -1.2094
  361MOL0     H48704  10.613   1.432   5.979 -0.9884  0.9752  2.5437
  361MOL0     H48705  10.651   1.163   5.884 -0.2053  0.3526  0.2546
  361MOL0     H48706  10.671   1.180   6.053 -2.8527 -0.2603  1.0050
  361MOL0     H48707  10.795   1.370   5.836  3.8983 -1.3039 -2.7498
  361MOL0     H48708  10.863   1.226   5.852 -0.8697  0.2234 -2.7067
  361MOL0     H48709  10.856   1.474   6.034 -0.7101 -0.1852 -0.6340
  361MOL0     H48710  10.900   1.316   6.110 -0.5797 -1.8645 -1.6853
  361MOL0     H48711  11.027   1.459   5.876 -0.1021  0.0729 -0.2994
  361MOL0     H48712  11.083   1.297   5.947 -1.4837 -1.0515  1.3112
  361MOL0     H48713  11.112   1.426   6.165 -3.1478  1.2879  0.1073
  361MOL0     H48714  11.230   1.477   6.041  1.0085  0.3495  2.5773
  361MOL0     H48715  10.076   1.140   6.282 -1.0472 -0.7222  1.0879
  361MOL0     H48716   9.892   0.963   6.263 -1.6322 -1.0906 -1.8913
  361MOL0     H48717   9.804   0.511   6.111 -0.1032 -1.2069 -1.1549
  361MOL0     H48718   9.637   0.338   6.070 -1.1774 -0.1977  0.0176
  361MOL0     H48719   7.723   0.518   5.394  2.2358  1.1716  2.2007
  361MOL0     H48720   7.525   0.590   5.251  0.6897 -2.1015 -1.7171
  361MOL0     H48721   7.371   0.980   4.834  1.2161 -1.3049  0.5033
  361MOL0     H48722   7.120   1.039   4.794  1.5560 -0.3877 -1.7468
  361MOL0     H48723   6.902   0.959   4.818  2.1131  1.5809 -1.8772
  361MOL0     H48724   6.930   1.129   4.804 -0.0030 -0.3548 -0.7803
  361MOL0     H48725   6.691   1.061   4.764 -1.5908  0.8214 -0.4372
  361MOL0     H48726   6.710   1.182   4.884 -1.5357  1.0562 -3.6301
  361MOL0     H48727   6.638   1.036   5.064  0.1997  0.1690 -0.5508
  361MOL0     H48728   6.693   0.895   4.983 -1.2940 -0.3919  3.6788
  361MOL0     H48729   6.440   0.906   5.010 -3.2116 -0.9707 -1.9995
  361MOL0     H48730   6.429   1.067   4.923  3.1900  1.1562 -1.1641
  361MOL0     H48731   6.359   0.817   4.632 -0.3939 -3.5907  1.7135
  361MOL0     H48732   7.074   1.008   5.223  0.4462  1.8313 -0.1038
  361MOL0     H48733   7.245   0.884   5.369  1.9925 -3.2614  1.2370
  361MOL0     H48734   7.341   0.785   5.276  5.1674  1.4496 -0.1143
  361MOL0     H48735   7.405   0.942   5.293  0.2656  0.4070 -0.4869
  362MOL0     O48736   2.031   0.070  10.313 -0.0036  0.3308 -0.3599
  362MOL0     C48737   1.983   0.169  10.375 -0.2774  0.0324 -0.3208
  362MOL0     O48738   2.027   0.216  10.494  0.3696  0.5965 -0.3498
  362MOL0     C48739   2.125   0.130  10.553  0.3960 -0.2497 -0.5721
  362MOL0     C48740   2.086   0.020  10.628  0.3994  0.7834  1.3383
  362MOL0     C48741   2.183  -0.043  10.700 -0.1308 -0.0849 -0.1592
  362MOL0     C48742   2.318  -0.012  10.699 -0.2568  0.0067  0.0728
  362MOL0     O48743   2.422  -0.091  10.750 -0.2030  0.3569  0.6175
  362MOL0     C48744   2.409  -0.167  10.869 -0.3054 -0.0446 -0.2485
  362MOL0     C48745   2.545  -0.177  10.934 -0.0251  0.6254  0.0745
  362MOL0     C48746   2.607  -0.040  10.966  0.0578  0.4123  0.1025
  362MOL0     C48747   2.725  -0.039  11.074  0.1988 -0.2898  0.3958
  362MOL0     C48748   2.861  -0.014  11.009 -0.5631 -0.5565 -0.1871
  362MOL0     C48749   2.987  -0.031  11.099  0.6726 -0.1615 -1.1700
  362MOL0     C48750   3.113  -0.014  11.004 -0.7922  0.0280 -0.4988
  362MOL0     C48751   3.124  -0.125  10.897  0.3576  0.3506 -0.2163
  362MOL0     N48752   3.261  -0.177  10.865  0.0738  0.2851 -0.0623
  362MOL0     C48753   3.358  -0.116  10.782 -0.9878  0.0416  0.1141
  362MOL0     C48754   3.466  -0.191  10.778 -0.5048 -0.7480  0.6630
  362MOL0     C48755   3.590  -0.178  10.695  0.2715 -0.1809 -0.4712
  362MOL0     C48756   3.716  -0.129  10.776 -0.1818  0.1077  0.0337
  362MOL0     C48757   3.832  -0.099  10.681 -0.2636 -0.1060 -0.1555
  362MOL0     C48758   3.970  -0.109  10.745  0.4429  0.4736 -1.3501
  362MOL0     O48759   3.976  -0.012  10.857  0.0324 -0.3631  0.6446
  362MOL0     C48760   4.100   0.033  10.902  1.1131 -1.4580  0.3544
  362MOL0     C48761   4.233   0.010  10.854 -0.0319 -0.0468  0.1505
  362MOL0     C48762   4.343   0.072  10.914 -0.5062  0.2710 -0.1996
  362MOL0     C48763   4.327   0.168  11.018  1.0743 -0.7494 -0.5383
  362MOL0     C48764   4.437   0.255  11.073  0.7115  0.7288  0.2119
  362MOL0     O48765   4.564   0.218  11.034 -0.3260  0.2777 -0.3752
  362MOL0     C48766   4.664   0.293  11.090  0.0570 -1.1048  1.1876
  362MOL0     C48767   4.707   0.286  11.225 -0.2411 -0.0838 -0.4385
  362MOL0     C48768   4.815   0.359  11.273  0.0579 -0.0786 -0.2513
  362MOL0     C48769   4.891   0.441  11.184  0.6984  0.6630  0.1973
  362MOL0     O48770   4.998   0.497  11.238  0.4494  0.0136  0.1553
  362MOL0     C48771   5.079   0.593  11.165 -0.7456 -0.6171 -0.4541
  362MOL0     C48772   5.225   0.602  11.213  1.1331  0.2763 -0.2510
  362MOL0     C48773   5.242   0.587  11.368 -0.1848 -0.5142 -0.2874
  362MOL0     C48774   5.243   0.723  11.436  0.7757 -0.4155 -0.5622
  362MOL0     C48775   5.297   0.729  11.579  0.5199  0.7331  0.4969
  362MOL0     C48776   5.312   0.864  11.648 -0.3831  0.5955  0.3221
  362MOL0     C48777   5.456   0.915  11.646  0.0128  0.0051 -0.1186
  362MOL0     C48778   5.448   1.059  11.683  0.1131 -0.0969 -0.6110
  362MOL0    Cl48779   5.319   1.109  11.805 -0.1202  0.1601  0.0893
  362MOL0     C48780   4.850   0.446  11.046 -0.2208 -0.7577  0.0229
  362MOL0     C48781   4.740   0.380  11.001 -0.0900 -0.0087  0.1744
  362MOL0     O48782   4.400   0.360  11.117 -0.0892  0.1413  0.5064
  362MOL0     C48783   4.195   0.181  11.071 -0.1771  0.9909 -1.0469
  362MOL0     C48784   4.083   0.115  11.018  0.4665 -0.0673  0.5363
  362MOL0     N48785   3.440  -0.298  10.857  0.1275  0.1393 -0.5460
  362MOL0     N48786   3.320  -0.300  10.896 -0.1393 -0.1047  0.0889
  362MOL0     C48787   2.349   0.097  10.614 -0.0340 -0.0417  0.1286
  362MOL0     C48788   2.258   0.170  10.551 -0.0601 -0.0806 -0.0876
  362MOL0     C48789   1.865   0.244  10.327  0.3705  0.5119  0.0983
  362MOL0     C48790   1.815   0.354  10.402  0.4660 -0.6139  0.0961
  362MOL0     C48791   1.708   0.424  10.359  0.3472 -0.7603 -0.1295
  362MOL0     C48792   1.651   0.399  10.237  0.3661 -0.8297 -0.1838
  362MOL0     O48793   1.540   0.466  10.186 -0.0977 -1.1615  0.4347
  362MOL0     C48794   1.509   0.593  10.244  0.4976  0.3733 -0.3125
  362MOL0     C48795   1.400   0.670  10.165 -0.9548  0.0419  0.2662
  362MOL0     C48796   1.254   0.633  10.212  0.6574 -0.2021  0.4488
  362MOL0     C48797   1.146   0.679  10.118  0.7359  0.1390  0.2346
  362MOL0     C48798   1.149   0.827  10.110 -0.1145  0.4135 -0.3125
  362MOL0     C48799   1.143   0.946  10.085  0.6345  0.6468 -0.1883
  362MOL0     C48800   1.692   0.287  10.169 -0.0841 -0.4925 -0.6602
  362MOL0     C48801   1.793   0.204  10.217 -0.4138  0.6251  0.6562
  362MOL0     C48802   1.821   0.074  10.149 -0.2514 -0.6779  0.0212
  362MOL0     H48803   1.988  -0.024  10.612 -0.5282  3.0796  0.2814
  362MOL0     H48804   2.162  -0.130  10.762 -0.2289  0.1315  0.1185
  362MOL0     H48805   2.348  -0.107  10.937  1.6240  3.0622 -1.0455
  362MOL0     H48806   2.368  -0.264  10.840  1.7351 -0.2503 -2.8325
  362MOL0     H48807   2.613  -0.236  10.871 -2.4014  0.1726 -2.2701
  362MOL0     H48808   2.530  -0.224  11.031  0.2253  2.3241  0.9782
  362MOL0     H48809   2.527   0.022  11.008 -1.1246 -2.5459  2.5827
  362MOL0     H48810   2.644   0.010  10.875  0.2752  3.3502  1.6678
  362MOL0     H48811   2.707   0.043  11.145  0.7169 -0.5268  0.8068
  362MOL0     H48812   2.718  -0.128  11.137 -0.7184 -0.0690  0.6236
  362MOL0     H48813   2.874  -0.080  10.922  1.2015  3.2832 -3.0942
  362MOL0     H48814   2.871   0.084  10.963  0.8470 -1.6082 -2.2667
  362MOL0     H48815   2.980   0.042  11.180 -0.2936 -0.8246 -0.6248
  362MOL0     H48816   2.994  -0.135  11.134  0.2740 -0.5590 -2.2427
  362MOL0     H48817   3.205  -0.026  11.062  1.1865  1.8679 -3.0555
  362MOL0     H48818   3.117   0.087  10.961 -0.6253 -0.4877 -1.7010
  362MOL0     H48819   3.068  -0.211  10.934  3.6661 -1.4754  0.9195
  362MOL0     H48820   3.068  -0.087  10.811 -0.7308  2.8244  1.4561
  362MOL0     H48821   3.347  -0.024  10.726 -1.7717 -1.0976 -1.7066
  362MOL0     H48822   3.610  -0.278  10.657  2.9458  0.0677  0.0452
  362MOL0     H48823   3.570  -0.100  10.622 -0.1641  0.9101  0.7684
  362MOL0     H48824   3.689  -0.042  10.838 -2.7391 -0.0480 -0.7763
  362MOL0     H48825   3.747  -0.211  10.841  0.5174  1.0885  0.9834
  362MOL0     H48826   3.834   0.005  10.649  2.7547 -0.5070 -1.6908
  362MOL0     H48827   3.835  -0.174  10.601 -6.5475 -0.4369 -0.5496
  362MOL0     H48828   4.049  -0.083  10.674  2.0822  3.1325  1.1957
  362MOL0     H48829   3.975  -0.210  10.787 -1.7167 -1.0251 -4.2934
  362MOL0     H48830   4.246  -0.073  10.785  2.1344 -0.9296  1.5309
  362MOL0     H48831   4.435   0.032  10.872 -1.5406 -3.0232  0.3956
  362MOL0     H48832   4.666   0.216  11.297 -0.2677  0.5222  0.1521
  362MOL0     H48833   4.858   0.331  11.369  1.0635 -1.6998 -1.1228
  362MOL0     H48834   5.086   0.570  11.058 -0.4561  3.2812 -1.4321
  362MOL0     H48835   5.052   0.697  11.184  1.9453  0.3074 -1.1044
  362MOL0     H48836   5.273   0.518  11.163  1.3443 -0.2693  0.8335
  362MOL0     H48837   5.263   0.698  11.176 -0.4646  0.1137 -2.5239
  362MOL0     H48838   5.162   0.524  11.409 -0.2206  0.6537  1.5312
  362MOL0     H48839   5.337   0.537  11.391  0.9637  1.1553 -1.2731
  362MOL0     H48840   5.139   0.758  11.440  0.0518 -2.1095 -2.7397
  362MOL0     H48841   5.293   0.799  11.376 -2.7508  2.1565 -0.5833
  362MOL0     H48842   5.396   0.683  11.579 -0.8425 -2.6182  2.4466
  362MOL0     H48843   5.233   0.660  11.635 -0.1405  0.4802 -0.5435
  362MOL0     H48844   5.242   0.943  11.620  1.6005  2.4071  0.2326
  362MOL0     H48845   5.285   0.833  11.749 -0.3770 -1.7923 -0.3284
  362MOL0     H48846   5.498   0.903  11.545  1.4277  2.8397  0.0650
  362MOL0     H48847   5.518   0.855  11.713  1.9156 -0.8220 -2.4564
  362MOL0     H48848   5.548   1.095  11.708 -0.0916 -0.5411  0.9898
  362MOL0     H48849   5.420   1.114  11.593  2.8399  0.5994 -1.1224
  362MOL0     H48850   4.904   0.491  10.964 -0.1553 -1.2383 -0.1980
  362MOL0     H48851   4.722   0.383  10.894 -2.2283 -0.7461  0.4564
  362MOL0     H48852   4.179   0.258  11.146 -0.0833  1.2085 -1.2510
  362MOL0     H48853   3.986   0.136  11.060  1.6994  0.3783  3.4192
  362MOL0     H48854   2.451   0.133  10.609 -0.3257  0.8796  0.5413
  362MOL0     H48855   2.297   0.254  10.493  2.2170  0.6278  2.2603
  362MOL0     H48856   1.862   0.379  10.497  0.0648 -3.0146  1.0160
  362MOL0     H48857   1.667   0.498  10.428 -1.8632  0.1461 -2.2700
  362MOL0     H48858   1.592   0.661  10.220  0.2889  1.6652  2.2744
  362MOL0     H48859   1.492   0.591  10.352  1.8492 -0.3975 -0.0793
  362MOL0     H48860   1.415   0.642  10.060 -1.9131 -0.8733  0.3579
  362MOL0     H48861   1.426   0.776  10.169  2.5122 -0.5970 -1.5293
  362MOL0     H48862   1.228   0.668  10.312 -2.8440 -0.4651 -0.2400
  362MOL0     H48863   1.245   0.524  10.208 -1.4334 -0.0336 -1.8443
  362MOL0     H48864   1.159   0.634  10.020  0.9103  0.7031 -0.0069
  362MOL0     H48865   1.048   0.643  10.153 -0.1249  1.4747 -0.7000
  362MOL0     H48866   1.132   1.051  10.072 -1.7687  0.7562  1.9131
  362MOL0     H48867   1.632   0.274  10.079 -0.2612  1.3217 -0.8503
  362MOL0     H48868   1.737   0.056  10.082  0.7535  0.4877 -1.6098
  362MOL0     H48869   1.909   0.085  10.086 -0.8236  2.5528 -0.3724
  362MOL0     H48870   1.823  -0.009  10.220 -1.5753 -0.6573  0.1004
  363MOL0     O48871   5.988   3.185  10.368  0.0842 -0.0337 -0.1522
  363MOL0     C48872   5.930   3.282  10.309 -0.5763  0.0888  0.7692
  363MOL0     O48873   5.997   3.374  10.236 -0.1497 -0.2805  0.2206
  363MOL0     C48874   6.133   3.357  10.225  0.3982  0.7552  0.4661
  363MOL0     C48875   6.182   3.260  10.133 -1.5195 -0.6085 -0.2885
  363MOL0     C48876   6.317   3.221  10.129 -0.5086 -1.0635 -0.0296
  363MOL0     C48877   6.413   3.297  10.193  0.0773 -0.1871 -0.3056
  363MOL0     O48878   6.539   3.261  10.156  0.3354 -0.0957 -0.5771
  363MOL0     C48879   6.643   3.344  10.208 -0.4079  0.8770 -0.0786
  363MOL0     C48880   6.769   3.279  10.156  0.2960 -0.5977  0.4437
  363MOL0     C48881   6.904   3.359  10.173 -0.6490 -0.5967  1.1565
  363MOL0     C48882   7.031   3.293  10.120  0.4244  0.1585  0.7569
  363MOL0     C48883   7.149   3.366  10.164  0.1948 -0.3067  0.2790
  363MOL0     C48884   7.276   3.317  10.104 -0.4249 -0.6527  0.1973
  363MOL0     C48885   7.409   3.379  10.156  0.1709  0.2309  0.6186
  363MOL0     C48886   7.427   3.347  10.304 -0.2836 -0.3939  0.9248
  363MOL0     N48887   7.533   3.428  10.358 -0.1687 -0.2493 -0.1961
  363MOL0     C48888   7.661   3.420  10.339  0.1144  0.0878  0.5585
  363MOL0     C48889   7.728   3.514  10.404  0.2436 -1.1626  0.3928
  363MOL0     C48890   7.884   3.535  10.409  0.2553 -0.5340  0.0288
  363MOL0     C48891   7.934   3.654  10.319  0.6002  0.0886  0.4459
  363MOL0     C48892   8.090   3.659  10.310 -0.0669  0.0876 -0.5392
  363MOL0     C48893   8.144   3.797  10.263 -0.2486  0.0433 -0.8059
  363MOL0     O48894   8.275   3.768  10.203 -0.0231  0.1869  0.2164
  363MOL0     C48895   8.385   3.784  10.283  0.4241  0.6760  0.1165
  363MOL0     C48896   8.381   3.789  10.425  0.8247 -0.1181 -0.1682
  363MOL0     C48897   8.494   3.814  10.486  0.7841 -0.6859  0.2117
  363MOL0     C48898   8.619   3.820  10.427  0.3499 -0.1083  1.1884
  363MOL0     C48899   8.743   3.820  10.500 -0.4505  1.1207  0.7423
  363MOL0     O48900   8.860   3.866  10.442  0.4933 -0.0124 -0.1359
  363MOL0     C48901   8.966   3.884  10.523  0.2069  0.2481 -0.4969
  363MOL0     C48902   9.062   3.785  10.511  0.8324  0.5826 -0.3385
  363MOL0     C48903   9.187   3.785  10.582 -0.2288 -0.3960  0.9923
  363MOL0     C48904   9.211   3.889  10.679 -0.1247  0.4170 -0.2124
  363MOL0     O48905   9.328   3.885  10.749 -0.0050  0.2394  0.0417
  363MOL0     C48906   9.354   3.978  10.853 -0.4476 -0.0126  0.0651
  363MOL0     C48907   9.506   4.003  10.857  0.2117  0.5664 -0.0777
  363MOL0     C48908   9.587   3.883  10.900 -0.5352 -0.4248  0.2495
  363MOL0     C48909   9.736   3.918  10.915  0.1612 -0.1766  0.0498
  363MOL0     C48910   9.828   3.864  10.807  0.5739 -1.1429  0.0442
  363MOL0     C48911   9.812   3.913  10.660 -0.4528 -0.2807  0.2518
  363MOL0     C48912   9.922   3.866  10.551  0.2089 -0.6465 -0.8071
  363MOL0     C48913   9.867   3.853  10.413 -0.4346 -0.6882 -0.2439
  363MOL0    Cl48914   9.828   4.017  10.355  0.2152  0.2341 -0.5087
  363MOL0     C48915   9.103   3.977  10.696  0.0360 -0.0853  0.1014
  363MOL0     C48916   8.980   3.973  10.629  0.9569 -0.1657  0.2410
  363MOL0     O48917   8.737   3.781  10.616 -0.0053 -0.8583 -0.3738
  363MOL0     C48918   8.623   3.825  10.288  0.0845 -0.0643 -0.6735
  363MOL0     C48919   8.501   3.820  10.217 -0.7629  0.3505  0.2853
  363MOL0     N48920   7.631   3.593  10.459 -0.6285 -0.2238 -0.8622
  363MOL0     N48921   7.512   3.534  10.437 -0.2918  0.5464 -0.0388
  363MOL0     C48922   6.369   3.402  10.277  1.0669 -0.1185  1.0420
  363MOL0     C48923   6.233   3.427  10.296  0.5746  0.4775 -0.0543
  363MOL0     C48924   5.781   3.289  10.311  0.9410  0.3627 -0.2666
  363MOL0     C48925   5.719   3.360  10.200  0.4216 -0.1878 -0.5815
  363MOL0     C48926   5.574   3.353  10.188  0.1335 -0.6016  0.1000
  363MOL0     C48927   5.498   3.285  10.273 -0.6317  0.3750 -0.6280
  363MOL0     O48928   5.369   3.263  10.257 -0.9144 -0.2207  0.4758
  363MOL0     C48929   5.306   3.276  10.139  0.4291  0.2156  0.2442
  363MOL0     C48930   5.150   3.269  10.129 -0.3638 -0.4263 -0.4517
  363MOL0     C48931   5.122   3.121  10.112 -0.0062  0.1492  0.2532
  363MOL0     C48932   4.972   3.092  10.158  0.3391  0.7704  1.1320
  363MOL0     C48933   4.869   3.159  10.078 -0.2896 -0.6049  0.2670
  363MOL0     C48934   4.784   3.220  10.011  0.6135  0.9222 -0.2321
  363MOL0     C48935   5.560   3.236  10.381  0.2129 -0.0667 -0.4701
  363MOL0     C48936   5.695   3.229  10.404 -0.5460 -0.5847 -0.5432
  363MOL0     C48937   5.737   3.195  10.540 -1.0520 -0.1283 -0.2784
  363MOL0     H48938   6.106   3.221  10.067 -0.2258 -2.4801 -0.7484
  363MOL0     H48939   6.342   3.126  10.083 -0.3291 -0.6735 -0.7479
  363MOL0     H48940   6.631   3.446  10.170  1.6437  0.7215 -1.2871
  363MOL0     H48941   6.646   3.344  10.318 -5.1669 -0.7298  0.2860
  363MOL0     H48942   6.752   3.250  10.052 -3.1725 -1.9055  1.2510
  363MOL0     H48943   6.780   3.183  10.208 -1.4314 -0.6513  0.7594
  363MOL0     H48944   6.911   3.388  10.278 -1.9646  1.3589  0.7726
  363MOL0     H48945   6.890   3.453  10.118  0.5109 -1.4482 -0.6932
  363MOL0     H48946   7.036   3.189  10.155 -2.5012 -2.0166 -4.2542
  363MOL0     H48947   7.031   3.300  10.011 -1.0839  0.3660  0.7418
  363MOL0     H48948   7.149   3.468  10.127  2.0269  0.3364  1.8845
  363MOL0     H48949   7.147   3.370  10.273  0.2973  4.4851  0.2756
  363MOL0     H48950   7.283   3.209  10.119 -1.3830 -0.7514 -0.0374
  363MOL0     H48951   7.274   3.331   9.995  3.3980  0.5940  0.1454
  363MOL0     H48952   7.420   3.486  10.137  1.0095  0.0819  0.2441
  363MOL0     H48953   7.497   3.337  10.106 -1.8284 -0.7142 -2.4163
  363MOL0     H48954   7.332   3.364  10.356 -1.3854 -0.6028 -0.9068
  363MOL0     H48955   7.455   3.242  10.313 -0.5378 -0.6011 -0.4976
  363MOL0     H48956   7.709   3.347  10.275  1.8523  1.1139  0.5986
  363MOL0     H48957   7.908   3.566  10.512  1.3516  0.0134 -0.3763
  363MOL0     H48958   7.934   3.440  10.389 -0.9730 -1.3804  0.8659
  363MOL0     H48959   7.891   3.631  10.221  0.4262  0.3546  0.4610
  363MOL0     H48960   7.886   3.748  10.346 -1.8113  0.8209 -4.9759
  363MOL0     H48961   8.134   3.576  10.255 -1.0772 -0.3367 -0.7343
  363MOL0     H48962   8.117   3.643  10.415 -2.0597  1.6623  0.3041
  363MOL0     H48963   8.145   3.868  10.346  0.2544 -1.4673  0.5403
  363MOL0     H48964   8.072   3.831  10.188 -2.5184 -2.5892 -0.0048
  363MOL0     H48965   8.286   3.785  10.477  1.1044 -1.3949  0.2862
  363MOL0     H48966   8.488   3.827  10.593 -1.3010  2.4068 -0.1383
  363MOL0     H48967   9.043   3.710  10.435 -2.0428  0.8096  0.0501
  363MOL0     H48968   9.256   3.703  10.565 -0.1587  0.1509 -1.7001
  363MOL0     H48969   9.316   4.078  10.832  1.4473  0.7309  0.0054
  363MOL0     H48970   9.316   3.946  10.951 -1.0953  1.1147  0.1976
  363MOL0     H48971   9.538   4.032  10.756 -0.2614 -1.3559 -0.8180
  363MOL0     H48972   9.542   4.076  10.930  2.8012  0.4577 -1.1485
  363MOL0     H48973   9.544   3.839  10.991  1.0924 -0.8283  0.8510
  363MOL0     H48974   9.583   3.797  10.831  1.3726 -2.5615  2.6121
  363MOL0     H48975   9.762   3.877  11.013  4.8791 -0.6735 -1.1760
  363MOL0     H48976   9.744   4.027  10.921  0.9015 -0.2752  4.3305
  363MOL0     H48977   9.807   3.756  10.812 -3.4562 -0.4971  4.0222
  363MOL0     H48978   9.929   3.897  10.832  0.2857 -0.3767  0.2132
  363MOL0     H48979   9.716   3.885  10.616  1.3525 -0.4182 -4.1333
  363MOL0     H48980   9.809   4.022  10.666  0.0978 -0.1997 -0.6332
  363MOL0     H48981   9.963   3.768  10.574 -0.0055 -0.6814 -0.5731
  363MOL0     H48982  10.006   3.936  10.551 -0.1494 -0.1936  0.2198
  363MOL0     H48983   9.955   3.831  10.351 -1.0569 -2.1270 -0.6591
  363MOL0     H48984   9.783   3.783  10.410  1.4654 -3.4446  3.1600
  363MOL0     H48985   9.100   4.043  10.782 -1.4720 -1.1232  0.8875
  363MOL0     H48986   8.890   4.030  10.647 -0.3696 -2.1738  0.2784
  363MOL0     H48987   8.717   3.839  10.236  1.6503 -0.8546  1.7837
  363MOL0     H48988   8.507   3.831  10.109 -1.2995  3.4473  0.4838
  363MOL0     H48989   6.441   3.464  10.330  0.4441  2.3835 -0.8660
  363MOL0     H48990   6.197   3.509  10.358  3.0757  3.1912 -1.9029
  363MOL0     H48991   5.783   3.405  10.125  2.6497 -2.4790 -0.2169
  363MOL0     H48992   5.547   3.396  10.092  3.1176 -0.7442 -0.8835
  363MOL0     H48993   5.348   3.213  10.060 -1.1011  2.8543 -2.9386
  363MOL0     H48994   5.339   3.372  10.099  1.2616 -0.1976 -0.1000
  363MOL0     H48995   5.116   3.325  10.041 -0.4950  0.7460  0.3268
  363MOL0     H48996   5.100   3.318  10.213  1.8283  0.0206  0.6599
  363MOL0     H48997   5.183   3.055  10.175  1.5341 -2.0409 -3.2786
  363MOL0     H48998   5.140   3.087  10.010  0.4896 -0.1408  0.4363
  363MOL0     H48999   4.947   2.986  10.142 -2.9225  1.4869  0.8899
  363MOL0     H49000   4.964   3.107  10.266 -0.1483 -3.3093  1.8257
  363MOL0     H49001   4.722   3.269   9.937  0.2337  2.9537  1.3373
  363MOL0     H49002   5.493   3.185  10.450 -0.6465  0.6467 -0.7692
  363MOL0     H49003   5.781   3.281  10.592 -1.5553  0.1897 -0.3751
  363MOL0     H49004   5.654   3.149  10.595  0.3060  1.0956  3.1019
  363MOL0     H49005   5.813   3.115  10.539 -0.2437  0.6309 -1.2779
  364MOL0     O49006   8.966   6.337   2.139  0.3917  0.2677 -0.1612
  364MOL0     C49007   8.990   6.390   2.247 -0.7003 -0.4512  0.5745
  364MOL0     O49008   9.113   6.388   2.310 -0.1938 -0.9489 -0.2108
  364MOL0     C49009   9.232   6.370   2.230  0.5250 -0.2356 -0.5473
  364MOL0     C49010   9.274   6.248   2.176  0.2758 -0.4085 -0.3891
  364MOL0     C49011   9.383   6.230   2.094 -0.4002  0.0611 -0.0552
  364MOL0     C49012   9.470   6.339   2.089 -0.3707 -0.1628  0.3293
  364MOL0     O49013   9.584   6.328   2.013 -0.0968 -0.5452 -0.4434
  364MOL0     C49014   9.678   6.266   2.094 -0.5773 -0.3728  0.0803
  364MOL0     C49015   9.811   6.269   2.011  0.3891 -0.7466 -0.1829
  364MOL0     C49016   9.932   6.248   2.102  0.1111  0.2655  0.0871
  364MOL0     C49017  10.044   6.202   2.017 -0.2539  0.8807 -0.1068
  364MOL0     C49018  10.094   6.310   1.917  0.0312 -0.0934  0.3615
  364MOL0     C49019  10.210   6.240   1.835  0.7964  0.5912  0.0854
  364MOL0     C49020  10.316   6.328   1.766 -0.2840  0.2465  0.3038
  364MOL0     C49021  10.405   6.233   1.683 -0.3865  0.5254  0.5182
  364MOL0     N49022  10.513   6.318   1.618  0.4085  0.6571  0.1961
  364MOL0     C49023  10.484   6.428   1.536 -0.3512  0.4957  0.0226
  364MOL0     C49024  10.605   6.482   1.505  0.2564 -0.4394  0.0541
  364MOL0     C49025  10.626   6.603   1.414  0.3727  0.1802  0.0330
  364MOL0     C49026  10.528   6.608   1.299  0.0810 -0.0696 -0.5107
  364MOL0     C49027  10.539   6.478   1.215 -0.3425 -0.3021  0.6273
  364MOL0     C49028  10.627   6.484   1.096 -0.1704  0.4535 -0.2995
  364MOL0     O49029  10.655   6.349   1.055 -0.4369  0.5850 -0.0423
  364MOL0     C49030  10.789   6.326   1.050  0.7978 -0.5873  0.0591
  364MOL0     C49031  10.864   6.320   1.169 -0.2382  0.1195  1.0253
  364MOL0     C49032  11.005   6.311   1.157  0.0343  0.4268  0.3021
  364MOL0     C49033  11.073   6.301   1.041 -0.5246  0.9060  0.6118
  364MOL0     C49034  11.225   6.291   1.036  0.4073  0.3648  0.1599
  364MOL0     O49035  11.278   6.249   0.922 -0.1715  0.2872 -1.0070
  364MOL0     C49036  11.413   6.246   0.896  0.4227  0.5435 -0.7349
  364MOL0     C49037  11.516   6.308   0.960 -0.2888  0.0268 -0.7123
  364MOL0     C49038  11.647   6.265   0.923 -0.5621  0.4031 -0.1010
  364MOL0     C49039  11.680   6.182   0.817  0.7406 -0.1277 -0.0414
  364MOL0     O49040  11.815   6.157   0.782  0.1273 -0.3429 -0.0846
  364MOL0     C49041  11.844   6.018   0.771  1.0071  0.8270  0.5007
  364MOL0     C49042  11.997   5.993   0.781 -0.1840  0.5283 -0.7104
  364MOL0     C49043  12.033   5.856   0.742  0.6834 -0.5025  0.3032
  364MOL0     C49044  12.179   5.817   0.768  0.4581  0.0636 -0.5474
  364MOL0     C49045  12.296   5.920   0.708  0.7443 -0.0707 -0.0439
  364MOL0     C49046  12.434   5.841   0.710 -0.1827  0.9747 -0.7739
  364MOL0     C49047  12.536   5.945   0.657 -0.9012 -0.9718  0.0299
  364MOL0     C49048  12.671   5.897   0.680 -0.4013 -0.1344 -0.2780
  364MOL0    Cl49049  12.683   5.756   0.588 -0.1124  0.1277  0.2263
  364MOL0     C49050  11.574   6.130   0.753  0.3826 -0.6262  0.1322
  364MOL0     C49051  11.438   6.148   0.793  0.5075 -0.7894 -0.4325
  364MOL0     O49052  11.284   6.307   1.142 -0.5881 -0.5955 -0.0598
  364MOL0     C49053  10.995   6.291   0.925  1.3476  0.1195 -0.8112
  364MOL0     C49054  10.856   6.298   0.931 -0.0446  0.6883  0.1938
  364MOL0     N49055  10.697   6.413   1.575  1.4060 -0.3480 -0.0681
  364MOL0     N49056  10.641   6.322   1.652 -0.0799 -0.6376  0.2448
  364MOL0     C49057   9.436   6.463   2.145 -0.5160  0.1589  0.3248
  364MOL0     C49058   9.312   6.478   2.206 -0.0867 -0.7426 -1.4173
  364MOL0     C49059   8.872   6.447   2.311  0.0002 -0.0403  0.3530
  364MOL0     C49060   8.891   6.557   2.390  0.0340 -0.5278  0.5170
  364MOL0     C49061   8.785   6.618   2.457 -0.3757  0.6646 -0.4484
  364MOL0     C49062   8.656   6.570   2.447 -1.4383 -0.8320 -0.0306
  364MOL0     O49063   8.545   6.637   2.496  0.4281 -0.1768 -0.0843
  364MOL0     C49064   8.553   6.746   2.594 -0.1753  0.1446  0.5969
  364MOL0     C49065   8.575   6.883   2.529  0.4612  0.5465 -0.1218
  364MOL0     C49066   8.450   6.917   2.448 -0.9074 -0.8738 -0.7376
  364MOL0     C49067   8.482   7.037   2.343 -0.2170  0.1365 -0.1307
  364MOL0     C49068   8.586   6.995   2.246  0.2450  0.4141  0.3851
  364MOL0     C49069   8.665   6.978   2.154  0.0929  0.2074 -0.3137
  364MOL0     C49070   8.632   6.462   2.365  0.5658  0.5031  0.0884
  364MOL0     C49071   8.739   6.396   2.299  0.1087  0.0486  0.1042
  364MOL0     C49072   8.698   6.274   2.220  0.2652  0.0339 -0.4028
  364MOL0     H49073   9.203   6.168   2.191 -4.5182  3.5586  1.0639
  364MOL0     H49074   9.414   6.142   2.039  0.2697 -0.7608  1.5655
  364MOL0     H49075   9.678   6.320   2.189 -1.4438  0.6060 -0.4599
  364MOL0     H49076   9.660   6.161   2.119  5.3555 -1.4540  1.4094
  364MOL0     H49077   9.830   6.369   1.972  0.7540 -0.8771 -0.3471
  364MOL0     H49078   9.804   6.196   1.930  1.0080  0.0747 -0.9959
  364MOL0     H49079   9.915   6.175   2.181 -1.2143  1.4471  0.9410
  364MOL0     H49080   9.944   6.340   2.160 -0.0814  0.8675 -0.7988
  364MOL0     H49081  10.129   6.174   2.081 -0.2800 -1.0745 -0.8589
  364MOL0     H49082  10.014   6.110   1.967  0.8479 -0.3157  1.3160
  364MOL0     H49083  10.002   6.347   1.870 -0.8484 -0.8672  1.4195
  364MOL0     H49084  10.135   6.393   1.976 -2.0659  1.2798  0.0241
  364MOL0     H49085  10.258   6.163   1.896  1.9280 -0.0239 -1.5189
  364MOL0     H49086  10.170   6.182   1.751 -3.0379  0.4911  1.7728
  364MOL0     H49087  10.369   6.383   1.844 -0.8925  1.1314  0.1110
  364MOL0     H49088  10.273   6.409   1.707  3.0947  0.7266 -1.7584
  364MOL0     H49089  10.463   6.163   1.744 -1.2385 -0.4249  0.2659
  364MOL0     H49090  10.349   6.166   1.618  0.6181  0.8388 -0.7181
  364MOL0     H49091  10.388   6.460   1.495 -0.6687  0.9682  1.0896
  364MOL0     H49092  10.623   6.694   1.475  0.9121  0.9796 -1.1013
  364MOL0     H49093  10.728   6.589   1.377  1.2656 -1.3612  2.7433
  364MOL0     H49094  10.430   6.626   1.343  1.2014  2.4657  1.1459
  364MOL0     H49095  10.524   6.698   1.238 -1.1515  0.9406  1.0031
  364MOL0     H49096  10.440   6.458   1.173 -0.2099  0.8725 -0.2889
  364MOL0     H49097  10.573   6.394   1.277 -3.2531 -1.3909  0.9101
  364MOL0     H49098  10.721   6.534   1.119  1.1038 -0.7038 -2.5923
  364MOL0     H49099  10.589   6.544   1.013  4.8215  0.9210 -2.6253
  364MOL0     H49100  10.814   6.321   1.266 -4.8078  3.0310 -1.0221
  364MOL0     H49101  11.061   6.323   1.250  1.2516 -1.3407 -0.1520
  364MOL0     H49102  11.512   6.371   1.049  3.0064 -1.8391  0.9810
  364MOL0     H49103  11.727   6.311   0.981 -0.5314 -1.0097  1.0258
  364MOL0     H49104  11.800   5.972   0.860 -0.4903  3.4616  1.2366
  364MOL0     H49105  11.793   5.969   0.687  1.1345 -0.7807  1.3173
  364MOL0     H49106  12.034   6.061   0.704  2.5370  3.3163  2.6691
  364MOL0     H49107  12.037   6.018   0.880 -1.2078 -1.3512  0.2281
  364MOL0     H49108  11.973   5.780   0.793 -0.4425 -0.9108 -1.5282
  364MOL0     H49109  12.007   5.835   0.638 -0.3178 -1.0879  0.6554
  364MOL0     H49110  12.192   5.717   0.726 -3.7223  0.0229 -2.2177
  364MOL0     H49111  12.182   5.806   0.876  0.4561 -1.0291 -0.6461
  364MOL0     H49112  12.293   6.012   0.766  1.3183 -1.2092  1.8830
  364MOL0     H49113  12.277   5.946   0.603 -0.0892 -0.6253 -0.0353
  364MOL0     H49114  12.455   5.822   0.815  1.6015 -2.5107 -1.6066
  364MOL0     H49115  12.431   5.745   0.658  1.1038 -0.4914  1.7071
  364MOL0     H49116  12.523   6.040   0.710 -0.3024 -2.4596  3.1028
  364MOL0     H49117  12.532   5.960   0.549  0.1761  1.5255  0.2765
  364MOL0     H49118  12.737   5.977   0.644 -1.5143  0.7083 -0.4951
  364MOL0     H49119  12.683   5.884   0.788  0.7133 -0.7103 -0.4487
  364MOL0     H49120  11.591   6.078   0.659  0.0065 -0.4624 -0.0338
  364MOL0     H49121  11.355   6.101   0.740  1.6838 -0.5902 -2.5530
  364MOL0     H49122  11.038   6.284   0.826  0.1050  0.2250 -1.3711
  364MOL0     H49123  10.806   6.303   0.835 -1.5191  3.4129  0.9843
  364MOL0     H49124   9.512   6.541   2.147 -0.5615  0.4004 -2.7063
  364MOL0     H49125   9.289   6.575   2.251 -0.7889 -1.3650 -0.3887
  364MOL0     H49126   8.986   6.610   2.391 -1.5223  2.7352 -2.5316
  364MOL0     H49127   8.809   6.701   2.523 -1.1705  0.5789 -0.0388
  364MOL0     H49128   8.626   6.722   2.672 -0.5771 -2.5509  0.2559
  364MOL0     H49129   8.452   6.753   2.638 -1.3694 -0.2113 -1.9220
  364MOL0     H49130   8.668   6.864   2.476  0.0206 -3.3691  0.2481
  364MOL0     H49131   8.590   6.956   2.609 -1.4077 -0.3349  1.1091
  364MOL0     H49132   8.364   6.950   2.507 -0.1160  0.5647 -0.3380
  364MOL0     H49133   8.408   6.831   2.395  1.7492 -1.3920 -2.1776
  364MOL0     H49134   8.384   7.063   2.301 -1.3397 -2.9828  0.3340
  364MOL0     H49135   8.519   7.121   2.401  1.2525  0.2341 -1.1313
  364MOL0     H49136   8.739   6.966   2.078  1.4183  2.7956  0.4371
  364MOL0     H49137   8.527   6.439   2.349  0.5400  0.8955 -0.3604
  364MOL0     H49138   8.669   6.297   2.118 -2.4659 -5.5345 -1.2431
  364MOL0     H49139   8.776   6.198   2.205  0.4871 -0.0147  0.8248
  364MOL0     H49140   8.613   6.235   2.276 -0.9349  2.1233 -0.6600
  365MOL0     O49141   9.999   9.928   7.798 -0.1612 -0.1704 -0.1745
  365MOL0     C49142   9.974   9.999   7.702 -0.3847 -0.2696 -0.1901
  365MOL0     O49143  10.054  10.096   7.653 -0.1819  0.4581  1.1299
  365MOL0     C49144  10.182  10.093   7.701  0.0092 -0.2265  0.5006
  365MOL0     C49145  10.277   9.999   7.647  0.2910 -0.0704 -0.3906
  365MOL0     C49146  10.410  10.011   7.693  0.0941  0.0223 -0.6893
  365MOL0     C49147  10.444  10.104   7.797 -0.3969  0.1000  0.3255
  365MOL0     O49148  10.578  10.108   7.848  0.1125 -0.0936 -0.4005
  365MOL0     C49149  10.622   9.986   7.914 -0.7968 -0.0226  0.0334
  365MOL0     C49150  10.768  10.004   7.969 -0.1394  0.0576  0.5096
  365MOL0     C49151  10.858  10.035   7.848  0.6121  0.1282  0.1480
  365MOL0     C49152  10.996  10.062   7.895 -0.1230  0.0665 -1.0044
  365MOL0     C49153  11.100  10.071   7.775  0.3108 -0.0692 -0.4642
  365MOL0     C49154  11.069  10.173   7.665  0.3429  0.3607 -0.2492
  365MOL0     C49155  11.171  10.155   7.553  0.1486 -0.8564 -0.6440
  365MOL0     C49156  11.182  10.258   7.440 -0.1237  0.6022  0.1934
  365MOL0     N49157  11.263  10.367   7.480 -0.4228  0.1630 -0.4949
  365MOL0     C49158  11.397  10.379   7.443 -0.2669  0.0158  0.6858
  365MOL0     C49159  11.431  10.508   7.478 -0.5412 -0.4569 -0.0683
  365MOL0     C49160  11.550  10.584   7.466 -0.4089  0.0651  0.9046
  365MOL0     C49161  11.610  10.588   7.605  0.3891 -0.0494  0.1434
  365MOL0     C49162  11.757  10.617   7.591  0.4506  0.0998  0.1140
  365MOL0     C49163  11.842  10.619   7.723 -0.3088 -0.6959 -0.9252
  365MOL0     O49164  11.982  10.632   7.708 -0.8416  0.2564  0.1989
  365MOL0     C49165  12.048  10.746   7.704 -0.4097  1.1353 -0.2340
  365MOL0     C49166  12.185  10.730   7.705  0.7053  0.1607 -1.0947
  365MOL0     C49167  12.271  10.841   7.712  0.2921  0.7539  0.0446
  365MOL0     C49168  12.220  10.972   7.714 -1.0676  0.2168  0.1825
  365MOL0     C49169  12.313  11.087   7.738 -0.5701  0.3033 -0.7829
  365MOL0     O49170  12.253  11.206   7.747 -0.2113  0.6905  0.1530
  365MOL0     C49171  12.319  11.322   7.735  0.1419 -0.2814  0.1679
  365MOL0     C49172  12.262  11.439   7.784 -0.3222 -0.3045 -0.3189
  365MOL0     C49173  12.328  11.565   7.772  0.0256  0.1295  0.3612
  365MOL0     C49174  12.445  11.582   7.711 -0.1509 -0.0654 -0.2073
  365MOL0     O49175  12.479  11.709   7.702  0.0128 -0.0080 -0.8043
  365MOL0     C49176  12.586  11.756   7.610  0.6732  0.6937 -1.2094
  365MOL0     C49177  12.709  11.778   7.699  0.0500 -0.7590 -0.5529
  365MOL0     C49178  12.822  11.825   7.592 -0.0588  0.3303  0.4837
  365MOL0     C49179  12.932  11.903   7.666 -0.9559 -0.6584  0.1288
  365MOL0     C49180  13.037  11.938   7.565  0.8778 -0.4627  0.3657
  365MOL0     C49181  13.147  12.024   7.637 -0.4046 -0.6481 -0.9402
  365MOL0     C49182  13.237  12.082   7.532  0.5461  0.3099  0.1823
  365MOL0     C49183  13.311  12.202   7.577 -0.3006 -0.3770 -0.2658
  365MOL0    Cl49184  13.441  12.151   7.690 -0.6218  0.1481 -0.1638
  365MOL0     C49185  12.511  11.466   7.661  0.6611  1.2596  0.3479
  365MOL0     C49186  12.454  11.334   7.686  0.1342 -0.6442 -0.2485
  365MOL0     O49187  12.423  11.056   7.793  0.8367  0.2896  0.4757
  365MOL0     C49188  12.085  10.991   7.719  0.2089 -0.3306 -0.1331
  365MOL0     C49189  11.996  10.875   7.718 -0.7268  0.1152  0.3856
  365MOL0     N49190  11.319  10.570   7.525  0.9652  0.2208  0.6282
  365MOL0     N49191  11.222  10.489   7.530  0.4851 -0.4529 -0.1224
  365MOL0     C49192  10.357  10.200   7.829  0.0466 -0.0480 -1.1840
  365MOL0     C49193  10.226  10.196   7.787 -0.0910  1.4464 -0.6385
  365MOL0     C49194   9.838   9.980   7.634 -0.0516  0.3530  0.7391
  365MOL0     C49195   9.826  10.019   7.505  0.3801 -0.0255  1.0708
  365MOL0     C49196   9.702  10.009   7.431 -0.6177 -0.5816 -0.1293
  365MOL0     C49197   9.592   9.954   7.489  0.4674 -0.0091 -0.7722
  365MOL0     O49198   9.476   9.942   7.425  1.0446 -0.2807 -0.2768
  365MOL0     C49199   9.447   9.819   7.350 -0.2355 -0.0016  0.3962
  365MOL0     C49200   9.297   9.804   7.321  0.2846 -0.3830  0.6042
  365MOL0     C49201   9.221   9.934   7.264  0.1128  0.1721  0.3132
  365MOL0     C49202   9.076   9.913   7.212 -0.3798  0.4316  0.5067
  365MOL0     C49203   9.019  10.031   7.165 -0.8913 -0.9452  0.3980
  365MOL0     C49204   8.965  10.121   7.114  0.4677 -0.0511  0.4618
  365MOL0     C49205   9.610   9.888   7.617  0.3949  0.2867  0.4042
  365MOL0     C49206   9.732   9.905   7.696  0.1742 -1.3752  1.2420
  365MOL0     C49207   9.732   9.843   7.831  0.6091 -0.2125  0.3228
  365MOL0     H49208  10.242   9.921   7.580 -0.2446  0.3853 -0.6426
  365MOL0     H49209  10.486   9.947   7.649 -0.0748 -0.0390 -0.8932
  365MOL0     H49210  10.552   9.956   7.992 -2.3696  1.1655 -0.8526
  365MOL0     H49211  10.629   9.914   7.832 -0.2081 -0.5853  0.5704
  365MOL0     H49212  10.801   9.913   8.019  3.1668  2.5366  3.3452
  365MOL0     H49213  10.777  10.088   8.039  1.8359  0.0349  0.3347
  365MOL0     H49214  10.813  10.112   7.785 -0.2749  2.0240  2.9211
  365MOL0     H49215  10.865   9.951   7.779 -2.5825  0.6240 -0.9348
  365MOL0     H49216  10.999  10.156   7.951 -0.7491 -0.9419  0.7868
  365MOL0     H49217  11.028   9.981   7.961 -1.0634  0.3370 -0.1841
  365MOL0     H49218  11.199  10.088   7.819  0.4147 -0.2937 -0.6114
  365MOL0     H49219  11.119   9.970   7.738 -0.8293  0.2774 -2.0977
  365MOL0     H49220  10.964  10.162   7.636 -0.0133 -0.5165  1.2902
  365MOL0     H49221  11.085  10.275   7.700  2.3840 -0.4755  1.4355
  365MOL0     H49222  11.145  10.057   7.512 -0.5480 -1.4668  1.1408
  365MOL0     H49223  11.268  10.148   7.604  1.5048  3.9767 -2.0887
  365MOL0     H49224  11.237  10.201   7.365  0.9201 -2.5476  3.0835
  365MOL0     H49225  11.083  10.285   7.402 -0.5536 -2.9401 -1.6341
  365MOL0     H49226  11.460  10.318   7.380 -1.3591 -0.0412 -0.3832
  365MOL0     H49227  11.609  10.531   7.391 -0.2195  1.4347  0.0424
  365MOL0     H49228  11.532  10.687   7.433  2.7965  1.7020  3.6493
  365MOL0     H49229  11.556  10.659   7.670 -0.7635  0.3387 -1.1830
  365MOL0     H49230  11.604  10.489   7.650  2.9376 -0.8596 -1.1297
  365MOL0     H49231  11.776  10.703   7.526 -1.3867  1.2492  1.0111
  365MOL0     H49232  11.800  10.537   7.529 -0.7360  1.2115 -2.2600
  365MOL0     H49233  11.824  10.525   7.775 -3.1249  0.7329  0.9223
  365MOL0     H49234  11.805  10.689   7.799  1.4105 -2.9538  2.2371
  365MOL0     H49235  12.233  10.633   7.697 -0.2897 -0.2991 -1.5813
  365MOL0     H49236  12.379  10.840   7.718  0.4193  1.5783 -1.6820
  365MOL0     H49237  12.165  11.424   7.829  0.1496 -1.3228  0.4077
  365MOL0     H49238  12.263  11.645   7.806 -0.9704 -0.4433 -0.1638
  365MOL0     H49239  12.618  11.688   7.531 -0.5649  0.5969 -1.6460
  365MOL0     H49240  12.548  11.850   7.569 -0.8888  1.3174  1.4072
  365MOL0     H49241  12.693  11.851   7.778 -2.4916 -2.1039  0.3007
  365MOL0     H49242  12.743  11.686   7.747 -2.5034 -1.4167  0.1562
  365MOL0     H49243  12.874  11.735   7.555  1.9329  0.6960  2.1980
  365MOL0     H49244  12.786  11.883   7.507 -1.3766 -1.4907 -0.2709
  365MOL0     H49245  12.971  11.844   7.750 -2.2835  0.1591  1.3570
  365MOL0     H49246  12.881  11.991   7.706  0.1968  0.8760 -1.6113
  365MOL0     H49247  12.985  11.990   7.485  0.7823 -1.0374  0.0511
  365MOL0     H49248  13.085  11.850   7.521  0.3643 -1.1906  1.2174
  365MOL0     H49249  13.109  12.103   7.702 -2.8577 -1.0280 -1.7982
  365MOL0     H49250  13.201  11.953   7.701  2.9841  0.5965 -2.1694
  365MOL0     H49251  13.179  12.100   7.441  0.7366  0.1488  0.0267
  365MOL0     H49252  13.307  12.008   7.492  0.4271  0.7262 -0.8387
  365MOL0     H49253  13.353  12.254   7.490  0.0180 -2.6658 -1.5687
  365MOL0     H49254  13.245  12.271   7.630 -0.2732 -1.8122  1.7679
  365MOL0     H49255  12.609  11.471   7.615  0.5270  0.7431 -0.0062
  365MOL0     H49256  12.510  11.252   7.641 -1.2650 -1.0334 -1.3446
  365MOL0     H49257  12.044  11.091   7.730 -1.7618 -1.0563 -0.4127
  365MOL0     H49258  11.888  10.890   7.714 -0.5058  2.4716  1.3265
  365MOL0     H49259  10.382  10.274   7.905 -1.6818  0.1894 -0.7936
  365MOL0     H49260  10.149  10.269   7.812 -1.0310  0.2072  0.2170
  365MOL0     H49261   9.904  10.074   7.453  1.3634 -1.5872  0.8138
  365MOL0     H49262   9.688  10.042   7.328  1.2392 -2.4491 -1.0756
  365MOL0     H49263   9.477   9.732   7.410 -0.1141  1.1636  2.1171
  365MOL0     H49264   9.502   9.815   7.256  0.7134 -0.5616  0.9543
  365MOL0     H49265   9.249   9.763   7.411  1.8885 -0.1671  1.6074
  365MOL0     H49266   9.285   9.723   7.249 -1.3152 -1.1237  1.6532
  365MOL0     H49267   9.272   9.968   7.173  2.5745  4.7505  3.0247
  365MOL0     H49268   9.206  10.015   7.336 -2.3228 -0.8521  1.0699
  365MOL0     H49269   9.094   9.837   7.135  0.6297  2.1866 -1.0649
  365MOL0     H49270   9.014   9.873   7.293 -0.1616 -0.8270  0.0776
  365MOL0     H49271   8.906  10.203   7.080  0.0198  0.9681  3.4861
  365MOL0     H49272   9.528   9.826   7.652  1.8468 -0.9460  1.7873
  365MOL0     H49273   9.633   9.822   7.874  0.1763  0.3918 -0.3524
  365MOL0     H49274   9.787   9.749   7.842  1.8055  0.6288  2.0476
  365MOL0     H49275   9.776   9.910   7.906  0.1483 -1.0834  1.4058
  366MOL0     O49276   1.436   2.073   7.543  0.1652  0.9888  0.1826
  366MOL0     C49277   1.466   2.018   7.651  0.3700 -0.0947  0.4713
  366MOL0     O49278   1.370   1.957   7.730  0.1644 -0.0731  0.0008
  366MOL0     C49279   1.276   1.894   7.652 -0.7681 -0.1717 -0.5584
  366MOL0     C49280   1.285   1.758   7.618 -0.8829 -0.0933 -0.3032
  366MOL0     C49281   1.182   1.700   7.554 -0.2680  0.8157  0.7928
  366MOL0     C49282   1.075   1.774   7.508 -0.5216 -0.0304  0.4248
  366MOL0     O49283   0.973   1.724   7.420  0.6145  0.3139 -0.3756
  366MOL0     C49284   0.948   1.586   7.409 -0.3259 -0.2958 -0.3933
  366MOL0     C49285   0.841   1.555   7.308  0.1143 -0.7256  0.1122
  366MOL0     C49286   0.703   1.612   7.355  0.1894 -0.3999  0.1062
  366MOL0     C49287   0.626   1.525   7.456  1.3748  0.1063  0.3544
  366MOL0     C49288   0.534   1.598   7.548 -0.6017  0.4185  0.8095
  366MOL0     C49289   0.436   1.690   7.478  0.3191 -1.0691  0.0576
  366MOL0     C49290   0.359   1.621   7.360 -0.0235 -0.1332 -0.0928
  366MOL0     C49291   0.240   1.702   7.325  0.3220 -0.1596  0.5517
  366MOL0     N49292   0.270   1.850   7.297 -0.8173  0.4616 -0.1516
  366MOL0     C49293   0.358   1.893   7.203  0.3871 -0.2820  0.1687
  366MOL0     C49294   0.355   2.033   7.218  0.1310 -0.4280 -0.0493
  366MOL0     C49295   0.447   2.127   7.157 -0.2990 -0.2892  0.1751
  366MOL0     C49296   0.602   2.126   7.199  0.2383 -0.4723 -0.6215
  366MOL0     C49297   0.679   1.985   7.183  0.0014  1.0478 -0.2372
  366MOL0     C49298   0.827   1.973   7.217 -0.0375  0.1317 -0.5251
  366MOL0     O49299   0.900   2.069   7.142 -0.0806 -0.1597  0.1743
  366MOL0     C49300   1.036   2.075   7.132  0.7441  0.3475  0.0514
  366MOL0     C49301   1.118   1.991   7.200 -0.5312 -0.1625 -0.7426
  366MOL0     C49302   1.258   1.984   7.212 -0.0434 -0.2223 -0.0370
  366MOL0     C49303   1.319   2.080   7.131  0.9026  0.8724  0.5854
  366MOL0     C49304   1.459   2.084   7.121  0.4590  0.4066  0.0699
  366MOL0     O49305   1.514   2.205   7.092  0.0901 -0.2702 -0.3792
  366MOL0     C49306   1.644   2.207   7.047  1.3269  0.4902 -0.0978
  366MOL0     C49307   1.661   2.176   6.918 -0.4998 -0.1076  0.5582
  366MOL0     C49308   1.796   2.154   6.863  1.0702 -0.1433 -0.2025
  366MOL0     C49309   1.907   2.179   6.946  0.2481 -0.2636  0.9546
  366MOL0     O49310   2.025   2.170   6.867 -0.3911 -0.9187  0.8781
  366MOL0     C49311   2.147   2.138   6.942  0.2408 -0.5719  0.4612
  366MOL0     C49312   2.245   2.063   6.861  0.0087  0.1113 -0.4131
  366MOL0     C49313   2.295   2.115   6.724  0.0070  0.2748  0.0741
  366MOL0     C49314   2.201   2.080   6.607 -0.2533  0.1727 -0.3737
  366MOL0     C49315   2.272   2.053   6.470  0.3014  0.3390 -0.4289
  366MOL0     C49316   2.309   1.905   6.452  0.1824 -0.5632  0.2275
  366MOL0     C49317   2.411   1.894   6.331 -0.5975  0.5076 -0.6481
  366MOL0     C49318   2.441   1.747   6.285 -0.2603 -0.3829 -0.2756
  366MOL0    Cl49319   2.522   1.741   6.130  0.1460 -0.1114 -0.8870
  366MOL0     C49320   1.893   2.219   7.077 -0.6517 -0.6353 -0.8455
  366MOL0     C49321   1.758   2.229   7.128  0.5538 -0.4774  0.6376
  366MOL0     O49322   1.517   1.978   7.122  0.5241  0.0709 -0.1332
  366MOL0     C49323   1.241   2.173   7.045  0.5068  0.1497 -0.7382
  366MOL0     C49324   1.095   2.177   7.054 -0.2931 -0.8676 -0.2367
  366MOL0     N49325   0.260   2.068   7.318  0.0921 -0.5689 -0.6199
  366MOL0     N49326   0.214   1.957   7.366  0.9499  0.3837  0.3578
  366MOL0     C49327   1.062   1.900   7.546  0.0038 -0.0744 -0.2861
  366MOL0     C49328   1.161   1.959   7.619  0.4727 -0.9422 -0.0364
  366MOL0     C49329   1.609   2.022   7.698  0.5009  0.8931  0.0048
  366MOL0     C49330   1.642   1.967   7.823  0.3887  0.1077  0.3235
  366MOL0     C49331   1.766   1.999   7.877  0.0586 -0.5765 -0.2444
  366MOL0     C49332   1.869   2.060   7.807  0.0041 -0.0308 -0.2344
  366MOL0     O49333   1.989   2.080   7.871 -0.0963  0.3866  0.4091
  366MOL0     C49334   2.076   2.189   7.826  0.2296  0.0923 -0.0242
  366MOL0     C49335   2.179   2.202   7.931  0.4204 -0.1536  0.2833
  366MOL0     C49336   2.297   2.286   7.881 -0.7209  0.6478  0.1573
  366MOL0     C49337   2.370   2.371   7.992  1.4257  0.0193 -0.9114
  366MOL0     C49338   2.491   2.425   7.923 -0.1397 -0.3657  0.0865
  366MOL0     C49339   2.600   2.445   7.863 -0.3113  0.7230 -0.6682
  366MOL0     C49340   1.839   2.108   7.684  0.1922  0.1415 -0.0285
  366MOL0     C49341   1.707   2.094   7.628  0.4475 -0.7645  0.2595
  366MOL0     C49342   1.685   2.138   7.480  0.4353  0.2894  0.1704
  366MOL0     H49343   1.370   1.701   7.655 -0.3217  0.6253 -0.4706
  366MOL0     H49344   1.193   1.593   7.539  0.6615  0.9652  0.3082
  366MOL0     H49345   1.043   1.539   7.385 -0.0258  1.8239 -4.3295
  366MOL0     H49346   0.926   1.545   7.508  1.7901 -0.3433  0.0933
  366MOL0     H49347   0.833   1.447   7.293  1.3735 -0.8077 -0.0969
  366MOL0     H49348   0.867   1.604   7.215 -1.4419 -0.8070 -0.3882
  366MOL0     H49349   0.634   1.623   7.270 -1.7873 -4.7906  0.8252
  366MOL0     H49350   0.713   1.710   7.401 -1.5881  0.2287 -0.7381
  366MOL0     H49351   0.561   1.455   7.403  0.7727  2.2404 -1.9079
  366MOL0     H49352   0.703   1.475   7.516  2.3883  2.0526  0.7655
  366MOL0     H49353   0.472   1.527   7.602  1.9842 -0.9985  2.1049
  366MOL0     H49354   0.590   1.659   7.619  1.8129 -0.4113 -0.2572
  366MOL0     H49355   0.365   1.722   7.555 -0.2383 -2.4566  0.1432
  366MOL0     H49356   0.480   1.782   7.439 -1.7177 -0.8752 -2.0416
  366MOL0     H49357   0.333   1.520   7.391 -0.8292  0.2000  0.3428
  366MOL0     H49358   0.427   1.614   7.274  0.1343 -0.9148  0.0909
  366MOL0     H49359   0.188   1.656   7.241 -1.1819 -2.6661  2.7320
  366MOL0     H49360   0.174   1.699   7.412 -0.0537 -0.6671  0.2531
  366MOL0     H49361   0.424   1.839   7.135  1.3667  1.3123 -0.1870
  366MOL0     H49362   0.441   2.110   7.049 -1.0757 -0.5735  0.2564
  366MOL0     H49363   0.420   2.232   7.170  1.0019  0.4998 -2.5677
  366MOL0     H49364   0.654   2.199   7.137 -0.8055  1.3534  0.5623
  366MOL0     H49365   0.602   2.161   7.303 -1.9314  2.6261 -1.5388
  366MOL0     H49366   0.655   1.946   7.084 -2.0322  0.5577  0.3978
  366MOL0     H49367   0.625   1.908   7.238  2.0839 -1.3048 -1.2767
  366MOL0     H49368   0.855   1.872   7.187 -1.3307 -0.0994 -1.0005
  366MOL0     H49369   0.852   1.987   7.323  1.1610  0.7621 -0.8719
  366MOL0     H49370   1.077   1.912   7.262  0.3801 -0.8884 -1.0417
  366MOL0     H49371   1.317   1.921   7.278  1.1900 -0.7584 -1.5858
  366MOL0     H49372   1.576   2.161   6.853  0.6262  0.5286 -1.1313
  366MOL0     H49373   1.807   2.129   6.758 -0.5954  0.6640 -0.6117
  366MOL0     H49374   2.190   2.229   6.986 -0.6387 -0.1188  0.4048
  366MOL0     H49375   2.106   2.073   7.020 -1.5744 -0.3795 -0.2762
  366MOL0     H49376   2.325   2.061   6.936 -2.4285 -0.8123  2.3702
  366MOL0     H49377   2.223   1.958   6.840 -0.1953  0.3771 -1.5906
  366MOL0     H49378   2.322   2.220   6.739 -2.6729  0.7657  2.2767
  366MOL0     H49379   2.390   2.063   6.709  1.4143  2.6937  0.1337
  366MOL0     H49380   2.132   2.163   6.590 -0.8066 -0.2478 -0.2493
  366MOL0     H49381   2.143   1.989   6.630  1.2758 -0.6328  0.4352
  366MOL0     H49382   2.360   2.117   6.466  0.3443  0.2388 -1.9674
  366MOL0     H49383   2.201   2.091   6.396 -0.0284 -0.2597 -0.4232
  366MOL0     H49384   2.351   1.862   6.543 -0.7320 -0.5856  0.6509
  366MOL0     H49385   2.214   1.856   6.433 -0.9293  1.6528 -0.2562
  366MOL0     H49386   2.504   1.942   6.365  1.2568 -2.9881 -0.3523
  366MOL0     H49387   2.376   1.945   6.241 -2.6643  1.5195  0.6644
  366MOL0     H49388   2.506   1.689   6.351  0.7505 -0.9883 -1.7342
  366MOL0     H49389   2.345   1.697   6.290 -0.8876  0.8994  1.3575
  366MOL0     H49390   1.975   2.242   7.143 -3.3045  0.4973  2.3363
  366MOL0     H49391   1.742   2.271   7.227  3.2958  3.2439 -0.2915
  366MOL0     H49392   1.294   2.252   6.993  1.9799  0.2318  0.7881
  366MOL0     H49393   1.043   2.261   7.011 -0.6937 -0.5438  0.8564
  366MOL0     H49394   0.982   1.950   7.493  0.2161  1.7227  1.0088
  366MOL0     H49395   1.159   2.065   7.642 -1.0947 -0.7763 -0.8098
  366MOL0     H49396   1.574   1.906   7.882  0.6259  0.5555  1.0841
  366MOL0     H49397   1.786   1.970   7.979  0.4963  2.3032  0.5721
  366MOL0     H49398   2.016   2.277   7.806 -2.9905 -1.9377 -0.0203
  366MOL0     H49399   2.122   2.161   7.731 -0.1970 -1.7295  0.2674
  366MOL0     H49400   2.214   2.101   7.956  2.1479  0.4110  0.3209
  366MOL0     H49401   2.126   2.243   8.018 -0.5188 -2.6201  0.9494
  366MOL0     H49402   2.248   2.349   7.807 -0.1494 -0.5681 -1.3175
  366MOL0     H49403   2.368   2.219   7.832 -3.2088  1.1916 -4.7018
  366MOL0     H49404   2.308   2.453   8.028  2.0233 -0.1019  0.4660
  366MOL0     H49405   2.398   2.315   8.082 -0.2987  1.1653  0.4083
  366MOL0     H49406   2.695   2.466   7.818 -0.0506  0.5290 -0.2090
  366MOL0     H49407   1.908   2.149   7.611 -0.7915  0.4998 -0.7695
  366MOL0     H49408   1.628   2.230   7.468 -0.7103 -0.4708 -0.4639
  366MOL0     H49409   1.779   2.157   7.428 -0.2489  0.7117 -0.9457
  366MOL0     H49410   1.637   2.055   7.426 -0.1312  0.5545  0.2598
  367MOL0     O49411   1.880   7.469   4.601 -0.2128 -0.1319 -0.6010
  367MOL0     C49412   1.871   7.381   4.523  0.1255  0.6117 -0.2526
  367MOL0     O49413   1.787   7.277   4.533  0.3739  0.5188 -0.3977
  367MOL0     C49414   1.676   7.273   4.631 -1.2906  0.4482  0.1192
  367MOL0     C49415   1.662   7.173   4.725 -0.4259 -0.1368 -1.0736
  367MOL0     C49416   1.558   7.189   4.825 -0.3266 -0.6118  0.6117
  367MOL0     C49417   1.461   7.288   4.821  0.0220 -0.1587  0.4128
  367MOL0     O49418   1.352   7.299   4.902 -0.1708  0.4405  0.1480
  367MOL0     C49419   1.322   7.189   4.989  0.5015  0.3550  0.1275
  367MOL0     C49420   1.201   7.223   5.072  0.3345  0.0173  0.1889
  367MOL0     C49421   1.180   7.370   5.108  0.6988  0.7946  0.6033
  367MOL0     C49422   1.288   7.430   5.196 -0.1119 -0.3375  0.3864
  367MOL0     C49423   1.266   7.565   5.260  0.1756 -0.7464  0.9020
  367MOL0     C49424   1.384   7.610   5.354  0.0254 -0.6343 -0.9791
  367MOL0     C49425   1.442   7.503   5.446  0.2737 -0.9629  0.1010
  367MOL0     C49426   1.363   7.494   5.578 -0.2248 -0.6872  0.3860
  367MOL0     N49427   1.452   7.412   5.664 -0.6529 -0.4019  0.8172
  367MOL0     C49428   1.437   7.281   5.694  0.3471 -0.2218 -0.1846
  367MOL0     C49429   1.548   7.249   5.771 -0.2031  0.5096 -0.4459
  367MOL0     C49430   1.586   7.108   5.830  0.2492  0.1106  0.2979
  367MOL0     C49431   1.650   7.117   5.968 -0.2601  1.4619 -0.0700
  367MOL0     C49432   1.666   6.973   6.026 -0.2307  0.3972 -0.8568
  367MOL0     C49433   1.786   6.971   6.120  1.3871 -1.0560  1.3581
  367MOL0     O49434   1.791   6.843   6.183 -0.9389  0.7818  0.1406
  367MOL0     C49435   1.878   6.836   6.290  0.0163 -0.1387  0.8369
  367MOL0     C49436   2.015   6.835   6.283 -0.4028  0.3711 -0.5930
  367MOL0     C49437   2.107   6.812   6.387  0.5809 -0.4024 -0.0348
  367MOL0     C49438   2.045   6.769   6.506 -0.4235 -0.1511  0.2179
  367MOL0     C49439   2.134   6.759   6.619 -0.2224 -0.3357 -0.4944
  367MOL0     O49440   2.271   6.797   6.593 -0.0883  0.9582 -0.2509
  367MOL0     C49441   2.354   6.819   6.697 -0.7690 -0.9268 -0.0424
  367MOL0     C49442   2.319   6.891   6.815 -0.7358  0.6427 -0.3857
  367MOL0     C49443   2.415   6.926   6.910 -1.3301  0.1768  0.4478
  367MOL0     C49444   2.558   6.884   6.892  0.7998 -0.2111  1.1548
  367MOL0     O49445   2.664   6.894   6.978  0.4825  0.2359  0.4684
  367MOL0     C49446   2.660   7.002   7.074 -0.1488  0.3274  0.0002
  367MOL0     C49447   2.756   6.973   7.193 -0.8540 -0.0050 -0.7320
  367MOL0     C49448   2.824   7.090   7.255  0.2251  0.0827 -0.8086
  367MOL0     C49449   2.845   7.064   7.406 -0.7836  0.3842  0.1816
  367MOL0     C49450   2.874   7.201   7.478 -1.1973 -0.1539  0.3154
  367MOL0     C49451   2.914   7.193   7.626  0.7171 -0.6831  0.8550
  367MOL0     C49452   2.916   7.328   7.684 -0.3074  0.7282  0.1819
  367MOL0     C49453   2.976   7.310   7.816  0.0874  0.0463  0.1804
  367MOL0    Cl49454   2.848   7.267   7.944 -0.0412  0.2073 -0.3728
  367MOL0     C49455   2.583   6.815   6.774  0.2894  1.1192  1.0564
  367MOL0     C49456   2.486   6.780   6.674  0.2721  0.2968  0.4221
  367MOL0     O49457   2.093   6.702   6.714 -0.1618 -0.4924 -0.4289
  367MOL0     C49458   1.905   6.770   6.523 -0.4465 -0.1180 -0.0985
  367MOL0     C49459   1.826   6.815   6.415 -0.1397  0.0866 -0.8448
  367MOL0     N49460   1.623   7.363   5.786 -0.1308  0.2418 -0.3502
  367MOL0     N49461   1.562   7.459   5.726 -0.0736 -0.1176 -0.8144
  367MOL0     C49462   1.468   7.385   4.713 -0.5439  0.0811 -0.1358
  367MOL0     C49463   1.579   7.375   4.629  0.6137  0.6514  0.3084
  367MOL0     C49464   1.951   7.386   4.401 -0.6294 -0.1865  0.8534
  367MOL0     C49465   1.933   7.293   4.295  0.2895 -0.1217  0.7699
  367MOL0     C49466   1.989   7.297   4.170  0.1154  0.2678 -0.3950
  367MOL0     C49467   2.078   7.398   4.142 -0.0873 -0.2909  0.9007
  367MOL0     O49468   2.145   7.419   4.023 -0.0742  0.1454  0.3253
  367MOL0     C49469   2.132   7.324   3.917  1.7729 -0.1060 -0.2915
  367MOL0     C49470   2.219   7.354   3.803 -0.0155  0.1953 -0.6424
  367MOL0     C49471   2.372   7.314   3.825  0.7951  0.1655 -0.3717
  367MOL0     C49472   2.407   7.207   3.732  0.6350 -0.1149 -0.1071
  367MOL0     C49473   2.553   7.192   3.724 -0.0193 -0.1267  0.4737
  367MOL0     C49474   2.675   7.187   3.717  0.5034 -0.9050  0.5069
  367MOL0     C49475   2.097   7.495   4.239 -0.1944  0.0303 -0.3324
  367MOL0     C49476   2.050   7.484   4.372 -0.2001  0.3911 -0.6643
  367MOL0     C49477   2.111   7.576   4.469 -0.2729  0.3997 -0.3055
  367MOL0     H49478   1.738   7.096   4.718  0.8625  1.0593 -0.6415
  367MOL0     H49479   1.559   7.111   4.901 -0.1012 -3.1177 -1.8071
  367MOL0     H49480   1.314   7.095   4.934  3.0633  2.3833 -4.3343
  367MOL0     H49481   1.408   7.174   5.056  0.1966 -0.8909  0.2597
  367MOL0     H49482   1.218   7.180   5.172 -0.6348  2.4294  1.4840
  367MOL0     H49483   1.112   7.179   5.027  2.5650 -2.3030 -2.2587
  367MOL0     H49484   1.079   7.379   5.148  0.6780  2.8998  0.1970
  367MOL0     H49485   1.163   7.443   5.028 -2.2436 -0.0927  0.3172
  367MOL0     H49486   1.314   7.352   5.269  0.2317 -0.0181  0.6088
  367MOL0     H49487   1.377   7.445   5.134 -0.3196  2.3835  0.6337
  367MOL0     H49488   1.263   7.628   5.171 -0.6911 -3.0680 -0.8301
  367MOL0     H49489   1.176   7.556   5.321  0.0947 -1.7138  0.6537
  367MOL0     H49490   1.461   7.655   5.290  2.9080 -2.8000  0.7435
  367MOL0     H49491   1.341   7.694   5.409  0.9403  0.0168 -1.2328
  367MOL0     H49492   1.532   7.556   5.476 -0.1950 -0.5229  0.7628
  367MOL0     H49493   1.462   7.406   5.400  4.3001 -0.3433  0.2526
  367MOL0     H49494   1.361   7.600   5.605  1.4076 -0.3241 -0.8163
  367MOL0     H49495   1.260   7.456   5.569 -0.1341 -0.4961 -1.8301
  367MOL0     H49496   1.363   7.209   5.663  1.9744 -1.3061 -1.7424
  367MOL0     H49497   1.494   7.049   5.840  1.4539 -2.0526 -0.6592
  367MOL0     H49498   1.645   7.049   5.759 -2.3340 -0.5245 -1.4726
  367MOL0     H49499   1.751   7.159   5.973  0.5458 -0.2564 -0.9971
  367MOL0     H49500   1.597   7.184   6.037  1.1770  1.0795  1.4956
  367MOL0     H49501   1.670   6.895   5.949 -1.6307 -2.1769  1.5163
  367MOL0     H49502   1.580   6.952   6.090  0.8941  0.4397  0.7117
  367MOL0     H49503   1.787   7.060   6.184  1.2010  0.1870 -0.3117
  367MOL0     H49504   1.873   6.976   6.055  0.2658 -1.7971 -0.2559
  367MOL0     H49505   2.055   6.870   6.188  2.6575  0.1779  0.4968
  367MOL0     H49506   2.215   6.826   6.378  0.5554 -0.3440 -0.2494
  367MOL0     H49507   2.215   6.913   6.835 -0.7721  1.6463 -1.5950
  367MOL0     H49508   2.386   6.977   7.001  2.6435 -1.8874  3.1766
  367MOL0     H49509   2.701   7.093   7.030  0.1976 -0.6755 -1.8196
  367MOL0     H49510   2.562   7.022   7.118  0.4078  1.8980  0.5883
  367MOL0     H49511   2.691   6.935   7.272  0.7907  2.4942  2.0428
  367MOL0     H49512   2.826   6.894   7.163 -0.2425  0.9252 -1.8718
  367MOL0     H49513   2.920   7.096   7.205  1.1529 -3.0042  0.4163
  367MOL0     H49514   2.758   7.178   7.250 -2.4919 -1.7573  0.0171
  367MOL0     H49515   2.929   6.994   7.406  2.5240  3.9156 -2.7322
  367MOL0     H49516   2.754   7.022   7.449  0.2214 -0.4465  1.6177
  367MOL0     H49517   2.788   7.268   7.470 -0.8085  0.1381 -4.6352
  367MOL0     H49518   2.952   7.260   7.429 -2.2232  1.0010  0.0185
  367MOL0     H49519   2.845   7.126   7.677  2.3245 -1.9597  1.4587
  367MOL0     H49520   3.015   7.150   7.628  0.2897 -1.7140  0.5904
  367MOL0     H49521   2.817   7.374   7.686 -0.6539  0.1095 -1.3978
  367MOL0     H49522   2.976   7.396   7.623 -0.0230  1.5585  1.3520
  367MOL0     H49523   3.055   7.235   7.823  2.0668  2.1372  2.7155
  367MOL0     H49524   2.999   7.412   7.848 -1.6595  0.8499 -0.9859
  367MOL0     H49525   2.685   6.784   6.758 -0.9361 -2.0291 -1.6521
  367MOL0     H49526   2.522   6.734   6.583 -2.3258 -0.0459 -0.5256
  367MOL0     H49527   1.863   6.753   6.622 -0.1707 -0.7679 -0.0879
  367MOL0     H49528   1.718   6.824   6.426 -0.4359 -0.8749 -2.6391
  367MOL0     H49529   1.386   7.457   4.713 -2.0487 -1.5042  1.9700
  367MOL0     H49530   1.598   7.456   4.560  0.6249  1.9097  1.7139
  367MOL0     H49531   1.871   7.204   4.308  0.8695 -0.7429 -0.5327
  367MOL0     H49532   1.971   7.224   4.092 -0.7703 -2.5942  2.2682
  367MOL0     H49533   2.026   7.337   3.893  1.3180  1.4335  2.2133
  367MOL0     H49534   2.148   7.224   3.958  0.0548 -0.6719 -0.9324
  367MOL0     H49535   2.213   7.463   3.791 -0.1978  0.3430  0.6765
  367MOL0     H49536   2.189   7.299   3.713  0.1370  1.7152 -1.6618
  367MOL0     H49537   2.395   7.289   3.929  0.1062 -1.3495 -0.5624
  367MOL0     H49538   2.418   7.408   3.793 -1.2036  0.8077 -1.5703
  367MOL0     H49539   2.369   7.106   3.749  0.4148 -0.3629 -1.8983
  367MOL0     H49540   2.386   7.244   3.632  0.9973 -0.4871 -0.3253
  367MOL0     H49541   2.780   7.184   3.696  0.4745  1.9350 -0.5444
  367MOL0     H49542   2.161   7.579   4.211 -1.1295  0.6515 -0.6458
  367MOL0     H49543   2.219   7.584   4.455  0.4462 -0.6721  3.5123
  367MOL0     H49544   2.083   7.681   4.459  2.9554  1.5166  1.2560
  367MOL0     H49545   2.093   7.543   4.571 -0.4755 -1.9610 -1.0441
  368MOL0     O49546  11.186   0.961   7.414  0.4037 -0.1625  0.6636
  368MOL0     C49547  11.098   0.923   7.494 -0.2642 -0.1687 -0.7650
  368MOL0     O49548  10.990   0.993   7.530  0.6712  0.9628  0.3251
  368MOL0     C49549  10.946   1.105   7.462 -0.6053  0.2833  0.0243
  368MOL0     C49550  10.968   1.122   7.325 -0.6385  0.1420  0.1336
  368MOL0     C49551  10.928   1.242   7.270 -0.2332  0.1868  0.2863
  368MOL0     C49552  10.844   1.331   7.331 -0.0629 -0.1419  0.3782
  368MOL0     O49553  10.792   1.446   7.271  0.6022  0.9001 -0.2176
  368MOL0     C49554  10.716   1.415   7.148  0.5159 -0.5240 -0.0510
  368MOL0     C49555  10.579   1.343   7.192 -1.1278  0.0282 -0.3056
  368MOL0     C49556  10.475   1.356   7.075 -0.0606  0.1686 -0.9865
  368MOL0     C49557  10.335   1.339   7.125  0.2188  0.5728  0.3349
  368MOL0     C49558  10.239   1.323   6.999 -0.4728 -0.5127  0.4962
  368MOL0     C49559  10.237   1.180   6.930  0.4346 -0.2778  0.2298
  368MOL0     C49560  10.185   1.067   7.011 -1.2857  0.2394 -0.0840
  368MOL0     C49561  10.232   0.928   6.967 -0.3156  0.2000  0.2644
  368MOL0     N49562  10.349   0.887   7.050  0.7887 -0.1801 -0.3779
  368MOL0     C49563  10.473   0.954   7.061  0.5951  0.9806 -0.5773
  368MOL0     C49564  10.554   0.878   7.141  0.9778 -0.3949 -0.1276
  368MOL0     C49565  10.697   0.891   7.175 -0.5154 -0.2203 -0.6756
  368MOL0     C49566  10.776   0.767   7.154 -0.4665 -0.6502  0.2243
  368MOL0     C49567  10.923   0.792   7.173 -0.1647  0.7967  0.5679
  368MOL0     C49568  11.011   0.694   7.092  0.3715  0.7213 -0.0637
  368MOL0     O49569  11.037   0.723   6.959 -0.0125  0.2157 -1.4526
  368MOL0     C49570  11.168   0.731   6.924 -0.8396 -0.7559  0.0828
  368MOL0     C49571  11.262   0.644   6.970  0.7205  0.4450 -0.0907
  368MOL0     C49572  11.390   0.651   6.919  0.3108 -0.5254 -0.4453
  368MOL0     C49573  11.431   0.737   6.814  0.6658 -0.9770  0.2338
  368MOL0     C49574  11.570   0.749   6.760  0.0791  0.3078 -0.7173
  368MOL0     O49575  11.588   0.826   6.647 -0.6547 -0.4417  0.4181
  368MOL0     C49576  11.714   0.848   6.588 -0.0463  0.4992 -0.6484
  368MOL0     C49577  11.798   0.746   6.539  0.4062 -0.0120  0.1506
  368MOL0     C49578  11.926   0.772   6.471 -0.1175 -0.1194 -0.1984
  368MOL0     C49579  11.964   0.903   6.450 -0.1752  0.0117  0.2690
  368MOL0     O49580  12.068   0.936   6.376  0.3532 -0.2500 -0.0576
  368MOL0     C49581  12.158   1.039   6.428  0.2391  0.1003 -0.0676
  368MOL0     C49582  12.307   0.997   6.434  0.4766 -0.5894 -0.7645
  368MOL0     C49583  12.331   0.914   6.560  0.0028  0.5497 -0.0438
  368MOL0     C49584  12.486   0.875   6.570  0.6669 -0.3534 -0.1731
  368MOL0     C49585  12.519   0.810   6.707  0.4056  0.0994  0.6640
  368MOL0     C49586  12.657   0.755   6.733  0.4526  0.0001  0.1004
  368MOL0     C49587  12.760   0.858   6.749  0.7784 -0.8779 -0.4244
  368MOL0     C49588  12.867   0.793   6.837  0.1619  0.1435  0.1779
  368MOL0    Cl49589  12.997   0.902   6.854  0.3815 -0.2024  0.5537
  368MOL0     C49590  11.879   1.006   6.499 -0.1578 -0.5275  0.7192
  368MOL0     C49591  11.760   0.978   6.564  0.5300 -0.6336 -0.0982
  368MOL0     O49592  11.650   0.684   6.821  0.2985 -0.0030  1.2603
  368MOL0     C49593  11.334   0.821   6.756  0.6551  0.3176 -0.7641
  368MOL0     C49594  11.209   0.817   6.816  0.6572 -0.4514 -0.3966
  368MOL0     N49595  10.470   0.776   7.184  0.1638 -0.4712 -0.4590
  368MOL0     N49596  10.356   0.781   7.138 -0.1059  0.0278  0.0897
  368MOL0     C49597  10.814   1.318   7.464 -0.6199 -0.2739  0.0337
  368MOL0     C49598  10.863   1.200   7.529  0.2247  0.2333  0.1546
  368MOL0     C49599  11.103   0.783   7.539  0.2913  0.3629 -0.0717
  368MOL0     C49600  11.172   0.689   7.458 -0.6614 -0.4164  0.3219
  368MOL0     C49601  11.177   0.553   7.486  0.5264  0.1029  0.7757
  368MOL0     C49602  11.096   0.506   7.591 -0.1901 -0.0039 -0.1145
  368MOL0     O49603  11.084   0.370   7.619  0.5721 -0.2664  0.0402
  368MOL0     C49604  11.160   0.281   7.539 -0.2320  0.4926  0.2993
  368MOL0     C49605  11.132   0.127   7.577  0.2294 -0.4525 -0.5829
  368MOL0     C49606  11.188   0.076   7.709 -0.2258 -0.0766  0.4621
  368MOL0     C49607  11.335   0.117   7.725 -0.4566 -0.2014 -0.3200
  368MOL0     C49608  11.426   0.064   7.625  0.0790  0.5758 -1.2136
  368MOL0     C49609  11.506   0.006   7.558  0.4455  0.4462  0.6762
  368MOL0     C49610  11.036   0.594   7.675  0.1311 -0.6926  0.6683
  368MOL0     C49611  11.040   0.730   7.647 -0.9771 -0.4306 -0.1356
  368MOL0     C49612  10.969   0.827   7.751 -1.0434  0.0398  0.3255
  368MOL0     H49613  11.022   1.055   7.259 -0.5879  0.8805 -0.5892
  368MOL0     H49614  10.959   1.262   7.167  0.3605  1.4045  0.6771
  368MOL0     H49615  10.693   1.515   7.110  0.8360 -0.0485  0.9679
  368MOL0     H49616  10.776   1.360   7.075  1.1403 -3.5145  2.4912
  368MOL0     H49617  10.544   1.394   7.283 -2.5569  1.4043 -1.5635
  368MOL0     H49618  10.588   1.235   7.209 -0.5984 -0.2907 -2.4280
  368MOL0     H49619  10.505   1.284   6.998 -1.0430  0.6035 -1.7911
  368MOL0     H49620  10.491   1.461   7.047  1.2391  0.2585 -0.0274
  368MOL0     H49621  10.333   1.243   7.177 -2.6326 -0.0864 -0.7726
  368MOL0     H49622  10.311   1.421   7.192  1.5649  0.4913  0.9486
  368MOL0     H49623  10.136   1.349   7.025 -0.3033  2.8333 -1.6101
  368MOL0     H49624  10.261   1.411   6.938 -2.9772  1.4655  2.2112
  368MOL0     H49625  10.178   1.189   6.838 -2.3250 -1.0709  1.8026
  368MOL0     H49626  10.339   1.148   6.904 -0.2989 -4.3254  1.6643
  368MOL0     H49627  10.076   1.058   7.000 -1.6110 -0.1128  2.8673
  368MOL0     H49628  10.197   1.085   7.118 -1.2026  0.0542 -0.0612
  368MOL0     H49629  10.154   0.853   6.976  0.0554 -0.3905 -1.2601
  368MOL0     H49630  10.259   0.930   6.861 -1.9982  2.2235 -0.1906
  368MOL0     H49631  10.501   1.041   7.003 -1.2720  1.2300 -1.1547
  368MOL0     H49632  10.715   0.977   7.110 -1.3928  0.1118 -0.5018
  368MOL0     H49633  10.720   0.922   7.277  0.7511  0.6259 -1.2002
  368MOL0     H49634  10.762   0.680   7.218  2.9935 -1.4658  0.0795
  368MOL0     H49635  10.766   0.738   7.049  1.7885  0.8689 -0.4913
  368MOL0     H49636  10.945   0.775   7.279  0.7167 -0.2682  0.2319
  368MOL0     H49637  10.952   0.893   7.141  1.7808 -0.3401 -1.5297
  368MOL0     H49638  10.959   0.598   7.088  1.3803  0.0032  2.3415
  368MOL0     H49639  11.103   0.690   7.151 -0.7433  0.8054  1.7606
  368MOL0     H49640  11.250   0.574   7.051  1.1212  3.2958  2.6229
  368MOL0     H49641  11.468   0.593   6.967 -2.6258 -2.5649  2.2846
  368MOL0     H49642  11.775   0.642   6.559 -0.7080 -0.3939 -2.7263
  368MOL0     H49643  11.989   0.691   6.436  0.1118  0.1668 -0.4474
  368MOL0     H49644  12.154   1.110   6.344  0.7284 -1.3211 -1.3353
  368MOL0     H49645  12.124   1.085   6.521 -2.6521  0.9618 -1.4272
  368MOL0     H49646  12.332   0.947   6.340 -0.9796  0.0965 -1.5462
  368MOL0     H49647  12.370   1.086   6.439 -1.8221  1.0759  0.8236
  368MOL0     H49648  12.294   0.963   6.651 -0.8044 -0.5072  0.2130
  368MOL0     H49649  12.268   0.825   6.569 -0.3536  0.5604 -1.9760
  368MOL0     H49650  12.549   0.965   6.569 -0.5976  0.5739 -1.5853
  368MOL0     H49651  12.513   0.802   6.494  3.9692  0.6491 -0.1551
  368MOL0     H49652  12.451   0.724   6.709  4.0366 -3.0595  0.1836
  368MOL0     H49653  12.495   0.874   6.792  0.0552 -1.4153  1.7355
  368MOL0     H49654  12.650   0.691   6.822 -2.7522  0.3075  0.2085
  368MOL0     H49655  12.692   0.693   6.650 -0.6818 -2.1359  1.1118
  368MOL0     H49656  12.722   0.943   6.807 -1.7418 -1.5057 -1.0363
  368MOL0     H49657  12.800   0.890   6.653 -1.3000 -1.8098 -1.6530
  368MOL0     H49658  12.826   0.766   6.935 -2.2440  0.4741 -0.6723
  368MOL0     H49659  12.905   0.700   6.793  0.3825 -0.4059  1.4727
  368MOL0     H49660  11.897   1.109   6.472 -0.7150 -0.1970  1.5798
  368MOL0     H49661  11.703   1.059   6.609  1.0127 -1.3796  1.9948
  368MOL0     H49662  11.365   0.883   6.673  1.6321 -0.5631 -1.0720
  368MOL0     H49663  11.128   0.877   6.774 -1.0347 -2.3443 -0.0420
  368MOL0     H49664  10.752   1.385   7.523 -1.0079 -1.0406  0.5286
  368MOL0     H49665  10.846   1.176   7.633  2.7950 -3.0053  0.0167
  368MOL0     H49666  11.243   0.717   7.381 -0.0317 -3.0697 -0.1500
  368MOL0     H49667  11.236   0.487   7.423 -1.2087 -0.9316  0.1380
  368MOL0     H49668  11.266   0.310   7.546  0.0003 -0.0468 -0.8134
  368MOL0     H49669  11.118   0.296   7.439 -0.9796  1.6617  0.7673
  368MOL0     H49670  11.182   0.070   7.498  2.5514  0.8065 -0.1090
  368MOL0     H49671  11.028   0.094   7.565  0.7265 -2.5193  0.4255
  368MOL0     H49672  11.174  -0.032   7.696  2.5839 -0.3617 -0.9780
  368MOL0     H49673  11.128   0.133   7.780 -2.7490 -2.0659  0.0862
  368MOL0     H49674  11.340   0.226   7.727  0.1698 -0.2438  1.5363
  368MOL0     H49675  11.379   0.083   7.819 -1.2078  0.8872  0.4384
  368MOL0     H49676  11.579  -0.048   7.501 -0.2340 -1.3499  1.4171
  368MOL0     H49677  10.989   0.557   7.765 -1.0209 -1.2817 -0.1586
  368MOL0     H49678  10.940   0.782   7.846 -0.3300  0.4987  0.7729
  368MOL0     H49679  11.044   0.901   7.779  0.6499 -1.4855  0.0401
  368MOL0     H49680  10.878   0.869   7.707 -1.2669  1.5158  2.0840
  369MOL0     O49681   3.668  10.771   8.908 -0.4989 -0.1570  0.6836
  369MOL0     C49682   3.646  10.676   8.842  0.6734 -0.1878  0.2625
  369MOL0     O49683   3.737  10.572   8.830  0.1454  0.1207  0.2125
  369MOL0     C49684   3.873  10.570   8.861 -0.2943  0.4854 -0.5419
  369MOL0     C49685   3.946  10.684   8.865  0.1919 -0.2806  0.3360
  369MOL0     C49686   4.084  10.676   8.885  0.0146 -1.0573 -0.3603
  369MOL0     C49687   4.154  10.559   8.877 -0.0202 -0.1771 -0.0653
  369MOL0     O49688   4.293  10.555   8.864 -0.2755 -0.4584 -0.1273
  369MOL0     C49689   4.355  10.450   8.935  1.2755  0.0738  1.1618
  369MOL0     C49690   4.502  10.480   8.954  0.3805 -0.1137  0.5575
  369MOL0     C49691   4.582  10.368   9.032  0.0932 -0.7856  0.0655
  369MOL0     C49692   4.723  10.406   9.071  0.5401 -1.0601 -0.1394
  369MOL0     C49693   4.793  10.285   9.142  0.7629 -0.3835 -0.2402
  369MOL0     C49694   4.940  10.313   9.162 -0.6187  0.6055  0.2135
  369MOL0     C49695   5.002  10.193   9.243  0.7900 -1.5632 -0.7306
  369MOL0     C49696   5.146  10.205   9.232 -0.5575  0.3767  0.2096
  369MOL0     N49697   5.223  10.139   9.339 -0.2510 -0.0253  0.0291
  369MOL0     C49698   5.267  10.007   9.335  0.5986  0.0310  0.1845
  369MOL0     C49699   5.321   9.988   9.461  0.5994  0.8174 -0.0735
  369MOL0     C49700   5.393   9.861   9.492 -0.1949 -0.2894 -0.5969
  369MOL0     C49701   5.501   9.886   9.602  0.3777  0.2225  0.2178
  369MOL0     C49702   5.600  10.000   9.568  0.2785 -0.0707  0.6490
  369MOL0     C49703   5.705  10.001   9.674 -0.3774  0.2637 -0.0115
  369MOL0     O49704   5.815  10.081   9.621 -0.0910  0.1638 -0.4195
  369MOL0     C49705   5.849  10.180   9.710 -0.2775  1.0660 -0.9903
  369MOL0     C49706   5.824  10.308   9.673 -1.2722 -0.1883  0.3514
  369MOL0     C49707   5.894  10.417   9.732 -0.3475  0.0144  0.0446
  369MOL0     C49708   5.979  10.391   9.836 -0.8069 -1.1349 -0.3538
  369MOL0     C49709   6.057  10.501   9.901 -0.0716  0.0724  0.0146
  369MOL0     O49710   6.099  10.471  10.029  0.5903 -0.0129 -0.0052
  369MOL0     C49711   6.169  10.553  10.115  0.5674 -0.4895  0.3573
  369MOL0     C49712   6.179  10.498  10.249 -0.9455  0.1024  0.2497
  369MOL0     C49713   6.243  10.561  10.352  0.4096 -0.3078 -0.1747
  369MOL0     C49714   6.277  10.696  10.338  0.4412 -0.1044  0.2499
  369MOL0     O49715   6.322  10.761  10.452  0.0356 -0.2471  0.0614
  369MOL0     C49716   6.385  10.891  10.427 -0.0592 -0.3481 -0.8256
  369MOL0     C49717   6.427  10.940  10.566 -0.4441  0.4219  0.3961
  369MOL0     C49718   6.518  11.061  10.546  0.3858  0.1688  0.2013
  369MOL0     C49719   6.545  11.135  10.672  0.6312 -0.3133  0.1471
  369MOL0     C49720   6.635  11.066  10.774 -0.2903  0.5383  0.3555
  369MOL0     C49721   6.620  11.121  10.920  0.5652 -0.1551 -0.2484
  369MOL0     C49722   6.702  11.043  11.021  0.6465  0.0566  0.2219
  369MOL0     C49723   6.621  10.958  11.118  0.3625  0.3538  0.4109
  369MOL0    Cl49724   6.531  10.841  11.013 -0.1471 -0.0474  0.6191
  369MOL0     C49725   6.268  10.763  10.213  0.0295 -0.9575 -0.3561
  369MOL0     C49726   6.205  10.698  10.103 -0.5694  0.2045 -0.7018
  369MOL0     O49727   6.068  10.609   9.843  1.0810 -0.2155 -0.5329
  369MOL0     C49728   6.004  10.258   9.883  0.3200  0.0103  0.1595
  369MOL0     C49729   5.938  10.154   9.815  1.1181  0.4713 -0.2422
  369MOL0     N49730   5.288  10.106   9.530 -0.2496 -0.3276  0.2878
  369MOL0     N49731   5.242  10.197   9.456 -0.1646  0.2901 -0.9642
  369MOL0     C49732   4.078  10.444   8.871 -0.1733  0.3705 -0.1218
  369MOL0     C49733   3.938  10.449   8.864 -0.3494 -0.2282 -0.0058
  369MOL0     C49734   3.516  10.677   8.773  1.2730  0.4362 -0.5904
  369MOL0     C49735   3.484  10.559   8.699  0.4629 -0.8108  0.1771
  369MOL0     C49736   3.365  10.541   8.626 -0.1333 -0.6619 -0.1284
  369MOL0     C49737   3.261  10.633   8.646  0.1303  0.0966  0.1933
  369MOL0     O49738   3.149  10.596   8.575  0.1678  0.3590  0.8830
  369MOL0     C49739   3.030  10.623   8.650 -0.3968 -0.0649  0.3053
  369MOL0     C49740   2.913  10.556   8.577  0.4888  0.2888 -1.0038
  369MOL0     C49741   2.813  10.503   8.679 -0.0625  0.6750 -0.4246
  369MOL0     C49742   2.693  10.429   8.613 -0.1436  0.4038 -0.1053
  369MOL0     C49743   2.578  10.434   8.701 -0.0626  0.6180 -1.3201
  369MOL0     C49744   2.491  10.450   8.779  0.7305  0.2628  0.2959
  369MOL0     C49745   3.282  10.750   8.728  0.2198  0.3939  0.3060
  369MOL0     C49746   3.406  10.776   8.785 -0.1162 -1.1712 -0.6925
  369MOL0     C49747   3.419  10.903   8.865  0.1288 -0.7777 -0.3499
  369MOL0     H49748   3.900  10.780   8.844  0.6811  0.0558  0.7716
  369MOL0     H49749   4.150  10.762   8.886  1.8846 -2.3314 -2.5868
  369MOL0     H49750   4.312  10.436   9.034 -0.1853 -1.2366  0.3933
  369MOL0     H49751   4.334  10.353   8.887 -0.7950  0.4671  1.1842
  369MOL0     H49752   4.511  10.572   9.014  0.9781  1.9913 -2.5264
  369MOL0     H49753   4.554  10.496   8.859  0.3050  1.4581  0.7401
  369MOL0     H49754   4.598  10.280   8.969  0.7798  0.3220 -1.3669
  369MOL0     H49755   4.523  10.330   9.116 -1.0364  0.0598 -0.3274
  369MOL0     H49756   4.775  10.452   8.987  0.0907 -2.9757 -1.5161
  369MOL0     H49757   4.722  10.484   9.148  0.3374 -0.6251 -0.5836
  369MOL0     H49758   4.751  10.280   9.242 -4.4282  0.4192 -2.0687
  369MOL0     H49759   4.778  10.193   9.085 -1.7792  1.8816 -3.6909
  369MOL0     H49760   4.994  10.313   9.067  0.1806 -1.8295  0.6044
  369MOL0     H49761   4.954  10.403   9.223 -3.4097 -0.0024  1.9280
  369MOL0     H49762   4.971  10.098   9.197 -2.1361 -1.0587 -0.0268
  369MOL0     H49763   4.976  10.195   9.349  2.4115  2.5584 -0.2409
  369MOL0     H49764   5.184  10.172   9.135  3.8216  1.8391  1.2135
  369MOL0     H49765   5.176  10.309   9.248  2.8726 -0.7536  2.1145
  369MOL0     H49766   5.281   9.935   9.255  1.1577  1.5552 -1.1552
  369MOL0     H49767   5.336   9.780   9.538  2.2272 -2.3858 -1.0690
  369MOL0     H49768   5.432   9.836   9.393  0.8828 -0.2174 -0.2046
  369MOL0     H49769   5.472   9.917   9.703  1.9249  1.2838  0.3665
  369MOL0     H49770   5.559   9.795   9.612 -0.5613 -0.4081  0.0758
  369MOL0     H49771   5.550  10.095   9.549  0.5902  0.0595  0.4529
  369MOL0     H49772   5.652   9.977   9.474 -0.7191  1.6882 -0.3733
  369MOL0     H49773   5.740   9.898   9.685 -1.3953 -0.3056 -1.6254
  369MOL0     H49774   5.668  10.033   9.771  0.3471 -0.3068  0.4601
  369MOL0     H49775   5.756  10.337   9.593  1.9966  4.3891 -1.1341
  369MOL0     H49776   5.881  10.515   9.687 -3.6899 -0.7290 -0.8489
  369MOL0     H49777   6.145  10.396  10.260  1.5941 -0.7286  1.0174
  369MOL0     H49778   6.253  10.500  10.441  2.4173 -1.1603 -0.9132
  369MOL0     H49779   6.476  10.891  10.366 -1.9285 -1.0811 -3.8436
  369MOL0     H49780   6.318  10.965  10.381 -0.2957  0.7302  1.1532
  369MOL0     H49781   6.339  10.963  10.627 -0.5590  0.0011  0.3928
  369MOL0     H49782   6.484  10.859  10.612  0.5644 -0.8324 -2.8045
  369MOL0     H49783   6.616  11.040  10.502  0.9070 -2.1127  2.2076
  369MOL0     H49784   6.464  11.127  10.478  1.4974 -2.7371 -3.9404
  369MOL0     H49785   6.446  11.153  10.714  0.7291  1.1212 -0.2040
  369MOL0     H49786   6.585  11.234  10.648 -1.7050  1.3625  2.5897
  369MOL0     H49787   6.740  11.084  10.748  0.4085 -1.4716  1.4602
  369MOL0     H49788   6.623  10.957  10.772  1.2105  0.3521 -0.0817
  369MOL0     H49789   6.645  11.227  10.920  1.4684 -0.3134  2.1795
  369MOL0     H49790   6.515  11.121  10.951  1.3304 -1.8723  2.6917
  369MOL0     H49791   6.758  11.119  11.077 -2.4655  2.8607 -0.1352
  369MOL0     H49792   6.768  10.965  10.983 -0.7518 -1.4359  0.7397
  369MOL0     H49793   6.688  10.903  11.185 -0.5553 -0.1070  0.9904
  369MOL0     H49794   6.550  11.018  11.176 -1.8959 -0.3798 -1.4245
  369MOL0     H49795   6.278  10.869  10.193  1.0212 -0.8164  0.7771
  369MOL0     H49796   6.188  10.744  10.006 -0.0723  2.6528  0.2960
  369MOL0     H49797   6.076  10.240   9.963 -1.0876 -1.1614  1.2353
  369MOL0     H49798   5.960  10.056   9.855  0.7162 -0.8249 -2.9969
  369MOL0     H49799   4.126  10.346   8.876  0.1282  0.5814  1.5110
  369MOL0     H49800   3.880  10.357   8.869 -0.0517 -0.3551  1.1938
  369MOL0     H49801   3.565  10.491   8.673  1.3169  1.7160 -4.8122
  369MOL0     H49802   3.359  10.453   8.563  1.6821 -1.8608  1.2757
  369MOL0     H49803   3.014  10.730   8.660  0.3702  0.0436  0.4593
  369MOL0     H49804   3.040  10.576   8.748  1.2035  0.5874  0.4814
  369MOL0     H49805   2.945  10.468   8.520  1.9760 -0.6734  1.1392
  369MOL0     H49806   2.858  10.624   8.512 -1.2999 -1.0366 -0.9517
  369MOL0     H49807   2.794  10.591   8.742  0.8635  0.1207  0.6684
  369MOL0     H49808   2.860  10.431   8.746 -0.9176 -0.5189 -1.0617
  369MOL0     H49809   2.659  10.482   8.524 -4.0150  2.7416  2.5005
  369MOL0     H49810   2.724  10.326   8.592  1.3758  0.3367  2.0383
  369MOL0     H49811   2.411  10.472   8.847 -1.4870  2.1586 -2.6637
  369MOL0     H49812   3.208  10.828   8.735  1.5954  1.5676  2.8497
  369MOL0     H49813   3.337  10.974   8.852  1.0673  1.8235  5.0895
  369MOL0     H49814   3.428  10.885   8.972 -0.1336  2.9254  0.4499
  369MOL0     H49815   3.505  10.961   8.831 -1.0173  1.6135  0.5743
  370MOL0     O49816   7.598   8.264   6.063 -0.6946  0.4846  0.7204
  370MOL0     C49817   7.618   8.137   6.057  0.6694 -0.2068 -0.1313
  370MOL0     O49818   7.731   8.074   6.007 -0.0581  0.3746  0.6728
  370MOL0     C49819   7.825   8.155   5.945 -0.4510 -1.1816 -0.2043
  370MOL0     C49820   7.958   8.150   5.982 -0.5240 -0.4551 -0.5598
  370MOL0     C49821   8.055   8.223   5.916  0.1779 -0.0752  0.4973
  370MOL0     C49822   8.024   8.287   5.795  0.3550 -1.2989 -0.2999
  370MOL0     O49823   8.116   8.374   5.742  0.9616  0.6911  0.1288
  370MOL0     C49824   8.089   8.502   5.705 -0.0979  0.4168 -0.6246
  370MOL0     C49825   8.089   8.597   5.824  0.4342  0.2530 -0.4921
  370MOL0     C49826   8.226   8.609   5.899 -0.0021 -0.4739 -0.4202
  370MOL0     C49827   8.222   8.715   6.007  1.1964 -0.5015  0.0753
  370MOL0     C49828   8.356   8.754   6.068  0.0878 -0.4800  0.3690
  370MOL0     C49829   8.330   8.857   6.185 -0.5442 -0.0229  1.0053
  370MOL0     C49830   8.469   8.913   6.243  0.0836  0.0481 -0.5100
  370MOL0     C49831   8.535   8.830   6.360  0.4376 -0.5532 -0.2080
  370MOL0     N49832   8.643   8.911   6.423  0.1000  0.6210  0.3095
  370MOL0     C49833   8.637   8.990   6.529  0.0073  0.4665 -0.3622
  370MOL0     C49834   8.766   9.028   6.549  0.3048  0.0028 -0.0164
  370MOL0     C49835   8.806   9.121   6.648 -0.7742 -1.0782 -0.6200
  370MOL0     C49836   8.765   9.082   6.799  0.8753 -0.3887  0.9539
  370MOL0     C49837   8.834   9.177   6.901  0.5858 -0.1459  0.7253
  370MOL0     C49838   8.984   9.166   6.915  0.6655 -0.4410  0.0203
  370MOL0     O49839   9.009   9.040   6.981  0.3452 -0.0662 -0.3904
  370MOL0     C49840   9.140   8.987   6.976  0.3893  0.5033 -0.2753
  370MOL0     C49841   9.257   9.062   6.966 -0.2656 -0.1588  0.5901
  370MOL0     C49842   9.377   8.995   6.960  0.3562 -0.1382  0.0519
  370MOL0     C49843   9.384   8.858   6.972 -0.4899  0.3775  1.2801
  370MOL0     C49844   9.521   8.796   6.959 -0.0690  0.5050  0.4772
  370MOL0     O49845   9.617   8.886   6.965  0.0026  0.2423  0.1729
  370MOL0     C49846   9.751   8.838   6.958  0.3507 -0.0199  0.5543
  370MOL0     C49847   9.816   8.810   6.843  0.0300 -0.5677  0.7576
  370MOL0     C49848   9.951   8.762   6.846 -0.0122 -0.1592  0.3601
  370MOL0     C49849  10.015   8.743   6.965 -0.0576 -0.2635  0.4601
  370MOL0     O49850  10.147   8.703   6.956 -0.4989  0.0805  0.0130
  370MOL0     C49851  10.254   8.775   7.027 -0.0012  0.6621 -0.1921
  370MOL0     C49852  10.392   8.769   6.951 -0.1578  0.3648 -1.1824
  370MOL0     C49853  10.404   8.845   6.819  0.1101  0.8984 -0.6623
  370MOL0     C49854  10.539   8.847   6.755 -0.4112  0.3309 -0.6883
  370MOL0     C49855  10.534   8.909   6.613 -0.5580  0.0299 -0.7829
  370MOL0     C49856  10.663   8.896   6.521 -0.1423  0.5830 -0.0494
  370MOL0     C49857  10.695   8.747   6.486  0.1814  0.2934 -1.0497
  370MOL0     C49858  10.829   8.743   6.411 -1.1205 -0.5616  0.0369
  370MOL0    Cl49859  10.823   8.824   6.250  0.5577 -0.2734 -0.0394
  370MOL0     C49860   9.952   8.778   7.089 -0.2786 -0.5066  0.0453
  370MOL0     C49861   9.817   8.822   7.079 -0.0469 -0.5959 -0.0773
  370MOL0     O49862   9.538   8.675   6.950 -0.2856  0.1666  0.3569
  370MOL0     C49863   9.265   8.776   6.983 -0.0936 -0.9046 -1.6655
  370MOL0     C49864   9.143   8.841   6.987 -0.9489  0.2817  0.1035
  370MOL0     N49865   8.841   8.970   6.455 -0.4249  0.4133  0.2642
  370MOL0     N49866   8.772   8.896   6.381  0.1790  0.5981  0.8787
  370MOL0     C49867   7.885   8.287   5.748 -0.5501 -0.1314  0.3605
  370MOL0     C49868   7.788   8.215   5.825 -0.5620  0.8042 -0.1224
  370MOL0     C49869   7.509   8.047   6.098  0.6156 -0.9756 -0.1188
  370MOL0     C49870   7.487   7.935   6.026 -0.6534  0.7118  0.1215
  370MOL0     C49871   7.380   7.844   6.067 -1.5300 -0.2922  0.3295
  370MOL0     C49872   7.306   7.870   6.177  0.8462 -0.1960  0.3209
  370MOL0     O49873   7.207   7.789   6.228 -0.4234  0.7585  0.2107
  370MOL0     C49874   7.133   7.706   6.142 -0.2930 -0.1002 -0.6511
  370MOL0     C49875   7.013   7.653   6.220  0.5630 -0.1022 -0.1522
  370MOL0     C49876   6.938   7.551   6.138  1.0636  0.6648 -0.1228
  370MOL0     C49877   6.826   7.472   6.212  0.3769  0.6795 -0.7811
  370MOL0     C49878   6.751   7.386   6.115 -0.5286 -0.1010 -0.4433
  370MOL0     C49879   6.683   7.321   6.040  1.0228 -0.1068 -0.4519
  370MOL0     C49880   7.332   7.981   6.252 -0.1688  0.9887  0.0085
  370MOL0     C49881   7.442   8.065   6.219  0.0542 -0.3348  0.1370
  370MOL0     C49882   7.465   8.180   6.315 -0.4474  1.2573 -0.4786
  370MOL0     H49883   7.973   8.090   6.071 -2.6988  0.5617  0.5745
  370MOL0     H49884   8.152   8.243   5.960  0.7511 -1.8279  0.0901
  370MOL0     H49885   8.167   8.535   5.635 -0.4330  0.0825 -1.1689
  370MOL0     H49886   7.997   8.507   5.645 -2.4169 -0.0006  2.6101
  370MOL0     H49887   8.007   8.567   5.891  1.4178 -1.8160 -0.1206
  370MOL0     H49888   8.063   8.695   5.783 -0.9068  1.0395  2.0044
  370MOL0     H49889   8.304   8.636   5.828 -0.1566 -2.2904 -1.3489
  370MOL0     H49890   8.243   8.509   5.940 -2.9204 -1.3189 -1.0141
  370MOL0     H49891   8.173   8.805   5.968  0.6154 -1.6174 -1.8872
  370MOL0     H49892   8.158   8.683   6.090 -0.2809  0.3510 -0.6867
  370MOL0     H49893   8.411   8.669   6.107  0.0573 -2.2858 -3.1183
  370MOL0     H49894   8.415   8.798   5.987 -1.1688  1.5679  0.4729
  370MOL0     H49895   8.285   8.949   6.147 -2.6711  0.7861  4.9644
  370MOL0     H49896   8.268   8.825   6.270  0.4826 -0.5548  1.5783
  370MOL0     H49897   8.450   9.016   6.273 -2.3630 -0.2846 -0.7129
  370MOL0     H49898   8.543   8.914   6.162 -1.7262 -0.9376 -2.2856
  370MOL0     H49899   8.462   8.806   6.437 -1.3116  0.1453 -1.5930
  370MOL0     H49900   8.576   8.736   6.322  0.5480 -1.1251  1.2733
  370MOL0     H49901   8.556   9.027   6.591 -0.9634  0.5514 -1.6520
  370MOL0     H49902   8.914   9.137   6.639 -0.7858 -1.0107 -0.6432
  370MOL0     H49903   8.756   9.215   6.621 -0.0313  0.1285  1.8922
  370MOL0     H49904   8.656   9.082   6.807  0.5600 -0.7184 -2.0520
  370MOL0     H49905   8.790   8.978   6.819 -1.6880 -0.6833  3.1513
  370MOL0     H49906   8.791   9.156   6.999 -1.1241  1.9173  0.5049
  370MOL0     H49907   8.795   9.278   6.884 -0.7259 -0.3700  2.2396
  370MOL0     H49908   8.998   9.253   6.979 -2.7375  0.7951 -0.7337
  370MOL0     H49909   9.050   9.178   6.828  2.5359  2.9975  1.7127
  370MOL0     H49910   9.232   9.167   6.960 -1.7778 -0.5890 -1.8658
  370MOL0     H49911   9.463   9.060   6.952 -0.8967  2.2193  3.3744
  370MOL0     H49912   9.755   8.808   6.753  3.2720  0.9118 -1.6993
  370MOL0     H49913  10.014   8.735   6.762 -0.0449 -0.1911  0.3460
  370MOL0     H49914  10.223   8.879   7.045  1.7428  1.1264  0.3765
  370MOL0     H49915  10.272   8.721   7.120  1.2770  1.6294  0.1613
  370MOL0     H49916  10.473   8.808   7.014  0.5108  1.3051 -2.5619
  370MOL0     H49917  10.410   8.665   6.925 -0.2197  0.6449 -2.4069
  370MOL0     H49918  10.335   8.803   6.745 -3.2277  0.8807  2.2341
  370MOL0     H49919  10.371   8.949   6.824  4.3126  2.3937  0.6085
  370MOL0     H49920  10.572   8.744   6.738 -0.7010  0.5813 -3.1494
  370MOL0     H49921  10.618   8.899   6.809 -0.8704  1.6837 -1.2700
  370MOL0     H49922  10.529   9.017   6.623  1.6336  0.1886 -1.0383
  370MOL0     H49923  10.451   8.872   6.552  0.4638 -2.0292 -1.0198
  370MOL0     H49924  10.642   8.962   6.436 -0.5822  1.2174  0.5453
  370MOL0     H49925  10.754   8.926   6.574 -0.1866  1.1137 -0.2727
  370MOL0     H49926  10.619   8.702   6.421  0.4367 -2.8409  0.6291
  370MOL0     H49927  10.705   8.689   6.578 -1.1563 -0.0842 -1.1139
  370MOL0     H49928  10.910   8.788   6.469  2.6326 -4.0484 -1.9935
  370MOL0     H49929  10.858   8.638   6.399  3.1388  0.3085  1.0511
  370MOL0     H49930  10.005   8.759   7.182  0.4827 -0.1183 -0.3031
  370MOL0     H49931   9.778   8.852   7.176  0.5685  1.1006 -0.3295
  370MOL0     H49932   9.273   8.668   6.978 -2.0684 -1.0907 -1.8245
  370MOL0     H49933   9.047   8.790   6.980  0.2044 -1.7592 -2.5878
  370MOL0     H49934   7.854   8.344   5.661 -2.6840  4.0026  3.4829
  370MOL0     H49935   7.683   8.197   5.805 -0.0086 -1.9615 -1.0501
  370MOL0     H49936   7.537   7.917   5.931  0.2776  2.0891  0.3180
  370MOL0     H49937   7.365   7.757   6.004  1.2228  0.8417 -2.0884
  370MOL0     H49938   7.190   7.622   6.103  0.9788 -0.2915  1.4867
  370MOL0     H49939   7.093   7.774   6.066 -5.2430 -1.1079  0.6450
  370MOL0     H49940   6.943   7.736   6.229 -1.4184 -1.3714 -2.5256
  370MOL0     H49941   7.042   7.614   6.318  0.7206  3.4143  1.3312
  370MOL0     H49942   7.000   7.471   6.097 -0.6792 -0.3820 -0.8242
  370MOL0     H49943   6.890   7.605   6.056  1.8096  2.2870  0.4560
  370MOL0     H49944   6.884   7.399   6.270  2.0002 -0.1568 -3.2777
  370MOL0     H49945   6.752   7.529   6.270 -0.3192 -0.5787 -0.4029
  370MOL0     H49946   6.618   7.268   5.973  0.8995 -0.3436 -0.1494
  370MOL0     H49947   7.269   8.001   6.339  0.0756 -1.0602  0.7254
  370MOL0     H49948   7.444   8.274   6.265  2.8576  0.3708 -4.0066
  370MOL0     H49949   7.414   8.158   6.409 -1.6963 -0.7511 -1.5466
  370MOL0     H49950   7.568   8.173   6.353 -1.1605 -3.5181  1.3860
  371MOL0     O49951   3.134   0.164   8.527  0.4592 -0.0587 -0.0511
  371MOL0     C49952   3.107   0.059   8.462  0.4070  0.9512 -0.7063
  371MOL0     O49953   3.200  -0.034   8.433  0.2915  0.1946 -0.5291
  371MOL0     C49954   3.329  -0.019   8.473  0.4108 -0.7515  0.9489
  371MOL0     C49955   3.417   0.079   8.422 -0.5804  0.1322 -0.1296
  371MOL0     C49956   3.556   0.082   8.459  0.5416 -0.2622  0.4609
  371MOL0     C49957   3.602  -0.014   8.538  0.2614  0.4740 -0.2191
  371MOL0     O49958   3.737  -0.007   8.561  0.2247 -0.1350  0.0435
  371MOL0     C49959   3.769   0.020   8.699  0.5608  0.9705  0.1703
  371MOL0     C49960   3.921  -0.015   8.739 -0.3975  0.0493  0.3371
  371MOL0     C49961   4.035   0.055   8.674  0.2668 -0.6884  0.7957
  371MOL0     C49962   4.154   0.009   8.757 -1.2099  0.1238  0.6790
  371MOL0     C49963   4.286   0.051   8.700 -0.8662 -0.3981 -0.7491
  371MOL0     C49964   4.289   0.202   8.662 -0.1671 -0.1946 -1.1532
  371MOL0     C49965   4.425   0.246   8.599  0.5754  0.3884 -0.3221
  371MOL0     C49966   4.518   0.330   8.696  0.7824 -1.0548  0.0962
  371MOL0     N49967   4.622   0.389   8.605  0.2409  0.5607 -0.6370
  371MOL0     C49968   4.741   0.336   8.587  0.1629 -0.2260  0.6257
  371MOL0     C49969   4.801   0.402   8.482  0.0169  1.0760 -0.5807
  371MOL0     C49970   4.932   0.379   8.423 -0.0876  0.3967 -0.1968
  371MOL0     C49971   5.023   0.508   8.427 -0.3629 -0.1639 -0.3904
  371MOL0     C49972   5.132   0.499   8.318 -1.0782 -0.9857  0.2159
  371MOL0     C49973   5.244   0.606   8.334 -0.3796 -0.3783  1.6712
  371MOL0     O49974   5.320   0.594   8.453  0.6247  0.4320  0.1928
  371MOL0     C49975   5.448   0.642   8.466 -0.3224 -0.6830  0.0440
  371MOL0     C49976   5.498   0.646   8.598 -0.7963 -0.2218 -0.3238
  371MOL0     C49977   5.623   0.702   8.636  0.9019 -1.3812  0.2644
  371MOL0     C49978   5.703   0.751   8.532 -0.0343 -0.2132  0.2895
  371MOL0     C49979   5.841   0.800   8.556 -0.4226 -0.8045  1.2785
  371MOL0     O49980   5.889   0.895   8.463 -0.9849 -0.7102  1.2883
  371MOL0     C49981   6.022   0.931   8.486  0.0241  0.5780 -0.5266
  371MOL0     C49982   6.071   1.006   8.594  0.5600 -0.4288  0.5339
  371MOL0     C49983   6.210   1.026   8.594 -0.1154  0.5656 -0.0405
  371MOL0     C49984   6.300   0.999   8.495 -0.0895  0.5113  0.1203
  371MOL0     O49985   6.430   1.034   8.518 -0.4311  0.3154 -0.0202
  371MOL0     C49986   6.520   0.927   8.484 -0.2127 -0.1317  0.6167
  371MOL0     C49987   6.649   0.961   8.557 -0.3990  1.1594  0.2657
  371MOL0     C49988   6.750   0.842   8.554 -0.2919 -0.3349 -0.0123
  371MOL0     C49989   6.898   0.900   8.571 -0.3034 -0.6397  0.5395
  371MOL0     C49990   6.998   0.785   8.565  0.8717 -0.1188 -0.3403
  371MOL0     C49991   7.147   0.812   8.591 -0.2841 -1.0862 -0.1536
  371MOL0     C49992   7.259   0.719   8.543 -0.1511  0.0257 -0.3625
  371MOL0     C49993   7.389   0.802   8.519  0.2778  0.6462 -0.6131
  371MOL0    Cl49994   7.374   0.911   8.381 -0.1231  0.5248  0.0495
  371MOL0     C49995   6.239   0.939   8.379  0.0690  0.0272  0.0169
  371MOL0     C49996   6.107   0.898   8.377 -0.3622  0.5216  0.1318
  371MOL0     O49997   5.907   0.760   8.650  0.7549  0.0377 -0.2905
  371MOL0     C49998   5.658   0.747   8.393 -0.3228  0.5243 -0.1616
  371MOL0     C49999   5.529   0.697   8.375 -0.4291 -0.4469  1.2347
  371MOL0     N50000   4.722   0.513   8.462 -1.1725  0.2082  0.2983
  371MOL0     N50001   4.614   0.500   8.532 -0.1334 -0.2428 -0.3980
  371MOL0     C50002   3.512  -0.099   8.598  1.1207  0.0032 -0.2573
  371MOL0     C50003   3.379  -0.100   8.568  0.8542  0.0654 -0.3142
  371MOL0     C50004   2.973   0.037   8.407  0.5772  0.5283 -0.2551
  371MOL0     C50005   2.948  -0.077   8.332  0.2757  0.5006  0.2614
  371MOL0     C50006   2.826  -0.104   8.275 -0.3976 -0.0808 -0.0863
  371MOL0     C50007   2.715  -0.026   8.305  0.3643 -0.5362  0.0749
  371MOL0     O50008   2.598  -0.068   8.251  0.0559 -0.4353  0.0635
  371MOL0     C50009   2.494   0.024   8.237  0.9162  0.0129 -0.0028
  371MOL0     C50010   2.376  -0.059   8.179 -0.2717 -1.5962  0.2020
  371MOL0     C50011   2.325  -0.164   8.271 -0.1267  0.0979 -0.1555
  371MOL0     C50012   2.241  -0.265   8.191  1.3983  0.3902 -0.9243
  371MOL0     C50013   2.120  -0.190   8.144  0.2699 -0.6678 -0.2115
  371MOL0     C50014   2.031  -0.123   8.108 -0.2915  0.0285  0.0091
  371MOL0     C50015   2.732   0.082   8.391 -0.5882 -0.0837 -0.5529
  371MOL0     C50016   2.859   0.112   8.444 -0.3796 -0.4501 -0.0865
  371MOL0     C50017   2.871   0.226   8.546 -0.5994 -0.3626  0.3128
  371MOL0     H50018   3.381   0.148   8.346  1.9372  0.9710 -0.6792
  371MOL0     H50019   3.628   0.148   8.412  3.4472 -1.1834  3.2868
  371MOL0     H50020   3.744   0.123   8.724  1.3770  1.2781 -0.2505
  371MOL0     H50021   3.704  -0.039   8.765  1.4985  0.5191  0.7098
  371MOL0     H50022   3.926  -0.121   8.715 -0.2549 -0.6786  3.2118
  371MOL0     H50023   3.927  -0.017   8.848  1.0731 -4.5805  0.3618
  371MOL0     H50024   4.018   0.163   8.671  2.7364 -0.2527 -0.7715
  371MOL0     H50025   4.036   0.018   8.571 -3.1656 -2.5080  1.2640
  371MOL0     H50026   4.151   0.062   8.853 -0.3556  2.2925 -0.4161
  371MOL0     H50027   4.148  -0.097   8.781 -0.8562 -0.1208 -0.2726
  371MOL0     H50028   4.375   0.030   8.761 -0.9873  0.6342 -0.1943
  371MOL0     H50029   4.309   0.001   8.605 -0.2294 -3.1203  0.7331
  371MOL0     H50030   4.200   0.217   8.599 -1.3764 -0.9482  0.3252
  371MOL0     H50031   4.282   0.260   8.754  2.8565 -2.4430  0.6654
  371MOL0     H50032   4.402   0.310   8.514  1.5902 -1.6154 -2.2072
  371MOL0     H50033   4.481   0.156   8.571 -0.8067  0.0548 -2.1355
  371MOL0     H50034   4.457   0.404   8.749  3.6501  1.0544  0.7425
  371MOL0     H50035   4.561   0.267   8.774 -1.2853  1.8044  3.9229
  371MOL0     H50036   4.787   0.258   8.646 -0.3678  0.8800  2.6046
  371MOL0     H50037   4.996   0.299   8.460  1.1626  0.7992 -1.3889
  371MOL0     H50038   4.911   0.370   8.316 -2.1345  1.3620  0.0703
  371MOL0     H50039   4.963   0.598   8.414  0.8750  0.8187  0.4925
  371MOL0     H50040   5.063   0.527   8.527 -0.0099  3.9075 -1.1521
  371MOL0     H50041   5.082   0.517   8.222  0.2636 -0.7695 -0.4599
  371MOL0     H50042   5.185   0.403   8.316 -4.1571 -2.9226  2.5679
  371MOL0     H50043   5.212   0.708   8.310  0.6724 -0.6338 -1.0984
  371MOL0     H50044   5.307   0.593   8.246 -2.2555  1.7412 -0.0816
  371MOL0     H50045   5.444   0.594   8.677  0.2622 -1.5873 -0.4485
  371MOL0     H50046   5.651   0.693   8.741 -0.0866 -4.7486  0.3376
  371MOL0     H50047   6.004   1.037   8.674  0.5751  1.6422 -0.1774
  371MOL0     H50048   6.255   1.079   8.678  1.7949 -1.9528  0.6631
  371MOL0     H50049   6.488   0.827   8.516  1.3584 -2.1259 -3.4396
  371MOL0     H50050   6.548   0.919   8.379  1.3022  2.7287  0.7120
  371MOL0     H50051   6.700   1.051   8.523 -0.1086  0.7555 -0.3956
  371MOL0     H50052   6.618   0.979   8.660  2.1982  3.1986  0.7865
  371MOL0     H50053   6.731   0.776   8.639  0.5184 -0.3698  0.1476
  371MOL0     H50054   6.742   0.782   8.463  0.1628 -1.7962  0.8843
  371MOL0     H50055   6.912   0.945   8.670  0.5931  2.5416 -0.9077
  371MOL0     H50056   6.910   0.975   8.492 -0.7234  0.2004  1.2503
  371MOL0     H50057   6.979   0.748   8.464 -0.1294 -0.9244  0.1270
  371MOL0     H50058   6.963   0.708   8.635  0.8211  1.5857  1.6002
  371MOL0     H50059   7.161   0.914   8.554  0.5807 -0.6924  1.1918
  371MOL0     H50060   7.171   0.816   8.698  1.6810 -0.7659 -0.5697
  371MOL0     H50061   7.234   0.665   8.452  1.7646 -0.5140 -0.6250
  371MOL0     H50062   7.274   0.643   8.620  0.4317  0.6792  0.1942
  371MOL0     H50063   7.410   0.858   8.611  0.7292  0.5718 -0.6663
  371MOL0     H50064   7.476   0.737   8.503  1.4588  2.3247 -1.2077
  371MOL0     H50065   6.297   0.936   8.287  2.6011 -3.2548  1.5013
  371MOL0     H50066   6.066   0.858   8.285  2.7504  0.9286 -1.5699
  371MOL0     H50067   5.730   0.771   8.316  3.1642 -1.9441  2.0137
  371MOL0     H50068   5.503   0.703   8.269  2.3637  0.5993  0.5218
  371MOL0     H50069   3.553  -0.173   8.666  1.9634  0.6121 -0.0858
  371MOL0     H50070   3.318  -0.172   8.622  1.4923  0.4400  0.9598
  371MOL0     H50071   3.029  -0.147   8.313  1.5978  2.4812 -2.1343
  371MOL0     H50072   2.825  -0.187   8.205 -2.0636 -1.7756  1.7932
  371MOL0     H50073   2.522   0.105   8.169 -0.2938 -1.4587 -2.3846
  371MOL0     H50074   2.456   0.062   8.333  2.7592  0.2747  0.6659
  371MOL0     H50075   2.397  -0.100   8.080 -1.9596  1.8074 -1.7663
  371MOL0     H50076   2.289   0.004   8.157  0.5147 -0.0312  1.3354
  371MOL0     H50077   2.277  -0.107   8.351  1.6236  0.3297  0.7789
  371MOL0     H50078   2.403  -0.216   8.328 -0.9358 -1.4443 -0.3940
  371MOL0     H50079   2.289  -0.289   8.095  1.0114 -0.5799 -0.8873
  371MOL0     H50080   2.216  -0.357   8.246  0.7805  0.9772 -0.2081
  371MOL0     H50081   1.956  -0.049   8.086  0.7481  1.6199  1.5232
  371MOL0     H50082   2.646   0.142   8.419 -0.4227 -1.0555  2.4214
  371MOL0     H50083   2.902   0.182   8.641  1.5546 -3.4949 -1.6213
  371MOL0     H50084   2.940   0.301   8.506 -0.6063 -0.1355  0.7200
  371MOL0     H50085   2.779   0.286   8.553 -0.7042 -0.6177  1.2595
  372MOL0     O50086   6.768   6.717   0.473  0.1602  0.2080 -0.2297
  372MOL0     C50087   6.696   6.813   0.459  1.1349 -1.0388  0.4102
  372MOL0     O50088   6.715   6.920   0.376  0.5108 -0.1888 -0.8296
  372MOL0     C50089   6.834   6.918   0.306 -0.2661  0.0653 -0.0609
  372MOL0     C50090   6.831   6.917   0.166 -0.1679  1.5574 -0.1261
  372MOL0     C50091   6.953   6.918   0.096 -0.2486  0.8047  0.3236
  372MOL0     C50092   7.079   6.903   0.159 -0.1363 -0.1727 -0.2559
  372MOL0     O50093   7.187   6.898   0.077  0.1852 -0.4478 -0.5012
  372MOL0     C50094   7.312   6.907   0.142  0.0867 -0.2739 -0.1592
  372MOL0     C50095   7.431   6.893   0.047  0.2122  0.0414  0.4886
  372MOL0     C50096   7.552   6.947   0.122 -0.5615  1.0616  0.2746
  372MOL0     C50097   7.685   6.917   0.049  0.5834  0.1982 -0.5677
  372MOL0     C50098   7.805   6.991   0.099  0.2677 -0.2622  0.7199
  372MOL0     C50099   7.926   6.953   0.019 -1.2581 -0.0914  1.2756
  372MOL0     C50100   8.056   6.992   0.099 -0.1248  0.1556 -0.1220
  372MOL0     C50101   8.085   7.139   0.098  0.3466  0.2281  0.8219
  372MOL0     N50102   8.123   7.179  -0.038 -0.8586  0.5876 -0.1202
  372MOL0     C50103   8.059   7.284  -0.102  0.4973  1.0568 -0.2236
  372MOL0     C50104   8.136   7.303  -0.209  0.0388  0.2814 -0.3588
  372MOL0     C50105   8.118   7.404  -0.316 -0.0610 -0.3580 -0.7745
  372MOL0     C50106   8.008   7.376  -0.421  0.7663  0.5329 -0.7782
  372MOL0     C50107   8.013   7.457  -0.550  0.2930 -0.9719 -0.3220
  372MOL0     C50108   7.998   7.601  -0.514 -0.1843  1.1357 -0.4360
  372MOL0     O50109   7.882   7.635  -0.436  0.7460 -0.1211 -0.6378
  372MOL0     C50110   7.757   7.606  -0.490  0.4540  0.4146  0.9509
  372MOL0     C50111   7.652   7.595  -0.399  0.4935  0.6124 -0.1036
  372MOL0     C50112   7.519   7.579  -0.450  0.5435 -0.0294 -0.6560
  372MOL0     C50113   7.476   7.578  -0.583 -1.1384 -0.4455  0.1239
  372MOL0     C50114   7.330   7.583  -0.627 -0.5729 -0.9557 -0.9891
  372MOL0     O50115   7.239   7.589  -0.530  0.0409 -0.3184  0.2395
  372MOL0     C50116   7.110   7.609  -0.569  0.2935 -0.0509 -0.1454
  372MOL0     C50117   7.067   7.742  -0.591  0.2996  0.3241  0.5256
  372MOL0     C50118   6.931   7.774  -0.618 -1.9823 -0.0895  0.2928
  372MOL0     C50119   6.841   7.675  -0.640 -0.9886 -0.1272 -0.8211
  372MOL0     O50120   6.716   7.698  -0.687 -0.7743  0.6681 -0.6785
  372MOL0     C50121   6.656   7.802  -0.607  0.1949  0.1373 -0.2016
  372MOL0     C50122   6.504   7.798  -0.615 -0.6694  0.4552  0.1289
  372MOL0     C50123   6.447   7.791  -0.759  0.9779  0.1793  1.2277
  372MOL0     C50124   6.302   7.812  -0.774  0.3134  0.3304 -0.3261
  372MOL0     C50125   6.275   7.961  -0.746  0.4845  0.5048  0.1661
  372MOL0     C50126   6.114   7.977  -0.777 -0.2940  0.1841 -0.8637
  372MOL0     C50127   6.072   8.002  -0.923 -0.3454  0.0936  0.0336
  372MOL0     C50128   5.930   7.973  -0.939  0.7583 -0.3719 -0.3751
  372MOL0    Cl50129   5.840   8.070  -1.063  0.1274  0.1088 -0.5540
  372MOL0     C50130   6.891   7.540  -0.633 -0.1161 -0.7629  0.1444
  372MOL0     C50131   7.020   7.505  -0.585 -0.6913  0.2362  0.0216
  372MOL0     O50132   7.311   7.600  -0.744  0.3885  0.2479 -0.0392
  372MOL0     C50133   7.586   7.598  -0.675  1.0729  0.0771 -0.9265
  372MOL0     C50134   7.716   7.607  -0.625 -1.2724 -0.4948 -0.3407
  372MOL0     N50135   8.234   7.203  -0.202 -0.8489  0.3234  0.1760
  372MOL0     N50136   8.231   7.133  -0.099  0.2481  0.6697 -0.8527
  372MOL0     C50137   7.078   6.907   0.298  0.7130  0.9440  0.1612
  372MOL0     C50138   6.960   6.917   0.368  0.1555 -0.6526 -0.1999
  372MOL0     C50139   6.564   6.799   0.522 -0.3406  0.3027 -0.2728
  372MOL0     C50140   6.454   6.869   0.467  0.3578  0.8078  0.8626
  372MOL0     C50141   6.321   6.856   0.509 -0.2145  0.6460 -0.2090
  372MOL0     C50142   6.289   6.778   0.628  0.3058  0.3666 -0.7111
  372MOL0     O50143   6.175   6.769   0.700 -0.1100  0.1282  0.3702
  372MOL0     C50144   6.047   6.817   0.649  0.3458 -0.1121  0.4480
  372MOL0     C50145   5.969   6.722   0.560 -0.2520  0.4483  0.3084
  372MOL0     C50146   5.942   6.586   0.626  0.3249 -0.1623  1.0008
  372MOL0     C50147   5.864   6.484   0.535  0.6475 -0.5928 -0.3675
  372MOL0     C50148   5.717   6.530   0.496 -0.9173  0.9574 -0.2982
  372MOL0     C50149   5.602   6.560   0.452 -0.1899 -1.0276 -0.0897
  372MOL0     C50150   6.396   6.710   0.678  0.2563  0.5445 -0.3883
  372MOL0     C50151   6.529   6.703   0.622 -0.1951  0.0372  0.4164
  372MOL0     C50152   6.616   6.584   0.680 -0.1682 -0.2840  0.3812
  372MOL0     H50153   6.733   6.904   0.121  0.3409 -0.8175 -0.6888
  372MOL0     H50154   6.954   6.925  -0.012 -3.6189  1.5292  0.2458
  372MOL0     H50155   7.317   6.996   0.204 -0.6202 -0.9934  0.9722
  372MOL0     H50156   7.342   6.823   0.206  3.1721 -0.4090 -1.5911
  372MOL0     H50157   7.417   6.957  -0.041  1.0674  0.4352  0.6322
  372MOL0     H50158   7.442   6.796  -0.002  2.1550  0.8858 -0.8418
  372MOL0     H50159   7.567   6.897   0.218  0.5581  1.9947  0.6150
  372MOL0     H50160   7.544   7.056   0.128 -0.4717  1.0116  3.4316
  372MOL0     H50161   7.706   6.809   0.045 -1.8705 -0.3027 -2.5480
  372MOL0     H50162   7.664   6.943  -0.055 -0.6214 -1.1889 -0.7098
  372MOL0     H50163   7.786   7.098   0.110 -1.1346 -0.5644  1.4709
  372MOL0     H50164   7.831   6.951   0.198 -2.9496 -0.1949  1.6885
  372MOL0     H50165   7.924   6.848  -0.010 -5.3995  0.2741 -0.4465
  372MOL0     H50166   7.925   7.010  -0.074 -0.2387  1.6174  2.2613
  372MOL0     H50167   8.130   6.927   0.051  0.1584 -1.9988  2.9060
  372MOL0     H50168   8.048   6.954   0.202  0.3360  2.1248  0.6878
  372MOL0     H50169   7.993   7.192   0.123  0.5958  0.3292  1.5358
  372MOL0     H50170   8.163   7.144   0.175  1.8114  0.5914 -0.6202
  372MOL0     H50171   7.978   7.347  -0.065  0.4710  1.0966 -0.3514
  372MOL0     H50172   8.083   7.494  -0.263  0.7425  0.1848 -1.1374
  372MOL0     H50173   8.214   7.425  -0.363  1.5432 -1.4369  1.8144
  372MOL0     H50174   8.016   7.270  -0.450  3.0481  0.2512  0.5716
  372MOL0     H50175   7.912   7.385  -0.369  2.2425  0.5381  2.1729
  372MOL0     H50176   7.931   7.419  -0.611 -0.9829  1.8635 -0.5324
  372MOL0     H50177   8.104   7.444  -0.610 -0.4534 -1.2312 -1.4183
  372MOL0     H50178   7.997   7.662  -0.605 -1.8963  4.4165  1.5817
  372MOL0     H50179   8.085   7.620  -0.451  1.0163 -1.8361 -1.0124
  372MOL0     H50180   7.675   7.591  -0.293 -2.6119  1.0920  0.6832
  372MOL0     H50181   7.450   7.549  -0.371 -1.0012 -0.1112 -1.9771
  372MOL0     H50182   7.146   7.815  -0.581  1.2236  0.0439 -3.2585
  372MOL0     H50183   6.900   7.875  -0.641 -0.2142  0.5587  0.6305
  372MOL0     H50184   6.689   7.805  -0.503  2.4120  3.1924 -0.8608
  372MOL0     H50185   6.690   7.890  -0.663 -0.2039 -1.0310 -2.4088
  372MOL0     H50186   6.462   7.712  -0.562 -1.6534 -0.8168 -2.5471
  372MOL0     H50187   6.470   7.894  -0.575 -1.6789  1.0110 -1.9229
  372MOL0     H50188   6.506   7.854  -0.827  0.3392  0.1652  0.6465
  372MOL0     H50189   6.465   7.685  -0.779  2.6151  0.5005  0.7917
  372MOL0     H50190   6.241   7.756  -0.702  0.6341  0.3263 -0.0536
  372MOL0     H50191   6.265   7.796  -0.875 -0.9147 -0.5487  0.2374
  372MOL0     H50192   6.340   8.032  -0.799  1.1265  2.5652  3.4210
  372MOL0     H50193   6.297   7.983  -0.641 -0.2000  4.2641 -0.3295
  372MOL0     H50194   6.068   7.891  -0.728 -0.1755  1.8885  2.4640
  372MOL0     H50195   6.093   8.065  -0.716  0.1327 -2.2311  3.0808
  372MOL0     H50196   6.121   7.940  -0.999 -2.5009  0.9492 -2.1942
  372MOL0     H50197   6.091   8.107  -0.948 -2.3933  0.3778 -0.4871
  372MOL0     H50198   5.924   7.870  -0.975 -0.8682 -0.5284  0.2869
  372MOL0     H50199   5.884   7.994  -0.842 -1.0007 -0.7496 -1.0915
  372MOL0     H50200   6.823   7.461  -0.663  1.0090 -1.6735 -0.0895
  372MOL0     H50201   7.058   7.404  -0.573 -3.8643 -0.7807  3.2550
  372MOL0     H50202   7.564   7.593  -0.781 -1.7225 -0.0627 -0.4205
  372MOL0     H50203   7.797   7.628  -0.694 -1.3850 -0.3778 -0.4382
  372MOL0     H50204   7.171   6.905   0.354  0.2401 -3.5768  1.1327
  372MOL0     H50205   6.973   6.910   0.476  1.1931  0.8364 -0.1886
  372MOL0     H50206   6.480   6.947   0.397 -0.1948  0.6163  0.4327
  372MOL0     H50207   6.236   6.909   0.468 -2.2993 -0.4533  2.3567
  372MOL0     H50208   6.063   6.913   0.600 -1.5230 -1.6334 -3.5651
  372MOL0     H50209   5.977   6.846   0.727  1.2146  3.3648  0.0896
  372MOL0     H50210   6.035   6.711   0.473 -0.6652  0.1240  0.0336
  372MOL0     H50211   5.873   6.762   0.526 -0.0188  1.3662  0.7093
  372MOL0     H50212   5.883   6.614   0.714 -0.5067  0.9244  0.1210
  372MOL0     H50213   6.041   6.546   0.650  2.5647  4.0764 -0.2603
  372MOL0     H50214   5.911   6.497   0.437  0.2402  3.7579 -0.1858
  372MOL0     H50215   5.875   6.381   0.573 -1.8547 -0.8155 -0.1019
  372MOL0     H50216   5.501   6.578   0.421 -0.8854  0.9372  2.9005
  372MOL0     H50217   6.361   6.647   0.760 -0.3869 -0.1504 -1.1806
  372MOL0     H50218   6.565   6.511   0.742 -0.2935 -0.4428  0.0955
  372MOL0     H50219   6.666   6.533   0.597  0.4160 -0.6083  0.9228
  372MOL0     H50220   6.695   6.631   0.739  0.3421  2.3696 -2.1455
  373MOL0     O50221   5.656   3.289   2.413  0.2475  0.2875  0.2751
  373MOL0     C50222   5.698   3.247   2.308 -0.1995  0.3663 -0.3795
  373MOL0     O50223   5.796   3.155   2.294 -0.0263  0.1601 -0.1703
  373MOL0     C50224   5.899   3.166   2.387  0.3060  0.3029  0.2185
  373MOL0     C50225   5.959   3.045   2.410 -0.6048 -0.4653 -0.2757
  373MOL0     C50226   6.075   3.036   2.488 -1.1943 -0.0301 -0.4418
  373MOL0     C50227   6.135   3.149   2.535  0.0066 -0.1335  0.2124
  373MOL0     O50228   6.252   3.142   2.601  0.3581 -0.0625  0.4154
  373MOL0     C50229   6.266   3.217   2.726 -1.0996  0.7362  0.7683
  373MOL0     C50230   6.410   3.273   2.738 -0.5543  1.1817  0.2104
  373MOL0     C50231   6.470   3.331   2.602 -0.8225 -0.2491 -0.5204
  373MOL0     C50232   6.393   3.444   2.543  0.6165 -0.2317  0.8878
  373MOL0     C50233   6.473   3.519   2.431  0.1120  0.0807  0.6788
  373MOL0     C50234   6.375   3.607   2.345  0.3963  0.3273 -0.2607
  373MOL0     C50235   6.320   3.729   2.418  0.4690 -0.4676  0.0788
  373MOL0     C50236   6.223   3.812   2.339  0.4067 -1.1938 -0.5465
  373MOL0     N50237   6.100   3.734   2.313  0.3043 -1.6114 -0.8506
  373MOL0     C50238   6.057   3.691   2.195 -0.1043  0.6882 -0.8976
  373MOL0     C50239   5.933   3.637   2.223 -0.2656  0.4145 -0.3803
  373MOL0     C50240   5.837   3.574   2.128  0.1952 -0.6879 -0.6189
  373MOL0     C50241   5.799   3.678   2.023  0.0306  0.6476 -0.4768
  373MOL0     C50242   5.686   3.638   1.930 -0.1090  0.9789 -0.9490
  373MOL0     C50243   5.657   3.728   1.810  0.0141  0.4143  0.3761
  373MOL0     O50244   5.581   3.836   1.853 -0.2045  0.0920 -0.6642
  373MOL0     C50245   5.451   3.862   1.799 -0.4684 -0.3494 -0.2902
  373MOL0     C50246   5.390   3.978   1.852  0.3415  0.8477  0.9892
  373MOL0     C50247   5.265   4.024   1.797  0.0015  0.3567  0.1551
  373MOL0     C50248   5.214   3.956   1.687  0.2771 -1.1524  0.9186
  373MOL0     C50249   5.094   4.018   1.629  0.2947  0.5487  0.2555
  373MOL0     O50250   5.017   3.939   1.541  0.6941 -0.1885  0.6782
  373MOL0     C50251   4.882   3.985   1.527  0.3248 -0.0004 -0.1512
  373MOL0     C50252   4.773   3.903   1.556 -0.6615  0.1633  0.2123
  373MOL0     C50253   4.651   3.944   1.509  0.1228  0.6156  0.5343
  373MOL0     C50254   4.619   4.059   1.447  0.6634  0.2108  0.2560
  373MOL0     O50255   4.487   4.090   1.416 -0.0012  0.0524  0.5420
  373MOL0     C50256   4.452   4.220   1.457 -0.4430 -0.4990 -0.7048
  373MOL0     C50257   4.349   4.206   1.572  0.8735  0.0633 -0.4982
  373MOL0     C50258   4.218   4.153   1.526  0.4053  1.5067 -0.1053
  373MOL0     C50259   4.123   4.101   1.637  0.9227 -0.4722  0.0002
  373MOL0     C50260   3.972   4.086   1.595  0.4017 -0.6652  0.5350
  373MOL0     C50261   3.898   4.026   1.706 -0.2236  0.7994  0.5115
  373MOL0     C50262   3.741   4.015   1.670  0.2230 -0.1656  0.2903
  373MOL0     C50263   3.652   4.037   1.789 -0.4398 -0.8086  0.2094
  373MOL0    Cl50264   3.655   3.898   1.898 -0.0740  0.4013  0.0591
  373MOL0     C50265   4.729   4.145   1.422  0.4538 -0.3186 -0.3513
  373MOL0     C50266   4.856   4.102   1.456 -0.3221 -0.0023 -0.3992
  373MOL0     O50267   5.070   4.131   1.659 -0.7693  0.4407  0.7206
  373MOL0     C50268   5.267   3.832   1.652  0.6686 -0.4112 -0.2318
  373MOL0     C50269   5.383   3.784   1.708 -0.1147  0.3507 -0.3897
  373MOL0     N50270   5.899   3.649   2.354  0.1452  0.5075  0.6484
  373MOL0     N50271   6.011   3.693   2.407 -0.7266 -0.1933 -0.1257
  373MOL0     C50272   6.072   3.271   2.519 -0.5565  0.3203 -0.6775
  373MOL0     C50273   5.952   3.287   2.445  0.9341  0.5704  0.3297
  373MOL0     C50274   5.610   3.279   2.200 -0.1432  0.2782 -0.0187
  373MOL0     C50275   5.645   3.246   2.071  0.0716  0.7517 -0.0093
  373MOL0     C50276   5.569   3.272   1.955 -0.3712 -0.2122 -0.0670
  373MOL0     C50277   5.446   3.337   1.966 -0.5232 -1.2728  0.2752
  373MOL0     O50278   5.376   3.349   1.847 -0.1306 -0.6601 -0.1702
  373MOL0     C50279   5.260   3.434   1.844  0.7179  0.2348  0.4910
  373MOL0     C50280   5.212   3.421   1.707  0.3526 -0.9413 -0.0215
  373MOL0     C50281   5.067   3.474   1.706  0.2400 -0.8841 -1.1880
  373MOL0     C50282   5.001   3.466   1.560 -0.3647 -0.3918  0.0148
  373MOL0     C50283   5.074   3.536   1.442 -0.0332  0.3215  0.2584
  373MOL0     C50284   5.135   3.592   1.355 -0.1750 -0.7917 -0.8457
  373MOL0     C50285   5.412   3.385   2.090  1.1600  0.8002 -0.2776
  373MOL0     C50286   5.485   3.355   2.207 -0.4205 -0.1093 -0.6680
  373MOL0     C50287   5.445   3.447   2.319  0.5256 -0.2544  0.2549
  373MOL0     H50288   5.907   2.951   2.398  0.8945 -1.2707 -0.6127
  373MOL0     H50289   6.135   2.946   2.500 -2.5552 -1.0589 -1.1352
  373MOL0     H50290   6.191   3.296   2.733 -1.6154  0.1521  2.1272
  373MOL0     H50291   6.239   3.151   2.809 -0.2572 -0.8538 -0.1775
  373MOL0     H50292   6.477   3.190   2.762  1.2461  2.1020 -1.2897
  373MOL0     H50293   6.416   3.344   2.821  2.0597  1.4012 -0.0614
  373MOL0     H50294   6.476   3.260   2.518 -2.4618  0.8264 -1.6013
  373MOL0     H50295   6.569   3.372   2.625 -1.6782  1.1168  0.8896
  373MOL0     H50296   6.303   3.411   2.491 -0.6110 -0.2867  2.9219
  373MOL0     H50297   6.369   3.530   2.606 -2.4537  0.2902 -0.7969
  373MOL0     H50298   6.542   3.586   2.481  2.2405 -2.5369  1.4978
  373MOL0     H50299   6.533   3.453   2.367 -0.6607 -0.8468  0.8766
  373MOL0     H50300   6.434   3.639   2.259 -1.2724  2.0743 -0.8063
  373MOL0     H50301   6.286   3.554   2.310 -0.0508  0.2684  0.9240
  373MOL0     H50302   6.400   3.799   2.444 -0.2897  1.0136 -1.4212
  373MOL0     H50303   6.269   3.691   2.506  1.4035 -0.2266  0.7410
  373MOL0     H50304   6.207   3.907   2.391  1.6558 -1.4083  0.2698
  373MOL0     H50305   6.280   3.829   2.247  0.1649  0.0575 -0.4779
  373MOL0     H50306   6.106   3.695   2.098 -1.7135  1.1689 -1.7278
  373MOL0     H50307   5.887   3.497   2.068 -1.0423 -0.9841 -1.3102
  373MOL0     H50308   5.745   3.542   2.178 -0.7448  1.7272 -0.6957
  373MOL0     H50309   5.760   3.763   2.080  0.1134 -0.4053  1.1879
  373MOL0     H50310   5.888   3.710   1.968  0.2806 -0.3774 -0.6858
  373MOL0     H50311   5.595   3.634   1.991 -0.2889  0.6524 -1.2302
  373MOL0     H50312   5.704   3.535   1.897  0.3712  0.7905 -0.1108
  373MOL0     H50313   5.614   3.672   1.727 -2.9066  0.6424  1.6220
  373MOL0     H50314   5.753   3.773   1.781 -0.4883  0.3668 -1.4638
  373MOL0     H50315   5.441   4.043   1.922  1.8531  0.3987  0.3414
  373MOL0     H50316   5.212   4.109   1.838  1.4031  0.6836  1.3964
  373MOL0     H50317   4.774   3.810   1.612 -2.6868  0.4661  0.8389
  373MOL0     H50318   4.571   3.873   1.527 -0.2724  1.6048  3.1230
  373MOL0     H50319   4.538   4.276   1.495  0.8286 -1.2607 -2.3080
  373MOL0     H50320   4.402   4.275   1.376 -1.2541 -0.2861 -0.0723
  373MOL0     H50321   4.398   4.137   1.642  1.8067  0.7059 -0.4874
  373MOL0     H50322   4.335   4.308   1.609 -0.1830 -0.4028  0.4725
  373MOL0     H50323   4.169   4.220   1.455  0.1158  1.4553  0.0445
  373MOL0     H50324   4.247   4.060   1.478  1.2416 -1.1060  4.7722
  373MOL0     H50325   4.121   4.175   1.717 -0.7417  0.0590 -0.4954
  373MOL0     H50326   4.161   4.011   1.687  2.7700 -0.2780 -0.9323
  373MOL0     H50327   3.956   4.016   1.513 -0.5937 -0.6768  0.7331
  373MOL0     H50328   3.933   4.184   1.567  2.5335  1.4805  4.3310
  373MOL0     H50329   3.939   3.926   1.726  2.2531  2.0543  2.1976
  373MOL0     H50330   3.910   4.083   1.798  1.9068 -0.8441  1.3260
  373MOL0     H50331   3.725   3.913   1.632  2.0627 -0.6298  0.6591
  373MOL0     H50332   3.715   4.085   1.591  1.1888 -0.8411 -0.6540
  373MOL0     H50333   3.681   4.124   1.850  0.0997 -0.6256 -0.2980
  373MOL0     H50334   3.548   4.055   1.762  0.5226  0.3843 -3.2417
  373MOL0     H50335   4.727   4.247   1.383  0.9228 -0.1315  0.0938
  373MOL0     H50336   4.937   4.165   1.421 -0.2731 -2.2219 -4.9670
  373MOL0     H50337   5.231   3.786   1.561  1.0352  0.5849 -0.8906
  373MOL0     H50338   5.424   3.690   1.671 -0.1228  0.8925 -1.8124
  373MOL0     H50339   6.106   3.361   2.569  1.1925  0.4333 -1.9577
  373MOL0     H50340   5.907   3.384   2.427  0.0273  0.2265  0.6692
  373MOL0     H50341   5.729   3.181   2.051 -1.5159 -0.8795 -1.9712
  373MOL0     H50342   5.608   3.247   1.857  2.9594 -2.5555  1.6572
  373MOL0     H50343   5.284   3.538   1.868  1.5841  0.1279  0.1256
  373MOL0     H50344   5.186   3.395   1.915  1.7409 -1.5242  0.6352
  373MOL0     H50345   5.206   3.316   1.674  2.1788 -0.0678 -3.6117
  373MOL0     H50346   5.273   3.481   1.639 -1.7016  3.6611  1.8457
  373MOL0     H50347   5.060   3.571   1.755 -1.3405 -1.6692  0.2661
  373MOL0     H50348   5.011   3.405   1.769  3.1535 -1.6603  0.7919
  373MOL0     H50349   4.994   3.360   1.532 -0.0726 -0.9781  1.9873
  373MOL0     H50350   4.899   3.505   1.575 -0.6295 -1.7271  2.1956
  373MOL0     H50351   5.213   3.630   1.292 -0.3581  0.6767 -0.2231
  373MOL0     H50352   5.322   3.445   2.101 -0.1877 -1.3291  0.8825
  373MOL0     H50353   5.507   3.537   2.317  1.3373 -0.7919 -1.4715
  373MOL0     H50354   5.340   3.469   2.298  1.3656  1.2360 -3.1274
  373MOL0     H50355   5.470   3.405   2.417  2.2275 -0.1843 -0.1135
  374MOL0     O50356   3.772   2.490   6.326  0.9980  0.3334  0.2629
  374MOL0     C50357   3.754   2.522   6.203  0.3348 -0.2853  0.9131
  374MOL0     O50358   3.846   2.559   6.116 -0.2394 -0.6266  0.4509
  374MOL0     C50359   3.983   2.540   6.130  0.3862  0.8338 -0.8006
  374MOL0     C50360   4.060   2.529   6.012 -1.1261  0.3321  0.1745
  374MOL0     C50361   4.197   2.520   6.023  0.4860 -0.4743  1.1692
  374MOL0     C50362   4.268   2.522   6.143  0.6708  0.4552  0.2159
  374MOL0     O50363   4.401   2.489   6.160  0.2192  0.2605 -0.3305
  374MOL0     C50364   4.482   2.531   6.051 -0.2694  0.0707  0.1575
  374MOL0     C50365   4.629   2.539   6.101 -0.2899  0.3291 -0.3456
  374MOL0     C50366   4.716   2.611   6.007 -0.6141 -0.4535  0.0897
  374MOL0     C50367   4.738   2.553   5.869 -0.6318  0.1926 -0.1667
  374MOL0     C50368   4.769   2.401   5.865  0.5765 -0.4851  0.6906
  374MOL0     C50369   4.820   2.361   5.722 -0.1324 -1.2891 -0.2811
  374MOL0     C50370   4.726   2.404   5.613 -0.1748  0.0849  0.1478
  374MOL0     C50371   4.619   2.304   5.578 -0.5703  0.8088  0.1160
  374MOL0     N50372   4.528   2.270   5.691 -0.4886 -0.2769  0.5898
  374MOL0     C50373   4.515   2.143   5.731 -0.8022 -0.3065 -0.0504
  374MOL0     C50374   4.400   2.145   5.800 -0.2084 -0.2346  0.2620
  374MOL0     C50375   4.349   2.019   5.879  0.4118  0.1119 -0.4439
  374MOL0     C50376   4.239   2.049   5.984 -1.2276 -0.6294  0.5775
  374MOL0     C50377   4.265   2.162   6.083  0.6767  0.2559  0.4326
  374MOL0     C50378   4.134   2.191   6.158  1.3538  0.3847 -0.6248
  374MOL0     O50379   4.101   2.079   6.241 -0.2375 -0.1295  0.3174
  374MOL0     C50380   4.005   2.090   6.344 -1.0055  0.2424  0.3173
  374MOL0     C50381   4.026   1.990   6.439  0.7570  0.0225 -0.8599
  374MOL0     C50382   3.948   1.979   6.547  0.1855 -0.3225 -0.0742
  374MOL0     C50383   3.841   2.067   6.559  0.3301  0.6397 -1.0281
  374MOL0     C50384   3.758   2.064   6.685  0.3988 -1.2527  0.3595
  374MOL0     O50385   3.782   1.959   6.763 -0.7419 -0.2368  0.7349
  374MOL0     C50386   3.683   1.909   6.852  0.3295 -0.2329 -0.1208
  374MOL0     C50387   3.608   1.990   6.934 -0.5539 -0.3288 -0.6771
  374MOL0     C50388   3.545   1.925   7.041  0.9521 -0.8338  0.8876
  374MOL0     C50389   3.546   1.787   7.064  0.9145  1.3490  0.1452
  374MOL0     O50390   3.458   1.743   7.156  0.1263 -0.2095 -0.0661
  374MOL0     C50391   3.481   1.623   7.222  0.0774  0.4042  0.9414
  374MOL0     C50392   3.370   1.530   7.166  0.3298  0.1076  0.3766
  374MOL0     C50393   3.420   1.385   7.177 -0.0724  1.0139 -0.5628
  374MOL0     C50394   3.327   1.294   7.104 -0.2216 -0.2284  0.2102
  374MOL0     C50395   3.368   1.144   7.115 -0.4432  0.3745  0.1829
  374MOL0     C50396   3.518   1.112   7.092 -0.0821 -0.3231  0.0120
  374MOL0     C50397   3.535   0.952   7.079  0.1409  0.0345 -0.0431
  374MOL0     C50398   3.697   0.933   7.086  0.9796 -1.0126 -1.1188
  374MOL0    Cl50399   3.767   0.971   6.923 -0.4290  0.2563  0.2898
  374MOL0     C50400   3.618   1.713   6.973  0.0404  0.3593  0.2339
  374MOL0     C50401   3.676   1.766   6.865 -0.8473 -0.5395  0.5508
  374MOL0     O50402   3.654   2.130   6.691 -0.2016  0.2265 -0.1561
  374MOL0     C50403   3.812   2.162   6.470 -0.4741 -0.7980 -0.4847
  374MOL0     C50404   3.893   2.170   6.352 -0.0378 -0.1293 -0.0131
  374MOL0     N50405   4.337   2.269   5.789 -0.4750 -0.1691  0.4637
  374MOL0     N50406   4.414   2.339   5.713  0.2087 -0.3667 -0.3902
  374MOL0     C50407   4.187   2.524   6.258 -0.1796  0.1812 -0.3036
  374MOL0     C50408   4.050   2.531   6.255  0.4564  0.3080  0.4533
  374MOL0     C50409   3.614   2.528   6.161  0.6574  0.3099 -0.5945
  374MOL0     C50410   3.582   2.498   6.027 -0.1402  0.1254  0.0661
  374MOL0     C50411   3.453   2.514   5.979 -0.1492  0.2482 -0.1713
  374MOL0     C50412   3.347   2.558   6.058 -1.1916 -1.2567  0.5209
  374MOL0     O50413   3.224   2.560   6.007 -0.4794  0.9878 -0.0332
  374MOL0     C50414   3.111   2.592   6.079 -0.2279 -0.0884  0.0425
  374MOL0     C50415   3.063   2.477   6.166 -0.7196 -0.1850 -0.8409
  374MOL0     C50416   3.050   2.340   6.098 -0.1280  0.6214  0.0335
  374MOL0     C50417   3.064   2.232   6.213 -0.9523 -0.5433  0.3948
  374MOL0     C50418   3.202   2.194   6.247 -0.5919 -0.2204  0.3732
  374MOL0     C50419   3.315   2.189   6.297  0.2387 -0.5149  0.0561
  374MOL0     C50420   3.379   2.584   6.188  0.1185  0.0383  0.2937
  374MOL0     C50421   3.507   2.580   6.240 -0.2082 -0.0325 -0.2483
  374MOL0     C50422   3.527   2.613   6.382 -0.5603  0.1714 -0.4463
  374MOL0     H50423   4.007   2.539   5.918  0.8489  1.5007 -0.8836
  374MOL0     H50424   4.257   2.522   5.933 -1.2512  2.6998 -0.0703
  374MOL0     H50425   4.470   2.458   5.970  1.5247 -1.8394  1.4879
  374MOL0     H50426   4.442   2.630   6.030 -2.0491 -0.3786  1.2718
  374MOL0     H50427   4.663   2.436   6.118 -2.4476 -0.2320  0.9634
  374MOL0     H50428   4.641   2.596   6.194  2.1943  1.0954 -1.0596
  374MOL0     H50429   4.812   2.624   6.057 -0.4577 -0.4369 -0.2094
  374MOL0     H50430   4.683   2.715   6.002 -0.1204 -0.1941  1.8141
  374MOL0     H50431   4.653   2.579   5.806  1.8256 -1.3079 -4.4525
  374MOL0     H50432   4.812   2.619   5.823 -2.2905  2.1248 -0.2286
  374MOL0     H50433   4.835   2.359   5.942 -0.7892 -5.6245 -0.5503
  374MOL0     H50434   4.671   2.353   5.870  0.1856  0.1581 -0.4916
  374MOL0     H50435   4.921   2.399   5.708  0.4626 -2.6636  0.0802
  374MOL0     H50436   4.829   2.252   5.723  3.9252 -1.1542  2.4018
  374MOL0     H50437   4.780   2.416   5.518 -1.3443  3.0709 -0.2485
  374MOL0     H50438   4.674   2.499   5.622 -1.3146 -0.4626 -0.3922
  374MOL0     H50439   4.583   2.345   5.484  2.1505  1.1791 -0.8624
  374MOL0     H50440   4.668   2.216   5.536 -1.0388 -0.0259  1.2562
  374MOL0     H50441   4.577   2.054   5.726  0.0253  0.1256  1.6528
  374MOL0     H50442   4.307   1.948   5.807 -1.5808  1.6666 -0.8798
  374MOL0     H50443   4.429   1.970   5.937 -0.4501 -1.6485 -0.6781
  374MOL0     H50444   4.142   2.060   5.934 -0.7780  1.3619  0.0420
  374MOL0     H50445   4.238   1.954   6.038  0.3795 -1.5616 -0.9179
  374MOL0     H50446   4.293   2.259   6.040  0.3674  0.5428  0.8628
  374MOL0     H50447   4.341   2.141   6.158 -0.2913 -1.4575  0.9823
  374MOL0     H50448   4.053   2.203   6.085  1.0617 -1.9568 -0.7559
  374MOL0     H50449   4.142   2.281   6.219 -0.7404  0.1326  0.0858
  374MOL0     H50450   4.103   1.914   6.444 -0.9085 -1.9287 -2.8540
  374MOL0     H50451   3.967   1.900   6.619 -1.4267  1.9531  3.1316
  374MOL0     H50452   3.613   2.098   6.925  0.1050 -0.2970 -0.0327
  374MOL0     H50453   3.479   1.982   7.105 -1.0729 -4.4434  2.2805
  374MOL0     H50454   3.583   1.585   7.204  0.1164  1.0123 -0.1827
  374MOL0     H50455   3.475   1.639   7.330  2.2882  0.7967  1.0588
  374MOL0     H50456   3.270   1.547   7.208  0.1970 -0.2390  0.2015
  374MOL0     H50457   3.365   1.561   7.062  0.8396 -0.0921  0.2932
  374MOL0     H50458   3.516   1.375   7.125 -1.2064 -0.0961 -2.5209
  374MOL0     H50459   3.439   1.338   7.274  1.4667 -2.4055 -2.3337
  374MOL0     H50460   3.333   1.330   7.001  3.2211 -0.8824  0.0879
  374MOL0     H50461   3.224   1.313   7.137 -1.0754 -1.6083 -1.4772
  374MOL0     H50462   3.299   1.080   7.058  1.0967 -0.9140 -0.3102
  374MOL0     H50463   3.368   1.115   7.220  3.8943 -3.2704 -0.5140
  374MOL0     H50464   3.554   1.156   6.999 -2.5796 -0.9147 -1.3212
  374MOL0     H50465   3.581   1.133   7.179  1.5716  1.6560 -1.5651
  374MOL0     H50466   3.487   0.910   6.990 -0.6803  0.3295  0.2540
  374MOL0     H50467   3.480   0.905   7.162  2.2705 -1.2406  0.7274
  374MOL0     H50468   3.739   1.003   7.159  0.3469  0.6572 -2.2944
  374MOL0     H50469   3.716   0.830   7.117  1.7353 -0.5986 -0.1547
  374MOL0     H50470   3.622   1.605   6.985  0.1217  0.2092 -1.0095
  374MOL0     H50471   3.710   1.698   6.787 -4.2068 -1.9192  0.0863
  374MOL0     H50472   3.726   2.227   6.481  0.5177  0.3961  0.5966
  374MOL0     H50473   3.878   2.233   6.264 -1.0524 -2.3314 -1.5159
  374MOL0     H50474   4.233   2.513   6.356  0.1057 -1.7385 -0.6012
  374MOL0     H50475   4.003   2.528   6.353 -0.2701 -7.4509  0.5088
  374MOL0     H50476   3.655   2.436   5.975 -1.0627 -0.9392 -0.0197
  374MOL0     H50477   3.446   2.484   5.875 -0.3820  2.1947 -0.7427
  374MOL0     H50478   3.035   2.601   6.001 -1.2074 -4.0341  0.3013
  374MOL0     H50479   3.131   2.688   6.128  3.0162 -0.6885  0.1331
  374MOL0     H50480   2.963   2.504   6.200 -1.7071 -3.8438 -0.3496
  374MOL0     H50481   3.117   2.463   6.261 -1.4443 -1.1374 -0.5519
  374MOL0     H50482   3.117   2.315   6.015 -2.5964  1.2427 -2.2977
  374MOL0     H50483   2.953   2.326   6.050  0.7552 -2.4305 -1.1175
  374MOL0     H50484   3.020   2.262   6.308 -1.4229 -0.6984  0.2263
  374MOL0     H50485   3.010   2.142   6.182  0.2845 -2.5208  3.5144
  374MOL0     H50486   3.405   2.204   6.352 -0.2571  1.7537  0.3670
  374MOL0     H50487   3.300   2.610   6.258  1.1555 -0.7690  1.8280
  374MOL0     H50488   3.505   2.535   6.455 -0.8244 -0.5171 -1.2363
  374MOL0     H50489   3.622   2.663   6.398 -0.5263 -0.6248  2.4349
  374MOL0     H50490   3.451   2.686   6.410 -2.4538 -0.8795 -2.4926
  375MOL0     O50491  11.357   4.163   9.890 -0.1773  0.2466 -0.0777
  375MOL0     C50492  11.266   4.234   9.923 -0.1101  0.3412 -0.1874
  375MOL0     O50493  11.266   4.364   9.948 -0.5129  0.0905 -0.5899
  375MOL0     C50494  11.350   4.442   9.880 -0.7522  0.3483 -0.0904
  375MOL0     C50495  11.346   4.456   9.742 -0.5019 -0.1323 -0.2240
  375MOL0     C50496  11.443   4.532   9.673  0.5128 -0.1175 -0.6838
  375MOL0     C50497  11.537   4.604   9.749 -0.4113 -0.1193  0.3424
  375MOL0     O50498  11.634   4.683   9.689 -0.1772  0.1474 -0.2194
  375MOL0     C50499  11.680   4.634   9.565 -0.0782 -0.6848 -0.5657
  375MOL0     C50500  11.827   4.687   9.549 -0.3203 -0.0623 -0.0794
  375MOL0     C50501  11.935   4.610   9.638  1.2067 -0.4605 -0.3994
  375MOL0     C50502  12.082   4.650   9.609 -0.5126  0.5373  0.4749
  375MOL0     C50503  12.173   4.552   9.694  0.2713  0.1689 -0.8001
  375MOL0     C50504  12.176   4.588   9.841  0.2668  0.0915 -0.2131
  375MOL0     C50505  12.264   4.493   9.915  0.7476  0.3337 -0.2019
  375MOL0     C50506  12.383   4.551   9.970  0.0393 -0.3083 -1.6648
  375MOL0     N50507  12.473   4.603   9.871  0.3184  0.3056 -0.1784
  375MOL0     C50508  12.554   4.714   9.909 -0.0876  1.2266 -0.4311
  375MOL0     C50509  12.658   4.716   9.828  0.8583  0.9208  0.1527
  375MOL0     C50510  12.767   4.819   9.828 -0.4459 -0.5020  0.2753
  375MOL0     C50511  12.914   4.760   9.857  1.0992  0.0743 -0.0275
  375MOL0     C50512  12.915   4.686   9.990 -0.2321  0.0836 -0.5415
  375MOL0     C50513  13.058   4.662  10.042  0.0357 -0.7853 -0.2948
  375MOL0     O50514  13.106   4.792  10.103  0.7007  0.1650 -0.1193
  375MOL0     C50515  13.223   4.776  10.176  0.1823  0.5453 -0.6234
  375MOL0     C50516  13.333   4.693  10.134 -0.8428  0.4784  0.6145
  375MOL0     C50517  13.446   4.672  10.211  0.9164  0.1987 -0.0779
  375MOL0     C50518  13.460   4.735  10.328  0.7102  0.8423 -0.5566
  375MOL0     C50519  13.580   4.722  10.401 -0.8734  0.3683  0.2678
  375MOL0     O50520  13.676   4.638  10.345 -0.4909 -0.4420  0.2998
  375MOL0     C50521  13.804   4.624  10.405 -0.2727 -0.3580  0.4394
  375MOL0     C50522  13.892   4.573  10.317 -0.3837  0.2223  0.0351
  375MOL0     C50523  14.023   4.544  10.351 -0.1665 -0.2515  0.6678
  375MOL0     C50524  14.070   4.572  10.478  0.1125 -0.4053 -0.0957
  375MOL0     O50525  14.205   4.568  10.507  0.2275 -0.5894  0.1175
  375MOL0     C50526  14.300   4.502  10.417 -0.6743 -0.0924  0.5402
  375MOL0     C50527  14.442   4.536  10.466  0.0533 -0.1128  0.2186
  375MOL0     C50528  14.554   4.494  10.374 -1.0384  0.1960  0.4002
  375MOL0     C50529  14.693   4.573  10.401  1.1116  0.0207  0.8378
  375MOL0     C50530  14.802   4.510  10.303 -0.8824 -0.5091 -0.4604
  375MOL0     C50531  14.938   4.566  10.324  0.2252  0.1115 -1.1201
  375MOL0     C50532  14.948   4.714  10.276  0.4952  0.3942  0.3968
  375MOL0     C50533  15.094   4.764  10.293 -0.6574  0.6475  0.0910
  375MOL0    Cl50534  15.068   4.931  10.361 -0.0656  0.0386  0.3585
  375MOL0     C50535  13.979   4.611  10.574 -0.9117 -0.5547  0.2983
  375MOL0     C50536  13.836   4.628  10.545  0.3578  0.0893  0.2533
  375MOL0     O50537  13.598   4.792  10.500  0.0892  0.2637  0.7070
  375MOL0     C50538  13.346   4.808  10.380  0.9811 -0.0084  0.0438
  375MOL0     C50539  13.230   4.831  10.308  0.3240 -1.0947 -0.2310
  375MOL0     N50540  12.647   4.611   9.740 -0.0994 -0.0014  0.5104
  375MOL0     N50541  12.544   4.545   9.767  0.2767  1.0201 -0.2577
  375MOL0     C50542  11.545   4.596   9.888  0.8535 -0.5039  1.1452
  375MOL0     C50543  11.443   4.517   9.948 -0.6521  1.0867 -0.9145
  375MOL0     C50544  11.138   4.170   9.962  0.1774  0.4270  0.2195
  375MOL0     C50545  11.061   4.230  10.066  0.6709  0.3252  0.7623
  375MOL0     C50546  10.952   4.159  10.117  0.8359  0.1461 -0.2368
  375MOL0     C50547  10.889   4.045  10.053 -0.6000  1.0802 -0.5633
  375MOL0     O50548  10.780   3.981  10.111 -0.6047 -0.2099 -0.2032
  375MOL0     C50549  10.733   3.853  10.075  0.0733  0.3804 -0.0974
  375MOL0     C50550  10.634   3.859   9.953 -0.3514  0.4865 -0.8583
  375MOL0     C50551  10.499   3.921   9.986 -0.8965  0.3316 -0.5156
  375MOL0     C50552  10.414   3.823  10.075 -0.2824 -0.0685 -0.2450
  375MOL0     C50553  10.285   3.886  10.110  0.0072 -0.0315 -0.3119
  375MOL0     C50554  10.183   3.958  10.146 -1.1075 -0.6721  0.5871
  375MOL0     C50555  10.960   3.997   9.939  0.1441 -0.2773 -0.1917
  375MOL0     C50556  11.086   4.053   9.900  0.5541  0.8238  0.1649
  375MOL0     C50557  11.160   3.989   9.786 -0.1267 -0.1581 -0.0057
  375MOL0     H50558  11.267   4.406   9.688 -1.0946  0.2110  0.3148
  375MOL0     H50559  11.444   4.536   9.565  1.3259 -3.1037 -0.8791
  375MOL0     H50560  11.678   4.527   9.547 -3.5810 -0.8540  0.1169
  375MOL0     H50561  11.618   4.687   9.492  1.2969  1.8384 -0.0494
  375MOL0     H50562  11.820   4.793   9.575  0.0989 -0.2147  0.6892
  375MOL0     H50563  11.848   4.686   9.442  0.6390 -1.5617  0.0866
  375MOL0     H50564  11.918   4.503   9.623 -2.8202 -0.2045  1.0197
  375MOL0     H50565  11.907   4.628   9.742 -2.3141  0.5745 -1.3860
  375MOL0     H50566  12.110   4.637   9.504 -0.5794 -0.2993  0.5528
  375MOL0     H50567  12.089   4.755   9.640 -0.2650  1.4417 -2.3805
  375MOL0     H50568  12.146   4.448   9.674  1.5519 -0.4425  0.4458
  375MOL0     H50569  12.277   4.554   9.660  1.0237  0.2172  1.3598
  375MOL0     H50570  12.204   4.693   9.850 -1.4178  0.4552  1.6325
  375MOL0     H50571  12.073   4.581   9.878  0.5558  0.7286  0.7387
  375MOL0     H50572  12.295   4.405   9.857 -0.7021 -0.0484 -0.4256
  375MOL0     H50573  12.196   4.448   9.987  1.5647 -2.1254 -0.8749
  375MOL0     H50574  12.340   4.626  10.036  4.4516 -1.8486  3.7601
  375MOL0     H50575  12.435   4.472  10.026  1.4387  0.2617 -2.1095
  375MOL0     H50576  12.531   4.781   9.992  0.6396  1.4727 -0.4162
  375MOL0     H50577  12.775   4.862   9.728 -0.0866 -2.4467 -0.5890
  375MOL0     H50578  12.736   4.891   9.904  0.3586 -0.7057  0.8154
  375MOL0     H50579  12.935   4.693   9.773 -2.0896 -0.5019 -0.4842
  375MOL0     H50580  12.983   4.844   9.850  2.1946 -0.7397  0.7187
  375MOL0     H50581  12.864   4.590   9.977  2.1412 -1.2977 -0.2749
  375MOL0     H50582  12.858   4.734  10.070 -0.2380 -0.6717 -0.0783
  375MOL0     H50583  13.128   4.637   9.962  0.8787 -2.3125  0.8676
  375MOL0     H50584  13.060   4.581  10.116  2.1163 -0.5234 -0.0030
  375MOL0     H50585  13.336   4.642  10.038  1.0590  1.1958  0.2466
  375MOL0     H50586  13.522   4.608  10.167  0.6933  0.6129 -1.1018
  375MOL0     H50587  13.864   4.546  10.216  1.5469 -1.5237 -0.0969
  375MOL0     H50588  14.093   4.503  10.279  0.5370  1.4806  0.3095
  375MOL0     H50589  14.281   4.394  10.418  0.5888 -0.3309  1.0411
  375MOL0     H50590  14.299   4.538  10.314 -1.1856  2.0045  1.2161
  375MOL0     H50591  14.447   4.644  10.482  0.8363  0.2100 -1.8653
  375MOL0     H50592  14.454   4.485  10.562  3.1074 -2.4381 -1.2253
  375MOL0     H50593  14.569   4.386  10.383 -1.6911  0.1782  1.5232
  375MOL0     H50594  14.524   4.506  10.269  1.5408 -0.7670 -0.5153
  375MOL0     H50595  14.721   4.555  10.506  0.0520 -0.8971  0.9821
  375MOL0     H50596  14.682   4.679  10.378  1.7621 -0.3864 -1.6090
  375MOL0     H50597  14.767   4.523  10.201  0.1687  0.2071 -0.7407
  375MOL0     H50598  14.814   4.404  10.329  3.2693 -0.4052 -1.2148
  375MOL0     H50599  14.960   4.566  10.431 -0.5100 -1.0207 -0.9544
  375MOL0     H50600  15.014   4.515  10.264  1.9502 -0.6578  1.5467
  375MOL0     H50601  14.888   4.775  10.344  0.9631 -1.3753  2.5091
  375MOL0     H50602  14.918   4.726  10.171  3.0055  1.8440 -0.2281
  375MOL0     H50603  15.164   4.704  10.351 -1.6594  0.7015  1.3970
  375MOL0     H50604  15.130   4.776  10.190 -0.1187 -2.3317 -0.1593
  375MOL0     H50605  14.003   4.618  10.680  1.8746  0.7410 -0.3277
  375MOL0     H50606  13.764   4.638  10.625 -0.6923 -1.1836 -0.4879
  375MOL0     H50607  13.355   4.858  10.476  1.2624 -2.0469  1.1501
  375MOL0     H50608  13.150   4.893  10.347  1.4602 -0.7408  1.6350
  375MOL0     H50609  11.601   4.666   9.951  0.8259  0.6679 -0.0922
  375MOL0     H50610  11.434   4.509  10.056 -0.0338  1.6375 -0.8131
  375MOL0     H50611  11.093   4.326  10.105  0.4484  0.3522  0.8823
  375MOL0     H50612  10.904   4.196  10.207  5.0593  1.9740  1.5462
  375MOL0     H50613  10.674   3.820  10.162 -2.1706 -1.3754 -2.1180
  375MOL0     H50614  10.807   3.774  10.060  0.8071  0.4855  2.5790
  375MOL0     H50615  10.615   3.759   9.913 -2.3895  1.2277 -1.8894
  375MOL0     H50616  10.680   3.919   9.874 -0.5582  4.2131  1.5931
  375MOL0     H50617  10.446   3.935   9.891 -1.3103  0.8945 -0.2095
  375MOL0     H50618  10.505   4.018  10.035  1.0716  1.4546 -2.7824
  375MOL0     H50619  10.390   3.734  10.016 -1.7022  0.6831 -0.8526
  375MOL0     H50620  10.474   3.803  10.164 -0.4283 -1.8438 -0.5022
  375MOL0     H50621  10.102   4.011  10.191 -2.0338 -0.7599 -0.9180
  375MOL0     H50622  10.944   3.905   9.884 -0.1430 -1.4190  1.6762
  375MOL0     H50623  11.190   4.068   9.716  3.9463 -0.5689  1.0059
  375MOL0     H50624  11.250   3.938   9.821 -1.4796 -2.4631  0.3577
  375MOL0     H50625  11.105   3.912   9.731 -0.0276 -0.2367  0.0062
  376MOL0     O50626  10.385   2.084  11.082  0.0879  0.5178  0.0221
  376MOL0     C50627  10.421   2.171  11.005 -0.0472  0.3514 -0.2347
  376MOL0     O50628  10.351   2.226  10.905 -0.0345  0.2010 -0.0237
  376MOL0     C50629  10.228   2.175  10.874  0.3590 -0.4047 -0.1312
  376MOL0     C50630  10.209   2.038  10.858 -0.8063  0.5112  0.0879
  376MOL0     C50631  10.080   1.985  10.840 -0.0127  0.2398  0.9433
  376MOL0     C50632   9.967   2.067  10.830  0.6220 -0.7660 -0.8442
  376MOL0     O50633   9.840   2.008  10.806 -0.1733 -0.4688 -0.1929
  376MOL0     C50634   9.724   2.096  10.792 -0.6962  0.6985  0.0917
  376MOL0     C50635   9.594   2.015  10.796 -0.1162  0.7003 -0.0359
  376MOL0     C50636   9.472   2.100  10.820 -0.4043  0.7831  0.8924
  376MOL0     C50637   9.349   2.019  10.868 -0.1573  0.0693 -0.6171
  376MOL0     C50638   9.230   2.117  10.904 -0.1688  0.2582 -0.3462
  376MOL0     C50639   9.099   2.046  10.919  0.4005  0.1420 -0.2511
  376MOL0     C50640   9.096   1.967  11.050 -0.6365  0.2142  0.2545
  376MOL0     C50641   8.972   1.894  11.091  0.0376 -0.0821 -0.1279
  376MOL0     N50642   9.019   1.785  11.186  0.1269 -0.4838  0.0966
  376MOL0     C50643   9.087   1.680  11.148 -0.2850 -0.7204  0.7252
  376MOL0     C50644   9.146   1.634  11.259 -0.4656  0.3324  0.8165
  376MOL0     C50645   9.232   1.505  11.253  0.1307 -1.3496  0.3878
  376MOL0     C50646   9.367   1.536  11.324 -0.1566 -0.4198  0.8992
  376MOL0     C50647   9.462   1.631  11.245 -0.5481 -0.4543 -0.0561
  376MOL0     C50648   9.594   1.655  11.327 -0.9756 -1.2931  0.2381
  376MOL0     O50649   9.698   1.732  11.254  0.4221  0.0889 -0.3675
  376MOL0     C50650   9.780   1.663  11.171 -0.5183  1.3783  0.7297
  376MOL0     C50651   9.775   1.524  11.128 -0.4848 -0.7728 -0.3141
  376MOL0     C50652   9.874   1.479  11.040 -0.6656 -1.0447 -0.0552
  376MOL0     C50653   9.985   1.559  11.007  0.2540  0.7273  0.4198
  376MOL0     C50654  10.101   1.508  10.933  0.1074 -0.8489  0.1298
  376MOL0     O50655  10.107   1.385  10.894  0.4124 -0.1683  0.1335
  376MOL0     C50656  10.198   1.345  10.799  0.1662  0.2694 -0.6110
  376MOL0     C50657  10.176   1.376  10.660 -0.3284 -0.5255 -1.2261
  376MOL0     C50658  10.245   1.314  10.563 -0.1919  0.9586 -0.9923
  376MOL0     C50659  10.363   1.242  10.598  0.0477  0.3803  0.6801
  376MOL0     O50660  10.449   1.176  10.510  0.1782 -0.0446 -0.1696
  376MOL0     C50661  10.405   1.163  10.377 -0.4093  0.3739  0.0582
  376MOL0     C50662  10.450   1.287  10.302  0.0403  0.6335 -0.3252
  376MOL0     C50663  10.371   1.296  10.171  0.1499  0.1070  0.5004
  376MOL0     C50664  10.441   1.357  10.057  0.3460 -1.7078  0.6378
  376MOL0     C50665  10.380   1.341   9.921 -0.0078 -0.3468  0.1721
  376MOL0     C50666  10.231   1.376   9.924 -0.0614 -0.5850  0.1394
  376MOL0     C50667  10.153   1.339   9.798  0.1222  0.4429 -0.2822
  376MOL0     C50668  10.176   1.453   9.707 -0.9271 -0.2637 -0.1889
  376MOL0    Cl50669  10.064   1.439   9.561  0.0805 -0.2261  0.4393
  376MOL0     C50670  10.386   1.218  10.740  0.3302 -0.1982  0.1540
  376MOL0     C50671  10.292   1.256  10.839 -0.2565  0.3036 -0.1068
  376MOL0     O50672  10.189   1.596  10.907  0.1204  0.0809 -0.5680
  376MOL0     C50673   9.987   1.686  11.057 -0.2001 -0.0208 -0.4531
  376MOL0     C50674   9.880   1.740  11.131  1.5743 -1.0783 -0.0723
  376MOL0     N50675   9.110   1.707  11.369 -0.3357 -0.2537  0.4540
  376MOL0     N50676   9.034   1.802  11.320  0.3405 -0.0247  0.1640
  376MOL0     C50677   9.989   2.208  10.845 -0.2306 -0.3714  1.0073
  376MOL0     C50678  10.116   2.262  10.868 -0.1962  0.6336 -0.7194
  376MOL0     C50679  10.558   2.218  11.011  0.2251  0.1504 -0.9034
  376MOL0     C50680  10.639   2.206  10.899 -0.2474  0.3540  0.0720
  376MOL0     C50681  10.770   2.260  10.881 -1.1485  0.1450 -0.7769
  376MOL0     C50682  10.809   2.334  10.991 -0.9104 -0.4022 -0.3312
  376MOL0     O50683  10.931   2.408  10.989 -0.2574 -0.1868  0.9740
  376MOL0     C50684  11.039   2.344  10.913 -0.5905  0.1088  0.0341
  376MOL0     C50685  11.174   2.396  10.963  0.0618  0.4297  0.4269
  376MOL0     C50686  11.221   2.334  11.102  0.4524 -0.1904  0.5145
  376MOL0     C50687  11.340   2.405  11.160 -0.0580  0.5356  0.6683
  376MOL0     C50688  11.442   2.437  11.059 -0.3475 -0.5838 -0.2368
  376MOL0     C50689  11.513   2.467  10.962  0.3216 -0.5614  0.1035
  376MOL0     C50690  10.735   2.351  11.101  0.0704 -0.0006 -0.4183
  376MOL0     C50691  10.613   2.296  11.120  0.3299 -1.2123 -0.4025
  376MOL0     C50692  10.532   2.326  11.243  0.2082 -0.1633 -0.0220
  376MOL0     H50693  10.296   1.972  10.865 -3.2013 -2.9788 -0.3975
  376MOL0     H50694  10.062   1.879  10.854  1.7628 -0.0949  0.8768
  376MOL0     H50695   9.730   2.169  10.873  1.4977 -0.2108  0.8292
  376MOL0     H50696   9.747   2.151  10.699 -0.6313  1.7042  0.6829
  376MOL0     H50697   9.607   1.950  10.883  1.1675  0.3929 -0.4269
  376MOL0     H50698   9.579   1.943  10.715 -0.4340  0.5338  0.1688
  376MOL0     H50699   9.458   2.161  10.730  0.1399  1.8838  1.5208
  376MOL0     H50700   9.500   2.173  10.896  2.8856 -0.0557  0.6532
  376MOL0     H50701   9.319   1.944  10.794 -2.3445 -1.0801  1.3106
  376MOL0     H50702   9.373   1.957  10.954  2.4256  2.1671  0.3360
  376MOL0     H50703   9.253   2.166  10.998 -0.6569 -2.3226  1.2129
  376MOL0     H50704   9.225   2.191  10.823 -0.3621  0.9687  0.3127
  376MOL0     H50705   9.024   2.125  10.920  1.2057  0.9020  0.7308
  376MOL0     H50706   9.066   1.983  10.835  2.8162  0.5075 -1.5764
  376MOL0     H50707   9.116   2.044  11.125 -1.5807  2.8342 -2.0133
  376MOL0     H50708   9.177   1.894  11.043  1.3028  2.3610 -1.3771
  376MOL0     H50709   8.913   1.974  11.136  0.9553  1.4213 -1.4976
  376MOL0     H50710   8.913   1.845  11.013 -0.0126  1.8014 -1.3509
  376MOL0     H50711   9.105   1.647  11.046 -0.6315  1.3181 -0.0340
  376MOL0     H50712   9.162   1.439  11.304 -2.4759 -0.1705 -1.4806
  376MOL0     H50713   9.241   1.477  11.148  2.5404  1.4620 -0.2861
  376MOL0     H50714   9.353   1.571  11.426 -1.4252  0.2095  0.5332
  376MOL0     H50715   9.423   1.442  11.333  0.9415  0.3455  2.5692
  376MOL0     H50716   9.415   1.728  11.223  2.7203  1.5315  0.9645
  376MOL0     H50717   9.505   1.588  11.154  3.1956  1.3491  0.6491
  376MOL0     H50718   9.643   1.561  11.352  1.3640  0.1197  1.2638
  376MOL0     H50719   9.570   1.713  11.416 -1.8568 -1.7212  0.2947
  376MOL0     H50720   9.698   1.457  11.164 -2.2054  0.9815 -0.5671
  376MOL0     H50721   9.860   1.373  11.023 -2.5551 -0.7522 -0.4760
  376MOL0     H50722  10.089   1.435  10.634 -1.6482 -2.2792 -0.9285
  376MOL0     H50723  10.203   1.326  10.464 -0.1887  0.8724 -1.0048
  376MOL0     H50724  10.455   1.078  10.331  0.0123  0.4689  0.3387
  376MOL0     H50725  10.297   1.145  10.382 -0.4222 -2.4898 -4.7141
  376MOL0     H50726  10.459   1.381  10.358  1.6827  0.0972  0.3950
  376MOL0     H50727  10.556   1.270  10.277  0.1866  1.3438 -0.2378
  376MOL0     H50728  10.342   1.196  10.139  0.8064  0.6895 -2.2108
  376MOL0     H50729  10.279   1.354  10.183  0.9697  1.3758  0.8474
  376MOL0     H50730  10.542   1.318  10.044  0.7844 -0.3843 -0.2040
  376MOL0     H50731  10.449   1.465  10.075  2.6650 -1.7176  0.0160
  376MOL0     H50732  10.389   1.236   9.891  1.0684  0.3654 -2.2432
  376MOL0     H50733  10.432   1.405   9.848  0.1488  0.4929  1.0046
  376MOL0     H50734  10.183   1.324  10.007  0.3593  3.5794  3.3160
  376MOL0     H50735  10.208   1.479   9.952 -2.8283 -1.0464 -0.1335
  376MOL0     H50736  10.047   1.327   9.825 -0.4640  1.6106 -1.8724
  376MOL0     H50737  10.196   1.247   9.758  0.8958  0.2733  0.8928
  376MOL0     H50738  10.163   1.551   9.754 -1.4954 -0.6881  0.5611
  376MOL0     H50739  10.279   1.453   9.670  0.2499  0.3920  2.8105
  376MOL0     H50740  10.461   1.146  10.770  3.5850  2.4246 -0.9812
  376MOL0     H50741  10.308   1.221  10.940  3.2656 -0.1718 -0.7051
  376MOL0     H50742  10.072   1.750  11.040  1.5348 -0.9748  3.5138
  376MOL0     H50743   9.891   1.839  11.173  5.3626 -1.2988 -0.2636
  376MOL0     H50744   9.910   2.282  10.840 -0.1467 -0.3100  0.5048
  376MOL0     H50745  10.128   2.368  10.889  0.2828  0.2735  0.9974
  376MOL0     H50746  10.611   2.138  10.819 -2.0237 -1.3037  1.9913
  376MOL0     H50747  10.834   2.254  10.793 -1.4458  2.3081 -1.1932
  376MOL0     H50748  11.018   2.369  10.808 -1.9592  1.4790  0.5908
  376MOL0     H50749  11.051   2.237  10.933 -4.5470 -0.6847 -0.8834
  376MOL0     H50750  11.175   2.506  10.961  1.0287  0.4323  0.6011
  376MOL0     H50751  11.254   2.367  10.895  2.3912  3.5415  1.5973
  376MOL0     H50752  11.246   2.228  11.100  3.4213  0.4178  0.5977
  376MOL0     H50753  11.137   2.326  11.172  1.0770 -2.5489  1.0767
  376MOL0     H50754  11.305   2.498  11.207 -0.1717 -0.0597  1.8008
  376MOL0     H50755  11.380   2.331  11.230 -3.3369 -1.6483  0.4722
  376MOL0     H50756  11.561   2.486  10.869 -1.6613 -0.1064 -0.8912
  376MOL0     H50757  10.775   2.421  11.173 -0.0957  1.5281 -1.7680
  376MOL0     H50758  10.438   2.364  11.202  0.5583 -1.9995 -2.8173
  376MOL0     H50759  10.526   2.232  11.299  1.1170 -1.9030 -2.6456
  376MOL0     H50760  10.562   2.404  11.313  0.6779 -1.9452  1.8835
  377MOL0     O50761   8.624   5.477   6.756 -0.5524  0.8637 -0.1051
  377MOL0     C50762   8.577   5.386   6.683 -0.0965 -0.2223  0.3464
  377MOL0     O50763   8.639   5.285   6.621  0.0700 -0.0918  0.1688
  377MOL0     C50764   8.767   5.275   6.659 -0.1258 -0.5367  0.2258
  377MOL0     C50765   8.792   5.174   6.753  0.3656 -0.2894  0.6633
  377MOL0     C50766   8.918   5.147   6.805 -0.2785 -1.2345 -0.3189
  377MOL0     C50767   9.025   5.223   6.756  0.4632  0.4057 -0.0251
  377MOL0     O50768   9.149   5.178   6.797 -0.1524 -0.0825  0.5056
  377MOL0     C50769   9.263   5.258   6.784  1.3655 -0.0140  0.6246
  377MOL0     C50770   9.377   5.165   6.821  0.3277 -0.0618 -0.1025
  377MOL0     C50771   9.406   5.062   6.705  0.7908 -0.2459 -0.1510
  377MOL0     C50772   9.505   4.965   6.766 -0.1937 -0.3775  0.8447
  377MOL0     C50773   9.643   5.015   6.764 -0.1220 -1.1046  0.2443
  377MOL0     C50774   9.748   4.907   6.752 -0.5768  0.8172 -0.5099
  377MOL0     C50775   9.892   4.963   6.736  0.4245  0.9286 -0.3030
  377MOL0     C50776   9.925   5.045   6.860  0.6922  0.0828 -0.3438
  377MOL0     N50777  10.071   5.065   6.877 -0.6848 -0.0528 -0.0185
  377MOL0     C50778  10.131   5.083   7.003  0.4599 -0.0088  0.0939
  377MOL0     C50779  10.266   5.084   6.963  0.8327 -0.8362  0.3493
  377MOL0     C50780  10.390   5.063   7.042  1.6642  0.9707 -0.8815
  377MOL0     C50781  10.380   5.130   7.178  0.2042 -0.1853  0.4006
  377MOL0     C50782  10.499   5.101   7.271  0.1443 -0.7695 -0.0845
  377MOL0     C50783  10.479   5.155   7.415  0.0308  0.4588  0.2788
  377MOL0     O50784  10.414   5.061   7.499 -0.4073  0.5904  0.4676
  377MOL0     C50785  10.281   5.070   7.526 -0.6550  0.4769  0.0621
  377MOL0     C50786  10.238   4.967   7.609  0.0897 -0.5713  0.2186
  377MOL0     C50787  10.098   4.958   7.642  1.1243  0.5437 -0.2612
  377MOL0     C50788  10.011   5.060   7.595  0.6871 -0.1395 -0.1044
  377MOL0     C50789   9.880   5.070   7.645  0.2153 -0.1013 -0.1943
  377MOL0     O50790   9.819   4.952   7.693 -0.0581  0.2248  0.4608
  377MOL0     C50791   9.686   4.951   7.734  0.7102 -0.2393  0.3061
  377MOL0     C50792   9.593   5.003   7.641  0.3611 -0.0735 -0.7918
  377MOL0     C50793   9.459   5.025   7.676  0.6264 -0.1639  0.4483
  377MOL0     C50794   9.414   4.988   7.803 -0.6855 -0.3930 -1.3870
  377MOL0     O50795   9.293   5.006   7.861 -0.1833  0.1313  0.0752
  377MOL0     C50796   9.205   5.096   7.800 -0.6238  0.7786 -0.2511
  377MOL0     C50797   9.070   5.115   7.878  0.8909  0.2833  0.2776
  377MOL0     C50798   8.948   5.131   7.786  0.4240 -0.1912 -0.2762
  377MOL0     C50799   8.821   5.156   7.867  0.4243  0.2701  0.2681
  377MOL0     C50800   8.688   5.160   7.778 -0.9277 -0.1536 -0.2588
  377MOL0     C50801   8.681   5.299   7.711  0.0750 -0.1930  0.7655
  377MOL0     C50802   8.580   5.311   7.590  0.4047  0.0657 -0.4559
  377MOL0     C50803   8.448   5.257   7.617  0.7149  0.1251 -1.1215
  377MOL0    Cl50804   8.367   5.348   7.737  0.6592  0.0332  0.2508
  377MOL0     C50805   9.512   4.931   7.886  0.0277  0.2095  0.0005
  377MOL0     C50806   9.643   4.924   7.854 -0.4811  0.8717 -0.1057
  377MOL0     O50807   9.822   5.181   7.635  0.9399 -0.3044  0.0459
  377MOL0     C50808  10.054   5.156   7.499  0.3440 -0.2209 -0.4616
  377MOL0     C50809  10.188   5.162   7.479  0.5623  0.4954 -0.0271
  377MOL0     N50810  10.271   5.097   6.825 -0.9276  0.3307 -0.0328
  377MOL0     N50811  10.155   5.078   6.771 -1.0937  1.2425 -0.8112
  377MOL0     C50812   9.003   5.337   6.664  0.4255 -0.6406  0.0085
  377MOL0     C50813   8.868   5.360   6.618 -0.1365  0.0987 -0.0372
  377MOL0     C50814   8.435   5.394   6.641  0.0639 -0.0514 -0.2119
  377MOL0     C50815   8.394   5.347   6.514 -0.6173  0.2189 -1.0406
  377MOL0     C50816   8.255   5.344   6.483  0.2781  0.3465  0.3424
  377MOL0     C50817   8.161   5.400   6.566  0.7150 -0.5366 -0.4309
  377MOL0     O50818   8.030   5.393   6.528  0.4656  0.2880 -0.0935
  377MOL0     C50819   7.926   5.453   6.607 -0.2439  0.5447  1.1920
  377MOL0     C50820   7.794   5.410   6.550 -0.1763 -0.6341  0.1520
  377MOL0     C50821   7.733   5.277   6.593 -0.0792  0.4256 -0.5487
  377MOL0     C50822   7.765   5.170   6.498  0.2105 -0.1493 -0.4559
  377MOL0     C50823   7.701   5.054   6.547  0.2942  0.2705  0.4107
  377MOL0     C50824   7.659   4.947   6.596 -0.1215 -0.0868  0.1395
  377MOL0     C50825   8.213   5.458   6.681 -0.9471  0.1854  1.0249
  377MOL0     C50826   8.345   5.463   6.724 -0.1087  0.3727  0.2948
  377MOL0     C50827   8.378   5.524   6.853  0.9225 -0.4110 -1.2217
  377MOL0     H50828   8.700   5.130   6.790 -0.1831 -1.4198 -1.7732
  377MOL0     H50829   8.935   5.074   6.884  3.7661  0.7671  0.8899
  377MOL0     H50830   9.266   5.302   6.683  0.8171 -1.1551  0.0969
  377MOL0     H50831   9.271   5.336   6.860  1.6568  0.2524  0.3250
  377MOL0     H50832   9.353   5.119   6.917 -1.1112  1.0160  0.0937
  377MOL0     H50833   9.471   5.217   6.842  1.1478 -1.9804  1.1715
  377MOL0     H50834   9.446   5.116   6.620  2.6547 -0.2896  0.6614
  377MOL0     H50835   9.315   5.009   6.675 -0.8999  1.6820  1.2201
  377MOL0     H50836   9.474   4.932   6.866 -1.9115  1.8139  1.0988
  377MOL0     H50837   9.505   4.875   6.703  0.7359  2.1240 -3.0478
  377MOL0     H50838   9.656   5.077   6.675 -1.5517 -0.2733  0.5868
  377MOL0     H50839   9.660   5.076   6.854 -1.0578  1.6110 -1.3053
  377MOL0     H50840   9.752   4.843   6.841  3.1181 -0.2423 -1.2807
  377MOL0     H50841   9.732   4.841   6.666  1.0384  0.8042 -0.8278
  377MOL0     H50842   9.893   5.014   6.640 -1.3808 -2.7392 -2.5050
  377MOL0     H50843   9.972   4.888   6.729 -0.4205 -0.2191  1.3144
  377MOL0     H50844   9.880   5.144   6.865 -3.1019 -1.4914  0.1859
  377MOL0     H50845   9.893   4.985   6.946  0.0270  1.0398  0.0919
  377MOL0     H50846  10.088   5.087   7.103  1.4350  0.7752  0.5012
  377MOL0     H50847  10.402   4.955   7.059  0.9314  0.9425 -0.5047
  377MOL0     H50848  10.481   5.095   6.990  3.1995 -1.5793  0.0496
  377MOL0     H50849  10.358   5.237   7.171 -1.7688 -0.6241 -1.0480
  377MOL0     H50850  10.288   5.098   7.228 -0.1391  2.9433  2.0723
  377MOL0     H50851  10.590   5.135   7.221  0.5899 -0.2740  1.0342
  377MOL0     H50852  10.513   4.992   7.270 -1.1996 -1.0193 -2.8398
  377MOL0     H50853  10.431   5.254   7.424 -1.1602 -0.0958  0.2476
  377MOL0     H50854  10.585   5.172   7.432  0.8531 -0.1164 -3.3156
  377MOL0     H50855  10.309   4.893   7.646  0.6913 -0.2695 -0.3126
  377MOL0     H50856  10.063   4.883   7.712 -1.5722  1.5114 -0.4671
  377MOL0     H50857   9.633   5.014   7.540 -1.4759  0.8853 -1.4545
  377MOL0     H50858   9.402   5.056   7.589  0.0282 -0.2588  0.8010
  377MOL0     H50859   9.249   5.194   7.777  1.5011 -0.5844 -2.5500
  377MOL0     H50860   9.184   5.045   7.705  3.1197  0.1567 -0.9180
  377MOL0     H50861   9.049   5.022   7.932 -0.4714  1.3155  1.6202
  377MOL0     H50862   9.084   5.189   7.957 -0.5290  0.8647  0.0155
  377MOL0     H50863   8.962   5.212   7.713 -0.7986  1.4185  1.1692
  377MOL0     H50864   8.927   5.043   7.725  3.4205 -1.0055 -0.2798
  377MOL0     H50865   8.821   5.258   7.907 -1.1277  0.1252  0.7164
  377MOL0     H50866   8.799   5.082   7.944  3.6508 -1.3391 -0.1804
  377MOL0     H50867   8.605   5.152   7.849  0.0599 -1.6022  0.7783
  377MOL0     H50868   8.683   5.076   7.709 -2.0429  0.7788 -1.3587
  377MOL0     H50869   8.650   5.372   7.786 -2.0164 -0.4416  0.2184
  377MOL0     H50870   8.778   5.331   7.672  1.0537  1.3923  4.1839
  377MOL0     H50871   8.620   5.252   7.507 -1.5992 -1.6788 -0.2730
  377MOL0     H50872   8.582   5.415   7.558  1.6177  0.5027  0.9169
  377MOL0     H50873   8.393   5.238   7.524  1.6972 -3.5525 -1.1199
  377MOL0     H50874   8.456   5.151   7.645 -1.6766  0.1529 -0.0602
  377MOL0     H50875   9.488   4.907   7.989 -1.1595 -0.7729 -0.4697
  377MOL0     H50876   9.715   4.897   7.931 -1.9901  1.5907  1.6342
  377MOL0     H50877   9.987   5.234   7.463 -0.6030 -2.3388 -3.8057
  377MOL0     H50878  10.214   5.234   7.402 -1.7936 -1.7665 -3.2105
  377MOL0     H50879   9.079   5.410   6.640 -1.2265  1.2608  0.2327
  377MOL0     H50880   8.847   5.452   6.566  1.4808  1.8593  2.2363
  377MOL0     H50881   8.468   5.303   6.448  1.4551  0.9863  0.6869
  377MOL0     H50882   8.224   5.293   6.392  2.8859  1.2252 -1.1440
  377MOL0     H50883   7.943   5.559   6.589 -0.5833  0.2634 -1.0018
  377MOL0     H50884   7.933   5.427   6.714 -0.2153 -3.1695  0.4137
  377MOL0     H50885   7.789   5.434   6.443 -0.0511 -1.5944 -0.0764
  377MOL0     H50886   7.720   5.486   6.575 -0.0942  0.3549 -2.3166
  377MOL0     H50887   7.625   5.289   6.598  0.1317  3.1213 -0.6192
  377MOL0     H50888   7.775   5.252   6.691 -1.2917  2.4514  0.5766
  377MOL0     H50889   7.730   5.205   6.400 -1.4299  3.0534  1.1381
  377MOL0     H50890   7.873   5.150   6.495  0.5861  0.0696  4.3885
  377MOL0     H50891   7.617   4.862   6.645 -4.3454  2.3452  1.2990
  377MOL0     H50892   8.146   5.512   6.747 -2.2295  0.1638 -0.1993
  377MOL0     H50893   8.283   5.520   6.908  2.4508 -3.4193  1.5350
  377MOL0     H50894   8.452   5.476   6.918 -1.7419 -1.2425  1.4196
  377MOL0     H50895   8.396   5.631   6.845  1.2839 -0.5253 -2.1156
  378MOL0     O50896   4.013   3.489   4.279  0.5598  0.0891 -0.0478
  378MOL0     C50897   3.982   3.521   4.167 -0.9561 -0.2297  0.1407
  378MOL0     O50898   4.076   3.579   4.083  0.1107  0.1110 -0.1944
  378MOL0     C50899   4.185   3.636   4.126  0.0120 -0.4733  0.8171
  378MOL0     C50900   4.290   3.641   4.035 -0.7803  0.8090  0.2722
  378MOL0     C50901   4.412   3.699   4.078  0.5175 -0.6860  0.7469
  378MOL0     C50902   4.427   3.768   4.198  0.0759  0.0910 -0.1851
  378MOL0     O50903   4.553   3.809   4.234  0.3476 -0.5086 -0.1795
  378MOL0     C50904   4.566   3.882   4.359  0.0091  0.3234  0.9315
  378MOL0     C50905   4.699   3.963   4.364  0.5556 -0.6533 -0.2064
  378MOL0     C50906   4.820   3.884   4.396  0.4466 -0.8449  0.3070
  378MOL0     C50907   4.953   3.966   4.370  0.8388  0.1992  0.3289
  378MOL0     C50908   4.975   4.086   4.465  0.8895  0.1374 -0.2138
  378MOL0     C50909   5.107   4.150   4.453  0.4714  1.3409  0.5972
  378MOL0     C50910   5.114   4.284   4.524  0.5448 -0.1393  0.0518
  378MOL0     C50911   5.253   4.350   4.515  0.8442  0.4316  0.6280
  378MOL0     N50912   5.352   4.296   4.597 -0.5034 -0.4213 -0.3327
  378MOL0     C50913   5.388   4.330   4.725 -0.0623 -0.1005  0.2142
  378MOL0     C50914   5.493   4.252   4.754 -0.3313 -0.6545 -0.4300
  378MOL0     C50915   5.539   4.245   4.890  0.6953  0.3118  0.4405
  378MOL0     C50916   5.660   4.340   4.925 -0.4277 -0.1243  1.0932
  378MOL0     C50917   5.733   4.306   5.051  0.5112  0.2363 -0.2197
  378MOL0     C50918   5.837   4.416   5.108  0.6267  0.0894 -0.5340
  378MOL0     O50919   5.968   4.380   5.052 -1.1675 -0.6756 -1.1115
  378MOL0     C50920   6.075   4.467   5.078  0.7342 -0.9220  0.1605
  378MOL0     C50921   6.087   4.585   5.164  0.1398  0.5012 -0.2319
  378MOL0     C50922   6.209   4.642   5.203 -0.3417  0.4226 -0.1944
  378MOL0     C50923   6.325   4.582   5.156 -0.5965 -0.5802  0.2357
  378MOL0     C50924   6.453   4.641   5.186 -0.5501 -0.2430 -0.0869
  378MOL0     O50925   6.455   4.744   5.274  0.4123 -0.0230 -0.0808
  378MOL0     C50926   6.575   4.809   5.308 -0.5618  0.2951 -0.9609
  378MOL0     C50927   6.674   4.850   5.220  0.2512 -0.0244  0.4945
  378MOL0     C50928   6.793   4.904   5.260 -0.0558  0.3304 -0.1159
  378MOL0     C50929   6.826   4.898   5.399  0.3570 -0.3991  1.0954
  378MOL0     O50930   6.951   4.926   5.440 -0.1927  0.1323 -0.2002
  378MOL0     C50931   7.053   4.967   5.346 -0.3970  0.3586  0.0359
  378MOL0     C50932   7.172   5.018   5.424 -0.5253 -0.1453  0.2507
  378MOL0     C50933   7.143   5.156   5.486  0.1679  0.6635 -0.6805
  378MOL0     C50934   7.266   5.237   5.522  0.3498 -0.2741 -0.6359
  378MOL0     C50935   7.229   5.355   5.610  1.1005  0.4010 -0.3382
  378MOL0     C50936   7.359   5.432   5.653  0.5935 -0.2565 -0.2819
  378MOL0     C50937   7.338   5.547   5.762 -0.2896 -0.3862 -0.1251
  378MOL0     C50938   7.476   5.565   5.834  0.3299  0.2867 -0.6227
  378MOL0    Cl50939   7.605   5.612   5.716 -0.1674 -0.1994 -0.5939
  378MOL0     C50940   6.732   4.862   5.498 -0.4549  0.0967  0.7566
  378MOL0     C50941   6.601   4.825   5.449  0.2137  0.0017  1.1186
  378MOL0     O50942   6.553   4.587   5.142  0.3505  0.3100  0.0673
  378MOL0     C50943   6.315   4.472   5.067 -0.8125 -0.0899 -0.7162
  378MOL0     C50944   6.195   4.425   5.029 -0.7966 -0.2951  0.1555
  378MOL0     N50945   5.513   4.158   4.651  0.7141  0.0715 -0.7036
  378MOL0     N50946   5.430   4.191   4.550 -0.1205  0.5632 -0.5170
  378MOL0     C50947   4.322   3.770   4.291 -0.0297  0.4972 -0.3138
  378MOL0     C50948   4.197   3.708   4.251 -1.2648 -0.1933 -0.9527
  378MOL0     C50949   3.841   3.505   4.129 -0.6325 -0.6842  0.0201
  378MOL0     C50950   3.801   3.521   3.993  0.4175  0.0446  0.5451
  378MOL0     C50951   3.674   3.498   3.939  0.1306 -1.0223 -0.1790
  378MOL0     C50952   3.576   3.465   4.033 -0.1862 -0.7225  0.8343
  378MOL0     O50953   3.451   3.453   3.978  0.0989 -0.0554  0.5177
  378MOL0     C50954   3.349   3.494   4.070 -0.4337 -0.0174  0.4268
  378MOL0     C50955   3.222   3.507   3.986 -0.9380  0.1484 -0.0495
  378MOL0     C50956   3.254   3.585   3.858  0.3792  0.2256 -0.9348
  378MOL0     C50957   3.129   3.642   3.786 -0.6338 -0.2600 -0.2577
  378MOL0     C50958   3.022   3.693   3.873 -0.0097 -0.5083 -0.0766
  378MOL0     C50959   2.958   3.740   3.964  0.2743 -0.6467 -0.4847
  378MOL0     C50960   3.603   3.450   4.167 -0.7702 -0.0967 -0.3320
  378MOL0     C50961   3.732   3.474   4.216 -0.1228  0.8292 -0.3323
  378MOL0     C50962   3.747   3.475   4.368  0.1787  0.4708 -0.6738
  378MOL0     H50963   4.277   3.579   3.948 -0.3277 -1.1531  1.5420
  378MOL0     H50964   4.490   3.681   4.005 -0.8275  0.8178 -1.1516
  378MOL0     H50965   4.478   3.946   4.374 -0.8651 -1.2490  3.1801
  378MOL0     H50966   4.566   3.820   4.449  2.4388  1.9224  2.1527
  378MOL0     H50967   4.677   4.025   4.451  0.3496  0.2842 -0.9111
  378MOL0     H50968   4.708   4.026   4.275  2.6075  1.0881  1.1308
  378MOL0     H50969   4.821   3.784   4.353  1.7706 -1.0494  0.7577
  378MOL0     H50970   4.810   3.866   4.504 -1.6108  0.7235  0.4333
  378MOL0     H50971   5.035   3.898   4.395  0.1994 -0.0946  1.7386
  378MOL0     H50972   4.958   4.005   4.268 -0.3601  2.4795  1.0734
  378MOL0     H50973   4.892   4.156   4.449 -0.1375 -1.1552 -0.8407
  378MOL0     H50974   4.971   4.061   4.571  0.6382  1.4676  0.1060
  378MOL0     H50975   5.185   4.076   4.477 -0.4281  0.0387 -0.3686
  378MOL0     H50976   5.110   4.183   4.349 -4.4606 -2.8052 -1.3242
  378MOL0     H50977   5.080   4.263   4.626 -0.1992 -0.1965 -0.1989
  378MOL0     H50978   5.054   4.358   4.469 -0.7621 -2.2580 -1.5527
  378MOL0     H50979   5.282   4.358   4.410 -2.0787  5.0244 -0.1387
  378MOL0     H50980   5.247   4.457   4.537 -2.1533  0.8880 -1.7722
  378MOL0     H50981   5.344   4.395   4.800  1.0405  0.3287  0.5134
  378MOL0     H50982   5.463   4.243   4.968 -0.7657 -0.8380 -0.9483
  378MOL0     H50983   5.574   4.141   4.887 -0.1900  0.0217 -0.4986
  378MOL0     H50984   5.730   4.326   4.841 -1.5345  1.0991 -0.0685
  378MOL0     H50985   5.624   4.442   4.935 -2.4977 -0.5696 -1.0479
  378MOL0     H50986   5.791   4.215   5.037  2.3650  1.0077  1.7907
  378MOL0     H50987   5.657   4.274   5.123 -1.3591 -0.9482 -2.6122
  378MOL0     H50988   5.848   4.435   5.215  0.6115  2.5099 -0.9040
  378MOL0     H50989   5.800   4.514   5.077  2.4468  0.0975 -2.9767
  378MOL0     H50990   5.994   4.621   5.206 -0.0321 -0.2449  0.0418
  378MOL0     H50991   6.207   4.729   5.269 -0.5994 -1.0476  1.8418
  378MOL0     H50992   6.646   4.833   5.117  0.3781 -0.7378  0.5695
  378MOL0     H50993   6.857   4.944   5.182 -1.1399  1.3167 -0.5201
  378MOL0     H50994   7.097   4.881   5.295 -0.3825  0.8380 -0.7695
  378MOL0     H50995   7.019   5.041   5.273 -0.5171  0.4352  0.1700
  378MOL0     H50996   7.218   4.952   5.499  1.5831 -0.9544 -1.6599
  378MOL0     H50997   7.248   5.035   5.348 -2.3621  0.9350 -1.4384
  378MOL0     H50998   7.087   5.226   5.424  0.0617  1.2733  0.0785
  378MOL0     H50999   7.082   5.136   5.575  3.3859 -0.1032  1.5637
  378MOL0     H51000   7.313   5.279   5.432  0.8352 -0.3661 -0.4294
  378MOL0     H51001   7.338   5.168   5.567 -0.3022 -0.8404 -0.4529
  378MOL0     H51002   7.179   5.325   5.703  0.3905  0.5617 -0.6672
  378MOL0     H51003   7.160   5.428   5.568  0.9005  0.0545 -0.6211
  378MOL0     H51004   7.414   5.358   5.712  0.2576  0.0690  0.4521
  378MOL0     H51005   7.413   5.459   5.562 -1.3866  1.3496 -1.0536
  378MOL0     H51006   7.260   5.518   5.833 -2.4686 -0.1044 -2.2820
  378MOL0     H51007   7.294   5.641   5.726 -1.5801 -0.4576  1.1935
  378MOL0     H51008   7.470   5.642   5.911  3.0579  1.2099 -1.2130
  378MOL0     H51009   7.512   5.472   5.878  0.1351  1.0931  1.3172
  378MOL0     H51010   6.758   4.872   5.603 -0.1902 -1.4049  0.8717
  378MOL0     H51011   6.528   4.781   5.516 -0.0452 -1.4459 -0.0862
  378MOL0     H51012   6.406   4.426   5.030 -0.4015  0.2477 -0.1278
  378MOL0     H51013   6.189   4.339   4.963 -4.7235  0.2097 -0.3724
  378MOL0     H51014   4.319   3.816   4.389 -0.5434 -0.2846  0.0439
  378MOL0     H51015   4.122   3.706   4.330  0.6098  1.5625  1.0197
  378MOL0     H51016   3.873   3.546   3.915 -2.2754 -0.6264 -2.3448
  378MOL0     H51017   3.653   3.504   3.833  0.1134 -1.1561 -0.1841
  378MOL0     H51018   3.373   3.588   4.120 -2.0140  0.2695  0.7087
  378MOL0     H51019   3.337   3.430   4.158  1.4584  0.9525  1.4581
  378MOL0     H51020   3.139   3.552   4.041 -0.8331  2.4641 -1.6572
  378MOL0     H51021   3.194   3.404   3.963  2.8270 -0.5164 -2.4767
  378MOL0     H51022   3.319   3.527   3.791  1.9588  1.4020 -0.4689
  378MOL0     H51023   3.318   3.669   3.886 -0.0724 -0.1165  1.2521
  378MOL0     H51024   3.157   3.718   3.712  2.9670 -1.5223 -0.3777
  378MOL0     H51025   3.087   3.571   3.714  1.8307  1.1058 -3.2763
  378MOL0     H51026   2.915   3.783   4.052 -2.1734 -1.7699 -1.0392
  378MOL0     H51027   3.526   3.427   4.240  0.1613 -2.0609  0.1148
  378MOL0     H51028   3.805   3.385   4.390 -0.1149  1.0046  2.6822
  378MOL0     H51029   3.797   3.565   4.404  2.1830 -0.4179 -1.0613
  378MOL0     H51030   3.648   3.462   4.412  0.3904 -0.6612 -0.5066
  379MOL0     O51031   4.700   5.906   9.256  0.0555  0.2203 -0.7574
  379MOL0     C51032   4.587   5.950   9.244  0.7735 -1.3358 -0.6691
  379MOL0     O51033   4.531   6.001   9.124  0.0791  0.9982  0.0424
  379MOL0     C51034   4.604   6.002   9.006  0.6181 -0.2292  1.2117
  379MOL0     C51035   4.620   5.898   8.917  0.1467  0.2596  0.3877
  379MOL0     C51036   4.683   5.911   8.793  1.1507 -0.7364 -0.2586
  379MOL0     C51037   4.751   6.034   8.766 -0.0783  0.9924 -0.1246
  379MOL0     O51038   4.830   6.059   8.658  0.5469 -0.0591  0.0760
  379MOL0     C51039   4.782   5.977   8.546 -0.2471 -0.2261 -0.8943
  379MOL0     C51040   4.869   6.018   8.420 -0.4205  0.4533 -0.3582
  379MOL0     C51041   5.009   5.958   8.411 -0.2290  0.1631 -0.1590
  379MOL0     C51042   5.110   6.021   8.317 -0.1224  0.9285  0.0425
  379MOL0     C51043   5.241   5.934   8.308  0.0268 -0.4472  0.2565
  379MOL0     C51044   5.317   5.933   8.435  0.8513  0.3669 -0.6171
  379MOL0     C51045   5.457   5.879   8.413  0.7573 -0.3182 -0.1357
  379MOL0     C51046   5.565   5.932   8.503 -0.6320  0.7772 -0.7559
  379MOL0     N51047   5.698   5.871   8.471 -0.1913  0.1112  0.2823
  379MOL0     C51048   5.744   5.820   8.346  0.0355  0.2981 -1.4226
  379MOL0     C51049   5.876   5.787   8.375  0.0589 -0.1592  0.3772
  379MOL0     C51050   5.963   5.715   8.280  0.2683  0.4795 -0.4190
  379MOL0     C51051   6.109   5.748   8.289  0.2714  0.3644  0.2038
  379MOL0     C51052   6.185   5.691   8.168  0.6207 -0.5142 -0.5513
  379MOL0     C51053   6.176   5.796   8.047 -0.2269  0.3177  0.1620
  379MOL0     O51054   6.262   5.731   7.957  0.2784  0.4734  0.5848
  379MOL0     C51055   6.334   5.803   7.875 -0.3600  0.1179  0.3623
  379MOL0     C51056   6.301   5.849   7.746 -0.4423 -0.8389  1.1484
  379MOL0     C51057   6.400   5.898   7.661  0.1517 -0.0004  0.5459
  379MOL0     C51058   6.521   5.933   7.707 -0.3113  0.2682  0.1037
  379MOL0     C51059   6.627   5.989   7.621  0.2227  0.3158 -0.3078
  379MOL0     O51060   6.750   5.980   7.679  0.4111 -0.9709 -0.3918
  379MOL0     C51061   6.859   6.029   7.619  0.4327 -0.2412 -1.2254
  379MOL0     C51062   6.865   6.170   7.589  0.0606  0.0514  0.1590
  379MOL0     C51063   6.983   6.228   7.542 -0.2458 -0.5206  0.1119
  379MOL0     C51064   7.093   6.147   7.511 -0.2909  0.0614 -0.2908
  379MOL0     O51065   7.202   6.209   7.463 -0.4711  0.3366  0.9408
  379MOL0     C51066   7.274   6.129   7.357 -0.6065 -1.1351  0.0673
  379MOL0     C51067   7.378   6.217   7.297  0.9368 -1.1065 -0.5461
  379MOL0     C51068   7.447   6.176   7.174  0.1690  0.0594 -0.5953
  379MOL0     C51069   7.359   6.198   7.050 -0.4888 -0.1710 -0.3957
  379MOL0     C51070   7.455   6.187   6.935  0.5949  0.1181 -0.0981
  379MOL0     C51071   7.383   6.198   6.795  0.2059  0.2702 -0.3948
  379MOL0     C51072   7.479   6.148   6.688 -1.0674 -1.1762  0.5268
  379MOL0     C51073   7.409   6.144   6.554 -0.3785 -0.0198  0.7966
  379MOL0    Cl51074   7.264   6.048   6.561  0.3046 -0.1596  0.0771
  379MOL0     C51075   7.084   6.010   7.539  0.5903  0.4544 -0.0955
  379MOL0     C51076   6.975   5.956   7.606 -0.0152  0.5568  0.0996
  379MOL0     O51077   6.592   6.048   7.520  0.0451 -0.1951  0.4827
  379MOL0     C51078   6.550   5.896   7.839 -0.4095 -0.1269 -0.1834
  379MOL0     C51079   6.459   5.837   7.930  0.8594  0.2671 -0.0408
  379MOL0     N51080   5.900   5.814   8.508  0.6814  0.0924  0.5961
  379MOL0     N51081   5.803   5.879   8.564 -0.8351 -0.1374 -0.3106
  379MOL0     C51082   4.739   6.139   8.856 -0.2865 -0.4471 -0.3485
  379MOL0     C51083   4.668   6.121   8.976 -0.1471 -0.4527  0.7036
  379MOL0     C51084   4.501   5.956   9.361 -0.1039  0.2755 -0.4322
  379MOL0     C51085   4.388   6.036   9.360  0.3333  0.9823  0.0306
  379MOL0     C51086   4.288   6.027   9.461  0.2915  0.0547 -0.1120
  379MOL0     C51087   4.308   5.947   9.571 -1.6251  0.3545 -0.0815
  379MOL0     O51088   4.218   5.932   9.673  0.0505 -0.1303  0.3475
  379MOL0     C51089   4.078   5.962   9.655 -0.5937  0.1627  0.6291
  379MOL0     C51090   3.993   5.926   9.781 -0.3523  0.3009 -0.1626
  379MOL0     C51091   3.938   5.777   9.775  0.2600 -0.0953  0.6203
  379MOL0     C51092   3.981   5.698   9.904  0.3821  0.1975 -0.7229
  379MOL0     C51093   4.123   5.647   9.895 -0.0534  0.2759  0.2889
  379MOL0     C51094   4.239   5.605   9.882 -0.3452  0.2865 -0.8567
  379MOL0     C51095   4.416   5.873   9.580 -0.4357  0.3344  0.0030
  379MOL0     C51096   4.523   5.879   9.485 -1.0249  0.6655 -0.2061
  379MOL0     C51097   4.638   5.781   9.515  0.3642 -0.2849  0.3121
  379MOL0     H51098   4.567   5.806   8.940 -0.2615  0.6642  1.0788
  379MOL0     H51099   4.689   5.826   8.725  1.3051  0.1586 -1.3924
  379MOL0     H51100   4.790   5.871   8.569 -0.6876 -0.4884 -1.9132
  379MOL0     H51101   4.678   5.996   8.516 -0.6327 -1.0104 -0.0830
  379MOL0     H51102   4.874   6.127   8.425  0.5276  0.4093 -0.0641
  379MOL0     H51103   4.806   5.988   8.336 -3.6581  0.1185  1.9993
  379MOL0     H51104   5.000   5.851   8.389  0.7931  0.4300 -2.0504
  379MOL0     H51105   5.053   5.978   8.509 -1.6017  1.5409  0.2068
  379MOL0     H51106   5.068   6.030   8.216  2.7293  2.1528 -1.1454
  379MOL0     H51107   5.135   6.123   8.347  1.7474  1.8516 -3.9376
  379MOL0     H51108   5.211   5.831   8.286 -1.9276 -0.4401  2.5185
  379MOL0     H51109   5.302   5.974   8.226  0.2756  0.3287  0.8140
  379MOL0     H51110   5.325   6.038   8.464  3.0617  0.0935 -0.1376
  379MOL0     H51111   5.260   5.878   8.511  5.2192 -0.8392  2.1371
  379MOL0     H51112   5.483   5.902   8.310 -2.1767  0.9204 -0.6794
  379MOL0     H51113   5.456   5.769   8.419  0.6193 -0.4011 -1.5209
  379MOL0     H51114   5.580   6.040   8.503  1.2640  0.5418 -0.5323
  379MOL0     H51115   5.536   5.907   8.606  2.2682  1.5627  0.3592
  379MOL0     H51116   5.696   5.805   8.250  2.4039 -2.2547 -2.3425
  379MOL0     H51117   5.949   5.610   8.310  0.2720  0.8816  1.0476
  379MOL0     H51118   5.940   5.717   8.173  2.5633 -1.5708 -1.0467
  379MOL0     H51119   6.126   5.856   8.303  1.5489 -0.0804  2.7053
  379MOL0     H51120   6.154   5.708   8.380 -0.1842  2.4456  1.4148
  379MOL0     H51121   6.132   5.602   8.133  0.3982  0.1756 -2.0246
  379MOL0     H51122   6.285   5.678   8.212  0.8472  2.7318  0.1642
  379MOL0     H51123   6.224   5.884   8.093  1.2358 -0.7177  0.6985
  379MOL0     H51124   6.079   5.803   7.997  0.1723 -0.4462 -0.7367
  379MOL0     H51125   6.202   5.838   7.704 -0.1272  1.2895 -0.3214
  379MOL0     H51126   6.372   5.927   7.560  0.9060  1.7519  0.7967
  379MOL0     H51127   6.783   6.235   7.616  0.3110  0.0107  1.0434
  379MOL0     H51128   6.990   6.333   7.513  1.2657 -0.6688 -0.1677
  379MOL0     H51129   7.336   6.047   7.393 -0.2156 -0.6656  0.4847
  379MOL0     H51130   7.206   6.089   7.282  0.5701 -3.9710  0.3931
  379MOL0     H51131   7.338   6.318   7.292  1.9080 -0.7079 -0.5858
  379MOL0     H51132   7.461   6.228   7.368  1.4088  2.3139 -1.4814
  379MOL0     H51133   7.536   6.239   7.165  1.8500 -2.2985 -1.6448
  379MOL0     H51134   7.472   6.071   7.196  0.8650  0.4978  0.8066
  379MOL0     H51135   7.316   6.296   7.073  2.4317  0.9301  0.8104
  379MOL0     H51136   7.289   6.114   7.044 -0.7479  0.1215 -1.8392
  379MOL0     H51137   7.506   6.092   6.953  3.8869  1.4264 -1.7848
  379MOL0     H51138   7.537   6.259   6.943 -0.9488  1.7665  1.9605
  379MOL0     H51139   7.293   6.135   6.799 -1.3841  2.4835  2.0576
  379MOL0     H51140   7.361   6.305   6.786 -0.6820  0.3219  1.6973
  379MOL0     H51141   7.531   6.055   6.712  1.5597 -0.0194 -0.2090
  379MOL0     H51142   7.564   6.216   6.672 -2.3802  0.6255  0.8832
  379MOL0     H51143   7.366   6.240   6.527 -1.2455 -1.1487 -2.1714
  379MOL0     H51144   7.482   6.115   6.477 -0.3919 -0.9031  1.1013
  379MOL0     H51145   7.176   5.955   7.517 -0.3175  0.5045 -5.3809
  379MOL0     H51146   6.977   5.849   7.625  0.0007  0.5008 -0.2052
  379MOL0     H51147   6.649   5.912   7.879 -0.1024  2.0676 -1.6623
  379MOL0     H51148   6.488   5.821   8.033 -0.6003  0.0546  0.3646
  379MOL0     H51149   4.784   6.233   8.826 -0.3511  1.4260  4.5963
  379MOL0     H51150   4.654   6.207   9.041 -0.4994 -0.6387  0.8716
  379MOL0     H51151   4.363   6.100   9.276  0.3054  1.1051  0.1337
  379MOL0     H51152   4.199   6.088   9.471  2.2261  3.1387 -0.1895
  379MOL0     H51153   4.051   5.911   9.562 -1.7497 -0.4605  1.2788
  379MOL0     H51154   4.075   6.070   9.638 -2.6792 -0.2375 -2.4158
  379MOL0     H51155   3.915   6.002   9.789  0.1463  0.8886 -0.7056
  379MOL0     H51156   4.063   5.928   9.864 -0.4011  0.8064 -0.1297
  379MOL0     H51157   3.980   5.725   9.689  2.1578  0.9833  0.8346
  379MOL0     H51158   3.829   5.783   9.778  0.1356 -0.6413 -1.6699
  379MOL0     H51159   3.965   5.763   9.991 -1.6610 -1.5853  0.3180
  379MOL0     H51160   3.915   5.615   9.928  0.3771  0.1072 -1.0477
  379MOL0     H51161   4.336   5.573   9.849 -1.1854 -0.0868 -3.1799
  379MOL0     H51162   4.428   5.795   9.654 -3.8068 -1.7005 -1.3804
  379MOL0     H51163   4.597   5.701   9.578  1.5224 -0.9501  0.2487
  379MOL0     H51164   4.668   5.747   9.416 -1.9979 -0.1350 -0.5117
  379MOL0     H51165   4.731   5.825   9.554  1.4811  0.5397 -2.9767
  380MOL0     O51166   5.128   5.436   8.393  0.4743 -0.3787  0.2128
  380MOL0     C51167   5.010   5.402   8.368  0.3062  0.1018  0.8877
  380MOL0     O51168   4.979   5.303   8.268 -0.6924 -0.1100 -0.5113
  380MOL0     C51169   5.072   5.243   8.185 -0.3465 -0.2936  0.1317
  380MOL0     C51170   5.205   5.286   8.162 -0.0987  0.6934 -0.3657
  380MOL0     C51171   5.286   5.215   8.074 -0.6094 -0.0165 -0.1671
  380MOL0     C51172   5.242   5.101   8.011 -0.5334 -0.6429 -0.6499
  380MOL0     O51173   5.320   5.019   7.930 -0.1727 -0.8472 -0.0987
  380MOL0     C51174   5.454   5.060   7.900 -0.6823 -0.0012  0.3563
  380MOL0     C51175   5.530   4.951   7.841 -1.1178 -0.0736 -0.2394
  380MOL0     C51176   5.681   4.975   7.824 -0.6810  0.1089 -0.1013
  380MOL0     C51177   5.747   4.964   7.969 -0.7158 -0.5412 -0.4122
  380MOL0     C51178   5.903   4.972   7.963  1.3930  0.6102  0.5693
  380MOL0     C51179   5.963   4.850   7.891 -0.4408 -0.6587  0.0188
  380MOL0     C51180   6.119   4.868   7.866 -0.7230 -0.5876  0.0129
  380MOL0     C51181   6.209   4.820   7.985 -0.6348 -1.4269 -0.1671
  380MOL0     N51182   6.352   4.857   7.966 -0.0250  0.1225  0.9100
  380MOL0     C51183   6.438   4.788   7.890 -0.6141 -0.2958  0.1403
  380MOL0     C51184   6.557   4.856   7.907 -0.4328  0.4813  0.2189
  380MOL0     C51185   6.681   4.831   7.825  0.7372  0.3749  0.1933
  380MOL0     C51186   6.716   4.932   7.717  0.1116 -0.4127 -0.3077
  380MOL0     C51187   6.785   4.866   7.588 -0.1795  0.0985  0.5036
  380MOL0     C51188   6.932   4.833   7.611  0.0786  0.0807  0.6168
  380MOL0     O51189   6.980   4.747   7.505  0.4231  0.1805 -0.1629
  380MOL0     C51190   7.092   4.781   7.435  0.0473  0.0169 -1.2089
  380MOL0     C51191   7.087   4.740   7.314 -0.2075  0.0692 -0.1297
  380MOL0     C51192   7.195   4.770   7.230  0.1041  0.3445  0.2615
  380MOL0     C51193   7.318   4.832   7.275  0.6182 -0.0255 -0.7487
  380MOL0     C51194   7.434   4.855   7.190 -0.0409 -0.1659 -0.4267
  380MOL0     O51195   7.424   4.862   7.053 -0.0033 -0.4908 -0.4533
  380MOL0     C51196   7.538   4.865   6.993 -1.0198 -0.3193 -0.2817
  380MOL0     C51197   7.613   4.987   6.984 -0.0988  0.0183 -0.3769
  380MOL0     C51198   7.741   4.980   6.927  0.0290  0.4605  0.1415
  380MOL0     C51199   7.801   4.868   6.866  0.4612 -1.0129 -0.3090
  380MOL0     O51200   7.923   4.859   6.815 -0.1950 -0.0542 -0.0821
  380MOL0     C51201   8.031   4.888   6.912 -0.1582 -0.0674 -0.6980
  380MOL0     C51202   8.101   5.002   6.836 -0.0369 -0.1694  0.1834
  380MOL0     C51203   8.216   5.067   6.917 -0.1386  1.2295  0.4382
  380MOL0     C51204   8.332   4.962   6.931  0.4964 -0.4591  0.1331
  380MOL0     C51205   8.460   5.043   6.981 -0.5401  0.3184  0.1160
  380MOL0     C51206   8.549   4.947   7.065  0.6901  0.2034  0.3087
  380MOL0     C51207   8.701   4.973   7.075  0.9840 -0.1587  0.4158
  380MOL0     C51208   8.745   5.122   7.086 -0.3717 -0.2008  0.6767
  380MOL0    Cl51209   8.739   5.138   7.266 -0.0158 -0.3225 -0.1172
  380MOL0     C51210   7.715   4.767   6.859  0.0309 -0.2072 -1.2509
  380MOL0     C51211   7.583   4.765   6.916 -0.4079 -0.5638 -0.3462
  380MOL0     O51212   7.535   4.881   7.253 -0.4317 -0.3944  0.4896
  380MOL0     C51213   7.316   4.878   7.414 -0.4346  0.6728  0.4937
  380MOL0     C51214   7.204   4.840   7.493 -0.1922  0.2433  0.0592
  380MOL0     N51215   6.544   4.953   8.004 -0.0246 -0.2997  0.4596
  380MOL0     N51216   6.418   4.951   8.035 -0.2959  0.2415 -0.2988
  380MOL0     C51217   5.119   5.060   8.038  0.7335  0.6560 -0.1150
  380MOL0     C51218   5.030   5.131   8.119  0.3870 -0.0522 -0.2989
  380MOL0     C51219   4.899   5.454   8.453  0.2790 -0.4193  0.2772
  380MOL0     C51220   4.766   5.417   8.417  0.3535 -0.3200 -0.0746
  380MOL0     C51221   4.663   5.449   8.495 -0.7232 -0.2434 -0.2906
  380MOL0     C51222   4.681   5.527   8.619  0.7441 -0.2493  0.3024
  380MOL0     O51223   4.572   5.573   8.697  0.5519  0.6905 -0.5552
  380MOL0     C51224   4.445   5.607   8.632 -0.6253  0.2394  0.8456
  380MOL0     C51225   4.456   5.731   8.551  1.3756  0.2538  0.1208
  380MOL0     C51226   4.345   5.736   8.441 -0.4647  0.8477 -0.1063
  380MOL0     C51227   4.338   5.874   8.383  0.6463 -0.3382  0.5571
  380MOL0     C51228   4.428   5.890   8.270  0.3641 -0.2813  0.1201
  380MOL0     C51229   4.503   5.917   8.178  0.4095  0.1729  0.1586
  380MOL0     C51230   4.814   5.556   8.659  0.2776 -0.6339 -1.2372
  380MOL0     C51231   4.922   5.526   8.581  0.3117  0.2759 -0.5193
  380MOL0     C51232   5.055   5.576   8.630  0.0314 -0.3377  0.4462
  380MOL0     H51233   5.250   5.373   8.210  1.1944 -0.4353  0.5436
  380MOL0     H51234   5.388   5.248   8.055 -0.7582  0.9862  0.6747
  380MOL0     H51235   5.449   5.135   7.821 -2.1901 -0.4439 -0.0114
  380MOL0     H51236   5.503   5.090   7.993 -0.7709 -1.4213  0.8891
  380MOL0     H51237   5.489   4.923   7.744 -0.6309 -2.6044  0.2106
  380MOL0     H51238   5.513   4.861   7.901  1.3372 -1.3174 -1.2716
  380MOL0     H51239   5.690   5.074   7.778 -4.1263  0.4764 -0.2413
  380MOL0     H51240   5.731   4.905   7.756 -1.9447 -1.3104  0.3646
  380MOL0     H51241   5.706   5.036   8.040 -1.6173 -0.3487 -1.1051
  380MOL0     H51242   5.730   4.866   8.014  1.1144 -1.0440 -0.7336
  380MOL0     H51243   5.924   5.062   7.906 -0.4290  0.9526  0.3775
  380MOL0     H51244   5.944   4.981   8.064  0.9283 -0.7338  0.9085
  380MOL0     H51245   5.938   4.760   7.947 -1.8161  0.0144  0.5083
  380MOL0     H51246   5.919   4.837   7.792  0.7842  0.6723 -0.7505
  380MOL0     H51247   6.146   4.971   7.841 -0.6392  0.2973  3.3094
  380MOL0     H51248   6.151   4.816   7.775  1.2079 -0.8860  0.8286
  380MOL0     H51249   6.173   4.865   8.079  1.5601 -0.8717  0.4573
  380MOL0     H51250   6.208   4.711   7.994  1.6409 -1.5449 -0.8534
  380MOL0     H51251   6.420   4.698   7.833  2.7203 -1.7674  1.1658
  380MOL0     H51252   6.761   4.832   7.900  0.7832 -1.4736  0.2211
  380MOL0     H51253   6.678   4.731   7.781  0.4969  1.0608 -1.4109
  380MOL0     H51254   6.621   4.964   7.673 -1.2620 -1.4926  1.7144
  380MOL0     H51255   6.770   5.017   7.759 -0.1646 -0.3288 -0.1216
  380MOL0     H51256   6.790   4.954   7.523  0.1186  2.1836  3.1360
  380MOL0     H51257   6.734   4.784   7.537  1.2504 -0.4600 -0.0663
  380MOL0     H51258   6.939   4.787   7.710  0.1273  2.2172  1.6682
  380MOL0     H51259   6.991   4.925   7.619 -0.0683  0.1603  0.7895
  380MOL0     H51260   6.997   4.688   7.282 -1.9855  1.9181  1.5012
  380MOL0     H51261   7.180   4.752   7.124  0.7467 -1.3429  0.4227
  380MOL0     H51262   7.580   5.078   7.033 -0.5496 -1.5209  2.3803
  380MOL0     H51263   7.817   5.057   6.928  0.5988  0.0412 -2.4154
  380MOL0     H51264   7.990   4.914   7.010  0.6357  1.4035 -0.7298
  380MOL0     H51265   8.108   4.810   6.919 -0.0489  0.0308 -0.7956
  380MOL0     H51266   8.132   4.966   6.737 -2.6722 -2.2747  0.0127
  380MOL0     H51267   8.024   5.076   6.814  1.4043  2.3013  2.7439
  380MOL0     H51268   8.243   5.156   6.859  1.1007  0.0209 -0.9343
  380MOL0     H51269   8.178   5.090   7.017 -0.8216 -1.0755  0.7703
  380MOL0     H51270   8.349   4.898   6.844  0.3736 -0.9253  0.4494
  380MOL0     H51271   8.300   4.898   7.014  2.1798  0.2330  1.3688
  380MOL0     H51272   8.436   5.137   7.030  1.0240  0.4970  0.6089
  380MOL0     H51273   8.521   5.056   6.891  0.0860 -1.9647  0.1348
  380MOL0     H51274   8.494   4.933   7.158  0.5907 -1.7127 -0.0021
  380MOL0     H51275   8.544   4.846   7.023 -2.8918  1.1016 -1.8254
  380MOL0     H51276   8.745   4.936   6.982 -2.9349  0.3191 -1.8488
  380MOL0     H51277   8.747   4.919   7.159  0.6222 -2.6015 -0.8679
  380MOL0     H51278   8.845   5.149   7.052 -0.3756 -1.8945 -0.8356
  380MOL0     H51279   8.676   5.181   7.024  2.1414  1.8292 -0.3496
  380MOL0     H51280   7.761   4.680   6.813  1.5074 -0.2241  0.1693
  380MOL0     H51281   7.523   4.676   6.897 -0.0462 -0.7214 -0.7791
  380MOL0     H51282   7.400   4.933   7.456 -1.2664  1.2596  1.4259
  380MOL0     H51283   7.208   4.872   7.596  3.8649 -1.9191  0.7719
  380MOL0     H51284   5.092   4.965   7.993 -0.5070 -0.1117  2.0609
  380MOL0     H51285   4.930   5.088   8.126  2.0630 -4.2131  1.7909
  380MOL0     H51286   4.754   5.362   8.324  2.8632 -2.5026  0.7633
  380MOL0     H51287   4.564   5.418   8.464 -2.3718 -0.5259  4.4386
  380MOL0     H51288   4.362   5.632   8.699 -0.3562  3.0630  0.2360
  380MOL0     H51289   4.405   5.524   8.572  0.8323 -0.6611  1.0682
  380MOL0     H51290   4.548   5.744   8.493  0.4142  3.4093 -0.9064
  380MOL0     H51291   4.451   5.812   8.624 -0.4263  1.1347 -0.9173
  380MOL0     H51292   4.245   5.710   8.475 -1.6219 -3.0489 -5.2297
  380MOL0     H51293   4.361   5.654   8.370 -1.8900 -2.9254  3.5662
  380MOL0     H51294   4.232   5.880   8.356  0.3660 -1.0568  1.4797
  380MOL0     H51295   4.360   5.950   8.459  0.3610  0.6542 -0.3304
  380MOL0     H51296   4.560   5.944   8.092  0.8287  2.4396  1.0884
  380MOL0     H51297   4.819   5.602   8.756 -0.1974  0.8188 -1.8780
  380MOL0     H51298   5.031   5.646   8.711  0.3050  0.1438  0.1154
  380MOL0     H51299   5.121   5.491   8.650  2.3627  1.4637  0.8107
  380MOL0     H51300   5.109   5.634   8.555  1.0323 -0.7663  0.8128
  381MOL0     O51301   3.476   9.422   1.867  0.5432 -0.1011 -0.2005
  381MOL0     C51302   3.398   9.445   1.960 -0.2072 -0.0341  1.4438
  381MOL0     O51303   3.438   9.437   2.090 -0.4656 -0.0325  0.5268
  381MOL0     C51304   3.573   9.444   2.111 -0.5386  0.5625  1.0903
  381MOL0     C51305   3.663   9.542   2.072 -0.6735 -0.5065  0.5173
  381MOL0     C51306   3.795   9.537   2.113 -0.9575 -0.3648 -0.0111
  381MOL0     C51307   3.832   9.453   2.225 -0.4965  0.4097  1.1398
  381MOL0     O51308   3.955   9.468   2.283 -0.6521  0.3072  0.7141
  381MOL0     C51309   4.064   9.419   2.207 -0.9340  0.4930 -0.6912
  381MOL0     C51310   4.189   9.444   2.286 -0.0200 -0.3743  0.3572
  381MOL0     C51311   4.317   9.375   2.227  0.6489 -0.2884 -0.1803
  381MOL0     C51312   4.431   9.413   2.318  0.0201  0.1831 -0.2893
  381MOL0     C51313   4.560   9.329   2.290 -0.2334  0.9998 -0.2330
  381MOL0     C51314   4.695   9.400   2.344  1.1347  0.1367  0.0250
  381MOL0     C51315   4.802   9.287   2.355  0.9984 -0.9661  0.3196
  381MOL0     C51316   4.933   9.375   2.382  0.1664 -0.0428 -0.6894
  381MOL0     N51317   4.950   9.442   2.514  0.0158 -0.7304 -0.0623
  381MOL0     C51318   5.033   9.403   2.621 -0.2710 -0.5142  1.0276
  381MOL0     C51319   5.011   9.497   2.712 -0.7098  0.3013  0.5291
  381MOL0     C51320   5.063   9.495   2.845  0.7876 -0.7048 -0.0539
  381MOL0     C51321   5.207   9.555   2.865  0.1645  0.3802  0.3123
  381MOL0     C51322   5.323   9.475   2.807 -0.1255  0.2002 -0.2246
  381MOL0     C51323   5.452   9.549   2.822  0.4705  0.8245  0.6741
  381MOL0     O51324   5.470   9.584   2.962  0.0659 -0.4378 -0.1641
  381MOL0     C51325   5.596   9.602   3.016  0.0667  0.1725  0.8165
  381MOL0     C51326   5.622   9.605   3.152 -0.1933 -0.5874  0.1157
  381MOL0     C51327   5.741   9.601   3.211 -0.2100 -1.1151  0.3612
  381MOL0     C51328   5.851   9.611   3.133  0.0956  0.0562 -0.1646
  381MOL0     C51329   5.987   9.597   3.189  0.4978 -0.1110 -0.5668
  381MOL0     O51330   6.098   9.645   3.123  0.6888 -0.5008  0.7457
  381MOL0     C51331   6.210   9.619   3.195 -0.2322  0.4616 -0.4919
  381MOL0     C51332   6.267   9.715   3.277  0.1787  0.2326 -1.0626
  381MOL0     C51333   6.388   9.696   3.340 -0.6122  0.4942 -0.5397
  381MOL0     C51334   6.466   9.578   3.329  0.4389  0.0088 -0.4981
  381MOL0     O51335   6.593   9.566   3.385 -0.1079 -0.3867  0.4777
  381MOL0     C51336   6.691   9.644   3.321  0.9590 -0.2709 -0.7743
  381MOL0     C51337   6.830   9.583   3.352 -0.2245 -1.1760  0.1241
  381MOL0     C51338   6.945   9.678   3.315  0.3579  0.2071 -0.3741
  381MOL0     C51339   7.083   9.626   3.338  0.7008 -0.4159 -0.6971
  381MOL0     C51340   7.182   9.732   3.285 -0.4260 -0.8346  0.4610
  381MOL0     C51341   7.326   9.705   3.322 -0.0682  0.2321  0.6529
  381MOL0     C51342   7.403   9.577   3.262 -0.4169 -0.1959 -0.6230
  381MOL0     C51343   7.541   9.554   3.317  0.1212 -0.0895  0.4576
  381MOL0    Cl51344   7.542   9.493   3.487  0.2872 -0.1334  0.1473
  381MOL0     C51345   6.404   9.474   3.242 -0.7407 -0.4020  0.3137
  381MOL0     C51346   6.279   9.499   3.179 -0.5566  0.1525  0.9435
  381MOL0     O51347   5.991   9.526   3.293  0.7235 -0.2306  0.5007
  381MOL0     C51348   5.843   9.625   2.993  0.1431  0.1257  0.5425
  381MOL0     C51349   5.715   9.610   2.938 -0.1759  0.0445 -0.1491
  381MOL0     N51350   4.936   9.595   2.661 -0.0713  0.1172  0.2512
  381MOL0     N51351   4.893   9.562   2.549  0.0090  0.2072 -0.4180
  381MOL0     C51352   3.738   9.359   2.272 -0.5369  0.3255 -0.3658
  381MOL0     C51353   3.619   9.346   2.212  0.6100  0.4178  0.6541
  381MOL0     C51354   3.253   9.466   1.937  0.0847  0.3576 -0.7758
  381MOL0     C51355   3.177   9.541   2.029 -1.0475  0.6732 -0.4008
  381MOL0     C51356   3.052   9.571   2.016  0.6478  0.4968  0.6681
  381MOL0     C51357   2.985   9.555   1.900 -0.6629  0.0125  1.7116
  381MOL0     O51358   2.865   9.616   1.886  0.1855  0.0098  0.2121
  381MOL0     C51359   2.772   9.617   1.776 -0.5271  0.4128  0.1116
  381MOL0     C51360   2.793   9.739   1.683 -0.5122  0.1787  0.7511
  381MOL0     C51361   2.772   9.879   1.751 -0.5308 -0.4270 -0.2229
  381MOL0     C51362   2.806   9.993   1.656  1.3146  0.0972  0.1442
  381MOL0     C51363   2.685  10.001   1.565  0.1906 -0.2605 -0.0094
  381MOL0     C51364   2.593  10.023   1.496 -0.7316  1.4003  0.1601
  381MOL0     C51365   3.048   9.471   1.803 -0.1566  0.6170 -0.9798
  381MOL0     C51366   3.181   9.429   1.819 -0.2135 -0.0744  0.7507
  381MOL0     C51367   3.234   9.358   1.701  0.0893  0.0237 -0.0417
  381MOL0     H51368   3.631   9.620   2.004 -1.0931 -0.8121  0.3623
  381MOL0     H51369   3.867   9.609   2.076 -0.5295 -1.0098 -0.4787
  381MOL0     H51370   4.061   9.311   2.191  0.0156 -0.0563  2.3079
  381MOL0     H51371   4.080   9.459   2.106  2.1352  1.1617 -0.0340
  381MOL0     H51372   4.170   9.416   2.390 -1.8060 -1.2676 -0.1678
  381MOL0     H51373   4.207   9.552   2.285  0.8357 -0.4695  2.0778
  381MOL0     H51374   4.333   9.416   2.127 -0.3073  1.4404  0.3460
  381MOL0     H51375   4.304   9.266   2.226 -3.0477  0.0100 -2.5547
  381MOL0     H51376   4.456   9.519   2.307  0.9118  0.0246  0.1576
  381MOL0     H51377   4.393   9.395   2.419 -0.8991 -0.1253 -0.6726
  381MOL0     H51378   4.548   9.231   2.336  2.2708  0.7069 -0.0527
  381MOL0     H51379   4.584   9.306   2.186 -0.9696 -0.8241 -0.0269
  381MOL0     H51380   4.736   9.475   2.276 -0.2341  2.0594  1.2223
  381MOL0     H51381   4.677   9.455   2.436  4.2265 -1.6181  1.8675
  381MOL0     H51382   4.815   9.231   2.262 -0.5580  1.3695 -1.3969
  381MOL0     H51383   4.767   9.221   2.436  0.4246  1.6825  2.3799
  381MOL0     H51384   5.016   9.307   2.361 -0.4594 -1.5924  1.5246
  381MOL0     H51385   4.946   9.457   2.310 -1.6675 -1.2752 -2.5593
  381MOL0     H51386   5.094   9.314   2.628  1.4754  0.5641  0.2256
  381MOL0     H51387   5.011   9.560   2.917  0.3011  0.0497 -1.0533
  381MOL0     H51388   5.061   9.392   2.881 -0.7676 -1.2362 -1.5132
  381MOL0     H51389   5.218   9.653   2.818  2.9924  0.2563  0.5003
  381MOL0     H51390   5.217   9.577   2.972  0.0402  0.3481  0.3305
  381MOL0     H51391   5.296   9.456   2.702 -0.0282  2.4836 -0.7069
  381MOL0     H51392   5.328   9.382   2.864 -0.5394 -1.6680 -3.0235
  381MOL0     H51393   5.454   9.639   2.759 -2.5353  0.8779  0.5298
  381MOL0     H51394   5.531   9.479   2.792 -0.7604 -0.4744  0.3901
  381MOL0     H51395   5.535   9.598   3.217  1.7204 -2.7348  2.6625
  381MOL0     H51396   5.753   9.603   3.319  1.1167 -2.2499  0.2666
  381MOL0     H51397   6.215   9.808   3.302 -0.4665 -1.0257  3.1948
  381MOL0     H51398   6.440   9.769   3.401 -0.4179 -0.8215  0.9664
  381MOL0     H51399   6.688   9.653   3.212  2.6815  0.4034 -0.7907
  381MOL0     H51400   6.675   9.746   3.357 -2.9726 -1.2444  0.7429
  381MOL0     H51401   6.835   9.557   3.459  1.5437 -1.0768  0.1085
  381MOL0     H51402   6.845   9.495   3.290  0.5073  0.3109 -1.9398
  381MOL0     H51403   6.936   9.705   3.209 -0.6392  3.7749  0.4947
  381MOL0     H51404   6.924   9.772   3.366 -1.3652 -0.4763  0.2488
  381MOL0     H51405   7.104   9.529   3.292  1.7181 -1.2986  1.4925
  381MOL0     H51406   7.083   9.608   3.446 -1.1601  0.8399 -0.4528
  381MOL0     H51407   7.156   9.832   3.323 -1.1268 -0.0850 -1.8437
  381MOL0     H51408   7.175   9.737   3.176  0.3563 -2.1192  0.3313
  381MOL0     H51409   7.380   9.789   3.276 -0.9351  0.2467 -0.3679
  381MOL0     H51410   7.327   9.703   3.432  0.7977 -2.4726  0.6604
  381MOL0     H51411   7.412   9.597   3.155  1.6700  2.3195 -0.0769
  381MOL0     H51412   7.335   9.492   3.269  0.3665 -0.7483  0.6419
  381MOL0     H51413   7.587   9.478   3.253  1.4381 -0.0970  1.3726
  381MOL0     H51414   7.604   9.643   3.305 -0.4094  0.0501 -1.8366
  381MOL0     H51415   6.464   9.391   3.206  1.4523  1.9624 -1.9209
  381MOL0     H51416   6.251   9.421   3.109 -1.1941  0.5603  0.7315
  381MOL0     H51417   5.932   9.635   2.932 -0.3474 -2.0808 -0.6466
  381MOL0     H51418   5.707   9.612   2.830  1.2512 -2.2444 -0.3391
  381MOL0     H51419   3.774   9.299   2.355 -2.4366  0.2797  0.4639
  381MOL0     H51420   3.551   9.269   2.246 -0.3348  0.3529 -1.2663
  381MOL0     H51421   3.221   9.564   2.126 -2.9287 -0.7177  0.8637
  381MOL0     H51422   2.987   9.619   2.088 -1.1761  0.1211 -0.6532
  381MOL0     H51423   2.674   9.631   1.824 -1.0650 -1.1607 -0.4679
  381MOL0     H51424   2.771   9.526   1.715  1.6461  0.6797 -0.4051
  381MOL0     H51425   2.723   9.711   1.603  1.7597 -3.7635 -0.1255
  381MOL0     H51426   2.893   9.723   1.641 -1.0438 -0.4854 -0.3125
  381MOL0     H51427   2.842   9.881   1.835 -0.2861  0.0636 -0.4329
  381MOL0     H51428   2.671   9.889   1.792 -0.4753  0.5403 -0.2925
  381MOL0     H51429   2.810  10.089   1.709 -0.8685  2.0796 -2.9142
  381MOL0     H51430   2.898   9.988   1.596  1.3263  3.1952 -0.2456
  381MOL0     H51431   2.505  10.043   1.438 -1.1130 -0.8002 -0.1161
  381MOL0     H51432   2.983   9.444   1.720 -1.0959 -0.4402  0.0476
  381MOL0     H51433   3.293   9.413   1.627  0.2405 -1.4524 -1.0758
  381MOL0     H51434   3.296   9.272   1.729 -1.1882 -1.8121 -2.5025
  381MOL0     H51435   3.153   9.311   1.644 -1.2852  1.2466  0.8039
  382MOL0     O51436   4.927   0.408   1.768  0.5295  0.1230  0.1577
  382MOL0     C51437   4.853   0.434   1.861  0.5276 -0.2664 -0.8591
  382MOL0     O51438   4.890   0.457   1.987  0.1466  0.6237  0.4763
  382MOL0     C51439   5.000   0.538   2.024 -0.3780  0.1641 -0.5728
  382MOL0     C51440   5.090   0.596   1.935 -0.0561  0.0917  0.1029
  382MOL0     C51441   5.196   0.679   1.989  0.6658 -0.0641  0.1145
  382MOL0     C51442   5.205   0.710   2.129  0.7334  0.1393  0.6194
  382MOL0     O51443   5.304   0.797   2.168 -0.3775 -0.3888 -0.1809
  382MOL0     C51444   5.345   0.815   2.302  0.6320  0.4663  0.5165
  382MOL0     C51445   5.431   0.940   2.303  0.6063  0.6875 -0.5081
  382MOL0     C51446   5.560   0.929   2.221 -0.0153 -0.2360  0.4487
  382MOL0     C51447   5.653   1.030   2.275  0.7783 -0.6937 -0.2574
  382MOL0     C51448   5.789   1.032   2.198  0.4094  0.7823 -0.9369
  382MOL0     C51449   5.895   1.120   2.261  0.4631 -0.6764 -0.0358
  382MOL0     C51450   6.026   1.089   2.179  0.7165  0.6877  0.0467
  382MOL0     C51451   6.150   1.119   2.258 -0.7767 -0.3404  0.7508
  382MOL0     N51452   6.282   1.051   2.209 -0.4120 -0.2649  0.7854
  382MOL0     C51453   6.371   1.111   2.128 -0.4175  0.9804 -0.5492
  382MOL0     C51454   6.445   1.012   2.070  0.6540  0.4786  0.5087
  382MOL0     C51455   6.560   1.029   1.975  0.8562 -0.2656  0.2897
  382MOL0     C51456   6.511   1.099   1.846  0.4737 -0.5618 -0.6754
  382MOL0     C51457   6.623   1.199   1.799 -0.1897 -0.3292  0.0439
  382MOL0     C51458   6.749   1.117   1.767 -0.2900 -0.0365  0.4706
  382MOL0     O51459   6.850   1.195   1.698 -0.2090 -0.3904  0.1118
  382MOL0     C51460   6.973   1.140   1.667  0.5492 -0.3569  0.2572
  382MOL0     C51461   7.077   1.217   1.637 -0.1026  0.3016  0.7071
  382MOL0     C51462   7.213   1.174   1.624  1.0051 -0.4632 -0.3498
  382MOL0     C51463   7.236   1.038   1.638 -0.5899  0.4304 -0.8825
  382MOL0     C51464   7.375   0.992   1.622  0.2118  0.5983 -1.1096
  382MOL0     O51465   7.467   1.089   1.603 -0.4158 -0.1243 -0.6842
  382MOL0     C51466   7.601   1.051   1.580 -0.5070  0.4711 -0.2948
  382MOL0     C51467   7.699   1.100   1.662  0.5623  0.1193  0.1960
  382MOL0     C51468   7.830   1.048   1.655  0.9159 -0.3114 -0.3076
  382MOL0     C51469   7.863   0.966   1.556 -0.3388  0.6198 -0.6576
  382MOL0     O51470   7.999   0.942   1.566 -0.4666 -0.2973 -0.3601
  382MOL0     C51471   8.077   0.936   1.452 -0.6310 -0.7420  1.1180
  382MOL0     C51472   8.223   0.950   1.490  0.0964  0.1484  0.1354
  382MOL0     C51473   8.257   1.066   1.574  0.6474 -0.3660  0.4737
  382MOL0     C51474   8.244   1.204   1.498 -0.4309  0.0934  0.3539
  382MOL0     C51475   8.301   1.318   1.575  0.4455 -0.5584 -0.1983
  382MOL0     C51476   8.446   1.301   1.609 -0.0326 -0.7734 -0.0440
  382MOL0     C51477   8.498   1.433   1.664  1.4387 -1.0353  0.0659
  382MOL0     C51478   8.646   1.437   1.677  0.4988 -0.5086  0.4209
  382MOL0    Cl51479   8.681   1.330   1.811 -0.1666  0.0694 -0.3226
  382MOL0     C51480   7.768   0.931   1.448 -0.0429  0.6820  0.7552
  382MOL0     C51481   7.636   0.975   1.467 -0.0863  0.0276 -0.2311
  382MOL0     O51482   7.397   0.873   1.629 -0.7162 -0.2787 -0.2599
  382MOL0     C51483   7.132   0.951   1.665  1.1792 -0.8109 -0.2801
  382MOL0     C51484   7.000   1.006   1.684 -0.4039 -0.0896 -0.4025
  382MOL0     N51485   6.395   0.890   2.113 -0.3895 -0.0966  0.1163
  382MOL0     N51486   6.301   0.914   2.200  0.3480 -0.2215  0.4139
  382MOL0     C51487   5.113   0.636   2.210  0.0125  0.5395  0.5483
  382MOL0     C51488   5.020   0.550   2.159 -0.0621  0.0350 -0.2857
  382MOL0     C51489   4.705   0.453   1.823 -0.0908  0.6464  0.2550
  382MOL0     C51490   4.604   0.438   1.917  0.0417 -0.2437 -0.2160
  382MOL0     C51491   4.467   0.439   1.889  0.2343  0.1232  0.0126
  382MOL0     C51492   4.421   0.471   1.756  0.1681  0.1386 -0.7328
  382MOL0     O51493   4.291   0.478   1.729  0.0764 -0.5077 -1.1752
  382MOL0     C51494   4.252   0.386   1.632  0.1494  0.3347  0.4621
  382MOL0     C51495   4.272   0.239   1.680 -0.2599  0.4342  0.4796
  382MOL0     C51496   4.153   0.192   1.770 -0.0426  0.6642 -0.2103
  382MOL0     C51497   4.116   0.053   1.723 -0.7912 -0.2504 -0.1614
  382MOL0     C51498   4.234  -0.033   1.747 -0.0178  0.1623  0.0940
  382MOL0     C51499   4.312  -0.116   1.776 -0.4560 -0.5454 -0.3327
  382MOL0     C51500   4.517   0.500   1.670  0.5227  0.2403  0.7498
  382MOL0     C51501   4.646   0.482   1.701 -0.2191 -0.4856  0.0155
  382MOL0     C51502   4.733   0.506   1.577  0.0697  0.0934 -0.4946
  382MOL0     H51503   5.076   0.572   1.830 -5.9703  0.4455  0.4702
  382MOL0     H51504   5.266   0.737   1.930 -0.1659 -0.1152 -0.9412
  382MOL0     H51505   5.253   0.822   2.360 -0.5983 -1.1202 -1.1439
  382MOL0     H51506   5.401   0.725   2.330 -1.3946 -1.6975 -1.9390
  382MOL0     H51507   5.446   0.973   2.406 -0.9750 -1.2196  0.3931
  382MOL0     H51508   5.367   1.015   2.254  1.0032  0.7273 -0.9817
  382MOL0     H51509   5.547   0.963   2.118  2.1086 -1.1985 -0.2028
  382MOL0     H51510   5.603   0.828   2.220 -2.4179 -1.3309  0.5131
  382MOL0     H51511   5.604   1.126   2.258  0.5455 -0.8158 -0.2735
  382MOL0     H51512   5.670   1.013   2.381 -1.1133  1.3770  0.4443
  382MOL0     H51513   5.829   0.931   2.209 -0.6478  0.3716 -0.8272
  382MOL0     H51514   5.773   1.053   2.092 -1.5581 -3.0945 -1.5851
  382MOL0     H51515   5.868   1.226   2.251  1.1984 -0.5652 -1.0008
  382MOL0     H51516   5.907   1.095   2.367  1.9952 -1.4931 -0.3715
  382MOL0     H51517   6.021   1.142   2.083 -2.2229 -1.7154 -1.2943
  382MOL0     H51518   6.030   0.982   2.157  3.2621  0.8228 -0.4314
  382MOL0     H51519   6.163   1.228   2.266  2.7591 -0.8095  4.8581
  382MOL0     H51520   6.128   1.076   2.355 -0.3290  0.5633  1.2679
  382MOL0     H51521   6.393   1.217   2.115  1.4261  0.6256 -0.5700
  382MOL0     H51522   6.633   1.094   2.025  1.1998  0.0830 -0.6467
  382MOL0     H51523   6.610   0.932   1.962 -1.4488 -1.2940 -1.6841
  382MOL0     H51524   6.484   1.026   1.769  3.0094 -2.8809  0.4823
  382MOL0     H51525   6.418   1.157   1.853  1.9895  1.8852  0.2854
  382MOL0     H51526   6.641   1.277   1.872 -2.5041  3.1056 -2.6952
  382MOL0     H51527   6.590   1.259   1.713 -4.4369 -2.5257 -0.1070
  382MOL0     H51528   6.713   1.028   1.716 -4.4462  1.5887  0.1793
  382MOL0     H51529   6.792   1.084   1.863 -0.7708 -2.2159 -0.0338
  382MOL0     H51530   7.043   1.320   1.635 -5.0025 -0.9890  2.1670
  382MOL0     H51531   7.291   1.249   1.605  1.3933 -0.5874  0.7074
  382MOL0     H51532   7.659   1.166   1.738 -2.2968 -0.5735 -0.5959
  382MOL0     H51533   7.900   1.097   1.723  0.6603  2.7099 -1.9981
  382MOL0     H51534   8.063   0.838   1.406  3.6007 -0.7748 -0.4649
  382MOL0     H51535   8.050   1.020   1.387  2.5673  0.4661  1.1796
  382MOL0     H51536   8.252   0.871   1.560  0.0292  1.4514  1.6763
  382MOL0     H51537   8.288   0.940   1.402  3.1349  0.4858  2.1725
  382MOL0     H51538   8.188   1.074   1.659 -1.3224  0.4600 -1.1186
  382MOL0     H51539   8.362   1.059   1.602  0.5654  1.8976  1.5525
  382MOL0     H51540   8.139   1.229   1.483  0.2088  2.3616 -0.7946
  382MOL0     H51541   8.290   1.195   1.399  0.5410 -1.7087  0.9312
  382MOL0     H51542   8.240   1.318   1.665 -0.6913 -2.1314 -0.9108
  382MOL0     H51543   8.283   1.412   1.523  0.2458 -0.3440  0.2591
  382MOL0     H51544   8.473   1.225   1.683  0.6804  1.0959  1.7412
  382MOL0     H51545   8.505   1.275   1.521 -0.3784 -0.3418 -0.4075
  382MOL0     H51546   8.445   1.445   1.759 -2.1477 -2.8168 -1.5093
  382MOL0     H51547   8.461   1.514   1.599 -2.2588 -1.9957  0.7243
  382MOL0     H51548   8.712   1.413   1.593  0.8982  1.8114  0.0070
  382MOL0     H51549   8.667   1.539   1.710  1.8022 -0.6230 -0.0011
  382MOL0     H51550   7.801   0.893   1.352  0.7611  0.3608  1.1495
  382MOL0     H51551   7.557   0.943   1.400  0.6205 -3.4602  0.3999
  382MOL0     H51552   7.140   0.843   1.671  0.8313 -0.8684 -0.7663
  382MOL0     H51553   6.920   0.936   1.706  0.0742 -0.2510  0.8769
  382MOL0     H51554   5.121   0.649   2.317  1.0194 -0.2683  0.5764
  382MOL0     H51555   4.968   0.488   2.231  1.7243 -0.8861  0.2762
  382MOL0     H51556   4.630   0.421   2.021 -0.9709  0.8414  0.2392
  382MOL0     H51557   4.398   0.419   1.971 -1.2320 -2.3378 -1.6691
  382MOL0     H51558   4.307   0.394   1.537 -1.5072  0.4098 -0.5193
  382MOL0     H51559   4.149   0.398   1.599  0.7291  1.1376 -1.1873
  382MOL0     H51560   4.364   0.240   1.739  1.4326  0.4201 -2.0125
  382MOL0     H51561   4.290   0.177   1.592 -0.3413  2.4246 -1.0071
  382MOL0     H51562   4.073   0.266   1.763  0.4788  1.2478  0.0074
  382MOL0     H51563   4.193   0.186   1.871 -0.7768 -1.9023  0.0174
  382MOL0     H51564   4.022   0.025   1.771 -1.9448  4.2650  0.7081
  382MOL0     H51565   4.115   0.050   1.614  2.0200  0.2456 -0.2814
  382MOL0     H51566   4.395  -0.182   1.793 -0.2774 -1.1447 -3.0012
  382MOL0     H51567   4.496   0.524   1.566  1.8538 -0.0099  0.4107
  382MOL0     H51568   4.760   0.410   1.533 -3.6862 -0.0841 -2.8912
  382MOL0     H51569   4.687   0.570   1.501  0.4446  3.5974  1.9914
  382MOL0     H51570   4.823   0.560   1.609  0.0872 -1.0569  1.5481
  383MOL0     O51571   4.933   3.096   0.476 -0.1867  0.7415 -0.0266
  383MOL0     C51572   4.904   3.040   0.581  0.0599 -0.3523  0.6812
  383MOL0     O51573   4.988   3.006   0.679 -0.3174  0.0142 -0.2410
  383MOL0     C51574   5.119   3.047   0.696  0.0846 -0.1164 -0.3491
  383MOL0     C51575   5.193   3.145   0.630  0.1039 -0.2944  0.1065
  383MOL0     C51576   5.329   3.169   0.661  0.3496 -0.0844 -0.6435
  383MOL0     C51577   5.387   3.094   0.772 -0.7787  0.6620 -0.6205
  383MOL0     O51578   5.510   3.122   0.825  0.3104  0.2510  0.2065
  383MOL0     C51579   5.602   3.212   0.757 -0.2340  0.1165  0.2737
  383MOL0     C51580   5.746   3.184   0.815  0.3303 -0.3165  0.0235
  383MOL0     C51581   5.819   3.315   0.852  0.4624  0.2731 -0.1199
  383MOL0     C51582   5.953   3.292   0.911 -0.2497 -0.0945  0.1689
  383MOL0     C51583   6.029   3.420   0.948 -0.2094  0.1661  0.5663
  383MOL0     C51584   5.940   3.507   1.032  0.3446  0.0157 -1.2036
  383MOL0     C51585   6.017   3.622   1.117  0.0247  0.7014 -0.4291
  383MOL0     C51586   6.104   3.728   1.046  1.0839 -0.0352 -0.5410
  383MOL0     N51587   6.221   3.674   0.981 -0.9065 -0.0021 -0.0705
  383MOL0     C51588   6.320   3.586   1.030  0.3855 -0.3546 -0.6161
  383MOL0     C51589   6.425   3.608   0.954  0.1992  0.7864  0.3245
  383MOL0     C51590   6.561   3.538   0.977 -0.3619 -0.5388  0.0751
  383MOL0     C51591   6.674   3.645   0.989  0.4249 -0.2445  0.5134
  383MOL0     C51592   6.811   3.581   0.951  0.0857 -0.3982 -0.3607
  383MOL0     C51593   6.854   3.448   1.021  0.1362  0.4836 -0.0340
  383MOL0     O51594   6.846   3.461   1.166 -0.2411 -0.2561 -0.0799
  383MOL0     C51595   6.916   3.372   1.241  0.2269  0.1684  0.0921
  383MOL0     C51596   6.869   3.239   1.247  0.6945 -0.4870  0.7292
  383MOL0     C51597   6.932   3.153   1.340  0.2303  0.6454 -0.7107
  383MOL0     C51598   7.037   3.195   1.425 -0.6187 -0.6909  0.3039
  383MOL0     C51599   7.101   3.101   1.522  0.2379  0.1111 -0.3530
  383MOL0     O51600   7.013   3.007   1.562  0.5225  0.3036 -0.0570
  383MOL0     C51601   7.061   2.905   1.638 -0.5995 -1.1532  0.3889
  383MOL0     C51602   6.984   2.863   1.753  0.3841 -0.1672  0.1049
  383MOL0     C51603   7.030   2.756   1.828  0.6615  0.4250 -0.4224
  383MOL0     C51604   7.137   2.679   1.794  0.3097 -0.4844  0.0000
  383MOL0     O51605   7.168   2.581   1.884  0.1354  0.7806  0.1153
  383MOL0     C51606   7.303   2.531   1.882  0.1399 -0.2344 -0.6726
  383MOL0     C51607   7.313   2.473   2.024  0.1797  0.4086  0.6840
  383MOL0     C51608   7.446   2.410   2.043 -0.0222 -0.3394  0.3010
  383MOL0     C51609   7.485   2.270   1.980  0.6283 -0.2984  0.1413
  383MOL0     C51610   7.598   2.197   2.051  1.1657 -0.5196 -0.4130
  383MOL0     C51611   7.571   2.042   2.060  0.2562 -0.3649 -0.2038
  383MOL0     C51612   7.592   1.961   1.931  0.6692  0.1574 -0.3219
  383MOL0     C51613   7.731   1.983   1.863  0.6693  0.2898 -1.0450
  383MOL0    Cl51614   7.865   1.964   1.975  0.1594  0.0691 -0.1436
  383MOL0     C51615   7.210   2.716   1.686 -0.3384 -0.6713  0.8187
  383MOL0     C51616   7.180   2.831   1.612 -0.1870  0.4855  0.3853
  383MOL0     O51617   7.215   3.113   1.555 -0.5055 -0.4640 -0.8723
  383MOL0     C51618   7.091   3.324   1.405 -1.0623  0.5798 -0.7321
  383MOL0     C51619   7.027   3.407   1.319 -0.2689  0.0945 -0.3321
  383MOL0     N51620   6.387   3.682   0.842  0.6224 -0.4969 -0.1097
  383MOL0     N51621   6.257   3.718   0.858 -0.3959  0.5470  0.3255
  383MOL0     C51622   5.307   2.992   0.828  0.1103  0.8788  0.2183
  383MOL0     C51623   5.177   2.968   0.796  0.7650 -0.6472 -0.5808
  383MOL0     C51624   4.777   2.970   0.574  1.3760 -0.0975 -0.0665
  383MOL0     C51625   4.776   2.845   0.641  0.3791 -0.1464  0.5232
  383MOL0     C51626   4.652   2.775   0.656 -0.5256 -0.5877 -0.5072
  383MOL0     C51627   4.531   2.839   0.611  0.5541  0.3967  0.6389
  383MOL0     O51628   4.403   2.785   0.620  0.4470  0.0331 -0.1360
  383MOL0     C51629   4.388   2.651   0.653 -0.8102 -0.0491 -0.1014
  383MOL0     C51630   4.239   2.614   0.685  0.0128  0.1865  0.2474
  383MOL0     C51631   4.217   2.460   0.668 -0.1047  0.6235 -0.2910
  383MOL0     C51632   4.170   2.408   0.531  0.2278  0.2975 -0.3422
  383MOL0     C51633   4.285   2.385   0.446  0.1789  0.2095 -0.0860
  383MOL0     C51634   4.367   2.363   0.361  0.5372  0.3958 -0.2331
  383MOL0     C51635   4.544   2.964   0.549 -0.7392 -0.4665 -0.4325
  383MOL0     C51636   4.661   3.031   0.525  0.9345 -0.8398  1.0346
  383MOL0     C51637   4.658   3.165   0.454 -0.3862  0.6675  0.3563
  383MOL0     H51638   5.141   3.206   0.557 -1.3299 -1.5206  0.0586
  383MOL0     H51639   5.381   3.256   0.621  0.8200  0.3058  0.7505
  383MOL0     H51640   5.612   3.172   0.655 -0.1483 -3.3489  1.5091
  383MOL0     H51641   5.577   3.317   0.770  3.2271  0.8594  2.0852
  383MOL0     H51642   5.806   3.123   0.748 -0.4121 -0.5122 -0.4737
  383MOL0     H51643   5.738   3.127   0.909  2.7229  0.1046  0.5424
  383MOL0     H51644   5.764   3.368   0.931 -1.6205 -0.3448 -1.0751
  383MOL0     H51645   5.818   3.375   0.761  2.7458  1.9093  0.8423
  383MOL0     H51646   5.943   3.232   1.002 -1.0050 -2.6131 -1.4611
  383MOL0     H51647   6.003   3.235   0.832  1.3117  1.4172  0.0075
  383MOL0     H51648   6.129   3.404   0.989  0.9835 -0.1184 -2.2277
  383MOL0     H51649   6.061   3.465   0.854 -0.2991 -0.7224  0.0971
  383MOL0     H51650   5.870   3.562   0.968  0.1037 -0.8899 -1.7496
  383MOL0     H51651   5.897   3.433   1.100  1.6100 -1.1863 -1.6790
  383MOL0     H51652   6.065   3.575   1.203 -2.3524  0.2303  0.7451
  383MOL0     H51653   5.934   3.675   1.166  0.2885  0.7694 -0.0550
  383MOL0     H51654   6.040   3.770   0.969 -0.5958 -2.1058 -0.3777
  383MOL0     H51655   6.149   3.799   1.116  1.0540 -0.9095  0.4053
  383MOL0     H51656   6.309   3.522   1.117 -1.5532  2.5318  1.4636
  383MOL0     H51657   6.549   3.489   1.074 -0.0476 -1.2531 -0.2374
  383MOL0     H51658   6.586   3.468   0.896 -0.8457  0.0516 -0.5979
  383MOL0     H51659   6.649   3.732   0.927 -2.7548 -0.8732  0.7116
  383MOL0     H51660   6.687   3.688   1.089  0.9474  2.3580 -0.5887
  383MOL0     H51661   6.890   3.656   0.966 -0.9334  0.5327  0.5453
  383MOL0     H51662   6.804   3.561   0.844  0.3085 -1.4777 -0.1819
  383MOL0     H51663   6.952   3.407   0.999 -0.6786 -1.0616 -0.9759
  383MOL0     H51664   6.777   3.373   0.997  0.5114 -0.9486  2.8015
  383MOL0     H51665   6.783   3.213   1.187  0.3374 -0.7849  1.3614
  383MOL0     H51666   6.881   3.061   1.368  0.5055  0.0627 -2.0300
  383MOL0     H51667   6.893   2.912   1.785  2.8643  4.2314  1.2864
  383MOL0     H51668   6.974   2.731   1.918  0.0478  3.7598  0.2440
  383MOL0     H51669   7.317   2.451   1.809  0.8932 -1.0108  0.2913
  383MOL0     H51670   7.382   2.606   1.868  1.0524 -0.7487  1.3386
  383MOL0     H51671   7.298   2.546   2.103  1.3829  2.8008 -1.1741
  383MOL0     H51672   7.243   2.389   2.026  2.4177 -1.6982 -1.5633
  383MOL0     H51673   7.527   2.480   2.020  0.9961 -1.5883 -0.0485
  383MOL0     H51674   7.451   2.399   2.152  0.2148  3.8597  0.8669
  383MOL0     H51675   7.522   2.293   1.880 -0.0776  1.9378  0.3192
  383MOL0     H51676   7.399   2.201   1.980  1.6172 -1.6298 -1.7798
  383MOL0     H51677   7.599   2.231   2.155  0.5258 -0.5614 -0.3900
  383MOL0     H51678   7.700   2.218   2.016  2.2369  0.5083  2.9269
  383MOL0     H51679   7.640   2.007   2.137  1.2606  0.2815 -0.7842
  383MOL0     H51680   7.471   2.013   2.095  0.7552 -1.1792  0.6073
  383MOL0     H51681   7.525   1.993   1.851  0.8700 -0.7577 -0.8755
  383MOL0     H51682   7.571   1.855   1.950  0.8312 -0.9912 -5.1764
  383MOL0     H51683   7.745   1.913   1.780 -0.7205 -1.1497 -0.1099
  383MOL0     H51684   7.732   2.081   1.815 -1.7770  0.8780 -0.0400
  383MOL0     H51685   7.312   2.684   1.666  0.4993  2.3039 -0.1930
  383MOL0     H51686   7.232   2.863   1.522 -1.3045 -4.0648 -2.1948
  383MOL0     H51687   7.184   3.345   1.457 -1.1728 -1.3419  0.3478
  383MOL0     H51688   7.062   3.510   1.318  0.5312 -0.1595  0.4993
  383MOL0     H51689   5.348   2.920   0.899 -2.3545  0.8260  1.6840
  383MOL0     H51690   5.130   2.883   0.845  1.7494 -1.5328 -1.1311
  383MOL0     H51691   4.867   2.814   0.693  2.2092  0.9447 -1.8688
  383MOL0     H51692   4.651   2.679   0.707  1.9653 -0.6391 -0.4352
  383MOL0     H51693   4.444   2.610   0.737 -0.2122 -0.2811 -0.6080
  383MOL0     H51694   4.410   2.597   0.561 -2.8410 -1.5327  0.2093
  383MOL0     H51695   4.186   2.661   0.601  1.0291 -0.9262 -1.0588
  383MOL0     H51696   4.209   2.662   0.778 -1.0166  2.0474 -0.9669
  383MOL0     H51697   4.140   2.425   0.737 -0.8746  1.0663 -0.9034
  383MOL0     H51698   4.308   2.410   0.699  0.2333  1.3520 -0.0793
  383MOL0     H51699   4.114   2.315   0.544 -2.7390  1.8664 -0.9553
  383MOL0     H51700   4.090   2.474   0.497 -0.0804  0.5128  0.7528
  383MOL0     H51701   4.448   2.342   0.294  0.7214 -0.5594  0.2690
  383MOL0     H51702   4.457   3.006   0.500  1.0005  2.2802 -1.3645
  383MOL0     H51703   4.730   3.172   0.371 -0.0438  0.6072  0.6446
  383MOL0     H51704   4.556   3.195   0.426 -0.9710 -1.4848  0.0289
  383MOL0     H51705   4.691   3.231   0.535  0.4888 -1.9534  2.2791
  384MOL0     O51706   0.606   5.854   4.333  0.5901  0.5214  0.8167
  384MOL0     C51707   0.667   5.830   4.434  0.2996  0.5611  0.0090
  384MOL0     O51708   0.619   5.840   4.562  0.3973  0.6388  0.2228
  384MOL0     C51709   0.499   5.892   4.586 -0.7178  0.8226 -0.1413
  384MOL0     C51710   0.500   5.986   4.694  0.2764  0.4853  0.0755
  384MOL0     C51711   0.376   6.037   4.745  0.7314 -0.1873 -0.7337
  384MOL0     C51712   0.258   6.002   4.676 -0.1985 -0.3695  0.7858
  384MOL0     O51713   0.136   6.053   4.712  0.5134 -0.4276 -0.4421
  384MOL0     C51714   0.116   6.083   4.852 -0.0000 -0.3463  0.7535
  384MOL0     C51715  -0.038   6.116   4.887 -0.0674 -0.4226 -0.2641
  384MOL0     C51716  -0.080   6.252   4.828  0.3691 -0.6074  0.4348
  384MOL0     C51717  -0.223   6.285   4.873 -0.6784  0.7547  0.0160
  384MOL0     C51718  -0.251   6.430   4.898  0.4334 -0.5789 -0.4253
  384MOL0     C51719  -0.173   6.496   5.003 -0.9299  0.3535 -0.5965
  384MOL0     C51720  -0.212   6.442   5.133 -0.5247  0.9577  0.3636
  384MOL0     C51721  -0.221   6.550   5.244  0.2049 -0.2127 -0.1632
  384MOL0     N51722  -0.347   6.614   5.243  0.9158 -0.2945  0.8871
  384MOL0     C51723  -0.470   6.554   5.265 -0.3837  0.2714  0.1094
  384MOL0     C51724  -0.560   6.652   5.270  0.0194  0.0128 -0.2958
  384MOL0     C51725  -0.704   6.634   5.281  0.6408 -0.1888 -0.1780
  384MOL0     C51726  -0.741   6.479   5.253  0.8972  0.6061  0.1049
  384MOL0     C51727  -0.731   6.402   5.383 -0.0295  0.2460 -0.5246
  384MOL0     C51728  -0.860   6.420   5.468 -0.3963 -0.3804 -0.0527
  384MOL0     O51729  -0.849   6.547   5.543  0.3543  0.4428 -0.1129
  384MOL0     C51730  -0.907   6.565   5.668  0.0090 -0.0274  0.5213
  384MOL0     C51731  -0.873   6.685   5.727 -0.0586  0.4982 -0.2013
  384MOL0     C51732  -0.935   6.720   5.852  0.1051 -0.0724 -0.1804
  384MOL0     C51733  -1.036   6.638   5.909  0.4431 -0.1474 -0.7406
  384MOL0     C51734  -1.091   6.679   6.043  0.3570  0.2175 -0.0322
  384MOL0     O51735  -1.029   6.788   6.104  0.0413 -0.4599 -0.7868
  384MOL0     C51736  -1.096   6.863   6.203  0.4069  0.4465  0.1694
  384MOL0     C51737  -1.028   6.924   6.311  0.0919  0.4040  0.4004
  384MOL0     C51738  -1.087   7.009   6.408 -0.2790  0.1322 -0.5361
  384MOL0     C51739  -1.221   7.032   6.391  0.4123 -0.0253  0.2481
  384MOL0     O51740  -1.287   7.131   6.474 -0.3329 -0.1771 -0.5735
  384MOL0     C51741  -1.431   7.133   6.470  0.5056  0.1345 -0.5199
  384MOL0     C51742  -1.476   7.239   6.563  0.2523 -0.2834 -0.9238
  384MOL0     C51743  -1.629   7.244   6.556  0.5026 -0.1837  0.3572
  384MOL0     C51744  -1.681   7.367   6.636 -0.3897 -0.3824 -0.1930
  384MOL0     C51745  -1.837   7.365   6.634 -0.0492 -0.1009  0.8679
  384MOL0     C51746  -1.890   7.487   6.704 -0.5875  0.1056  0.3137
  384MOL0     C51747  -1.878   7.494   6.854  0.2462  0.2510  1.2030
  384MOL0     C51748  -1.969   7.603   6.909  1.3120 -0.3577 -0.0203
  384MOL0    Cl51749  -2.147   7.556   6.881  0.0879 -0.2850 -0.5193
  384MOL0     C51750  -1.296   6.965   6.292 -0.2966 -0.4578  0.0665
  384MOL0     C51751  -1.231   6.883   6.193  0.2248 -0.5135 -0.3254
  384MOL0     O51752  -1.190   6.622   6.086 -0.6498  1.1003 -0.0032
  384MOL0     C51753  -1.075   6.527   5.836 -0.3142  0.3842  0.1576
  384MOL0     C51754  -1.004   6.482   5.722 -0.0845  0.0407 -0.9690
  384MOL0     N51755  -0.493   6.768   5.238 -0.2080 -0.0962 -0.8230
  384MOL0     N51756  -0.375   6.746   5.223 -0.8790  0.3314  0.4373
  384MOL0     C51757   0.269   5.929   4.557  0.1899  1.0090  0.4764
  384MOL0     C51758   0.384   5.864   4.515 -0.2728  0.0332 -0.5545
  384MOL0     C51759   0.795   5.764   4.423  1.0690  0.0672 -0.2966
  384MOL0     C51760   0.817   5.663   4.519 -0.2132 -0.2645  0.3126
  384MOL0     C51761   0.922   5.574   4.506 -0.1997 -0.0834 -0.0448
  384MOL0     C51762   1.010   5.588   4.402  0.1931  0.0814 -0.0212
  384MOL0     O51763   1.110   5.500   4.387  0.7780 -0.8094 -0.4004
  384MOL0     C51764   1.240   5.556   4.421 -0.0501  0.3574  0.4316
  384MOL0     C51765   1.339   5.443   4.416 -0.5852  0.7698 -0.5129
  384MOL0     C51766   1.485   5.502   4.413  0.9638  0.8369  0.0239
  384MOL0     C51767   1.591   5.393   4.382 -0.1568  0.4560  0.0445
  384MOL0     C51768   1.724   5.455   4.387  0.2822 -0.0614 -0.6698
  384MOL0     C51769   1.837   5.502   4.396 -0.0082 -1.0842  0.0597
  384MOL0     C51770   0.992   5.688   4.310  0.2120  0.8347 -0.5166
  384MOL0     C51771   0.886   5.781   4.322  0.2978 -0.4931  0.4443
  384MOL0     C51772   0.878   5.889   4.222  0.1864 -0.2725 -0.2716
  384MOL0     H51773   0.595   5.997   4.745 -0.0945  0.2672  0.8286
  384MOL0     H51774   0.384   6.094   4.837  2.4818 -0.6703 -0.5461
  384MOL0     H51775   0.140   6.000   4.919  1.8652 -1.1844 -0.8663
  384MOL0     H51776   0.171   6.174   4.877 -1.7080  1.7367 -2.3489
  384MOL0     H51777  -0.038   6.125   4.996  2.8566  1.1975 -0.3023
  384MOL0     H51778  -0.101   6.036   4.845 -0.9814  0.3631 -0.4150
  384MOL0     H51779  -0.085   6.243   4.719 -0.7119  0.1311  0.4057
  384MOL0     H51780  -0.016   6.339   4.847 -0.6559  0.4548 -0.7875
  384MOL0     H51781  -0.286   6.248   4.791  0.0591 -0.7340  0.0781
  384MOL0     H51782  -0.253   6.225   4.960 -1.0357  1.0676  0.1055
  384MOL0     H51783  -0.232   6.490   4.809  0.8334  0.4472  0.3263
  384MOL0     H51784  -0.356   6.456   4.910  0.8471  1.3950 -0.7313
  384MOL0     H51785  -0.065   6.478   4.994 -0.4742  0.6678  2.8992
  384MOL0     H51786  -0.207   6.600   4.996  0.0285  0.6010 -1.8010
  384MOL0     H51787  -0.130   6.380   5.170 -1.9641 -0.0000  2.0687
  384MOL0     H51788  -0.303   6.383   5.125  0.3107 -0.2902 -0.2760
  384MOL0     H51789  -0.215   6.499   5.340 -1.1706 -4.4857 -2.1199
  384MOL0     H51790  -0.138   6.620   5.226 -0.5379  1.1086  1.2860
  384MOL0     H51791  -0.495   6.449   5.260 -0.2602  0.2900 -1.1062
  384MOL0     H51792  -0.740   6.680   5.374  1.9841  2.3141 -0.7989
  384MOL0     H51793  -0.758   6.694   5.208  0.0879  0.7460  0.9707
  384MOL0     H51794  -0.844   6.479   5.215  2.1168  1.6389 -3.6473
  384MOL0     H51795  -0.682   6.424   5.179  1.6268  0.3599  0.8615
  384MOL0     H51796  -0.648   6.436   5.446 -0.0266 -2.4667  1.1028
  384MOL0     H51797  -0.728   6.294   5.367 -1.1433  0.2996 -1.1595
  384MOL0     H51798  -0.880   6.341   5.541 -2.0721  1.5210  1.6818
  384MOL0     H51799  -0.949   6.418   5.404 -0.1160 -2.9380 -0.5030
  384MOL0     H51800  -0.795   6.745   5.682  2.5294  0.1695  3.3911
  384MOL0     H51801  -0.919   6.809   5.912 -1.1738 -0.4869  0.8184
  384MOL0     H51802  -0.921   6.916   6.327  0.2169  2.4041  0.9196
  384MOL0     H51803  -1.038   7.044   6.497  3.0657 -4.5937 -0.1550
  384MOL0     H51804  -1.465   7.161   6.370  1.7591  0.3442 -0.9004
  384MOL0     H51805  -1.487   7.042   6.495 -3.1236  1.7227 -2.1666
  384MOL0     H51806  -1.442   7.220   6.665  0.5553  0.7844 -0.8133
  384MOL0     H51807  -1.439   7.337   6.531  0.2151 -0.5673 -1.8618
  384MOL0     H51808  -1.662   7.240   6.451 -1.7587 -2.4516  1.0241
  384MOL0     H51809  -1.661   7.149   6.601  0.2883  0.1409  0.8876
  384MOL0     H51810  -1.649   7.460   6.588 -0.7302  0.4894  1.2156
  384MOL0     H51811  -1.649   7.361   6.740  3.3178  0.8943 -1.0915
  384MOL0     H51812  -1.876   7.273   6.677  1.4349 -1.9140 -1.3821
  384MOL0     H51813  -1.874   7.365   6.531 -0.6257 -4.0234  0.9360
  384MOL0     H51814  -1.837   7.578   6.676  1.9359 -1.2680  0.3070
  384MOL0     H51815  -1.996   7.500   6.679 -0.5141  0.1993  0.0525
  384MOL0     H51816  -1.773   7.514   6.879  0.3607  0.1639  0.7940
  384MOL0     H51817  -1.906   7.396   6.894 -0.4050  0.7584  2.0082
  384MOL0     H51818  -1.944   7.614   7.015  0.8201 -0.2731  0.0880
  384MOL0     H51819  -1.967   7.702   6.863  0.9237 -1.4860 -2.6008
  384MOL0     H51820  -1.401   6.988   6.277  0.1814  2.2119  0.2309
  384MOL0     H51821  -1.300   6.837   6.123 -0.9266  0.3514  0.1924
  384MOL0     H51822  -1.147   6.461   5.883  1.8823 -2.3284 -0.0381
  384MOL0     H51823  -1.042   6.394   5.671 -0.7837 -0.6369  0.6653
  384MOL0     H51824   0.178   5.916   4.498  0.8770  2.4589 -0.9602
  384MOL0     H51825   0.385   5.791   4.434  0.5383 -1.6684  0.9015
  384MOL0     H51826   0.748   5.650   4.602  0.2121  3.5887  1.4824
  384MOL0     H51827   0.933   5.494   4.579  2.6506  1.2392  1.1046
  384MOL0     H51828   1.240   5.600   4.520 -2.1186  3.7575 -0.9225
  384MOL0     H51829   1.266   5.631   4.346 -0.1389 -0.9026 -0.9340
  384MOL0     H51830   1.335   5.376   4.330  1.4183 -1.7403  1.1980
  384MOL0     H51831   1.348   5.385   4.508  4.3812 -1.2289 -1.9421
  384MOL0     H51832   1.516   5.545   4.509  1.0015  0.2774  0.2624
  384MOL0     H51833   1.489   5.585   4.342 -1.0602  3.8250  3.0902
  384MOL0     H51834   1.587   5.315   4.458 -0.2045 -2.6673 -2.9460
  384MOL0     H51835   1.574   5.348   4.284 -1.8851  1.3237 -0.0940
  384MOL0     H51836   1.929   5.545   4.430  0.5541 -1.7963 -0.5443
  384MOL0     H51837   1.063   5.717   4.233 -0.8439  1.6517 -1.2133
  384MOL0     H51838   0.826   5.980   4.254  2.6705  1.8441 -1.8245
  384MOL0     H51839   0.981   5.912   4.193  0.3908 -0.9881 -0.1278
  384MOL0     H51840   0.822   5.852   4.135 -1.1140 -1.0378  0.8589
  385MOL0     O51841   0.527   1.532   8.857  0.0826 -0.5826 -0.2044
  385MOL0     C51842   0.552   1.433   8.925 -0.6637 -0.7879  0.0059
  385MOL0     O51843   0.493   1.311   8.912 -0.1625  0.4004  0.1736
  385MOL0     C51844   0.398   1.280   8.822  0.8155 -0.2956 -0.0129
  385MOL0     C51845   0.261   1.280   8.854 -0.6833 -0.2473 -0.1041
  385MOL0     C51846   0.161   1.285   8.755 -0.0791 -0.1840 -0.2168
  385MOL0     C51847   0.198   1.272   8.620 -0.5395 -0.1659  1.0812
  385MOL0     O51848   0.089   1.253   8.541 -0.2143 -0.4787 -0.5164
  385MOL0     C51849   0.105   1.244   8.398 -0.9718  0.4777  0.5518
  385MOL0     C51850  -0.036   1.252   8.338  0.3818  0.1055  0.3312
  385MOL0     C51851  -0.104   1.390   8.364 -0.2024  0.7962 -0.0917
  385MOL0     C51852  -0.254   1.391   8.316  0.7483  0.2059  0.3737
  385MOL0     C51853  -0.299   1.536   8.309 -0.2862  0.0384  1.2128
  385MOL0     C51854  -0.450   1.541   8.283  0.6578 -0.3605  0.1170
  385MOL0     C51855  -0.492   1.493   8.141 -0.0030 -0.0478 -0.2988
  385MOL0     C51856  -0.640   1.522   8.100  0.3418 -0.0535  0.7402
  385MOL0     N51857  -0.663   1.503   7.953 -0.5125  0.2169  0.8701
  385MOL0     C51858  -0.652   1.599   7.845 -0.7182 -0.0877  0.4045
  385MOL0     C51859  -0.722   1.549   7.751  0.0080  0.2006 -0.0331
  385MOL0     C51860  -0.741   1.629   7.623 -0.1636 -1.0714 -0.9196
  385MOL0     C51861  -0.881   1.594   7.549 -0.3696 -0.5000 -1.1251
  385MOL0     C51862  -0.887   1.655   7.413  0.4241  0.0189  0.4287
  385MOL0     C51863  -0.995   1.770   7.404  0.1616  0.1189 -0.9666
  385MOL0     O51864  -0.959   1.889   7.471  0.9858 -0.6415 -0.4347
  385MOL0     C51865  -1.023   1.997   7.415  0.1802  0.7308 -0.0462
  385MOL0     C51866  -1.149   2.033   7.455  0.4649 -0.2440  0.0283
  385MOL0     C51867  -1.212   2.140   7.389 -0.0844 -1.3210 -0.1837
  385MOL0     C51868  -1.144   2.232   7.313 -0.4946 -0.1228  0.1557
  385MOL0     C51869  -1.215   2.351   7.260 -0.6085  1.1219  0.6656
  385MOL0     O51870  -1.350   2.366   7.284  0.6230  0.1132  0.1467
  385MOL0     C51871  -1.398   2.487   7.240  0.6810 -0.3935 -0.2227
  385MOL0     C51872  -1.447   2.499   7.113 -0.1657 -0.3137 -0.3273
  385MOL0     C51873  -1.502   2.622   7.063 -0.0280  0.9869 -0.4135
  385MOL0     C51874  -1.481   2.735   7.147  0.7317  0.7326 -0.3797
  385MOL0     O51875  -1.533   2.865   7.111 -0.1907 -0.5230 -0.7124
  385MOL0     C51876  -1.583   2.890   6.980  0.0464 -0.5201 -0.3658
  385MOL0     C51877  -1.576   3.038   6.963  0.8559  0.4942  0.0779
  385MOL0     C51878  -1.678   3.117   7.054 -0.2451  0.0897 -0.4879
  385MOL0     C51879  -1.663   3.266   7.045  0.5606 -1.0680 -0.4735
  385MOL0     C51880  -1.773   3.330   7.152 -0.7514  0.6386  0.0431
  385MOL0     C51881  -1.751   3.473   7.196 -0.2970 -0.2912 -0.4182
  385MOL0     C51882  -1.864   3.545   7.265  0.2596 -0.3108  0.3318
  385MOL0     C51883  -1.814   3.684   7.289 -0.9816 -0.2496  0.0428
  385MOL0    Cl51884  -1.814   3.777   7.144  0.2357  0.0559  0.1298
  385MOL0     C51885  -1.452   2.716   7.282 -0.3323 -0.2814  0.0507
  385MOL0     C51886  -1.404   2.592   7.331 -0.7655  0.1731  0.9428
  385MOL0     O51887  -1.150   2.429   7.192 -0.1486 -0.7112 -0.0639
  385MOL0     C51888  -1.016   2.195   7.266 -0.1497 -0.4763  0.3017
  385MOL0     C51889  -0.959   2.072   7.315 -0.9127 -0.0961 -0.0521
  385MOL0     N51890  -0.761   1.421   7.796 -0.3030  0.8852  0.1178
  385MOL0     N51891  -0.719   1.397   7.908  0.3934  0.3573 -0.1619
  385MOL0     C51892   0.336   1.256   8.582 -0.4469 -0.5256 -0.0387
  385MOL0     C51893   0.430   1.265   8.691 -0.8865 -0.5378  0.3501
  385MOL0     C51894   0.659   1.444   9.029 -0.7630  0.5137 -0.2499
  385MOL0     C51895   0.746   1.333   9.058  0.5109  0.2887 -0.1134
  385MOL0     C51896   0.862   1.342   9.138 -0.5797  0.2907 -0.5619
  385MOL0     C51897   0.898   1.458   9.204  0.9908  1.0534  0.1309
  385MOL0     O51898   1.017   1.458   9.266 -0.1298  0.1141 -0.1631
  385MOL0     C51899   1.065   1.573   9.340 -0.2561 -0.4605 -0.6254
  385MOL0     C51900   1.190   1.527   9.409 -0.9665  0.3691  0.7641
  385MOL0     C51901   1.266   1.618   9.494 -0.4572 -0.4443 -0.7876
  385MOL0     C51902   1.332   1.737   9.417 -0.1166 -0.3124  0.1262
  385MOL0     C51903   1.242   1.848   9.370 -0.3606  0.7640 -0.7288
  385MOL0     C51904   1.184   1.945   9.334  0.6445  0.7887 -1.1896
  385MOL0     C51905   0.800   1.561   9.194  0.1219 -0.8862  0.1943
  385MOL0     C51906   0.683   1.554   9.110 -0.6957 -0.2984 -0.6281
  385MOL0     C51907   0.588   1.668   9.118 -0.2631  0.2255 -0.0164
  385MOL0     H51908   0.238   1.277   8.960 -3.2027  1.3313 -0.5324
  385MOL0     H51909   0.056   1.285   8.784 -0.7337  2.1679 -2.2596
  385MOL0     H51910   0.160   1.332   8.363 -2.4117  1.7526  1.3977
  385MOL0     H51911   0.167   1.160   8.364 -1.2811  1.0978 -1.7582
  385MOL0     H51912  -0.105   1.178   8.379  1.6513 -1.8798 -0.9349
  385MOL0     H51913  -0.030   1.232   8.230  0.6610 -1.4727  0.6153
  385MOL0     H51914  -0.037   1.455   8.308  1.5858 -1.1979 -0.3700
  385MOL0     H51915  -0.099   1.411   8.471  1.6845 -1.3130  0.2902
  385MOL0     H51916  -0.255   1.365   8.210  2.0301  0.2672  0.3316
  385MOL0     H51917  -0.322   1.340   8.384 -1.2159 -2.1377 -3.0991
  385MOL0     H51918  -0.272   1.586   8.402  0.4227  2.5528 -0.2602
  385MOL0     H51919  -0.249   1.583   8.224  2.9895 -0.9277  2.4531
  385MOL0     H51920  -0.510   1.490   8.359 -1.7011  2.0139  0.0173
  385MOL0     H51921  -0.483   1.645   8.292  0.2283 -0.6484  2.5713
  385MOL0     H51922  -0.472   1.388   8.116 -1.1727 -0.7637  1.5681
  385MOL0     H51923  -0.438   1.551   8.066 -1.3057  0.1457 -1.1243
  385MOL0     H51924  -0.706   1.458   8.159  0.7103 -1.0052  0.1414
  385MOL0     H51925  -0.654   1.628   8.120 -0.3917  0.2380 -1.1213
  385MOL0     H51926  -0.605   1.697   7.849  0.7525 -0.7541  0.1033
  385MOL0     H51927  -0.752   1.735   7.648  0.7669 -1.5052  1.4913
  385MOL0     H51928  -0.653   1.614   7.559  0.0634 -0.4827 -0.7494
  385MOL0     H51929  -0.889   1.486   7.529  1.0358 -0.2328 -3.5540
  385MOL0     H51930  -0.966   1.630   7.607  2.0056  2.2163  0.9187
  385MOL0     H51931  -0.905   1.583   7.333  1.1899 -0.5077  0.7111
  385MOL0     H51932  -0.789   1.697   7.390 -0.6757  1.3423 -2.1583
  385MOL0     H51933  -1.089   1.735   7.448  0.4640 -1.6759 -1.6615
  385MOL0     H51934  -1.008   1.797   7.298  0.7483  1.3060 -0.7547
  385MOL0     H51935  -1.206   1.971   7.524  0.8870 -0.5447  0.1109
  385MOL0     H51936  -1.307   2.170   7.433  1.4489  2.6096  0.9295
  385MOL0     H51937  -1.451   2.415   7.045  1.7098  2.3147 -4.0017
  385MOL0     H51938  -1.537   2.627   6.961 -1.8899  3.8052  0.2386
  385MOL0     H51939  -1.513   2.853   6.904  1.2777 -1.9839  1.3728
  385MOL0     H51940  -1.682   2.845   6.966  0.4717 -0.8931 -2.4213
  385MOL0     H51941  -1.480   3.081   6.996 -0.2643  3.3790 -0.1412
  385MOL0     H51942  -1.597   3.056   6.857 -2.9107 -2.8186  0.0614
  385MOL0     H51943  -1.781   3.093   7.026 -0.8414  0.4791  1.2694
  385MOL0     H51944  -1.669   3.086   7.158 -1.4447  2.5317  0.4367
  385MOL0     H51945  -1.668   3.309   6.945 -2.1271 -0.6341 -0.2479
  385MOL0     H51946  -1.570   3.308   7.084  2.0376 -1.6695 -3.1630
  385MOL0     H51947  -1.758   3.274   7.245  2.5440 -0.0947 -0.8187
  385MOL0     H51948  -1.874   3.323   7.112 -0.7033 -2.2905  0.2254
  385MOL0     H51949  -1.670   3.471   7.270 -1.8071  0.0022  1.3195
  385MOL0     H51950  -1.707   3.533   7.115 -0.7789  1.4755  0.5683
  385MOL0     H51951  -1.901   3.501   7.358 -1.7184  2.6831  1.0981
  385MOL0     H51952  -1.950   3.549   7.196  1.0109  0.9100 -0.5727
  385MOL0     H51953  -1.882   3.720   7.366  1.2038  0.7137  1.6444
  385MOL0     H51954  -1.713   3.689   7.332 -1.1427  0.7219  0.3313
  385MOL0     H51955  -1.466   2.804   7.345  1.6580  2.1493 -2.6349
  385MOL0     H51956  -1.365   2.582   7.432 -1.8442 -2.1702  1.1933
  385MOL0     H51957  -0.967   2.246   7.184 -1.3157 -1.4183 -1.0149
  385MOL0     H51958  -0.859   2.045   7.283 -1.9273 -1.2631 -2.4727
  385MOL0     H51959   0.364   1.237   8.479 -1.2338 -2.0219 -0.0109
  385MOL0     H51960   0.532   1.261   8.654 -1.1398 -4.7462 -0.3826
  385MOL0     H51961   0.728   1.238   9.009 -0.6728  1.3021 -1.7598
  385MOL0     H51962   0.944   1.273   9.155 -0.3171  0.6209 -0.4743
  385MOL0     H51963   0.986   1.593   9.412 -1.8078 -3.2754 -1.3971
  385MOL0     H51964   1.082   1.655   9.270  1.8406  0.9817  1.4198
  385MOL0     H51965   1.265   1.488   9.340 -0.3352 -0.3778  1.8425
  385MOL0     H51966   1.147   1.446   9.469 -1.2807 -0.1097 -0.0883
  385MOL0     H51967   1.346   1.566   9.547 -0.6386 -0.4737 -0.5403
  385MOL0     H51968   1.208   1.660   9.576  1.5220  0.0257  0.4461
  385MOL0     H51969   1.399   1.783   9.490  0.3070 -0.3636 -0.2272
  385MOL0     H51970   1.393   1.697   9.336 -1.7727 -0.3942 -1.1197
  385MOL0     H51971   1.139   2.028   9.282  0.6618  0.1050 -2.3425
  385MOL0     H51972   0.829   1.644   9.258  0.5472 -1.5114  0.8380
  385MOL0     H51973   0.489   1.623   9.131  0.0075  0.3485  3.5261
  385MOL0     H51974   0.606   1.741   9.197  0.2387  1.2385 -1.0335
  385MOL0     H51975   0.589   1.721   9.022  3.2090 -0.6951 -0.6352
  386MOL0     O51976   5.103   1.021   7.321 -0.3290 -0.2514 -0.1831
  386MOL0     C51977   5.094   0.920   7.244 -0.1145 -1.3894  0.4260
  386MOL0     O51978   5.186   0.829   7.228 -0.1335  0.4121 -1.2021
  386MOL0     C51979   5.307   0.831   7.302  0.9582  1.2167  1.2359
  386MOL0     C51980   5.312   0.825   7.437 -0.7916  0.9528 -0.5372
  386MOL0     C51981   5.430   0.802   7.509 -0.6900 -1.0261  0.3649
  386MOL0     C51982   5.549   0.824   7.445 -0.4056 -0.0339  0.3175
  386MOL0     O51983   5.656   0.809   7.521  0.1516  0.0374  0.6046
  386MOL0     C51984   5.760   0.911   7.513 -0.0745  0.7214 -0.2323
  386MOL0     C51985   5.853   0.869   7.630 -0.2388 -1.0437  0.2158
  386MOL0     C51986   5.944   0.746   7.600  0.5745 -0.4966  0.3592
  386MOL0     C51987   5.890   0.604   7.601 -0.0803  0.3114  0.0218
  386MOL0     C51988   5.977   0.514   7.521 -1.4086 -0.3470 -0.4615
  386MOL0     C51989   6.130   0.493   7.577  0.4770  0.9754 -0.4664
  386MOL0     C51990   6.143   0.460   7.725  0.0627 -0.2597  0.4362
  386MOL0     C51991   6.285   0.441   7.760 -0.2019  0.2892 -0.0786
  386MOL0     N51992   6.314   0.387   7.895 -0.7358 -0.0991 -1.1405
  386MOL0     C51993   6.400   0.282   7.919 -0.3227 -0.2922  0.5359
  386MOL0     C51994   6.388   0.249   8.048  0.2068 -0.5197 -0.2890
  386MOL0     C51995   6.459   0.144   8.119  0.0556 -1.0987 -0.5506
  386MOL0     C51996   6.590   0.199   8.175  0.7748 -0.3622 -0.1251
  386MOL0     C51997   6.708   0.176   8.079 -1.2631 -0.7729 -0.6075
  386MOL0     C51998   6.832   0.167   8.168  1.0184  0.0343 -0.0563
  386MOL0     O51999   6.958   0.166   8.096  0.0814 -0.4031  0.6859
  386MOL0     C52000   7.072   0.147   8.165 -0.3003 -0.0325 -0.6865
  386MOL0     C52001   7.190   0.117   8.096  0.5285 -0.1622 -0.6974
  386MOL0     C52002   7.314   0.097   8.160 -0.0709 -0.1541 -0.0434
  386MOL0     C52003   7.326   0.105   8.305  0.6396  0.3355  0.1836
  386MOL0     C52004   7.449   0.092   8.381 -0.1180  0.4871  1.5149
  386MOL0     O52005   7.565   0.104   8.310 -0.1191 -0.2487  1.0680
  386MOL0     C52006   7.674   0.038   8.372 -0.0677 -0.4015 -0.1456
  386MOL0     C52007   7.776   0.115   8.439  0.2996  0.3400  0.0155
  386MOL0     C52008   7.887   0.051   8.508  0.7778 -0.3458 -1.0698
  386MOL0     C52009   7.898  -0.093   8.501  0.5600 -0.3325  0.5997
  386MOL0     O52010   7.999  -0.164   8.571  0.0461  0.0117  0.6576
  386MOL0     C52011   8.125  -0.094   8.592 -0.3766  1.0917  0.2309
  386MOL0     C52012   8.223  -0.195   8.658  0.2106  0.0039 -0.5939
  386MOL0     C52013   8.348  -0.123   8.713  0.1538 -0.6066  0.0450
  386MOL0     C52014   8.464  -0.217   8.747  0.2475  0.6194  0.5839
  386MOL0     C52015   8.588  -0.151   8.809  0.8511  0.2988  0.2929
  386MOL0     C52016   8.690  -0.258   8.855  0.1308  0.3266  0.1279
  386MOL0     C52017   8.813  -0.201   8.923 -0.6688  0.7045 -1.1333
  386MOL0     C52018   8.915  -0.314   8.959 -0.6598 -0.1644  1.0990
  386MOL0    Cl52019   9.010  -0.339   8.807  0.5592 -0.4799  0.0857
  386MOL0     C52020   7.797  -0.165   8.429  0.1609  0.1983 -0.1909
  386MOL0     C52021   7.687  -0.103   8.368  0.5143 -1.0200 -0.5010
  386MOL0     O52022   7.442   0.069   8.498 -0.0202  0.4083 -0.1263
  386MOL0     C52023   7.203   0.133   8.378 -0.2277  0.1590  0.4657
  386MOL0     C52024   7.079   0.140   8.310  0.8127  0.5773 -0.6130
  386MOL0     N52025   6.305   0.344   8.102  0.8434  0.4399 -0.6978
  386MOL0     N52026   6.264   0.425   8.014  0.2826  0.0721  0.8454
  386MOL0     C52027   5.551   0.829   7.308 -0.1387 -0.4566  0.4525
  386MOL0     C52028   5.427   0.829   7.237  0.2294  0.3536 -0.6074
  386MOL0     C52029   4.995   0.931   7.137 -0.3764 -0.3454  0.3016
  386MOL0     C52030   4.867   0.941   7.185 -0.1044  0.7447 -0.6300
  386MOL0     C52031   4.763   0.964   7.094  0.1505  0.2037 -0.0434
  386MOL0     C52032   4.793   0.983   6.956  0.0109  0.1090 -0.6637
  386MOL0     O52033   4.696   1.002   6.863  0.3280  0.1498 -0.7488
  386MOL0     C52034   4.569   0.940   6.881  0.3910  0.2306  0.2246
  386MOL0     C52035   4.464   1.044   6.881 -0.1885 -0.2256  0.2233
  386MOL0     C52036   4.321   0.999   6.890  0.0735 -0.1874 -0.7389
  386MOL0     C52037   4.214   1.108   6.900  0.0585  0.0573 -0.1221
  386MOL0     C52038   4.219   1.184   7.025  0.3326  0.4002  0.3977
  386MOL0     C52039   4.211   1.253   7.124  0.5139  0.5995 -0.5305
  386MOL0     C52040   4.921   0.975   6.906 -0.2837  0.1315 -0.6581
  386MOL0     C52041   5.025   0.948   6.997 -1.2686 -0.2753  0.8658
  386MOL0     C52042   5.165   0.939   6.940  1.1960  0.4195 -0.7678
  386MOL0     H52043   5.222   0.851   7.492 -0.7900 -0.0129 -0.0582
  386MOL0     H52044   5.439   0.813   7.616 -0.6816 -1.6327  0.4275
  386MOL0     H52045   5.814   0.910   7.418 -2.9372  1.5499 -1.9672
  386MOL0     H52046   5.722   1.013   7.521  0.5837  0.8768  1.2271
  386MOL0     H52047   5.801   0.867   7.727 -2.5803 -1.9804 -0.9842
  386MOL0     H52048   5.920   0.954   7.641  0.4213 -1.5949  0.5158
  386MOL0     H52049   6.011   0.747   7.686  0.0956  2.2636  0.7898
  386MOL0     H52050   5.995   0.769   7.506 -0.1280  0.3519  0.1754
  386MOL0     H52051   5.875   0.561   7.700 -0.5637 -2.0110 -0.9993
  386MOL0     H52052   5.791   0.591   7.558  0.7262  0.4379 -1.9827
  386MOL0     H52053   5.932   0.415   7.506 -0.4385 -0.5020 -2.9421
  386MOL0     H52054   5.983   0.560   7.422 -2.1033  1.6715  0.3889
  386MOL0     H52055   6.168   0.404   7.525  0.7908  1.2452 -0.6994
  386MOL0     H52056   6.190   0.579   7.547 -3.7219  3.1702 -3.6350
  386MOL0     H52057   6.085   0.376   7.766  0.4486 -0.6583  0.1786
  386MOL0     H52058   6.112   0.547   7.784 -0.7460  1.7238 -2.7069
  386MOL0     H52059   6.317   0.370   7.684  1.8469  3.1114 -2.0745
  386MOL0     H52060   6.356   0.522   7.742  1.3815 -1.0765 -0.1791
  386MOL0     H52061   6.460   0.222   7.851  0.1746 -0.5956  1.2244
  386MOL0     H52062   6.398   0.118   8.206  0.4422  0.4677  0.2272
  386MOL0     H52063   6.489   0.056   8.062  0.4606 -0.9081 -0.6337
  386MOL0     H52064   6.576   0.306   8.193  0.9129 -0.0054 -1.9065
  386MOL0     H52065   6.602   0.140   8.266  2.5141 -0.3304 -0.3103
  386MOL0     H52066   6.715   0.249   7.998  1.2130 -1.3066 -0.9533
  386MOL0     H52067   6.707   0.073   8.040 -1.7123 -1.2581  0.6535
  386MOL0     H52068   6.827   0.071   8.221 -1.3913 -1.4475 -2.6924
  386MOL0     H52069   6.826   0.246   8.243 -0.0712  0.8698 -1.0032
  386MOL0     H52070   7.185   0.110   7.987  2.7144 -4.6008 -0.7072
  386MOL0     H52071   7.412   0.068   8.123  0.1492 -2.0597  1.8012
  386MOL0     H52072   7.790   0.222   8.453 -3.5574  0.9665  0.0964
  386MOL0     H52073   7.947   0.118   8.569 -0.5466  0.2686 -0.4233
  386MOL0     H52074   8.161  -0.078   8.490  0.4197 -0.7223  0.1983
  386MOL0     H52075   8.115  -0.004   8.654  2.6693 -0.1511  2.7449
  386MOL0     H52076   8.172  -0.229   8.749  0.0157  0.1641 -0.6402
  386MOL0     H52077   8.250  -0.284   8.601  1.8253 -0.2155  0.4468
  386MOL0     H52078   8.391  -0.050   8.644 -0.9161  0.4190  0.4197
  386MOL0     H52079   8.322  -0.059   8.798  1.0680  1.8783 -1.4228
  386MOL0     H52080   8.489  -0.269   8.654 -3.4699 -1.8926  0.7606
  386MOL0     H52081   8.427  -0.298   8.810  1.3386 -1.4679 -1.3176
  386MOL0     H52082   8.565  -0.080   8.889  0.0896 -1.9834  2.2300
  386MOL0     H52083   8.640  -0.097   8.730  0.1598 -1.5172 -1.4894
  386MOL0     H52084   8.646  -0.342   8.910  2.3120 -0.8176  0.2510
  386MOL0     H52085   8.730  -0.308   8.766  2.4362 -0.5257  1.5432
  386MOL0     H52086   8.782  -0.141   9.009 -1.0718  1.2040 -1.6198
  386MOL0     H52087   8.863  -0.130   8.857  0.8475  0.2289 -0.5275
  386MOL0     H52088   8.968  -0.290   9.051  0.8341 -2.6487  0.9601
  386MOL0     H52089   8.850  -0.397   8.987 -1.2720 -0.5521 -1.2483
  386MOL0     H52090   7.814  -0.272   8.421  4.6553  0.6139  1.2783
  386MOL0     H52091   7.607  -0.161   8.322 -1.2696  0.8585  0.0321
  386MOL0     H52092   7.203   0.145   8.486 -1.0392 -2.5631  0.8415
  386MOL0     H52093   6.998   0.161   8.379  1.6762  0.8747  0.3390
  386MOL0     H52094   5.648   0.842   7.261 -0.4301 -1.7230 -0.5524
  386MOL0     H52095   5.426   0.848   7.131  1.2555 -1.4188 -0.9757
  386MOL0     H52096   4.842   0.925   7.289  0.3911 -3.2840 -0.9773
  386MOL0     H52097   4.660   0.959   7.126 -0.6327 -0.1113 -2.4249
  386MOL0     H52098   4.562   0.882   6.974 -0.0122 -0.1252 -0.0232
  386MOL0     H52099   4.547   0.866   6.803  0.1491 -0.0453  0.5493
  386MOL0     H52100   4.485   1.113   6.799  0.1406 -0.9449 -0.3103
  386MOL0     H52101   4.482   1.103   6.971 -0.3255 -0.3937  0.3602
  386MOL0     H52102   4.313   0.923   6.968  2.0007 -0.6521 -0.9409
  386MOL0     H52103   4.292   0.956   6.794  0.1967 -0.3297 -0.7127
  386MOL0     H52104   4.223   1.178   6.817 -0.4686 -0.4053 -0.5745
  386MOL0     H52105   4.115   1.062   6.887  0.2318  0.0933 -1.7015
  386MOL0     H52106   4.209   1.323   7.204  1.8606 -0.1672  0.2135
  386MOL0     H52107   4.944   0.984   6.801  0.0392 -1.5989 -0.7637
  386MOL0     H52108   5.145   0.957   6.834  1.0582  0.4451 -0.7383
  386MOL0     H52109   5.239   1.007   6.981  0.6807  0.3405  0.3375
  386MOL0     H52110   5.207   0.839   6.954 -0.7734 -0.4545 -0.6594
  387MOL0     O52111   8.654   1.062   2.211 -0.4618 -0.2094 -0.0300
  387MOL0     C52112   8.601   0.950   2.244  0.7176 -0.6640 -0.4617
  387MOL0     O52113   8.646   0.862   2.341 -0.6168 -0.8283 -0.4618
  387MOL0     C52114   8.776   0.895   2.392  0.3668 -0.4752 -0.9707
  387MOL0     C52115   8.800   0.984   2.492  0.1186  0.0531  0.9960
  387MOL0     C52116   8.928   1.009   2.554  0.4098 -0.5720  0.2643
  387MOL0     C52117   9.037   0.945   2.498 -0.3344 -0.8293 -0.3329
  387MOL0     O52118   9.153   0.960   2.562 -0.0695  0.3233  0.0141
  387MOL0     C52119   9.227   0.847   2.596  0.6914  0.3316 -0.4234
  387MOL0     C52120   9.370   0.868   2.564 -0.2963  0.1959 -0.0230
  387MOL0     C52121   9.460   0.735   2.571 -0.1145 -0.4242  0.3484
  387MOL0     C52122   9.598   0.769   2.507 -0.0351 -0.6490 -0.5054
  387MOL0     C52123   9.693   0.653   2.493 -0.7068 -0.7308 -0.1480
  387MOL0     C52124   9.723   0.590   2.625  0.0869 -0.1100  0.3145
  387MOL0     C52125   9.820   0.475   2.601  0.5318 -0.1290  0.1211
  387MOL0     C52126   9.854   0.419   2.735  0.2292 -0.9505 -0.4637
  387MOL0     N52127   9.990   0.356   2.726 -0.3017 -0.9012  0.0668
  387MOL0     C52128   9.996   0.228   2.683 -0.2151  0.4907  0.1878
  387MOL0     C52129  10.132   0.216   2.676 -0.4965 -0.3653 -0.2235
  387MOL0     C52130  10.203   0.097   2.643 -0.8053  0.1968  0.1557
  387MOL0     C52131  10.287   0.102   2.524  0.0763 -0.3953 -0.7543
  387MOL0     C52132  10.417   0.194   2.546 -0.1872 -0.1124  1.2366
  387MOL0     C52133  10.493   0.164   2.675  1.4200  0.9013  0.4543
  387MOL0     O52134  10.628   0.214   2.676  0.6193 -0.2911 -0.2777
  387MOL0     C52135  10.740   0.131   2.656  0.6003  0.2772  0.0609
  387MOL0     C52136  10.726  -0.004   2.627  0.6362 -0.3264  0.0327
  387MOL0     C52137  10.835  -0.085   2.617 -1.0301  0.6859  0.0552
  387MOL0     C52138  10.963  -0.042   2.633 -0.3120  1.3930 -0.8789
  387MOL0     C52139  11.081  -0.129   2.625  0.5287  0.6020 -0.0204
  387MOL0     O52140  11.202  -0.081   2.654  0.3578 -0.2065 -0.0612
  387MOL0     C52141  11.311  -0.156   2.623 -0.7069  0.3681 -0.9758
  387MOL0     C52142  11.400  -0.116   2.527 -0.6317 -0.6945  0.2394
  387MOL0     C52143  11.511  -0.190   2.493  0.5242  0.0541  0.4543
  387MOL0     C52144  11.555  -0.307   2.573  0.0777 -0.3917 -0.4859
  387MOL0     O52145  11.670  -0.368   2.548 -0.0832  0.4832  0.7969
  387MOL0     C52146  11.694  -0.500   2.592  0.0035 -0.2774  0.4740
  387MOL0     C52147  11.789  -0.575   2.502 -0.3097 -0.5176  0.0060
  387MOL0     C52148  11.798  -0.722   2.537  0.6498 -0.5428 -0.3155
  387MOL0     C52149  11.891  -0.810   2.467 -0.0657 -0.0289 -0.4661
  387MOL0     C52150  12.035  -0.800   2.531 -0.5795 -0.5915 -0.2356
  387MOL0     C52151  12.131  -0.899   2.468  0.1271 -0.4380 -0.0635
  387MOL0     C52152  12.274  -0.870   2.501  0.0710 -0.0449  0.5561
  387MOL0     C52153  12.316  -0.899   2.641 -0.2372 -0.4442 -0.9771
  387MOL0    Cl52154  12.491  -0.881   2.639 -0.3138  0.1639  0.1366
  387MOL0     C52155  11.468  -0.344   2.677 -0.2471 -0.8802 -0.1250
  387MOL0     C52156  11.351  -0.267   2.702 -0.3099  0.5220 -0.1803
  387MOL0     O52157  11.061  -0.247   2.595 -0.0970 -0.0270 -0.1995
  387MOL0     C52158  10.981   0.086   2.678 -0.0736 -0.1207  0.3427
  387MOL0     C52159  10.869   0.173   2.680 -0.0410  0.0748  0.2634
  387MOL0     N52160  10.195   0.331   2.713 -0.2557 -0.3585 -0.4553
  387MOL0     N52161  10.105   0.423   2.730 -0.9390 -0.0937 -0.5010
  387MOL0     C52162   9.020   0.856   2.397  0.5188  0.4081 -0.3484
  387MOL0     C52163   8.888   0.822   2.350 -0.1862 -0.7977 -0.4161
  387MOL0     C52164   8.473   0.910   2.167 -0.0141 -0.0895 -0.4497
  387MOL0     C52165   8.394   0.800   2.226 -0.1760  0.4516 -0.0737
  387MOL0     C52166   8.279   0.757   2.171  0.8910 -0.1813  0.2591
  387MOL0     C52167   8.222   0.830   2.068 -0.0689  0.3151  0.2849
  387MOL0     O52168   8.092   0.793   2.027  0.0594  0.2873  0.7770
  387MOL0     C52169   8.006   0.878   1.945  0.1531 -0.6621 -0.3187
  387MOL0     C52170   7.963   1.001   2.034  0.2691 -0.2958  0.6220
  387MOL0     C52171   7.817   0.978   2.086  0.2843  0.4045  0.8904
  387MOL0     C52172   7.775   1.094   2.174  0.2184 -0.1245 -0.0615
  387MOL0     C52173   7.705   1.197   2.092 -0.0591 -0.1804 -1.5222
  387MOL0     C52174   7.639   1.286   2.040 -0.5716  0.1905 -0.4285
  387MOL0     C52175   8.284   0.953   2.021  0.5876  0.0087  0.6344
  387MOL0     C52176   8.415   0.987   2.059  0.8190  0.0920 -0.7589
  387MOL0     C52177   8.483   1.106   1.991  0.0278 -0.4988 -1.0626
  387MOL0     H52178   8.720   1.046   2.533  0.9240  0.8034  1.4822
  387MOL0     H52179   8.937   1.074   2.641 -0.8085 -1.6478  1.2338
  387MOL0     H52180   9.212   0.834   2.703  1.0167 -0.5279 -0.4753
  387MOL0     H52181   9.190   0.756   2.549 -0.0365  1.9990 -3.3564
  387MOL0     H52182   9.408   0.941   2.637  2.3980  0.8689 -1.9326
  387MOL0     H52183   9.383   0.909   2.464  2.4339 -1.4576 -0.4554
  387MOL0     H52184   9.415   0.652   2.517  1.0500 -2.4870  2.3794
  387MOL0     H52185   9.459   0.696   2.673  0.6247 -3.9631 -0.8719
  387MOL0     H52186   9.593   0.806   2.405  1.3221  2.6481  0.4972
  387MOL0     H52187   9.636   0.849   2.571  1.0818 -0.8073 -0.9497
  387MOL0     H52188   9.642   0.582   2.427 -1.4373 -0.1549 -0.2272
  387MOL0     H52189   9.784   0.696   2.450  0.8494 -0.6606  3.0115
  387MOL0     H52190   9.763   0.655   2.703 -1.9234 -2.1938  3.3170
  387MOL0     H52191   9.623   0.559   2.660 -0.3503  1.6900  0.7838
  387MOL0     H52192   9.916   0.508   2.561  0.3548  0.1188 -0.1002
  387MOL0     H52193   9.776   0.399   2.536  0.0897  0.8883 -0.7988
  387MOL0     H52194   9.867   0.500   2.807 -0.7027 -0.9270 -0.3146
  387MOL0     H52195   9.776   0.350   2.767  0.1587 -0.5459  0.2518
  387MOL0     H52196   9.926   0.154   2.647  0.5443  0.3210 -0.9982
  387MOL0     H52197  10.257   0.061   2.731  0.9028 -1.5318 -1.4795
  387MOL0     H52198  10.130   0.017   2.627 -0.1093 -0.0087 -2.5366
  387MOL0     H52199  10.319  -0.001   2.502  4.1974  0.1893  1.4141
  387MOL0     H52200  10.222   0.145   2.447 -2.0058  6.0452  3.7367
  387MOL0     H52201  10.394   0.299   2.528 -1.5345 -0.7969 -1.6708
  387MOL0     H52202  10.489   0.178   2.466 -0.7915  0.1991  0.6255
  387MOL0     H52203  10.485   0.057   2.697 -1.1519  0.8842 -0.2943
  387MOL0     H52204  10.430   0.200   2.757 -1.4580  0.2491 -1.3360
  387MOL0     H52205  10.644  -0.062   2.588  0.6312  0.3131 -0.9469
  387MOL0     H52206  10.820  -0.188   2.588 -0.4168  0.5291  0.2828
  387MOL0     H52207  11.369  -0.025   2.476 -0.1820  1.3452  3.3683
  387MOL0     H52208  11.578  -0.160   2.412 -0.9836  1.3728 -0.3399
  387MOL0     H52209  11.729  -0.489   2.695  0.4379  2.6275  0.0908
  387MOL0     H52210  11.594  -0.545   2.596 -0.8102  1.5486  3.9106
  387MOL0     H52211  11.776  -0.563   2.394  1.7260 -1.8687 -0.4522
  387MOL0     H52212  11.889  -0.536   2.523  0.9333 -2.0469 -2.5974
  387MOL0     H52213  11.803  -0.723   2.646  0.9170  2.5946 -0.1969
  387MOL0     H52214  11.704  -0.770   2.510  1.3638 -3.5646  2.1280
  387MOL0     H52215  11.899  -0.791   2.360  1.4803  0.4194 -0.3102
  387MOL0     H52216  11.859  -0.913   2.484  0.6882  0.0447  1.8458
  387MOL0     H52217  12.038  -0.809   2.639 -0.5868 -0.7390 -0.2482
  387MOL0     H52218  12.076  -0.701   2.509  2.0149 -1.1466  1.7787
  387MOL0     H52219  12.108  -0.995   2.515 -1.7402 -0.0918 -0.2128
  387MOL0     H52220  12.125  -0.915   2.360  4.3524  1.5991 -0.8057
  387MOL0     H52221  12.303  -0.769   2.472  1.7139 -0.5304  0.4415
  387MOL0     H52222  12.338  -0.934   2.440  0.8731 -0.8664  2.1864
  387MOL0     H52223  12.276  -0.820   2.706 -0.1666 -0.8622 -0.4224
  387MOL0     H52224  12.285  -0.995   2.683  0.7286  0.3434  1.7729
  387MOL0     H52225  11.511  -0.413   2.750  2.4864  3.5593  2.9929
  387MOL0     H52226  11.293  -0.307   2.784 -2.6473  3.6303 -0.1590
  387MOL0     H52227  11.080   0.124   2.699 -0.0258 -0.9176  1.6707
  387MOL0     H52228  10.882   0.271   2.724 -2.6779 -1.0532  4.0773
  387MOL0     H52229   9.102   0.805   2.347  0.4930  0.8530 -0.8578
  387MOL0     H52230   8.879   0.743   2.275  0.4480  1.1782 -2.6910
  387MOL0     H52231   8.445   0.740   2.301  1.5065 -1.3620 -2.4693
  387MOL0     H52232   8.223   0.673   2.212 -0.0680  0.0077 -0.6219
  387MOL0     H52233   7.921   0.823   1.904  1.3672 -1.6968 -1.5441
  387MOL0     H52234   8.058   0.912   1.855 -0.0191 -1.5868 -0.7792
  387MOL0     H52235   7.958   1.096   1.981  0.5544 -0.8045 -0.3243
  387MOL0     H52236   8.032   0.997   2.119 -0.9026 -1.8368  1.5611
  387MOL0     H52237   7.805   0.876   2.124  1.3451 -0.0757 -0.0075
  387MOL0     H52238   7.750   0.971   2.000  0.3043  0.1069  0.8987
  387MOL0     H52239   7.712   1.052   2.252  0.0716 -0.0109 -0.1195
  387MOL0     H52240   7.869   1.130   2.218  2.3274 -3.4413 -1.4168
  387MOL0     H52241   7.578   1.367   2.008 -2.9733 -1.0955  0.6818
  387MOL0     H52242   8.233   1.024   1.957 -2.6087 -1.1788  1.6583
  387MOL0     H52243   8.511   1.188   2.058  0.9966 -1.3793 -0.3282
  387MOL0     H52244   8.579   1.064   1.959  0.2246  0.7419 -2.1513
  387MOL0     H52245   8.427   1.132   1.901 -0.9081  0.8119 -0.1306
  388MOL0     O52246  10.713   3.004   0.383  0.2855  0.0912 -0.0583
  388MOL0     C52247  10.707   2.915   0.302 -0.0918 -0.1047  0.3797
  388MOL0     O52248  10.814   2.854   0.240 -0.3289 -0.5372  0.3979
  388MOL0     C52249  10.935   2.904   0.251 -1.0796 -0.4082  1.0487
  388MOL0     C52250  11.029   2.865   0.343  0.2836 -0.2809 -0.0009
  388MOL0     C52251  11.157   2.908   0.346  0.1850  0.4879 -0.2644
  388MOL0     C52252  11.199   2.996   0.250 -0.6354 -0.1477  0.3044
  388MOL0     O52253  11.326   3.046   0.234  0.4970 -0.4704  0.6796
  388MOL0     C52254  11.435   2.977   0.311  0.7873 -0.1619  0.1001
  388MOL0     C52255  11.568   3.028   0.239  0.4172 -0.6738 -0.0569
  388MOL0     C52256  11.683   2.997   0.326 -0.1329 -0.7154 -0.9239
  388MOL0     C52257  11.818   3.038   0.257  0.2408  1.2069  0.0210
  388MOL0     C52258  11.922   3.040   0.362 -0.1955 -1.3763  0.4150
  388MOL0     C52259  12.049   3.077   0.291 -0.1330 -0.3533  0.1514
  388MOL0     C52260  12.164   3.116   0.379 -0.8475 -0.1724 -0.3689
  388MOL0     C52261  12.303   3.100   0.305  0.6583 -0.0398 -0.1700
  388MOL0     N52262  12.423   3.148   0.379  0.2132  0.0874 -0.4469
  388MOL0     C52263  12.441   3.266   0.450  0.0854  0.4859  0.7459
  388MOL0     C52264  12.553   3.244   0.527 -0.6940 -0.5673  0.6114
  388MOL0     C52265  12.623   3.341   0.626  0.5201 -0.5853  0.2159
  388MOL0     C52266  12.747   3.289   0.689 -0.1161 -0.0070  0.8967
  388MOL0     C52267  12.828   3.394   0.759  1.1329 -0.1110  0.4612
  388MOL0     C52268  12.944   3.333   0.828 -0.1001 -0.2603 -0.5426
  388MOL0     O52269  13.040   3.280   0.726 -0.2006  0.6334 -0.0874
  388MOL0     C52270  13.170   3.252   0.767  0.5476 -0.4630  0.4684
  388MOL0     C52271  13.268   3.252   0.666 -0.0046 -0.5771 -0.0539
  388MOL0     C52272  13.406   3.250   0.679 -0.2531  0.4611  0.3376
  388MOL0     C52273  13.453   3.262   0.809 -0.6232 -0.3447  0.1431
  388MOL0     C52274  13.604   3.272   0.836  0.4520 -0.0361 -0.6000
  388MOL0     O52275  13.685   3.275   0.724  0.9055 -0.7844  0.0804
  388MOL0     C52276  13.818   3.290   0.740 -0.1175  0.0992 -0.4455
  388MOL0     C52277  13.884   3.363   0.839 -0.7295 -0.8166  0.1954
  388MOL0     C52278  14.027   3.367   0.844 -0.7536 -0.2151  0.0620
  388MOL0     C52279  14.106   3.302   0.750 -0.4292  0.3215 -0.1659
  388MOL0     O52280  14.245   3.319   0.751  0.0674  0.6736  0.1813
  388MOL0     C52281  14.329   3.198   0.737 -0.3460 -0.7707  0.3710
  388MOL0     C52282  14.472   3.233   0.780 -0.0085  0.0692  1.1114
  388MOL0     C52283  14.496   3.221   0.934  0.1207 -0.7301 -0.2105
  388MOL0     C52284  14.641   3.251   0.976 -0.0724 -0.1374  0.4028
  388MOL0     C52285  14.652   3.292   1.120 -0.1796 -0.2402  0.0156
  388MOL0     C52286  14.616   3.445   1.139 -0.6426  0.6246  0.7402
  388MOL0     C52287  14.658   3.500   1.277  0.2498  1.4036 -0.4162
  388MOL0     C52288  14.589   3.413   1.383 -0.3139  0.7133  0.0646
  388MOL0    Cl52289  14.587   3.523   1.524 -0.3067 -0.4152 -0.0743
  388MOL0     C52290  14.035   3.216   0.661  0.2796  0.6925  0.6668
  388MOL0     C52291  13.894   3.211   0.656  0.3819  0.7028 -0.4399
  388MOL0     O52292  13.644   3.280   0.957  0.2509 -0.0874 -0.0550
  388MOL0     C52293  13.360   3.257   0.910 -0.3272 -0.0913  0.1223
  388MOL0     C52294  13.221   3.262   0.893  0.3684  0.4121  0.5782
  388MOL0     N52295  12.594   3.116   0.503  0.0186 -0.0686 -0.1624
  388MOL0     N52296  12.520   3.068   0.415  0.0614  0.6722 -0.1342
  388MOL0     C52297  11.113   3.025   0.139 -0.0662  1.1762  0.0307
  388MOL0     C52298  10.973   2.989   0.145 -0.0417  0.2750  0.0531
  388MOL0     C52299  10.572   2.865   0.266  0.2718 -0.4946  0.2697
  388MOL0     C52300  10.484   2.864   0.376  0.7418 -0.7166 -0.0467
  388MOL0     C52301  10.364   2.801   0.361  0.8514 -0.4258  0.1928
  388MOL0     C52302  10.323   2.748   0.243  1.0073  0.1493  0.0801
  388MOL0     O52303  10.199   2.693   0.236  0.2349 -0.2321  0.4691
  388MOL0     C52304  10.166   2.595   0.332 -0.2807  1.1274 -0.9050
  388MOL0     C52305  10.260   2.475   0.340 -0.0233 -0.2124  0.1306
  388MOL0     C52306  10.290   2.419   0.207  0.0774 -0.3866  0.0023
  388MOL0     C52307  10.167   2.380   0.133 -0.0956 -0.0073 -1.3253
  388MOL0     C52308  10.181   2.351  -0.013  1.3959 -0.0535 -0.4156
  388MOL0     C52309  10.188   2.323  -0.132  0.1095 -0.2092 -0.0208
  388MOL0     C52310  10.401   2.769   0.129 -0.4174  0.8764  0.1551
  388MOL0     C52311  10.529   2.809   0.142  0.5797 -0.8794  0.5812
  388MOL0     C52312  10.608   2.821   0.014 -0.5738  0.1254 -0.5524
  388MOL0     H52313  10.998   2.794   0.419 -0.5731  0.2607  0.1767
  388MOL0     H52314  11.216   2.863   0.426  0.7136 -2.0339 -1.9447
  388MOL0     H52315  11.425   3.022   0.410 -1.8885  2.1210 -1.0606
  388MOL0     H52316  11.425   2.868   0.307 -2.9226 -0.0232  1.2955
  388MOL0     H52317  11.562   3.133   0.208 -2.2770 -0.2020  1.7580
  388MOL0     H52318  11.577   2.972   0.145  1.8322  0.7738 -0.8338
  388MOL0     H52319  11.666   2.892   0.354 -2.1704 -0.1948 -0.0390
  388MOL0     H52320  11.676   3.049   0.422  1.0382  0.7174 -1.5744
  388MOL0     H52321  11.838   2.968   0.175  0.1587 -0.3185  1.2538
  388MOL0     H52322  11.814   3.136   0.209  1.7851  0.3720 -1.9746
  388MOL0     H52323  11.914   3.116   0.440  3.0050  0.1818 -0.5859
  388MOL0     H52324  11.940   2.945   0.413  3.9811 -0.3710  1.1741
  388MOL0     H52325  12.065   2.988   0.229  2.2542  0.3824 -0.3891
  388MOL0     H52326  12.030   3.157   0.219  0.0411  1.3847  1.9594
  388MOL0     H52327  12.170   3.055   0.469 -0.7125  1.1422  0.5382
  388MOL0     H52328  12.150   3.219   0.414  0.0198  0.0854 -0.7533
  388MOL0     H52329  12.313   2.994   0.280  3.4794  0.4056 -1.2963
  388MOL0     H52330  12.302   3.149   0.207 -3.5361 -1.2466 -0.9199
  388MOL0     H52331  12.370   3.348   0.451 -0.0805  0.3629 -0.0983
  388MOL0     H52332  12.643   3.440   0.586  2.7073  0.0923  2.7566
  388MOL0     H52333  12.545   3.353   0.702  1.5798 -2.8251  1.7830
  388MOL0     H52334  12.721   3.208   0.758 -4.6557 -0.3051 -0.7806
  388MOL0     H52335  12.810   3.235   0.617 -0.5140 -2.1871  2.1034
  388MOL0     H52336  12.769   3.458   0.826 -1.8016 -0.1237 -1.8934
  388MOL0     H52337  12.863   3.461   0.679 -1.5272  0.9288  0.0536
  388MOL0     H52338  12.902   3.245   0.876  0.7058 -0.3742 -0.0255
  388MOL0     H52339  12.988   3.403   0.899 -2.7202  0.0449  0.8650
  388MOL0     H52340  13.223   3.243   0.568 -1.0613 -0.1924  0.3819
  388MOL0     H52341  13.475   3.232   0.596  0.5691 -0.4426  1.1926
  388MOL0     H52342  13.829   3.429   0.905  0.2242  0.2857 -0.0680
  388MOL0     H52343  14.075   3.443   0.905  0.8596 -1.7240  0.7347
  388MOL0     H52344  14.288   3.109   0.785 -2.2043 -0.7696 -1.0876
  388MOL0     H52345  14.335   3.161   0.634 -2.1221 -0.6821  0.2020
  388MOL0     H52346  14.537   3.157   0.735 -1.4585 -1.2605  1.1934
  388MOL0     H52347  14.508   3.326   0.735 -1.3222 -0.1969 -0.5907
  388MOL0     H52348  14.437   3.304   0.973  0.6405  0.7467 -2.3758
  388MOL0     H52349  14.448   3.128   0.965 -1.4451  0.0075 -0.3124
  388MOL0     H52350  14.697   3.318   0.910 -0.9302 -0.6805 -0.9167
  388MOL0     H52351  14.695   3.157   0.977 -1.9995 -1.3045  1.3287
  388MOL0     H52352  14.750   3.274   1.165 -0.0764 -1.0597 -0.5188
  388MOL0     H52353  14.595   3.228   1.188  0.3509  0.2714  0.9631
  388MOL0     H52354  14.660   3.505   1.059 -0.0360  0.1698  0.7250
  388MOL0     H52355  14.507   3.453   1.131 -1.0400 -3.2993  0.1279
  388MOL0     H52356  14.624   3.602   1.294  0.3601  1.4538 -0.4916
  388MOL0     H52357  14.766   3.505   1.296  0.3372 -0.1685 -0.3575
  388MOL0     H52358  14.496   3.369   1.346  0.1475  0.8110 -1.2869
  388MOL0     H52359  14.655   3.328   1.399  2.0739  2.5206  0.4328
  388MOL0     H52360  14.094   3.164   0.586  0.4200  3.1526 -1.0564
  388MOL0     H52361  13.838   3.148   0.588 -1.5290  0.4378  1.2888
  388MOL0     H52362  13.387   3.241   1.014 -3.5324  2.3911  1.5446
  388MOL0     H52363  13.145   3.276   0.970 -1.7207  3.5379 -1.8135
  388MOL0     H52364  11.160   3.081   0.060 -0.1638  2.9490  1.1742
  388MOL0     H52365  10.904   3.025   0.069 -0.5618  0.8866  0.8102
  388MOL0     H52366  10.499   2.908   0.474  0.4593  1.2214 -0.8260
  388MOL0     H52367  10.303   2.789   0.450  1.9891  1.3401  1.2771
  388MOL0     H52368  10.062   2.569   0.308 -0.0299  1.3601 -2.3675
  388MOL0     H52369  10.164   2.624   0.437  0.3153  1.2043 -0.9129
  388MOL0     H52370  10.207   2.403   0.403  1.6447  0.0239  1.8836
  388MOL0     H52371  10.350   2.515   0.387 -0.6221  1.3991 -0.0232
  388MOL0     H52372  10.352   2.332   0.228 -1.8290 -1.5673  0.9698
  388MOL0     H52373  10.347   2.491   0.148  0.3101 -0.7147 -0.1739
  388MOL0     H52374  10.130   2.299   0.196  1.4552  0.3360  0.0708
  388MOL0     H52375  10.095   2.463   0.129  0.6779  0.7708  0.1207
  388MOL0     H52376  10.198   2.305  -0.237 -0.1713  0.9596 -0.2592
  388MOL0     H52377  10.366   2.744   0.029  0.6570  1.7458 -0.4569
  388MOL0     H52378  10.693   2.887   0.036 -1.5169  1.2142 -0.0710
  388MOL0     H52379  10.652   2.727  -0.019 -2.8284 -0.0317 -3.5276
  388MOL0     H52380  10.561   2.875  -0.069 -0.5335  0.3420 -0.4350
  389MOL0     O52381   9.074   2.378  10.695  0.3182 -0.3603 -0.0790
  389MOL0     C52382   8.990   2.341  10.619  0.5838 -0.4101  0.0941
  389MOL0     O52383   9.017   2.275  10.508 -1.1476 -0.1572 -0.4465
  389MOL0     C52384   9.138   2.209  10.492  0.6768  0.8407  0.3305
  389MOL0     C52385   9.247   2.276  10.431 -0.3018  0.3591 -0.0222
  389MOL0     C52386   9.369   2.209  10.420  0.3328 -0.5265 -0.3951
  389MOL0     C52387   9.382   2.071  10.459 -0.6406  0.4655 -0.7728
  389MOL0     O52388   9.495   1.998  10.434 -1.1342 -0.8823 -0.4608
  389MOL0     C52389   9.558   2.018  10.309  0.3964  0.5099 -0.2722
  389MOL0     C52390   9.691   2.094  10.324  0.4914  1.2980 -0.1541
  389MOL0     C52391   9.818   2.014  10.352  0.5138  0.3973 -0.5030
  389MOL0     C52392   9.935   2.105  10.372  0.1620  0.5997  0.1271
  389MOL0     C52393  10.068   2.027  10.396  0.9501 -0.0505  0.7725
  389MOL0     C52394  10.175   2.121  10.452  0.5047 -1.0919  0.6781
  389MOL0     C52395  10.298   2.043  10.483  0.1439 -0.1547 -0.3865
  389MOL0     C52396  10.404   2.141  10.532  0.3277 -0.0006  0.5538
  389MOL0     N52397  10.539   2.077  10.544  0.2414  0.1472  0.5094
  389MOL0     C52398  10.575   1.957  10.603  0.5182 -0.7070 -0.1263
  389MOL0     C52399  10.710   1.967  10.621  0.4351 -0.7290  0.0811
  389MOL0     C52400  10.802   1.867  10.690 -0.1321  0.5538  0.3830
  389MOL0     C52401  10.943   1.865  10.642  0.2079 -0.1580  0.2143
  389MOL0     C52402  11.028   1.977  10.697  0.0038  0.5181  0.8781
  389MOL0     C52403  11.175   1.957  10.663  0.1315  0.9199 -0.2568
  389MOL0     O52404  11.257   2.063  10.713 -0.2980  0.4668  0.0837
  389MOL0     C52405  11.392   2.056  10.679  0.2747 -1.0099  0.2152
  389MOL0     C52406  11.457   1.962  10.609  0.9223  0.6539  1.4605
  389MOL0     C52407  11.596   1.957  10.586  0.1683 -0.1805  0.1091
  389MOL0     C52408  11.677   2.049  10.656 -0.1348 -1.1620  0.6563
  389MOL0     C52409  11.826   2.052  10.639 -0.1324  0.2816 -0.2886
  389MOL0     O52410  11.886   1.960  10.554  0.0674 -0.2134 -0.2767
  389MOL0     C52411  12.026   1.946  10.574  0.0110 -0.4604 -0.0257
  389MOL0     C52412  12.069   1.853  10.663 -0.6217  1.0438 -0.5154
  389MOL0     C52413  12.204   1.810  10.684 -0.5338 -0.0346 -1.4328
  389MOL0     C52414  12.309   1.883  10.630 -0.6108  0.0037  0.0418
  389MOL0     O52415  12.442   1.858  10.654 -0.0880 -0.2748 -0.1586
  389MOL0     C52416  12.494   1.897  10.783 -0.5511  1.0837 -0.3638
  389MOL0     C52417  12.531   2.043  10.801  0.2770  0.7524 -0.6452
  389MOL0     C52418  12.632   2.077  10.907 -0.3261 -0.1958  0.8290
  389MOL0     C52419  12.563   2.068  11.043  0.5800  0.1416  0.7197
  389MOL0     C52420  12.630   2.124  11.166  0.1408 -0.7338  0.0390
  389MOL0     C52421  12.690   2.272  11.143 -0.5239  0.7196  0.0070
  389MOL0     C52422  12.714   2.340  11.281  0.2481  0.5861  0.1342
  389MOL0     C52423  12.734   2.487  11.281 -0.6323 -0.3415 -0.0561
  389MOL0    Cl52424  12.897   2.505  11.201 -0.0728 -0.1860  0.1296
  389MOL0     C52425  12.271   1.979  10.530 -0.3012 -0.4203 -0.3944
  389MOL0     C52426  12.131   2.014  10.504  0.6491  0.1261  0.5371
  389MOL0     O52427  11.890   2.117  10.725 -0.6193  0.1777  0.7119
  389MOL0     C52428  11.610   2.152  10.732  0.3426 -0.1907  0.1088
  389MOL0     C52429  11.473   2.150  10.743  0.9845  0.2033 -0.6523
  389MOL0     N52430  10.757   2.093  10.585 -0.4645  0.3130  0.1635
  389MOL0     N52431  10.648   2.160  10.548 -0.4395 -0.3170 -0.4031
  389MOL0     C52432   9.269   2.013  10.517 -0.7914  1.0421 -0.4602
  389MOL0     C52433   9.155   2.082  10.535 -0.3469 -0.2010  0.6020
  389MOL0     C52434   8.849   2.361  10.653  0.3695 -0.2354 -0.0014
  389MOL0     C52435   8.811   2.343  10.788 -0.3123 -0.0973 -0.2093
  389MOL0     C52436   8.676   2.347  10.822  0.5717 -0.0126 -0.4073
  389MOL0     C52437   8.577   2.399  10.737 -0.0188 -0.2006  0.1168
  389MOL0     O52438   8.443   2.393  10.769  0.8117 -0.3942 -0.0773
  389MOL0     C52439   8.378   2.508  10.811 -0.4645  0.2196  0.0381
  389MOL0     C52440   8.293   2.554  10.694 -0.1350 -0.2173 -0.1385
  389MOL0     C52441   8.188   2.448  10.668  0.7724  0.0112  0.3148
  389MOL0     C52442   8.077   2.505  10.575 -0.4981  0.1436 -0.5112
  389MOL0     C52443   7.942   2.463  10.612 -0.7699 -0.3920 -0.0514
  389MOL0     C52444   7.837   2.432  10.655 -0.1067 -0.0067 -0.0527
  389MOL0     C52445   8.614   2.424  10.599  0.1217  0.0530 -0.3443
  389MOL0     C52446   8.747   2.401  10.557  0.2704  0.4375 -0.2428
  389MOL0     C52447   8.794   2.430  10.416  0.0190 -0.4571  0.3997
  389MOL0     H52448   9.235   2.379  10.399 -1.2147 -0.0797 -1.1657
  389MOL0     H52449   9.450   2.265  10.375 -0.9655  0.8479 -1.1000
  389MOL0     H52450   9.567   1.919  10.263 -2.1555  1.2270 -2.5973
  389MOL0     H52451   9.495   2.078  10.243  0.7808  1.1073 -0.1060
  389MOL0     H52452   9.678   2.180  10.391 -2.5123  0.3534  0.6444
  389MOL0     H52453   9.699   2.126  10.220  0.8801 -1.5574 -1.0885
  389MOL0     H52454   9.840   1.949  10.267  0.9098 -0.4379  0.2130
  389MOL0     H52455   9.813   1.948  10.439  0.0698 -0.1735 -0.9527
  389MOL0     H52456   9.969   2.170  10.291  3.4830 -2.7123 -1.4857
  389MOL0     H52457   9.914   2.167  10.460  0.5301  2.0592 -0.7771
  389MOL0     H52458  10.046   1.952  10.473  2.5110  1.8208  3.2147
  389MOL0     H52459  10.102   1.980  10.304 -0.1981  0.1232  0.2393
  389MOL0     H52460  10.216   2.187  10.375  0.7775 -0.0790  1.6509
  389MOL0     H52461  10.139   2.192  10.528 -0.4933  0.3207 -1.0408
  389MOL0     H52462  10.335   1.994  10.392 -1.1469 -0.0795 -0.9750
  389MOL0     H52463  10.289   1.965  10.559  2.1629 -4.5532 -4.1683
  389MOL0     H52464  10.413   2.234  10.476 -2.2445 -1.1846 -2.0652
  389MOL0     H52465  10.378   2.175  10.632 -1.8270  1.9458 -0.5914
  389MOL0     H52466  10.512   1.876  10.637  1.1576 -0.4516  1.8213
  389MOL0     H52467  10.792   1.895  10.796  0.2671 -0.5435  0.7240
  389MOL0     H52468  10.758   1.767  10.680 -1.7371  0.7681  3.6289
  389MOL0     H52469  10.998   1.777  10.677  3.1651  2.6462  3.3894
  389MOL0     H52470  10.942   1.876  10.533 -2.0084  2.1324  0.3779
  389MOL0     H52471  11.020   1.982  10.806 -2.5030  0.3480  0.7644
  389MOL0     H52472  11.004   2.077  10.658  3.5354  1.2547  0.2732
  389MOL0     H52473  11.176   1.961  10.553 -0.8110  1.3577 -0.2647
  389MOL0     H52474  11.209   1.861  10.703  0.3478  1.5156  1.0223
  389MOL0     H52475  11.403   1.879  10.565  0.3053  1.7826  0.0080
  389MOL0     H52476  11.633   1.881  10.518 -0.2708  1.0452 -1.5733
  389MOL0     H52477  11.998   1.796  10.722 -1.6541  3.5304  0.8345
  389MOL0     H52478  12.210   1.721  10.746 -3.3232 -3.0541 -4.9685
  389MOL0     H52479  12.420   1.855  10.852 -2.8962  1.1558 -2.7093
  389MOL0     H52480  12.580   1.833  10.804 -0.5386  1.0260 -0.5935
  389MOL0     H52481  12.560   2.101  10.712  2.3135  1.0608  0.1780
  389MOL0     H52482  12.437   2.090  10.833  1.4610  2.0025  1.1839
  389MOL0     H52483  12.716   2.006  10.910 -0.8271 -0.8469  4.5084
  389MOL0     H52484  12.672   2.174  10.877 -0.9312 -0.3991 -0.6901
  389MOL0     H52485  12.534   1.963  11.046 -1.2724  0.5133 -1.4232
  389MOL0     H52486  12.475   2.133  11.043  1.6195  1.6464  2.3783
  389MOL0     H52487  12.710   2.054  11.192  1.4090  0.8933  0.6856
  389MOL0     H52488  12.552   2.120  11.242 -0.1782 -0.9572 -0.2974
  389MOL0     H52489  12.776   2.253  11.078  1.3738 -0.5476  2.7408
  389MOL0     H52490  12.626   2.341  11.087 -0.5865  0.3687 -0.3552
  389MOL0     H52491  12.797   2.291  11.333  0.8544 -1.6424 -2.6801
  389MOL0     H52492  12.619   2.321  11.333 -0.3312  1.0854 -0.7246
  389MOL0     H52493  12.657   2.543  11.226 -0.1055  1.5037  1.0043
  389MOL0     H52494  12.747   2.527  11.382  2.3318 -1.8629  0.2824
  389MOL0     H52495  12.360   2.019  10.481  2.0301 -2.7352  1.6761
  389MOL0     H52496  12.114   2.073  10.415 -1.3438 -1.8379 -0.4864
  389MOL0     H52497  11.644   2.234  10.795  0.0996  0.5357 -0.6900
  389MOL0     H52498  11.420   2.224  10.802 -1.2743 -2.0898  0.4022
  389MOL0     H52499   9.283   1.907  10.536  1.1225  1.2365 -0.5705
  389MOL0     H52500   9.077   2.027  10.585  0.0797 -0.2906  1.1817
  389MOL0     H52501   8.882   2.312  10.865 -1.4935 -1.4987  0.3698
  389MOL0     H52502   8.651   2.310  10.921 -1.3545  1.1745 -0.4070
  389MOL0     H52503   8.444   2.585  10.852 -0.0931 -0.5423  0.9022
  389MOL0     H52504   8.307   2.485  10.891  0.4038  0.2915  0.8405
  389MOL0     H52505   8.360   2.566  10.609 -0.3900  1.1923 -0.1666
  389MOL0     H52506   8.248   2.650  10.722 -1.4317 -0.6039 -0.7967
  389MOL0     H52507   8.135   2.404  10.754 -1.8875 -0.1934 -1.3016
  389MOL0     H52508   8.245   2.368  10.621  0.1041 -1.2128  1.5196
  389MOL0     H52509   8.076   2.613  10.594 -0.8455 -0.1852  1.6108
  389MOL0     H52510   8.107   2.484  10.472 -1.6732 -1.3186 -0.5848
  389MOL0     H52511   7.739   2.416  10.696 -0.0928  0.1778  0.0526
  389MOL0     H52512   8.542   2.466  10.529  0.6795 -0.1911 -1.0825
  389MOL0     H52513   8.802   2.335  10.364 -1.4422 -1.0602  1.2358
  389MOL0     H52514   8.723   2.502  10.374 -0.8497  1.0708  4.0216
  389MOL0     H52515   8.890   2.484  10.417  0.1205 -0.6087  1.8536
  390MOL0     O52516   4.468   3.278   2.768 -0.0787 -0.0654  0.2494
  390MOL0     C52517   4.380   3.246   2.849  0.7598  0.0764 -0.6625
  390MOL0     O52518   4.407   3.239   2.989 -0.3177  0.0134  0.2612
  390MOL0     C52519   4.524   3.289   3.031  0.9060 -0.0904  0.0341
  390MOL0     C52520   4.568   3.420   3.009 -0.2020 -0.7123  0.0244
  390MOL0     C52521   4.694   3.461   3.072 -0.4702 -0.5163  0.5953
  390MOL0     C52522   4.770   3.383   3.149  0.2369  0.8285  0.4116
  390MOL0     O52523   4.890   3.427   3.213 -0.3654  0.2930 -0.2851
  390MOL0     C52524   4.950   3.542   3.153  0.1650 -0.2482  0.2331
  390MOL0     C52525   5.086   3.563   3.214  0.5139 -0.4682 -0.1608
  390MOL0     C52526   5.168   3.676   3.136 -0.8628  0.4956  0.1798
  390MOL0     C52527   5.307   3.694   3.204 -0.1766 -0.6355  0.0731
  390MOL0     C52528   5.393   3.770   3.116  0.1644  0.0366 -0.1854
  390MOL0     C52529   5.539   3.754   3.165 -0.3423 -0.0541  1.1871
  390MOL0     C52530   5.652   3.813   3.077  0.5118 -0.6557 -0.0556
  390MOL0     C52531   5.790   3.775   3.138  0.4545 -0.6441 -0.1969
  390MOL0     N52532   5.805   3.856   3.266 -0.4320  0.3408 -0.4582
  390MOL0     C52533   5.772   3.986   3.277  0.9420 -0.6719 -0.4814
  390MOL0     C52534   5.776   4.009   3.412 -0.6322  0.4948  0.3101
  390MOL0     C52535   5.733   4.136   3.485 -0.4218  0.7590 -0.7642
  390MOL0     C52536   5.843   4.242   3.483  0.8014  0.1229 -0.3756
  390MOL0     C52537   5.941   4.209   3.592  0.0288  0.8923  0.4757
  390MOL0     C52538   6.080   4.284   3.572 -0.0702 -0.0554 -0.6652
  390MOL0     O52539   6.168   4.215   3.656 -0.1359  0.5875  0.0448
  390MOL0     C52540   6.302   4.256   3.657  0.6347  0.6498 -0.4099
  390MOL0     C52541   6.386   4.175   3.727 -0.5212  0.8824  0.1512
  390MOL0     C52542   6.525   4.186   3.737 -0.8033 -0.4348 -0.5840
  390MOL0     C52543   6.596   4.296   3.681 -0.5021 -0.4060  0.7419
  390MOL0     C52544   6.746   4.302   3.673 -0.1244 -0.1690 -0.7835
  390MOL0     O52545   6.804   4.403   3.609  0.0100  0.7040  0.6879
  390MOL0     C52546   6.930   4.432   3.651  0.1881 -0.5157 -0.6572
  390MOL0     C52547   7.049   4.426   3.578  0.5640  0.7168 -0.3857
  390MOL0     C52548   7.172   4.469   3.626 -0.0215 -0.1553  0.2527
  390MOL0     C52549   7.185   4.524   3.752  1.1313  1.5199  0.2949
  390MOL0     O52550   7.308   4.577   3.793 -0.6115 -0.6390 -0.5765
  390MOL0     C52551   7.331   4.580   3.937  0.0874  0.5235 -0.2851
  390MOL0     C52552   7.480   4.607   3.957 -0.6179  0.9676  0.4397
  390MOL0     C52553   7.537   4.738   3.890 -0.3966 -0.9071 -0.9043
  390MOL0     C52554   7.686   4.762   3.924  0.1070 -0.0614  0.1390
  390MOL0     C52555   7.754   4.887   3.875  0.7265 -0.1976 -0.2741
  390MOL0     C52556   7.871   4.933   3.969  0.3217 -0.5511 -0.7351
  390MOL0     C52557   7.825   5.034   4.075  0.1844  0.0755 -0.4878
  390MOL0     C52558   7.867   4.998   4.219  0.5641  0.7708 -0.1907
  390MOL0    Cl52559   8.046   5.013   4.234 -0.1870  0.1792 -0.3018
  390MOL0     C52560   7.068   4.533   3.833  0.3309 -0.2026 -0.0914
  390MOL0     C52561   6.946   4.491   3.787 -0.3842 -0.0361  0.4916
  390MOL0     O52562   6.805   4.216   3.732  0.1274 -0.5183  0.1689
  390MOL0     C52563   6.514   4.382   3.598 -0.2314 -0.4446  0.3711
  390MOL0     C52564   6.371   4.360   3.580  0.3178  0.7739 -0.3900
  390MOL0     N52565   5.810   3.892   3.476  0.6572 -0.5069  0.2553
  390MOL0     N52566   5.833   3.806   3.392  0.1253  0.1032  0.1546
  390MOL0     C52567   4.724   3.253   3.172  0.4116 -0.2541  0.0739
  390MOL0     C52568   4.598   3.212   3.122 -0.6115  0.4613 -0.0336
  390MOL0     C52569   4.248   3.194   2.805 -0.3469  0.0582 -0.0986
  390MOL0     C52570   4.177   3.115   2.893  0.1158 -0.7451 -0.5255
  390MOL0     C52571   4.048   3.075   2.861  0.5402  0.3167  0.3159
  390MOL0     C52572   3.987   3.107   2.741 -0.3364 -0.4634 -0.0494
  390MOL0     O52573   3.858   3.065   2.730 -0.5925 -0.0146  0.1536
  390MOL0     C52574   3.828   3.016   2.593  0.6288 -0.1630 -1.1423
  390MOL0     C52575   3.909   2.881   2.540  0.4120 -0.8695  0.5688
  390MOL0     C52576   3.926   2.777   2.650 -0.3408 -0.5266  0.8153
  390MOL0     C52577   3.997   2.654   2.600 -0.0626 -0.5834  0.2460
  390MOL0     C52578   4.124   2.681   2.533 -0.4202 -0.8666 -1.4202
  390MOL0     C52579   4.223   2.709   2.467 -0.2204  0.4115  0.2407
  390MOL0     C52580   4.059   3.190   2.650  0.1171 -0.7124 -0.2196
  390MOL0     C52581   4.190   3.230   2.681 -0.4801 -0.2307  0.0113
  390MOL0     C52582   4.247   3.333   2.585 -0.4370  0.8632  0.5600
  390MOL0     H52583   4.509   3.484   2.945  2.1184  0.6663 -0.8707
  390MOL0     H52584   4.740   3.557   3.052  2.9125 -2.0804  0.0394
  390MOL0     H52585   4.955   3.526   3.045 -0.3513 -1.0415  0.3150
  390MOL0     H52586   4.895   3.633   3.176 -0.6517 -0.2569 -1.4981
  390MOL0     H52587   5.147   3.473   3.225  1.9086 -0.2645 -4.3584
  390MOL0     H52588   5.049   3.611   3.305 -0.0798  0.8081 -1.0495
  390MOL0     H52589   5.112   3.770   3.129 -0.4193  0.9804  2.3619
  390MOL0     H52590   5.187   3.640   3.034  1.5770  0.5846  0.5520
  390MOL0     H52591   5.300   3.745   3.301 -0.3434  0.0140 -0.2734
  390MOL0     H52592   5.342   3.591   3.212  0.7345 -0.3369  0.0566
  390MOL0     H52593   5.368   3.731   3.017  1.3148 -1.1755 -0.0202
  390MOL0     H52594   5.371   3.877   3.118 -1.9868 -0.3538  1.9113
  390MOL0     H52595   5.556   3.818   3.252 -0.8666  2.6498 -0.5700
  390MOL0     H52596   5.551   3.646   3.177 -3.2532 -0.4698  1.0730
  390MOL0     H52597   5.644   3.917   3.046  0.9580 -0.7245 -0.4160
  390MOL0     H52598   5.643   3.755   2.984 -0.0508 -0.4122 -0.1579
  390MOL0     H52599   5.789   3.668   3.160  2.1660 -0.8008 -0.6731
  390MOL0     H52600   5.873   3.795   3.069 -0.2008 -2.0081 -1.4383
  390MOL0     H52601   5.745   4.057   3.200 -0.0108 -0.5527 -0.0553
  390MOL0     H52602   5.642   4.164   3.430 -0.3777 -1.1881 -1.9378
  390MOL0     H52603   5.699   4.129   3.588 -0.6240  0.3948 -0.8503
  390MOL0     H52604   5.903   4.236   3.391  2.0373  0.9085  0.3633
  390MOL0     H52605   5.803   4.343   3.498 -0.6094 -0.0489 -2.5221
  390MOL0     H52606   5.952   4.101   3.580 -2.0387  0.3981  2.3545
  390MOL0     H52607   5.893   4.234   3.688 -1.4007 -0.0061  0.0321
  390MOL0     H52608   6.060   4.390   3.594 -2.9901  0.0106 -2.9631
  390MOL0     H52609   6.116   4.284   3.469  2.6752  0.3935  0.2255
  390MOL0     H52610   6.347   4.083   3.770  1.8987  0.6674  2.1846
  390MOL0     H52611   6.572   4.102   3.787 -1.9323 -0.3106  0.7551
  390MOL0     H52612   7.024   4.393   3.478 -2.3361 -1.6899  0.9884
  390MOL0     H52613   7.259   4.462   3.562 -0.7816 -1.8366 -0.6665
  390MOL0     H52614   7.281   4.666   3.981  2.9436  2.0151  0.3087
  390MOL0     H52615   7.313   4.483   3.984  0.5388  0.3880 -0.3835
  390MOL0     H52616   7.509   4.619   4.062  3.4737  0.8093 -0.4826
  390MOL0     H52617   7.542   4.528   3.914  0.5491  2.3075 -0.4267
  390MOL0     H52618   7.521   4.730   3.782 -0.1351 -1.8484 -0.8751
  390MOL0     H52619   7.483   4.827   3.924 -1.9891 -1.9435 -0.6190
  390MOL0     H52620   7.748   4.680   3.885  1.9994  0.1557  2.4037
  390MOL0     H52621   7.691   4.757   4.034 -1.2399 -0.5083  0.1972
  390MOL0     H52622   7.692   4.977   3.864  1.2234 -0.0221 -1.8550
  390MOL0     H52623   7.791   4.866   3.775  0.2582 -1.1205 -0.2606
  390MOL0     H52624   7.915   4.841   4.007 -0.2719 -1.7565 -2.8185
  390MOL0     H52625   7.937   4.990   3.903  0.7031 -0.4245 -0.2555
  390MOL0     H52626   7.717   5.046   4.069 -0.0050 -1.5955 -0.8968
  390MOL0     H52627   7.883   5.125   4.057  2.5257 -1.5041 -1.4653
  390MOL0     H52628   7.814   5.058   4.294  0.0912  1.6225 -1.1750
  390MOL0     H52629   7.844   4.892   4.230 -1.1421  1.0704 -0.4543
  390MOL0     H52630   7.077   4.565   3.936  3.5801 -0.4954 -0.1650
  390MOL0     H52631   6.865   4.490   3.859 -1.3302 -1.4854 -0.5424
  390MOL0     H52632   6.555   4.458   3.532 -1.5383 -0.4130 -0.4454
  390MOL0     H52633   6.315   4.423   3.511  0.4109 -0.7379 -1.8908
  390MOL0     H52634   4.787   3.189   3.232  0.3084 -1.2550 -0.8357
  390MOL0     H52635   4.571   3.108   3.130  1.2296 -0.0295  0.3689
  390MOL0     H52636   4.209   3.084   2.992  1.0204 -0.2105 -0.6369
  390MOL0     H52637   3.987   3.038   2.943 -1.0639 -0.1695 -1.0252
  390MOL0     H52638   3.848   3.093   2.518  0.4675  2.3928  1.2628
  390MOL0     H52639   3.723   2.987   2.596  1.3004 -2.8124 -0.5238
  390MOL0     H52640   4.001   2.921   2.497 -0.1337  3.1396  2.6691
  390MOL0     H52641   3.843   2.838   2.464 -0.8583  0.0605  1.1140
  390MOL0     H52642   3.830   2.749   2.695 -0.2174 -4.2852 -0.8420
  390MOL0     H52643   3.988   2.815   2.732  1.2585 -1.9589  0.3412
  390MOL0     H52644   4.017   2.588   2.685  1.0956 -2.2635 -1.2623
  390MOL0     H52645   3.925   2.607   2.531 -0.6021 -2.1587  1.7974
  390MOL0     H52646   4.325   2.725   2.438  0.1011  0.0767  1.1266
  390MOL0     H52647   4.013   3.230   2.559  1.9717 -0.0560 -0.9195
  390MOL0     H52648   4.177   3.380   2.515 -0.1207 -1.5454 -1.5440
  390MOL0     H52649   4.282   3.415   2.649 -3.0679  3.5107 -1.0845
  390MOL0     H52650   4.326   3.296   2.519 -0.0899  2.8518 -0.2322
  391MOL0     O52651   7.520   6.961   3.247  0.1456  0.5673 -0.5357
  391MOL0     C52652   7.475   7.067   3.290  0.5147  0.2967  0.8375
  391MOL0     O52653   7.515   7.192   3.253 -0.4405  0.4155 -0.3457
  391MOL0     C52654   7.635   7.207   3.182 -0.2418 -0.5299 -0.1628
  391MOL0     C52655   7.750   7.125   3.188  0.3308  0.1615 -0.0069
  391MOL0     C52656   7.877   7.176   3.146  0.2964  0.3533 -0.1954
  391MOL0     C52657   7.888   7.303   3.078  0.0623 -0.3956  0.0515
  391MOL0     O52658   8.014   7.352   3.052  0.5243  0.3105  0.0773
  391MOL0     C52659   8.029   7.466   2.975 -0.2990 -0.0346 -0.6603
  391MOL0     C52660   8.177   7.485   2.952 -1.0192 -0.4592  0.0741
  391MOL0     C52661   8.233   7.386   2.843 -0.1216  0.5725 -1.0521
  391MOL0     C52662   8.261   7.250   2.892 -0.3579  0.6644 -0.4983
  391MOL0     C52663   8.340   7.154   2.798 -0.8682 -0.6890 -0.0684
  391MOL0     C52664   8.365   7.019   2.866 -0.3328 -0.1489  0.6943
  391MOL0     C52665   8.231   6.940   2.893  1.0639 -0.3473  0.1266
  391MOL0     C52666   8.274   6.826   2.991 -0.2183  0.1682 -0.2732
  391MOL0     N52667   8.357   6.725   2.927  0.4660 -0.2436 -0.5643
  391MOL0     C52668   8.304   6.612   2.865  0.3885 -1.0139  0.0819
  391MOL0     C52669   8.415   6.541   2.857 -0.7077 -0.1267  0.1577
  391MOL0     C52670   8.416   6.396   2.813  0.7382 -0.8233 -0.8957
  391MOL0     C52671   8.512   6.357   2.711 -0.2346 -0.4098 -0.1412
  391MOL0     C52672   8.553   6.215   2.728 -0.9388  0.1860 -0.6611
  391MOL0     C52673   8.666   6.174   2.627  1.2923 -0.1773 -1.5110
  391MOL0     O52674   8.707   6.045   2.642 -0.0736  0.5111 -0.4744
  391MOL0     C52675   8.820   5.997   2.577  0.2318 -0.1595  0.7417
  391MOL0     C52676   8.900   6.075   2.487 -0.2730  0.0563  0.7112
  391MOL0     C52677   9.025   6.026   2.442 -0.2989  0.3262  0.0757
  391MOL0     C52678   9.070   5.898   2.481 -0.2065  0.1772  0.1037
  391MOL0     C52679   9.195   5.845   2.426 -0.8286  0.1806 -0.3726
  391MOL0     O52680   9.273   5.928   2.352  0.4054 -0.4206 -0.0139
  391MOL0     C52681   9.387   5.879   2.276  0.7651 -0.5935 -0.2355
  391MOL0     C52682   9.371   5.771   2.189  1.5440  0.1370 -0.1616
  391MOL0     C52683   9.477   5.723   2.105  0.3565 -0.8656 -0.0014
  391MOL0     C52684   9.606   5.781   2.125 -0.4821  0.9551 -0.1611
  391MOL0     O52685   9.722   5.732   2.067 -0.0595  0.0905 -0.0653
  391MOL0     C52686   9.704   5.622   1.973 -0.2675 -0.3095 -0.8362
  391MOL0     C52687   9.836   5.605   1.899  0.6299  0.3126  0.2455
  391MOL0     C52688   9.853   5.719   1.797 -0.3293  0.6094 -0.0915
  391MOL0     C52689   9.984   5.735   1.723 -0.1543  0.6118 -0.4783
  391MOL0     C52690   9.996   5.847   1.620 -0.5293 -0.8485 -0.0811
  391MOL0     C52691  10.120   5.850   1.540 -0.1228  1.1475  0.9805
  391MOL0     C52692  10.260   5.854   1.611 -0.1214  0.2294 -0.9127
  391MOL0     C52693  10.377   5.835   1.506  0.0825  0.5544 -0.1213
  391MOL0    Cl52694  10.436   5.986   1.417 -0.0937  0.2032  0.7554
  391MOL0     C52695   9.616   5.888   2.212  0.8786  0.4412  0.0687
  391MOL0     C52696   9.511   5.939   2.287 -0.4406 -0.6404  0.5478
  391MOL0     O52697   9.216   5.727   2.444 -0.3224  0.3043  0.3392
  391MOL0     C52698   8.988   5.814   2.558  0.8901  0.6987  0.0926
  391MOL0     C52699   8.858   5.865   2.602  0.0663 -0.2901  0.6302
  391MOL0     N52700   8.528   6.598   2.916  0.0034 -0.0093  0.1230
  391MOL0     N52701   8.488   6.715   2.949  0.1980 -0.2293 -0.0937
  391MOL0     C52702   7.769   7.381   3.067 -0.2385 -0.4274 -0.4284
  391MOL0     C52703   7.650   7.335   3.118  0.1525 -0.2870  1.2751
  391MOL0     C52704   7.363   7.062   3.384  0.0860  0.3373 -0.7343
  391MOL0     C52705   7.271   7.174   3.387 -0.5633  0.2964  0.0830
  391MOL0     C52706   7.181   7.192   3.488  0.6234  0.5594  0.3010
  391MOL0     C52707   7.155   7.083   3.580 -0.1045  0.1538  0.0914
  391MOL0     O52708   7.044   7.097   3.671 -0.0287 -1.0424  0.1055
  391MOL0     C52709   6.954   6.989   3.683 -0.4436  0.9615 -0.1948
  391MOL0     C52710   6.845   6.986   3.572 -0.2631 -0.0953 -0.6160
  391MOL0     C52711   6.796   7.126   3.530 -0.1019 -0.4349  0.0574
  391MOL0     C52712   6.725   7.132   3.394  0.1272 -0.3200  0.1196
  391MOL0     C52713   6.612   7.031   3.394  0.4979  0.4965 -0.1296
  391MOL0     C52714   6.527   6.943   3.399 -1.2344  0.6530 -0.2409
  391MOL0     C52715   7.229   6.967   3.570  0.6446 -0.7895  0.7453
  391MOL0     C52716   7.333   6.955   3.476 -0.9077  0.2042 -0.0333
  391MOL0     C52717   7.413   6.822   3.479 -0.3839  0.2596 -0.1995
  391MOL0     H52718   7.755   7.028   3.236  0.6779 -0.4193 -1.1674
  391MOL0     H52719   7.970   7.121   3.157  0.1065  0.2267  0.8384
  391MOL0     H52720   7.972   7.455   2.882 -2.8354 -2.4069  1.0282
  391MOL0     H52721   7.987   7.558   3.016  0.6711  0.4447 -0.7145
  391MOL0     H52722   8.252   7.489   3.031  0.4871  1.8566 -1.3478
  391MOL0     H52723   8.188   7.583   2.906 -1.4153 -0.1798  0.5593
  391MOL0     H52724   8.323   7.431   2.800  1.0684 -2.2286 -1.7233
  391MOL0     H52725   8.168   7.384   2.755  0.1299  0.6914 -1.2401
  391MOL0     H52726   8.321   7.258   2.983 -0.6085 -0.6195 -0.1991
  391MOL0     H52727   8.164   7.208   2.923  0.5181  0.8723  2.9677
  391MOL0     H52728   8.300   7.158   2.696  0.0417 -3.3299 -0.6082
  391MOL0     H52729   8.439   7.198   2.788 -1.6616  0.9028 -1.5369
  391MOL0     H52730   8.436   6.962   2.805 -0.1596  0.8684 -0.0998
  391MOL0     H52731   8.412   7.037   2.962  3.1379 -0.2453 -0.8386
  391MOL0     H52732   8.190   6.890   2.805  0.8647 -1.6996  0.9489
  391MOL0     H52733   8.156   6.999   2.946  2.5038 -1.3207  3.5646
  391MOL0     H52734   8.321   6.862   3.083 -0.3367  0.4656 -0.3289
  391MOL0     H52735   8.191   6.764   3.025 -0.2608 -0.0971 -0.8506
  391MOL0     H52736   8.204   6.577   2.844  0.8015 -3.1754  1.4062
  391MOL0     H52737   8.437   6.343   2.907  0.9088  1.3059  0.3294
  391MOL0     H52738   8.310   6.381   2.793  0.3372  2.1602 -1.3933
  391MOL0     H52739   8.474   6.368   2.609 -2.9173  0.1222  0.8458
  391MOL0     H52740   8.602   6.418   2.724 -0.5097  0.0040 -0.1508
  391MOL0     H52741   8.470   6.146   2.713 -0.4059 -0.6079 -0.0635
  391MOL0     H52742   8.589   6.197   2.829 -0.4183  1.8161 -0.5209
  391MOL0     H52743   8.752   6.241   2.640  1.2827 -0.3275 -0.6291
  391MOL0     H52744   8.622   6.185   2.527 -0.3236  0.9019 -0.7199
  391MOL0     H52745   8.866   6.176   2.468 -1.7287  0.2161  3.6525
  391MOL0     H52746   9.092   6.092   2.387 -1.6359  1.6294 -0.0679
  391MOL0     H52747   9.271   5.728   2.190  1.0109  1.2314 -2.1367
  391MOL0     H52748   9.440   5.639   2.047 -2.2979  1.9228 -2.7420
  391MOL0     H52749   9.679   5.530   2.026  1.1696 -0.1043  0.2764
  391MOL0     H52750   9.626   5.641   1.899  1.3081  2.8804 -1.8623
  391MOL0     H52751   9.926   5.585   1.957  0.9482 -2.8967 -1.1242
  391MOL0     H52752   9.827   5.512   1.843  2.3636 -0.2596  0.8539
  391MOL0     H52753   9.777   5.695   1.722 -1.1152 -0.1002  0.9157
  391MOL0     H52754   9.841   5.819   1.838  1.5675  2.0064 -2.6294
  391MOL0     H52755   9.974   5.645   1.661 -2.0813  1.1117 -0.9448
  391MOL0     H52756  10.065   5.732   1.796 -2.7040 -2.6805  2.6042
  391MOL0     H52757   9.988   5.937   1.682  1.2692  0.2865 -1.4267
  391MOL0     H52758   9.909   5.842   1.554 -0.8972 -2.5158  0.4822
  391MOL0     H52759  10.118   5.765   1.470  1.2148  1.4818  0.5155
  391MOL0     H52760  10.117   5.941   1.479  0.9438  0.3051 -0.3939
  391MOL0     H52761  10.264   5.780   1.691  2.6499  1.2403  0.0254
  391MOL0     H52762  10.275   5.955   1.651 -1.1132 -0.1308  0.4280
  391MOL0     H52763  10.474   5.804   1.546  0.0532 -2.9706 -2.3111
  391MOL0     H52764  10.353   5.745   1.447  0.7377 -0.6085  1.3216
  391MOL0     H52765   9.711   5.936   2.235  2.7537 -2.3905 -1.2295
  391MOL0     H52766   9.521   6.028   2.348 -2.0568  1.1108 -1.5595
  391MOL0     H52767   9.019   5.712   2.582  1.4953  1.0482  0.8491
  391MOL0     H52768   8.802   5.809   2.676  2.7274  0.8651  3.7537
  391MOL0     H52769   7.771   7.486   3.040 -0.0837  0.7182  3.4912
  391MOL0     H52770   7.558   7.392   3.113  0.4401  0.1902  1.3710
  391MOL0     H52771   7.290   7.245   3.307 -1.0161 -0.8852 -1.1156
  391MOL0     H52772   7.119   7.281   3.484 -1.0509 -0.5399  0.9938
  391MOL0     H52773   6.908   6.999   3.782  1.8771 -2.7562  1.4422
  391MOL0     H52774   7.005   6.893   3.684  0.7492  1.5697 -0.0282
  391MOL0     H52775   6.764   6.926   3.614 -0.6994  0.4102 -0.7177
  391MOL0     H52776   6.871   6.930   3.482  1.8684  1.7660 -1.2791
  391MOL0     H52777   6.883   7.191   3.520  2.0363 -2.7909  2.0944
  391MOL0     H52778   6.735   7.172   3.608 -0.0732  1.4824 -0.9951
  391MOL0     H52779   6.689   7.235   3.380  2.8835  0.6236 -0.8187
  391MOL0     H52780   6.794   7.106   3.313 -1.4695  1.6026 -1.9827
  391MOL0     H52781   6.445   6.874   3.394 -2.7773  2.3005  1.0048
  391MOL0     H52782   7.211   6.897   3.651 -3.7857  0.2241  0.8460
  391MOL0     H52783   7.512   6.840   3.523 -0.5638 -1.4041  0.9771
  391MOL0     H52784   7.368   6.753   3.552  1.4153 -0.2711  0.4538
  391MOL0     H52785   7.418   6.774   3.381  1.0534  0.9780 -0.5049
  392MOL0     O52786   0.449  10.392   8.668  0.5631  0.1153  0.4208
  392MOL0     C52787   0.361  10.342   8.734  0.0630  0.1889  0.5794
  392MOL0     O52788   0.388  10.267   8.849  0.0402 -0.6685  0.2498
  392MOL0     C52789   0.520  10.221   8.865 -0.0895 -0.4492  0.0327
  392MOL0     C52790   0.597  10.162   8.763  0.6229 -0.2755 -0.0267
  392MOL0     C52791   0.723  10.103   8.785 -0.3290 -0.8065  0.7134
  392MOL0     C52792   0.781  10.112   8.909  1.5629  0.2685 -0.6903
  392MOL0     O52793   0.889  10.028   8.931  0.4095  0.4524 -0.5758
  392MOL0     C52794   0.941  10.017   9.067  0.1583  0.5586 -0.5103
  392MOL0     C52795   1.078   9.942   9.055 -0.3233  0.6718 -0.1573
  392MOL0     C52796   1.176  10.005   8.956 -0.6407  0.2516 -0.0579
  392MOL0     C52797   1.251  10.119   9.007  0.1650 -0.1148 -0.7212
  392MOL0     C52798   1.377  10.136   8.928  0.8028  0.2071  0.2164
  392MOL0     C52799   1.439  10.267   8.978  0.1370 -0.2887 -0.7199
  392MOL0     C52800   1.581  10.290   8.913 -0.0474 -0.1728 -0.7056
  392MOL0     C52801   1.629  10.432   8.954  0.8192  0.2084  0.3958
  392MOL0     N52802   1.769  10.453   8.937 -0.5062  0.4688 -0.0050
  392MOL0     C52803   1.864  10.456   9.042  0.1318  0.5683 -1.1417
  392MOL0     C52804   1.986  10.459   8.988 -0.5050 -0.0325  0.1910
  392MOL0     C52805   2.104  10.453   9.075 -1.0093 -0.1198  0.7206
  392MOL0     C52806   2.176  10.330   9.034  0.3197  0.0795 -0.4361
  392MOL0     C52807   2.267  10.278   9.141  0.1426 -0.5109 -0.8320
  392MOL0     C52808   2.356  10.370   9.218  0.4768  0.0112 -0.3189
  392MOL0     O52809   2.453  10.440   9.136  0.4108  0.3465 -0.2331
  392MOL0     C52810   2.578  10.455   9.200 -0.4905 -0.4518 -0.3586
  392MOL0     C52811   2.601  10.465   9.342  0.7400  0.3576 -0.1053
  392MOL0     C52812   2.727  10.469   9.390 -0.6897  0.5715  0.8428
  392MOL0     C52813   2.842  10.474   9.303  0.4962  0.1959  0.5511
  392MOL0     C52814   2.978  10.468   9.359  0.6361 -0.8841 -0.1496
  392MOL0     O52815   2.988  10.462   9.488  0.1076  0.2809 -0.3031
  392MOL0     C52816   3.116  10.482   9.533  0.5975 -0.9634 -0.5345
  392MOL0     C52817   3.172  10.383   9.612  0.5457 -0.9462  0.3257
  392MOL0     C52818   3.311  10.394   9.651 -0.0502 -0.4381  0.4844
  392MOL0     C52819   3.385  10.510   9.614 -0.0569  0.9212  0.2124
  392MOL0     O52820   3.514  10.533   9.655 -0.0028 -0.7870  0.3367
  392MOL0     C52821   3.587  10.437   9.726 -0.1602  0.0053 -0.9406
  392MOL0     C52822   3.735  10.492   9.741 -0.1996 -0.4401 -0.8369
  392MOL0     C52823   3.833  10.386   9.801  0.1421  0.8493 -0.3351
  392MOL0     C52824   3.951  10.454   9.875  0.0137 -0.4751 -0.4297
  392MOL0     C52825   4.050  10.514   9.776  0.5805 -0.3315  0.2209
  392MOL0     C52826   4.172  10.566   9.845 -0.4119  0.2845 -0.6731
  392MOL0     C52827   4.252  10.654   9.750  0.1690  0.0602  0.0107
  392MOL0     C52828   4.385  10.695   9.810 -1.1142  0.5228 -0.2585
  392MOL0    Cl52829   4.463  10.824   9.717 -0.0807  0.0750  0.1644
  392MOL0     C52830   3.320  10.610   9.543 -0.1836  0.1613  0.5015
  392MOL0     C52831   3.183  10.603   9.504  0.0566  0.1559  0.1690
  392MOL0     O52832   3.073  10.465   9.277 -0.1754 -0.6787 -0.0109
  392MOL0     C52833   2.815  10.472   9.163  0.4424 -0.9335 -0.0739
  392MOL0     C52834   2.687  10.459   9.115  0.0809 -0.4867  0.7429
  392MOL0     N52835   1.977  10.468   8.852 -0.5307  0.1894  0.2596
  392MOL0     N52836   1.847  10.460   8.820  0.1871  0.3221  0.3521
  392MOL0     C52837   0.707  10.180   9.016 -0.3273 -0.0060 -0.4302
  392MOL0     C52838   0.588  10.240   8.987 -0.4582 -0.2735  0.4160
  392MOL0     C52839   0.223  10.350   8.693  0.1860 -0.1397  0.6898
  392MOL0     C52840   0.131  10.243   8.718 -0.0124  0.2947  0.1831
  392MOL0     C52841  -0.011  10.254   8.695 -0.8045 -0.3645 -1.2634
  392MOL0     C52842  -0.064  10.368   8.643  0.5095 -0.1736 -0.5853
  392MOL0     O52843  -0.197  10.382   8.621  0.0237 -0.5810 -0.6434
  392MOL0     C52844  -0.286  10.318   8.712  0.0335  0.9913  0.4248
  392MOL0     C52845  -0.403  10.406   8.729 -0.8492  0.4207 -0.1362
  392MOL0     C52846  -0.532  10.329   8.737  0.1896 -0.8614 -0.3815
  392MOL0     C52847  -0.578  10.262   8.610 -0.3064 -0.1488 -0.1711
  392MOL0     C52848  -0.709  10.199   8.641  0.5211 -0.4824 -0.2412
  392MOL0     C52849  -0.826  10.152   8.644  0.1743  0.1438  0.3428
  392MOL0     C52850   0.022  10.470   8.599 -0.5012 -0.1108 -0.4889
  392MOL0     C52851   0.167  10.466   8.615  0.0753 -0.1314  0.8869
  392MOL0     C52852   0.241  10.597   8.590  0.3986  0.2343 -0.2911
  392MOL0     H52853   0.567  10.174   8.659 -0.9077  3.7041  0.7152
  392MOL0     H52854   0.772  10.044   8.708  0.0976  1.4699 -0.8499
  392MOL0     H52855   0.955  10.117   9.108 -2.6258  0.8038  0.0408
  392MOL0     H52856   0.876   9.957   9.132  0.2381  1.0612  0.0432
  392MOL0     H52857   1.062   9.838   9.024 -0.3401  0.2972  1.0278
  392MOL0     H52858   1.123   9.932   9.155  1.9175  0.0636 -1.1781
  392MOL0     H52859   1.130  10.035   8.862  0.6750 -0.6616 -1.0332
  392MOL0     H52860   1.248   9.928   8.926  1.4088  2.5637 -1.4161
  392MOL0     H52861   1.187  10.208   9.006  1.1629  0.8040  2.9019
  392MOL0     H52862   1.271  10.115   9.114 -3.2233  1.5781  0.1171
  392MOL0     H52863   1.442  10.047   8.935  0.5466 -0.0881 -0.9294
  392MOL0     H52864   1.360  10.151   8.822 -1.7847 -0.2508  0.5103
  392MOL0     H52865   1.378  10.349   8.940  1.7369  1.3233  0.0392
  392MOL0     H52866   1.447  10.271   9.087 -2.0295 -1.9944 -0.4280
  392MOL0     H52867   1.569  10.285   8.804  1.9445 -2.1955 -0.8996
  392MOL0     H52868   1.649  10.217   8.956 -1.2210  0.3204  2.2091
  392MOL0     H52869   1.576  10.496   8.883  0.4211 -1.0382 -0.4667
  392MOL0     H52870   1.614  10.446   9.062  0.3904 -0.4539  0.4279
  392MOL0     H52871   1.850  10.453   9.150 -1.2797  1.0166 -1.2949
  392MOL0     H52872   2.171  10.540   9.075 -0.6763 -0.3734  0.2258
  392MOL0     H52873   2.065  10.452   9.177  2.1988  0.4214  2.0828
  392MOL0     H52874   2.106  10.250   9.009 -1.0199  1.5676 -1.6802
  392MOL0     H52875   2.232  10.357   8.944  1.1369 -1.2290 -0.3364
  392MOL0     H52876   2.329  10.199   9.096  0.0785  0.6963 -3.2094
  392MOL0     H52877   2.214  10.226   9.221  3.2521  0.6878  2.2325
  392MOL0     H52878   2.391  10.307   9.300  3.1603 -1.6013 -2.5418
  392MOL0     H52879   2.284  10.441   9.260 -0.9650 -1.2188 -0.6078
  392MOL0     H52880   2.514  10.474   9.407  0.8022 -4.3083  0.9537
  392MOL0     H52881   2.737  10.456   9.497 -2.5584 -4.8201  0.6727
  392MOL0     H52882   3.103  10.300   9.627 -0.7644  0.2676  1.2997
  392MOL0     H52883   3.360  10.308   9.695 -2.7334 -2.7296 -0.7124
  392MOL0     H52884   3.549  10.430   9.829  5.0482  2.8587  1.5956
  392MOL0     H52885   3.588  10.338   9.680 -3.1536 -0.5403 -0.0714
  392MOL0     H52886   3.768  10.510   9.639  0.4795  2.3337 -0.2324
  392MOL0     H52887   3.750  10.586   9.795  1.6729 -0.8250 -0.6137
  392MOL0     H52888   3.771  10.317   9.859 -0.3166  0.7769 -0.8992
  392MOL0     H52889   3.886  10.320   9.731  0.0267 -0.4328  0.7510
  392MOL0     H52890   4.003  10.380   9.936  0.0869  1.0937  1.5416
  392MOL0     H52891   3.913  10.527   9.947 -3.0560 -1.1982 -1.1533
  392MOL0     H52892   4.010  10.603   9.727  2.8588 -0.8145 -2.8105
  392MOL0     H52893   4.074  10.445   9.695 -2.2047  0.7843 -1.7152
  392MOL0     H52894   4.152  10.615   9.941 -0.0437 -2.6324  0.9961
  392MOL0     H52895   4.230  10.479   9.877 -2.0040 -0.8970 -0.9035
  392MOL0     H52896   4.187  10.738   9.723  1.6050  0.5365 -2.3266
  392MOL0     H52897   4.265  10.601   9.655 -4.0103 -1.6199  0.2039
  392MOL0     H52898   4.370  10.733   9.911  0.7106  0.8118 -0.0625
  392MOL0     H52899   4.443  10.602   9.812  0.1729  1.2697 -1.1527
  392MOL0     H52900   3.369  10.704   9.518  2.5873 -1.3870 -0.3059
  392MOL0     H52901   3.137  10.673   9.435  0.6919 -0.3727 -0.8220
  392MOL0     H52902   2.898  10.481   9.093  0.6109 -1.0940  0.1056
  392MOL0     H52903   2.683  10.460   9.007 -0.9433  2.9676  0.6944
  392MOL0     H52904   0.758  10.186   9.112  6.7105  2.5524 -3.6232
  392MOL0     H52905   0.539  10.299   9.064 -2.2221 -1.7923  0.5222
  392MOL0     H52906   0.160  10.146   8.756 -2.1156 -0.8884 -1.0332
  392MOL0     H52907  -0.070  10.167   8.723 -2.2891  1.2090  0.8032
  392MOL0     H52908  -0.231  10.291   8.803  1.6710  2.1332 -0.1824
  392MOL0     H52909  -0.328  10.229   8.665  3.3482 -0.4940 -0.0499
  392MOL0     H52910  -0.403  10.483   8.651 -0.7215 -0.8047 -1.3921
  392MOL0     H52911  -0.383  10.459   8.822 -1.1910 -4.0162  2.7867
  392MOL0     H52912  -0.592  10.413   8.773  3.1627  1.6128 -0.8296
  392MOL0     H52913  -0.520  10.251   8.812 -1.1376 -3.7241 -2.9008
  392MOL0     H52914  -0.587  10.339   8.533  0.5843  0.0555 -0.0742
  392MOL0     H52915  -0.509  10.185   8.572 -1.4826 -2.8545  2.7207
  392MOL0     H52916  -0.914  10.091   8.647  1.2957 -1.8614 -2.6915
  392MOL0     H52917  -0.016  10.550   8.536  2.6989  1.2182 -0.9440
  392MOL0     H52918   0.333  10.594   8.532  0.1883  2.0926 -0.8035
  392MOL0     H52919   0.185  10.665   8.525  1.9721  0.4215 -1.5243
  392MOL0     H52920   0.263  10.654   8.681  0.8873  3.3607 -2.2055
  393MOL0     O52921   1.295   9.235   3.989  0.1216  0.2634 -0.1454
  393MOL0     C52922   1.242   9.284   4.090  1.0640 -0.7621  0.6047
  393MOL0     O52923   1.305   9.337   4.190 -0.2515  0.2695 -0.2158
  393MOL0     C52924   1.441   9.344   4.197  0.1255  0.5240 -0.0042
  393MOL0     C52925   1.519   9.231   4.172  0.1441  0.1299 -0.0956
  393MOL0     C52926   1.652   9.223   4.202  0.0741  0.2202 -0.9726
  393MOL0     C52927   1.718   9.342   4.243 -0.1337 -0.3805  0.0192
  393MOL0     O52928   1.849   9.340   4.282 -0.2716 -0.3310  0.0749
  393MOL0     C52929   1.929   9.451   4.231  0.2979  0.8700  0.8192
  393MOL0     C52930   2.074   9.410   4.243 -0.2867 -0.3886  0.1695
  393MOL0     C52931   2.132   9.411   4.385 -0.0299 -0.3399  0.7682
  393MOL0     C52932   2.053   9.316   4.479 -0.1413  0.0619 -0.0565
  393MOL0     C52933   2.129   9.290   4.618  0.1036  0.4873  0.7050
  393MOL0     C52934   2.244   9.193   4.595  0.5786 -0.6585  0.1673
  393MOL0     C52935   2.292   9.151   4.739  0.6044 -0.0241 -0.4321
  393MOL0     C52936   2.406   9.058   4.754 -1.1786  0.1753 -0.3998
  393MOL0     N52937   2.418   8.941   4.669 -0.3538 -0.5359 -0.5154
  393MOL0     C52938   2.360   8.825   4.698 -0.4718  0.7378 -0.1940
  393MOL0     C52939   2.444   8.736   4.636  0.9319  0.0923  0.1982
  393MOL0     C52940   2.445   8.581   4.644  0.3180 -0.0596  0.2709
  393MOL0     C52941   2.333   8.519   4.721 -0.0045 -0.2947 -0.2160
  393MOL0     C52942   2.380   8.374   4.772 -0.1246 -1.1512 -0.1382
  393MOL0     C52943   2.447   8.296   4.663  0.1285 -0.0541  0.1954
  393MOL0     O52944   2.473   8.164   4.711  0.3515 -0.6361 -0.6560
  393MOL0     C52945   2.600   8.134   4.757 -0.6600 -0.5570  0.4069
  393MOL0     C52946   2.707   8.227   4.770 -0.1647  0.6758  0.4185
  393MOL0     C52947   2.814   8.187   4.854  0.8797  0.0407  0.2956
  393MOL0     C52948   2.828   8.063   4.925 -1.0646 -0.1235  0.3356
  393MOL0     C52949   2.943   8.029   5.012 -0.5654 -0.3060  1.1660
  393MOL0     O52950   3.016   8.132   5.056 -0.4028 -0.4780  0.5007
  393MOL0     C52951   3.115   8.123   5.154 -0.1095 -1.0699 -0.1918
  393MOL0     C52952   3.094   8.077   5.283 -0.1440  0.4335  0.3593
  393MOL0     C52953   3.195   8.071   5.374  0.1821 -0.2704 -0.8440
  393MOL0     C52954   3.330   8.107   5.338  0.1478 -0.6231 -0.1228
  393MOL0     O52955   3.426   8.083   5.428  0.0068  1.2199  0.4045
  393MOL0     C52956   3.557   8.149   5.403  0.0741 -0.1291  0.7068
  393MOL0     C52957   3.667   8.086   5.486  0.1323  0.0303 -0.0002
  393MOL0     C52958   3.680   7.938   5.463  0.5427  0.8809  0.0702
  393MOL0     C52959   3.705   7.871   5.608  0.2027 -0.3375 -0.5753
  393MOL0     C52960   3.851   7.884   5.663 -0.0059  0.1789  0.5374
  393MOL0     C52961   3.869   7.876   5.811  1.4517 -0.3155 -0.2959
  393MOL0     C52962   4.015   7.901   5.831 -0.2634 -0.1416 -0.6276
  393MOL0     C52963   4.058   7.881   5.976  0.1246 -0.1722 -0.0464
  393MOL0    Cl52964   4.237   7.917   5.994 -0.1131  0.3935  0.5650
  393MOL0     C52965   3.351   8.161   5.209  0.4483  0.2809  0.8884
  393MOL0     C52966   3.245   8.163   5.118 -0.8200  0.1942  0.2690
  393MOL0     O52967   2.952   7.911   5.036  0.2853 -0.3592  1.3282
  393MOL0     C52968   2.720   7.981   4.905  0.1517  0.8982  0.2663
  393MOL0     C52969   2.611   8.012   4.831 -0.3490 -0.2325  0.3839
  393MOL0     N52970   2.538   8.805   4.561 -0.0309  0.0228 -0.3777
  393MOL0     N52971   2.523   8.930   4.586 -0.4714 -0.2206  0.3186
  393MOL0     C52972   1.647   9.459   4.247 -1.4554 -1.3386 -0.6735
  393MOL0     C52973   1.511   9.460   4.227  0.4688  0.1654 -0.4562
  393MOL0     C52974   1.092   9.273   4.094  0.5170 -0.6151  0.4498
  393MOL0     C52975   1.035   9.388   4.140 -0.2379 -0.7564  0.5921
  393MOL0     C52976   0.895   9.404   4.147 -1.1125  0.2040 -0.0201
  393MOL0     C52977   0.816   9.292   4.101  0.4056  0.3145 -0.2537
  393MOL0     O52978   0.679   9.291   4.105  0.0567 -0.1441 -0.3788
  393MOL0     C52979   0.618   9.421   4.105 -0.6351 -0.5053 -0.0126
  393MOL0     C52980   0.484   9.404   4.040  0.9006 -0.0802  0.1682
  393MOL0     C52981   0.388   9.303   4.105  0.0632  0.0120 -0.2650
  393MOL0     C52982   0.252   9.302   4.038  0.6724  0.9247 -0.0256
  393MOL0     C52983   0.263   9.257   3.902  0.1723 -0.4384  1.0473
  393MOL0     C52984   0.275   9.204   3.793  0.3882 -0.6592 -0.5677
  393MOL0     C52985   0.879   9.180   4.041 -0.6990  0.5039  0.3423
  393MOL0     C52986   1.017   9.170   4.030  0.8269  0.0848  0.3536
  393MOL0     C52987   1.057   9.059   3.944 -0.4431  0.5226 -0.2064
  393MOL0     H52988   1.466   9.139   4.149 -0.5798  0.2513  0.9808
  393MOL0     H52989   1.713   9.134   4.189 -1.3855 -1.0764  0.5441
  393MOL0     H52990   1.893   9.474   4.131 -2.1615 -0.5330  1.2960
  393MOL0     H52991   1.910   9.543   4.287 -2.4315 -0.0520  1.5524
  393MOL0     H52992   2.129   9.492   4.196  1.9432 -2.8229 -1.7074
  393MOL0     H52993   2.084   9.315   4.191  2.0903  0.9879 -2.1327
  393MOL0     H52994   2.145   9.514   4.419  1.4430 -0.2439 -0.0167
  393MOL0     H52995   2.234   9.377   4.368 -0.3543 -1.4256  0.8624
  393MOL0     H52996   1.953   9.358   4.497 -0.9161 -0.9866 -1.6493
  393MOL0     H52997   2.050   9.220   4.427 -0.9736 -0.3544  0.7234
  393MOL0     H52998   2.160   9.386   4.661  0.5812  1.5633 -1.8366
  393MOL0     H52999   2.048   9.253   4.681  0.9205 -0.0604  1.4532
  393MOL0     H53000   2.203   9.105   4.546 -0.6948  0.1882 -0.3484
  393MOL0     H53001   2.324   9.241   4.538 -0.9915  3.6520  1.1384
  393MOL0     H53002   2.209   9.104   4.792  0.5303 -1.1591 -1.5021
  393MOL0     H53003   2.314   9.238   4.801  0.7099  0.0052 -0.5110
  393MOL0     H53004   2.493   9.124   4.751 -1.4122  0.4824 -3.3615
  393MOL0     H53005   2.391   9.005   4.849 -3.5918 -0.5712 -1.1391
  393MOL0     H53006   2.272   8.814   4.761 -2.1370  2.5674 -2.0405
  393MOL0     H53007   2.446   8.534   4.545 -2.0695 -2.0712  1.1144
  393MOL0     H53008   2.544   8.558   4.684 -0.3892 -3.1746  0.4743
  393MOL0     H53009   2.311   8.575   4.812  0.7543  0.9217 -0.7514
  393MOL0     H53010   2.248   8.519   4.653  0.1160 -0.3714 -0.3657
  393MOL0     H53011   2.297   8.328   4.827 -0.4842  1.2986  1.5489
  393MOL0     H53012   2.464   8.385   4.841  0.3027 -1.7037 -0.5615
  393MOL0     H53013   2.533   8.337   4.608 -1.0936  2.3692  0.0052
  393MOL0     H53014   2.370   8.279   4.588  0.4644  1.3437 -0.4884
  393MOL0     H53015   2.686   8.330   4.741 -2.4022  0.5985  1.5348
  393MOL0     H53016   2.889   8.265   4.865 -1.1618  2.3671 -1.2925
  393MOL0     H53017   2.998   8.030   5.302  1.1026 -2.8430 -0.5998
  393MOL0     H53018   3.179   8.029   5.473 -1.8031 -1.4714 -1.6132
  393MOL0     H53019   3.596   8.132   5.302  0.4653  1.3612  0.5803
  393MOL0     H53020   3.552   8.258   5.413 -2.5608 -0.1132 -0.0582
  393MOL0     H53021   3.756   8.143   5.455  1.1670 -1.4761  0.0969
  393MOL0     H53022   3.651   8.110   5.592 -0.8299 -1.7374  0.2823
  393MOL0     H53023   3.582   7.900   5.431 -0.1172  1.1346  1.7121
  393MOL0     H53024   3.754   7.912   5.387 -0.2978 -0.1799 -0.4197
  393MOL0     H53025   3.683   7.764   5.611 -1.7552  0.0578  0.6705
  393MOL0     H53026   3.633   7.912   5.680  0.1331 -1.3022 -0.0818
  393MOL0     H53027   3.886   7.982   5.630 -1.5842  1.1242  1.5434
  393MOL0     H53028   3.913   7.805   5.620  0.9494 -0.3937  2.8578
  393MOL0     H53029   3.810   7.948   5.869 -0.3680  0.0189 -2.4404
  393MOL0     H53030   3.833   7.776   5.837 -4.2101  0.9932 -1.7051
  393MOL0     H53031   4.042   8.004   5.807 -3.5277  0.1980 -3.7458
  393MOL0     H53032   4.075   7.843   5.760 -0.1414 -0.2841 -0.4072
  393MOL0     H53033   3.995   7.938   6.045  3.1390  0.3124  2.5123
  393MOL0     H53034   4.044   7.776   6.003  1.5887 -0.6715 -1.1115
  393MOL0     H53035   3.444   8.187   5.161  1.0786 -1.6366  0.9622
  393MOL0     H53036   3.256   8.198   5.015  0.7555 -4.0518 -1.2511
  393MOL0     H53037   2.716   7.887   4.958  0.9814  0.1410 -0.9456
  393MOL0     H53038   2.536   7.937   4.813  2.3028 -2.5281 -2.1072
  393MOL0     H53039   1.700   9.551   4.267 -5.0732  0.9927 -0.8798
  393MOL0     H53040   1.457   9.554   4.237  1.1938  0.4269  1.3290
  393MOL0     H53041   1.103   9.464   4.177 -0.5336 -0.5627  0.7473
  393MOL0     H53042   0.862   9.490   4.204  1.2874  2.0311 -1.2073
  393MOL0     H53043   0.670   9.502   4.052 -0.4238 -0.2342  0.5992
  393MOL0     H53044   0.604   9.462   4.205 -1.5885  1.3691 -0.8660
  393MOL0     H53045   0.509   9.370   3.939  0.3497  2.5469 -0.9363
  393MOL0     H53046   0.428   9.496   4.020  0.9716  0.4573  2.2110
  393MOL0     H53047   0.384   9.332   4.211 -0.3500  2.3918 -0.8733
  393MOL0     H53048   0.434   9.204   4.099  3.5558  1.4641  0.5121
  393MOL0     H53049   0.191   9.226   4.089  2.1851 -1.7860 -1.9798
  393MOL0     H53050   0.212   9.403   4.042 -0.8294  0.4264 -1.6265
  393MOL0     H53051   0.277   9.153   3.698 -2.9177 -0.3691 -0.9179
  393MOL0     H53052   0.810   9.114   3.990  0.5536 -1.5874  1.2484
  393MOL0     H53053   1.149   9.019   3.986  0.7087  1.0788 -2.0803
  393MOL0     H53054   0.983   8.978   3.943 -1.9022  1.7448  1.6353
  393MOL0     H53055   1.076   9.086   3.840  1.4804 -0.5018 -0.1669
  394MOL0     O53056   7.924   0.672   6.417  0.3461 -0.4671  0.6097
  394MOL0     C53057   7.852   0.703   6.514 -0.4962 -0.1331  0.7025
  394MOL0     O53058   7.865   0.665   6.640  0.1677  0.0946  0.8789
  394MOL0     C53059   7.980   0.625   6.692  0.0323  0.1904  0.0161
  394MOL0     C53060   7.980   0.532   6.799 -0.3488  0.0603  0.0386
  394MOL0     C53061   8.089   0.491   6.874 -0.4239  0.3400 -0.5842
  394MOL0     C53062   8.207   0.556   6.845  0.6455 -0.0221 -0.1608
  394MOL0     O53063   8.310   0.523   6.935 -0.2454  0.5443  0.8502
  394MOL0     C53064   8.442   0.575   6.904 -0.9457 -0.2342  0.0676
  394MOL0     C53065   8.527   0.533   7.023 -0.7054  0.7574 -0.3433
  394MOL0     C53066   8.652   0.625   7.035  0.2404 -1.0501 -0.3570
  394MOL0     C53067   8.723   0.596   7.169 -0.4259  0.0543  0.0693
  394MOL0     C53068   8.825   0.704   7.193  0.7255  0.3325  0.0881
  394MOL0     C53069   8.937   0.650   7.284 -0.1107  0.0567 -0.3675
  394MOL0     C53070   9.053   0.747   7.291  0.0902  0.1207  0.4121
  394MOL0     C53071   9.149   0.730   7.415 -0.2132  0.4923 -0.0354
  394MOL0     N53072   9.243   0.840   7.432 -0.2940  0.2094  1.4045
  394MOL0     C53073   9.328   0.881   7.329 -0.6963 -0.1097  0.0800
  394MOL0     C53074   9.383   0.995   7.380  0.0459 -0.4914  0.2259
  394MOL0     C53075   9.465   1.097   7.304  0.3424  0.9105 -0.5263
  394MOL0     C53076   9.499   1.067   7.154  0.8385  0.4648 -0.1384
  394MOL0     C53077   9.520   1.194   7.074  0.4428  1.1871 -0.0973
  394MOL0     C53078   9.645   1.283   7.126 -0.2456  0.7422  0.4714
  394MOL0     O53079   9.762   1.200   7.088 -0.7434  0.2861  0.2180
  394MOL0     C53080   9.815   1.219   6.960  0.0331 -0.6871 -0.0406
  394MOL0     C53081   9.782   1.144   6.842  0.2092  0.0074 -0.3642
  394MOL0     C53082   9.831   1.171   6.716 -0.1391  0.0718 -0.0067
  394MOL0     C53083   9.918   1.276   6.684  0.4828 -0.8538  0.2960
  394MOL0     C53084   9.964   1.309   6.545  0.1729  0.6932 -1.3259
  394MOL0     O53085  10.021   1.425   6.528  0.1714  1.0241  0.0259
  394MOL0     C53086  10.023   1.461   6.400 -0.1757 -0.6578  0.8725
  394MOL0     C53087  10.144   1.509   6.333  0.1487  0.4316 -1.0565
  394MOL0     C53088  10.140   1.547   6.205  0.3194 -0.6985  0.4470
  394MOL0     C53089  10.020   1.532   6.134  0.2710 -0.1989 -0.2051
  394MOL0     O53090  10.013   1.533   5.996 -0.2095 -0.0320  0.1545
  394MOL0     C53091  10.125   1.559   5.910  0.9728 -1.1931 -0.1356
  394MOL0     C53092  10.146   1.702   5.861 -0.2802 -0.8490 -0.3546
  394MOL0     C53093  10.260   1.728   5.757  0.5001  0.2108 -0.3127
  394MOL0     C53094  10.393   1.729   5.834  0.5703  0.6709  0.3673
  394MOL0     C53095  10.504   1.710   5.738  0.1668  0.8070 -1.3768
  394MOL0     C53096  10.638   1.725   5.811 -0.3351  0.3481 -0.4579
  394MOL0     C53097  10.750   1.706   5.711 -0.1251  0.2750  0.0048
  394MOL0     C53098  10.882   1.703   5.785 -0.7942 -0.8102 -0.1677
  394MOL0    Cl53099  11.017   1.648   5.676  0.6220  0.0188 -0.0257
  394MOL0     C53100   9.900   1.489   6.191  0.3968  0.3724  0.1081
  394MOL0     C53101   9.904   1.461   6.325 -0.1423  0.5074  0.7501
  394MOL0     O53102   9.928   1.226   6.463  0.2276 -0.0386  0.0172
  394MOL0     C53103   9.955   1.347   6.804  1.4356  0.0103 -0.5309
  394MOL0     C53104   9.902   1.326   6.934  0.2103  0.1395 -0.4030
  394MOL0     N53105   9.342   1.006   7.513 -0.7892  0.7850  0.5402
  394MOL0     N53106   9.266   0.914   7.549 -0.0999  0.2481 -0.1519
  394MOL0     C53107   8.217   0.645   6.737  0.8695 -0.0509 -0.8251
  394MOL0     C53108   8.107   0.683   6.661 -0.5152  0.0349 -0.0172
  394MOL0     C53109   7.731   0.783   6.480 -0.2082  0.3862 -0.3911
  394MOL0     C53110   7.616   0.762   6.558 -0.4157  0.4828 -0.0163
  394MOL0     C53111   7.490   0.825   6.532 -0.8586 -0.0848 -0.1707
  394MOL0     C53112   7.487   0.921   6.429  0.2692  0.7174 -0.0388
  394MOL0     O53113   7.379   1.000   6.379 -0.2484  0.0279 -0.3509
  394MOL0     C53114   7.245   0.962   6.422 -0.2005 -0.4539  0.1098
  394MOL0     C53115   7.161   1.018   6.311 -0.4370 -0.4187  0.0123
  394MOL0     C53116   7.021   1.064   6.371 -0.1013 -0.3469 -0.1066
  394MOL0     C53117   7.034   1.203   6.433  0.0057  0.0788 -0.3732
  394MOL0     C53118   6.902   1.259   6.460 -0.2792  0.4110 -0.4075
  394MOL0     C53119   6.798   1.312   6.492 -0.6484 -0.1746  0.5440
  394MOL0     C53120   7.604   0.941   6.360  0.0919  0.4450  0.7258
  394MOL0     C53121   7.723   0.877   6.373  0.0902 -0.6918  0.2178
  394MOL0     C53122   7.830   0.910   6.273 -0.2699  0.7314 -0.1837
  394MOL0     H53123   7.890   0.479   6.829  0.4010  0.5745  3.6863
  394MOL0     H53124   8.081   0.412   6.947 -1.8055  0.3852 -0.6633
  394MOL0     H53125   8.482   0.544   6.807 -2.3366 -1.1034 -0.2608
  394MOL0     H53126   8.445   0.684   6.904 -1.1509 -0.2061  1.4146
  394MOL0     H53127   8.554   0.428   7.008 -1.3855  0.8484 -2.4927
  394MOL0     H53128   8.473   0.544   7.118  2.0362 -0.9308  1.5700
  394MOL0     H53129   8.629   0.732   7.030  1.5955 -0.5534  2.5158
  394MOL0     H53130   8.717   0.609   6.949 -1.9928  2.5607 -3.0240
  394MOL0     H53131   8.663   0.610   7.260  1.7072  0.2708  1.5257
  394MOL0     H53132   8.753   0.491   7.161  5.2487  1.5541 -3.9105
  394MOL0     H53133   8.873   0.736   7.100 -2.0330  2.8199 -0.6247
  394MOL0     H53134   8.783   0.786   7.252 -0.2709 -0.9163  1.1632
  394MOL0     H53135   8.890   0.635   7.381 -0.1571  2.1883 -0.0073
  394MOL0     H53136   8.967   0.552   7.245 -1.4777 -1.0705  1.3094
  394MOL0     H53137   9.013   0.848   7.303 -0.7883 -0.3570  1.8475
  394MOL0     H53138   9.109   0.735   7.198  0.6067  1.0322  0.5922
  394MOL0     H53139   9.094   0.735   7.509  0.2714  0.3609  0.2569
  394MOL0     H53140   9.200   0.634   7.396 -1.0147  0.6135 -3.5157
  394MOL0     H53141   9.325   0.844   7.226 -1.5497  0.3103 -0.0458
  394MOL0     H53142   9.406   1.190   7.300 -0.4652  0.3749 -1.3592
  394MOL0     H53143   9.552   1.121   7.366 -0.3667  0.8548  0.5219
  394MOL0     H53144   9.583   0.997   7.154  0.4086 -0.1677  2.7530
  394MOL0     H53145   9.408   1.020   7.116  1.8432 -2.6062  0.9726
  394MOL0     H53146   9.430   1.257   7.070  0.1968  0.7969 -1.2192
  394MOL0     H53147   9.524   1.159   6.970 -1.5880 -0.2393  0.2476
  394MOL0     H53148   9.628   1.296   7.233 -0.0950  0.5384  0.5214
  394MOL0     H53149   9.644   1.376   7.069 -0.8407 -0.4771 -1.6262
  394MOL0     H53150   9.705   1.068   6.844 -1.1181  1.3225  0.8835
  394MOL0     H53151   9.796   1.118   6.628  2.2069 -1.6666  0.0185
  394MOL0     H53152  10.234   1.502   6.392  2.5639  3.0236 -4.0581
  394MOL0     H53153  10.228   1.585   6.154  0.0407 -0.0444  0.4481
  394MOL0     H53154  10.216   1.509   5.946  1.4304 -2.1862 -2.4628
  394MOL0     H53155  10.105   1.511   5.813  2.9721  0.5337 -1.5158
  394MOL0     H53156  10.055   1.733   5.808  1.1574  1.6003 -1.5912
  394MOL0     H53157  10.172   1.755   5.953 -1.2165 -1.5939  0.3622
  394MOL0     H53158  10.260   1.648   5.682  0.2985  0.0580 -0.1513
  394MOL0     H53159  10.248   1.824   5.707  3.5584  1.5307  1.1851
  394MOL0     H53160  10.384   1.652   5.911 -1.4624  0.7962  0.3074
  394MOL0     H53161  10.400   1.826   5.884 -1.3060  0.2118  1.6184
  394MOL0     H53162  10.498   1.773   5.648 -2.7244  1.3116 -0.9300
  394MOL0     H53163  10.497   1.606   5.706  2.5580  0.2969 -0.3798
  394MOL0     H53164  10.654   1.830   5.836 -0.4980  0.6881 -1.6868
  394MOL0     H53165  10.642   1.649   5.890  0.3730  0.4942 -0.3497
  394MOL0     H53166  10.749   1.783   5.633  1.1614 -0.2899 -0.6017
  394MOL0     H53167  10.746   1.611   5.657  1.9200 -0.3007  0.7648
  394MOL0     H53168  10.914   1.804   5.811 -1.5441  0.1751 -2.8525
  394MOL0     H53169  10.876   1.642   5.876 -0.5549  1.0894  1.1800
  394MOL0     H53170   9.806   1.485   6.136  1.6118 -0.9513 -1.9874
  394MOL0     H53171   9.813   1.433   6.376 -0.8739  0.8536 -0.3195
  394MOL0     H53172  10.032   1.423   6.793 -0.1935  1.6681 -0.8473
  394MOL0     H53173   9.946   1.386   7.013  0.9621 -0.2416 -0.5211
  394MOL0     H53174   8.306   0.705   6.721 -0.6191  1.9476 -2.0735
  394MOL0     H53175   8.121   0.752   6.578  3.8742 -2.7657 -1.9574
  394MOL0     H53176   7.623   0.683   6.633 -1.4484 -0.4047 -0.8317
  394MOL0     H53177   7.404   0.803   6.593 -0.4411  0.4466  0.6142
  394MOL0     H53178   7.231   1.002   6.522 -0.5769  2.3303 -0.9734
  394MOL0     H53179   7.226   0.854   6.427 -2.5938 -0.0725  0.0908
  394MOL0     H53180   7.143   0.937   6.239 -2.9676  0.5534 -0.5358
  394MOL0     H53181   7.205   1.099   6.252 -1.3797 -0.4502 -0.7609
  394MOL0     H53182   6.974   0.992   6.439 -2.3943  0.8242 -0.3523
  394MOL0     H53183   6.959   1.080   6.282 -0.4914 -0.8854  0.0664
  394MOL0     H53184   7.091   1.195   6.526 -1.7160  1.1983  0.8336
  394MOL0     H53185   7.095   1.269   6.371  0.1123 -1.0676 -1.5509
  394MOL0     H53186   6.706   1.361   6.512 -0.5324  0.5413 -0.6055
  394MOL0     H53187   7.608   1.019   6.285  1.4059  0.6026  0.9207
  394MOL0     H53188   7.814   1.012   6.235 -1.8228  0.9679  1.0318
  394MOL0     H53189   7.934   0.918   6.306  0.7870  2.2641 -3.3760
  394MOL0     H53190   7.836   0.836   6.193  0.5901 -2.0074  2.2603
  395MOL0     O53191   9.861  11.279   2.568 -0.8263 -0.3540 -0.1714
  395MOL0     C53192   9.778  11.280   2.479  0.1917  0.0043  0.1734
  395MOL0     O53193   9.811  11.285   2.342 -0.1310  0.1671 -0.4278
  395MOL0     C53194   9.942  11.281   2.317  0.4768 -0.5230 -0.3176
  395MOL0     C53195  10.025  11.181   2.343  0.6763 -0.1079 -0.5517
  395MOL0     C53196  10.157  11.181   2.305 -1.2235 -0.2467 -0.3536
  395MOL0     C53197  10.212  11.295   2.242  0.2519  0.3719  0.4180
  395MOL0     O53198  10.343  11.288   2.225 -0.4939  0.5795 -0.2422
  395MOL0     C53199  10.422  11.411   2.199 -1.1695 -1.7617  0.4765
  395MOL0     C53200  10.562  11.394   2.254  0.3816 -0.0123 -0.0920
  395MOL0     C53201  10.642  11.287   2.184 -0.2279 -0.2237  0.3905
  395MOL0     C53202  10.762  11.255   2.278  0.3718  0.6287  0.5630
  395MOL0     C53203  10.869  11.198   2.190 -0.5332  0.0622  0.4299
  395MOL0     C53204  11.001  11.170   2.264 -0.0433  0.0771 -0.1504
  395MOL0     C53205  11.097  11.100   2.178 -0.7682  0.1148  0.5499
  395MOL0     C53206  11.237  11.091   2.241  0.6815 -0.0310  0.0410
  395MOL0     N53207  11.351  11.094   2.153 -0.4922  0.2665 -0.1521
  395MOL0     C53208  11.466  11.025   2.182  0.1253 -0.2896 -0.2851
  395MOL0     C53209  11.537  11.041   2.061  0.4362 -0.1281 -0.1440
  395MOL0     C53210  11.676  10.980   2.035  0.4685  0.9359 -0.2391
  395MOL0     C53211  11.787  11.035   2.120  0.1871  0.4812 -0.5259
  395MOL0     C53212  11.913  10.945   2.098 -0.1582 -0.4292  0.9961
  395MOL0     C53213  12.048  10.988   2.155 -0.3165 -0.0879 -1.1002
  395MOL0     O53214  12.085  11.108   2.090  0.3816 -0.2572  0.0139
  395MOL0     C53215  12.218  11.133   2.106 -0.9685  0.1773  0.6638
  395MOL0     C53216  12.285  11.196   1.999  0.9018  0.1430  1.2753
  395MOL0     C53217  12.422  11.218   1.995  0.0512  0.4219  0.5278
  395MOL0     C53218  12.497  11.197   2.112 -0.5522 -0.0578 -0.2076
  395MOL0     C53219  12.646  11.191   2.101  0.0315  0.5552  0.8053
  395MOL0     O53220  12.706  11.225   1.981 -0.2866 -0.6060 -0.3267
  395MOL0     C53221  12.838  11.251   1.989  0.5098 -0.5437  0.6310
  395MOL0     C53222  12.926  11.147   2.010 -0.3970 -0.3740 -0.1485
  395MOL0     C53223  13.062  11.168   2.012  0.6954  0.1550 -0.6062
  395MOL0     C53224  13.122  11.281   1.971  0.0094  0.3750  0.5818
  395MOL0     O53225  13.260  11.281   1.979  0.2299 -0.4689 -0.5317
  395MOL0     C53226  13.330  11.402   2.015  0.6332  0.0377 -0.2011
  395MOL0     C53227  13.294  11.478   2.147 -0.1727  0.0043 -0.0395
  395MOL0     C53228  13.373  11.597   2.181 -0.5275  0.1291 -0.2879
  395MOL0     C53229  13.355  11.641   2.326 -0.7465  0.3438  0.1731
  395MOL0     C53230  13.438  11.766   2.350  0.3186 -0.1315 -0.4670
  395MOL0     C53231  13.444  11.796   2.502  1.0547 -0.0342  0.3086
  395MOL0     C53232  13.506  11.932   2.547 -0.2760  0.4651  0.5139
  395MOL0     C53233  13.636  11.968   2.476  0.2146  0.4854  0.6275
  395MOL0    Cl53234  13.763  12.056   2.570 -0.3137 -0.2552  0.3039
  395MOL0     C53235  13.039  11.386   1.942  0.1424 -0.3591  0.5454
  395MOL0     C53236  12.900  11.376   1.954  0.5849 -0.5325 -0.1635
  395MOL0     O53237  12.704  11.160   2.202 -0.8832 -0.1000 -0.3334
  395MOL0     C53238  12.430  11.149   2.225  0.0511 -0.6585  0.5352
  395MOL0     C53239  12.293  11.104   2.220  0.2916  0.0722 -0.1292
  395MOL0     N53240  11.482  11.137   1.981 -0.9722  0.0116 -0.2895
  395MOL0     N53241  11.360  11.155   2.033  0.1847  0.3321  0.4681
  395MOL0     C53242  10.123  11.395   2.215  0.3594 -0.8842  0.0064
  395MOL0     C53243   9.988  11.398   2.248 -0.2372 -0.0075 -0.1480
  395MOL0     C53244   9.627  11.267   2.509 -0.2007 -0.1427  0.2860
  395MOL0     C53245   9.539  11.232   2.401 -0.6471 -1.3026 -0.2364
  395MOL0     C53246   9.408  11.206   2.431 -0.3551  0.4970  0.2443
  395MOL0     C53247   9.363  11.198   2.565  0.6027  1.0340  0.0026
  395MOL0     O53248   9.230  11.171   2.577  0.5950  0.5718 -0.6039
  395MOL0     C53249   9.160  11.182   2.700 -0.2296  0.4339 -0.4098
  395MOL0     C53250   9.124  11.324   2.740  0.4287  0.5385 -0.1581
  395MOL0     C53251   9.016  11.385   2.646 -0.7805  0.2791 -0.1854
  395MOL0     C53252   8.880  11.373   2.719  1.1868  0.6413  0.6962
  395MOL0     C53253   8.771  11.392   2.628  0.2154  0.1018 -0.1369
  395MOL0     C53254   8.661  11.403   2.579  0.1761  0.2008  0.6205
  395MOL0     C53255   9.444  11.237   2.675 -0.5902 -0.3579  0.6968
  395MOL0     C53256   9.578  11.274   2.644  1.1128 -0.1407 -0.3642
  395MOL0     C53257   9.656  11.310   2.768  0.4083 -0.4260  0.5197
  395MOL0     H53258   9.987  11.085   2.376 -1.2646  0.4900 -0.9741
  395MOL0     H53259  10.211  11.088   2.319 -5.2451 -2.6208  0.9395
  395MOL0     H53260  10.424  11.432   2.091 -0.8223 -3.7469  0.0658
  395MOL0     H53261  10.370  11.496   2.245  0.5154 -0.5251  0.2083
  395MOL0     H53262  10.558  11.368   2.360  0.0090 -3.4852 -0.8236
  395MOL0     H53263  10.620  11.486   2.256 -2.0168  1.5723  1.6970
  395MOL0     H53264  10.671  11.342   2.093 -0.7187  1.2418  1.0925
  395MOL0     H53265  10.589  11.192   2.170  0.6339 -1.0200  2.2428
  395MOL0     H53266  10.802  11.344   2.328 -3.1803  3.3158 -1.0041
  395MOL0     H53267  10.737  11.184   2.358 -1.0864 -0.6141 -0.9349
  395MOL0     H53268  10.821  11.115   2.137 -2.1269  1.8878 -1.1334
  395MOL0     H53269  10.892  11.269   2.110 -3.0943  0.9131  0.3351
  395MOL0     H53270  11.037  11.268   2.294 -1.4527  0.3721  0.6959
  395MOL0     H53271  10.981  11.117   2.358 -1.7300  2.6929  1.0881
  395MOL0     H53272  11.102  11.149   2.081  2.3038 -2.8832 -1.0188
  395MOL0     H53273  11.053  11.001   2.162 -0.8793  0.1306  0.7543
  395MOL0     H53274  11.254  11.177   2.307  0.5379  2.5862 -3.0719
  395MOL0     H53275  11.239  11.001   2.303 -2.7236 -2.5228 -3.0478
  395MOL0     H53276  11.490  10.960   2.265  2.8700  2.4467  1.3070
  395MOL0     H53277  11.674  10.871   2.042 -2.2694  1.0353  4.1843
  395MOL0     H53278  11.691  10.993   1.927  2.0758  1.4571  0.0305
  395MOL0     H53279  11.796  11.141   2.096 -3.1804  1.1056  0.5108
  395MOL0     H53280  11.763  11.031   2.226 -0.7452 -2.1533 -0.7510
  395MOL0     H53281  11.930  10.939   1.990 -0.4711  1.1177  0.8321
  395MOL0     H53282  11.897  10.842   2.131 -2.1298 -0.2392  0.7865
  395MOL0     H53283  12.120  10.912   2.125  0.6668 -0.3679  1.6655
  395MOL0     H53284  12.051  10.995   2.265  0.1506  1.3387 -1.1806
  395MOL0     H53285  12.223  11.227   1.916  0.8993 -2.7778  0.0413
  395MOL0     H53286  12.464  11.266   1.906 -3.1164 -1.9550 -2.5246
  395MOL0     H53287  12.901  11.045   2.038  1.1968 -0.3050  1.7369
  395MOL0     H53288  13.119  11.079   2.038 -2.2027 -1.6374  0.1374
  395MOL0     H53289  13.438  11.380   2.017  0.7410  0.2635  3.9745
  395MOL0     H53290  13.312  11.472   1.933  0.7772  1.2828  0.8154
  395MOL0     H53291  13.188  11.504   2.155 -0.2206  0.3876 -1.5048
  395MOL0     H53292  13.318  11.400   2.220  0.2666 -2.7661 -2.9096
  395MOL0     H53293  13.479  11.577   2.160 -0.1758  1.0499  0.5578
  395MOL0     H53294  13.345  11.674   2.108 -3.6801 -1.4916 -0.9674
  395MOL0     H53295  13.379  11.561   2.397 -2.4639 -1.2100 -0.9003
  395MOL0     H53296  13.249  11.652   2.350 -1.1713 -1.8380 -0.4515
  395MOL0     H53297  13.375  11.847   2.313  0.2709  1.5942  2.9867
  395MOL0     H53298  13.533  11.768   2.295  0.4378  2.8229 -0.3309
  395MOL0     H53299  13.350  11.814   2.554  2.5039  4.3156  1.8914
  395MOL0     H53300  13.502  11.718   2.551  0.6278 -0.2829  0.4243
  395MOL0     H53301  13.521  11.953   2.654 -2.9140  4.4280  0.3162
  395MOL0     H53302  13.435  12.005   2.506 -3.0983 -2.6655 -0.6603
  395MOL0     H53303  13.683  11.879   2.433 -0.5301  1.2334 -1.9739
  395MOL0     H53304  13.602  12.028   2.391 -2.9679 -2.6081 -0.5605
  395MOL0     H53305  13.087  11.476   1.906  1.8891 -1.4346  0.0218
  395MOL0     H53306  12.836  11.462   1.938  2.1513  0.8298  0.6654
  395MOL0     H53307  12.491  11.114   2.308 -0.0324 -2.3159 -0.0508
  395MOL0     H53308  12.243  11.075   2.313 -1.3951  1.3450 -0.5843
  395MOL0     H53309  10.156  11.482   2.159  0.1885 -0.0648  1.1464
  395MOL0     H53310   9.920  11.480   2.230  1.3450  1.8733  1.8670
  395MOL0     H53311   9.575  11.238   2.299  0.2800  3.9661  0.1304
  395MOL0     H53312   9.339  11.185   2.350  1.7795 -2.5490 -0.9523
  395MOL0     H53313   9.220  11.134   2.777  1.5647  0.1313 -1.9324
  395MOL0     H53314   9.067  11.125   2.686  0.4275 -0.2519 -2.2765
  395MOL0     H53315   9.214  11.386   2.755  0.7582 -0.2175  1.1288
  395MOL0     H53316   9.086  11.309   2.841 -1.9181 -2.4416 -1.3083
  395MOL0     H53317   9.014  11.330   2.551 -1.3785 -1.5375  0.8214
  395MOL0     H53318   9.039  11.491   2.632  0.0515  0.2420  0.7508
  395MOL0     H53319   8.879  11.270   2.755 -2.6323 -0.4004 -1.8689
  395MOL0     H53320   8.878  11.452   2.795 -3.7131  1.9454 -0.4336
  395MOL0     H53321   8.567  11.409   2.527 -1.1710 -1.5017  2.6720
  395MOL0     H53322   9.421  11.219   2.780  2.1113 -0.8274  1.2869
  395MOL0     H53323   9.708  11.220   2.801  4.5004  1.0509 -1.1854
  395MOL0     H53324   9.721  11.398   2.762 -0.7616  0.4889  0.7384
  395MOL0     H53325   9.583  11.331   2.847  0.2001 -0.1771  0.2667
  396MOL0     O53326   4.422   6.805   3.803 -0.5538 -0.4320 -0.6011
  396MOL0     C53327   4.379   6.887   3.880  1.2341 -0.1779  0.6099
  396MOL0     O53328   4.449   6.979   3.967  0.3613  0.1393 -0.0830
  396MOL0     C53329   4.584   6.981   3.943 -0.4215  0.2320 -0.1679
  396MOL0     C53330   4.673   6.894   4.006 -0.5032 -0.3427  0.1041
  396MOL0     C53331   4.810   6.903   3.977  0.5507  0.2065 -0.5306
  396MOL0     C53332   4.863   6.992   3.893 -0.8708  0.1260 -0.4932
  396MOL0     O53333   4.996   6.984   3.858 -0.0841  0.4234  0.0275
  396MOL0     C53334   5.026   6.975   3.719  0.7365  0.2077  0.3330
  396MOL0     C53335   5.181   6.958   3.714 -0.2499 -0.4040 -0.6749
  396MOL0     C53336   5.230   6.826   3.773 -0.6698 -0.1634 -0.0311
  396MOL0     C53337   5.300   6.846   3.913  0.8417 -0.0521  0.2517
  396MOL0     C53338   5.353   6.700   3.962 -0.6913  1.3463  0.2586
  396MOL0     C53339   5.482   6.655   3.894  0.1022  0.0783  0.2172
  396MOL0     C53340   5.611   6.715   3.949 -0.2395  0.1060 -0.2257
  396MOL0     C53341   5.753   6.661   3.912  1.0506  0.4924  0.4689
  396MOL0     N53342   5.851   6.763   3.953 -0.8825 -0.8104  0.0907
  396MOL0     C53343   5.848   6.828   4.072 -0.1375  0.4768 -1.0543
  396MOL0     C53344   5.979   6.867   4.101 -0.4563 -1.0460 -0.1618
  396MOL0     C53345   6.040   6.944   4.217 -0.5699 -0.2758 -0.6353
  396MOL0     C53346   5.972   6.912   4.358  0.2634  0.0459 -0.2293
  396MOL0     C53347   6.060   6.828   4.457 -0.3346  0.1703  0.6169
  396MOL0     C53348   6.200   6.898   4.475  0.5881  0.0073 -0.8715
  396MOL0     O53349   6.243   6.846   4.598 -0.5182  0.0739  0.5388
  396MOL0     C53350   6.379   6.860   4.618 -0.5325 -0.5676 -0.4393
  396MOL0     C53351   6.478   6.939   4.555  0.1270 -0.0499  0.6468
  396MOL0     C53352   6.612   6.941   4.597  0.5732  0.6879 -0.1840
  396MOL0     C53353   6.648   6.867   4.709 -0.3170 -0.5296 -0.0542
  396MOL0     C53354   6.791   6.847   4.744  0.2359 -0.8293 -0.1692
  396MOL0     O53355   6.820   6.723   4.811  0.2896 -0.0733 -0.0338
  396MOL0     C53356   6.945   6.730   4.866 -0.2348 -0.5905  0.1295
  396MOL0     C53357   6.963   6.753   5.005 -0.4047  0.2613  0.0443
  396MOL0     C53358   7.094   6.776   5.059  0.8896 -0.2988 -0.1564
  396MOL0     C53359   7.205   6.753   4.984 -0.8032  0.0865 -0.0809
  396MOL0     O53360   7.344   6.762   5.022 -0.2490  0.7233 -0.7350
  396MOL0     C53361   7.384   6.745   5.158 -0.9747  0.4515 -0.0060
  396MOL0     C53362   7.521   6.814   5.179 -0.0131  0.0096 -0.4887
  396MOL0     C53363   7.549   6.805   5.332  0.3214  0.4340  0.1457
  396MOL0     C53364   7.698   6.827   5.347 -0.7920  0.5525 -0.2378
  396MOL0     C53365   7.731   6.806   5.491 -0.2395  0.4907 -0.6908
  396MOL0     C53366   7.887   6.825   5.496  0.6212  0.0345 -0.0057
  396MOL0     C53367   7.934   6.786   5.641  0.2139  0.9745 -0.1214
  396MOL0     C53368   8.090   6.793   5.643  0.4765  0.5903  0.7135
  396MOL0    Cl53369   8.141   6.953   5.571 -0.0773  0.5705  0.2867
  396MOL0     C53370   7.189   6.724   4.845 -0.1305 -0.9363 -0.2178
  396MOL0     C53371   7.063   6.718   4.793  0.1637 -0.0382  0.6261
  396MOL0     O53372   6.868   6.947   4.725 -0.3203  0.2026  0.5465
  396MOL0     C53373   6.548   6.789   4.776 -0.0416 -0.3030  0.2061
  396MOL0     C53374   6.419   6.776   4.731  0.3193 -1.2213 -0.4982
  396MOL0     N53375   6.053   6.828   3.994 -0.5969  0.2144 -0.3864
  396MOL0     N53376   5.978   6.771   3.909 -0.6361  0.3892  0.0746
  396MOL0     C53377   4.776   7.075   3.825  0.6790 -0.0248 -0.0639
  396MOL0     C53378   4.640   7.068   3.846  0.7472 -0.8017  0.2400
  396MOL0     C53379   4.226   6.899   3.901  0.2866 -0.6033  0.2141
  396MOL0     C53380   4.177   6.962   4.023  0.2756 -0.6070 -0.6223
  396MOL0     C53381   4.037   6.976   4.051  0.3114 -0.4261 -0.5764
  396MOL0     C53382   3.942   6.914   3.964 -0.8954 -0.6571 -0.5417
  396MOL0     O53383   3.807   6.931   3.979  0.1239 -0.5234  0.3670
  396MOL0     C53384   3.753   6.870   4.100  0.2922 -0.5090  0.5230
  396MOL0     C53385   3.647   6.765   4.048  0.0352  0.0406  0.9056
  396MOL0     C53386   3.511   6.814   4.010  0.5195 -0.5250 -0.2779
  396MOL0     C53387   3.436   6.713   3.937 -0.6325  0.9345 -0.5169
  396MOL0     C53388   3.298   6.748   3.924  0.1217 -1.0773  0.1594
  396MOL0     C53389   3.182   6.785   3.922  0.1315  0.6272 -0.6142
  396MOL0     C53390   3.998   6.848   3.859 -0.3977  0.5112  0.0446
  396MOL0     C53391   4.132   6.841   3.816  0.8776  0.9681 -0.1323
  396MOL0     C53392   4.159   6.756   3.698  0.1561 -0.8781  0.0598
  396MOL0     H53393   4.630   6.820   4.072 -1.3563  1.3433  1.5414
  396MOL0     H53394   4.873   6.831   4.027 -1.6254 -0.9678  0.6788
  396MOL0     H53395   4.967   6.893   3.677  0.2506  0.7990 -0.1487
  396MOL0     H53396   5.007   7.065   3.660  1.9486 -0.8445 -1.7647
  396MOL0     H53397   5.232   7.043   3.760  1.0093 -2.2250  1.4917
  396MOL0     H53398   5.218   6.959   3.611  0.1657  2.3700 -0.5611
  396MOL0     H53399   5.291   6.765   3.705 -0.0395  1.9331 -1.4338
  396MOL0     H53400   5.141   6.764   3.781  0.5988 -1.8884  1.6934
  396MOL0     H53401   5.377   6.922   3.929  1.7919 -1.3604  2.2005
  396MOL0     H53402   5.220   6.884   3.977  2.4550  2.8603  0.7108
  396MOL0     H53403   5.363   6.705   4.070  1.9646  0.6556  0.1149
  396MOL0     H53404   5.274   6.628   3.938 -1.0661  1.6353  0.6190
  396MOL0     H53405   5.495   6.546   3.896  0.3249  0.0349 -1.6641
  396MOL0     H53406   5.477   6.679   3.788 -0.5888  0.5797  0.3569
  396MOL0     H53407   5.601   6.707   4.058  2.4245  1.6838  0.2063
  396MOL0     H53408   5.608   6.820   3.918  3.3225 -0.4023 -2.8681
  396MOL0     H53409   5.785   6.571   3.965  1.3996  1.1926  1.5047
  396MOL0     H53410   5.769   6.655   3.804  0.5756 -1.7562  0.4904
  396MOL0     H53411   5.757   6.841   4.130 -1.0573 -0.2250 -2.2849
  396MOL0     H53412   6.146   6.918   4.208 -0.6330 -0.1716 -1.7098
  396MOL0     H53413   6.029   7.052   4.207  0.4197 -0.3361 -2.7919
  396MOL0     H53414   5.939   7.010   4.396 -0.1498  0.3916 -1.4235
  396MOL0     H53415   5.880   6.859   4.332  0.3617  0.4977 -1.5922
  396MOL0     H53416   6.077   6.726   4.422  1.7658  0.3032  1.1196
  396MOL0     H53417   5.999   6.823   4.547 -1.5019 -0.1807 -0.1706
  396MOL0     H53418   6.199   7.007   4.491 -0.2237  0.5962 -4.2177
  396MOL0     H53419   6.270   6.879   4.394 -0.1396 -0.8226 -1.3213
  396MOL0     H53420   6.446   6.995   4.468 -2.0603  0.8910  1.9894
  396MOL0     H53421   6.694   6.995   4.550  1.2904 -2.4497 -2.9647
  396MOL0     H53422   6.871   6.751   5.062  1.1202 -4.8036  2.9621
  396MOL0     H53423   7.103   6.793   5.166  2.0703  3.8169 -0.7730
  396MOL0     H53424   7.314   6.786   5.230 -1.5846 -0.6771  0.0629
  396MOL0     H53425   7.390   6.639   5.186  0.9496  0.1634 -1.2691
  396MOL0     H53426   7.593   6.755   5.122 -2.1511 -2.4782 -0.8384
  396MOL0     H53427   7.524   6.915   5.139 -0.7548  0.7216  1.1504
  396MOL0     H53428   7.507   6.888   5.389 -1.6174  0.1987 -0.8352
  396MOL0     H53429   7.500   6.722   5.385  0.5046 -1.2120 -2.0970
  396MOL0     H53430   7.725   6.925   5.308  1.6303 -0.3457 -1.0288
  396MOL0     H53431   7.751   6.750   5.290  0.8268 -0.8847  2.9569
  396MOL0     H53432   7.704   6.706   5.526  0.2606  0.0765 -1.4471
  396MOL0     H53433   7.684   6.878   5.558 -1.6477 -0.9309 -0.1061
  396MOL0     H53434   7.927   6.755   5.422 -2.5174  0.3064 -2.1520
  396MOL0     H53435   7.905   6.930   5.474 -1.9179  0.2878 -1.2443
  396MOL0     H53436   7.902   6.682   5.654  0.4058  0.9662  0.2968
  396MOL0     H53437   7.882   6.867   5.694 -0.3345 -0.3420  1.4356
  396MOL0     H53438   8.134   6.788   5.743 -0.3094 -1.5830  1.0049
  396MOL0     H53439   8.136   6.723   5.573 -1.7057  2.2345 -2.6372
  396MOL0     H53440   7.275   6.708   4.780  0.0916  0.8220 -0.4233
  396MOL0     H53441   7.063   6.730   4.686 -3.2664  1.0361  0.6283
  396MOL0     H53442   6.584   6.743   4.867  0.5163  3.7009  2.2509
  396MOL0     H53443   6.348   6.707   4.774 -0.1992 -0.0774  0.5338
  396MOL0     H53444   4.825   7.153   3.767  1.2121  0.9176  1.5861
  396MOL0     H53445   4.571   7.144   3.809 -0.7109 -1.1518  2.1039
  396MOL0     H53446   4.236   7.020   4.093 -0.7284 -0.9817  0.5712
  396MOL0     H53447   4.001   7.029   4.139  2.0954  1.2074 -0.7543
  396MOL0     H53448   3.706   6.945   4.164 -0.2043 -1.1042  0.8769
  396MOL0     H53449   3.826   6.827   4.169  1.8450  0.2960 -0.5609
  396MOL0     H53450   3.633   6.690   4.127 -3.1825 -0.3114  0.1326
  396MOL0     H53451   3.695   6.707   3.969 -0.0006  0.4628  0.5740
  396MOL0     H53452   3.516   6.907   3.952  2.3038  0.6386  1.5676
  396MOL0     H53453   3.467   6.841   4.107  1.1968 -1.6983  0.3749
  396MOL0     H53454   3.481   6.713   3.837 -2.1075  0.2384 -1.2056
  396MOL0     H53455   3.430   6.618   3.990  0.4977  1.2792  0.2741
  396MOL0     H53456   3.079   6.805   3.903 -0.3558 -0.8467  0.2769
  396MOL0     H53457   3.929   6.818   3.780  1.6544 -0.2548 -1.5576
  396MOL0     H53458   4.187   6.819   3.614  1.1686  2.4642  2.6751
  396MOL0     H53459   4.238   6.685   3.723 -1.9923 -2.6571  2.4554
  396MOL0     H53460   4.075   6.693   3.666 -0.8915  0.4712  0.0528
  397MOL0     O53461   0.684  10.572   3.515 -0.1639 -0.2437 -0.1358
  397MOL0     C53462   0.732  10.613   3.408 -0.1903  0.3884 -0.2912
  397MOL0     O53463   0.656  10.657   3.304 -0.2954  0.1715 -0.1675
  397MOL0     C53464   0.516  10.647   3.325  0.5060  0.2851  0.5737
  397MOL0     C53465   0.443  10.761   3.334 -0.0393  0.6519 -1.2304
  397MOL0     C53466   0.300  10.755   3.345 -0.7123  0.0493  0.5857
  397MOL0     C53467   0.235  10.630   3.339  0.5269  0.3096 -0.5334
  397MOL0     O53468   0.101  10.636   3.334  0.0200 -0.0928 -0.3905
  397MOL0     C53469   0.028  10.516   3.344  0.2254  0.4383  0.4501
  397MOL0     C53470  -0.118  10.543   3.367 -0.1461 -0.4750  0.9650
  397MOL0     C53471  -0.206  10.506   3.240 -0.1344  0.0131  0.0168
  397MOL0     C53472  -0.359  10.525   3.268  0.1495  0.8878  0.1043
  397MOL0     C53473  -0.419  10.430   3.373 -0.4018  1.0230  1.5318
  397MOL0     C53474  -0.571  10.457   3.383 -0.0076  0.0547 -0.2022
  397MOL0     C53475  -0.656  10.392   3.489  0.9045  0.5088 -0.2280
  397MOL0     C53476  -0.602  10.401   3.625  0.9572  0.4954 -0.7154
  397MOL0     N53477  -0.602  10.528   3.699 -0.2704 -0.8372  0.9700
  397MOL0     C53478  -0.492  10.596   3.750 -1.0304  0.1165  0.6086
  397MOL0     C53479  -0.533  10.716   3.793  0.9725  0.0329 -0.0537
  397MOL0     C53480  -0.436  10.830   3.832 -1.0081  0.0170  0.0844
  397MOL0     C53481  -0.305  10.783   3.910 -0.0526 -0.7795  0.3610
  397MOL0     C53482  -0.184  10.777   3.815 -0.1316 -0.3132  0.0819
  397MOL0     C53483  -0.067  10.739   3.895 -0.6358 -0.9287 -0.7837
  397MOL0     O53484   0.054  10.747   3.811  0.1681  0.9832 -0.2510
  397MOL0     C53485   0.178  10.710   3.853 -0.1058  0.2262  0.5659
  397MOL0     C53486   0.216  10.661   3.976  0.2162 -0.1572  0.4736
  397MOL0     C53487   0.350  10.632   3.998 -0.4555 -0.3495 -0.0239
  397MOL0     C53488   0.454  10.657   3.912 -0.2529 -0.1880  0.5735
  397MOL0     C53489   0.593  10.629   3.931 -0.6510 -0.2490 -0.4070
  397MOL0     O53490   0.681  10.692   3.835  0.0025 -0.5061  0.4091
  397MOL0     C53491   0.814  10.672   3.843  0.6744 -1.0449  0.1923
  397MOL0     C53492   0.875  10.550   3.873  0.1340 -0.2147 -0.4722
  397MOL0     C53493   1.012  10.526   3.862 -0.3913 -0.2129  0.1826
  397MOL0     C53494   1.100  10.640   3.831 -0.5563  0.2812 -0.7784
  397MOL0     O53495   1.234  10.621   3.817 -0.4890 -0.4091  0.2690
  397MOL0     C53496   1.313  10.738   3.834 -0.1373  0.1873  0.0307
  397MOL0     C53497   1.455  10.693   3.843  0.0702 -0.2208 -0.8601
  397MOL0     C53498   1.563  10.802   3.824  0.2575  0.4701  0.2863
  397MOL0     C53499   1.709  10.751   3.819 -0.3786 -0.8568  0.8221
  397MOL0     C53500   1.784  10.828   3.705  0.4755 -0.0751 -0.8592
  397MOL0     C53501   1.938  10.803   3.720  0.7935  0.1263  1.6674
  397MOL0     C53502   1.978  10.688   3.626 -0.3230 -0.6675  0.2544
  397MOL0     C53503   2.133  10.683   3.642 -0.0583 -0.0971  0.0037
  397MOL0    Cl53504   2.204  10.568   3.524  0.3865 -0.3191 -0.6836
  397MOL0     C53505   1.030  10.762   3.796  0.3140  0.0389 -0.2048
  397MOL0     C53506   0.892  10.774   3.802  0.7285 -0.4359 -0.2767
  397MOL0     O53507   0.626  10.574   4.037 -0.0181 -0.2158  0.1547
  397MOL0     C53508   0.412  10.717   3.788  0.7425 -0.5922  0.1294
  397MOL0     C53509   0.272  10.743   3.763 -0.8799 -0.6673 -0.7547
  397MOL0     N53510  -0.670  10.725   3.755  0.0728  0.2637  0.8098
  397MOL0     N53511  -0.713  10.612   3.711 -0.0192 -0.5207 -0.8238
  397MOL0     C53512   0.313  10.514   3.320 -0.0928 -0.0730 -0.9274
  397MOL0     C53513   0.446  10.518   3.309 -0.5026 -0.1523  0.0054
  397MOL0     C53514   0.882  10.603   3.387  0.8388 -0.1878  1.2560
  397MOL0     C53515   0.963  10.555   3.489 -0.2135 -0.1527  0.7466
  397MOL0     C53516   1.096  10.526   3.467  0.1736 -1.0236 -0.4055
  397MOL0     C53517   1.162  10.550   3.348 -0.1449  0.1462 -0.8301
  397MOL0     O53518   1.297  10.534   3.319 -0.3893 -0.3237 -0.5110
  397MOL0     C53519   1.378  10.457   3.413  0.2627 -0.3158  0.2412
  397MOL0     C53520   1.517  10.449   3.352 -0.1240  0.2186 -0.2121
  397MOL0     C53521   1.621  10.561   3.397  0.3527  0.0324  0.2812
  397MOL0     C53522   1.731  10.582   3.295  0.2224 -0.9060 -0.0258
  397MOL0     C53523   1.695  10.627   3.162  0.0006 -0.0256 -0.4969
  397MOL0     C53524   1.687  10.646   3.049  0.2497 -0.9213  0.0186
  397MOL0     C53525   1.087  10.613   3.246  0.2131 -0.3783  0.4837
  397MOL0     C53526   0.950  10.639   3.260 -0.0391  0.2647  0.3163
  397MOL0     C53527   0.886  10.698   3.136 -0.1315  0.1161  0.1390
  397MOL0     H53528   0.489  10.858   3.349  0.4725  0.1480  0.8326
  397MOL0     H53529   0.243  10.848   3.348  0.6498  1.1287 -2.6544
  397MOL0     H53530   0.033  10.457   3.252 -0.7550  2.1821 -0.7727
  397MOL0     H53531   0.070  10.464   3.430  2.5622 -0.0567 -0.8908
  397MOL0     H53532  -0.139  10.649   3.384  2.1277  0.1314  0.2764
  397MOL0     H53533  -0.146  10.485   3.456 -2.1130  0.0500  0.7534
  397MOL0     H53534  -0.199  10.400   3.215 -1.4292  0.1922 -1.3066
  397MOL0     H53535  -0.174  10.561   3.150 -2.7082 -2.2306 -2.4809
  397MOL0     H53536  -0.381  10.627   3.303 -2.8203  0.3819 -0.0709
  397MOL0     H53537  -0.415  10.505   3.176  1.8179 -0.1890 -0.7249
  397MOL0     H53538  -0.407  10.326   3.342 -0.6203  0.6046  2.7973
  397MOL0     H53539  -0.360  10.439   3.464  2.3024 -3.1915  0.4738
  397MOL0     H53540  -0.581  10.566   3.390 -1.7787 -0.1500  1.3572
  397MOL0     H53541  -0.625  10.430   3.292 -0.9078 -3.4969  1.2292
  397MOL0     H53542  -0.667  10.287   3.460 -1.0718  0.8309 -0.7794
  397MOL0     H53543  -0.755  10.437   3.492 -0.1126 -1.6423 -0.0496
  397MOL0     H53544  -0.650  10.335   3.698  1.2035  0.1410 -0.8674
  397MOL0     H53545  -0.504  10.352   3.625 -1.2086 -4.4225  0.3876
  397MOL0     H53546  -0.389  10.565   3.736 -0.9353 -0.0379  1.5981
  397MOL0     H53547  -0.415  10.886   3.741 -0.0168 -0.5643 -0.0616
  397MOL0     H53548  -0.490  10.907   3.889  1.8626  2.3601 -0.1180
  397MOL0     H53549  -0.291  10.851   3.994 -1.1895 -0.0934  0.0185
  397MOL0     H53550  -0.328  10.690   3.963 -0.5965 -0.7036  0.2682
  397MOL0     H53551  -0.178  10.877   3.771 -0.8944  0.9681  2.6494
  397MOL0     H53552  -0.196  10.701   3.738 -0.0108 -1.3392  1.0515
  397MOL0     H53553  -0.081  10.645   3.949 -2.7913 -0.8321 -1.0791
  397MOL0     H53554  -0.052  10.814   3.974  3.4442 -3.8493  1.6015
  397MOL0     H53555   0.152  10.644   4.062  0.0265  0.8616  0.5491
  397MOL0     H53556   0.382  10.595   4.095  2.8971  0.4394 -0.7004
  397MOL0     H53557   0.816  10.461   3.894 -1.3027 -0.2394 -3.9260
  397MOL0     H53558   1.065  10.432   3.879  0.9899  0.6811  1.0237
  397MOL0     H53559   1.307  10.808   3.751  1.9642 -0.3487 -0.6320
  397MOL0     H53560   1.296  10.800   3.923 -1.7845  0.6888 -0.5991
  397MOL0     H53561   1.474  10.651   3.942  1.4855  0.8046 -0.6663
  397MOL0     H53562   1.462  10.604   3.779  1.1347 -1.1139  0.4557
  397MOL0     H53563   1.541  10.842   3.725  2.6378  2.5014  0.4914
  397MOL0     H53564   1.551  10.884   3.895 -0.4316  0.2171  0.4670
  397MOL0     H53565   1.714  10.643   3.806  2.2158 -0.5978 -1.4147
  397MOL0     H53566   1.761  10.781   3.910 -0.0748  1.5639 -0.0586
  397MOL0     H53567   1.769  10.935   3.723  4.0468  0.3241  0.5369
  397MOL0     H53568   1.752  10.811   3.602 -2.5732  2.4247 -0.4592
  397MOL0     H53569   1.985  10.900   3.699  0.7564 -0.2436 -0.3236
  397MOL0     H53570   1.956  10.769   3.823  0.0965 -0.5698  1.5612
  397MOL0     H53571   1.948  10.700   3.522  3.0490  1.1581 -0.6569
  397MOL0     H53572   1.927  10.598   3.660 -1.4632 -0.1119  0.0636
  397MOL0     H53573   2.162  10.786   3.619 -2.4272  0.8711  1.0300
  397MOL0     H53574   2.164  10.660   3.745 -2.2816  2.4458  1.3914
  397MOL0     H53575   1.091  10.846   3.763 -1.7907  1.4291 -0.7049
  397MOL0     H53576   0.849  10.869   3.773  1.6053 -0.4727 -1.7950
  397MOL0     H53577   0.476  10.758   3.710 -1.4994  1.1253 -0.9086
  397MOL0     H53578   0.252  10.800   3.673  0.6204  1.0940 -0.0522
  397MOL0     H53579   0.279  10.411   3.315 -1.5146  0.4231 -2.2500
  397MOL0     H53580   0.510  10.432   3.290  2.4249  1.7211  0.6445
  397MOL0     H53581   0.917  10.531   3.584 -0.7410 -0.9726  0.2993
  397MOL0     H53582   1.157  10.491   3.550 -1.9594  0.6467  2.0591
  397MOL0     H53583   1.346  10.353   3.430 -0.7093 -0.3203 -1.4762
  397MOL0     H53584   1.381  10.499   3.514 -2.9626 -0.2368  0.3970
  397MOL0     H53585   1.516  10.443   3.243  1.7691 -0.1953 -0.2388
  397MOL0     H53586   1.559  10.352   3.382  0.3545  0.2675 -0.7186
  397MOL0     H53587   1.666  10.536   3.494 -0.9079  0.3150  0.9657
  397MOL0     H53588   1.572  10.656   3.420 -0.3437  0.8688 -3.8652
  397MOL0     H53589   1.799  10.653   3.343  0.3910 -1.4853  0.6010
  397MOL0     H53590   1.787  10.488   3.293  0.1598 -0.9346 -0.4480
  397MOL0     H53591   1.687  10.662   2.943 -0.3838 -2.6415 -0.2741
  397MOL0     H53592   1.140  10.633   3.154 -0.7704 -0.4422 -0.1047
  397MOL0     H53593   0.964  10.753   3.084  2.8606 -2.0601  2.0358
  397MOL0     H53594   0.851  10.620   3.067  2.5974 -0.3904 -0.7662
  397MOL0     H53595   0.812  10.771   3.169  0.9903  1.9470 -1.2351
  398MOL0     O53596   3.940   9.119   9.884 -0.0332 -0.4663 -0.3643
  398MOL0     C53597   3.942   9.080  10.003  0.0826 -0.0438  0.2215
  398MOL0     O53598   3.838   9.072  10.076 -0.0746 -0.2763 -0.4382
  398MOL0     C53599   3.707   9.098  10.031  0.0153  0.5645 -1.1659
  398MOL0     C53600   3.618   8.997  10.068 -0.3727  0.0236  1.2731
  398MOL0     C53601   3.480   9.008  10.042  0.3044 -0.0858  0.4567
  398MOL0     C53602   3.428   9.132   9.983 -0.5974 -0.3877  0.0876
  398MOL0     O53603   3.290   9.139   9.967 -0.6319 -0.4037 -0.3548
  398MOL0     C53604   3.226   9.265   9.987 -0.4490  0.2467 -0.5249
  398MOL0     C53605   3.074   9.260  10.000  0.5419 -0.8650 -0.1937
  398MOL0     C53606   3.048   9.165  10.125  0.6014  0.2994  1.0353
  398MOL0     C53607   2.912   9.199  10.183  0.3393 -0.0895  0.3043
  398MOL0     C53608   2.806   9.170  10.076 -0.1901 -0.7273 -0.5178
  398MOL0     C53609   2.674   9.197  10.149 -0.5395  0.2779 -0.1549
  398MOL0     C53610   2.559   9.177  10.064  0.3923  0.0855 -0.1656
  398MOL0     C53611   2.428   9.206  10.148 -0.6368 -0.1338  0.0040
  398MOL0     N53612   2.315   9.209  10.051 -0.2698  0.5546 -0.8592
  398MOL0     C53613   2.233   9.316  10.027  0.6421 -0.2120  0.4033
  398MOL0     C53614   2.150   9.269   9.932 -0.1005  1.1783  0.2068
  398MOL0     C53615   2.042   9.359   9.863  0.3045 -0.0027 -0.2678
  398MOL0     C53616   1.888   9.296   9.879 -0.3309  0.3672  0.6003
  398MOL0     C53617   1.865   9.160   9.814  0.0039  0.0616  0.9369
  398MOL0     C53618   1.905   9.177   9.668  0.0652 -0.0687 -0.3782
  398MOL0     O53619   1.847   9.065   9.595  0.1412  0.2238 -0.2099
  398MOL0     C53620   1.906   9.030   9.475  0.4069  0.0279 -0.3982
  398MOL0     C53621   1.848   8.913   9.415 -0.4483 -0.4994  0.4961
  398MOL0     C53622   1.913   8.869   9.299 -0.7666  0.6684  0.0541
  398MOL0     C53623   2.015   8.944   9.229  0.1232  0.2316 -1.0617
  398MOL0     C53624   2.098   8.891   9.117  0.9883  0.3568  0.0602
  398MOL0     O53625   2.177   8.966   9.035 -0.5521 -0.1314  0.1103
  398MOL0     C53626   2.244   8.912   8.931 -0.1630  0.1025 -0.1676
  398MOL0     C53627   2.345   8.811   8.938 -1.0364 -0.2208  0.2233
  398MOL0     C53628   2.404   8.774   8.818  0.0334  0.5379 -0.1420
  398MOL0     C53629   2.365   8.831   8.694 -0.1686 -0.3676 -1.1850
  398MOL0     O53630   2.431   8.810   8.574 -0.9205 -0.0646  0.2141
  398MOL0     C53631   2.564   8.761   8.599 -0.5173  0.8741 -0.1780
  398MOL0     C53632   2.636   8.780   8.470 -0.4572  0.3728  0.2131
  398MOL0     C53633   2.677   8.924   8.453 -0.2838  0.3669  0.3725
  398MOL0     C53634   2.719   8.944   8.302  0.3387  0.1805 -0.0072
  398MOL0     C53635   2.754   9.087   8.252 -0.8670  0.5149 -0.3457
  398MOL0     C53636   2.804   9.084   8.105 -0.2306  0.2584 -0.6709
  398MOL0     C53637   2.928   9.002   8.091 -0.6751  0.3053 -0.0548
  398MOL0     C53638   3.012   9.076   7.975 -0.3897  0.9794  0.1084
  398MOL0    Cl53639   3.156   8.962   7.935  0.5020  0.1129  0.0746
  398MOL0     C53640   2.267   8.925   8.693  0.0418  0.2289  0.8160
  398MOL0     C53641   2.204   8.964   8.812 -0.1797  0.4726 -0.2357
  398MOL0     O53642   2.085   8.767   9.099  0.3940 -0.3951 -0.1074
  398MOL0     C53643   2.051   9.060   9.293  0.0944 -0.6247  0.0848
  398MOL0     C53644   2.002   9.100   9.412 -0.1404 -0.9759  0.9074
  398MOL0     N53645   2.205   9.157   9.883 -0.2771 -0.0068  0.5872
  398MOL0     N53646   2.293   9.113   9.964 -0.3548  0.5443  0.7798
  398MOL0     C53647   3.514   9.231   9.947  0.0860 -0.4282 -0.0934
  398MOL0     C53648   3.654   9.211   9.968 -0.2733  0.1163 -0.2707
  398MOL0     C53649   4.074   9.053  10.071  0.1004 -0.6151 -0.5944
  398MOL0     C53650   4.075   8.944  10.152 -0.3043  0.0116 -0.5372
  398MOL0     C53651   4.192   8.903  10.218 -0.5333 -0.2302  0.5766
  398MOL0     C53652   4.311   8.979  10.202  0.4700 -0.6755  0.8674
  398MOL0     O53653   4.426   8.956  10.260 -0.1059 -0.0201  0.3020
  398MOL0     C53654   4.442   8.851  10.351  0.5004 -0.1437 -0.5166
  398MOL0     C53655   4.581   8.832  10.405  0.1898  0.6798 -0.2357
  398MOL0     C53656   4.662   8.722  10.330 -0.8403 -0.2254  0.0007
  398MOL0     C53657   4.805   8.710  10.387  0.3502  0.6387 -0.4044
  398MOL0     C53658   4.875   8.606  10.300 -0.7436  0.4830 -0.1261
  398MOL0     C53659   4.937   8.533  10.227  0.3903  0.9358 -0.1089
  398MOL0     C53660   4.297   9.094  10.114 -0.0115  0.5126 -0.0855
  398MOL0     C53661   4.186   9.133  10.048  0.4016  0.6143  0.3919
  398MOL0     C53662   4.203   9.254   9.959  0.1866  0.2176 -0.9666
  398MOL0     H53663   3.655   8.908  10.118  1.9179 -0.9371 -1.8343
  398MOL0     H53664   3.409   8.932  10.073 -2.5269  2.9327  1.9920
  398MOL0     H53665   3.278   9.326  10.060  2.0708  1.2313 -2.9697
  398MOL0     H53666   3.259   9.314   9.895  1.0618  0.2641  0.0074
  398MOL0     H53667   3.028   9.220   9.909 -0.5061 -0.7664  0.2831
  398MOL0     H53668   3.038   9.362  10.012  1.5196 -0.6271  0.8882
  398MOL0     H53669   3.127   9.150  10.200 -1.6721 -1.2359  3.3110
  398MOL0     H53670   3.039   9.062  10.089 -0.5269  0.4713  0.7765
  398MOL0     H53671   2.882   9.143  10.272 -3.3822  1.9387  0.5714
  398MOL0     H53672   2.906   9.304  10.213  1.0135  0.6595 -1.9762
  398MOL0     H53673   2.821   9.240   9.993  1.4992 -0.8131 -0.3180
  398MOL0     H53674   2.802   9.067  10.040 -1.7893 -0.2523 -1.8037
  398MOL0     H53675   2.668   9.127  10.234  1.0951 -1.2216 -1.1982
  398MOL0     H53676   2.685   9.301  10.183  0.2657 -0.1407  0.9576
  398MOL0     H53677   2.560   9.077  10.018  1.9898 -0.4941  1.0444
  398MOL0     H53678   2.573   9.243   9.978  2.0393 -0.9787 -0.7694
  398MOL0     H53679   2.412   9.130  10.225 -3.8493  0.4669  0.0533
  398MOL0     H53680   2.426   9.307  10.191  0.8755  0.7122 -1.7732
  398MOL0     H53681   2.226   9.413  10.074  1.6635 -1.1480  2.6157
  398MOL0     H53682   2.029   9.454   9.916 -0.9268 -1.7171  2.7710
  398MOL0     H53683   2.066   9.388   9.760 -0.7278  1.8288 -0.0390
  398MOL0     H53684   1.866   9.277   9.984  0.9045 -1.8171  0.5367
  398MOL0     H53685   1.809   9.363   9.845 -1.1401 -1.8000 -2.2444
  398MOL0     H53686   1.760   9.130   9.819  0.5098 -2.2702 -1.0477
  398MOL0     H53687   1.930   9.085   9.859 -0.8422 -2.0623 -1.1744
  398MOL0     H53688   2.013   9.169   9.678 -0.2317 -2.3129  2.5173
  398MOL0     H53689   1.873   9.270   9.621 -3.8199 -1.1943 -0.3175
  398MOL0     H53690   1.768   8.846   9.447 -0.0885 -1.0732  0.2064
  398MOL0     H53691   1.878   8.775   9.256 -0.1646  0.4873 -0.0584
  398MOL0     H53692   2.360   8.759   9.032 -1.1498 -0.2825  0.2081
  398MOL0     H53693   2.473   8.691   8.824 -0.0714  0.1989 -2.7085
  398MOL0     H53694   2.620   8.817   8.674  1.2694 -0.0805 -0.7392
  398MOL0     H53695   2.553   8.657   8.632 -0.0362  1.1121  0.7838
  398MOL0     H53696   2.724   8.716   8.456 -2.7480 -2.5476 -2.4693
  398MOL0     H53697   2.564   8.748   8.394  2.3814 -0.9241 -2.1732
  398MOL0     H53698   2.594   8.992   8.475  1.2961  2.3471  0.4321
  398MOL0     H53699   2.767   8.933   8.514  0.3284 -1.7477 -0.1287
  398MOL0     H53700   2.642   8.915   8.231  0.9880 -3.2869  0.5637
  398MOL0     H53701   2.802   8.877   8.283 -2.3194 -3.6315  0.6927
  398MOL0     H53702   2.838   9.122   8.313 -0.9028  3.0435 -1.6352
  398MOL0     H53703   2.670   9.155   8.268 -1.3143  0.3165 -1.7876
  398MOL0     H53704   2.724   9.044   8.043 -4.0748  0.9913  3.2910
  398MOL0     H53705   2.817   9.189   8.076 -3.7101  0.3480 -2.3809
  398MOL0     H53706   2.902   8.901   8.057 -0.9457  0.1984  0.4710
  398MOL0     H53707   2.991   8.989   8.179  0.4386 -2.3821 -1.1238
  398MOL0     H53708   2.942   9.085   7.891 -0.6299  1.8590  0.3934
  398MOL0     H53709   3.044   9.176   8.006 -0.6900  1.8778 -2.2765
  398MOL0     H53710   2.254   8.983   8.602  1.0327 -0.0926  0.4554
  398MOL0     H53711   2.129   9.042   8.804 -1.1355 -0.1762  1.5675
  398MOL0     H53712   2.132   9.122   9.255 -1.0809  0.8262 -0.1158
  398MOL0     H53713   2.050   9.191   9.447  0.8459 -1.4936  0.9398
  398MOL0     H53714   3.477   9.322   9.901 -0.0078 -1.2434 -1.7284
  398MOL0     H53715   3.725   9.287   9.937 -0.7424  1.4528  1.7448
  398MOL0     H53716   3.993   8.876  10.170 -0.1818 -0.0568 -0.2343
  398MOL0     H53717   4.189   8.820  10.287  2.7116 -1.7155 -0.8639
  398MOL0     H53718   4.408   8.762  10.298 -1.9453 -0.4691  1.4347
  398MOL0     H53719   4.373   8.860  10.436  2.6171  0.3974  1.2296
  398MOL0     H53720   4.572   8.793  10.507 -1.0607 -1.3025 -1.0454
  398MOL0     H53721   4.636   8.926  10.417  2.5879 -0.4482 -1.7134
  398MOL0     H53722   4.661   8.723  10.220 -0.0092 -3.8202 -0.1499
  398MOL0     H53723   4.609   8.632  10.360  1.1708 -1.3040  0.4863
  398MOL0     H53724   4.854   8.807  10.396  2.2708 -0.1261 -1.9939
  398MOL0     H53725   4.819   8.668  10.487 -0.0436  0.7978 -0.2796
  398MOL0     H53726   4.973   8.477  10.143 -1.6007  0.0406 -0.4334
  398MOL0     H53727   4.385   9.158  10.118  0.6820 -0.3749 -0.7879
  398MOL0     H53728   4.125   9.330   9.968 -0.7547 -0.7671 -0.5352
  398MOL0     H53729   4.291   9.315   9.981 -1.9202  3.2117 -0.2357
  398MOL0     H53730   4.197   9.217   9.856 -1.2584 -0.9357 -0.5019
  399MOL0     O53731   3.058   6.734   5.652  1.0914 -0.1977  0.0571
  399MOL0     C53732   3.142   6.821   5.644  0.2000  0.4199  0.4364
  399MOL0     O53733   3.129   6.925   5.558 -0.5555  0.4125  0.1465
  399MOL0     C53734   3.022   6.943   5.480 -0.1065 -1.2239 -0.0243
  399MOL0     C53735   2.898   6.952   5.539  0.7407 -0.0300  0.3090
  399MOL0     C53736   2.780   6.998   5.469  0.4788  0.2829  0.5599
  399MOL0     C53737   2.795   7.037   5.337 -0.5320 -0.5199  0.5762
  399MOL0     O53738   2.694   7.083   5.263  0.1604 -0.1346 -0.2722
  399MOL0     C53739   2.706   7.228   5.257 -0.0097 -0.3776 -0.3973
  399MOL0     C53740   2.584   7.273   5.181 -0.2330 -0.9289 -0.2427
  399MOL0     C53741   2.579   7.212   5.043  0.0061  0.9727 -0.2103
  399MOL0     C53742   2.669   7.280   4.936 -0.3073  0.5093 -0.6344
  399MOL0     C53743   2.801   7.207   4.921  0.3650  0.3353  1.1413
  399MOL0     C53744   2.789   7.074   4.841 -0.2883 -0.3664 -0.2793
  399MOL0     C53745   2.895   6.966   4.885 -0.3721 -1.0916 -0.1820
  399MOL0     C53746   3.029   7.031   4.845  0.0842 -0.3791 -0.3460
  399MOL0     N53747   3.132   6.944   4.910  0.4314  0.3000  0.3777
  399MOL0     C53748   3.169   6.819   4.872 -0.0263  0.4479  0.6700
  399MOL0     C53749   3.266   6.781   4.954  0.5640 -0.4202 -0.3872
  399MOL0     C53750   3.332   6.644   4.956  0.0861  0.6612 -0.2684
  399MOL0     C53751   3.449   6.649   4.862  0.3316 -0.4895 -0.3622
  399MOL0     C53752   3.541   6.531   4.854  0.7312 -0.4707  1.1459
  399MOL0     C53753   3.607   6.475   4.978  0.6110 -0.1672 -1.0001
  399MOL0     O53754   3.710   6.374   4.947  0.1962 -0.5774 -0.6076
  399MOL0     C53755   3.776   6.324   5.059  0.7302  1.3245 -0.1674
  399MOL0     C53756   3.814   6.195   5.049 -0.0007 -0.5943 -0.5565
  399MOL0     C53757   3.881   6.135   5.152 -0.5027  0.3230  0.4227
  399MOL0     C53758   3.927   6.203   5.270 -0.5558  0.3209  0.0640
  399MOL0     C53759   4.006   6.135   5.371 -0.0436  0.3323  0.5567
  399MOL0     O53760   4.072   6.203   5.476  0.6478  0.9018 -1.0317
  399MOL0     C53761   4.159   6.125   5.544 -0.3620 -1.1321  0.2350
  399MOL0     C53762   4.130   6.054   5.665  0.4298 -0.1904  0.7683
  399MOL0     C53763   4.225   5.973   5.718  1.0120  0.4017 -0.0387
  399MOL0     C53764   4.360   5.980   5.684  0.0357 -0.2294  1.2365
  399MOL0     O53765   4.471   5.934   5.753  0.1031  0.0316 -0.7144
  399MOL0     C53766   4.456   5.870   5.884  0.3135  0.8761  0.1019
  399MOL0     C53767   4.593   5.815   5.934 -0.3320 -0.8063 -0.1344
  399MOL0     C53768   4.567   5.740   6.062  0.2875 -0.1448  0.0331
  399MOL0     C53769   4.693   5.657   6.104  0.3852  0.7844 -0.4698
  399MOL0     C53770   4.638   5.554   6.207 -0.2339  0.6408  0.1176
  399MOL0     C53771   4.607   5.619   6.343 -0.2938 -0.0636  0.1546
  399MOL0     C53772   4.572   5.513   6.450 -0.2356 -0.6830 -0.4010
  399MOL0     C53773   4.427   5.464   6.434 -0.4429  0.1104 -0.1327
  399MOL0    Cl53774   4.415   5.313   6.547  0.1503  0.5301  0.0914
  399MOL0     C53775   4.398   6.057   5.573  0.5878  0.3937 -0.0187
  399MOL0     C53776   4.296   6.132   5.505 -0.3419 -0.4032 -0.6725
  399MOL0     O53777   4.012   6.009   5.357 -0.1272  0.1978 -0.5807
  399MOL0     C53778   3.882   6.330   5.275 -0.4674 -0.9373 -0.2929
  399MOL0     C53779   3.813   6.391   5.179  0.0169 -0.2429  0.5000
  399MOL0     N53780   3.299   6.885   5.037 -0.0765  0.4770  0.9036
  399MOL0     N53781   3.217   6.981   5.016  0.2086 -0.3210 -0.1091
  399MOL0     C53782   2.927   7.043   5.283 -0.3463  0.3575 -0.4685
  399MOL0     C53783   3.040   6.981   5.342  0.8303 -0.5427 -0.6349
  399MOL0     C53784   3.270   6.798   5.718 -0.2682  0.1842  1.0100
  399MOL0     C53785   3.383   6.878   5.682  0.0710  0.5549 -0.2890
  399MOL0     C53786   3.510   6.846   5.730  0.8398 -0.3108  0.4203
  399MOL0     C53787   3.524   6.736   5.816  1.4585 -0.6273 -0.4909
  399MOL0     O53788   3.642   6.717   5.876 -0.3878  0.5911  0.8898
  399MOL0     C53789   3.759   6.717   5.795  0.5677  0.6163  0.2806
  399MOL0     C53790   3.768   6.610   5.685  0.5413  0.1548  0.3087
  399MOL0     C53791   3.790   6.471   5.752 -0.0644 -1.5165  0.6621
  399MOL0     C53792   3.714   6.358   5.684 -0.8795  0.1061 -0.5248
  399MOL0     C53793   3.581   6.361   5.740 -0.5064 -0.0541  0.4875
  399MOL0     C53794   3.461   6.353   5.768 -0.1870  0.0406  0.5438
  399MOL0     C53795   3.418   6.669   5.860  0.3651  1.0358 -0.2916
  399MOL0     C53796   3.289   6.696   5.806  0.2975  0.5139 -0.7624
  399MOL0     C53797   3.184   6.608   5.865  0.3089 -0.1791  0.2471
  399MOL0     H53798   2.883   6.920   5.642  0.6195 -1.5273 -0.1606
  399MOL0     H53799   2.678   6.994   5.505 -0.9443 -2.0085 -3.0899
  399MOL0     H53800   2.697   7.276   5.356 -0.0962  1.4444 -1.2449
  399MOL0     H53801   2.804   7.256   5.217  0.4631 -0.1326  0.8588
  399MOL0     H53802   2.604   7.381   5.184  0.8224 -1.1319  0.5703
  399MOL0     H53803   2.493   7.247   5.236  0.7904 -2.4273  0.8253
  399MOL0     H53804   2.474   7.224   5.013 -0.5751 -3.6978 -0.7453
  399MOL0     H53805   2.564   7.104   5.047 -5.1550  1.3627 -1.4714
  399MOL0     H53806   2.625   7.287   4.836 -1.8954  0.2640  0.0129
  399MOL0     H53807   2.688   7.386   4.955  1.8232  0.2226 -0.9316
  399MOL0     H53808   2.868   7.270   4.862 -0.8818  0.2336 -0.4822
  399MOL0     H53809   2.835   7.187   5.023 -1.7350 -0.4252  1.7404
  399MOL0     H53810   2.695   7.018   4.847 -1.3090  0.8617 -3.1769
  399MOL0     H53811   2.802   7.103   4.736 -1.8776  1.2386 -0.0838
  399MOL0     H53812   2.877   6.873   4.831  0.1542 -1.0851 -0.3708
  399MOL0     H53813   2.888   6.938   4.991  0.3699 -0.9659 -0.0960
  399MOL0     H53814   3.047   7.030   4.737 -1.8999 -1.9303 -0.7329
  399MOL0     H53815   3.050   7.134   4.876 -1.4798  1.0079 -3.3806
  399MOL0     H53816   3.137   6.754   4.791  1.0447  1.4415 -0.5938
  399MOL0     H53817   3.370   6.620   5.056 -1.6075  0.3832  0.3431
  399MOL0     H53818   3.274   6.561   4.916  1.7425  0.0841 -1.5988
  399MOL0     H53819   3.416   6.682   4.763  1.2934  2.3982  0.1911
  399MOL0     H53820   3.518   6.721   4.907  0.8636 -0.4596 -1.2148
  399MOL0     H53821   3.630   6.569   4.802 -0.2018  0.9200  0.5228
  399MOL0     H53822   3.490   6.453   4.796 -0.4430  1.0340  0.0633
  399MOL0     H53823   3.524   6.433   5.034  0.8767  0.1352 -0.3657
  399MOL0     H53824   3.654   6.547   5.046  3.0872 -2.7569  0.2453
  399MOL0     H53825   3.766   6.141   4.968  0.1647 -2.6025  0.6411
  399MOL0     H53826   3.898   6.027   5.148 -1.3051 -0.1288  4.6403
  399MOL0     H53827   4.027   6.059   5.700  0.0931  0.8931 -0.3191
  399MOL0     H53828   4.190   5.900   5.791  0.5854 -0.3049 -0.9253
  399MOL0     H53829   4.432   5.956   5.948  2.1629  0.9199  0.7869
  399MOL0     H53830   4.380   5.791   5.888  0.7980  0.4369  0.9923
  399MOL0     H53831   4.624   5.747   5.853 -2.1567 -0.6810 -1.0005
  399MOL0     H53832   4.675   5.885   5.948  1.0608 -1.8741 -2.3240
  399MOL0     H53833   4.536   5.811   6.139 -0.0719 -0.3010  0.0371
  399MOL0     H53834   4.484   5.672   6.043  1.0252 -1.0633  0.0570
  399MOL0     H53835   4.775   5.711   6.152 -1.7669  1.4840  2.6829
  399MOL0     H53836   4.738   5.599   6.023 -0.1132 -0.9865  0.4598
  399MOL0     H53837   4.712   5.474   6.222  0.8944  0.8930 -3.2475
  399MOL0     H53838   4.547   5.505   6.173 -0.2308 -0.7246  1.9304
  399MOL0     H53839   4.694   5.681   6.366  0.2094 -0.2932 -1.0477
  399MOL0     H53840   4.517   5.681   6.331  0.3059  0.6450 -0.8590
  399MOL0     H53841   4.577   5.562   6.548 -1.9505 -1.6169  0.2038
  399MOL0     H53842   4.645   5.432   6.444  0.8539  0.3943 -3.3192
  399MOL0     H53843   4.362   5.542   6.475  2.8512  3.0167  0.0081
  399MOL0     H53844   4.402   5.441   6.330 -3.0597  0.0749  0.4357
  399MOL0     H53845   4.503   6.071   5.548  0.7257  0.7394  0.7134
  399MOL0     H53846   4.316   6.200   5.423  2.4557  0.1957  0.3843
  399MOL0     H53847   3.894   6.391   5.364 -0.6953  1.6053 -1.8887
  399MOL0     H53848   3.788   6.495   5.194  1.6489  0.1068  0.9343
  399MOL0     H53849   2.953   7.082   5.186 -2.1891 -1.2386 -1.6729
  399MOL0     H53850   3.139   6.992   5.299  1.1857  1.5351  0.5563
  399MOL0     H53851   3.376   6.956   5.606  1.4264  1.8757  0.8612
  399MOL0     H53852   3.587   6.914   5.697  0.9565  0.1275  1.5507
  399MOL0     H53853   3.842   6.712   5.866 -2.4003 -1.2914  4.0162
  399MOL0     H53854   3.756   6.816   5.749 -3.0855  0.0901 -0.9640
  399MOL0     H53855   3.855   6.631   5.623 -1.1042  1.9650 -1.5237
  399MOL0     H53856   3.676   6.619   5.626  0.1605  1.7566  1.0963
  399MOL0     H53857   3.758   6.471   5.857  2.5090 -3.9890  1.5868
  399MOL0     H53858   3.899   6.459   5.751  0.6571  2.6528  2.9554
  399MOL0     H53859   3.696   6.379   5.578 -0.6171  2.3947 -0.1543
  399MOL0     H53860   3.752   6.261   5.716 -3.1916 -0.5106  0.5860
  399MOL0     H53861   3.359   6.361   5.799  0.0730  0.8431  1.2227
  399MOL0     H53862   3.419   6.590   5.934  0.4884  2.4874  1.3010
  399MOL0     H53863   3.224   6.572   5.960  0.6015 -0.4695  0.0142
  399MOL0     H53864   3.093   6.668   5.878  0.9737  1.3399 -1.7280
  399MOL0     H53865   3.155   6.523   5.801 -1.4110 -0.2967  1.1019
  400MOL0     O53866   6.892   2.382   8.363  0.6605  0.5639  0.4944
  400MOL0     C53867   6.797   2.459   8.352 -0.6108  0.5181  0.5561
  400MOL0     O53868   6.732   2.527   8.449  0.2902 -0.3556 -0.7999
  400MOL0     C53869   6.783   2.502   8.578 -0.6832  0.3905  1.3180
  400MOL0     C53870   6.912   2.537   8.619 -0.3444  0.3032 -0.4422
  400MOL0     C53871   6.937   2.526   8.758  0.8593  0.1259  0.4707
  400MOL0     C53872   6.851   2.458   8.848 -0.3347  0.0757 -0.2258
  400MOL0     O53873   6.881   2.435   8.979 -0.8164 -0.4790 -0.8589
  400MOL0     C53874   7.013   2.394   9.014  0.9205 -1.1435 -0.8037
  400MOL0     C53875   7.088   2.510   9.084 -0.8537  0.3298  0.0134
  400MOL0     C53876   7.244   2.500   9.075 -0.0421 -0.8171  0.1458
  400MOL0     C53877   7.312   2.587   9.188  0.7913  1.1208  0.0715
  400MOL0     C53878   7.457   2.579   9.148 -0.9907  0.2380 -0.4554
  400MOL0     C53879   7.537   2.646   9.271  0.2433  0.2217 -0.2413
  400MOL0     C53880   7.578   2.540   9.375 -0.4771  0.4291  0.0750
  400MOL0     C53881   7.672   2.603   9.469  0.7455 -0.1380 -0.7022
  400MOL0     N53882   7.797   2.603   9.404 -0.0019 -0.5980  0.2317
  400MOL0     C53883   7.871   2.490   9.367  0.2215  0.0268 -0.2614
  400MOL0     C53884   7.967   2.543   9.288 -1.1011  0.1423 -0.2825
  400MOL0     C53885   8.086   2.461   9.241 -0.0256 -0.0087  0.5362
  400MOL0     C53886   8.040   2.343   9.149 -0.6222  0.9476 -0.5872
  400MOL0     C53887   8.160   2.235   9.128 -0.3499 -1.2245 -0.2510
  400MOL0     C53888   8.269   2.293   9.032  0.7726 -0.4152 -0.0268
  400MOL0     O53889   8.354   2.391   9.102  0.5732 -0.0547  0.4976
  400MOL0     C53890   8.453   2.452   9.028  0.1339  0.6930  0.3274
  400MOL0     C53891   8.527   2.557   9.076  0.6197  0.1792 -0.4472
  400MOL0     C53892   8.631   2.612   9.010  0.2168 -0.7047 -0.0676
  400MOL0     C53893   8.660   2.574   8.880 -0.0314 -0.3440  0.3041
  400MOL0     C53894   8.760   2.648   8.800  0.0940 -0.0416  0.3895
  400MOL0     O53895   8.764   2.649   8.661  0.2130  0.1634 -0.1905
  400MOL0     C53896   8.865   2.729   8.609  0.7244  0.8421  0.5468
  400MOL0     C53897   9.003   2.698   8.623 -0.5990  0.9589  0.0439
  400MOL0     C53898   9.097   2.766   8.551  0.4437  0.5581  0.2249
  400MOL0     C53899   9.067   2.888   8.492 -0.5318  0.3371 -0.3283
  400MOL0     O53900   9.157   2.965   8.432 -0.3686  0.1512 -0.1759
  400MOL0     C53901   9.301   2.937   8.433  0.2055 -1.4656 -0.6409
  400MOL0     C53902   9.393   3.046   8.376  0.0613  0.1049 -0.1127
  400MOL0     C53903   9.542   3.039   8.417  0.3151 -0.0640  0.3084
  400MOL0     C53904   9.604   2.895   8.390 -0.1869 -0.2873 -0.3074
  400MOL0     C53905   9.761   2.916   8.379  1.1776  0.1376  0.3194
  400MOL0     C53906   9.805   2.981   8.245 -0.2528  0.8807 -0.3241
  400MOL0     C53907   9.948   2.954   8.208 -0.4894 -0.0458 -0.8110
  400MOL0     C53908   9.986   3.025   8.074  0.4702  0.5103 -0.4030
  400MOL0    Cl53909  10.167   3.011   8.066 -0.1401  0.8352  0.1364
  400MOL0     C53910   8.934   2.924   8.491  0.4344  0.3014  0.1832
  400MOL0     C53911   8.832   2.839   8.534  0.9336 -0.6666  0.0014
  400MOL0     O53912   8.835   2.704   8.877 -0.1261  0.0820  0.6625
  400MOL0     C53913   8.581   2.480   8.818  0.3661  0.2182 -0.4324
  400MOL0     C53914   8.479   2.417   8.893 -0.1943 -0.8844  0.4493
  400MOL0     N53915   7.945   2.678   9.266  0.1089 -0.1736  0.0634
  400MOL0     N53916   7.836   2.708   9.326  1.0249  1.0104 -0.3952
  400MOL0     C53917   6.734   2.411   8.800 -0.3068  1.5452  0.9611
  400MOL0     C53918   6.699   2.431   8.666  0.4212 -1.2882 -0.8875
  400MOL0     C53919   6.731   2.461   8.218 -0.0207 -0.1341 -0.5323
  400MOL0     C53920   6.598   2.490   8.218 -0.1786  0.3096 -0.4095
  400MOL0     C53921   6.528   2.500   8.092  0.2231  0.0226  0.2381
  400MOL0     C53922   6.582   2.475   7.967 -0.8086 -0.2406 -0.5227
  400MOL0     O53923   6.514   2.477   7.849  0.6368 -0.6288  0.0400
  400MOL0     C53924   6.585   2.468   7.726 -0.0512 -0.6116 -0.2848
  400MOL0     C53925   6.476   2.494   7.624 -0.1416 -0.4286 -0.2784
  400MOL0     C53926   6.451   2.643   7.600 -0.7649  0.8201  0.9369
  400MOL0     C53927   6.369   2.653   7.473 -0.1054 -0.4776 -0.2297
  400MOL0     C53928   6.309   2.789   7.459  0.4653  0.1695 -0.9681
  400MOL0     C53929   6.251   2.890   7.440  0.5927  0.6995 -0.3786
  400MOL0     C53930   6.724   2.465   7.980 -0.0905  0.0986  0.4483
  400MOL0     C53931   6.804   2.461   8.094  0.0878  0.1027  0.1238
  400MOL0     C53932   6.954   2.459   8.094  0.5554 -0.3507 -0.2725
  400MOL0     H53933   6.984   2.563   8.542  0.9911 -2.5022 -0.2490
  400MOL0     H53934   7.032   2.569   8.789 -0.6050  1.6381  3.2172
  400MOL0     H53935   7.008   2.313   9.088  2.9773  0.7422  1.6068
  400MOL0     H53936   7.075   2.360   8.931  3.8697  0.9654  0.3424
  400MOL0     H53937   7.063   2.501   9.190  0.9948 -0.4231  0.4303
  400MOL0     H53938   7.059   2.606   9.039  1.6320  1.3650  0.4564
  400MOL0     H53939   7.275   2.534   8.976  0.3012  0.1275  0.5644
  400MOL0     H53940   7.274   2.396   9.086  0.9934 -0.7158 -1.3949
  400MOL0     H53941   7.267   2.687   9.190 -3.6741 -0.4523 -3.0850
  400MOL0     H53942   7.292   2.540   9.284 -1.3468  0.2071 -0.7477
  400MOL0     H53943   7.492   2.479   9.119  0.6057 -0.9064  4.4006
  400MOL0     H53944   7.460   2.642   9.059  0.5788  1.8710  0.6828
  400MOL0     H53945   7.627   2.677   9.217  2.9105 -0.6097  3.3331
  400MOL0     H53946   7.479   2.731   9.307 -1.8409 -1.9078  1.7910
  400MOL0     H53947   7.618   2.453   9.323  0.3487  0.0053  1.3715
  400MOL0     H53948   7.491   2.505   9.431 -1.6876  0.1346 -1.9220
  400MOL0     H53949   7.633   2.699   9.506 -2.5582 -1.1487 -1.1691
  400MOL0     H53950   7.681   2.536   9.555 -0.2300  0.0236 -0.4608
  400MOL0     H53951   7.854   2.394   9.415 -0.0761  0.7811  1.2096
  400MOL0     H53952   8.155   2.535   9.200  0.3309 -0.1908  0.7959
  400MOL0     H53953   8.135   2.420   9.330  1.1090 -3.7051 -1.5713
  400MOL0     H53954   7.956   2.295   9.199  0.1555  0.0951 -0.0755
  400MOL0     H53955   8.007   2.394   9.058 -3.3143 -2.1202 -1.4965
  400MOL0     H53956   8.111   2.146   9.088 -2.8561 -0.5163  0.9993
  400MOL0     H53957   8.204   2.200   9.222 -1.6727 -1.4366  0.3109
  400MOL0     H53958   8.225   2.330   8.939 -0.3976  2.1196  1.4289
  400MOL0     H53959   8.321   2.202   9.000  1.4391  0.1054 -0.4387
  400MOL0     H53960   8.491   2.589   9.173  1.5247 -0.9406  0.2961
  400MOL0     H53961   8.687   2.685   9.068  0.3327 -3.2442  3.3347
  400MOL0     H53962   9.026   2.610   8.682 -0.3129  1.3744  0.5625
  400MOL0     H53963   9.202   2.742   8.558  0.4328  0.6247  0.6316
  400MOL0     H53964   9.322   2.938   8.540 -2.6546 -4.1149  0.1140
  400MOL0     H53965   9.316   2.842   8.381  0.4908 -1.2116 -1.0234
  400MOL0     H53966   9.396   3.044   8.267  2.7210 -1.2186 -0.1078
  400MOL0     H53967   9.349   3.142   8.406  0.7020  0.0920  0.9106
  400MOL0     H53968   9.608   3.121   8.387  3.4247 -2.1177  1.0381
  400MOL0     H53969   9.549   3.058   8.525 -0.8521 -2.0138  0.7685
  400MOL0     H53970   9.569   2.848   8.298 -1.0263 -1.1086  0.4222
  400MOL0     H53971   9.584   2.834   8.478  0.8503  1.1260  0.9780
  400MOL0     H53972   9.810   2.819   8.394 -0.0009 -0.3803  0.9811
  400MOL0     H53973   9.787   2.984   8.461  2.6780 -0.8912  0.7491
  400MOL0     H53974   9.745   2.936   8.165 -0.8365  0.9396  0.0775
  400MOL0     H53975   9.774   3.086   8.242  0.2047  1.0014 -1.1685
  400MOL0     H53976   9.962   2.849   8.178  2.4782 -0.1510  0.5990
  400MOL0     H53977  10.027   2.981   8.278  0.1089  1.1187 -1.8916
  400MOL0     H53978   9.930   2.965   8.002  0.5474 -0.0305 -0.0175
  400MOL0     H53979   9.951   3.129   8.073 -0.1077  0.3451 -2.8956
  400MOL0     H53980   8.897   3.010   8.435 -0.3167  0.7820  1.3813
  400MOL0     H53981   8.728   2.870   8.522  1.6008  1.3203 -1.1918
  400MOL0     H53982   8.601   2.455   8.714  2.9188  1.9393 -0.4489
  400MOL0     H53983   8.439   2.335   8.833 -1.2106  1.1977 -1.8999
  400MOL0     H53984   6.674   2.357   8.872 -0.5161  2.6099  1.6029
  400MOL0     H53985   6.609   2.397   8.616  0.4775  0.5211 -2.3091
  400MOL0     H53986   6.536   2.513   8.304 -0.9161  4.7890 -1.8920
  400MOL0     H53987   6.425   2.532   8.104  0.3057  2.3564 -3.5390
  400MOL0     H53988   6.621   2.365   7.719 -1.2658 -0.9540 -2.5833
  400MOL0     H53989   6.667   2.540   7.727 -0.8112  0.3288  1.9465
  400MOL0     H53990   6.380   2.457   7.660 -1.3401  0.8904 -1.9507
  400MOL0     H53991   6.501   2.445   7.529  1.1393  2.1133 -1.3566
  400MOL0     H53992   6.544   2.699   7.580  0.6999 -1.5091  0.8336
  400MOL0     H53993   6.401   2.690   7.685  0.5918  1.5089  1.3881
  400MOL0     H53994   6.437   2.634   7.388 -2.2556 -0.6041 -2.0103
  400MOL0     H53995   6.288   2.579   7.471  0.4124 -1.2298  2.6393
  400MOL0     H53996   6.186   2.974   7.425  0.6934  0.6294 -1.2254
  400MOL0     H53997   6.777   2.455   7.886  0.5249 -2.4031  0.9858
  400MOL0     H53998   6.986   2.512   8.004  0.7266 -0.6604 -0.3969
  400MOL0     H53999   6.987   2.513   8.184 -2.6234  0.0410  0.7824
  400MOL0     H54000   6.989   2.355   8.090  1.7153 -0.2790  3.7525
  401MOL0     O54001   2.126   7.691   7.118 -0.2189 -0.1016 -0.7401
  401MOL0     C54002   2.232   7.748   7.089  1.0331  0.2995  0.8210
  401MOL0     O54003   2.282   7.761   6.962 -0.4361  0.0428 -0.0841
  401MOL0     C54004   2.191   7.770   6.857 -0.2175 -0.1715 -0.2446
  401MOL0     C54005   2.088   7.857   6.850  0.2246 -0.2955  1.0132
  401MOL0     C54006   1.997   7.859   6.735 -0.1800 -0.2681 -0.1471
  401MOL0     C54007   2.004   7.745   6.643  0.5219  0.2126  0.4929
  401MOL0     O54008   1.919   7.722   6.538  0.3599  0.3880 -0.2085
  401MOL0     C54009   1.827   7.826   6.492  0.5122  0.4003  0.1999
  401MOL0     C54010   1.685   7.794   6.556 -0.1298  0.2878  0.8199
  401MOL0     C54011   1.592   7.922   6.545 -0.3938 -0.0833 -1.0297
  401MOL0     C54012   1.490   7.929   6.668 -0.3505 -0.2290  0.5131
  401MOL0     C54013   1.373   8.025   6.663  0.5098 -0.5439  0.9305
  401MOL0     C54014   1.396   8.176   6.642 -0.1521 -0.8739  0.7432
  401MOL0     C54015   1.271   8.275   6.655  0.5649 -1.1941 -0.7512
  401MOL0     C54016   1.306   8.422   6.643 -0.4366 -0.2257 -0.2719
  401MOL0     N54017   1.358   8.451   6.508  0.8674 -0.8764 -0.4130
  401MOL0     C54018   1.284   8.490   6.402  0.0917  0.1113  0.1562
  401MOL0     C54019   1.369   8.508   6.302 -0.2753 -0.2330  0.0918
  401MOL0     C54020   1.337   8.568   6.164 -0.0763  0.7881 -0.9368
  401MOL0     C54021   1.294   8.711   6.169  0.0946 -0.9098  0.4366
  401MOL0     C54022   1.384   8.807   6.234  0.3728 -0.0680  1.0078
  401MOL0     C54023   1.521   8.827   6.170  0.2961 -0.9097 -0.8713
  401MOL0     O54024   1.500   8.868   6.036  0.1905 -1.0213 -0.2244
  401MOL0     C54025   1.617   8.902   5.967  0.0923  0.3291 -0.5712
  401MOL0     C54026   1.710   8.800   5.941  0.3061 -0.0892  0.4994
  401MOL0     C54027   1.831   8.822   5.881 -1.0213 -0.3447 -0.5086
  401MOL0     C54028   1.871   8.957   5.849  0.9746  0.5374  0.0511
  401MOL0     C54029   1.996   8.985   5.782 -0.1643  0.4073  0.3561
  401MOL0     O54030   2.049   9.112   5.804  0.2435 -0.3970  0.1650
  401MOL0     C54031   2.150   9.153   5.722  1.0713 -0.3521 -0.3562
  401MOL0     C54032   2.284   9.136   5.757 -0.5756 -0.5729  0.2701
  401MOL0     C54033   2.395   9.164   5.673  0.1087  0.7067 -0.3643
  401MOL0     C54034   2.366   9.215   5.544 -0.1208 -0.2871 -0.5900
  401MOL0     O54035   2.457   9.263   5.459  0.9485 -0.5813 -0.1681
  401MOL0     C54036   2.586   9.311   5.516 -0.1602 -0.0273  0.3356
  401MOL0     C54037   2.649   9.423   5.431  1.2055 -0.0670 -0.2098
  401MOL0     C54038   2.768   9.489   5.508  0.4054  0.4299 -0.5187
  401MOL0     C54039   2.880   9.531   5.408 -0.2582  0.1412  0.1357
  401MOL0     C54040   2.962   9.628   5.487  1.3578  0.2283  0.1220
  401MOL0     C54041   3.065   9.694   5.382 -0.2256 -0.4584 -0.7064
  401MOL0     C54042   3.199   9.718   5.450 -0.1177 -0.9481 -0.3999
  401MOL0     C54043   3.309   9.734   5.350  0.1731  0.5090  0.5593
  401MOL0    Cl54044   3.341   9.576   5.267 -0.3764  0.3094 -0.0755
  401MOL0     C54045   2.234   9.235   5.511  0.4282 -0.0904 -1.2333
  401MOL0     C54046   2.133   9.201   5.599 -0.0624  0.0060  0.2432
  401MOL0     O54047   2.040   8.905   5.704  0.4058  0.5583  0.9455
  401MOL0     C54048   1.777   9.058   5.884  1.7058  0.2033 -0.5972
  401MOL0     C54049   1.647   9.036   5.933  0.0592  0.4399 -0.0638
  401MOL0     N54050   1.500   8.476   6.349 -0.6440 -0.2548 -1.0929
  401MOL0     N54051   1.486   8.453   6.480  0.3714 -0.3537 -0.3981
  401MOL0     C54052   2.105   7.653   6.669 -0.2084  1.2306 -0.5782
  401MOL0     C54053   2.202   7.669   6.762  0.5392 -0.0879 -0.2329
  401MOL0     C54054   2.309   7.793   7.198  0.2450  0.7386 -0.3589
  401MOL0     C54055   2.444   7.769   7.183  0.2361 -0.5068  0.0167
  401MOL0     C54056   2.533   7.828   7.280 -0.8800  0.6583 -0.1692
  401MOL0     C54057   2.493   7.878   7.401  0.0686  0.0243 -0.8318
  401MOL0     O54058   2.573   7.922   7.508 -0.3806  0.0706 -0.1744
  401MOL0     C54059   2.687   7.998   7.463 -0.4611 -0.1060 -0.4794
  401MOL0     C54060   2.651   8.133   7.390 -0.3092  0.0229  0.8885
  401MOL0     C54061   2.532   8.210   7.431 -0.2495 -0.4497 -0.3428
  401MOL0     C54062   2.544   8.263   7.589 -0.0737  0.1169 -0.2088
  401MOL0     C54063   2.654   8.357   7.598 -0.0708  0.7028  0.4162
  401MOL0     C54064   2.753   8.427   7.618 -0.0418  1.3653  0.9823
  401MOL0     C54065   2.358   7.880   7.419  0.0530  0.2861  0.2589
  401MOL0     C54066   2.263   7.840   7.320  0.8993 -0.4409  0.0704
  401MOL0     C54067   2.118   7.855   7.365 -0.0334 -0.1812  0.1233
  401MOL0     H54068   2.089   7.941   6.918  2.6632 -0.8664  1.7759
  401MOL0     H54069   1.922   7.937   6.730 -2.3579 -2.0128  2.4417
  401MOL0     H54070   1.871   7.924   6.512  2.0132 -0.3802  0.8564
  401MOL0     H54071   1.820   7.815   6.383  2.6603  1.2502 -0.0622
  401MOL0     H54072   1.714   7.777   6.660  0.8190  3.5103  1.1918
  401MOL0     H54073   1.636   7.710   6.506 -3.0500  2.8191 -0.9312
  401MOL0     H54074   1.533   7.940   6.455 -2.3088 -1.2087 -0.0683
  401MOL0     H54075   1.660   8.008   6.549  0.7872 -0.9033 -2.2510
  401MOL0     H54076   1.438   7.832   6.672  2.5402 -1.9160  0.1745
  401MOL0     H54077   1.543   7.946   6.762 -0.9983 -3.9060  1.7282
  401MOL0     H54078   1.310   7.995   6.578 -0.4053  0.7602  1.1174
  401MOL0     H54079   1.311   8.007   6.751  0.5051 -2.5884  0.5458
  401MOL0     H54080   1.479   8.216   6.700 -1.0758  0.7628  1.0092
  401MOL0     H54081   1.427   8.176   6.537 -2.5216 -0.8761 -0.0260
  401MOL0     H54082   1.210   8.257   6.744  0.8034 -1.7496 -0.6960
  401MOL0     H54083   1.208   8.266   6.567  0.3745  2.1464 -1.1002
  401MOL0     H54084   1.226   8.493   6.665  1.0838  1.7150 -0.7212
  401MOL0     H54085   1.386   8.436   6.715  1.9990 -1.7629 -2.4840
  401MOL0     H54086   1.176   8.498   6.403 -0.1167 -2.0519 -0.5345
  401MOL0     H54087   1.425   8.548   6.102 -0.6528 -0.4691 -1.3766
  401MOL0     H54088   1.258   8.512   6.113  1.1874 -0.8823 -1.1538
  401MOL0     H54089   1.280   8.748   6.068 -2.0791  1.6243  1.5405
  401MOL0     H54090   1.192   8.707   6.209 -0.1528  1.8674  0.2493
  401MOL0     H54091   1.404   8.773   6.336 -1.4998  1.4565  1.9490
  401MOL0     H54092   1.334   8.904   6.237 -0.4428 -0.0846 -3.6751
  401MOL0     H54093   1.585   8.739   6.186 -0.4727 -1.5246 -1.1378
  401MOL0     H54094   1.581   8.904   6.219 -0.5479 -2.3126  2.7335
  401MOL0     H54095   1.686   8.697   5.966  2.1306 -0.6487  0.1131
  401MOL0     H54096   1.904   8.745   5.860 -0.4855 -0.1030  0.4339
  401MOL0     H54097   2.307   9.101   5.858 -0.1752  0.4413  0.5378
  401MOL0     H54098   2.497   9.145   5.707 -0.7551 -0.4999  1.6933
  401MOL0     H54099   2.569   9.361   5.612  0.7162  2.0790 -0.5331
  401MOL0     H54100   2.657   9.229   5.531  1.6718  0.0931 -5.2336
  401MOL0     H54101   2.676   9.379   5.335 -1.0193  1.1463 -1.4752
  401MOL0     H54102   2.568   9.493   5.410 -2.1187 -3.6871 -0.5367
  401MOL0     H54103   2.725   9.575   5.561 -0.1142  0.7334 -1.4134
  401MOL0     H54104   2.803   9.422   5.586 -1.6626  0.6378  0.6841
  401MOL0     H54105   2.841   9.578   5.317  0.3664 -1.6300 -1.1094
  401MOL0     H54106   2.942   9.443   5.386  0.6751 -0.1358  3.3919
  401MOL0     H54107   3.014   9.576   5.567  0.3777  0.3312  0.8480
  401MOL0     H54108   2.892   9.698   5.533 -1.6720 -2.6592  0.3540
  401MOL0     H54109   3.076   9.627   5.297 -2.0411 -0.8939 -0.6388
  401MOL0     H54110   3.022   9.788   5.345  0.0339 -0.7193 -1.6745
  401MOL0     H54111   3.221   9.640   5.523 -1.9597 -0.4807  0.7055
  401MOL0     H54112   3.178   9.814   5.498  2.2684  0.3206 -1.6691
  401MOL0     H54113   3.269   9.805   5.276 -1.7708  1.0326  2.0297
  401MOL0     H54114   3.404   9.779   5.380  2.8959 -0.3198 -5.3443
  401MOL0     H54115   2.216   9.282   5.415  0.5287 -2.1766 -2.3132
  401MOL0     H54116   2.029   9.223   5.575 -0.0206  0.4596  0.4737
  401MOL0     H54117   1.808   9.160   5.864  3.0315  0.0175  0.4022
  401MOL0     H54118   1.572   9.111   5.956 -0.5544 -0.6170  1.5705
  401MOL0     H54119   2.108   7.568   6.603 -2.3797  0.6918 -0.0757
  401MOL0     H54120   2.283   7.597   6.757  0.7390 -0.1024  2.1827
  401MOL0     H54121   2.492   7.739   7.090 -3.6916  0.8080 -2.6963
  401MOL0     H54122   2.638   7.811   7.263  0.1263  4.1828  1.6050
  401MOL0     H54123   2.749   7.938   7.395 -0.9505  0.7820 -1.7502
  401MOL0     H54124   2.754   8.026   7.545 -0.4703 -0.6687 -0.2707
  401MOL0     H54125   2.630   8.103   7.287  0.3766 -0.2217  0.8140
  401MOL0     H54126   2.741   8.196   7.383 -1.5623  1.7821 -0.2135
  401MOL0     H54127   2.446   8.147   7.408 -1.2374  1.1860 -1.3075
  401MOL0     H54128   2.515   8.286   7.354  0.3548 -2.1489 -2.2719
  401MOL0     H54129   2.453   8.319   7.613 -0.4365  1.1568 -3.4577
  401MOL0     H54130   2.559   8.177   7.655  2.8613 -0.0125 -0.9421
  401MOL0     H54131   2.834   8.493   7.640  1.1774  0.0322  0.6676
  401MOL0     H54132   2.319   7.925   7.510 -2.3196  2.5758 -1.7378
  401MOL0     H54133   2.079   7.765   7.413  0.5624  0.9831  2.9944
  401MOL0     H54134   2.103   7.942   7.429 -0.9478  0.8556 -1.4297
  401MOL0     H54135   2.063   7.879   7.273 -0.2297  0.3106  0.3679
  402MOL0     O54136   2.091  10.572  11.195  0.7502  0.0138  0.1150
  402MOL0     C54137   2.068  10.595  11.081  0.5425 -0.6804 -0.2383
  402MOL0     O54138   2.156  10.587  10.975 -0.0721  0.2210 -0.1391
  402MOL0     C54139   2.292  10.547  10.979  0.5308 -0.7823 -0.1171
  402MOL0     C54140   2.349  10.560  10.855 -0.3392  0.5612  0.4023
  402MOL0     C54141   2.488  10.536  10.826  0.0976  0.2010 -0.6282
  402MOL0     C54142   2.566  10.478  10.926  0.0407  0.2638 -0.0375
  402MOL0     O54143   2.691  10.418  10.901 -0.0951  0.1474  0.4552
  402MOL0     C54144   2.719  10.381  10.764 -0.3871  0.1949 -0.8122
  402MOL0     C54145   2.811  10.255  10.770 -0.3930 -0.2261 -0.7244
  402MOL0     C54146   2.866  10.235  10.631 -0.0382  0.5069 -0.2548
  402MOL0     C54147   2.960  10.107  10.631  0.5323 -0.8308  0.1542
  402MOL0     C54148   3.100  10.141  10.628  0.0386  0.1758 -0.1898
  402MOL0     C54149   3.158  10.211  10.755 -0.0263  0.1880  0.6712
  402MOL0     C54150   3.309  10.224  10.763  0.2747  0.0020  0.6950
  402MOL0     C54151   3.377  10.285  10.645  0.2796 -0.2381  0.1454
  402MOL0     N54152   3.519  10.317  10.679  1.4590  0.4460  0.4430
  402MOL0     C54153   3.568  10.423  10.744 -0.4089  0.0496 -0.1428
  402MOL0     C54154   3.702  10.422  10.719 -0.0722 -0.1985 -0.0823
  402MOL0     C54155   3.787  10.531  10.772 -0.2017  0.5795  0.4915
  402MOL0     C54156   3.864  10.485  10.903 -0.4414 -0.0522  0.0779
  402MOL0     C54157   3.968  10.587  10.927  0.1031 -0.2362 -0.1585
  402MOL0     C54158   4.075  10.524  11.028  0.4917 -0.6767 -0.0657
  402MOL0     O54159   4.160  10.440  10.949  0.1782 -0.0706  0.3541
  402MOL0     C54160   4.288  10.475  10.948 -0.0537 -0.7966  0.7808
  402MOL0     C54161   4.380  10.416  11.026 -0.2590 -0.0299 -0.9859
  402MOL0     C54162   4.513  10.453  11.027 -0.1622 -0.9078  0.1679
  402MOL0     C54163   4.556  10.564  10.948 -0.3048 -0.7748  0.0178
  402MOL0     C54164   4.696  10.615  10.954 -0.8600  0.2081  0.3791
  402MOL0     O54165   4.721  10.723  10.870 -0.2209 -0.6867 -0.2006
  402MOL0     C54166   4.849  10.768  10.852 -0.4191 -0.1141  0.6257
  402MOL0     C54167   4.882  10.826  10.732  0.3290  0.1482  0.6972
  402MOL0     C54168   5.013  10.878  10.705 -0.1737 -0.0160  0.6639
  402MOL0     C54169   5.112  10.868  10.807 -0.0842  0.2171 -0.2308
  402MOL0     O54170   5.240  10.915  10.799 -0.4526  0.1501  0.2279
  402MOL0     C54171   5.311  10.925  10.678 -1.0780  0.6390 -0.1851
  402MOL0     C54172   5.467  10.930  10.710  0.4440  0.0128 -0.0533
  402MOL0     C54173   5.515  11.058  10.770 -0.3990 -0.1301 -0.0859
  402MOL0     C54174   5.435  11.104  10.888 -0.6910  0.7696  0.7045
  402MOL0     C54175   5.499  11.225  10.960  0.4188  0.6841 -0.4852
  402MOL0     C54176   5.595  11.330  10.895 -0.3742  0.4088  0.4280
  402MOL0     C54177   5.532  11.429  10.800 -0.5804  0.1596 -0.9472
  402MOL0     C54178   5.632  11.488  10.701 -0.3396  0.2779 -0.0531
  402MOL0    Cl54179   5.776  11.563  10.781  0.6136 -0.4061 -0.1624
  402MOL0     C54180   5.079  10.805  10.927 -0.2869  0.0696 -0.6617
  402MOL0     C54181   4.951  10.762  10.950  0.3178  0.2684 -0.0876
  402MOL0     O54182   4.776  10.553  11.027  0.0672  0.1974  0.0417
  402MOL0     C54183   4.462  10.620  10.864 -0.6319 -0.4781 -0.6392
  402MOL0     C54184   4.329  10.585  10.872 -0.2452 -0.8186  0.0881
  402MOL0     N54185   3.732  10.316  10.642 -0.1779 -0.6915 -0.6451
  402MOL0     N54186   3.621  10.244  10.627  0.1203 -0.3119 -0.2696
  402MOL0     C54187   2.506  10.466  11.060  0.0232 -0.1198  0.1384
  402MOL0     C54188   2.368  10.502  11.084  0.2002  0.1014  0.0932
  402MOL0     C54189   1.922  10.631  11.049  0.0186  0.2784 -0.0851
  402MOL0     C54190   1.867  10.530  10.973  0.9921  0.0572 -0.2041
  402MOL0     C54191   1.731  10.540  10.934  0.8383 -0.1668  0.1063
  402MOL0     C54192   1.646  10.641  10.983  0.4215  0.1420  0.2682
  402MOL0     O54193   1.515  10.651  10.928  0.3543 -1.4906  0.1014
  402MOL0     C54194   1.419  10.732  11.009 -0.2025  0.1321 -0.3337
  402MOL0     C54195   1.275  10.693  10.966 -0.9409  0.1228 -0.3408
  402MOL0     C54196   1.246  10.542  10.988 -0.1988 -0.1831 -0.2442
  402MOL0     C54197   1.108  10.502  10.944  1.0436  1.3542 -0.2455
  402MOL0     C54198   1.009  10.545  11.047  0.5702  0.2745  1.2435
  402MOL0     C54199   0.930  10.598  11.121  0.3926  0.3727  0.0314
  402MOL0     C54200   1.702  10.736  11.070  0.4249 -0.0507 -0.3740
  402MOL0     C54201   1.835  10.729  11.109 -0.0598 -0.1130 -0.0643
  402MOL0     C54202   1.896  10.825  11.193 -0.0162  0.3154 -0.2025
  402MOL0     H54203   2.288  10.592  10.771 -2.4666 -0.6357  1.4270
  402MOL0     H54204   2.525  10.552  10.725  1.0389  1.6584 -0.0980
  402MOL0     H54205   2.640  10.355  10.693 -2.7000  0.8402  1.3954
  402MOL0     H54206   2.768  10.464  10.712 -2.2665  0.6181 -1.9720
  402MOL0     H54207   2.748  10.166  10.782  0.0029 -0.3691  0.3937
  402MOL0     H54208   2.895  10.272  10.837 -0.0174 -1.2737 -0.9044
  402MOL0     H54209   2.915  10.324  10.592 -0.6163 -0.1156 -2.5484
  402MOL0     H54210   2.788  10.198  10.564 -0.1010  0.1299  0.0186
  402MOL0     H54211   2.949  10.045  10.720 -0.3145  0.6664  1.1295
  402MOL0     H54212   2.936  10.042  10.546 -1.2086 -0.1118  0.0558
  402MOL0     H54213   3.147  10.042  10.624  0.1238 -0.0372  3.1219
  402MOL0     H54214   3.132  10.194  10.538  1.7468  0.2475  0.4114
  402MOL0     H54215   3.111  10.309  10.749  0.1302  0.2095 -0.4882
  402MOL0     H54216   3.110  10.167  10.843 -4.5334 -0.1453 -1.6743
  402MOL0     H54217   3.356  10.129  10.791  1.7317  0.7569  0.8953
  402MOL0     H54218   3.327  10.283  10.854  1.6093 -0.1905  0.5716
  402MOL0     H54219   3.380  10.215  10.562  2.8054 -1.1305  0.9210
  402MOL0     H54220   3.320  10.373  10.611 -2.3131 -1.0567  2.0385
  402MOL0     H54221   3.501  10.490  10.797 -1.5687  0.1953 -1.7401
  402MOL0     H54222   3.859  10.559  10.694  0.3906 -0.7998  0.5190
  402MOL0     H54223   3.723  10.618  10.793 -0.4521  0.6637 -0.5570
  402MOL0     H54224   3.796  10.461  10.986  0.3828 -0.3089  0.6887
  402MOL0     H54225   3.911  10.392  10.873 -0.8716 -0.3237  0.2315
  402MOL0     H54226   3.927  10.680  10.967 -0.0157 -0.3458 -0.0212
  402MOL0     H54227   4.028  10.622  10.843  1.6026  1.0920  1.3884
  402MOL0     H54228   4.023  10.469  11.107 -1.8624 -0.6747 -1.5034
  402MOL0     H54229   4.138  10.600  11.075  1.0687 -2.5699  2.3786
  402MOL0     H54230   4.352  10.328  11.083  1.1731  0.1356  0.0228
  402MOL0     H54231   4.586  10.409  11.094  1.7435  2.0559  0.2525
  402MOL0     H54232   4.803  10.830  10.657 -0.1503 -0.1590  1.1791
  402MOL0     H54233   5.043  10.932  10.616  2.2124  1.7824  2.4287
  402MOL0     H54234   5.292  10.843  10.608  0.0056  1.7590 -1.8472
  402MOL0     H54235   5.274  11.014  10.626 -2.2854 -0.2120 -0.8157
  402MOL0     H54236   5.486  10.842  10.771 -0.3902 -0.1568 -0.0151
  402MOL0     H54237   5.514  10.903  10.615 -3.3558 -0.3782 -2.0183
  402MOL0     H54238   5.618  11.053  10.805 -1.5437  2.2960  4.4565
  402MOL0     H54239   5.512  11.128  10.686 -1.8515 -1.7641 -1.4672
  402MOL0     H54240   5.439  11.023  10.961  1.5009 -2.9231 -3.1067
  402MOL0     H54241   5.341  11.140  10.843  0.8466  0.9796 -2.6240
  402MOL0     H54242   5.566  11.174  11.029 -1.6907 -1.6862 -0.0463
  402MOL0     H54243   5.417  11.267  11.019 -0.9483 -2.9300  0.4145
  402MOL0     H54244   5.653  11.383  10.972  0.2266 -0.5309  0.6392
  402MOL0     H54245   5.670  11.275  10.837 -1.4414 -1.3240  0.6437
  402MOL0     H54246   5.470  11.501  10.854 -0.9358 -0.1958 -0.8747
  402MOL0     H54247   5.461  11.367  10.745  3.1298 -2.2826 -3.5118
  402MOL0     H54248   5.666  11.404  10.640 -3.5501  0.4238 -2.2939
  402MOL0     H54249   5.574  11.555  10.636 -1.7905 -0.6152  0.2880
  402MOL0     H54250   5.155  10.816  11.003 -0.3924  1.3490 -0.7120
  402MOL0     H54251   4.939  10.731  11.053  1.5486 -3.0826 -0.8177
  402MOL0     H54252   4.489  10.701  10.797  0.4688 -0.5852 -0.3458
  402MOL0     H54253   4.263  10.638  10.803  1.4770 -0.7032 -1.5564
  402MOL0     H54254   2.562  10.429  11.146 -0.8420 -1.1801  0.2538
  402MOL0     H54255   2.334  10.493  11.187  0.1780  1.9943  0.2752
  402MOL0     H54256   1.912  10.436  10.944 -2.7529 -1.7225 -0.8241
  402MOL0     H54257   1.688  10.475  10.858 -0.6706 -1.9520  2.3758
  402MOL0     H54258   1.424  10.841  11.003 -2.8019  0.4127  1.0961
  402MOL0     H54259   1.425  10.706  11.115 -1.1632 -1.3918 -0.6128
  402MOL0     H54260   1.262  10.713  10.859 -2.1403  1.6823  0.0648
  402MOL0     H54261   1.199  10.744  11.026  0.0675 -1.3878  2.3887
  402MOL0     H54262   1.261  10.512  11.092 -0.9791 -0.6381 -0.2553
  402MOL0     H54263   1.324  10.485  10.938  0.6139  1.0420 -0.4298
  402MOL0     H54264   1.080  10.529  10.842 -0.4411 -1.5983 -0.7319
  402MOL0     H54265   1.100  10.393  10.950  0.2578  1.4125 -0.1152
  402MOL0     H54266   0.857  10.633  11.192  0.2475 -3.0184  1.7939
  402MOL0     H54267   1.647  10.822  11.106 -0.9554 -0.7581 -0.7186
  402MOL0     H54268   1.951  10.888  11.123 -0.9530 -1.0312 -2.2469
  402MOL0     H54269   1.820  10.882  11.247 -2.6677 -2.5434 -0.6092
  402MOL0     H54270   1.958  10.778  11.271  1.5133  1.8665 -0.4377
  403MOL0     O54271   2.699   4.322   6.109 -0.2034 -0.1051 -0.3146
  403MOL0     C54272   2.714   4.238   6.199 -0.7073  0.1117 -0.5132
  403MOL0     O54273   2.621   4.177   6.267  0.2226  0.4810 -0.8289
  403MOL0     C54274   2.496   4.214   6.226 -0.0971  0.4508  0.2004
  403MOL0     C54275   2.439   4.333   6.281  0.3809  0.1448 -0.8449
  403MOL0     C54276   2.325   4.384   6.226 -0.0427  0.0211  0.0938
  403MOL0     C54277   2.255   4.317   6.126  0.3810 -0.2470  0.1258
  403MOL0     O54278   2.136   4.374   6.078 -0.3783 -0.6843  0.3417
  403MOL0     C54279   2.061   4.464   6.154 -0.1173 -0.3132 -0.2157
  403MOL0     C54280   1.927   4.502   6.085  0.2265 -0.8008  0.4055
  403MOL0     C54281   1.839   4.387   6.077 -0.2872  0.2310 -0.3966
  403MOL0     C54282   1.708   4.426   6.009 -0.1498  0.0472 -0.0784
  403MOL0     C54283   1.636   4.300   5.975 -0.1366  1.2543  0.4973
  403MOL0     C54284   1.563   4.216   6.090  0.1041 -0.1312 -0.3527
  403MOL0     C54285   1.497   4.090   6.031 -0.4937  0.1692  0.1334
  403MOL0     C54286   1.453   3.997   6.141 -0.3844  0.4820  0.1920
  403MOL0     N54287   1.411   3.885   6.065 -0.1576  0.7963  0.9603
  403MOL0     C54288   1.486   3.782   6.003  0.5824 -0.4292 -0.4343
  403MOL0     C54289   1.389   3.700   5.953  0.2360 -0.0570 -1.3816
  403MOL0     C54290   1.422   3.606   5.837 -0.3136  0.0248 -0.3683
  403MOL0     C54291   1.550   3.521   5.874 -0.0463 -0.1967  1.2867
  403MOL0     C54292   1.562   3.414   5.770  0.4806  0.3334 -0.0814
  403MOL0     C54293   1.701   3.341   5.782  0.1590  0.4028 -0.0682
  403MOL0     O54294   1.718   3.242   5.680  0.1567 -0.7474 -0.1519
  403MOL0     C54295   1.839   3.173   5.677  0.3317  0.9490 -0.7159
  403MOL0     C54296   1.822   3.038   5.651  1.1992 -0.4286 -0.0104
  403MOL0     C54297   1.932   2.953   5.658 -0.2875 -0.2907 -0.5085
  403MOL0     C54298   2.067   3.001   5.686 -0.6425  0.2850 -0.2674
  403MOL0     C54299   2.178   2.906   5.664 -0.3605 -0.0579  0.4348
  403MOL0     O54300   2.161   2.789   5.601  0.5458 -0.2285 -0.3704
  403MOL0     C54301   2.273   2.712   5.583  0.0188  1.2950  0.6294
  403MOL0     C54302   2.412   2.735   5.569 -0.6547 -0.2105 -1.0449
  403MOL0     C54303   2.508   2.638   5.534 -0.0650  0.4757  0.6221
  403MOL0     C54304   2.463   2.509   5.501  0.6108  1.3419  0.4444
  403MOL0     O54305   2.542   2.408   5.452  0.4964  0.5383 -0.0592
  403MOL0     C54306   2.643   2.373   5.542 -0.4350  0.2857 -0.1037
  403MOL0     C54307   2.710   2.237   5.501  0.4425 -0.2698  0.0218
  403MOL0     C54308   2.649   2.097   5.538  0.1253  0.3276 -0.8308
  403MOL0     C54309   2.745   1.983   5.502  0.3323 -0.1630 -0.7347
  403MOL0     C54310   2.679   1.841   5.521  0.0673  0.4824  0.4933
  403MOL0     C54311   2.783   1.729   5.528 -0.0824 -0.4309  0.1773
  403MOL0     C54312   2.724   1.593   5.574 -0.0741 -0.6639  0.4535
  403MOL0     C54313   2.740   1.568   5.722 -0.1065  0.3558 -0.5555
  403MOL0    Cl54314   2.902   1.479   5.766 -0.2809  0.2988  0.1777
  403MOL0     C54315   2.332   2.482   5.513  0.1828 -0.1096  0.4262
  403MOL0     C54316   2.240   2.579   5.547 -0.3235  0.3614 -0.5732
  403MOL0     O54317   2.283   2.948   5.713 -0.5451 -0.1709 -0.5028
  403MOL0     C54318   2.077   3.134   5.727 -0.1666 -0.5707 -0.6541
  403MOL0     C54319   1.964   3.214   5.721  0.4352 -0.0538  0.4359
  403MOL0     N54320   1.263   3.742   5.991  0.2964  0.3848  0.2269
  403MOL0     N54321   1.275   3.855   6.048  0.0306  0.1108 -0.1967
  403MOL0     C54322   2.312   4.202   6.068  0.1708 -0.8110 -0.5742
  403MOL0     C54323   2.435   4.153   6.119  0.5467 -0.7093  0.3032
  403MOL0     C54324   2.847   4.199   6.245 -0.5930  0.4684 -0.7543
  403MOL0     C54325   2.852   4.121   6.368  0.0002 -0.0707  0.7016
  403MOL0     C54326   2.965   4.071   6.425  0.6748  0.8943  0.2410
  403MOL0     C54327   3.091   4.096   6.365  0.4864 -0.1590  0.1226
  403MOL0     O54328   3.199   4.066   6.438 -0.3746 -0.2089 -0.6672
  403MOL0     C54329   3.229   4.151   6.549 -0.2128  0.0037 -0.4812
  403MOL0     C54330   3.361   4.111   6.613 -0.7817  0.6392 -0.2772
  403MOL0     C54331   3.374   3.955   6.652  0.2004 -0.1146 -0.2418
  403MOL0     C54332   3.430   3.940   6.789  0.1723 -0.0219 -0.4106
  403MOL0     C54333   3.434   3.797   6.826 -0.3539 -0.6829  0.4857
  403MOL0     C54334   3.447   3.677   6.840  0.1655 -1.2001  0.6099
  403MOL0     C54335   3.088   4.191   6.256 -0.1134  0.7107  0.8135
  403MOL0     C54336   2.972   4.237   6.190  0.6344 -0.2812 -0.0833
  403MOL0     C54337   2.985   4.327   6.073 -0.4587  0.1664  0.5230
  403MOL0     H54338   2.491   4.391   6.355  1.1832  0.1523 -1.4096
  403MOL0     H54339   2.285   4.479   6.260  0.9839  0.3742  0.3345
  403MOL0     H54340   2.048   4.416   6.252 -2.1496  1.3663  0.4048
  403MOL0     H54341   2.115   4.559   6.162 -4.0909  2.0719  1.2873
  403MOL0     H54342   1.942   4.553   5.990 -2.0198  1.5126  1.1706
  403MOL0     H54343   1.873   4.579   6.141 -1.5097  0.5474 -2.8769
  403MOL0     H54344   1.824   4.358   6.181  3.3725  0.0945  0.2323
  403MOL0     H54345   1.895   4.309   6.025 -1.6767 -0.2312 -1.2621
  403MOL0     H54346   1.656   4.497   6.074 -0.0340  0.1090 -0.0523
  403MOL0     H54347   1.713   4.482   5.915  0.5998 -1.6917 -1.1137
  403MOL0     H54348   1.563   4.339   5.904  0.3504  1.5062  0.1262
  403MOL0     H54349   1.708   4.237   5.921 -3.2822 -0.8935 -1.5384
  403MOL0     H54350   1.636   4.182   6.165 -0.1757 -1.2830 -0.5897
  403MOL0     H54351   1.490   4.281   6.139  0.7081  0.0930  0.2641
  403MOL0     H54352   1.578   4.044   5.974  1.0101 -2.5573  4.0572
  403MOL0     H54353   1.416   4.115   5.962  2.0798 -2.7614 -4.4832
  403MOL0     H54354   1.533   3.978   6.212  1.2867  2.9896 -0.8549
  403MOL0     H54355   1.369   4.040   6.196 -0.9586  0.5071 -0.6740
  403MOL0     H54356   1.594   3.769   5.999  1.0964  3.0860 -2.1578
  403MOL0     H54357   1.347   3.528   5.823  1.5992 -1.8662 -0.6302
  403MOL0     H54358   1.444   3.664   5.747 -2.6882 -0.5360 -1.3687
  403MOL0     H54359   1.644   3.576   5.868  0.1521 -0.6620 -0.4429
  403MOL0     H54360   1.551   3.481   5.975  0.2275  0.2405  1.4591
  403MOL0     H54361   1.551   3.453   5.668 -0.9804 -3.5219 -1.5987
  403MOL0     H54362   1.480   3.343   5.788 -0.1070  1.0461  0.1157
  403MOL0     H54363   1.711   3.291   5.879 -0.5632  0.9914  0.3154
  403MOL0     H54364   1.780   3.416   5.781 -1.9576  2.7772  1.0145
  403MOL0     H54365   1.720   3.002   5.644  1.7879 -2.0807 -0.4135
  403MOL0     H54366   1.901   2.855   5.624 -2.0001  0.7358 -2.1937
  403MOL0     H54367   2.448   2.835   5.592 -1.0464 -0.4878  0.9260
  403MOL0     H54368   2.613   2.661   5.522 -0.6346  2.8698 -0.4194
  403MOL0     H54369   2.721   2.450   5.547 -1.3370  1.1540  2.1846
  403MOL0     H54370   2.595   2.353   5.638  0.8945 -2.1805  0.1350
  403MOL0     H54371   2.731   2.246   5.394 -0.9347 -0.9333 -0.3293
  403MOL0     H54372   2.807   2.236   5.551  0.7294 -1.3221 -0.5067
  403MOL0     H54373   2.627   2.102   5.646  3.0551  3.0944 -0.2154
  403MOL0     H54374   2.556   2.094   5.480 -0.7341  0.3297  0.4876
  403MOL0     H54375   2.834   1.991   5.566  1.8026 -2.9835 -2.2332
  403MOL0     H54376   2.775   1.990   5.397 -2.6118 -0.4150 -1.6932
  403MOL0     H54377   2.601   1.819   5.448 -1.1258  0.0807  1.8529
  403MOL0     H54378   2.614   1.842   5.609 -0.5939 -2.4146  0.1463
  403MOL0     H54379   2.819   1.711   5.427  0.8525  0.2617  0.3746
  403MOL0     H54380   2.875   1.756   5.581 -1.2563  1.3987  1.4118
  403MOL0     H54381   2.763   1.514   5.508  0.1871 -0.1909  0.0350
  403MOL0     H54382   2.618   1.600   5.551  0.3377  1.6461 -1.0432
  403MOL0     H54383   2.735   1.661   5.778  2.6988  0.1598  0.2021
  403MOL0     H54384   2.652   1.512   5.754 -1.1465  1.0585 -2.0905
  403MOL0     H54385   2.301   2.382   5.483  0.5131  0.4657 -2.0171
  403MOL0     H54386   2.135   2.555   5.560 -0.5281  2.1647  1.6136
  403MOL0     H54387   2.170   3.180   5.757 -1.4247  1.6396  0.0954
  403MOL0     H54388   1.970   3.319   5.748  0.3650  0.4416 -1.3420
  403MOL0     H54389   2.260   4.170   5.978 -4.0616  0.3873  1.1684
  403MOL0     H54390   2.495   4.070   6.083  1.9828 -0.0149  1.0053
  403MOL0     H54391   2.762   4.095   6.423 -1.0864 -0.2768 -1.1092
  403MOL0     H54392   2.954   4.015   6.517  0.8643  0.9459  0.2942
  403MOL0     H54393   3.156   4.143   6.630 -0.0472 -3.0887 -0.5071
  403MOL0     H54394   3.237   4.253   6.510  0.8120  0.1372  0.0418
  403MOL0     H54395   3.369   4.162   6.709  3.7400 -1.9835  1.0333
  403MOL0     H54396   3.448   4.130   6.550 -0.9276  0.1209 -0.6454
  403MOL0     H54397   3.450   3.916   6.584  0.6664  3.5023 -2.0751
  403MOL0     H54398   3.283   3.895   6.644  2.0318 -3.2965  0.8664
  403MOL0     H54399   3.527   3.991   6.789 -0.6880  1.7172 -1.6081
  403MOL0     H54400   3.359   3.990   6.855  2.6189 -0.2263  2.6242
  403MOL0     H54401   3.459   3.577   6.876  1.7771  0.5731  5.9421
  403MOL0     H54402   3.186   4.226   6.225 -0.2581 -0.5141 -1.2825
  403MOL0     H54403   3.091   4.348   6.057 -0.0723 -1.8063  0.2911
  403MOL0     H54404   2.946   4.275   5.986  0.0434 -0.1361  0.4790
  403MOL0     H54405   2.932   4.423   6.071 -3.0563 -1.1997  0.3545
  404MOL0     O54406  11.060   7.617   1.811 -0.7655  0.6655  0.5997
  404MOL0     C54407  11.118   7.541   1.892  0.1126  0.5644 -0.5887
  404MOL0     O54408  11.247   7.494   1.879 -0.0022 -0.1358  0.1874
  404MOL0     C54409  11.310   7.511   1.755  0.2101  0.0542 -0.2509
  404MOL0     C54410  11.384   7.632   1.742  0.7827 -0.1038 -0.0377
  404MOL0     C54411  11.441   7.660   1.618  0.0644 -0.2885  1.2689
  404MOL0     C54412  11.442   7.568   1.511  0.7471  0.1914 -0.1085
  404MOL0     O54413  11.504   7.600   1.392  0.6433  0.1930 -0.2979
  404MOL0     C54414  11.561   7.500   1.301  0.1445  0.1344  0.2498
  404MOL0     C54415  11.703   7.474   1.314 -0.7232 -0.4288 -0.5593
  404MOL0     C54416  11.762   7.515   1.447 -0.0452  0.0405 -0.4267
  404MOL0     C54417  11.900   7.449   1.459 -0.3847  0.0314 -0.7518
  404MOL0     C54418  11.957   7.460   1.602  0.0393  0.0586  0.3226
  404MOL0     C54419  12.107   7.428   1.611  0.9642  0.2351 -0.3368
  404MOL0     C54420  12.133   7.353   1.740  0.8437 -0.4718 -0.3421
  404MOL0     C54421  12.285   7.325   1.761  0.0878  0.3184 -0.4744
  404MOL0     N54422  12.317   7.219   1.661  0.2297  0.1377 -0.9585
  404MOL0     C54423  12.369   7.230   1.538 -1.1718 -0.7126  0.3538
  404MOL0     C54424  12.427   7.113   1.499  0.7897 -0.1240 -0.2262
  404MOL0     C54425  12.463   7.072   1.354 -0.6583 -0.4252  0.7258
  404MOL0     C54426  12.615   7.114   1.318  0.3061  0.4404 -0.1858
  404MOL0     C54427  12.670   7.069   1.187 -0.0540 -0.2365  0.5770
  404MOL0     C54428  12.802   7.144   1.139  0.3957  0.2483 -0.3639
  404MOL0     O54429  12.899   7.140   1.245  0.3552  0.5980  0.6187
  404MOL0     C54430  13.030   7.165   1.211 -0.2697  0.5908 -0.6426
  404MOL0     C54431  13.076   7.227   1.085 -0.3124  0.3742 -0.6080
  404MOL0     C54432  13.215   7.224   1.057 -0.2418  0.4337 -0.0867
  404MOL0     C54433  13.313   7.172   1.145  0.2236  0.8139 -0.1031
  404MOL0     C54434  13.457   7.182   1.114 -0.0415 -0.7412  0.7954
  404MOL0     O54435  13.498   7.283   1.028 -0.4796  0.2435 -0.0795
  404MOL0     C54436  13.634   7.304   1.013 -0.0350  0.1819  0.6336
  404MOL0     C54437  13.716   7.228   0.935  0.1012  0.1791  0.1677
  404MOL0     C54438  13.856   7.254   0.923  0.5245 -0.1092  0.1702
  404MOL0     C54439  13.907   7.372   0.987 -0.3797 -0.2154  0.3880
  404MOL0     O54440  14.039   7.394   0.976 -0.0824  0.0854  0.2888
  404MOL0     C54441  14.102   7.502   1.052  1.5100 -0.0373 -0.0961
  404MOL0     C54442  14.242   7.503   1.032 -0.6622 -0.3769  0.1349
  404MOL0     C54443  14.289   7.568   0.906  0.3842 -0.0451 -0.0841
  404MOL0     C54444  14.279   7.488   0.783 -0.1592  0.0632  0.3258
  404MOL0     C54445  14.358   7.553   0.659 -0.6253  0.0366  0.4444
  404MOL0     C54446  14.334   7.460   0.541  0.6680 -0.2962  0.0335
  404MOL0     C54447  14.412   7.511   0.413 -0.3024  0.8141  0.3536
  404MOL0     C54448  14.414   7.406   0.297  0.4227  0.1507 -0.1384
  404MOL0    Cl54449  14.505   7.464   0.163 -0.5219 -0.4115 -0.1780
  404MOL0     C54450  13.817   7.450   1.068 -0.4795  0.2269  0.0600
  404MOL0     C54451  13.688   7.416   1.083  0.6361  0.2258 -0.2134
  404MOL0     O54452  13.526   7.112   1.175  0.1544 -0.0528  0.2953
  404MOL0     C54453  13.260   7.116   1.267  0.0059 -0.9218 -0.7164
  404MOL0     C54454  13.124   7.113   1.298  0.0086  0.1637  0.1318
  404MOL0     N54455  12.405   7.028   1.605  0.1858 -0.0987  0.3491
  404MOL0     N54456  12.347   7.090   1.700 -0.5175  0.6389 -0.4098
  404MOL0     C54457  11.373   7.443   1.535  0.9279  0.3663  0.0967
  404MOL0     C54458  11.311   7.412   1.656  0.3242 -0.3701  0.2373
  404MOL0     C54459  11.067   7.515   2.028  0.7380 -0.3646 -0.0158
  404MOL0     C54460  11.146   7.510   2.153  0.5077 -0.0146  0.5375
  404MOL0     C54461  11.086   7.484   2.278  0.3466 -0.0366  0.1564
  404MOL0     C54462  10.953   7.475   2.286  0.8099  0.7013  0.0211
  404MOL0     O54463  10.898   7.459   2.418 -0.2489 -0.1332  0.0949
  404MOL0     C54464  10.752   7.455   2.438 -0.1987 -0.9340  0.2276
  404MOL0     C54465  10.685   7.590   2.428 -0.1887  0.3606 -0.1402
  404MOL0     C54466  10.535   7.591   2.434  0.3693  0.2815 -0.2989
  404MOL0     C54467  10.462   7.520   2.310 -0.2896 -0.0310 -0.3615
  404MOL0     C54468  10.461   7.607   2.190 -0.1694  0.0596  1.5180
  404MOL0     C54469  10.487   7.698   2.110  0.1161  0.2025 -0.0324
  404MOL0     C54470  10.874   7.481   2.167 -0.4616  0.1463 -0.0776
  404MOL0     C54471  10.926   7.503   2.041 -0.4586 -0.7174  0.4770
  404MOL0     C54472  10.833   7.496   1.919 -0.2619 -0.4784 -0.0378
  404MOL0     H54473  11.383   7.713   1.814 -1.0305  0.4615 -0.6365
  404MOL0     H54474  11.485   7.757   1.598 -0.0480 -0.2590  1.1669
  404MOL0     H54475  11.513   7.403   1.315  0.2346  0.1116  0.4031
  404MOL0     H54476  11.538   7.534   1.199 -1.7923  1.3529  1.0163
  404MOL0     H54477  11.756   7.535   1.241 -2.3176  0.2096 -1.2322
  404MOL0     H54478  11.736   7.375   1.282  1.7116 -0.3286  1.2907
  404MOL0     H54479  11.703   7.475   1.530  1.5255 -0.2983  0.5564
  404MOL0     H54480  11.753   7.622   1.464 -0.0920 -0.1376  0.7139
  404MOL0     H54481  11.882   7.344   1.436  0.8084 -1.0396  2.6160
  404MOL0     H54482  11.971   7.489   1.386  2.4129  0.2015  1.8907
  404MOL0     H54483  11.956   7.558   1.650  0.7511 -0.3383  1.1716
  404MOL0     H54484  11.906   7.387   1.665 -1.4283  0.5028 -0.3104
  404MOL0     H54485  12.125   7.361   1.527 -2.0419 -1.6691  0.3919
  404MOL0     H54486  12.160   7.524   1.613  1.0634  0.1696  0.1084
  404MOL0     H54487  12.077   7.259   1.738 -1.0896  0.5746  0.7343
  404MOL0     H54488  12.107   7.409   1.831  1.0663 -1.4285  0.3289
  404MOL0     H54489  12.344   7.416   1.752  0.0824  0.3617 -0.0784
  404MOL0     H54490  12.305   7.283   1.860  0.5947  2.4799  0.3908
  404MOL0     H54491  12.353   7.311   1.467  2.4099 -0.3253 -0.1743
  404MOL0     H54492  12.450   6.965   1.338  0.5441 -0.2638 -1.8580
  404MOL0     H54493  12.396   7.122   1.283  0.1597 -0.5326 -0.1498
  404MOL0     H54494  12.613   7.223   1.320 -0.9299  0.4178  0.4949
  404MOL0     H54495  12.678   7.065   1.393  0.5338 -0.5777 -1.0096
  404MOL0     H54496  12.589   7.091   1.117  0.5744  0.0430 -0.0732
  404MOL0     H54497  12.690   6.961   1.185  1.7739  0.0734 -0.3133
  404MOL0     H54498  12.766   7.245   1.117 -0.1222 -0.0712 -1.0108
  404MOL0     H54499  12.848   7.119   1.043  2.0875  3.9389 -0.7040
  404MOL0     H54500  13.012   7.274   1.011  1.0619  1.9104 -0.8888
  404MOL0     H54501  13.244   7.258   0.958 -1.1303 -0.1616 -0.5762
  404MOL0     H54502  13.677   7.134   0.896  0.2170 -0.2665  1.1196
  404MOL0     H54503  13.930   7.195   0.871  0.1468  1.0543 -1.8200
  404MOL0     H54504  14.060   7.595   1.013 -0.1476  0.2561  2.1799
  404MOL0     H54505  14.059   7.498   1.153 -0.4051 -1.3764 -0.8921
  404MOL0     H54506  14.283   7.549   1.122 -1.9018 -0.6199  0.8401
  404MOL0     H54507  14.277   7.399   1.021  2.8486  0.6587  0.1452
  404MOL0     H54508  14.231   7.660   0.890  0.9424  0.0857 -1.5092
  404MOL0     H54509  14.393   7.601   0.916  0.2037  0.1701  1.1998
  404MOL0     H54510  14.175   7.472   0.752  0.0691  2.1899 -1.9085
  404MOL0     H54511  14.318   7.387   0.800 -0.3084 -0.0552 -0.0189
  404MOL0     H54512  14.463   7.554   0.689 -0.7312  2.9081  1.0012
  404MOL0     H54513  14.320   7.652   0.633  0.7899  0.2547 -0.8820
  404MOL0     H54514  14.366   7.361   0.574  1.4408  0.3640  1.3584
  404MOL0     H54515  14.229   7.460   0.509  0.6005 -2.7816  0.1056
  404MOL0     H54516  14.514   7.538   0.439 -1.1755  4.0832  0.7485
  404MOL0     H54517  14.366   7.604   0.377  0.1991  1.7705  2.0947
  404MOL0     H54518  14.459   7.312   0.329  1.8303 -0.4328 -3.4274
  404MOL0     H54519  14.312   7.376   0.271 -0.4127  0.7585  2.1978
  404MOL0     H54520  13.844   7.540   1.121  0.7539 -1.3433  2.2612
  404MOL0     H54521  13.625   7.471   1.152  1.7483  1.5950 -0.2344
  404MOL0     H54522  13.326   7.056   1.329  0.8800 -2.4927 -3.0432
  404MOL0     H54523  13.100   7.048   1.382 -1.8157  0.6024 -0.0040
  404MOL0     H54524  11.380   7.370   1.455 -1.6488  1.2067 -1.0053
  404MOL0     H54525  11.277   7.309   1.669  0.9459 -0.4225  1.6382
  404MOL0     H54526  11.253   7.524   2.142  0.7225 -0.7792  1.5103
  404MOL0     H54527  11.152   7.462   2.362 -0.3470  0.8667  0.9677
  404MOL0     H54528  10.734   7.405   2.534 -0.7353  0.5237  0.9142
  404MOL0     H54529  10.704   7.388   2.365  1.3493  0.0584 -1.7951
  404MOL0     H54530  10.721   7.638   2.336  0.9630 -0.6376 -0.2379
  404MOL0     H54531  10.717   7.648   2.515 -1.4707  1.1749 -0.1776
  404MOL0     H54532  10.492   7.691   2.444 -0.4560 -0.2424  2.4159
  404MOL0     H54533  10.500   7.553   2.531 -1.9055  1.7825 -0.4659
  404MOL0     H54534  10.507   7.421   2.300  0.7602  0.0706  2.5066
  404MOL0     H54535  10.356   7.504   2.334 -0.6441  0.2362 -1.7113
  404MOL0     H54536  10.498   7.771   2.033 -2.4781  0.6792 -0.0436
  404MOL0     H54537  10.768   7.461   2.177 -0.2283 -1.6654 -0.7934
  404MOL0     H54538  10.795   7.584   1.867  0.1720 -0.3935 -0.2081
  404MOL0     H54539  10.873   7.436   1.837 -1.4132  1.1133 -1.8542
  404MOL0     H54540  10.746   7.441   1.957 -1.1152  0.1246 -1.0784
  405MOL0     O54541  10.167   5.937   4.118 -0.2035 -0.5531  0.4738
  405MOL0     C54542  10.076   5.867   4.059  0.2508 -0.5748 -0.0090
  405MOL0     O54543  10.061   5.854   3.921  0.0444 -0.2157 -0.2788
  405MOL0     C54544  10.159   5.881   3.840 -0.0918 -0.1397  0.0795
  405MOL0     C54545  10.226   5.773   3.776 -0.3279 -0.0778  1.2716
  405MOL0     C54546  10.339   5.801   3.685  0.2031 -0.1327 -0.0270
  405MOL0     C54547  10.376   5.940   3.663  0.3767  0.0400  0.3760
  405MOL0     O54548  10.472   5.988   3.571  0.3160 -0.0830 -0.0110
  405MOL0     C54549  10.581   5.893   3.545 -0.2593 -0.1393 -0.1971
  405MOL0     C54550  10.700   5.959   3.499 -0.4197 -0.7297 -0.4165
  405MOL0     C54551  10.803   5.856   3.454  0.0528  0.9705  0.0190
  405MOL0     C54552  10.921   5.922   3.379  0.5042 -0.3558  0.1971
  405MOL0     C54553  11.032   5.833   3.330  0.6983 -0.4343 -0.2859
  405MOL0     C54554  11.130   5.929   3.254  0.1737 -0.6140  0.3414
  405MOL0     C54555  11.206   5.861   3.141 -0.0275 -1.1247 -0.1929
  405MOL0     C54556  11.307   5.762   3.189  0.1186  1.2504 -0.3127
  405MOL0     N54557  11.399   5.727   3.084 -1.4754 -0.2965  0.0871
  405MOL0     C54558  11.535   5.732   3.103 -0.4943 -0.3528 -0.6940
  405MOL0     C54559  11.592   5.662   3.002  0.5990 -0.0589 -0.4383
  405MOL0     C54560  11.737   5.634   2.994  0.2592  0.1412  0.1211
  405MOL0     C54561  11.771   5.549   2.882  0.3161  0.0236 -0.5771
  405MOL0     C54562  11.732   5.596   2.743  0.2801  0.5793 -0.1615
  405MOL0     C54563  11.855   5.601   2.651 -0.6790 -0.3469  0.0015
  405MOL0     O54564  11.891   5.475   2.634  0.0417 -0.2167  0.0074
  405MOL0     C54565  11.957   5.436   2.521  1.0726 -0.2809 -0.1900
  405MOL0     C54566  12.081   5.493   2.501 -0.4970  0.0510 -0.2169
  405MOL0     C54567  12.162   5.452   2.395  0.4341 -0.3583  0.6575
  405MOL0     C54568  12.105   5.366   2.295  0.1102  1.3439 -0.1993
  405MOL0     C54569  12.186   5.341   2.174 -1.1247 -0.3222  0.9433
  405MOL0     O54570  12.283   5.430   2.138  0.2571 -0.2620  0.2060
  405MOL0     C54571  12.365   5.398   2.030  1.0126 -0.7858 -0.4868
  405MOL0     C54572  12.332   5.431   1.900 -0.0679  0.4390 -0.0470
  405MOL0     C54573  12.412   5.415   1.785 -0.3297 -1.1257 -0.2483
  405MOL0     C54574  12.545   5.377   1.808 -0.2878 -0.3340 -0.0317
  405MOL0     O54575  12.633   5.387   1.700 -0.1157  0.5539  0.2388
  405MOL0     C54576  12.771   5.389   1.721 -0.1107 -0.2550 -0.0183
  405MOL0     C54577  12.825   5.250   1.714 -0.5341  0.5840 -0.6695
  405MOL0     C54578  12.980   5.253   1.717  0.0126 -0.1103 -0.7447
  405MOL0     C54579  13.017   5.110   1.694 -0.4066 -0.6006 -0.0450
  405MOL0     C54580  13.172   5.091   1.697  0.1731 -0.6475 -0.1855
  405MOL0     C54581  13.216   4.951   1.668 -0.0332 -0.2118 -0.1497
  405MOL0     C54582  13.367   4.948   1.689  0.0449  0.3813 -0.1848
  405MOL0     C54583  13.420   4.838   1.610 -0.7047 -0.0252  0.0586
  405MOL0    Cl54584  13.589   4.835   1.667  0.1993 -0.3165 -0.3669
  405MOL0     C54585  12.584   5.347   1.942 -0.1414  0.1964 -0.1824
  405MOL0     C54586  12.493   5.357   2.055  0.0305 -0.2718  0.1106
  405MOL0     O54587  12.152   5.245   2.106  0.2517  0.3250 -0.3086
  405MOL0     C54588  11.977   5.299   2.314 -0.3033  0.2449 -0.3086
  405MOL0     C54589  11.904   5.338   2.428  0.3735 -1.4410  0.1556
  405MOL0     N54590  11.483   5.604   2.927 -0.0974 -0.2305  0.0124
  405MOL0     N54591  11.373   5.635   2.979 -0.0938  0.6741 -0.0212
  405MOL0     C54592  10.310   6.041   3.735  0.3876  0.3036 -1.0334
  405MOL0     C54593  10.201   6.010   3.821 -0.1132  0.2827 -0.2659
  405MOL0     C54594   9.968   5.812   4.135  0.3945 -0.7348 -0.9143
  405MOL0     C54595   9.853   5.762   4.067  0.1137 -0.5165  0.3895
  405MOL0     C54596   9.731   5.746   4.136 -0.7803  0.3721  0.3345
  405MOL0     C54597   9.725   5.763   4.270 -0.5732 -0.2278  0.2306
  405MOL0     O54598   9.619   5.736   4.349  0.5869 -0.2610  0.3970
  405MOL0     C54599   9.489   5.767   4.303 -0.9635 -0.6918  0.0074
  405MOL0     C54600   9.404   5.814   4.413  0.1603 -0.2129  0.0609
  405MOL0     C54601   9.459   5.948   4.465 -1.0195  0.2066  0.2338
  405MOL0     C54602   9.344   6.010   4.545  0.3118 -0.2925  1.0552
  405MOL0     C54603   9.374   6.154   4.567 -0.6268 -0.4277  0.5844
  405MOL0     C54604   9.414   6.265   4.601 -0.1762  0.5112 -0.4614
  405MOL0     C54605   9.838   5.804   4.338  0.8962  1.3776 -0.0091
  405MOL0     C54606   9.960   5.815   4.276  0.6890 -0.6093 -0.2016
  405MOL0     C54607  10.070   5.865   4.372 -0.1614  0.1674  0.7975
  405MOL0     H54608  10.199   5.668   3.772 -1.3523  0.2030 -2.5110
  405MOL0     H54609  10.391   5.722   3.631 -2.4700 -1.2400 -1.1617
  405MOL0     H54610  10.606   5.832   3.631 -0.8500 -0.1761 -0.0489
  405MOL0     H54611  10.557   5.815   3.473 -0.8471 -0.7608  0.6549
  405MOL0     H54612  10.737   6.020   3.582 -2.3681  1.6245 -1.1611
  405MOL0     H54613  10.672   6.026   3.418 -0.8604 -1.8152 -1.1826
  405MOL0     H54614  10.750   5.788   3.386  0.3485  3.3470 -2.8303
  405MOL0     H54615  10.848   5.793   3.531  0.0048 -1.5061 -1.8418
  405MOL0     H54616  10.870   5.962   3.291 -0.0232 -0.9795  0.2086
  405MOL0     H54617  10.953   6.013   3.430 -1.6245  1.5418 -1.6286
  405MOL0     H54618  11.084   5.784   3.412  1.2119 -2.1511 -1.5809
  405MOL0     H54619  10.991   5.758   3.262  1.1402 -1.3780  0.4679
  405MOL0     H54620  11.072   6.015   3.220 -3.1564 -1.6395  2.8999
  405MOL0     H54621  11.205   5.966   3.325  1.4664  1.9342 -2.1464
  405MOL0     H54622  11.252   5.931   3.071  2.6828 -1.8864  0.7271
  405MOL0     H54623  11.132   5.807   3.081 -2.8300  2.2336 -0.1148
  405MOL0     H54624  11.363   5.802   3.275 -1.0473  2.3385 -0.0401
  405MOL0     H54625  11.258   5.670   3.223  1.5603  2.1476  5.3295
  405MOL0     H54626  11.594   5.790   3.174 -2.2843 -0.0212  0.5733
  405MOL0     H54627  11.789   5.728   2.972 -2.4176  1.5145 -0.7757
  405MOL0     H54628  11.775   5.594   3.088  2.4704  0.3725 -0.6213
  405MOL0     H54629  11.879   5.535   2.895  0.0130 -1.9389  0.1164
  405MOL0     H54630  11.726   5.450   2.889 -3.8598  1.6979 -0.8021
  405MOL0     H54631  11.690   5.696   2.759  1.1189  0.7806  0.9218
  405MOL0     H54632  11.652   5.537   2.697 -2.0853  2.5476  1.1792
  405MOL0     H54633  11.940   5.654   2.695  0.4829 -1.2081 -1.1577
  405MOL0     H54634  11.829   5.654   2.558 -0.3580  1.4253  0.8810
  405MOL0     H54635  12.126   5.560   2.574 -0.5825  0.8192 -0.8620
  405MOL0     H54636  12.264   5.490   2.389  0.8127 -1.2812  1.1019
  405MOL0     H54637  12.235   5.477   1.893 -0.2914  0.0375  0.3144
  405MOL0     H54638  12.379   5.451   1.688  3.4606  1.8201 -0.6949
  405MOL0     H54639  12.813   5.435   1.632  1.1793  0.9369  1.1488
  405MOL0     H54640  12.795   5.460   1.802  0.9209 -1.4599  0.7671
  405MOL0     H54641  12.783   5.195   1.799 -1.1749 -1.7274 -2.3757
  405MOL0     H54642  12.798   5.198   1.622  0.2271  0.8243 -1.0395
  405MOL0     H54643  13.023   5.319   1.641 -0.6046  0.0907 -0.9223
  405MOL0     H54644  13.009   5.284   1.818  0.0723  3.0922 -1.6556
  405MOL0     H54645  12.969   5.071   1.603  0.3452  2.9940 -2.1591
  405MOL0     H54646  12.967   5.055   1.774 -4.6619  1.9805 -0.6411
  405MOL0     H54647  13.206   5.108   1.800  1.4882 -2.8409 -0.2052
  405MOL0     H54648  13.218   5.164   1.629  1.1541  2.0067  3.0055
  405MOL0     H54649  13.148   4.875   1.707 -3.2396  1.6201 -1.7939
  405MOL0     H54650  13.207   4.936   1.560  0.4057  2.0528 -0.5533
  405MOL0     H54651  13.397   4.933   1.794 -0.0310  2.5504  0.1850
  405MOL0     H54652  13.408   5.043   1.656 -0.9672  1.0166  0.3268
  405MOL0     H54653  13.366   4.746   1.630  0.1815 -1.2514 -2.5988
  405MOL0     H54654  13.419   4.861   1.503 -1.3278  0.5264  0.1734
  405MOL0     H54655  12.683   5.309   1.965  1.2772  3.2207 -0.7495
  405MOL0     H54656  12.527   5.341   2.157  1.2621  2.2962  0.1718
  405MOL0     H54657  11.933   5.229   2.245 -1.1465  1.0180 -0.5630
  405MOL0     H54658  11.812   5.290   2.457  0.1546 -1.2681 -0.2404
  405MOL0     H54659  10.338   6.145   3.728  1.8830 -0.0262 -0.3856
  405MOL0     H54660  10.143   6.091   3.864  1.2416  2.7231 -2.7230
  405MOL0     H54661   9.853   5.753   3.959 -0.5813 -1.9833  0.4906
  405MOL0     H54662   9.640   5.712   4.087 -0.2470  1.5000 -1.5289
  405MOL0     H54663   9.457   5.683   4.241  2.9862 -0.7977 -2.3007
  405MOL0     H54664   9.506   5.853   4.237  0.0739 -2.0982 -1.6568
  405MOL0     H54665   9.396   5.748   4.500 -4.6291  2.3150  1.9293
  405MOL0     H54666   9.305   5.833   4.370  0.7826  1.3383 -0.7657
  405MOL0     H54667   9.475   6.015   4.381 -0.1094 -0.5970 -0.2437
  405MOL0     H54668   9.550   5.922   4.519 -2.7028 -1.1356  2.6554
  405MOL0     H54669   9.246   6.003   4.496  1.3192  1.0161 -1.2835
  405MOL0     H54670   9.327   5.958   4.640 -3.2903  1.8173  1.7320
  405MOL0     H54671   9.441   6.357   4.648  1.8859 -0.5475  0.5708
  405MOL0     H54672   9.829   5.822   4.445 -0.7857 -0.3408  0.2019
  405MOL0     H54673  10.056   5.974   4.378 -0.9731  0.1500 -0.4703
  405MOL0     H54674  10.055   5.824   4.472 -0.4399 -1.1774  0.2197
  405MOL0     H54675  10.167   5.842   4.326 -1.6782 -0.2135 -2.4579
  406MOL0     O54676   8.094   5.300   7.515  0.0720 -0.8892  0.1129
  406MOL0     C54677   8.123   5.420   7.517 -0.3008 -0.3354  0.4401
  406MOL0     O54678   8.054   5.511   7.589  0.1075  0.5505  0.1084
  406MOL0     C54679   7.980   5.471   7.698  1.0667  0.2235  0.0724
  406MOL0     C54680   7.850   5.529   7.708 -0.4018  0.0331 -1.6156
  406MOL0     C54681   7.766   5.495   7.817  0.3569  0.2703 -0.3224
  406MOL0     C54682   7.802   5.394   7.911 -0.2482  0.5533 -0.0314
  406MOL0     O54683   7.723   5.357   8.016 -0.3275 -0.5358 -1.3028
  406MOL0     C54684   7.631   5.456   8.055 -0.5101  0.3149  0.7831
  406MOL0     C54685   7.576   5.421   8.196  0.3906  0.4158  0.1225
  406MOL0     C54686   7.678   5.466   8.296 -0.8952 -0.6510 -0.6908
  406MOL0     C54687   7.626   5.435   8.437 -0.0081 -0.3337 -0.4757
  406MOL0     C54688   7.713   5.453   8.553 -0.9881 -0.6800  1.4547
  406MOL0     C54689   7.747   5.597   8.565 -0.0269 -0.2356  0.2561
  406MOL0     C54690   7.808   5.631   8.709  0.0885  0.4740  0.2773
  406MOL0     C54691   7.949   5.568   8.730  0.3523 -0.5888  0.1693
  406MOL0     N54692   7.987   5.611   8.869 -0.8670 -0.0310  0.6993
  406MOL0     C54693   7.973   5.729   8.925  0.3943  0.0054 -0.8497
  406MOL0     C54694   8.028   5.709   9.050 -0.1244 -0.9750 -0.7306
  406MOL0     C54695   8.045   5.811   9.166 -0.8178 -0.3596 -0.6365
  406MOL0     C54696   8.190   5.819   9.237 -0.2914  0.2593 -0.6209
  406MOL0     C54697   8.192   5.915   9.354  0.3245  0.5363 -0.6592
  406MOL0     C54698   8.334   5.955   9.410  0.0926  0.2220 -0.6244
  406MOL0     O54699   8.417   6.013   9.308  0.1384  0.2941 -0.4340
  406MOL0     C54700   8.527   6.091   9.357 -0.3417 -0.2003 -0.2558
  406MOL0     C54701   8.606   6.047   9.465 -0.0914 -0.4339 -0.2722
  406MOL0     C54702   8.731   6.097   9.496 -0.5772  0.3936  1.3189
  406MOL0     C54703   8.789   6.187   9.411  0.1246 -1.1746  0.0529
  406MOL0     C54704   8.929   6.238   9.442  0.1282 -0.5156  0.2391
  406MOL0     O54705   9.019   6.160   9.510 -1.0202  0.2779  0.7410
  406MOL0     C54706   9.152   6.192   9.503 -0.4334 -0.2460 -0.4081
  406MOL0     C54707   9.246   6.107   9.444 -0.5045 -0.4445 -0.3864
  406MOL0     C54708   9.385   6.136   9.434 -0.0844  0.5738  0.1193
  406MOL0     C54709   9.438   6.251   9.492  0.0161 -0.4185 -0.0269
  406MOL0     O54710   9.579   6.263   9.483  0.1752 -0.3640 -0.2540
  406MOL0     C54711   9.651   6.354   9.571  0.4729  0.1135 -0.5467
  406MOL0     C54712   9.804   6.314   9.574 -0.7122  0.0326 -0.2887
  406MOL0     C54713   9.867   6.350   9.440  0.6983 -0.7581 -0.7765
  406MOL0     C54714  10.015   6.317   9.442 -0.2978 -0.4084  0.0723
  406MOL0     C54715  10.109   6.392   9.534 -0.5770 -1.3928 -0.5549
  406MOL0     C54716  10.082   6.555   9.521  0.1626 -0.1706 -0.1217
  406MOL0     C54717  10.201   6.647   9.549 -0.4152  0.0194  0.2788
  406MOL0     C54718  10.290   6.682   9.425 -0.0436  0.7722 -0.1941
  406MOL0    Cl54719  10.413   6.550   9.413  0.5598 -0.0275  0.1296
  406MOL0     C54720   9.346   6.351   9.543  0.2104  0.3345 -0.0208
  406MOL0     C54721   9.207   6.316   9.546  0.1737  0.0687  0.4116
  406MOL0     O54722   8.960   6.346   9.395  0.1264  0.2960 -0.2411
  406MOL0     C54723   8.708   6.237   9.307  0.5570 -0.0172 -0.7254
  406MOL0     C54724   8.581   6.184   9.272  0.2086  0.1655 -0.5493
  406MOL0     N54725   8.078   5.581   9.064 -0.5164  0.7510  0.0600
  406MOL0     N54726   8.050   5.519   8.952  0.4911  0.9331  0.5602
  406MOL0     C54727   7.925   5.340   7.899 -0.1656 -0.3839 -0.7198
  406MOL0     C54728   8.012   5.375   7.796 -1.2751 -0.5787  0.2497
  406MOL0     C54729   8.246   5.478   7.454 -0.4879  0.5635 -0.5194
  406MOL0     C54730   8.312   5.580   7.525  0.7407 -0.7103 -0.5433
  406MOL0     C54731   8.440   5.628   7.488  0.2495  0.0261 -0.1062
  406MOL0     C54732   8.497   5.594   7.363  0.6419  0.3448 -0.9475
  406MOL0     O54733   8.610   5.647   7.314 -0.0539 -0.4826  0.4126
  406MOL0     C54734   8.728   5.593   7.378  0.2141 -0.6301 -0.2029
  406MOL0     C54735   8.843   5.601   7.277  0.4682 -0.1514 -0.5781
  406MOL0     C54736   8.807   5.517   7.145  0.6639  0.2643 -1.4155
  406MOL0     C54737   8.908   5.489   7.040 -0.4954  0.9331 -0.4400
  406MOL0     C54738   9.013   5.390   7.069 -0.4682 -0.3298 -0.2698
  406MOL0     C54739   9.102   5.314   7.095 -0.2219 -0.1301  0.6740
  406MOL0     C54740   8.420   5.505   7.287  0.3989  0.5178  0.1062
  406MOL0     C54741   8.299   5.437   7.333 -0.4473 -0.0442 -0.0949
  406MOL0     C54742   8.233   5.330   7.256  0.2302  0.8451  0.8069
  406MOL0     H54743   7.810   5.610   7.648 -0.9290  2.0413  1.2741
  406MOL0     H54744   7.679   5.559   7.823 -0.6909 -0.8911 -2.2389
  406MOL0     H54745   7.668   5.559   8.059  0.5323  0.0451 -0.9694
  406MOL0     H54746   7.548   5.450   7.984  0.2476 -0.3714 -0.0595
  406MOL0     H54747   7.551   5.315   8.201 -1.3197  0.8525  2.2847
  406MOL0     H54748   7.486   5.474   8.227  1.7682  2.9175  0.1281
  406MOL0     H54749   7.695   5.574   8.299 -0.8967 -0.6570 -0.3694
  406MOL0     H54750   7.778   5.422   8.292 -0.2123  0.4405  1.7620
  406MOL0     H54751   7.537   5.496   8.458  0.3483  0.2258 -0.5603
  406MOL0     H54752   7.590   5.332   8.442 -4.4603  1.0714  2.3230
  406MOL0     H54753   7.654   5.425   8.641 -1.5383  0.3612  1.4396
  406MOL0     H54754   7.810   5.403   8.546 -0.5280  0.4185 -2.5415
  406MOL0     H54755   7.811   5.619   8.478 -1.1892 -0.5797 -0.7205
  406MOL0     H54756   7.660   5.661   8.547 -0.8981 -0.9553  1.7889
  406MOL0     H54757   7.738   5.595   8.785 -0.3244  1.9212  0.6171
  406MOL0     H54758   7.822   5.739   8.700  2.9433  0.1893  0.3660
  406MOL0     H54759   7.944   5.460   8.714  0.5357 -0.8023  1.4304
  406MOL0     H54760   8.020   5.617   8.662 -1.3272  0.1906 -1.0992
  406MOL0     H54761   7.946   5.824   8.879 -0.0292 -0.4414 -1.5580
  406MOL0     H54762   8.038   5.909   9.117  0.8140  0.0574 -0.1048
  406MOL0     H54763   7.962   5.795   9.235 -0.4950 -2.4706 -0.6818
  406MOL0     H54764   8.212   5.717   9.269 -1.1207 -0.1414 -1.2573
  406MOL0     H54765   8.249   5.850   9.151  1.3334 -0.2556  0.2822
  406MOL0     H54766   8.130   5.874   9.435  2.3496 -3.4594 -0.8882
  406MOL0     H54767   8.133   6.005   9.339 -1.5984 -0.5532  0.0338
  406MOL0     H54768   8.378   5.868   9.460 -0.9305 -0.2002 -0.4305
  406MOL0     H54769   8.312   6.028   9.488  0.6464  1.2296 -1.3734
  406MOL0     H54770   8.572   5.967   9.529 -0.5304 -0.2076 -0.2192
  406MOL0     H54771   8.785   6.055   9.581 -0.3342 -2.9042 -0.2799
  406MOL0     H54772   9.203   6.015   9.405  0.8079 -0.6934 -1.2959
  406MOL0     H54773   9.457   6.065   9.394 -1.1203  0.2778 -1.3009
  406MOL0     H54774   9.639   6.459   9.542  0.0536  0.7075  1.6252
  406MOL0     H54775   9.609   6.347   9.672 -1.0714  2.7037 -0.8966
  406MOL0     H54776   9.848   6.382   9.647 -1.7191 -0.2907  0.6435
  406MOL0     H54777   9.836   6.210   9.591 -0.0328 -0.2809 -2.9199
  406MOL0     H54778   9.820   6.299   9.356  2.2116 -0.6813 -1.7076
  406MOL0     H54779   9.849   6.458   9.434  2.8777  0.2083  4.2059
  406MOL0     H54780  10.054   6.339   9.342 -0.9202  0.2922 -0.0289
  406MOL0     H54781  10.037   6.213   9.467 -0.5096 -0.1937  1.2128
  406MOL0     H54782  10.213   6.374   9.505  0.0673 -1.7721  1.7982
  406MOL0     H54783  10.106   6.372   9.641  2.5804 -0.0449 -0.1083
  406MOL0     H54784  10.048   6.568   9.418 -1.4197  1.2841  0.5304
  406MOL0     H54785  10.001   6.582   9.590  0.6934 -0.2662  0.5584
  406MOL0     H54786  10.268   6.605   9.624 -0.7259 -0.1542  0.4618
  406MOL0     H54787  10.159   6.745   9.577  0.5681  0.8607 -1.0948
  406MOL0     H54788  10.223   6.693   9.339 -0.4455  0.1841  0.0359
  406MOL0     H54789  10.335   6.781   9.429 -1.7307  1.5349  1.2026
  406MOL0     H54790   9.373   6.450   9.578  1.6611  0.3476 -1.0890
  406MOL0     H54791   9.131   6.388   9.574 -0.9072  0.4157 -2.9911
  406MOL0     H54792   8.752   6.315   9.245  1.8018 -0.5929 -0.5859
  406MOL0     H54793   8.524   6.197   9.181 -0.1374  0.8527 -0.2419
  406MOL0     H54794   7.950   5.266   7.974 -0.0857  0.7884  0.4394
  406MOL0     H54795   8.104   5.320   7.778 -2.8155 -2.6220 -2.1083
  406MOL0     H54796   8.260   5.615   7.613  0.2257 -2.7133 -0.0013
  406MOL0     H54797   8.476   5.711   7.547  1.7773  1.4778 -2.8851
  406MOL0     H54798   8.708   5.490   7.410  1.4539 -1.4871 -2.0744
  406MOL0     H54799   8.757   5.663   7.457  2.7229  0.4294 -1.9480
  406MOL0     H54800   8.931   5.561   7.327 -1.5509 -2.5038  1.3848
  406MOL0     H54801   8.863   5.707   7.258 -1.8109  1.5098  4.4757
  406MOL0     H54802   8.717   5.559   7.101  0.4610  2.4845  0.8943
  406MOL0     H54803   8.792   5.421   7.194 -1.4144  1.5405  0.6418
  406MOL0     H54804   8.851   5.430   6.968  2.1879 -2.0144 -0.3706
  406MOL0     H54805   8.951   5.580   6.999  0.7057 -0.4034 -2.3006
  406MOL0     H54806   9.172   5.238   7.125  1.7886  1.2749 -0.2193
  406MOL0     H54807   8.439   5.491   7.181 -1.8299 -2.0614 -0.0629
  406MOL0     H54808   8.300   5.297   7.176  0.7476 -0.9938  1.9600
  406MOL0     H54809   8.211   5.239   7.313 -1.7795  1.2836  0.8028
  406MOL0     H54810   8.141   5.377   7.218  1.1715  1.4488 -0.8166
  407MOL0     O54811   3.548   2.479   7.545  0.0079  0.2857  0.2181
  407MOL0     C54812   3.505   2.385   7.613  0.2699  0.0759  0.1280
  407MOL0     O54813   3.586   2.296   7.678  0.3208 -0.6592 -0.1954
  407MOL0     C54814   3.711   2.334   7.730 -0.7101  0.0270  0.2852
  407MOL0     C54815   3.808   2.407   7.658  0.6096 -0.3363  0.5157
  407MOL0     C54816   3.920   2.447   7.717 -0.4160 -0.0675  0.3304
  407MOL0     C54817   3.949   2.406   7.844 -0.4970 -0.1146 -0.3716
  407MOL0     O54818   4.050   2.462   7.913 -0.6582  0.2229 -0.0675
  407MOL0     C54819   4.174   2.424   7.860  0.0446  0.3352 -0.2588
  407MOL0     C54820   4.255   2.555   7.863 -0.0897  0.5211 -0.0670
  407MOL0     C54821   4.314   2.582   7.996 -0.0132  0.3750  0.6781
  407MOL0     C54822   4.404   2.702   7.986  0.4068  0.1028 -0.2252
  407MOL0     C54823   4.443   2.746   8.123 -0.6853  0.1048  0.9069
  407MOL0     C54824   4.590   2.812   8.127 -0.8421 -0.4813  0.3142
  407MOL0     C54825   4.633   2.920   8.018  0.9256  0.4203 -0.1092
  407MOL0     C54826   4.757   3.008   8.058 -0.5291 -0.0932  0.2713
  407MOL0     N54827   4.858   2.931   8.118 -0.0046  0.2032  0.0907
  407MOL0     C54828   4.962   2.861   8.067 -0.6870 -0.5014  1.0731
  407MOL0     C54829   5.023   2.812   8.173  0.4231 -0.6406  0.1233
  407MOL0     C54830   5.145   2.724   8.168  0.8521 -0.3288  0.7803
  407MOL0     C54831   5.135   2.602   8.259 -0.1617  0.0917 -0.1445
  407MOL0     C54832   5.273   2.523   8.245  0.6463 -0.3633  0.2515
  407MOL0     C54833   5.270   2.404   8.332 -0.2929 -0.4448 -0.3058
  407MOL0     O54834   5.409   2.355   8.336 -0.2648 -0.8101  0.0406
  407MOL0     C54835   5.469   2.303   8.444 -0.2318 -0.2382 -0.3532
  407MOL0     C54836   5.402   2.276   8.564 -0.0588 -0.6240  0.9346
  407MOL0     C54837   5.469   2.223   8.678 -0.7215 -0.6908  0.4182
  407MOL0     C54838   5.608   2.198   8.675  1.1138 -1.1576  0.3369
  407MOL0     C54839   5.687   2.156   8.796 -0.5288  0.4450  0.8890
  407MOL0     O54840   5.632   2.083   8.896 -0.2243  0.3678  0.0833
  407MOL0     C54841   5.715   2.036   8.998  0.4162  0.2864 -0.5537
  407MOL0     C54842   5.704   2.075   9.132 -0.8570 -1.0799  0.3211
  407MOL0     C54843   5.805   2.052   9.231 -0.4714  0.6478 -0.1323
  407MOL0     C54844   5.907   1.957   9.210 -0.3357 -0.2180 -0.6892
  407MOL0     O54845   5.996   1.905   9.302  0.1887 -0.4939  0.3325
  407MOL0     C54846   6.000   1.975   9.428 -0.0307 -0.2884  0.1595
  407MOL0     C54847   6.114   1.910   9.508 -0.7586  0.2034  0.4404
  407MOL0     C54848   6.246   1.919   9.430  0.1014  0.7339 -0.1704
  407MOL0     C54849   6.359   1.851   9.506 -0.3982 -0.0234  0.4891
  407MOL0     C54850   6.497   1.901   9.467  0.1890 -0.1477 -0.7519
  407MOL0     C54851   6.525   1.881   9.321  0.3501 -0.1376 -0.9446
  407MOL0     C54852   6.650   1.955   9.287 -0.3353  0.0049 -0.4429
  407MOL0     C54853   6.675   1.940   9.135 -0.6313 -0.7604 -0.5134
  407MOL0    Cl54854   6.828   2.016   9.092  0.3183  0.3429 -0.6145
  407MOL0     C54855   5.920   1.899   9.077 -0.4789 -0.2237  0.1441
  407MOL0     C54856   5.815   1.932   8.982  0.1064 -0.1319  0.0690
  407MOL0     O54857   5.811   2.170   8.784 -0.4196 -0.1033  0.3878
  407MOL0     C54858   5.677   2.209   8.550  0.7302  0.0431 -0.2398
  407MOL0     C54859   5.603   2.256   8.443  0.7772 -0.9989 -0.6112
  407MOL0     N54860   4.961   2.859   8.289 -0.6914  0.4017 -0.0863
  407MOL0     N54861   4.867   2.928   8.252  0.2275 -0.2105  0.2684
  407MOL0     C54862   3.855   2.341   7.920 -0.2118  0.1663 -0.1948
  407MOL0     C54863   3.736   2.309   7.862 -0.6535  0.0693 -0.1355
  407MOL0     C54864   3.365   2.347   7.598 -0.3595 -0.2653  0.4116
  407MOL0     C54865   3.332   2.214   7.638  0.2711 -0.1769 -0.3080
  407MOL0     C54866   3.205   2.165   7.610  0.7680 -0.5612  0.4777
  407MOL0     C54867   3.103   2.250   7.562 -0.1871  0.3908  0.6658
  407MOL0     O54868   2.975   2.199   7.535 -0.4634  0.2749 -0.5461
  407MOL0     C54869   2.872   2.260   7.616 -0.5032  0.1283 -0.3273
  407MOL0     C54870   2.736   2.206   7.617  0.8207  0.3257  0.7793
  407MOL0     C54871   2.734   2.048   7.598 -0.2804  0.4033  0.1269
  407MOL0     C54872   2.770   1.966   7.726 -0.5055  0.4197 -1.0267
  407MOL0     C54873   2.793   1.820   7.701 -0.3741 -0.0648 -0.3612
  407MOL0     C54874   2.801   1.700   7.685  0.3600 -0.5602  0.5007
  407MOL0     C54875   3.135   2.385   7.535  0.8741  0.8057 -0.2539
  407MOL0     C54876   3.263   2.435   7.554 -0.1092  0.1233  0.3075
  407MOL0     C54877   3.283   2.583   7.525  0.2922  0.6001  0.6145
  407MOL0     H54878   3.782   2.435   7.556 -1.8026 -3.1857  0.2126
  407MOL0     H54879   3.995   2.504   7.664  0.6163 -1.4636  0.2139
  407MOL0     H54880   4.217   2.357   7.935 -0.6643  1.2107  0.9545
  407MOL0     H54881   4.179   2.378   7.761 -1.1818 -3.8866  1.4049
  407MOL0     H54882   4.192   2.642   7.841  0.7305  0.8594 -1.2095
  407MOL0     H54883   4.336   2.539   7.791  0.3965  2.0497  0.1035
  407MOL0     H54884   4.382   2.504   8.030  1.3361  0.7173 -1.1067
  407MOL0     H54885   4.234   2.586   8.071 -0.4378  2.1704  0.1854
  407MOL0     H54886   4.483   2.672   7.917  0.4936 -0.2627  0.0341
  407MOL0     H54887   4.350   2.783   7.935 -1.0073 -0.9820 -0.5301
  407MOL0     H54888   4.376   2.829   8.150 -1.2567 -0.5610  1.5718
  407MOL0     H54889   4.431   2.658   8.187  3.0974 -1.3524 -0.1200
  407MOL0     H54890   4.592   2.866   8.223 -2.4497  1.5228 -0.7022
  407MOL0     H54891   4.666   2.734   8.123 -0.6438 -0.2660 -0.3320
  407MOL0     H54892   4.552   2.979   7.975 -1.4967 -4.2797 -2.8025
  407MOL0     H54893   4.649   2.850   7.935 -0.3368 -2.4158  1.8913
  407MOL0     H54894   4.797   3.056   7.968 -0.2566 -2.8928 -1.1914
  407MOL0     H54895   4.733   3.088   8.129  3.0859  2.4636 -1.0972
  407MOL0     H54896   4.990   2.858   7.962 -1.7426 -1.4594  0.8061
  407MOL0     H54897   5.137   2.689   8.065 -1.6484 -0.8489  1.0899
  407MOL0     H54898   5.240   2.772   8.192 -0.1939  2.0670  0.3900
  407MOL0     H54899   5.116   2.645   8.358 -2.5523 -0.7071 -0.1924
  407MOL0     H54900   5.054   2.538   8.226  0.9079 -1.3479 -0.0693
  407MOL0     H54901   5.357   2.591   8.262 -0.0290  0.9709 -1.5200
  407MOL0     H54902   5.276   2.484   8.142 -1.2570  1.4900 -0.5810
  407MOL0     H54903   5.202   2.325   8.300 -1.1931  0.8736 -1.7957
  407MOL0     H54904   5.226   2.431   8.428 -0.4905 -0.4641 -0.3912
  407MOL0     H54905   5.296   2.299   8.575 -0.7895  0.0392 -4.5375
  407MOL0     H54906   5.420   2.200   8.772 -0.2283  3.2930  1.8576
  407MOL0     H54907   5.631   2.154   9.147 -2.6082 -2.9281  2.0771
  407MOL0     H54908   5.791   2.109   9.322  0.9102  0.8312 -0.0198
  407MOL0     H54909   6.023   2.082   9.421  0.4808 -0.3528  0.6823
  407MOL0     H54910   5.914   1.960   9.494 -0.3883  0.7304 -0.0624
  407MOL0     H54911   6.120   1.964   9.602 -0.8011 -2.5356  2.1223
  407MOL0     H54912   6.089   1.805   9.528  1.3642 -0.5125 -0.3162
  407MOL0     H54913   6.225   1.870   9.335 -1.9155 -0.5370  0.8692
  407MOL0     H54914   6.267   2.025   9.414  0.8942  0.5082 -0.6780
  407MOL0     H54915   6.356   1.743   9.490  3.2712 -0.1650 -0.1375
  407MOL0     H54916   6.342   1.869   9.613 -1.1846  1.6031  0.1331
  407MOL0     H54917   6.573   1.845   9.524  1.2718 -0.2008 -2.2023
  407MOL0     H54918   6.502   2.007   9.495 -4.0748 -0.5331  2.5459
  407MOL0     H54919   6.538   1.776   9.296  0.2688  0.0810 -1.9588
  407MOL0     H54920   6.441   1.922   9.263 -1.4615 -1.5905  0.4910
  407MOL0     H54921   6.734   1.909   9.340  0.0272 -1.0174 -1.8384
  407MOL0     H54922   6.634   2.059   9.314  2.1473 -0.2056  2.3444
  407MOL0     H54923   6.681   1.836   9.102 -0.2637 -0.7019 -0.6389
  407MOL0     H54924   6.590   1.991   9.089  0.5261  1.0441 -0.7372
  407MOL0     H54925   6.003   1.829   9.076  0.9128  1.1824  3.2161
  407MOL0     H54926   5.828   1.891   8.882 -1.8198  0.7915 -0.6223
  407MOL0     H54927   5.781   2.178   8.546  0.6038 -0.5261  0.7478
  407MOL0     H54928   5.635   2.256   8.339 -2.9845  1.3729 -1.9477
  407MOL0     H54929   3.875   2.325   8.025 -0.7636 -1.2432 -0.2905
  407MOL0     H54930   3.661   2.264   7.928 -0.5063 -0.2026 -0.1515
  407MOL0     H54931   3.408   2.145   7.672 -0.5803 -1.9561 -1.8845
  407MOL0     H54932   3.176   2.061   7.626  0.5020 -0.0978  3.4171
  407MOL0     H54933   2.865   2.368   7.597 -0.9058  0.2869  0.6629
  407MOL0     H54934   2.908   2.247   7.718 -1.2245 -2.5360 -0.3278
  407MOL0     H54935   2.683   2.247   7.531  1.1793  0.5704  0.6769
  407MOL0     H54936   2.680   2.232   7.708  0.8850 -2.4069  1.7091
  407MOL0     H54937   2.797   2.016   7.514 -0.8004 -0.8230  0.1833
  407MOL0     H54938   2.636   2.011   7.566  1.1684 -5.5402  1.3599
  407MOL0     H54939   2.854   2.001   7.785 -1.9187 -0.1747  1.5111
  407MOL0     H54940   2.685   1.980   7.793 -0.4625 -3.6577  0.1202
  407MOL0     H54941   2.815   1.601   7.647 -0.3349 -0.9138  1.1368
  407MOL0     H54942   3.059   2.459   7.509  0.0429  0.4549  1.0797
  407MOL0     H54943   3.372   2.599   7.464  2.0782 -3.9566  1.5745
  407MOL0     H54944   3.208   2.613   7.452  2.0124 -0.5011 -1.7488
  407MOL0     H54945   3.279   2.652   7.610 -2.0563  0.3644  0.7562
  408MOL0     O54946   7.702   1.675   1.007  0.1292  0.3048 -0.1480
  408MOL0     C54947   7.667   1.624   0.900 -0.4214  0.8528  0.2108
  408MOL0     O54948   7.749   1.567   0.808 -0.2512 -0.3574 -0.1401
  408MOL0     C54949   7.884   1.578   0.826  0.3996  0.2455  0.3385
  408MOL0     C54950   7.949   1.539   0.949  0.9410  0.1613 -0.7729
  408MOL0     C54951   8.083   1.573   0.962  0.3104 -0.0266 -0.4050
  408MOL0     C54952   8.154   1.642   0.866  0.7515  0.6059 -0.4151
  408MOL0     O54953   8.284   1.664   0.892  0.7160 -0.5618 -0.7570
  408MOL0     C54954   8.367   1.594   0.802 -1.1944  0.2014  0.2780
  408MOL0     C54955   8.355   1.448   0.817  0.8146  0.5868  0.2705
  408MOL0     C54956   8.411   1.385   0.685 -0.6185  1.0440  0.4513
  408MOL0     C54957   8.435   1.234   0.715  0.4412 -0.2910 -0.1933
  408MOL0     C54958   8.308   1.154   0.725  0.5759  0.0444 -0.0260
  408MOL0     C54959   8.349   0.997   0.762  0.3608  0.2088  0.1869
  408MOL0     C54960   8.225   0.893   0.776 -0.7980  0.1228 -0.4756
  408MOL0     C54961   8.202   0.866   0.924 -1.2075  0.1657 -0.4202
  408MOL0     N54962   8.160   0.981   1.009  0.3498  0.0503 -0.3242
  408MOL0     C54963   8.034   1.045   1.016  0.0127 -0.2914  0.2075
  408MOL0     C54964   8.057   1.141   1.123 -0.6218 -0.1247 -0.6568
  408MOL0     C54965   7.963   1.239   1.189  0.2523 -0.1191 -0.5103
  408MOL0     C54966   7.817   1.202   1.161  0.8724  0.7337 -0.2327
  408MOL0     C54967   7.738   1.287   1.261  0.7739 -0.4757  0.2961
  408MOL0     C54968   7.590   1.305   1.223  0.1966  0.3279  0.2701
  408MOL0     O54969   7.521   1.178   1.208  0.1296 -0.0069 -0.3431
  408MOL0     C54970   7.386   1.188   1.206 -0.6020 -1.0512  0.2054
  408MOL0     C54971   7.309   1.107   1.285  1.0124  0.8782 -0.7805
  408MOL0     C54972   7.172   1.111   1.278 -1.2548 -0.2279 -0.1728
  408MOL0     C54973   7.109   1.204   1.204  0.5136 -0.4269  0.1555
  408MOL0     C54974   6.958   1.202   1.205  1.4803  0.1671  0.0408
  408MOL0     O54975   6.901   1.162   1.324  0.3671 -0.2936  0.0464
  408MOL0     C54976   6.772   1.190   1.352  0.3495 -0.9058 -0.3369
  408MOL0     C54977   6.670   1.086   1.355  0.7099  0.4126  0.9659
  408MOL0     C54978   6.538   1.119   1.364  1.1092 -0.5096  1.1637
  408MOL0     C54979   6.502   1.256   1.396  0.1603  0.0645  0.2836
  408MOL0     O54980   6.369   1.293   1.416 -0.1011 -0.3056 -0.9611
  408MOL0     C54981   6.257   1.205   1.367 -0.2643 -0.1189 -0.6465
  408MOL0     C54982   6.118   1.258   1.439  0.4923  0.5831  0.0359
  408MOL0     C54983   6.101   1.192   1.577 -0.0671 -0.6778 -0.2683
  408MOL0     C54984   5.964   1.224   1.641 -0.5155  0.3598 -0.3040
  408MOL0     C54985   5.965   1.311   1.764  0.4183 -0.6171 -0.0429
  408MOL0     C54986   5.987   1.464   1.727 -0.3083 -0.1184 -0.9485
  408MOL0     C54987   6.023   1.538   1.866 -0.0610  0.9119  0.2865
  408MOL0     C54988   5.896   1.617   1.907 -0.2708 -0.6178 -0.1247
  408MOL0    Cl54989   5.750   1.519   1.922  0.0783  0.2427 -0.2396
  408MOL0     C54990   6.604   1.352   1.396  0.1205 -0.7491  0.0839
  408MOL0     C54991   6.736   1.327   1.368  1.1851  1.2514 -0.5938
  408MOL0     O54992   6.902   1.262   1.116  0.3966  0.1548  0.2345
  408MOL0     C54993   7.184   1.287   1.118  0.4426 -0.4316 -0.1312
  408MOL0     C54994   7.322   1.284   1.116 -0.9494  0.5862 -0.0134
  408MOL0     N54995   8.192   1.128   1.160 -0.9889 -0.3001  0.5497
  408MOL0     N54996   8.247   1.037   1.100  0.5181  0.8213  0.5131
  408MOL0     C54997   8.096   1.676   0.747 -0.1996 -0.4256 -0.0787
  408MOL0     C54998   7.958   1.643   0.722 -0.4461  0.0497  0.7843
  408MOL0     C54999   7.526   1.581   0.879  0.2579  0.3322  0.3977
  408MOL0     C55000   7.491   1.503   0.761 -0.2785  0.4430 -0.1869
  408MOL0     C55001   7.361   1.477   0.731 -0.6411  0.4854 -0.7059
  408MOL0     C55002   7.258   1.522   0.813  0.2526  0.7000 -0.4358
  408MOL0     O55003   7.135   1.495   0.764  0.6620  0.1283 -0.5311
  408MOL0     C55004   7.022   1.541   0.841 -0.4039 -1.1352  0.1234
  408MOL0     C55005   6.884   1.517   0.771  0.3107 -0.2181 -0.0905
  408MOL0     C55006   6.895   1.377   0.705  0.1850  0.2103 -0.4010
  408MOL0     C55007   6.768   1.332   0.632 -0.5423  0.5537  0.4708
  408MOL0     C55008   6.740   1.413   0.517  0.3757 -0.4485 -0.2263
  408MOL0     C55009   6.696   1.487   0.428 -0.2814  0.1532 -0.7058
  408MOL0     C55010   7.290   1.599   0.928 -1.4500  0.1136 -0.4649
  408MOL0     C55011   7.422   1.634   0.954 -0.3698 -0.6148 -0.2905
  408MOL0     C55012   7.447   1.735   1.067 -0.4467 -0.4801  0.4879
  408MOL0     H55013   7.897   1.479   1.024 -1.2521 -0.3329 -2.5904
  408MOL0     H55014   8.133   1.553   1.056 -0.7133 -1.1497 -0.0650
  408MOL0     H55015   8.328   1.604   0.701 -0.4188  0.2789 -0.0196
  408MOL0     H55016   8.474   1.619   0.800 -0.0816 -3.7474  1.6003
  408MOL0     H55017   8.255   1.406   0.831  0.9051  0.7386  1.4278
  408MOL0     H55018   8.415   1.417   0.903 -1.9577 -1.6902  1.5207
  408MOL0     H55019   8.499   1.446   0.666 -0.4341  0.4296 -0.7463
  408MOL0     H55020   8.340   1.399   0.604  0.2822  2.7154 -0.0885
  408MOL0     H55021   8.501   1.187   0.642  1.1830  0.2652  0.1077
  408MOL0     H55022   8.484   1.223   0.812 -0.9874 -1.2456  0.4539
  408MOL0     H55023   8.247   1.181   0.811 -0.3974 -1.8049 -0.1088
  408MOL0     H55024   8.249   1.157   0.633 -1.9526 -2.6709  1.3711
  408MOL0     H55025   8.399   0.969   0.669  1.7319 -1.6180  1.3992
  408MOL0     H55026   8.424   1.001   0.842  1.5111 -0.9632 -0.7914
  408MOL0     H55027   8.246   0.810   0.708  1.6166 -0.3051  0.6782
  408MOL0     H55028   8.136   0.926   0.723 -2.2640 -3.0469 -0.2488
  408MOL0     H55029   8.120   0.793   0.930 -0.5167 -0.6634 -0.7894
  408MOL0     H55030   8.292   0.820   0.965 -0.8531 -0.5847 -1.9509
  408MOL0     H55031   7.939   1.030   0.965 -1.0161  5.3782 -0.2058
  408MOL0     H55032   7.991   1.235   1.294 -1.4479 -3.1108 -0.0549
  408MOL0     H55033   7.988   1.342   1.163 -0.9568  0.9596  2.2443
  408MOL0     H55034   7.799   1.222   1.055  2.2065 -1.3852 -0.9242
  408MOL0     H55035   7.805   1.095   1.178  1.7986  0.5538 -0.6273
  408MOL0     H55036   7.786   1.383   1.281 -0.3342  0.0065  0.6989
  408MOL0     H55037   7.744   1.238   1.358  0.5352 -2.7184 -0.7458
  408MOL0     H55038   7.585   1.356   1.126  2.5651 -1.3715 -0.8787
  408MOL0     H55039   7.549   1.368   1.301 -1.2612 -0.6721  0.3597
  408MOL0     H55040   7.338   1.029   1.355 -1.9338  1.8567  1.7250
  408MOL0     H55041   7.105   1.052   1.340 -3.9201  3.7657  1.1412
  408MOL0     H55042   6.698   0.982   1.344  1.5310  0.6320  0.9786
  408MOL0     H55043   6.453   1.052   1.356 -1.9780  2.9715  1.9153
  408MOL0     H55044   6.249   1.195   1.259 -0.5613  0.3503 -0.6733
  408MOL0     H55045   6.264   1.101   1.398 -0.6102 -0.8559 -2.9184
  408MOL0     H55046   6.114   1.367   1.454 -0.9298  0.3909  1.3237
  408MOL0     H55047   6.041   1.235   1.366  2.7521 -2.0643 -1.7281
  408MOL0     H55048   6.111   1.084   1.558  1.4666 -0.4691 -0.8078
  408MOL0     H55049   6.188   1.204   1.643 -1.0730  1.3310  0.7610
  408MOL0     H55050   5.912   1.130   1.663 -2.2908  1.1381 -0.9860
  408MOL0     H55051   5.906   1.274   1.563 -0.0707  0.8893 -0.2978
  408MOL0     H55052   6.038   1.277   1.837  0.1704 -0.7510  0.1420
  408MOL0     H55053   5.864   1.309   1.805 -0.1987 -0.5640 -1.4739
  408MOL0     H55054   6.072   1.477   1.660 -0.4298  2.3929 -0.7121
  408MOL0     H55055   5.902   1.503   1.671 -1.6418 -1.4744  0.0404
  408MOL0     H55056   6.099   1.614   1.845 -1.2436  1.9941 -0.2313
  408MOL0     H55057   6.055   1.470   1.945  1.7420  0.6208 -0.6317
  408MOL0     H55058   5.910   1.685   1.992 -2.9787  2.7215 -2.0764
  408MOL0     H55059   5.877   1.694   1.831  0.4407 -0.3779 -0.0649
  408MOL0     H55060   6.566   1.451   1.421 -1.8503 -1.0727 -1.4278
  408MOL0     H55061   6.807   1.404   1.395 -1.2650  3.4094 -0.0019
  408MOL0     H55062   7.128   1.369   1.074 -2.9961 -1.9643  0.9726
  408MOL0     H55063   7.379   1.346   1.047  1.4213 -1.6035 -0.1816
  408MOL0     H55064   8.143   1.747   0.680  1.3065 -1.4626 -0.1584
  408MOL0     H55065   7.929   1.662   0.619  4.4836 -1.4646 -1.1845
  408MOL0     H55066   7.560   1.486   0.680  2.4939  2.6475  1.4965
  408MOL0     H55067   7.337   1.415   0.645  0.0833 -1.6336  0.5467
  408MOL0     H55068   7.029   1.648   0.864  0.9196 -1.3810  0.9752
  408MOL0     H55069   7.021   1.493   0.939  0.2166  0.8613  1.1668
  408MOL0     H55070   6.843   1.597   0.708  0.5403  0.5105  0.6591
  408MOL0     H55071   6.815   1.518   0.857  1.4142  0.4908  0.8149
  408MOL0     H55072   6.900   1.296   0.779 -0.9418  1.1580  0.7526
  408MOL0     H55073   6.978   1.362   0.635 -1.7442 -2.8560 -2.2797
  408MOL0     H55074   6.785   1.227   0.605  2.0497  1.2860 -1.0527
  408MOL0     H55075   6.681   1.351   0.696 -0.4755  0.0529  0.7180
  408MOL0     H55076   6.656   1.542   0.346 -1.5191 -0.7174 -0.7017
  408MOL0     H55077   7.217   1.655   0.985 -0.5059 -1.2259  2.2309
  408MOL0     H55078   7.348   1.752   1.111 -0.1198 -0.4969  1.2277
  408MOL0     H55079   7.496   1.678   1.146 -0.2258 -2.6911 -1.1291
  408MOL0     H55080   7.502   1.828   1.052 -1.6610  0.1101 -0.5266
  409MOL0     O55081   5.413   0.924   2.653  0.8033  0.2669 -0.7387
  409MOL0     C55082   5.508   0.846   2.649 -0.5932  0.6477  0.7542
  409MOL0     O55083   5.491   0.710   2.682  0.4453 -0.6192  0.4736
  409MOL0     C55084   5.363   0.664   2.721 -1.1157 -0.7011  0.1340
  409MOL0     C55085   5.270   0.609   2.632 -0.5314  0.1552  0.0810
  409MOL0     C55086   5.142   0.570   2.675 -0.3415 -0.4795  0.5482
  409MOL0     C55087   5.105   0.585   2.810  0.6082 -0.2425 -0.7864
  409MOL0     O55088   4.979   0.553   2.855 -0.3594  0.3146  0.3246
  409MOL0     C55089   4.977   0.441   2.947  0.2848  0.2974 -0.2563
  409MOL0     C55090   4.839   0.361   2.952 -0.3304  0.4971  0.3250
  409MOL0     C55091   4.734   0.444   3.014 -0.3425 -0.3863  0.5119
  409MOL0     C55092   4.601   0.373   2.979 -0.3781 -0.3869  0.5127
  409MOL0     C55093   4.476   0.451   3.034 -0.3919 -0.0262 -0.2782
  409MOL0     C55094   4.350   0.363   3.019  0.1874  0.2731  0.1979
  409MOL0     C55095   4.228   0.425   3.083 -0.2787  0.4339  0.1322
  409MOL0     C55096   4.163   0.526   2.994  0.0833  0.3608 -0.4899
  409MOL0     N55097   4.123   0.486   2.852 -0.2138  0.2056  0.0362
  409MOL0     C55098   4.206   0.516   2.745  0.9182 -0.7464 -0.1586
  409MOL0     C55099   4.158   0.429   2.650  0.2088 -0.4626 -0.4703
  409MOL0     C55100   4.200   0.435   2.504  0.2687 -0.0812  0.3149
  409MOL0     C55101   4.092   0.387   2.405  0.3886  0.3993 -1.1859
  409MOL0     C55102   3.977   0.494   2.401 -0.0723  0.3521 -0.5518
  409MOL0     C55103   3.886   0.481   2.279 -0.4113  0.1769  0.6897
  409MOL0     O55104   3.959   0.474   2.147 -0.7420  0.2180  0.4289
  409MOL0     C55105   4.012   0.592   2.093  0.6985 -0.1064 -0.1580
  409MOL0     C55106   4.073   0.582   1.969  0.1097  0.8814 -0.0955
  409MOL0     C55107   4.124   0.692   1.903  0.7655  0.2929 -0.7700
  409MOL0     C55108   4.100   0.822   1.949  0.6162  0.3200  0.2038
  409MOL0     C55109   4.149   0.932   1.865  0.0866 -0.6347 -0.1489
  409MOL0     O55110   4.128   1.062   1.915  0.5059  0.3445  0.4577
  409MOL0     C55111   4.129   1.174   1.837  0.6583 -0.5541 -0.1505
  409MOL0     C55112   4.245   1.213   1.771 -0.2020  1.2806  0.3479
  409MOL0     C55113   4.269   1.331   1.706  0.3348  0.6619 -0.3146
  409MOL0     C55114   4.162   1.417   1.693  0.1525  0.1014  0.1137
  409MOL0     O55115   4.185   1.524   1.614  0.1742 -0.6165  0.0664
  409MOL0     C55116   4.129   1.642   1.674  0.1831  0.0144 -0.3875
  409MOL0     C55117   4.195   1.779   1.643 -1.2616  0.1832  0.6291
  409MOL0     C55118   4.152   1.831   1.501 -0.3476  0.6131  0.5244
  409MOL0     C55119   4.234   1.949   1.441 -0.5435 -0.0238 -0.4826
  409MOL0     C55120   4.375   1.917   1.423  0.0540  0.1280  0.1087
  409MOL0     C55121   4.426   2.012   1.319 -0.1000  0.4100  0.2079
  409MOL0     C55122   4.575   1.980   1.287 -0.1046  0.3910 -0.0597
  409MOL0     C55123   4.644   2.102   1.217 -0.8301  0.4996  0.3542
  409MOL0    Cl55124   4.592   2.262   1.282  0.4623  0.2635 -0.0692
  409MOL0     C55125   4.035   1.381   1.755 -0.7824 -0.3013 -0.2598
  409MOL0     C55126   4.022   1.263   1.826 -0.6172 -0.3997 -0.2304
  409MOL0     O55127   4.207   0.907   1.760 -0.2060 -0.2909  0.2812
  409MOL0     C55128   4.031   0.835   2.082  0.3599  0.1200 -0.0458
  409MOL0     C55129   3.986   0.721   2.145 -0.1623  0.0867 -0.6578
  409MOL0     N55130   4.068   0.337   2.709 -0.1329 -0.2449  0.0249
  409MOL0     N55131   4.046   0.384   2.832  0.6261 -0.6691 -0.2584
  409MOL0     C55132   5.200   0.632   2.897  0.5554  0.2445  0.1957
  409MOL0     C55133   5.321   0.681   2.855  0.8051  0.8003  0.8955
  409MOL0     C55134   5.648   0.890   2.638 -0.5845  0.1891 -0.0968
  409MOL0     C55135   5.738   0.797   2.602 -0.5873 -0.1819 -0.6395
  409MOL0     C55136   5.875   0.828   2.597  0.0088 -0.4012  0.1976
  409MOL0     C55137   5.924   0.953   2.627  0.8914 -0.1875 -0.1476
  409MOL0     O55138   6.057   0.988   2.631 -0.0615 -0.5314  0.1792
  409MOL0     C55139   6.160   0.890   2.592 -0.2770  0.4491 -0.1835
  409MOL0     C55140   6.288   0.968   2.598 -0.2653 -0.1543  0.1091
  409MOL0     C55141   6.410   0.884   2.546 -0.3198  0.8214 -0.1613
  409MOL0     C55142   6.516   0.972   2.476  0.4943  0.0177 -0.4019
  409MOL0     C55143   6.577   1.053   2.580 -0.3333 -0.7385 -1.1200
  409MOL0     C55144   6.630   1.121   2.658 -0.3561 -0.1539 -0.4281
  409MOL0     C55145   5.834   1.052   2.651  0.5755 -0.2922 -0.9824
  409MOL0     C55146   5.693   1.023   2.657 -0.4145  0.6346 -0.0870
  409MOL0     C55147   5.602   1.139   2.692  0.1683  0.8574 -0.0985
  409MOL0     H55148   5.294   0.620   2.527 -2.6362 -2.0114 -0.7005
  409MOL0     H55149   5.074   0.528   2.601 -0.3528 -0.3650  0.4932
  409MOL0     H55150   5.054   0.367   2.920  1.1708  1.1061  0.0057
  409MOL0     H55151   5.000   0.492   3.041  0.7925  2.5479 -1.5276
  409MOL0     H55152   4.858   0.267   3.004 -0.7158 -0.2949 -0.9050
  409MOL0     H55153   4.816   0.324   2.851  0.3222 -1.7650  0.9415
  409MOL0     H55154   4.742   0.543   2.970  3.9164 -0.1526  1.4262
  409MOL0     H55155   4.753   0.445   3.121 -0.6186 -1.8955  0.6090
  409MOL0     H55156   4.583   0.367   2.871 -2.7504  2.6560  0.6169
  409MOL0     H55157   4.610   0.274   3.026 -1.6115 -0.0316  1.5328
  409MOL0     H55158   4.483   0.472   3.141 -1.4896  3.7610 -0.8141
  409MOL0     H55159   4.483   0.550   2.989 -1.7689  0.9822  1.5806
  409MOL0     H55160   4.342   0.331   2.915  0.1980  0.4594  0.1402
  409MOL0     H55161   4.365   0.272   3.079  0.1918 -0.1393 -0.4168
  409MOL0     H55162   4.254   0.477   3.175 -0.4898  1.8488 -0.5733
  409MOL0     H55163   4.155   0.346   3.105 -0.1658 -0.3139 -1.9359
  409MOL0     H55164   4.077   0.574   3.040  0.7222  3.1969 -2.0230
  409MOL0     H55165   4.236   0.605   2.974 -0.3375  0.6879 -0.7381
  409MOL0     H55166   4.271   0.600   2.723 -1.4024  1.3124  0.4517
  409MOL0     H55167   4.235   0.536   2.482  1.7261 -0.6956 -0.3261
  409MOL0     H55168   4.289   0.370   2.502  2.0118  2.1751  0.7882
  409MOL0     H55169   4.140   0.390   2.306 -2.6938  0.1837 -2.7909
  409MOL0     H55170   4.056   0.286   2.425 -0.3856  0.2646 -3.0798
  409MOL0     H55171   4.012   0.596   2.421 -0.7675  0.1332  2.1148
  409MOL0     H55172   3.917   0.481   2.491 -1.8359  3.6619 -1.0921
  409MOL0     H55173   3.808   0.557   2.275 -2.0317 -1.4406  0.6926
  409MOL0     H55174   3.823   0.392   2.284 -1.6771  1.0683  0.9847
  409MOL0     H55175   4.065   0.480   1.932 -0.0864  0.4615  1.0666
  409MOL0     H55176   4.159   0.677   1.802 -0.6697  1.8606 -1.5566
  409MOL0     H55177   4.319   1.134   1.771 -3.1224 -1.6783 -1.4089
  409MOL0     H55178   4.356   1.367   1.653 -0.4636  4.3293  0.6091
  409MOL0     H55179   4.024   1.647   1.643  0.6541  3.6249 -1.9320
  409MOL0     H55180   4.132   1.636   1.783 -2.1423  0.2790 -0.2647
  409MOL0     H55181   4.162   1.854   1.716 -3.9339 -1.3636  1.1640
  409MOL0     H55182   4.304   1.768   1.645 -1.2887 -1.6837 -2.2819
  409MOL0     H55183   4.169   1.747   1.432 -0.6481  0.8254  0.1868
  409MOL0     H55184   4.044   1.846   1.494 -0.2766  0.7505 -0.5318
  409MOL0     H55185   4.234   2.038   1.504 -0.1180 -1.0915  1.0591
  409MOL0     H55186   4.191   1.968   1.342 -2.0975 -2.7630 -0.4529
  409MOL0     H55187   4.389   1.818   1.379  0.0950  0.0573  0.2759
  409MOL0     H55188   4.426   1.913   1.520  0.1289  0.6399  0.0912
  409MOL0     H55189   4.375   2.006   1.223  1.8102 -0.2677 -0.8121
  409MOL0     H55190   4.411   2.110   1.365  0.9046 -0.3233  2.2341
  409MOL0     H55191   4.581   1.892   1.223 -1.2895 -1.0213  1.6650
  409MOL0     H55192   4.615   1.959   1.387  1.7387 -0.7879 -0.9849
  409MOL0     H55193   4.753   2.094   1.226 -0.6552 -0.7021 -1.9281
  409MOL0     H55194   4.601   2.090   1.117 -3.1507 -4.4014  1.6554
  409MOL0     H55195   3.952   1.451   1.749 -0.1966  0.5326  0.8741
  409MOL0     H55196   3.936   1.236   1.887 -0.1516  0.1155  0.6681
  409MOL0     H55197   3.999   0.928   2.128  1.7305 -0.2229  1.7058
  409MOL0     H55198   3.928   0.733   2.236 -0.0973 -0.8588 -0.4771
  409MOL0     H55199   5.184   0.642   3.004  2.9350  1.6454  0.4868
  409MOL0     H55200   5.392   0.728   2.922  2.5191  0.1118 -0.3810
  409MOL0     H55201   5.703   0.697   2.579 -1.7045  0.0941 -0.1681
  409MOL0     H55202   5.944   0.750   2.565  0.7681 -0.2206  1.3146
  409MOL0     H55203   6.150   0.841   2.495 -1.7984 -1.0493  0.6872
  409MOL0     H55204   6.170   0.812   2.668  0.6416  0.1118 -0.6389
  409MOL0     H55205   6.303   1.016   2.695 -1.2399  2.7085 -1.0442
  409MOL0     H55206   6.294   1.051   2.526 -0.7463  1.8933  2.3074
  409MOL0     H55207   6.377   0.810   2.473 -0.0038 -1.0173  1.4653
  409MOL0     H55208   6.441   0.825   2.633 -1.3027  3.0624  1.8646
  409MOL0     H55209   6.599   0.909   2.440  1.0253  0.1973  0.4769
  409MOL0     H55210   6.474   1.031   2.394  0.4810 -1.2513 -1.3516
  409MOL0     H55211   6.693   1.182   2.720 -1.0421 -1.2496  1.4189
  409MOL0     H55212   5.872   1.153   2.667  0.9963 -0.1759 -2.5112
  409MOL0     H55213   5.557   1.181   2.602  0.0496  2.0576  0.4992
  409MOL0     H55214   5.531   1.100   2.765 -0.1847 -2.6527 -2.0756
  409MOL0     H55215   5.659   1.219   2.739  1.3188  0.4471 -0.7443
  410MOL0     O55216  11.301   5.466   5.794 -0.2823  0.2257 -0.3996
  410MOL0     C55217  11.199   5.436   5.730  0.0510 -0.4129 -0.1527
  410MOL0     O55218  11.199   5.413   5.590  0.3781 -0.0787 -0.1416
  410MOL0     C55219  11.287   5.485   5.514 -0.2469 -0.2892 -0.4319
  410MOL0     C55220  11.343   5.610   5.540 -0.6060 -0.1790 -0.0157
  410MOL0     C55221  11.423   5.676   5.451 -0.4767 -0.5904  0.4254
  410MOL0     C55222  11.437   5.635   5.319  0.2656  0.3040  0.1853
  410MOL0     O55223  11.499   5.710   5.222  0.0773 -0.2753 -0.7213
  410MOL0     C55224  11.580   5.823   5.263  0.6107  0.4306 -0.5688
  410MOL0     C55225  11.719   5.785   5.310 -0.7919  0.3415 -0.1030
  410MOL0     C55226  11.811   5.912   5.305 -0.3180 -0.8013  1.0002
  410MOL0     C55227  11.960   5.881   5.321  0.3402 -0.6804 -0.9624
  410MOL0     C55228  12.044   6.005   5.309 -0.1429 -0.1771  0.1542
  410MOL0     C55229  12.087   6.031   5.168  0.0004 -0.0349 -0.1639
  410MOL0     C55230  12.142   6.176   5.163  0.7679  0.6782 -0.6400
  410MOL0     C55231  12.145   6.225   5.010  0.2376  0.3956 -0.2205
  410MOL0     N55232  12.208   6.351   5.008 -0.5128 -0.8435 -0.6005
  410MOL0     C55233  12.345   6.373   5.004 -0.3291  0.1681 -0.0013
  410MOL0     C55234  12.364   6.507   5.031  0.1318  0.4094  0.1908
  410MOL0     C55235  12.504   6.566   5.015  0.3644  0.0366  0.9401
  410MOL0     C55236  12.532   6.625   4.871 -0.3953 -0.1501 -0.6075
  410MOL0     C55237  12.682   6.636   4.831  0.3434  1.3484  0.0508
  410MOL0     C55238  12.776   6.677   4.946  1.1587 -0.4670 -0.6720
  410MOL0     O55239  12.760   6.826   4.963  0.6977  0.4707  0.5057
  410MOL0     C55240  12.765   6.851   5.098 -0.9187 -0.0646  0.4711
  410MOL0     C55241  12.649   6.895   5.162 -0.0873 -0.1401 -0.8753
  410MOL0     C55242  12.634   6.926   5.297 -0.3261  0.2555 -0.3430
  410MOL0     C55243  12.751   6.917   5.370 -0.2263  0.2289 -0.8057
  410MOL0     C55244  12.751   6.947   5.516 -0.3541  0.5010 -0.0005
  410MOL0     O55245  12.630   6.928   5.573 -0.0019 -0.3985  0.1814
  410MOL0     C55246  12.608   6.940   5.707  0.0844  1.0771  0.1865
  410MOL0     C55247  12.507   7.023   5.765  0.4772 -0.8394 -0.5204
  410MOL0     C55248  12.488   7.036   5.901 -0.5063 -0.0887 -0.3294
  410MOL0     C55249  12.582   6.975   5.988 -0.1532  0.6413 -0.3285
  410MOL0     O55250  12.587   7.002   6.125  0.6835  0.0931  0.4676
  410MOL0     C55251  12.677   7.103   6.158 -0.3381 -0.1157  0.5474
  410MOL0     C55252  12.726   7.082   6.298 -0.5754  0.6666  1.3036
  410MOL0     C55253  12.824   7.194   6.334  0.4633  0.2469 -0.2991
  410MOL0     C55254  12.890   7.167   6.479  0.4491  0.1195 -0.1177
  410MOL0     C55255  12.988   7.288   6.504 -0.0656 -0.0142 -0.7243
  410MOL0     C55256  13.058   7.281   6.645  0.3651  0.4844  0.6555
  410MOL0     C55257  12.976   7.282   6.775  0.1882  0.6055  0.4173
  410MOL0     C55258  12.891   7.411   6.792  0.4714  0.0275 -0.7601
  410MOL0    Cl55259  12.816   7.410   6.953  0.6233  0.1855  0.3475
  410MOL0     C55260  12.684   6.884   5.936 -0.9527 -0.3995  1.0511
  410MOL0     C55261  12.696   6.870   5.796 -0.1366  0.3568 -0.1154
  410MOL0     O55262  12.854   6.982   5.572 -0.0164 -0.4110 -0.5286
  410MOL0     C55263  12.876   6.904   5.300 -0.5297 -0.0294  0.8009
  410MOL0     C55264  12.880   6.855   5.169 -0.2641  0.0654 -0.1742
  410MOL0     N55265  12.243   6.562   5.057 -0.5486 -0.0894  0.3090
  410MOL0     N55266  12.149   6.471   5.045  0.2670  0.4327  0.2401
  410MOL0     C55267  11.381   5.513   5.282 -0.2125 -0.5601 -0.0498
  410MOL0     C55268  11.303   5.440   5.380 -0.9141  0.4758  0.4155
  410MOL0     C55269  11.069   5.413   5.799  0.0493  0.4799 -0.2328
  410MOL0     C55270  11.077   5.388   5.938 -0.1001  0.1121  1.1902
  410MOL0     C55271  10.962   5.379   6.011  0.6319  0.4865 -0.0483
  410MOL0     C55272  10.834   5.401   5.965 -0.0826  0.0051 -0.4661
  410MOL0     O55273  10.740   5.382   6.065  0.1724  0.3086 -0.0320
  410MOL0     C55274  10.630   5.291   6.024  0.1326 -0.2446 -0.6714
  410MOL0     C55275  10.509   5.370   6.040  0.7639 -0.5649 -0.4343
  410MOL0     C55276  10.485   5.413   6.186  0.5039  0.0389  0.2429
  410MOL0     C55277  10.371   5.520   6.208  0.5990 -0.1041 -0.5142
  410MOL0     C55278  10.243   5.447   6.213 -0.2189  1.1324 -0.3865
  410MOL0     C55279  10.147   5.376   6.202  1.7208  0.2241 -0.6569
  410MOL0     C55280  10.824   5.430   5.831 -1.1290  0.0886  0.1444
  410MOL0     C55281  10.937   5.429   5.743 -0.4942 -1.2442  0.6565
  410MOL0     C55282  10.919   5.461   5.593 -0.0822 -0.6320  0.0508
  410MOL0     H55283  11.318   5.658   5.634  0.4630  0.2743  0.0420
  410MOL0     H55284  11.462   5.770   5.490 -2.2281  0.4623 -0.2707
  410MOL0     H55285  11.594   5.883   5.173 -1.4606  1.0194 -0.5676
  410MOL0     H55286  11.534   5.885   5.341 -0.9896 -1.6083  0.2017
  410MOL0     H55287  11.747   5.712   5.234 -2.9256  0.5985 -1.2216
  410MOL0     H55288  11.731   5.725   5.400 -1.2875 -2.6397 -1.9074
  410MOL0     H55289  11.773   5.987   5.375 -1.6882 -1.2784  0.8111
  410MOL0     H55290  11.810   5.952   5.203  1.0074 -0.1250  1.2268
  410MOL0     H55291  11.967   5.842   5.423  0.2656 -0.7916 -0.9992
  410MOL0     H55292  11.994   5.807   5.247  2.7527  0.0491 -0.6663
  410MOL0     H55293  11.992   6.094   5.344  0.8081  0.4955 -0.0888
  410MOL0     H55294  12.135   6.005   5.369 -0.3692  3.1344  0.6615
  410MOL0     H55295  12.158   5.957   5.129  2.0114  0.5072  2.2127
  410MOL0     H55296  11.997   6.033   5.105  0.8524  2.3651 -1.4117
  410MOL0     H55297  12.245   6.180   5.199  0.2006 -0.7768  1.2829
  410MOL0     H55298  12.084   6.239   5.231 -1.2963  0.4150 -2.0571
  410MOL0     H55299  12.201   6.151   4.951  0.4556 -1.9457  2.6485
  410MOL0     H55300  12.044   6.231   4.969  0.0544  0.6932  0.2685
  410MOL0     H55301  12.424   6.303   4.976 -1.8851 -1.8329  0.3644
  410MOL0     H55302  12.524   6.644   5.089 -0.5271 -0.5465  1.8177
  410MOL0     H55303  12.582   6.491   5.030  0.5085 -0.2296 -0.9082
  410MOL0     H55304  12.492   6.560   4.792 -0.7142 -3.2932  1.9452
  410MOL0     H55305  12.479   6.721   4.871 -1.4033 -0.6953  0.0777
  410MOL0     H55306  12.687   6.701   4.743 -0.8930  1.6937  0.2148
  410MOL0     H55307  12.719   6.537   4.802  1.9206  1.2796  2.0327
  410MOL0     H55308  12.879   6.661   4.915  1.0109 -0.8489 -0.9679
  410MOL0     H55309  12.761   6.619   5.037 -1.9706  0.2011 -0.6266
  410MOL0     H55310  12.564   6.904   5.096  1.2651  0.4004 -2.6288
  410MOL0     H55311  12.544   6.957   5.349 -0.0649  2.1221 -0.8996
  410MOL0     H55312  12.441   7.075   5.696  0.9683  0.7820  0.1941
  410MOL0     H55313  12.415   7.107   5.940 -0.4822  0.8165 -1.8629
  410MOL0     H55314  12.763   7.097   6.091 -1.9391 -0.9664 -1.5367
  410MOL0     H55315  12.627   7.200   6.151 -0.2433  0.0465  1.8838
  410MOL0     H55316  12.639   7.088   6.364 -2.0239  3.1437 -0.6291
  410MOL0     H55317  12.770   6.984   6.316 -1.6894 -0.2118 -0.4457
  410MOL0     H55318  12.903   7.197   6.258  3.4486 -0.0654  2.5643
  410MOL0     H55319  12.766   7.284   6.353  1.3933  1.5031 -2.9669
  410MOL0     H55320  12.946   7.074   6.492 -0.9543 -0.6217  0.9033
  410MOL0     H55321  12.813   7.153   6.556  0.5588  0.5242  0.0668
  410MOL0     H55322  12.929   7.380   6.511  0.6017  0.3430  0.6936
  410MOL0     H55323  13.065   7.293   6.426  0.3621  1.7020 -0.2442
  410MOL0     H55324  13.129   7.199   6.656  1.8058  1.4858 -0.7156
  410MOL0     H55325  13.116   7.374   6.647  2.1408 -0.5915  1.3686
  410MOL0     H55326  13.032   7.275   6.869 -1.0541 -2.7453  1.0227
  410MOL0     H55327  12.913   7.194   6.765  2.2535 -0.8594 -0.2213
  410MOL0     H55328  12.956   7.498   6.780  1.2828 -0.5743 -0.8132
  410MOL0     H55329  12.819   7.396   6.711 -1.0433 -4.7882  1.1195
  410MOL0     H55330  12.742   6.827   6.007 -2.0687  0.3947  2.6479
  410MOL0     H55331  12.776   6.806   5.760 -0.1423  0.6393 -0.6502
  410MOL0     H55332  12.965   6.904   5.361 -0.4376  0.9325  0.6816
  410MOL0     H55333  12.972   6.827   5.119 -0.1586  1.4794 -0.8289
  410MOL0     H55334  11.388   5.472   5.182  2.1013  0.9903 -0.6022
  410MOL0     H55335  11.261   5.348   5.342 -0.7360 -0.8801  3.2761
  410MOL0     H55336  11.177   5.370   5.978  0.0217  0.0566  0.8620
  410MOL0     H55337  10.973   5.373   6.119 -2.8075 -1.0767  0.3290
  410MOL0     H55338  10.641   5.202   6.086  1.6679  1.1013  1.1066
  410MOL0     H55339  10.636   5.262   5.919  0.0776  0.8755 -0.9957
  410MOL0     H55340  10.425   5.306   6.012  0.5279  0.7425 -3.1307
  410MOL0     H55341  10.506   5.452   5.967 -0.2772  0.5313  0.8071
  410MOL0     H55342  10.579   5.447   6.232  1.8007 -1.6247 -0.9993
  410MOL0     H55343  10.460   5.327   6.249 -0.4849  0.4228  0.3755
  410MOL0     H55344  10.375   5.567   6.306  0.4863 -0.2774 -0.4258
  410MOL0     H55345  10.367   5.601   6.135  0.0965  0.0526 -0.3141
  410MOL0     H55346  10.052   5.327   6.200  1.8449 -0.0597 -0.0435
  410MOL0     H55347  10.726   5.443   5.785 -2.4826 -1.2880  2.4238
  410MOL0     H55348  10.974   5.387   5.535  0.6723 -1.4489  1.7778
  410MOL0     H55349  10.814   5.441   5.567 -1.3145  1.1229  3.0852
  410MOL0     H55350  10.955   5.563   5.578 -0.7421 -0.2892  0.7360
  411MOL0     O55351   2.067   2.145   4.452 -0.1029 -0.5579  0.2240
  411MOL0     C55352   2.090   2.045   4.386 -0.3916 -0.0414  0.2401
  411MOL0     O55353   2.180   2.036   4.285  0.7815  0.0046  0.1090
  411MOL0     C55354   2.238   2.143   4.226 -0.5107 -0.2764 -0.2205
  411MOL0     C55355   2.378   2.139   4.209  0.3885 -0.0185  0.9074
  411MOL0     C55356   2.441   2.253   4.160 -0.6535  0.1771  0.1745
  411MOL0     C55357   2.375   2.361   4.110  0.9376 -0.3714 -0.1197
  411MOL0     O55358   2.446   2.470   4.062  0.4534 -0.4428 -0.0718
  411MOL0     C55359   2.487   2.451   3.927  0.2133 -0.4245  0.3477
  411MOL0     C55360   2.618   2.384   3.916 -0.5202 -0.0345  0.9049
  411MOL0     C55361   2.734   2.479   3.959 -0.1985 -0.2043  1.1038
  411MOL0     C55362   2.751   2.489   4.114  0.2180  0.0361 -0.3260
  411MOL0     C55363   2.871   2.573   4.168  0.5274  0.4951 -0.6017
  411MOL0     C55364   3.002   2.531   4.101 -1.0685  0.9526 -0.3364
  411MOL0     C55365   3.118   2.640   4.125  0.2130 -0.4725  1.2689
  411MOL0     C55366   3.256   2.622   4.070  0.0154 -0.5355 -0.3916
  411MOL0     N55367   3.282   2.480   4.035  0.4424  0.4736 -0.2628
  411MOL0     C55368   3.335   2.381   4.118 -0.7031  0.0601  0.8840
  411MOL0     C55369   3.363   2.272   4.040 -0.6479 -0.3264 -1.2071
  411MOL0     C55370   3.435   2.146   4.103 -0.3239 -0.5763  0.6728
  411MOL0     C55371   3.573   2.121   4.027  0.2369 -0.3832 -0.4984
  411MOL0     C55372   3.567   2.063   3.882  1.0424  0.2703 -0.1520
  411MOL0     C55373   3.702   2.012   3.838 -0.5695  0.7015  0.1992
  411MOL0     O55374   3.776   2.131   3.829 -0.1836 -0.3954  0.5166
  411MOL0     C55375   3.917   2.122   3.830  0.2919  0.4728 -0.2455
  411MOL0     C55376   3.985   2.035   3.918  0.0849  0.4919  1.3292
  411MOL0     C55377   4.122   2.027   3.917  0.3785  0.2599  0.0056
  411MOL0     C55378   4.194   2.129   3.843 -0.5521  1.4519 -0.4159
  411MOL0     C55379   4.334   2.154   3.851  0.1851 -0.2360  0.4065
  411MOL0     O55380   4.388   2.222   3.739  0.1458 -0.6375 -0.4319
  411MOL0     C55381   4.513   2.277   3.745 -0.6899  0.5160  0.0546
  411MOL0     C55382   4.624   2.217   3.800  1.0334 -0.3537 -0.1186
  411MOL0     C55383   4.751   2.272   3.776  0.9497 -0.2324 -0.0530
  411MOL0     C55384   4.767   2.396   3.710  0.3141 -0.6013 -0.7113
  411MOL0     O55385   4.881   2.461   3.715 -0.6933 -0.1487  0.1849
  411MOL0     C55386   4.922   2.546   3.596 -0.4946  0.9478  0.2093
  411MOL0     C55387   5.082   2.555   3.581  0.4083  0.9279  0.5573
  411MOL0     C55388   5.157   2.618   3.690  0.4068 -0.0756  0.0781
  411MOL0     C55389   5.139   2.771   3.693 -0.0652 -0.1334  0.4679
  411MOL0     C55390   5.251   2.836   3.768 -0.3896 -0.9517 -0.2228
  411MOL0     C55391   5.235   2.987   3.761 -0.0419 -0.8710 -0.1162
  411MOL0     C55392   5.353   3.063   3.833  0.4209  0.2458  0.6138
  411MOL0     C55393   5.359   3.217   3.810 -0.4582 -0.0833  1.0584
  411MOL0    Cl55394   5.200   3.286   3.876 -0.1394  0.3989 -0.0356
  411MOL0     C55395   4.654   2.457   3.658 -0.1586 -0.3444 -0.5830
  411MOL0     C55396   4.532   2.392   3.678 -0.0341 -0.3445 -0.2975
  411MOL0     O55397   4.400   2.106   3.940 -0.2332  0.1701  0.2381
  411MOL0     C55398   4.122   2.230   3.778 -0.4728 -0.1318 -0.4724
  411MOL0     C55399   3.985   2.219   3.768 -0.3747 -0.3315 -0.1011
  411MOL0     N55400   3.321   2.303   3.916  0.9642  0.1974 -0.1615
  411MOL0     N55401   3.275   2.425   3.909  0.2285  0.5502  0.7241
  411MOL0     C55402   2.240   2.367   4.127  1.0810 -0.5731  0.0076
  411MOL0     C55403   2.172   2.260   4.177 -0.3496 -0.2934 -1.0760
  411MOL0     C55404   1.997   1.920   4.409 -0.4165 -0.7230 -0.0215
  411MOL0     C55405   2.038   1.799   4.361  0.6222  0.4365 -1.0407
  411MOL0     C55406   1.963   1.684   4.394 -0.2509 -0.6398 -0.2897
  411MOL0     C55407   1.862   1.692   4.484  0.5290  1.0616  0.4912
  411MOL0     O55408   1.785   1.583   4.517  0.8679  0.0718  0.1583
  411MOL0     C55409   1.834   1.446   4.529 -0.2394  0.5296 -0.0359
  411MOL0     C55410   1.960   1.418   4.612 -0.2987 -0.2165  0.3410
  411MOL0     C55411   1.929   1.441   4.755  0.3733  0.5246  0.7451
  411MOL0     C55412   2.036   1.388   4.852 -0.0972  0.3373  0.0840
  411MOL0     C55413   1.994   1.437   4.983  0.1895  0.0940  0.0656
  411MOL0     C55414   1.957   1.471   5.093  0.1391  1.3243 -1.3635
  411MOL0     C55415   1.801   1.812   4.512  0.5970  0.3839  0.2730
  411MOL0     C55416   1.872   1.929   4.470  0.4679  0.1099  1.1443
  411MOL0     C55417   1.810   2.064   4.506 -0.6035  0.4180  0.6495
  411MOL0     H55418   2.429   2.053   4.249  2.2252  1.0477  0.9571
  411MOL0     H55419   2.549   2.259   4.169 -0.6111  0.0813 -0.2595
  411MOL0     H55420   2.414   2.388   3.875 -0.3427 -0.5135  1.2166
  411MOL0     H55421   2.487   2.544   3.870 -2.0238  0.1107  1.1078
  411MOL0     H55422   2.634   2.351   3.813  2.1342 -0.9824  1.5421
  411MOL0     H55423   2.617   2.284   3.961  1.5932  0.3879  1.9833
  411MOL0     H55424   2.723   2.581   3.921  3.0795 -0.7319 -1.8173
  411MOL0     H55425   2.822   2.430   3.917 -0.2506 -0.4209  1.2504
  411MOL0     H55426   2.664   2.538   4.160  0.9654 -1.7138  3.2949
  411MOL0     H55427   2.745   2.390   4.161 -1.0447 -0.4136 -1.3722
  411MOL0     H55428   2.849   2.676   4.139  1.3404  0.2050 -2.3908
  411MOL0     H55429   2.869   2.562   4.277 -2.8657  1.1318 -0.4706
  411MOL0     H55430   3.023   2.431   4.140 -0.4973  0.6550 -1.3668
  411MOL0     H55431   2.991   2.525   3.992  0.9461  0.7940 -0.5595
  411MOL0     H55432   3.121   2.657   4.233  0.7796  0.0660  1.1732
  411MOL0     H55433   3.086   2.735   4.081  2.9637 -1.4619 -3.6536
  411MOL0     H55434   3.258   2.688   3.983 -1.0047 -0.7469 -0.5801
  411MOL0     H55435   3.324   2.649   4.151 -1.6531 -0.0651  0.9065
  411MOL0     H55436   3.369   2.407   4.218  1.5829  1.1834 -0.1185
  411MOL0     H55437   3.446   2.169   4.210 -2.6166  1.2308  0.5882
  411MOL0     H55438   3.372   2.057   4.099 -4.3907  2.0922 -0.2987
  411MOL0     H55439   3.625   2.217   4.030 -0.0395 -0.2485  0.6426
  411MOL0     H55440   3.624   2.046   4.089 -1.0769 -0.7436  0.1894
  411MOL0     H55441   3.548   2.152   3.821 -0.5881  0.9180  1.2181
  411MOL0     H55442   3.483   1.998   3.857  0.5662  1.5771 -2.3011
  411MOL0     H55443   3.685   1.965   3.740 -2.3613  1.9197 -0.1370
  411MOL0     H55444   3.750   1.946   3.910 -1.7367 -0.4578 -0.0263
  411MOL0     H55445   3.925   1.968   3.978 -2.9051 -0.1720 -2.0353
  411MOL0     H55446   4.170   1.945   3.969  0.4291 -0.5617 -1.3009
  411MOL0     H55447   4.628   2.123   3.854  0.8872 -0.1805  0.1970
  411MOL0     H55448   4.840   2.228   3.819  2.1362  1.4193 -0.7172
  411MOL0     H55449   4.887   2.492   3.507  1.7083 -0.6168  0.2180
  411MOL0     H55450   4.875   2.644   3.610  0.1773  0.9617  2.6643
  411MOL0     H55451   5.108   2.449   3.581 -2.5465  0.1235  0.1110
  411MOL0     H55452   5.114   2.595   3.484  0.0056  0.3100  0.1623
  411MOL0     H55453   5.129   2.580   3.789  2.4389 -2.5097 -0.1746
  411MOL0     H55454   5.261   2.590   3.670  0.7328  2.5860 -2.5621
  411MOL0     H55455   5.048   2.805   3.743  1.0732  0.8299  1.9806
  411MOL0     H55456   5.133   2.815   3.593 -1.2339 -3.0921 -0.8811
  411MOL0     H55457   5.342   2.813   3.712 -0.6361  1.6571 -1.8638
  411MOL0     H55458   5.269   2.811   3.873  3.0911 -0.3472 -0.5395
  411MOL0     H55459   5.258   3.011   3.657  5.1655  1.1559  1.1695
  411MOL0     H55460   5.134   3.017   3.791  1.0830  0.6460  2.5420
  411MOL0     H55461   5.447   3.019   3.798 -0.0599  1.5454 -2.5593
  411MOL0     H55462   5.339   3.043   3.940 -1.2003  2.6896  0.9411
  411MOL0     H55463   5.445   3.260   3.861  0.7299  0.3086 -1.1146
  411MOL0     H55464   5.376   3.239   3.704  1.5792  1.1166  1.5701
  411MOL0     H55465   4.655   2.540   3.589 -0.6659  0.2089  0.0649
  411MOL0     H55466   4.435   2.428   3.646 -0.5540 -0.9770  0.5151
  411MOL0     H55467   4.162   2.324   3.744  1.5882  0.5807  3.3731
  411MOL0     H55468   3.925   2.283   3.704  0.3321  0.1819 -0.2626
  411MOL0     H55469   2.184   2.457   4.103  1.9765  0.1896  0.6883
  411MOL0     H55470   2.064   2.265   4.190 -0.4297 -0.2706 -1.7417
  411MOL0     H55471   2.128   1.800   4.300  1.0396  1.4720 -0.4258
  411MOL0     H55472   1.994   1.584   4.365  0.6066 -1.2479  2.4469
  411MOL0     H55473   1.847   1.395   4.434  0.8664 -3.5794  2.0731
  411MOL0     H55474   1.756   1.385   4.577  1.0016 -1.2869 -0.2170
  411MOL0     H55475   2.047   1.468   4.568 -1.0996  0.0451 -1.0203
  411MOL0     H55476   1.985   1.312   4.597  1.3379  0.4054 -1.6934
  411MOL0     H55477   1.839   1.383   4.780 -0.0826  0.8570 -0.1242
  411MOL0     H55478   1.908   1.547   4.771 -2.9096  0.0878  0.0798
  411MOL0     H55479   2.034   1.279   4.846 -0.0950  0.2140  1.7997
  411MOL0     H55480   2.136   1.426   4.832  0.0304  1.1562  2.0651
  411MOL0     H55481   1.933   1.503   5.192  0.7565  0.6934 -0.9981
  411MOL0     H55482   1.710   1.818   4.572 -0.4758 -0.2590 -1.2161
  411MOL0     H55483   1.850   2.119   4.591  3.2646  2.8095 -2.3789
  411MOL0     H55484   1.842   2.135   4.430  1.2510  1.4156  2.2823
  411MOL0     H55485   1.702   2.061   4.523 -0.4038 -0.3994  1.8656
  412MOL0     O55486   2.094   4.282   8.108 -0.1441  0.1779 -0.2206
  412MOL0     C55487   2.098   4.258   7.988 -1.1698 -0.5529 -0.9045
  412MOL0     O55488   2.201   4.303   7.909 -0.3977 -0.2009 -1.3231
  412MOL0     C55489   2.288   4.382   7.972  0.0034  0.8236  0.7166
  412MOL0     C55490   2.258   4.507   8.020  0.2269 -0.3816  0.4144
  412MOL0     C55491   2.353   4.597   8.072 -0.5327 -0.0917 -0.1170
  412MOL0     C55492   2.488   4.565   8.051  0.6480 -0.0838  0.0268
  412MOL0     O55493   2.574   4.664   8.094  0.0897  0.2557  0.1149
  412MOL0     C55494   2.674   4.692   8.001  0.4239 -0.1654  0.1370
  412MOL0     C55495   2.791   4.766   8.075  0.1882 -0.0098  0.6795
  412MOL0     C55496   2.899   4.779   7.968  0.4216  0.8182  0.3205
  412MOL0     C55497   3.042   4.794   8.022  0.3130 -0.7249  0.5697
  412MOL0     C55498   3.148   4.803   7.909  0.4145 -0.5645 -0.8437
  412MOL0     C55499   3.132   4.935   7.840  0.7386  0.4299 -0.2136
  412MOL0     C55500   3.250   4.951   7.749  0.7924 -0.3954 -0.2157
  412MOL0     C55501   3.379   5.004   7.823  0.1453  0.0828 -0.0838
  412MOL0     N55502   3.484   5.039   7.726 -0.1349 -0.6744 -0.0451
  412MOL0     C55503   3.526   5.164   7.698 -0.1175 -1.0479 -0.0376
  412MOL0     C55504   3.652   5.153   7.656 -0.2128 -0.3643 -0.5551
  412MOL0     C55505   3.757   5.259   7.642 -0.3842  1.0210  0.3266
  412MOL0     C55506   3.736   5.329   7.508 -0.3106  0.7126  0.1222
  412MOL0     C55507   3.808   5.464   7.482  0.3296  0.3486  0.1681
  412MOL0     C55508   3.960   5.446   7.470 -0.1226  0.3057  0.9659
  412MOL0     O55509   3.980   5.440   7.329 -0.5294  0.6268 -0.7020
  412MOL0     C55510   4.111   5.433   7.279  0.0299 -0.2496  0.0277
  412MOL0     C55511   4.137   5.457   7.144 -0.4477  0.0475  1.0978
  412MOL0     C55512   4.265   5.447   7.089 -0.7915  0.2026 -0.1570
  412MOL0     C55513   4.375   5.403   7.166  0.1779 -0.0818  0.3478
  412MOL0     C55514   4.512   5.396   7.108  0.2312 -0.7080 -0.0375
  412MOL0     O55515   4.524   5.435   6.979 -0.4965  0.5525 -0.8129
  412MOL0     C55516   4.630   5.394   6.897  0.0680 -1.2211  0.0671
  412MOL0     C55517   4.677   5.266   6.885  0.4447  0.0641  0.2459
  412MOL0     C55518   4.782   5.231   6.808  0.0060 -0.1701  0.4503
  412MOL0     C55519   4.842   5.328   6.726 -0.5700 -0.4082  0.4140
  412MOL0     O55520   4.944   5.297   6.626 -0.0450 -0.0338 -0.5146
  412MOL0     C55521   4.998   5.159   6.624  1.2687 -0.7197 -0.1890
  412MOL0     C55522   5.099   5.137   6.512 -0.4549 -1.3077 -0.1673
  412MOL0     C55523   5.054   5.187   6.372  0.0807 -0.5116 -0.2038
  412MOL0     C55524   4.907   5.156   6.338  0.3117  0.2267  0.2917
  412MOL0     C55525   4.864   5.174   6.190 -0.4670  0.2298 -0.1740
  412MOL0     C55526   4.725   5.115   6.156  0.3113  0.4260  0.5768
  412MOL0     C55527   4.602   5.173   6.242  0.0899 -0.9867  1.0854
  412MOL0     C55528   4.464   5.123   6.206 -0.3463 -0.5654 -0.8194
  412MOL0    Cl55529   4.454   5.015   6.068 -0.4729  0.3613 -0.3409
  412MOL0     C55530   4.803   5.468   6.744 -1.5748  0.2791  0.1153
  412MOL0     C55531   4.699   5.502   6.828 -0.0949 -0.6551 -0.8269
  412MOL0     O55532   4.599   5.350   7.180  0.1863  0.4518 -0.2758
  412MOL0     C55533   4.345   5.351   7.290  0.2498  0.3065  0.3352
  412MOL0     C55534   4.218   5.376   7.350  0.9192  0.7571 -1.0326
  412MOL0     N55535   3.675   5.016   7.628  0.2717  0.6782 -0.8840
  412MOL0     N55536   3.571   4.950   7.678  0.1773 -0.3279 -0.2795
  412MOL0     C55537   2.528   4.439   8.003  0.3199  0.7271 -0.3064
  412MOL0     C55538   2.425   4.351   7.962  0.6546 -0.0161  0.0350
  412MOL0     C55539   2.006   4.168   7.925  0.3268 -0.2837 -0.7699
  412MOL0     C55540   2.015   4.148   7.785  0.3597  0.1535 -0.3884
  412MOL0     C55541   1.918   4.074   7.718  0.4047  0.1875 -0.8049
  412MOL0     C55542   1.814   4.019   7.795 -0.2323 -0.5245 -0.0336
  412MOL0     O55543   1.716   3.954   7.721  0.0034 -0.5413  0.6654
  412MOL0     C55544   1.580   3.987   7.754  0.0633  0.0163  0.2247
  412MOL0     C55545   1.529   4.118   7.699 -0.4330  0.0594  0.1466
  412MOL0     C55546   1.397   4.158   7.749 -0.4763 -0.3387 -0.5854
  412MOL0     C55547   1.362   4.310   7.720 -0.5213 -0.2995  0.1294
  412MOL0     C55548   1.250   4.350   7.801 -0.2791 -0.6766 -0.0361
  412MOL0     C55549   1.170   4.383   7.881 -0.6736  0.4241  0.6063
  412MOL0     C55550   1.811   4.016   7.935 -0.2677  0.4759  0.1285
  412MOL0     C55551   1.910   4.093   8.003  0.6642 -0.2075  0.1030
  412MOL0     C55552   1.913   4.063   8.153  0.3497 -0.5519  0.3756
  412MOL0     H55553   2.156   4.541   8.035 -0.2163 -2.1344  1.7995
  412MOL0     H55554   2.329   4.693   8.117  1.5054  0.6727 -0.5815
  412MOL0     H55555   2.711   4.602   7.950  1.7124 -0.7589  2.0456
  412MOL0     H55556   2.640   4.754   7.918  0.6388  0.3404  0.4254
  412MOL0     H55557   2.828   4.703   8.156 -1.3060 -1.6508  0.1383
  412MOL0     H55558   2.763   4.868   8.102  0.3558  0.8563 -2.0715
  412MOL0     H55559   2.871   4.859   7.899 -2.2195 -0.0580  0.2569
  412MOL0     H55560   2.909   4.690   7.905  2.8071  0.2165  1.4310
  412MOL0     H55561   3.044   4.878   8.092 -2.3265 -0.5338  0.5388
  412MOL0     H55562   3.067   4.709   8.086 -1.4288 -1.9170 -0.2377
  412MOL0     H55563   3.245   4.792   7.958 -1.4620 -0.0304  3.5003
  412MOL0     H55564   3.137   4.720   7.839  0.3845 -1.7090  0.4833
  412MOL0     H55565   3.044   4.937   7.775  0.7880 -1.3166 -0.3947
  412MOL0     H55566   3.127   5.011   7.918 -0.1900  0.7285 -0.5438
  412MOL0     H55567   3.226   5.031   7.679  2.1797  2.4531  2.3630
  412MOL0     H55568   3.258   4.862   7.686  2.2803 -1.8085  1.8232
  412MOL0     H55569   3.349   5.088   7.887 -1.2900  1.5243 -2.4741
  412MOL0     H55570   3.418   4.925   7.887 -0.7520  0.2460  0.6922
  412MOL0     H55571   3.481   5.254   7.738 -1.4879 -1.8846  0.3835
  412MOL0     H55572   3.749   5.338   7.717  3.1298  1.8090  0.0399
  412MOL0     H55573   3.861   5.228   7.638  0.2212  2.5483  2.5133
  412MOL0     H55574   3.771   5.254   7.437  0.6463  2.1759 -1.0295
  412MOL0     H55575   3.633   5.345   7.474 -0.1751  3.0702  0.5839
  412MOL0     H55576   3.783   5.533   7.563  0.4644 -0.0963  0.5954
  412MOL0     H55577   3.774   5.497   7.384 -0.1459 -1.9948 -0.5185
  412MOL0     H55578   3.993   5.357   7.524 -4.5852 -0.6828  2.4277
  412MOL0     H55579   4.000   5.542   7.504 -1.0808  2.9368 -4.3329
  412MOL0     H55580   4.053   5.471   7.077  0.1118 -2.8594 -0.3508
  412MOL0     H55581   4.274   5.481   6.987 -0.7709  0.9702  0.0884
  412MOL0     H55582   4.628   5.182   6.933 -0.4326  0.1359 -0.4814
  412MOL0     H55583   4.827   5.132   6.800  2.8506  0.9953  0.8283
  412MOL0     H55584   5.036   5.142   6.726 -3.6728  1.8443  2.4447
  412MOL0     H55585   4.910   5.097   6.605 -0.6801  0.7938  3.0264
  412MOL0     H55586   5.191   5.187   6.544  0.1382 -0.7510 -2.5385
  412MOL0     H55587   5.124   5.030   6.513 -0.2460 -1.2608 -0.2860
  412MOL0     H55588   5.073   5.294   6.359  2.4909 -1.1840 -3.5494
  412MOL0     H55589   5.129   5.152   6.300 -0.1916 -2.5628  0.4340
  412MOL0     H55590   4.844   5.216   6.403 -0.1991  0.8160 -0.7158
  412MOL0     H55591   4.891   5.051   6.364  0.8021  0.1173  0.1538
  412MOL0     H55592   4.938   5.123   6.127 -0.7333  0.9197 -1.0745
  412MOL0     H55593   4.871   5.282   6.171  0.7760  0.0911 -0.6485
  412MOL0     H55594   4.709   5.147   6.052 -0.2174  1.0815  0.8523
  412MOL0     H55595   4.740   5.007   6.154  2.3685  0.6575  1.5572
  412MOL0     H55596   4.604   5.282   6.226  2.8147 -1.0074  0.7837
  412MOL0     H55597   4.615   5.157   6.349  0.1337  1.3889  1.4970
  412MOL0     H55598   4.409   5.079   6.289 -0.5599 -1.4306 -1.4122
  412MOL0     H55599   4.397   5.207   6.189  1.9598  1.5127 -0.3115
  412MOL0     H55600   4.858   5.537   6.680  1.4473 -2.5491 -0.6226
  412MOL0     H55601   4.662   5.600   6.856  0.0428 -0.8172 -0.0638
  412MOL0     H55602   4.419   5.300   7.350  1.0399  1.0989  0.0557
  412MOL0     H55603   4.205   5.338   7.451 -2.0402  0.5034 -1.4403
  412MOL0     H55604   2.633   4.411   7.996 -0.0683 -0.5971 -1.3338
  412MOL0     H55605   2.449   4.247   7.941 -0.2609 -0.8206  2.6014
  412MOL0     H55606   2.079   4.204   7.717 -0.4411  0.3825 -0.9606
  412MOL0     H55607   1.916   4.075   7.610  0.6408 -1.0894 -0.8374
  412MOL0     H55608   1.545   3.973   7.856 -0.1284  0.4572  0.2167
  412MOL0     H55609   1.525   3.919   7.688  0.2697 -0.9592  1.0290
  412MOL0     H55610   1.536   4.128   7.590  2.5688 -1.2875  0.1373
  412MOL0     H55611   1.599   4.189   7.742 -0.1016 -2.2212  3.8504
  412MOL0     H55612   1.402   4.138   7.856 -0.8077  1.4887 -0.2079
  412MOL0     H55613   1.321   4.090   7.709  0.3314 -0.8206 -1.3519
  412MOL0     H55614   1.450   4.374   7.735  0.0352 -0.5668 -1.7454
  412MOL0     H55615   1.340   4.325   7.614 -0.0277  1.9912  0.3042
  412MOL0     H55616   1.106   4.436   7.948 -0.5731  2.0923 -0.5623
  412MOL0     H55617   1.729   3.964   7.983 -2.7276  3.3954 -0.5782
  412MOL0     H55618   1.886   3.958   8.170  0.1804 -0.7327 -0.8991
  412MOL0     H55619   2.010   4.077   8.201 -0.8728 -0.4108  2.9629
  412MOL0     H55620   1.836   4.129   8.194 -0.2982  0.4075 -2.1622
  413MOL0     O55621   7.976   0.850  10.655 -0.4035 -0.0456  0.4316
  413MOL0     C55622   7.900   0.771  10.601  0.7368  0.7464  0.1057
  413MOL0     O55623   7.770   0.754  10.640  0.1704  0.3232 -0.1914
  413MOL0     C55624   7.732   0.800  10.765 -0.2496  0.3444  1.2606
  413MOL0     C55625   7.609   0.864  10.770  0.5235  0.9330  0.2474
  413MOL0     C55626   7.570   0.916  10.883 -0.2424  0.1486 -0.2526
  413MOL0     C55627   7.640   0.902  11.006  0.0075 -0.5044  0.8728
  413MOL0     O55628   7.580   0.956  11.114  0.6379 -0.0237  0.0885
  413MOL0     C55629   7.662   1.044  11.194  0.3636  1.0208  0.6474
  413MOL0     C55630   7.568   1.108  11.300  0.2566 -0.2902 -0.2796
  413MOL0     C55631   7.635   1.200  11.395  0.7651  0.4270 -0.5719
  413MOL0     C55632   7.725   1.133  11.502 -0.2422  0.6775 -0.6874
  413MOL0     C55633   7.768   1.239  11.611  0.7244  1.1965  0.0727
  413MOL0     C55634   7.820   1.200  11.746 -0.3792  0.3650  0.3392
  413MOL0     C55635   7.892   1.317  11.825  0.9281 -0.3724 -0.0283
  413MOL0     C55636   7.980   1.272  11.944 -0.6632 -0.8459  0.4076
  413MOL0     N55637   7.912   1.182  12.041  0.4046  0.6568 -0.1085
  413MOL0     C55638   7.815   1.215  12.137 -0.2068  0.6947  0.0051
  413MOL0     C55639   7.730   1.104  12.143  0.1753 -0.4094 -0.7329
  413MOL0     C55640   7.608   1.092  12.230  0.3891 -0.1233  0.3099
  413MOL0     C55641   7.476   1.125  12.169 -0.6262 -0.2563  0.1193
  413MOL0     C55642   7.376   1.001  12.179  0.2482 -0.4957  0.0142
  413MOL0     C55643   7.227   1.029  12.157 -0.0565  0.1130 -0.3338
  413MOL0     O55644   7.203   1.032  12.013  0.3920 -0.3250  0.7400
  413MOL0     C55645   7.088   0.987  11.955 -0.4693 -0.1731  0.2504
  413MOL0     C55646   6.966   0.969  12.026 -0.5799  0.5102  0.5433
  413MOL0     C55647   6.845   0.922  11.971 -0.1150 -1.1325  0.0789
  413MOL0     C55648   6.847   0.910  11.831 -1.1633 -0.8604  0.9087
  413MOL0     C55649   6.722   0.875  11.762  0.2829 -0.1387  0.4516
  413MOL0     O55650   6.607   0.875  11.837  0.1936  0.2311 -0.5665
  413MOL0     C55651   6.530   0.766  11.814  0.2039 -0.3681 -0.5198
  413MOL0     C55652   6.541   0.653  11.899 -0.6486 -0.4816 -0.0962
  413MOL0     C55653   6.453   0.546  11.882 -0.3502  0.2982 -0.3538
  413MOL0     C55654   6.364   0.541  11.768  0.1139 -0.7402 -0.3614
  413MOL0     O55655   6.290   0.433  11.730 -0.2697  0.3462 -0.5246
  413MOL0     C55656   6.227   0.360  11.843 -0.4144  0.0228 -0.7012
  413MOL0     C55657   6.100   0.296  11.798  0.8719  0.0748  0.0116
  413MOL0     C55658   6.029   0.228  11.912  1.2085  0.9928  0.5954
  413MOL0     C55659   5.892   0.174  11.867 -0.6989  1.2418  0.0394
  413MOL0     C55660   5.834   0.085  11.970 -0.6234 -0.5519  0.1349
  413MOL0     C55661   5.692   0.041  11.935 -0.1016  0.1540 -0.2902
  413MOL0     C55662   5.627  -0.034  12.050  0.3054 -0.7217  0.2499
  413MOL0     C55663   5.477  -0.047  12.032  0.3168 -0.0258 -0.2104
  413MOL0    Cl55664   5.447  -0.136  11.874  0.2864  0.1753 -0.3382
  413MOL0     C55665   6.349   0.659  11.693 -0.3361 -0.1218 -0.4106
  413MOL0     C55666   6.434   0.765  11.712 -0.3106  0.7818  0.4487
  413MOL0     O55667   6.727   0.846  11.643  1.0733  0.1188 -0.2157
  413MOL0     C55668   6.961   0.931  11.760 -0.1169  0.3686 -0.1839
  413MOL0     C55669   7.081   0.973  11.816  0.4810 -0.9446 -0.7514
  413MOL0     N55670   7.791   1.007  12.067  0.0978 -0.0736  0.5647
  413MOL0     N55671   7.889   1.053  12.006  0.3105 -0.2459  0.6330
  413MOL0     C55672   7.758   0.829  11.005 -0.1523 -0.4541 -0.7050
  413MOL0     C55673   7.805   0.774  10.882 -0.3348 -0.4634 -0.4615
  413MOL0     C55674   7.944   0.669  10.499 -1.1617  0.7169  0.1143
  413MOL0     C55675   7.880   0.541  10.499  0.6638  0.4491  0.2179
  413MOL0     C55676   7.924   0.446  10.418  0.9606 -0.7668  0.1377
  413MOL0     C55677   8.036   0.466  10.336 -0.7872  0.7175 -0.7459
  413MOL0     O55678   8.092   0.369  10.255  0.0784 -0.4087 -0.4065
  413MOL0     C55679   8.004   0.278  10.191 -0.0063 -0.5308  0.6638
  413MOL0     C55680   8.094   0.191  10.094  0.0496  0.4127  0.5031
  413MOL0     C55681   8.220   0.123  10.160 -0.0006 -0.1356 -0.4056
  413MOL0     C55682   8.308   0.040  10.067 -0.4307 -0.8358  0.5382
  413MOL0     C55683   8.317   0.089   9.930  0.7286  0.3289 -0.0115
  413MOL0     C55684   8.310   0.121   9.809  0.3212 -0.2514 -1.3548
  413MOL0     C55685   8.110   0.584  10.345 -0.3630  1.4705 -0.0915
  413MOL0     C55686   8.061   0.690  10.421  0.3959 -0.2524  0.0710
  413MOL0     C55687   8.146   0.813  10.427 -0.1290  0.0960 -0.2033
  413MOL0     H55688   7.555   0.895  10.681 -0.2296  0.5124  0.5493
  413MOL0     H55689   7.480   0.975  10.893 -0.7001 -0.4977 -0.5245
  413MOL0     H55690   7.746   0.985  11.233  1.0314 -1.1727 -3.5843
  413MOL0     H55691   7.713   1.126  11.144 -1.1325  1.5803 -0.0015
  413MOL0     H55692   7.532   1.023  11.359  0.7701 -1.1955 -1.2307
  413MOL0     H55693   7.486   1.157  11.247  0.3838 -1.1759 -1.3301
  413MOL0     H55694   7.556   1.251  11.450 -0.4709 -0.9894 -0.9669
  413MOL0     H55695   7.683   1.266  11.322 -1.7927  2.8664 -0.1969
  413MOL0     H55696   7.674   1.053  11.557 -1.9800  1.1664 -1.5047
  413MOL0     H55697   7.815   1.104  11.448 -0.4413  2.6691 -2.2042
  413MOL0     H55698   7.842   1.301  11.560  1.6968  0.6563  0.7956
  413MOL0     H55699   7.676   1.299  11.610  1.4551  2.3601 -1.4593
  413MOL0     H55700   7.738   1.153  11.800 -1.4822  1.0127 -0.7278
  413MOL0     H55701   7.898   1.125  11.732 -0.0525  0.8660 -0.6516
  413MOL0     H55702   7.805   1.374  11.859 -0.1176 -1.0076 -1.5506
  413MOL0     H55703   7.953   1.382  11.763  2.1625  0.0437  1.5534
  413MOL0     H55704   8.069   1.222  11.903 -1.5401 -0.6606 -1.8820
  413MOL0     H55705   8.021   1.365  11.986 -1.5357 -1.1750  2.0719
  413MOL0     H55706   7.800   1.308  12.190 -0.2823  1.2914 -1.0393
  413MOL0     H55707   7.610   0.984  12.249  2.0880 -0.3052 -0.7009
  413MOL0     H55708   7.612   1.149  12.323  0.5188 -0.7096  0.6703
  413MOL0     H55709   7.433   1.209  12.224 -1.3837 -1.9719  2.2924
  413MOL0     H55710   7.500   1.149  12.065  4.1502  0.7118  1.2236
  413MOL0     H55711   7.389   0.965  12.281 -1.0349 -0.8331  0.0710
  413MOL0     H55712   7.411   0.932  12.101  2.2472 -0.5277  0.8820
  413MOL0     H55713   7.188   1.125  12.195 -0.3076 -0.1103 -0.0211
  413MOL0     H55714   7.179   0.942  12.202  1.0971 -0.5282 -0.3206
  413MOL0     H55715   6.982   0.972  12.134  3.5359 -1.2296  0.1660
  413MOL0     H55716   6.752   0.912  12.026 -0.1170  0.0066  0.3106
  413MOL0     H55717   6.618   0.652  11.976 -0.0341 -3.5015 -0.6247
  413MOL0     H55718   6.453   0.461  11.949  1.2076  0.2878 -0.3267
  413MOL0     H55719   6.298   0.287  11.884 -0.8523 -0.0178 -0.0008
  413MOL0     H55720   6.196   0.430  11.921  0.0105 -0.3698 -0.1651
  413MOL0     H55721   6.036   0.381  11.770 -0.9996 -1.1864  0.2238
  413MOL0     H55722   6.116   0.231  11.712 -0.5447 -2.9216  1.8440
  413MOL0     H55723   6.087   0.145  11.952 -1.3704 -1.3113 -0.1652
  413MOL0     H55724   6.003   0.299  11.992 -3.2971 -2.1011  2.2715
  413MOL0     H55725   5.911   0.118  11.775  1.6390  0.7056  0.7813
  413MOL0     H55726   5.816   0.253  11.864 -1.3822  0.5944 -2.6236
  413MOL0     H55727   5.832   0.130  12.070  1.5313 -1.0311  0.4328
  413MOL0     H55728   5.908   0.005  11.977 -0.8514 -0.8342 -0.5972
  413MOL0     H55729   5.637   0.135  11.930  0.4258  0.4559 -0.5480
  413MOL0     H55730   5.696  -0.005  11.836 -1.3026 -0.5107 -0.0431
  413MOL0     H55731   5.655   0.017  12.142  1.5964 -0.0705 -0.4750
  413MOL0     H55732   5.675  -0.132  12.051 -1.1964 -1.4898  1.0422
  413MOL0     H55733   5.429  -0.098  12.116  0.0208  1.0188  0.2734
  413MOL0     H55734   5.431   0.052  12.028 -2.7142 -1.3264 -0.3058
  413MOL0     H55735   6.268   0.662  11.620  0.1160  0.2367 -0.9071
  413MOL0     H55736   6.434   0.859  11.658 -1.2604  1.7695  2.0903
  413MOL0     H55737   6.960   0.902  11.656 -1.4259 -2.7861  0.5925
  413MOL0     H55738   7.167   0.992  11.752  0.1928  0.3781 -0.7658
  413MOL0     H55739   7.803   0.802  11.100 -2.6583 -0.1982  0.6228
  413MOL0     H55740   7.894   0.712  10.883 -0.2962 -0.4186  1.0503
  413MOL0     H55741   7.801   0.519  10.570 -0.1202  2.4260  0.0134
  413MOL0     H55742   7.884   0.347  10.437 -3.2136  0.8059  0.8112
  413MOL0     H55743   7.938   0.350  10.142  0.6221  1.0339  2.0075
  413MOL0     H55744   7.952   0.216  10.264  3.1210 -2.0061  1.8472
  413MOL0     H55745   8.113   0.262  10.013  0.2549  1.5071  1.5074
  413MOL0     H55746   8.031   0.110  10.054  0.4549  1.2093 -1.9219
  413MOL0     H55747   8.198   0.071  10.253 -1.1649  0.5922 -0.2562
  413MOL0     H55748   8.287   0.204  10.189 -1.1273  1.0586 -1.0160
  413MOL0     H55749   8.404   0.030  10.119  0.9782 -1.2224 -1.9625
  413MOL0     H55750   8.277  -0.064  10.051  0.3390 -0.6485 -3.0939
  413MOL0     H55751   8.327   0.160   9.710 -1.8416 -3.7879 -3.3132
  413MOL0     H55752   8.191   0.585  10.273 -0.7944  3.7090 -0.6369
  413MOL0     H55753   8.195   0.807  10.525 -2.5294  0.4015  1.0774
  413MOL0     H55754   8.214   0.799  10.342 -0.8689 -1.0828 -0.6214
  413MOL0     H55755   8.102   0.912  10.436  3.7791  2.1332 -1.2971
  414MOL0     O55756   7.547   1.158   2.868  0.8917 -0.1655 -0.1460
  414MOL0     C55757   7.440   1.101   2.873  1.2343 -0.6053  0.0610
  414MOL0     O55758   7.402   1.011   2.964  1.1393 -0.6630 -0.7473
  414MOL0     C55759   7.462   0.980   3.090  0.2514  0.5679  0.4869
  414MOL0     C55760   7.430   0.856   3.138  0.6434 -0.7281 -0.9517
  414MOL0     C55761   7.489   0.815   3.261  0.9923  0.5226 -0.3313
  414MOL0     C55762   7.579   0.894   3.332  0.1502  0.2787  0.4523
  414MOL0     O55763   7.639   0.865   3.449 -0.2979  0.1165 -0.0655
  414MOL0     C55764   7.555   0.797   3.547  0.5515  0.2225 -0.8283
  414MOL0     C55765   7.624   0.822   3.680 -0.3170 -0.1554 -0.1173
  414MOL0     C55766   7.780   0.794   3.678  0.6045  0.0327 -0.0435
  414MOL0     C55767   7.850   0.806   3.814 -0.6640 -0.3975 -0.6696
  414MOL0     C55768   8.000   0.855   3.801  0.9597 -0.0174 -0.7255
  414MOL0     C55769   8.085   0.728   3.781  0.4448 -0.0636  0.8109
  414MOL0     C55770   8.233   0.753   3.755  0.1122  1.3583  0.3306
  414MOL0     C55771   8.304   0.846   3.852  0.2241 -0.0177  0.0496
  414MOL0     N55772   8.446   0.821   3.854  0.7686  0.4665  0.1417
  414MOL0     C55773   8.537   0.904   3.791 -0.0470 -0.1300  0.8270
  414MOL0     C55774   8.656   0.847   3.808 -0.5696  0.1770 -0.5028
  414MOL0     C55775   8.777   0.880   3.735  0.8609  0.9158 -0.2613
  414MOL0     C55776   8.833   1.014   3.792 -0.0892  0.0177  0.2125
  414MOL0     C55777   8.866   0.997   3.941 -0.0911 -1.9483  0.9700
  414MOL0     C55778   8.996   0.909   3.969  0.5993  0.0586 -0.0990
  414MOL0     O55779   9.037   0.928   4.106 -0.9524 -0.1222  0.4873
  414MOL0     C55780   9.162   0.886   4.147  0.3563  0.7649  0.1287
  414MOL0     C55781   9.243   0.808   4.069  0.8017  0.0976  0.3310
  414MOL0     C55782   9.365   0.771   4.110 -0.4722  0.8830 -0.2052
  414MOL0     C55783   9.416   0.815   4.235 -0.3281 -1.0339 -0.6682
  414MOL0     C55784   9.547   0.769   4.286  0.0772  0.2151 -0.0793
  414MOL0     O55785   9.618   0.691   4.196  0.0456 -0.3547  0.4707
  414MOL0     C55786   9.743   0.645   4.228  0.3456  1.0532  0.3462
  414MOL0     C55787   9.818   0.589   4.125 -0.1325  0.2514  0.3579
  414MOL0     C55788   9.934   0.516   4.143 -0.1086 -0.2661  0.7461
  414MOL0     C55789   9.978   0.492   4.269 -0.2212  0.3090 -0.0609
  414MOL0     O55790  10.081   0.403   4.294 -0.0305 -0.0916 -0.5972
  414MOL0     C55791  10.203   0.413   4.211  0.0317  0.5122  0.2707
  414MOL0     C55792  10.325   0.348   4.280 -0.5404 -0.0239 -0.3889
  414MOL0     C55793  10.301   0.196   4.298  0.0251  0.2088  0.3497
  414MOL0     C55794  10.293   0.116   4.170 -0.2163 -0.0456 -0.0274
  414MOL0     C55795  10.267  -0.037   4.193  0.6010 -0.1460 -0.0821
  414MOL0     C55796  10.201  -0.091   4.058 -0.6589 -0.2246  0.0626
  414MOL0     C55797  10.112  -0.218   4.085 -0.5678  0.0036  0.4146
  414MOL0     C55798   9.996  -0.217   4.172 -0.2287  0.1150  0.0350
  414MOL0    Cl55799   9.927  -0.383   4.177 -0.2223  0.1492  0.1221
  414MOL0     C55800   9.906   0.553   4.377  0.4404  1.0253  0.0913
  414MOL0     C55801   9.793   0.623   4.356  0.1804 -0.1563  0.6349
  414MOL0     O55802   9.576   0.805   4.397 -0.4202  0.3558 -0.9680
  414MOL0     C55803   9.327   0.891   4.313 -0.0096 -0.6763 -0.0116
  414MOL0     C55804   9.201   0.925   4.271 -0.0095  0.7711  0.4656
  414MOL0     N55805   8.638   0.728   3.877 -0.0857  0.2187 -0.1444
  414MOL0     N55806   8.512   0.708   3.901  0.1198  0.8403  0.8379
  414MOL0     C55807   7.614   1.016   3.271 -0.2923  0.8992  0.4677
  414MOL0     C55808   7.557   1.053   3.152  0.9773 -0.2926 -0.1164
  414MOL0     C55809   7.357   1.133   2.756  0.3430 -0.8637  0.3418
  414MOL0     C55810   7.221   1.161   2.773 -0.4917  0.0653 -0.3252
  414MOL0     C55811   7.147   1.216   2.673 -0.1562 -0.0672 -0.5937
  414MOL0     C55812   7.198   1.244   2.551 -0.0007 -0.0394 -0.1213
  414MOL0     O55813   7.109   1.297   2.459  0.1166  0.6052 -0.3307
  414MOL0     C55814   7.151   1.358   2.330  1.2607 -0.4381  0.2189
  414MOL0     C55815   7.132   1.516   2.346 -0.1190 -1.0563  0.7091
  414MOL0     C55816   7.158   1.597   2.211  0.4353 -0.2162 -0.3162
  414MOL0     C55817   7.290   1.599   2.145 -0.2156  0.2596  0.8008
  414MOL0     C55818   7.382   1.662   2.234  0.2151 -0.1904 -0.2753
  414MOL0     C55819   7.463   1.714   2.303  0.1845 -0.7488 -0.4972
  414MOL0     C55820   7.330   1.203   2.525  0.4586 -0.5781 -0.4313
  414MOL0     C55821   7.407   1.147   2.624 -0.8498 -0.1236 -0.5092
  414MOL0     C55822   7.558   1.114   2.598  0.6219 -0.4084  1.1586
  414MOL0     H55823   7.361   0.786   3.091 -1.4406  2.0267 -2.2930
  414MOL0     H55824   7.453   0.721   3.301 -2.5094  0.3819 -3.2994
  414MOL0     H55825   7.457   0.846   3.553 -1.7247 -3.9591 -0.2361
  414MOL0     H55826   7.541   0.692   3.518  0.8846  0.4959 -2.0397
  414MOL0     H55827   7.591   0.755   3.760  2.4806 -1.5656 -0.0463
  414MOL0     H55828   7.614   0.927   3.711 -0.4725  0.1078 -1.0214
  414MOL0     H55829   7.815   0.875   3.613 -0.5485 -0.6535 -1.6058
  414MOL0     H55830   7.798   0.695   3.636  0.3528  0.9367 -2.4288
  414MOL0     H55831   7.807   0.888   3.872  1.0140  0.8959 -1.1977
  414MOL0     H55832   7.841   0.717   3.877 -3.4513  0.5755  0.4918
  414MOL0     H55833   8.022   0.925   3.719  3.2912 -0.0917 -0.2244
  414MOL0     H55834   8.029   0.899   3.897  2.1527 -1.4303 -0.4107
  414MOL0     H55835   8.088   0.658   3.865  0.0276 -1.0652  0.0180
  414MOL0     H55836   8.035   0.661   3.710  1.5862 -1.7739  1.5688
  414MOL0     H55837   8.248   0.790   3.653 -0.4370  0.8817  0.0726
  414MOL0     H55838   8.281   0.654   3.751 -1.0024  0.8418 -1.2699
  414MOL0     H55839   8.275   0.948   3.826  0.5524 -0.5171 -2.5360
  414MOL0     H55840   8.272   0.816   3.953 -1.5233 -1.0043 -0.7412
  414MOL0     H55841   8.514   0.995   3.736 -2.0858 -2.1081 -1.8749
  414MOL0     H55842   8.856   0.804   3.733  3.2402  3.0933 -4.8692
  414MOL0     H55843   8.748   0.897   3.631 -0.6948  0.9212  0.1556
  414MOL0     H55844   8.917   1.042   3.728  0.0251 -2.2410 -0.7356
  414MOL0     H55845   8.758   1.092   3.778  0.6653  1.3388  2.8414
  414MOL0     H55846   8.772   0.980   3.993 -1.4522  1.0332 -0.2932
  414MOL0     H55847   8.881   1.101   3.973  0.0683 -2.0270  1.1540
  414MOL0     H55848   9.079   0.950   3.911  0.0168  0.2177 -0.8320
  414MOL0     H55849   8.988   0.803   3.943  1.5079 -0.9619  3.2346
  414MOL0     H55850   9.218   0.769   3.971 -0.0083  0.8588  0.2139
  414MOL0     H55851   9.427   0.722   4.035 -1.6443  1.1766 -1.4070
  414MOL0     H55852   9.771   0.586   4.028 -0.5605 -2.9382  0.5333
  414MOL0     H55853   9.980   0.469   4.056 -0.1207  2.4223 -0.8242
  414MOL0     H55854  10.187   0.370   4.111  0.7434  1.0679 -0.0888
  414MOL0     H55855  10.223   0.517   4.183 -2.5881  0.7581 -1.0173
  414MOL0     H55856  10.417   0.376   4.228 -0.3838 -1.8774 -1.1574
  414MOL0     H55857  10.330   0.395   4.379  1.2569 -0.2437 -0.3515
  414MOL0     H55858  10.380   0.167   4.367 -1.1208  3.1235  3.1461
  414MOL0     H55859  10.211   0.182   4.359  1.1697 -1.7970  1.6873
  414MOL0     H55860  10.393   0.137   4.133  0.1037  0.3941  1.0427
  414MOL0     H55861  10.227   0.160   4.095  0.2315  0.5144 -0.1044
  414MOL0     H55862  10.205  -0.055   4.281  1.4895  0.7343  0.7575
  414MOL0     H55863  10.357  -0.095   4.215  0.4892 -0.2243  0.1721
  414MOL0     H55864  10.135  -0.020   4.007  1.7069  2.3127  0.2415
  414MOL0     H55865  10.281  -0.105   3.984 -0.9259 -1.8480  0.0645
  414MOL0     H55866  10.188  -0.287   4.122 -2.0857 -1.7524  0.4020
  414MOL0     H55867  10.083  -0.254   3.986 -1.1428 -1.8480  1.2070
  414MOL0     H55868  10.036  -0.185   4.269 -1.7003  1.1797  0.3172
  414MOL0     H55869   9.916  -0.157   4.128  0.4504  1.2358  0.2956
  414MOL0     H55870   9.942   0.532   4.477 -1.5337 -2.5627  0.2340
  414MOL0     H55871   9.731   0.643   4.443 -1.2075 -2.9845  0.3972
  414MOL0     H55872   9.364   0.914   4.412 -0.2981 -0.7611  0.1172
  414MOL0     H55873   9.128   0.978   4.332 -1.8739 -0.7381 -0.3486
  414MOL0     H55874   7.688   1.076   3.324  3.8701 -3.3011  0.1328
  414MOL0     H55875   7.575   1.153   3.114  1.5783 -0.0125  0.8734
  414MOL0     H55876   7.166   1.140   2.863  0.3254  1.1268  0.4537
  414MOL0     H55877   7.042   1.239   2.691 -0.5164 -1.9093 -0.1613
  414MOL0     H55878   7.079   1.326   2.254  0.9210  0.3990  0.1809
  414MOL0     H55879   7.243   1.314   2.292  0.0746 -3.2462  0.3080
  414MOL0     H55880   7.206   1.548   2.421 -0.1557  0.3769  0.1688
  414MOL0     H55881   7.032   1.526   2.389 -0.1577 -1.3158  0.6791
  414MOL0     H55882   7.118   1.697   2.229 -2.2397 -1.1902 -0.3531
  414MOL0     H55883   7.088   1.557   2.136 -1.7734  1.6720  0.6220
  414MOL0     H55884   7.333   1.499   2.139  0.9185  0.5432  3.1063
  414MOL0     H55885   7.295   1.655   2.050 -2.1482  0.1090  0.5714
  414MOL0     H55886   7.525   1.755   2.380 -0.9747  0.4741 -0.1819
  414MOL0     H55887   7.379   1.208   2.429 -0.0596 -4.1673 -1.0161
  414MOL0     H55888   7.606   1.209   2.624 -0.0589 -0.4437  2.6056
  414MOL0     H55889   7.580   1.033   2.667  1.0330 -0.4150  1.0259
  414MOL0     H55890   7.585   1.083   2.497  2.7090  1.4934  1.0270
  415MOL0     O55891   7.018   5.491  10.512  0.1430 -0.1969  0.2907
  415MOL0     C55892   6.967   5.583  10.452  0.2162 -0.2292  0.5942
  415MOL0     O55893   7.036   5.688  10.399  0.3202  0.1702 -0.3387
  415MOL0     C55894   7.158   5.727  10.447 -0.3550  0.3472  0.4591
  415MOL0     C55895   7.191   5.859  10.478  0.8154  0.4197 -0.8295
  415MOL0     C55896   7.321   5.890  10.507  0.4474  1.0577 -0.6703
  415MOL0     C55897   7.424   5.794  10.518  0.0016  0.5007  0.2600
  415MOL0     O55898   7.549   5.849  10.527  0.2207  0.0834  0.0472
  415MOL0     C55899   7.659   5.766  10.502 -0.0142  0.6229  0.6803
  415MOL0     C55900   7.768   5.863  10.545  0.3940 -0.0695 -0.4059
  415MOL0     C55901   7.902   5.773  10.526 -0.1837  0.0581  0.5925
  415MOL0     C55902   8.031   5.852  10.588  0.2246  0.5584 -0.1313
  415MOL0     C55903   8.152   5.754  10.631 -0.3464 -0.0363  0.0635
  415MOL0     C55904   8.129   5.671  10.757 -0.0646 -0.3055 -0.0084
  415MOL0     C55905   8.270   5.625  10.811 -0.5677 -0.6451 -0.2695
  415MOL0     C55906   8.266   5.536  10.936  0.5553 -0.6238 -0.7138
  415MOL0     N55907   8.361   5.563  11.039 -0.4020  0.8757  0.4730
  415MOL0     C55908   8.467   5.483  11.067 -0.1501 -0.0865 -0.4318
  415MOL0     C55909   8.548   5.550  11.158  0.2961 -0.8577  0.0653
  415MOL0     C55910   8.682   5.488  11.189  0.0132  0.1321 -1.0063
  415MOL0     C55911   8.649   5.355  11.257  0.1285  0.8524  0.3427
  415MOL0     C55912   8.764   5.260  11.265 -0.1146 -0.2937  0.3707
  415MOL0     C55913   8.880   5.309  11.362 -0.3936 -0.5467  0.0918
  415MOL0     O55914   8.839   5.308  11.499  0.1762  0.3742  0.1475
  415MOL0     C55915   8.929   5.369  11.581 -0.0582 -0.9995 -0.2040
  415MOL0     C55916   9.063   5.333  11.587  0.2103 -0.9022  0.6342
  415MOL0     C55917   9.144   5.383  11.689  0.4202  0.5124 -0.4479
  415MOL0     C55918   9.101   5.477  11.778 -0.4624  0.2283  0.5899
  415MOL0     C55919   9.200   5.539  11.868  0.6840 -0.2177 -0.2838
  415MOL0     O55920   9.317   5.475  11.879 -0.5929  0.1095 -1.1131
  415MOL0     C55921   9.397   5.499  11.991  0.6638 -0.3600  0.0705
  415MOL0     C55922   9.531   5.461  11.966  0.3358 -0.8524 -0.4505
  415MOL0     C55923   9.631   5.518  12.043 -1.0612  0.1435 -0.2098
  415MOL0     C55924   9.605   5.578  12.166 -0.1241 -0.4106  0.4770
  415MOL0     O55925   9.694   5.598  12.270  0.9494 -0.1992  0.0856
  415MOL0     C55926   9.830   5.627  12.245  0.2747 -0.3153 -0.0644
  415MOL0     C55927   9.917   5.522  12.290  0.0410 -0.3051 -0.3010
  415MOL0     C55928  10.066   5.533  12.241 -0.0180 -0.1613  0.9084
  415MOL0     C55929  10.127   5.394  12.259 -1.2273  0.2653  0.3781
  415MOL0     C55930  10.268   5.370  12.196 -0.7973 -0.0562 -0.1142
  415MOL0     C55931  10.388   5.422  12.272 -0.2878 -0.2594 -0.2002
  415MOL0     C55932  10.519   5.404  12.190  0.5629  0.4922  0.2084
  415MOL0     C55933  10.554   5.530  12.102 -0.5919 -0.0098 -0.7154
  415MOL0    Cl55934  10.715   5.496  12.012  0.3873 -0.4342  0.3425
  415MOL0     C55935   9.473   5.612  12.205  1.0291  1.0594 -0.0924
  415MOL0     C55936   9.367   5.567  12.119 -0.1519  0.4132 -0.6223
  415MOL0     O55937   9.167   5.642  11.931 -0.1229  0.1430  0.5466
  415MOL0     C55938   8.967   5.512  11.767 -0.3930  0.3918 -0.1576
  415MOL0     C55939   8.883   5.461  11.670 -0.1658 -0.1725 -0.3549
  415MOL0     N55940   8.480   5.666  11.188  0.0491  0.5496 -0.9498
  415MOL0     N55941   8.376   5.674  11.120 -0.3228  0.3462 -0.3059
  415MOL0     C55942   7.390   5.661  10.499 -0.0655 -0.8526 -0.5094
  415MOL0     C55943   7.257   5.630  10.457 -1.1880  0.1165 -0.3169
  415MOL0     C55944   6.824   5.597  10.415 -0.4630  0.4141 -0.5754
  415MOL0     C55945   6.763   5.723  10.383 -0.7663 -0.2655 -0.2523
  415MOL0     C55946   6.634   5.737  10.338 -0.8880  0.6236  0.1609
  415MOL0     C55947   6.556   5.624  10.322 -0.8011 -0.0749 -0.1221
  415MOL0     O55948   6.428   5.631  10.281 -0.4794  0.0553 -0.1117
  415MOL0     C55949   6.408   5.669  10.153 -0.2756 -0.4399  0.2219
  415MOL0     C55950   6.315   5.570  10.085  0.5537 -0.2420  0.7695
  415MOL0     C55951   6.175   5.581  10.158  0.6890 -0.5824  0.3651
  415MOL0     C55952   6.071   5.488  10.098 -0.4880 -1.0025 -0.3807
  415MOL0     C55953   5.930   5.531  10.105  0.3643 -0.2004 -0.2031
  415MOL0     C55954   5.814   5.547  10.075 -1.0733 -0.9769  0.0332
  415MOL0     C55955   6.603   5.499  10.359 -0.4218  0.3743 -0.4940
  415MOL0     C55956   6.734   5.477  10.410  0.6415 -0.3397  0.3879
  415MOL0     C55957   6.774   5.335  10.444 -0.2906 -0.6389 -0.0133
  415MOL0     H55958   7.119   5.940  10.472  0.2026  0.0295  0.8193
  415MOL0     H55959   7.346   5.990  10.541  0.1395 -0.1893  3.9021
  415MOL0     H55960   7.657   5.680  10.570  0.9848  0.9084  1.0745
  415MOL0     H55961   7.664   5.751  10.393  0.6871  3.2096  0.2898
  415MOL0     H55962   7.761   5.891  10.650  3.6550 -1.4538  0.3064
  415MOL0     H55963   7.782   5.954  10.486  0.5152 -1.1762 -2.1893
  415MOL0     H55964   7.922   5.750  10.421  1.1002  0.9370  0.6304
  415MOL0     H55965   7.874   5.687  10.588 -1.5527 -0.3118 -0.4832
  415MOL0     H55966   8.070   5.906  10.501  1.6659 -1.8203 -1.0704
  415MOL0     H55967   8.027   5.924  10.669  1.3549  0.9927 -0.4410
  415MOL0     H55968   8.177   5.686  10.548  1.3650  1.3402 -0.6151
  415MOL0     H55969   8.242   5.816  10.641  0.3634 -1.2578  1.6775
  415MOL0     H55970   8.073   5.735  10.826 -0.0347 -0.4949  0.1944
  415MOL0     H55971   8.066   5.583  10.741 -0.3309  0.0496 -0.9506
  415MOL0     H55972   8.323   5.717  10.837 -2.3426 -0.0975  1.6694
  415MOL0     H55973   8.312   5.566  10.729  0.4729  1.4787 -1.3427
  415MOL0     H55974   8.176   5.575  10.984  1.4086 -0.3515  0.7271
  415MOL0     H55975   8.260   5.432  10.902 -0.8514 -0.3752 -1.2885
  415MOL0     H55976   8.484   5.386  11.022  1.4939  1.3630 -3.2175
  415MOL0     H55977   8.739   5.464  11.098 -0.5034  0.0247 -1.3084
  415MOL0     H55978   8.741   5.545  11.261  0.8111 -0.7660 -0.9207
  415MOL0     H55979   8.612   5.368  11.359 -0.4319 -1.7166  0.5503
  415MOL0     H55980   8.569   5.308  11.198 -0.6237 -0.4320  2.2844
  415MOL0     H55981   8.797   5.248  11.161 -1.9701  1.3997 -0.4906
  415MOL0     H55982   8.723   5.162  11.290 -2.9490  0.6938 -0.0558
  415MOL0     H55983   8.916   5.406  11.329  0.0744 -0.5920  0.4601
  415MOL0     H55984   8.963   5.239  11.356  2.0629  2.2651 -0.8490
  415MOL0     H55985   9.117   5.259  11.528  0.1500 -0.2534 -0.2576
  415MOL0     H55986   9.248   5.352  11.686  0.8124  1.7028  0.1809
  415MOL0     H55987   9.558   5.394  11.884  3.8180  2.8389 -2.6981
  415MOL0     H55988   9.737   5.497  12.034  0.0536  3.8513  2.0016
  415MOL0     H55989   9.852   5.624  12.138  0.5411  1.7612 -0.1132
  415MOL0     H55990   9.859   5.720  12.295  2.6325 -1.4648  0.8402
  415MOL0     H55991   9.923   5.520  12.399 -2.1831  0.8993 -0.1079
  415MOL0     H55992   9.876   5.428  12.253 -1.1434  0.8719 -2.1674
  415MOL0     H55993  10.062   5.557  12.135  1.8807 -1.7260  0.4214
  415MOL0     H55994  10.122   5.605  12.302  1.0832 -0.1273 -0.1007
  415MOL0     H55995  10.065   5.317  12.211  0.9399 -0.3265 -1.6478
  415MOL0     H55996  10.130   5.362  12.364 -0.3352  3.4450  1.4241
  415MOL0     H55997  10.261   5.392  12.089  0.5516 -0.7315 -0.3662
  415MOL0     H55998  10.291   5.263  12.194  1.8934  0.4760 -0.8621
  415MOL0     H55999  10.378   5.525  12.309  0.4730 -0.8087  1.6707
  415MOL0     H56000  10.383   5.360  12.362 -0.0570 -1.1606 -0.8024
  415MOL0     H56001  10.486   5.316  12.132 -1.5633  1.0854  0.4275
  415MOL0     H56002  10.596   5.371  12.260  0.4618 -1.9049 -0.7147
  415MOL0     H56003  10.472   5.550  12.034 -0.9950 -0.4427 -0.3624
  415MOL0     H56004  10.567   5.618  12.165 -0.1997  1.2470 -2.4848
  415MOL0     H56005   9.456   5.673  12.293  0.1663 -2.4318  2.3991
  415MOL0     H56006   9.265   5.594  12.146 -0.0096 -0.8142  1.3242
  415MOL0     H56007   8.921   5.582  11.836 -1.0393 -0.3865  0.2135
  415MOL0     H56008   8.782   5.501  11.666 -0.0112  0.2436 -0.2317
  415MOL0     H56009   7.470   5.590  10.489 -1.4257 -2.2938 -1.6818
  415MOL0     H56010   7.231   5.532  10.420 -5.0881  1.1908 -0.8984
  415MOL0     H56011   6.819   5.815  10.395 -0.0117 -0.5331 -1.5554
  415MOL0     H56012   6.586   5.835  10.334 -1.4311  0.3370 -0.6049
  415MOL0     H56013   6.501   5.677  10.096 -0.2815 -0.9804  0.1268
  415MOL0     H56014   6.377   5.774  10.153 -0.9800 -0.6301  1.2147
  415MOL0     H56015   6.368   5.475  10.095  1.7003  0.1073 -1.3801
  415MOL0     H56016   6.308   5.583   9.977  0.1654 -0.7307  0.7320
  415MOL0     H56017   6.136   5.682  10.139 -2.5136 -1.9607 -1.0511
  415MOL0     H56018   6.188   5.561  10.265 -0.4476 -2.3724  0.2089
  415MOL0     H56019   6.087   5.464   9.993  1.2818  0.0126 -0.3799
  415MOL0     H56020   6.082   5.396  10.156  0.0208 -0.0622  1.0917
  415MOL0     H56021   5.711   5.574  10.063 -0.6361 -0.3136 -3.6773
  415MOL0     H56022   6.533   5.417  10.349  0.8810 -0.9169  0.5485
  415MOL0     H56023   6.877   5.318  10.411 -0.2119 -1.5748  0.6678
  415MOL0     H56024   6.755   5.306  10.547  0.8038 -1.9385 -0.1514
  415MOL0     H56025   6.718   5.261  10.386  1.3207 -2.1834  0.2975
  416MOL0     O56026   8.023   9.932  10.982  0.1890  0.0905 -0.6145
  416MOL0     C56027   7.991  10.007  11.075  0.7468 -0.3426  0.1388
  416MOL0     O56028   8.036  10.133  11.094  0.0894 -0.4138  0.0022
  416MOL0     C56029   8.159  10.156  11.035  0.1697 -0.7552 -0.5964
  416MOL0     C56030   8.280  10.179  11.111  1.0105  0.6623  0.3766
  416MOL0     C56031   8.395  10.218  11.044  0.4732  0.6891 -0.3957
  416MOL0     C56032   8.397  10.252  10.905  0.8122  1.0993  0.0794
  416MOL0     O56033   8.516  10.287  10.841  0.6210  0.3470 -0.1339
  416MOL0     C56034   8.643  10.275  10.905 -0.6921  0.0996  1.0689
  416MOL0     C56035   8.740  10.319  10.790 -0.0764 -0.6311 -0.2616
  416MOL0     C56036   8.879  10.342  10.851  0.4505 -0.1517  0.3577
  416MOL0     C56037   8.990  10.371  10.741  0.6941 -0.0396 -0.8769
  416MOL0     C56038   9.077  10.483  10.791 -0.1714 -0.5226 -0.5723
  416MOL0     C56039   9.205  10.445  10.867 -0.7041  0.3496  0.5568
  416MOL0     C56040   9.306  10.386  10.761  0.1838 -0.6341  1.2914
  416MOL0     C56041   9.446  10.337  10.826 -0.2387 -0.4989  1.0880
  416MOL0     N56042   9.498  10.434  10.915  0.1341  0.5811  0.1919
  416MOL0     C56043   9.480  10.427  11.051 -0.2094  0.0559 -0.6219
  416MOL0     C56044   9.551  10.532  11.098  0.2902 -0.6948 -0.5801
  416MOL0     C56045   9.534  10.587  11.240  0.2603  0.4308  0.3073
  416MOL0     C56046   9.377  10.620  11.258 -0.6999 -0.1342 -0.8441
  416MOL0     C56047   9.368  10.733  11.359  0.0454 -0.7587 -0.5066
  416MOL0     C56048   9.230  10.770  11.392  0.1624 -0.7078 -0.6335
  416MOL0     O56049   9.175  10.676  11.493  0.1259  0.7079  0.6447
  416MOL0     C56050   9.042  10.700  11.522 -0.5571  0.1863  0.5782
  416MOL0     C56051   8.961  10.810  11.493  1.1971 -1.3086  0.6287
  416MOL0     C56052   8.835  10.824  11.549  0.2561 -0.1949 -0.5393
  416MOL0     C56053   8.774  10.716  11.610 -0.7808  0.5413 -0.5656
  416MOL0     C56054   8.634  10.723  11.635  0.4526 -1.0623  0.2312
  416MOL0     O56055   8.565  10.837  11.605  0.0998 -0.4798  0.6816
  416MOL0     C56056   8.431  10.842  11.642  0.4281 -0.0378 -0.1457
  416MOL0     C56057   8.351  10.902  11.534  0.7025 -0.1507 -0.9137
  416MOL0     C56058   8.214  10.925  11.551  0.2807 -0.1069  0.6823
  416MOL0     C56059   8.154  10.876  11.666  0.1958  0.6782 -0.5618
  416MOL0     O56060   8.013  10.885  11.680  0.2559 -0.1754 -0.1895
  416MOL0     C56061   7.950  10.759  11.701  0.5863 -0.2204  0.6786
  416MOL0     C56062   7.866  10.716  11.585  1.6939 -0.6911 -0.1587
  416MOL0     C56063   7.770  10.596  11.611  0.1549  0.5076  0.0941
  416MOL0     C56064   7.714  10.534  11.475 -0.0540  1.1572 -1.0492
  416MOL0     C56065   7.627  10.629  11.385 -0.4880  0.1073  0.3035
  416MOL0     C56066   7.491  10.669  11.454  0.4208 -0.1146  0.0964
  416MOL0     C56067   7.383  10.561  11.453  0.3560 -0.0463 -0.9403
  416MOL0     C56068   7.266  10.601  11.541  0.3344  0.8064 -0.2536
  416MOL0    Cl56069   7.176  10.450  11.593 -0.1591  0.3310 -0.0057
  416MOL0     C56070   8.231  10.801  11.762  0.5454 -0.0432 -0.5859
  416MOL0     C56071   8.373  10.789  11.758  0.6442 -0.3435  1.1302
  416MOL0     O56072   8.590  10.618  11.678 -0.0159  0.8024  0.3849
  416MOL0     C56073   8.855  10.615  11.654 -0.5577 -0.1109  0.5362
  416MOL0     C56074   8.988  10.610  11.611 -0.8164  0.1332 -0.4583
  416MOL0     N56075   9.606  10.603  10.993  0.2304  1.3559  0.9566
  416MOL0     N56076   9.570  10.545  10.883  0.7980  0.2077 -0.6009
  416MOL0     C56077   8.276  10.249  10.831  0.0766  0.1751  0.2837
  416MOL0     C56078   8.162  10.197  10.899 -0.0857  0.1109  0.4310
  416MOL0     C56079   7.895   9.969  11.179  0.3482 -0.2738 -0.0705
  416MOL0     C56080   7.881  10.052  11.292  0.7204  0.6979 -0.0441
  416MOL0     C56081   7.799  10.020  11.403 -0.1084 -0.2849 -0.7144
  416MOL0     C56082   7.734   9.901  11.412  0.8961  0.1166  0.1814
  416MOL0     O56083   7.670   9.875  11.532 -0.1985  0.1974  0.5442
  416MOL0     C56084   7.608   9.752  11.549  0.5072 -0.1386 -0.6888
  416MOL0     C56085   7.570   9.744  11.695 -0.0643 -0.3734 -0.1178
  416MOL0     C56086   7.475   9.623  11.720  0.0160  0.1759  0.2355
  416MOL0     C56087   7.425   9.636  11.866  0.5433 -0.6884  0.9307
  416MOL0     C56088   7.534   9.592  11.949 -0.0401  0.1904 -0.5315
  416MOL0     C56089   7.619   9.549  12.025  0.7239 -0.0527  0.2520
  416MOL0     C56090   7.730   9.825  11.294 -0.4317 -0.4133 -0.5553
  416MOL0     C56091   7.807   9.859  11.178 -1.1136  0.3317 -0.2573
  416MOL0     C56092   7.793   9.765  11.057 -0.6381  0.4662  0.8094
  416MOL0     H56093   8.273  10.172  11.219 -1.7492  1.7779  0.3580
  416MOL0     H56094   8.484  10.220  11.105  0.8085 -2.8416 -0.5900
  416MOL0     H56095   8.651  10.347  10.987 -0.6332  1.8989 -0.4546
  416MOL0     H56096   8.671  10.176  10.942 -1.3437 -0.5840 -0.1894
  416MOL0     H56097   8.693  10.411  10.754 -0.3267 -0.3777  0.7045
  416MOL0     H56098   8.735  10.244  10.710 -0.0737  1.1269 -1.9841
  416MOL0     H56099   8.910  10.251  10.904 -1.7989 -1.2608 -0.0960
  416MOL0     H56100   8.878  10.417  10.930 -2.1871  0.1812  0.1111
  416MOL0     H56101   9.048  10.284  10.711 -0.9468 -1.4229 -0.2002
  416MOL0     H56102   8.944  10.417  10.653 -0.7215 -1.3828 -0.8798
  416MOL0     H56103   9.123  10.525  10.700 -0.0417 -3.2200 -1.8459
  416MOL0     H56104   9.022  10.564  10.838  0.9861 -1.0751  1.8789
  416MOL0     H56105   9.254  10.529  10.916  3.8375 -0.1320 -2.5562
  416MOL0     H56106   9.185  10.361  10.933  2.0008 -0.4995  0.3852
  416MOL0     H56107   9.328  10.465  10.689 -1.8100  0.1011  1.4215
  416MOL0     H56108   9.271  10.307  10.695 -2.4447  1.0559  0.4818
  416MOL0     H56109   9.441  10.238  10.872 -0.2021 -1.8225 -1.5248
  416MOL0     H56110   9.515  10.320  10.743 -0.0891  0.2799  1.0479
  416MOL0     H56111   9.413  10.363  11.109  1.2232 -0.1545  0.8789
  416MOL0     H56112   9.576  10.524  11.318  2.2447  3.3706  1.7701
  416MOL0     H56113   9.590  10.681  11.247  0.0813  0.4076  3.5280
  416MOL0     H56114   9.321  10.647  11.169 -0.4508 -2.2159 -1.6941
  416MOL0     H56115   9.332  10.529  11.299 -0.1804 -0.9851 -2.0819
  416MOL0     H56116   9.420  10.821  11.322  3.2010 -1.7744  1.0793
  416MOL0     H56117   9.419  10.699  11.450  3.4358  0.1828 -1.9283
  416MOL0     H56118   9.166  10.778  11.303 -1.2300  0.1460  0.4097
  416MOL0     H56119   9.227  10.871  11.433  1.5144  0.3334 -2.9150
  416MOL0     H56120   9.012  10.891  11.442  0.6251 -1.9732 -1.0880
  416MOL0     H56121   8.779  10.910  11.516 -1.2932 -1.3524 -1.0596
  416MOL0     H56122   8.414  10.935  11.452  1.4953  1.2273  0.2008
  416MOL0     H56123   8.154  10.986  11.484  2.8400 -0.1382 -1.8458
  416MOL0     H56124   8.017  10.673  11.711 -1.0186 -1.4681  1.0902
  416MOL0     H56125   7.887  10.768  11.790 -0.3854 -1.5378  0.1600
  416MOL0     H56126   7.796  10.799  11.567  1.7353 -0.4749  0.6449
  416MOL0     H56127   7.931  10.699  11.499  1.7528  2.2527 -0.8195
  416MOL0     H56128   7.827  10.513  11.652 -1.6364 -1.1318 -0.5847
  416MOL0     H56129   7.679  10.623  11.667 -0.2255 -1.8082  0.6754
  416MOL0     H56130   7.654  10.453  11.518  3.2359 -0.4276  1.0396
  416MOL0     H56131   7.799  10.493  11.420 -2.6129 -2.6156 -2.6209
  416MOL0     H56132   7.614  10.572  11.293 -0.2446  2.2817 -1.1659
  416MOL0     H56133   7.697  10.710  11.361 -1.5313  0.7229 -0.7768
  416MOL0     H56134   7.510  10.702  11.556 -3.1949  1.0747  0.5223
  416MOL0     H56135   7.464  10.761  11.401 -1.5246  1.0991  2.9639
  416MOL0     H56136   7.422  10.468  11.495 -0.2952  1.0657  2.5058
  416MOL0     H56137   7.342  10.532  11.356 -1.0640 -1.4124  0.0107
  416MOL0     H56138   7.302  10.641  11.636  2.0536  0.3819 -0.6894
  416MOL0     H56139   7.199  10.674  11.494 -1.0683  0.5482  1.2540
  416MOL0     H56140   8.177  10.762  11.848  2.2023 -1.1118  0.0139
  416MOL0     H56141   8.426  10.726  11.830  1.8814  1.0642  1.5122
  416MOL0     H56142   8.822  10.529  11.709 -1.4458 -1.2635 -1.6821
  416MOL0     H56143   9.052  10.534  11.653 -0.5094 -2.6468 -5.1757
  416MOL0     H56144   8.281  10.274  10.725 -2.9739 -1.5883 -0.3920
  416MOL0     H56145   8.067  10.188  10.849  0.4115  0.8983 -0.6853
  416MOL0     H56146   7.931  10.148  11.299  0.3051  0.9246 -0.1389
  416MOL0     H56147   7.805  10.078  11.495  3.5933 -3.1811  1.1424
  416MOL0     H56148   7.682   9.679  11.515  1.1142 -0.9623  2.1813
  416MOL0     H56149   7.530   9.741  11.472 -0.3424 -0.5713  0.2104
  416MOL0     H56150   7.523   9.837  11.727  0.3420  0.4682 -1.8762
  416MOL0     H56151   7.659   9.742  11.759  0.2319  1.5846 -0.3939
  416MOL0     H56152   7.516   9.523  11.704 -2.6101 -0.5386 -3.0636
  416MOL0     H56153   7.394   9.624  11.647  1.4824 -0.0803 -1.4754
  416MOL0     H56154   7.389   9.738  11.884 -0.8139 -0.6416 -1.5842
  416MOL0     H56155   7.334   9.579  11.885 -0.3133  0.0965 -0.5686
  416MOL0     H56156   7.700   9.499  12.075  0.9538 -3.0392 -2.7078
  416MOL0     H56157   7.668   9.736  11.297 -0.2533 -0.6147  4.0963
  416MOL0     H56158   7.742   9.668  11.069 -2.0545  0.7006 -2.2113
  416MOL0     H56159   7.738   9.815  10.976 -1.3607 -1.6356 -0.0753
  416MOL0     H56160   7.890   9.737  11.017 -1.0621  1.0689 -0.7222
  417MOL0     O56161   4.573   8.465   3.948 -0.2671 -0.2603  0.1608
  417MOL0     C56162   4.476   8.532   3.978  0.5871 -0.0000  0.1015
  417MOL0     O56163   4.472   8.653   4.047  0.0037  0.2974 -0.3520
  417MOL0     C56164   4.593   8.709   4.079 -0.4249  0.3423  0.4376
  417MOL0     C56165   4.654   8.676   4.206  0.8473  0.3231  0.3974
  417MOL0     C56166   4.787   8.705   4.229 -0.2273 -0.8402  0.3247
  417MOL0     C56167   4.850   8.785   4.135  0.1572  0.5047  0.6093
  417MOL0     O56168   4.982   8.809   4.159 -0.4323 -0.4980  0.3540
  417MOL0     C56169   5.036   8.937   4.123  0.2588  0.1767 -0.4090
  417MOL0     C56170   5.136   8.921   4.014 -0.2992 -0.0433 -0.6834
  417MOL0     C56171   5.276   8.902   4.061  0.2771 -0.2408 -0.2582
  417MOL0     C56172   5.366   8.889   3.941 -0.6340  0.3840  0.9169
  417MOL0     C56173   5.520   8.873   3.969 -0.0930  0.1043 -0.2563
  417MOL0     C56174   5.595   8.942   3.855 -0.6579  0.2953  0.2534
  417MOL0     C56175   5.733   8.879   3.843  0.1532  0.1195 -0.2840
  417MOL0     C56176   5.732   8.737   3.784 -0.4357  0.3097 -0.1996
  417MOL0     N56177   5.632   8.725   3.672  0.1905 -1.2962  0.3234
  417MOL0     C56178   5.500   8.679   3.673  0.1963 -0.3209 -0.1659
  417MOL0     C56179   5.456   8.702   3.542  0.1245 -0.6361 -0.4075
  417MOL0     C56180   5.316   8.677   3.478 -0.0379  0.0993  0.0952
  417MOL0     C56181   5.319   8.536   3.412 -0.0326 -0.4908  0.5608
  417MOL0     C56182   5.197   8.454   3.421  0.6212 -0.3522 -0.2578
  417MOL0     C56183   5.223   8.305   3.423 -0.8269 -0.3268  0.3351
  417MOL0     O56184   5.090   8.245   3.445  0.2534 -0.3790 -0.5761
  417MOL0     C56185   5.071   8.116   3.409 -0.1379  0.0472 -0.5206
  417MOL0     C56186   5.173   8.021   3.407  0.4530  0.3700  0.9193
  417MOL0     C56187   5.153   7.891   3.364  0.2956  0.1497 -0.8308
  417MOL0     C56188   5.020   7.854   3.323 -0.3593  0.3311 -0.3185
  417MOL0     C56189   4.988   7.718   3.279 -0.5484  0.5839 -0.6480
  417MOL0     O56190   4.859   7.674   3.271 -0.2884 -0.2091 -0.2454
  417MOL0     C56191   4.835   7.540   3.276 -0.1788 -0.7763  0.5085
  417MOL0     C56192   4.869   7.453   3.377 -0.4825  0.3537 -0.9794
  417MOL0     C56193   4.794   7.339   3.391  0.4986  0.8165  0.1026
  417MOL0     C56194   4.706   7.288   3.292  0.1629  0.4430 -0.3161
  417MOL0     O56195   4.634   7.166   3.297 -0.7425 -0.3812 -0.1708
  417MOL0     C56196   4.697   7.067   3.378 -0.8772  0.6810  0.7080
  417MOL0     C56197   4.644   6.929   3.329  0.0447 -0.1392 -0.0545
  417MOL0     C56198   4.709   6.815   3.407 -0.0459  0.7245 -0.3960
  417MOL0     C56199   4.687   6.813   3.558  0.7221  0.0746  0.5391
  417MOL0     C56200   4.730   6.684   3.630  0.6861 -0.1015 -1.1874
  417MOL0     C56201   4.866   6.632   3.597 -0.0875  0.1645  0.0038
  417MOL0     C56202   4.916   6.528   3.702  0.0096 -0.2978 -0.6254
  417MOL0     C56203   4.825   6.398   3.709  0.0677 -0.0221 -0.3758
  417MOL0    Cl56204   4.881   6.278   3.831 -0.4029  0.5563 -0.0646
  417MOL0     C56205   4.686   7.368   3.179 -0.7753  0.1204 -0.4983
  417MOL0     C56206   4.752   7.495   3.169  0.3673 -1.4326 -0.1404
  417MOL0     O56207   5.089   7.654   3.249  0.1053  0.1878  0.3867
  417MOL0     C56208   4.925   7.949   3.329 -0.0261 -0.5858 -0.3821
  417MOL0     C56209   4.943   8.074   3.379  0.0793  0.3451  0.4739
  417MOL0     N56210   5.559   8.757   3.463 -0.5083  0.0120  0.0368
  417MOL0     N56211   5.662   8.779   3.546 -0.3309  0.9494 -0.4999
  417MOL0     C56212   4.778   8.839   4.022 -1.2261 -0.5905 -0.2782
  417MOL0     C56213   4.649   8.803   4.000  0.2693 -1.0553  0.4893
  417MOL0     C56214   4.338   8.485   3.934 -0.4315 -0.1899 -0.0402
  417MOL0     C56215   4.239   8.585   3.937 -0.3358  0.0141  0.5393
  417MOL0     C56216   4.113   8.555   3.883  0.6846  0.0966  0.8787
  417MOL0     C56217   4.070   8.431   3.844 -0.1905 -1.7724  0.3946
  417MOL0     O56218   3.953   8.405   3.782 -0.8990  0.7530  0.3159
  417MOL0     C56219   3.847   8.489   3.816 -0.1565 -0.0959  0.5677
  417MOL0     C56220   3.716   8.426   3.773 -0.4671 -0.0085  0.3172
  417MOL0     C56221   3.613   8.534   3.812  0.5439 -0.0530 -0.3419
  417MOL0     C56222   3.511   8.572   3.704 -0.0001  0.5290 -0.0117
  417MOL0     C56223   3.373   8.546   3.754  0.3064  0.2531  0.2133
  417MOL0     C56224   3.266   8.500   3.791 -1.1482 -0.2279 -0.9456
  417MOL0     C56225   4.161   8.331   3.851 -0.6382  0.0996 -0.4370
  417MOL0     C56226   4.292   8.356   3.896 -0.0927 -0.6928 -0.2977
  417MOL0     C56227   4.371   8.235   3.938 -0.3804 -0.6238 -0.3400
  417MOL0     H56228   4.605   8.606   4.273  0.1271  0.4945  0.0617
  417MOL0     H56229   4.833   8.661   4.317 -2.3234 -2.3353  0.7524
  417MOL0     H56230   4.955   9.006   4.101 -2.5552 -2.1484  1.7618
  417MOL0     H56231   5.087   8.986   4.205  0.9211  0.8322 -1.1957
  417MOL0     H56232   5.133   9.018   3.963  4.7263  0.0113 -1.3854
  417MOL0     H56233   5.105   8.848   3.938  2.0843  0.5024 -2.3301
  417MOL0     H56234   5.277   8.808   4.117 -1.2775 -2.5803 -3.8446
  417MOL0     H56235   5.311   8.988   4.119 -0.7158  2.4591 -3.3320
  417MOL0     H56236   5.332   8.802   3.885  1.0581  0.2253  0.0746
  417MOL0     H56237   5.347   8.979   3.882 -1.7653  0.8313  1.9200
  417MOL0     H56238   5.543   8.922   4.064 -0.6578 -0.4173  0.1512
  417MOL0     H56239   5.549   8.769   3.986  0.9068  0.2655 -0.8844
  417MOL0     H56240   5.543   8.959   3.760 -0.7679  3.9971  0.8461
  417MOL0     H56241   5.627   9.045   3.872  0.2458 -0.2196  1.8568
  417MOL0     H56242   5.784   8.871   3.939 -0.2897 -0.8407 -0.1149
  417MOL0     H56243   5.790   8.949   3.781 -0.7356  0.9305 -0.2114
  417MOL0     H56244   5.818   8.706   3.725 -1.7472 -1.0068 -1.4869
  417MOL0     H56245   5.720   8.671   3.870  3.2160 -1.0471 -0.5584
  417MOL0     H56246   5.442   8.638   3.755  1.6244 -0.9169  0.5814
  417MOL0     H56247   5.230   8.674   3.544 -0.2103 -3.8540 -0.0870
  417MOL0     H56248   5.298   8.752   3.400 -0.6879 -2.7585 -2.7112
  417MOL0     H56249   5.363   8.518   3.313 -0.5172 -2.3664  0.6406
  417MOL0     H56250   5.398   8.482   3.464  2.1708 -0.4731 -2.5034
  417MOL0     H56251   5.120   8.489   3.351  1.8540 -0.1884 -1.5816
  417MOL0     H56252   5.151   8.475   3.517 -1.1603  0.0328 -1.1606
  417MOL0     H56253   5.297   8.278   3.498 -1.2173  0.0411  0.8696
  417MOL0     H56254   5.265   8.280   3.325  0.9531  0.6949  0.7979
  417MOL0     H56255   5.269   8.059   3.439  2.1113  0.9454 -4.0083
  417MOL0     H56256   5.233   7.818   3.363  1.3936  1.2740 -2.9412
  417MOL0     H56257   4.916   7.475   3.473 -0.9093  0.9985 -0.9086
  417MOL0     H56258   4.810   7.266   3.469  1.2638 -1.1178 -1.7598
  417MOL0     H56259   4.806   7.066   3.370 -0.8387  0.1741  1.2291
  417MOL0     H56260   4.674   7.087   3.483  0.1207 -0.6232  1.2104
  417MOL0     H56261   4.536   6.913   3.341 -0.4888  2.0685 -1.3580
  417MOL0     H56262   4.657   6.915   3.222 -4.0757  0.2151 -0.7534
  417MOL0     H56263   4.665   6.719   3.381 -0.8770  1.1130 -0.4662
  417MOL0     H56264   4.814   6.823   3.378 -1.0187  1.6400 -4.1605
  417MOL0     H56265   4.579   6.821   3.574  0.5381 -1.7486  0.3512
  417MOL0     H56266   4.730   6.905   3.598 -0.6054  0.8945  0.1683
  417MOL0     H56267   4.670   6.600   3.592  1.6845  0.0311 -3.1832
  417MOL0     H56268   4.699   6.690   3.735 -0.3492 -2.2742 -1.3110
  417MOL0     H56269   4.868   6.587   3.497  2.5118  2.4560 -1.0881
  417MOL0     H56270   4.944   6.709   3.594 -0.8696  0.9380 -2.1469
  417MOL0     H56271   4.903   6.589   3.792  0.9584 -2.6394  1.1990
  417MOL0     H56272   5.017   6.491   3.682  0.8487  1.8721 -0.6351
  417MOL0     H56273   4.719   6.422   3.717  0.1282  2.7432 -4.7545
  417MOL0     H56274   4.831   6.337   3.618 -0.0928  0.2611 -0.5785
  417MOL0     H56275   4.621   7.337   3.099  0.0339 -2.5660 -0.2003
  417MOL0     H56276   4.723   7.569   3.096  0.2079  1.6303  2.7814
  417MOL0     H56277   4.829   7.913   3.295  0.3280 -3.2037  1.0736
  417MOL0     H56278   4.863   8.147   3.386 -2.1166 -2.0844  3.1653
  417MOL0     H56279   4.846   8.896   3.960  1.9506 -2.0555  1.5841
  417MOL0     H56280   4.592   8.836   3.914 -0.7183 -0.6800  1.2676
  417MOL0     H56281   4.258   8.691   3.949  1.8569  0.0550 -2.2350
  417MOL0     H56282   4.053   8.641   3.856  2.3620  0.9670 -0.2669
  417MOL0     H56283   3.875   8.580   3.762  1.6398 -2.0628 -2.0959
  417MOL0     H56284   3.840   8.507   3.923  1.0643  0.4350  0.5770
  417MOL0     H56285   3.696   8.326   3.812 -0.9626 -0.3721 -0.8119
  417MOL0     H56286   3.715   8.399   3.667  0.3316  0.5435  0.1578
  417MOL0     H56287   3.665   8.630   3.816  0.9625 -0.3296  2.3523
  417MOL0     H56288   3.566   8.518   3.909 -1.0290 -2.1835 -1.3554
  417MOL0     H56289   3.524   8.678   3.681 -3.1822  1.0947  0.3679
  417MOL0     H56290   3.522   8.516   3.610 -0.6199  1.8474 -0.9010
  417MOL0     H56291   3.167   8.468   3.814 -0.7578 -0.5179  0.4357
  417MOL0     H56292   4.141   8.228   3.824  0.1070 -1.0625  2.9436
  417MOL0     H56293   4.333   8.162   3.866 -2.6163 -1.4858  1.5783
  417MOL0     H56294   4.478   8.248   3.918 -0.1763 -0.2746  0.8649
  417MOL0     H56295   4.364   8.214   4.045  0.0395  1.3125  0.1204
  418MOL0     O56296   0.357   5.537   8.930  0.4920 -0.3165 -0.0646
  418MOL0     C56297   0.435   5.443   8.929  0.2701 -0.4918  0.3530
  418MOL0     O56298   0.563   5.448   8.905 -0.0817 -0.4259 -0.3627
  418MOL0     C56299   0.653   5.554   8.904  0.2182  0.4212  0.4163
  418MOL0     C56300   0.772   5.534   8.824 -0.8409 -0.3880 -0.5111
  418MOL0     C56301   0.850   5.644   8.797  0.2789 -0.3476  0.1927
  418MOL0     C56302   0.827   5.764   8.862 -0.2624 -0.3497  0.7496
  418MOL0     O56303   0.926   5.856   8.837 -0.1815 -0.1163 -0.4188
  418MOL0     C56304   0.925   5.987   8.905 -0.5202  1.5140  0.1385
  418MOL0     C56305   1.035   6.075   8.864  0.2595  0.0287 -0.6563
  418MOL0     C56306   1.178   6.019   8.894 -0.2757 -0.5025  0.2171
  418MOL0     C56307   1.295   6.091   8.822 -0.8748  0.6610  1.0658
  418MOL0     C56308   1.347   6.216   8.896 -0.4245 -0.3442 -0.0359
  418MOL0     C56309   1.432   6.307   8.807  0.1106 -0.5387  1.1968
  418MOL0     C56310   1.534   6.240   8.722  0.5177 -0.0632  0.1874
  418MOL0     C56311   1.615   6.328   8.623 -0.5395  0.2368  0.6515
  418MOL0     N56312   1.587   6.468   8.646 -0.8773  0.2640  0.0275
  418MOL0     C56313   1.659   6.547   8.740 -0.1117 -0.3288  0.2612
  418MOL0     C56314   1.602   6.662   8.725 -0.0449 -0.4364 -0.4869
  418MOL0     C56315   1.635   6.774   8.810 -0.7970 -0.9583  0.5133
  418MOL0     C56316   1.508   6.837   8.862 -0.5037  1.0105 -0.4334
  418MOL0     C56317   1.529   6.960   8.947  0.2195 -0.3389 -0.1429
  418MOL0     C56318   1.615   6.931   9.077  0.4881  0.3005 -0.0593
  418MOL0     O56319   1.747   6.957   9.036  0.0622  0.7303 -0.6085
  418MOL0     C56320   1.846   6.972   9.133  0.0788 -0.3969  0.4884
  418MOL0     C56321   1.974   6.993   9.087 -1.6396 -0.2933 -0.0980
  418MOL0     C56322   2.087   7.005   9.173 -0.3395 -0.0901  1.0520
  418MOL0     C56323   2.069   6.989   9.317 -0.2087  0.3479  1.0166
  418MOL0     C56324   2.173   6.985   9.416 -0.0302 -1.2149 -0.1237
  418MOL0     O56325   2.284   7.053   9.379  0.0068  0.1083  0.9282
  418MOL0     C56326   2.395   7.061   9.456 -0.3773 -0.7412 -0.1182
  418MOL0     C56327   2.400   7.078   9.595  0.1977  0.4663  0.2548
  418MOL0     C56328   2.519   7.096   9.662  0.0672 -0.3806  0.2200
  418MOL0     C56329   2.643   7.094   9.595  0.2734  0.0305 -0.2725
  418MOL0     O56330   2.759   7.092   9.673  0.0686 -0.3983  0.2452
  418MOL0     C56331   2.888   7.104   9.599  1.0103 -0.3786  0.0062
  418MOL0     C56332   3.011   7.156   9.671 -0.1297 -0.2229 -0.5613
  418MOL0     C56333   3.135   7.150   9.596 -0.0892  0.6701  0.0716
  418MOL0     C56334   3.240   7.244   9.650 -0.1960  0.5647  0.0212
  418MOL0     C56335   3.379   7.213   9.593  0.0881 -0.2359  0.2616
  418MOL0     C56336   3.470   7.327   9.634 -0.5617 -0.2583  0.7950
  418MOL0     C56337   3.608   7.266   9.644 -0.0852 -0.2195 -0.1201
  418MOL0     C56338   3.711   7.358   9.710  0.2856  0.8586  0.3729
  418MOL0    Cl56339   3.730   7.505   9.607 -0.0004 -0.2456  0.1517
  418MOL0     C56340   2.639   7.064   9.460 -0.6026 -0.4818 -0.3899
  418MOL0     C56341   2.513   7.056   9.395 -0.0628 -0.8020  0.9456
  418MOL0     O56342   2.164   6.925   9.521 -0.0523  0.3457  0.4702
  418MOL0     C56343   1.942   6.967   9.358 -0.1330  0.0208 -0.5479
  418MOL0     C56344   1.832   6.944   9.273  0.1359 -0.8938  0.5513
  418MOL0     N56345   1.495   6.659   8.637  0.1558  0.0196  0.2335
  418MOL0     N56346   1.488   6.539   8.586 -0.0927  0.0153 -0.6369
  418MOL0     C56347   0.719   5.785   8.950 -0.5651  0.6685 -0.3446
  418MOL0     C56348   0.629   5.679   8.969  0.3782 -0.9591  0.1817
  418MOL0     C56349   0.377   5.303   8.938 -0.0013 -0.5915 -0.1039
  418MOL0     C56350   0.448   5.192   8.877 -0.0419 -1.0590 -0.6167
  418MOL0     C56351   0.396   5.065   8.883 -0.2978  0.0842  0.0388
  418MOL0     C56352   0.280   5.039   8.934 -0.0972  1.4195 -0.3860
  418MOL0     O56353   0.214   4.917   8.937  0.1702  0.2270 -0.4242
  418MOL0     C56354   0.254   4.820   8.829  0.4745  0.1926  0.8833
  418MOL0     C56355   0.140   4.728   8.801 -1.0442  0.5142 -0.1537
  418MOL0     C56356   0.007   4.806   8.778  0.2491  1.2048 -0.6306
  418MOL0     C56357  -0.004   4.876   8.649 -0.2074 -0.5500  0.1187
  418MOL0     C56358  -0.138   4.936   8.631 -0.0293 -0.4253  0.3291
  418MOL0     C56359  -0.245   4.979   8.613  0.0037  0.5465 -0.0137
  418MOL0     C56360   0.209   5.145   8.991  0.4697 -0.0148 -0.0925
  418MOL0     C56361   0.252   5.280   8.999 -0.6213 -0.3013  0.0511
  418MOL0     C56362   0.176   5.380   9.084  0.9293 -0.1038 -0.4108
  418MOL0     H56363   0.785   5.436   8.779 -0.2623 -0.9620  0.8473
  418MOL0     H56364   0.933   5.636   8.729  0.1716 -1.8310  0.2118
  418MOL0     H56365   0.825   6.021   8.877 -0.7817 -1.1898 -2.8556
  418MOL0     H56366   0.921   5.959   9.011 -2.0024 -2.3197 -0.7743
  418MOL0     H56367   1.013   6.167   8.919  0.1165 -0.8038  0.7145
  418MOL0     H56368   1.043   6.105   8.759 -0.2585 -0.0678 -0.7247
  418MOL0     H56369   1.188   5.917   8.856 -2.2284 -0.5943 -0.1492
  418MOL0     H56370   1.197   6.011   9.001 -0.1056 -3.6998  0.0354
  418MOL0     H56371   1.373   6.017   8.805  0.4060  1.4172  3.2748
  418MOL0     H56372   1.265   6.130   8.724  2.8373 -0.6898 -0.8084
  418MOL0     H56373   1.260   6.275   8.926  0.5322 -0.2051  2.7016
  418MOL0     H56374   1.405   6.191   8.985 -1.3893 -0.5371  0.5517
  418MOL0     H56375   1.351   6.350   8.749 -1.1349  0.8395  3.8126
  418MOL0     H56376   1.479   6.390   8.861  0.2087  0.0726  0.2036
  418MOL0     H56377   1.499   6.152   8.666 -1.5364 -0.3886  1.8686
  418MOL0     H56378   1.601   6.200   8.798  0.0860 -0.6983  0.2420
  418MOL0     H56379   1.720   6.298   8.626 -1.2752 -3.0850 -1.4923
  418MOL0     H56380   1.576   6.310   8.523  0.0945  1.5405  0.1517
  418MOL0     H56381   1.734   6.526   8.815  2.7587  6.4873  0.0519
  418MOL0     H56382   1.697   6.742   8.894  1.3727 -0.2351 -0.7380
  418MOL0     H56383   1.682   6.854   8.753 -0.0470 -1.7606 -0.0229
  418MOL0     H56384   1.450   6.866   8.774  0.3556  0.1306 -1.3073
  418MOL0     H56385   1.465   6.752   8.915  1.3112  0.9377  1.0572
  418MOL0     H56386   1.431   7.000   8.974  1.1153  1.3570  0.7881
  418MOL0     H56387   1.568   7.038   8.880 -1.0579 -0.5669 -1.2025
  418MOL0     H56388   1.601   6.827   9.106 -2.6584  0.5811 -0.1722
  418MOL0     H56389   1.581   6.991   9.162 -0.8704 -1.2395  0.5267
  418MOL0     H56390   1.992   6.997   8.980 -0.8283  0.8189  0.0610
  418MOL0     H56391   2.187   7.016   9.133 -1.2634 -1.9860 -2.0761
  418MOL0     H56392   2.313   7.091   9.658  0.5056 -1.0618  1.0464
  418MOL0     H56393   2.508   7.094   9.770  1.1465 -1.8459  0.3288
  418MOL0     H56394   2.924   7.003   9.577 -0.7580 -1.5369  2.0797
  418MOL0     H56395   2.878   7.156   9.504  3.2864  0.4025  0.1341
  418MOL0     H56396   2.997   7.262   9.694  2.0624  0.2198 -1.0210
  418MOL0     H56397   3.024   7.097   9.763  0.4551  3.1397  1.7117
  418MOL0     H56398   3.173   7.048   9.593 -0.9645  0.2618  1.6979
  418MOL0     H56399   3.111   7.169   9.491 -0.6266 -0.4620 -0.0254
  418MOL0     H56400   3.245   7.235   9.758  0.3809 -0.0426 -0.0487
  418MOL0     H56401   3.209   7.348   9.632 -1.0509 -0.1538 -3.5089
  418MOL0     H56402   3.370   7.207   9.484 -0.7016 -1.1140  0.3555
  418MOL0     H56403   3.411   7.114   9.628  0.9883 -0.5361 -1.3016
  418MOL0     H56404   3.452   7.415   9.573 -0.4287 -0.3302  0.6503
  418MOL0     H56405   3.439   7.354   9.735 -1.7263  0.9429  0.1479
  418MOL0     H56406   3.643   7.264   9.541  0.3558 -1.0471  0.0348
  418MOL0     H56407   3.602   7.170   9.697 -1.2673 -0.2048 -0.1876
  418MOL0     H56408   3.672   7.390   9.807 -0.2385  0.1167  0.4139
  418MOL0     H56409   3.812   7.318   9.722  0.2399  1.1190  1.8027
  418MOL0     H56410   2.732   7.064   9.405 -1.0103  1.5974 -1.1904
  418MOL0     H56411   2.510   7.054   9.287 -0.2652  0.1772  0.9274
  418MOL0     H56412   1.922   6.940   9.462 -0.8717  2.8831  0.1379
  418MOL0     H56413   1.737   6.918   9.319  0.0301 -1.2675  0.1323
  418MOL0     H56414   0.705   5.873   9.012 -0.8149 -0.1783  0.8564
  418MOL0     H56415   0.542   5.707   9.027 -0.6620  0.9550 -2.0969
  418MOL0     H56416   0.545   5.213   8.834  0.3922 -2.8652 -0.5973
  418MOL0     H56417   0.448   4.982   8.838 -3.1984 -2.1493  0.5500
  418MOL0     H56418   0.344   4.762   8.855  0.3002 -0.8629 -0.7551
  418MOL0     H56419   0.285   4.870   8.737  2.8674 -1.0772  0.8959
  418MOL0     H56420   0.135   4.663   8.889  0.9452 -1.9692 -1.7400
  418MOL0     H56421   0.171   4.663   8.719 -0.8637 -1.9973  1.7782
  418MOL0     H56422  -0.006   4.877   8.861 -1.3331  3.7377 -2.8690
  418MOL0     H56423  -0.072   4.730   8.782  0.3549  1.0729 -1.0444
  418MOL0     H56424   0.063   4.962   8.640  1.8326 -2.2256 -2.0104
  418MOL0     H56425   0.031   4.809   8.569  2.6391  0.0087  0.7867
  418MOL0     H56426  -0.335   5.033   8.590  0.9472  2.9233  1.4376
  418MOL0     H56427   0.108   5.126   9.025  0.8074  1.2814  1.7653
  418MOL0     H56428   0.232   5.464   9.126 -3.3451  3.5628 -1.1936
  418MOL0     H56429   0.099   5.432   9.026  1.0197 -0.6600 -1.0309
  418MOL0     H56430   0.119   5.339   9.168  0.5382 -0.0153 -0.6275
  419MOL0     O56431   5.848   4.465   9.997  0.3372  0.1934 -0.7041
  419MOL0     C56432   5.825   4.586   9.992  0.0111  0.3749  0.9542
  419MOL0     O56433   5.918   4.678   9.943  0.0523 -0.2182 -0.7240
  419MOL0     C56434   6.015   4.618   9.866  0.1394 -0.1579 -0.4219
  419MOL0     C56435   5.998   4.536   9.748  0.4960 -0.4726  0.2940
  419MOL0     C56436   6.103   4.473   9.682  0.6850 -0.4829  0.9430
  419MOL0     C56437   6.233   4.490   9.727  0.1068  0.6600 -0.2614
  419MOL0     O56438   6.346   4.436   9.670 -0.2802  0.0764 -0.1299
  419MOL0     C56439   6.357   4.400   9.525  0.1649 -0.6297 -0.3934
  419MOL0     C56440   6.504   4.417   9.479 -0.8456  0.7717  0.9690
  419MOL0     C56441   6.591   4.305   9.526  0.0527  0.0864 -0.0217
  419MOL0     C56442   6.571   4.174   9.445 -0.0481  0.6515  0.1561
  419MOL0     C56443   6.671   4.069   9.496  0.5357  0.1926 -0.1548
  419MOL0     C56444   6.685   3.945   9.401  0.7498 -0.9955 -0.2594
  419MOL0     C56445   6.811   3.861   9.422 -1.0821 -0.8056 -0.0921
  419MOL0     C56446   6.845   3.822   9.568 -0.3957  0.1742 -0.2297
  419MOL0     N56447   6.763   3.705   9.615  0.0548  0.0021  0.8030
  419MOL0     C56448   6.650   3.726   9.697  0.1226  0.0537 -0.1193
  419MOL0     C56449   6.650   3.615   9.776  0.1249  0.2673  0.3469
  419MOL0     C56450   6.555   3.583   9.888  1.1676 -0.2062  0.6772
  419MOL0     C56451   6.412   3.640   9.872 -0.0657  0.2544  0.5404
  419MOL0     C56452   6.330   3.590   9.995  0.9357  0.1416 -0.3197
  419MOL0     C56453   6.197   3.658   9.974  1.3148 -0.4134  0.7607
  419MOL0     O56454   6.119   3.587   9.874 -0.6145  0.1061 -0.8602
  419MOL0     C56455   5.986   3.612   9.877 -0.1643 -0.7767  0.2000
  419MOL0     C56456   5.925   3.603   9.755  0.3573 -0.0625  1.0626
  419MOL0     C56457   5.783   3.626   9.738 -0.7905  0.2854  0.3055
  419MOL0     C56458   5.707   3.651   9.855 -0.5045  0.1293 -0.0909
  419MOL0     C56459   5.555   3.668   9.844  0.3685  0.0052 -1.3711
  419MOL0     O56460   5.490   3.662   9.962 -0.7927 -0.6275 -0.3734
  419MOL0     C56461   5.358   3.670   9.976 -0.4266 -0.5510 -0.9404
  419MOL0     C56462   5.267   3.597   9.908 -0.1466  0.9538  0.3337
  419MOL0     C56463   5.126   3.617   9.930  0.8446  0.5535  0.2988
  419MOL0     C56464   5.075   3.723  10.012 -0.2447 -0.3060 -0.3144
  419MOL0     O56465   4.940   3.743  10.026 -0.4008  0.4993 -0.8919
  419MOL0     C56466   4.838   3.675   9.943 -0.7136  0.0924 -0.4938
  419MOL0     C56467   4.783   3.791   9.847  0.8308  0.1220 -1.1052
  419MOL0     C56468   4.790   3.758   9.700 -0.0869  0.2557  0.0205
  419MOL0     C56469   4.931   3.715   9.649  0.1504 -0.4400  0.7172
  419MOL0     C56470   4.947   3.746   9.493 -0.2074  0.0585 -0.8176
  419MOL0     C56471   4.829   3.689   9.411 -0.1149 -0.3910  0.9958
  419MOL0     C56472   4.845   3.679   9.261  0.4980 -0.1868  0.5032
  419MOL0     C56473   4.736   3.614   9.174 -0.0271  0.0086  0.0862
  419MOL0    Cl56474   4.577   3.684   9.213 -0.0695  0.4475 -0.2193
  419MOL0     C56475   5.173   3.790  10.095  0.0642 -0.4318 -0.0085
  419MOL0     C56476   5.308   3.756  10.078 -0.4144  0.4882  0.4662
  419MOL0     O56477   5.504   3.682   9.730 -0.3050  0.6178  0.2911
  419MOL0     C56478   5.771   3.655   9.979 -0.8986  1.2250 -0.3161
  419MOL0     C56479   5.911   3.631   9.989  0.3159 -0.4313  0.2500
  419MOL0     N56480   6.763   3.537   9.740  0.1778  0.3128 -0.0183
  419MOL0     N56481   6.824   3.588   9.640 -0.2633 -0.6813  0.2891
  419MOL0     C56482   6.247   4.559   9.845  0.4395 -0.4635  0.2086
  419MOL0     C56483   6.147   4.626   9.915 -0.0171  0.4198 -0.9168
  419MOL0     C56484   5.697   4.635  10.049 -0.0854 -0.9562 -0.5458
  419MOL0     C56485   5.664   4.764   9.990  0.2731  0.9454  1.0360
  419MOL0     C56486   5.539   4.816  10.008 -0.7656  0.3331 -0.4048
  419MOL0     C56487   5.452   4.743  10.090  0.4166  0.1972 -0.1513
  419MOL0     O56488   5.320   4.792  10.116 -0.3076  0.3593 -0.6731
  419MOL0     C56489   5.308   4.932  10.117  0.0054 -0.4775  0.0553
  419MOL0     C56490   5.188   4.971  10.214 -0.0360 -0.4742 -0.1374
  419MOL0     C56491   5.060   4.890  10.202 -0.9393 -0.0758 -0.1259
  419MOL0     C56492   4.983   4.947  10.087  0.1381  0.4265 -0.2663
  419MOL0     C56493   4.918   5.078  10.120 -0.4792  0.0301 -0.3949
  419MOL0     C56494   4.845   5.166  10.147 -0.3590 -0.3907  0.4326
  419MOL0     C56495   5.488   4.621  10.158 -0.0578  0.3595  0.5979
  419MOL0     C56496   5.615   4.563  10.139 -0.1404  0.2846 -0.3740
  419MOL0     C56497   5.660   4.442  10.214  0.0391  0.3920 -0.0862
  419MOL0     H56498   5.893   4.532   9.722  0.7531 -1.4933 -0.6682
  419MOL0     H56499   6.077   4.429   9.586  0.4395  0.3005  0.6420
  419MOL0     H56500   6.321   4.297   9.521 -0.9047 -0.4331  2.0110
  419MOL0     H56501   6.304   4.471   9.461  1.8507 -0.4736 -1.6579
  419MOL0     H56502   6.554   4.504   9.522  1.5997  0.1632 -0.5068
  419MOL0     H56503   6.502   4.410   9.370  1.5159 -0.3160  0.9463
  419MOL0     H56504   6.566   4.291   9.632 -1.1500  6.6289  1.0162
  419MOL0     H56505   6.694   4.339   9.531  0.9655 -2.5496  4.3935
  419MOL0     H56506   6.468   4.139   9.449 -0.2073  0.8032 -1.6635
  419MOL0     H56507   6.596   4.201   9.342  0.5388  2.1119  0.6489
  419MOL0     H56508   6.765   4.125   9.505  0.3978  0.3254  0.5490
  419MOL0     H56509   6.638   4.038   9.596  1.0455  3.1651  1.0340
  419MOL0     H56510   6.604   3.877   9.430  0.1849 -0.6194 -0.9135
  419MOL0     H56511   6.666   3.985   9.301 -0.0061 -1.0038 -0.1247
  419MOL0     H56512   6.898   3.918   9.387 -1.7870  0.4584  0.1330
  419MOL0     H56513   6.804   3.778   9.352 -0.0826  0.8646 -2.2967
  419MOL0     H56514   6.946   3.782   9.574 -0.3631  0.4878  2.1251
  419MOL0     H56515   6.845   3.909   9.634  0.8017 -0.2997  0.4221
  419MOL0     H56516   6.577   3.807   9.689  0.4043  0.1613 -2.6881
  419MOL0     H56517   6.557   3.474   9.889  0.0678 -0.2411  1.4224
  419MOL0     H56518   6.595   3.640   9.972 -0.5156  0.1424  1.2846
  419MOL0     H56519   6.409   3.749   9.856 -1.4359  0.2523  0.7342
  419MOL0     H56520   6.376   3.598   9.778  4.6852 -1.2336 -0.8909
  419MOL0     H56521   6.368   3.644  10.082 -1.4323  3.5176 -1.1355
  419MOL0     H56522   6.314   3.482   9.990 -2.0623  0.5097 -0.9360
  419MOL0     H56523   6.199   3.765   9.953  1.3293 -0.3101  1.2819
  419MOL0     H56524   6.159   3.645  10.075  1.2976  3.0802  1.3379
  419MOL0     H56525   5.981   3.573   9.667 -1.5407  1.3409 -0.7018
  419MOL0     H56526   5.731   3.598   9.648 -1.4164  0.9986  0.4464
  419MOL0     H56527   5.301   3.523   9.836  0.3620  0.0763  1.4588
  419MOL0     H56528   5.062   3.549   9.874 -0.7779  1.7449  0.6564
  419MOL0     H56529   4.873   3.593   9.880 -2.2626 -1.7877  0.9617
  419MOL0     H56530   4.761   3.628  10.005  1.5177 -2.8969  0.2091
  419MOL0     H56531   4.679   3.817   9.864  0.9005 -1.4200  2.3861
  419MOL0     H56532   4.854   3.873   9.860  3.2211 -1.3528 -3.6045
  419MOL0     H56533   4.708   3.690   9.674  1.8829 -0.9370 -3.8554
  419MOL0     H56534   4.766   3.852   9.650 -0.0966  0.7032  0.8606
  419MOL0     H56535   4.949   3.607   9.660 -0.5144 -0.7746 -1.0041
  419MOL0     H56536   5.019   3.757   9.696 -1.2853  0.8214  2.3971
  419MOL0     H56537   5.033   3.695   9.450 -2.1521 -3.3021 -1.1084
  419MOL0     H56538   4.957   3.853   9.473  0.0173  1.0480  3.5375
  419MOL0     H56539   4.825   3.583   9.438 -2.4425 -0.7431 -0.4484
  419MOL0     H56540   4.732   3.735   9.436 -0.6988 -0.7365 -0.5248
  419MOL0     H56541   4.937   3.620   9.254  2.5364  2.4057  2.9045
  419MOL0     H56542   4.864   3.779   9.221 -1.9228 -0.4605 -1.5730
  419MOL0     H56543   4.757   3.635   9.069 -2.4723 -0.3023 -0.5345
  419MOL0     H56544   4.724   3.505   9.184  1.7806 -0.4099 -1.6880
  419MOL0     H56545   5.145   3.857  10.176  0.6063  1.5484 -1.4066
  419MOL0     H56546   5.379   3.789  10.153 -0.8701 -0.7613  1.5009
  419MOL0     H56547   5.705   3.670  10.064 -0.3804 -0.1051  0.3435
  419MOL0     H56548   5.958   3.633  10.087  4.1056 -0.6001 -1.3778
  419MOL0     H56549   6.343   4.549   9.896  0.5731 -1.6677 -0.2440
  419MOL0     H56550   6.161   4.677  10.010 -1.8970  0.2288 -0.5070
  419MOL0     H56551   5.724   4.812   9.913 -0.4368 -4.2087 -3.3015
  419MOL0     H56552   5.516   4.914   9.968 -0.7867 -0.1766 -1.6684
  419MOL0     H56553   5.298   4.967  10.014 -1.2387 -0.0087  0.3185
  419MOL0     H56554   5.401   4.981  10.149  0.5021 -0.4346 -1.3788
  419MOL0     H56555   5.177   5.079  10.203  1.8316 -0.3878 -1.8165
  419MOL0     H56556   5.227   4.950  10.314 -1.7907 -2.6619  0.1746
  419MOL0     H56557   5.015   4.902  10.301  1.8933  0.5451  1.1927
  419MOL0     H56558   5.080   4.782  10.197 -1.5801 -0.5102  3.5015
  419MOL0     H56559   5.052   4.947  10.002 -1.2930  1.4859 -1.4776
  419MOL0     H56560   4.902   4.878  10.064  0.3300 -0.4352  1.5046
  419MOL0     H56561   4.791   5.255  10.172  0.3566 -0.1346  1.1360
  419MOL0     H56562   5.410   4.577  10.221 -0.3382  0.2907  0.2065
  419MOL0     H56563   5.596   4.428  10.301 -0.2676 -0.2383 -0.4078
  419MOL0     H56564   5.653   4.347  10.160 -0.9631  1.3873 -1.8200
  419MOL0     H56565   5.766   4.457  10.235  0.7941 -0.8798 -2.5313
  420MOL0     O56566   2.744   6.675   1.834  0.1710 -0.0610  0.5336
  420MOL0     C56567   2.734   6.675   1.958 -0.1964  1.3884  0.2718
  420MOL0     O56568   2.842   6.686   2.042  0.0369 -0.7285  0.0199
  420MOL0     C56569   2.967   6.640   1.998 -1.0429  0.3131 -0.5094
  420MOL0     C56570   3.074   6.725   2.035 -0.6797  0.1684 -0.5277
  420MOL0     C56571   3.207   6.688   1.998  0.2254  0.1336 -0.5227
  420MOL0     C56572   3.231   6.574   1.923 -0.0511  0.3298  0.1035
  420MOL0     O56573   3.365   6.532   1.902 -0.9401  0.6088  0.5272
  420MOL0     C56574   3.474   6.631   1.917 -0.5870  0.2472  0.3272
  420MOL0     C56575   3.614   6.568   1.897  0.0648  0.7571 -0.3375
  420MOL0     C56576   3.617   6.432   1.963 -0.2407 -0.3827 -0.1792
  420MOL0     C56577   3.752   6.358   1.967 -0.1359 -0.1650  0.0219
  420MOL0     C56578   3.763   6.228   2.047  0.1644 -0.8888 -0.5161
  420MOL0     C56579   3.912   6.175   2.052  0.2329 -0.1987  0.2702
  420MOL0     C56580   3.953   6.139   1.912 -0.8895  0.2968 -1.4664
  420MOL0     C56581   4.092   6.084   1.931 -0.5860  0.0546 -0.2180
  420MOL0     N56582   4.134   6.031   1.803  0.7199  0.2612 -0.1648
  420MOL0     C56583   4.105   6.083   1.679  0.4477  0.2284  0.6089
  420MOL0     C56584   4.170   6.005   1.591  0.3476 -0.0868 -0.0809
  420MOL0     C56585   4.177   6.006   1.450 -0.6911 -0.5630  0.4507
  420MOL0     C56586   4.288   6.097   1.392 -0.3555 -0.2051 -0.8713
  420MOL0     C56587   4.306   6.070   1.244  0.0363  0.7830 -0.9774
  420MOL0     C56588   4.360   5.935   1.201  0.4388  1.4125  0.3244
  420MOL0     O56589   4.496   5.943   1.237  0.2232  0.5850  0.2225
  420MOL0     C56590   4.555   5.830   1.293 -0.0079  0.5436  0.5157
  420MOL0     C56591   4.500   5.701   1.278  0.3301  0.5027  1.0545
  420MOL0     C56592   4.566   5.587   1.333 -0.4539  0.2918 -0.4688
  420MOL0     C56593   4.693   5.598   1.395  0.3497 -0.5154  0.4018
  420MOL0     C56594   4.767   5.482   1.451 -0.0620  0.1074  0.1526
  420MOL0     O56595   4.898   5.507   1.478 -0.2620 -0.2233 -0.2201
  420MOL0     C56596   4.977   5.416   1.538 -1.0977  0.2180 -1.1060
  420MOL0     C56597   4.941   5.379   1.668  0.0451  0.5890 -0.1350
  420MOL0     C56598   5.025   5.314   1.750 -0.3087 -0.0536 -0.9049
  420MOL0     C56599   5.141   5.256   1.701 -0.2721 -0.0766  0.0057
  420MOL0     O56600   5.232   5.201   1.792 -0.1296  0.9602 -0.0939
  420MOL0     C56601   5.304   5.088   1.744 -0.2592 -1.1632 -0.3686
  420MOL0     C56602   5.219   4.961   1.738  0.2599 -0.1343 -0.3866
  420MOL0     C56603   5.155   4.934   1.873  0.9178 -0.7809 -0.2008
  420MOL0     C56604   5.109   4.784   1.896  0.2395 -0.0529 -0.0954
  420MOL0     C56605   5.127   4.744   2.038  0.4073 -0.6457 -0.7721
  420MOL0     C56606   5.129   4.597   2.066  0.0293  0.0743 -0.0242
  420MOL0     C56607   5.265   4.537   2.066 -0.9178  0.6472 -0.8836
  420MOL0     C56608   5.239   4.380   2.090 -0.0935  0.6079 -0.7319
  420MOL0    Cl56609   5.391   4.299   2.093  0.3335  0.0448  0.4189
  420MOL0     C56610   5.167   5.276   1.567  0.7126  0.4148  0.1004
  420MOL0     C56611   5.097   5.366   1.486  0.0266  0.0722  0.0434
  420MOL0     O56612   4.713   5.365   1.460 -0.5281  0.4324  0.6836
  420MOL0     C56613   4.748   5.727   1.393 -0.6393  0.1310 -1.1687
  420MOL0     C56614   4.677   5.842   1.352 -0.5138 -0.5401 -0.7304
  420MOL0     N56615   4.231   5.913   1.667 -0.4583  0.2650 -0.5712
  420MOL0     N56616   4.221   5.932   1.790  0.0323  0.1118 -0.7185
  420MOL0     C56617   3.131   6.491   1.898 -0.2564 -0.4358 -0.7070
  420MOL0     C56618   2.995   6.518   1.930 -1.3288 -0.1119  1.0286
  420MOL0     C56619   2.603   6.673   2.027 -0.1258 -0.2892  0.2656
  420MOL0     C56620   2.487   6.687   1.951  1.1093  0.8952  0.7365
  420MOL0     C56621   2.362   6.681   2.008 -0.7812 -0.0969 -0.0759
  420MOL0     C56622   2.347   6.654   2.134  0.0636  0.3235 -1.2566
  420MOL0     O56623   2.215   6.656   2.180 -0.3999  0.0043  1.4350
  420MOL0     C56624   2.179   6.657   2.317  0.5089 -0.8514  0.3584
  420MOL0     C56625   2.043   6.710   2.344  0.6042  0.0783  0.9453
  420MOL0     C56626   1.931   6.640   2.267  0.2800 -0.4570 -0.3932
  420MOL0     C56627   1.801   6.729   2.263 -0.4888  0.1236 -0.0849
  420MOL0     C56628   1.687   6.640   2.227 -0.4173 -0.7008 -0.1124
  420MOL0     C56629   1.604   6.582   2.171  0.5723 -0.1305 -0.4720
  420MOL0     C56630   2.455   6.626   2.216 -0.0876 -0.7333 -0.6923
  420MOL0     C56631   2.587   6.644   2.167  0.3000  0.2047  0.1858
  420MOL0     C56632   2.696   6.620   2.271  0.4870 -0.7139 -0.0272
  420MOL0     H56633   3.059   6.818   2.088  1.8633  0.6764 -0.6088
  420MOL0     H56634   3.279   6.755   2.043  0.0587 -0.8857  1.3249
  420MOL0     H56635   3.473   6.701   1.833  2.0719 -2.3158 -2.1054
  420MOL0     H56636   3.479   6.678   2.015  3.4544  2.2018 -0.5867
  420MOL0     H56637   3.686   6.628   1.954 -0.8965  0.7135  0.9766
  420MOL0     H56638   3.645   6.566   1.792  2.6030  1.0344  0.3300
  420MOL0     H56639   3.549   6.357   1.922 -0.0885 -1.5501  1.6019
  420MOL0     H56640   3.594   6.447   2.069  0.8031  0.5289 -0.0612
  420MOL0     H56641   3.767   6.341   1.859 -2.3005  1.1222 -0.5320
  420MOL0     H56642   3.834   6.424   1.998 -0.6187  1.2136 -1.4529
  420MOL0     H56643   3.720   6.242   2.146  3.0502 -1.7522  0.9756
  420MOL0     H56644   3.709   6.147   1.996  1.4829 -1.7724 -0.5710
  420MOL0     H56645   3.976   6.257   2.085 -1.9284  0.9438  1.8961
  420MOL0     H56646   3.919   6.096   2.128  0.7954 -0.7187 -0.3159
  420MOL0     H56647   3.956   6.225   1.845 -1.1974  1.1201 -0.4553
  420MOL0     H56648   3.877   6.073   1.870 -2.7942  1.8227 -0.5900
  420MOL0     H56649   4.164   6.160   1.961  0.8544 -0.7837 -1.4345
  420MOL0     H56650   4.097   6.007   2.008  0.8707  0.1759 -0.1597
  420MOL0     H56651   4.036   6.161   1.648 -2.6203 -1.7552  1.8571
  420MOL0     H56652   4.191   5.905   1.409  0.1762 -0.4499  0.4473
  420MOL0     H56653   4.079   6.042   1.417 -0.7343 -1.6746 -0.7247
  420MOL0     H56654   4.256   6.201   1.406 -3.2128 -0.8412 -2.0055
  420MOL0     H56655   4.379   6.089   1.452 -1.1398 -1.1039  0.2290
  420MOL0     H56656   4.382   6.143   1.214  3.0328 -1.5798  0.4182
  420MOL0     H56657   4.212   6.077   1.189 -0.4659  0.6159 -0.1535
  420MOL0     H56658   4.358   5.925   1.092 -1.4165  1.4565  0.3306
  420MOL0     H56659   4.302   5.849   1.235 -1.7637  1.5159 -2.8114
  420MOL0     H56660   4.411   5.670   1.226  0.6415 -2.3046  2.0257
  420MOL0     H56661   4.523   5.490   1.310  0.1269 -0.3786  1.1935
  420MOL0     H56662   4.853   5.411   1.722  0.7347  2.7944 -0.2265
  420MOL0     H56663   5.010   5.292   1.855  3.1689  0.0093 -0.2702
  420MOL0     H56664   5.356   5.121   1.654 -1.2869  1.0143 -0.2318
  420MOL0     H56665   5.373   5.071   1.827 -0.7824  1.2314  0.6552
  420MOL0     H56666   5.149   4.977   1.656  0.6231  1.1315 -0.4643
  420MOL0     H56667   5.285   4.876   1.718  0.2254 -0.7393  1.8208
  420MOL0     H56668   5.241   4.949   1.938  0.6422 -0.4790  0.0942
  420MOL0     H56669   5.064   4.991   1.892  0.1547 -1.6261 -1.1388
  420MOL0     H56670   5.163   4.713   1.834 -0.3768  1.2307 -2.2298
  420MOL0     H56671   5.003   4.777   1.869  0.1011  0.5191  0.2618
  420MOL0     H56672   5.049   4.801   2.090  2.2946 -0.4975  2.1550
  420MOL0     H56673   5.219   4.791   2.074  0.6710 -2.3580  0.9829
  420MOL0     H56674   5.088   4.585   2.166 -2.0836 -0.2743 -0.8759
  420MOL0     H56675   5.069   4.545   1.990  0.3052  2.7297 -2.2353
  420MOL0     H56676   5.318   4.569   2.156 -2.5496  0.6047  0.1373
  420MOL0     H56677   5.325   4.566   1.979 -0.8757  1.5276 -0.5679
  420MOL0     H56678   5.198   4.366   2.191 -2.2221 -2.5905 -1.8810
  420MOL0     H56679   5.171   4.334   2.018 -1.4259  1.6509 -0.2113
  420MOL0     H56680   5.258   5.247   1.515  0.4630  0.0716 -0.1396
  420MOL0     H56681   5.134   5.403   1.391  5.0382 -1.4601  1.1309
  420MOL0     H56682   4.849   5.748   1.426 -0.9467  0.4407 -0.3886
  420MOL0     H56683   4.730   5.936   1.365  1.2918 -1.4859 -0.9417
  420MOL0     H56684   3.163   6.402   1.845 -1.4566 -1.3284  0.0142
  420MOL0     H56685   2.928   6.441   1.893 -1.9892  0.7720  0.3381
  420MOL0     H56686   2.499   6.715   1.847  1.7177 -1.2542  0.1953
  420MOL0     H56687   2.278   6.711   1.945 -0.0747 -0.9774 -1.5036
  420MOL0     H56688   2.240   6.719   2.383 -0.2472 -1.3973  1.5870
  420MOL0     H56689   2.182   6.558   2.362  1.5278 -0.4593  1.1997
  420MOL0     H56690   2.043   6.818   2.327  2.1859  0.0192  0.4388
  420MOL0     H56691   2.013   6.700   2.448 -3.2644  1.0130  0.0757
  420MOL0     H56692   1.919   6.540   2.309  2.3316 -0.4687  0.2698
  420MOL0     H56693   1.961   6.642   2.161  3.0319  1.7620  0.2865
  420MOL0     H56694   1.787   6.767   2.365 -0.9001  0.2116 -0.1718
  420MOL0     H56695   1.817   6.812   2.194  1.5844  1.2165  1.5924
  420MOL0     H56696   1.522   6.515   2.155  0.2118 -0.2488  1.5670
  420MOL0     H56697   2.436   6.598   2.319  2.5935  2.5331  0.8703
  420MOL0     H56698   2.641   6.614   2.366  0.2143  1.5001  0.0168
  420MOL0     H56699   2.748   6.526   2.252 -0.7293 -1.7195  1.4066
  420MOL0     H56700   2.765   6.704   2.282 -1.0315  0.6043 -0.1744
  421MOL0     O56701   3.126   8.900   3.058  0.8304 -0.2079  0.6703
  421MOL0     C56702   3.067   8.812   3.107  0.3493 -0.0128 -0.5507
  421MOL0     O56703   3.121   8.717   3.182 -0.6969  0.8975  0.3586
  421MOL0     C56704   3.251   8.717   3.232  0.1386 -0.3782 -0.9049
  421MOL0     C56705   3.298   8.594   3.276 -0.2729 -0.5441  0.9768
  421MOL0     C56706   3.421   8.578   3.335  0.7632  0.2302  0.0048
  421MOL0     C56707   3.501   8.696   3.354 -0.6494 -0.2984 -0.1712
  421MOL0     O56708   3.617   8.687   3.428  0.3208 -0.6846  0.1758
  421MOL0     C56709   3.737   8.754   3.377  0.2604  0.8590  0.4144
  421MOL0     C56710   3.840   8.671   3.452 -0.2807  0.0469  0.7625
  421MOL0     C56711   3.981   8.739   3.449  0.1436 -0.2872  0.4901
  421MOL0     C56712   4.101   8.660   3.493 -0.0103 -0.0940 -0.6268
  421MOL0     C56713   4.235   8.742   3.509  0.1966 -0.3602  0.0891
  421MOL0     C56714   4.352   8.658   3.569  1.1824  0.2252  0.8173
  421MOL0     C56715   4.457   8.744   3.635  0.6491 -0.2313 -0.3541
  421MOL0     C56716   4.541   8.813   3.522 -0.5820 -0.4383 -0.5476
  421MOL0     N56717   4.656   8.883   3.576 -0.5920  0.0890 -0.0504
  421MOL0     C56718   4.770   8.904   3.504  0.5554 -0.5230 -0.8304
  421MOL0     C56719   4.846   8.980   3.589  1.0253  0.5217  0.9693
  421MOL0     C56720   4.980   9.046   3.554 -0.7164 -0.0283 -0.4342
  421MOL0     C56721   5.106   8.984   3.615 -0.6249  0.9246 -0.2794
  421MOL0     C56722   5.243   9.037   3.566 -0.4183 -1.0494  0.7557
  421MOL0     C56723   5.280   9.165   3.647  0.3965  0.7415 -0.1880
  421MOL0     O56724   5.180   9.271   3.623 -0.0282 -0.0933 -0.9554
  421MOL0     C56725   5.218   9.400   3.631  0.3496  0.0545 -0.7856
  421MOL0     C56726   5.348   9.449   3.644  0.0478 -0.2434  0.0829
  421MOL0     C56727   5.370   9.586   3.650 -0.2805  0.1906 -0.4836
  421MOL0     C56728   5.268   9.678   3.635  0.3098 -0.9250  0.0344
  421MOL0     C56729   5.299   9.819   3.649 -0.7564 -0.7504  0.3782
  421MOL0     O56730   5.408   9.868   3.717  0.6298  0.2609  0.2847
  421MOL0     C56731   5.441   9.998   3.738  0.1516 -0.0091  0.3786
  421MOL0     C56732   5.572  10.020   3.773  0.0267 -0.2181 -0.5974
  421MOL0     C56733   5.619  10.147   3.799 -1.0167  0.2677  0.0749
  421MOL0     C56734   5.538  10.264   3.771 -0.1280 -0.6066  0.0253
  421MOL0     O56735   5.580  10.397   3.784 -0.1395  0.6850 -0.6772
  421MOL0     C56736   5.725  10.422   3.831  0.7333  0.6086 -0.1251
  421MOL0     C56737   5.753  10.574   3.826  0.0412  0.4002  0.2316
  421MOL0     C56738   5.908  10.610   3.833 -0.4347  0.1780  0.2617
  421MOL0     C56739   5.936  10.733   3.755 -0.2125  0.0277 -0.2377
  421MOL0     C56740   6.067  10.805   3.786 -0.7411  0.0701 -0.0304
  421MOL0     C56741   6.184  10.710   3.745 -0.1477 -0.6490 -0.3573
  421MOL0     C56742   6.328  10.777   3.731  0.4300 -0.7237  0.9438
  421MOL0     C56743   6.367  10.850   3.862 -0.0056  0.1486 -0.0443
  421MOL0    Cl56744   6.509  10.951   3.825  0.3944 -0.0980  0.2939
  421MOL0     C56745   5.402  10.244   3.737  0.9353 -0.5585  0.0612
  421MOL0     C56746   5.354  10.111   3.725  0.8272 -0.3378 -0.0260
  421MOL0     O56747   5.236   9.885   3.574  0.6416  0.2683  1.2631
  421MOL0     C56748   5.142   9.626   3.616  0.3714  0.4540  0.5843
  421MOL0     C56749   5.114   9.494   3.625  0.4852  0.2729 -0.1875
  421MOL0     N56750   4.780   8.988   3.713  0.3060 -0.1242 -0.3683
  421MOL0     N56751   4.658   8.947   3.694 -0.3766 -0.4073  0.2816
  421MOL0     C56752   3.456   8.822   3.297 -0.3792  0.0363 -0.5784
  421MOL0     C56753   3.332   8.833   3.240  0.1743 -0.4189  0.2102
  421MOL0     C56754   2.921   8.790   3.090  0.2335  0.5756  0.9658
  421MOL0     C56755   2.869   8.666   3.139  1.0755 -0.4929  0.0008
  421MOL0     C56756   2.735   8.641   3.127  0.5188  0.0675  0.2476
  421MOL0     C56757   2.649   8.730   3.080  0.7536 -1.2623 -0.3527
  421MOL0     O56758   2.522   8.687   3.076 -0.4417  0.6244  0.0641
  421MOL0     C56759   2.427   8.784   3.025  0.2699 -0.5879 -0.1342
  421MOL0     C56760   2.291   8.717   3.022  0.0754  0.6760 -0.1013
  421MOL0     C56761   2.287   8.610   2.926 -0.8451 -0.7792  0.3298
  421MOL0     C56762   2.155   8.572   2.873 -0.1235 -0.2791  0.6448
  421MOL0     C56763   2.160   8.463   2.779  0.4546 -0.6765  0.2104
  421MOL0     C56764   2.170   8.373   2.696 -0.8583  0.6634 -0.1213
  421MOL0     C56765   2.693   8.860   3.064  0.4557  0.3420  0.1187
  421MOL0     C56766   2.825   8.889   3.059 -0.0254 -0.1120  0.2192
  421MOL0     C56767   2.858   9.024   3.016  0.1457 -0.3164 -0.9433
  421MOL0     H56768   3.226   8.513   3.271 -0.0720 -0.7367  1.2065
  421MOL0     H56769   3.441   8.482   3.382 -0.7028 -1.4747 -2.6318
  421MOL0     H56770   3.746   8.745   3.268 -0.9408 -0.5775  0.3984
  421MOL0     H56771   3.736   8.854   3.421 -1.3168  0.7246  0.7206
  421MOL0     H56772   3.838   8.576   3.399  3.7870  0.8778 -1.2055
  421MOL0     H56773   3.808   8.647   3.554 -1.4710 -1.4587  0.0771
  421MOL0     H56774   3.974   8.836   3.499  0.0005  0.5200 -1.0254
  421MOL0     H56775   4.000   8.763   3.344  0.3720  2.3171  1.0615
  421MOL0     H56776   4.074   8.614   3.589 -2.3503 -3.4988 -2.7005
  421MOL0     H56777   4.119   8.574   3.428  0.6600 -1.7034  1.5414
  421MOL0     H56778   4.265   8.785   3.413  3.3514  0.1379  1.1760
  421MOL0     H56779   4.215   8.828   3.573  1.9745 -2.2575  3.4436
  421MOL0     H56780   4.316   8.584   3.641  0.8283  2.1889  2.7924
  421MOL0     H56781   4.397   8.606   3.484 -1.8095  0.2858 -0.9521
  421MOL0     H56782   4.542   8.698   3.686  1.9618  0.2919 -1.9758
  421MOL0     H56783   4.406   8.808   3.708 -1.4417  1.0925 -2.8157
  421MOL0     H56784   4.575   8.740   3.448 -0.7408 -1.0976  0.0194
  421MOL0     H56785   4.476   8.886   3.473  0.3230  1.2411  0.6608
  421MOL0     H56786   4.802   8.881   3.402 -0.7301  0.0777 -1.3944
  421MOL0     H56787   4.987   9.039   3.445  1.0903 -0.0059 -0.3461
  421MOL0     H56788   4.972   9.152   3.581  0.8402 -0.7539  3.6387
  421MOL0     H56789   5.098   8.995   3.723  1.8315  0.4225  0.0309
  421MOL0     H56790   5.103   8.878   3.588 -1.1918  0.5715  1.1280
  421MOL0     H56791   5.236   9.046   3.458 -0.4715  2.8930  0.9709
  421MOL0     H56792   5.319   8.960   3.584  1.7140  0.6302 -0.6020
  421MOL0     H56793   5.376   9.198   3.605 -0.5998  0.7686 -2.6072
  421MOL0     H56794   5.284   9.127   3.749  4.0951 -0.3096 -0.5632
  421MOL0     H56795   5.434   9.383   3.651 -0.3117 -0.7963 -0.5591
  421MOL0     H56796   5.471   9.623   3.664  0.0161 -1.0872  1.0982
  421MOL0     H56797   5.641   9.943   3.804  2.1178  1.9877  0.5594
  421MOL0     H56798   5.718  10.148   3.843 -0.5339  0.4451 -0.9659
  421MOL0     H56799   5.738  10.394   3.936 -1.2494 -0.8188 -0.2223
  421MOL0     H56800   5.791  10.359   3.769 -1.6044 -2.5307  0.3448
  421MOL0     H56801   5.718  10.591   3.723  0.6294 -0.3333 -0.0963
  421MOL0     H56802   5.698  10.618   3.910  2.5082 -0.5924  2.4993
  421MOL0     H56803   5.941  10.626   3.936 -0.0021 -1.9500  0.5073
  421MOL0     H56804   5.964  10.525   3.793  1.5197  0.7413  1.6337
  421MOL0     H56805   5.859  10.801   3.790  0.6930  1.2990 -0.6407
  421MOL0     H56806   5.938  10.711   3.648 -0.7458 -0.3530 -0.1701
  421MOL0     H56807   6.064  10.825   3.893 -3.6554 -0.5254  0.0857
  421MOL0     H56808   6.078  10.900   3.733 -4.1588  0.8213  0.3559
  421MOL0     H56809   6.200  10.627   3.814 -0.1027 -2.3014 -2.2750
  421MOL0     H56810   6.148  10.665   3.652 -3.2738 -1.0054  0.8898
  421MOL0     H56811   6.331  10.844   3.645  0.4622 -4.3181 -2.1592
  421MOL0     H56812   6.403  10.699   3.710  0.3333 -0.2806 -1.3763
  421MOL0     H56813   6.278  10.902   3.898 -0.4116  0.6724 -1.7141
  421MOL0     H56814   6.386  10.775   3.939 -4.1766 -0.7658  0.3286
  421MOL0     H56815   5.338  10.330   3.724 -2.1166 -2.9719 -2.7080
  421MOL0     H56816   5.248  10.107   3.705  0.2778  4.3717  0.7121
  421MOL0     H56817   5.055   9.690   3.602 -0.1160 -0.6269 -1.9618
  421MOL0     H56818   5.010   9.463   3.615 -0.2586  2.5010 -0.0310
  421MOL0     H56819   3.514   8.911   3.322 -0.1901 -0.4044  0.5912
  421MOL0     H56820   3.306   8.933   3.207  0.4504 -0.1173  0.8863
  421MOL0     H56821   2.938   8.595   3.185  0.5236 -0.2024  1.3196
  421MOL0     H56822   2.694   8.549   3.168 -1.2916  0.8441  0.2926
  421MOL0     H56823   2.450   8.825   2.926 -0.6633  1.1369  0.3274
  421MOL0     H56824   2.417   8.865   3.098 -0.0578  0.1244 -0.9481
  421MOL0     H56825   2.217   8.791   2.989 -2.3863 -2.0909 -1.2670
  421MOL0     H56826   2.252   8.674   3.114 -1.9064 -0.1506 -1.2541
  421MOL0     H56827   2.327   8.518   2.969  3.7256 -0.8108 -3.1888
  421MOL0     H56828   2.341   8.634   2.834 -2.6167 -1.1990 -0.8644
  421MOL0     H56829   2.096   8.539   2.959 -0.2876  0.5830  0.8740
  421MOL0     H56830   2.104   8.657   2.826 -0.4440 -0.9195 -0.1924
  421MOL0     H56831   2.197   8.280   2.651  0.8967 -0.2802  2.5881
  421MOL0     H56832   2.623   8.933   3.025  0.6998  0.9595  0.8170
  421MOL0     H56833   2.953   9.016   2.964  0.9466  0.1097  0.3931
  421MOL0     H56834   2.782   9.071   2.953 -2.6723 -1.8460  1.0881
  421MOL0     H56835   2.873   9.081   3.109 -0.9053 -1.1457 -0.2411
  422MOL0     O56836   9.023  10.943   9.365  0.4475  0.5282  0.2529
  422MOL0     C56837   8.957  10.965   9.464 -0.0898 -0.4243  0.3737
  422MOL0     O56838   8.997  10.978   9.594 -0.4414  0.6331  0.5246
  422MOL0     C56839   9.131  10.979   9.630 -0.5678  0.8417 -0.4003
  422MOL0     C56840   9.151  10.967   9.765 -0.1007 -0.0713  0.5581
  422MOL0     C56841   9.275  10.996   9.816  0.2200 -0.3373  0.2507
  422MOL0     C56842   9.386  11.022   9.732  1.2072 -0.5732  0.1844
  422MOL0     O56843   9.511  11.056   9.779  0.5574 -0.0150 -0.1708
  422MOL0     C56844   9.541  11.038   9.917 -0.7724 -0.6021  0.5416
  422MOL0     C56845   9.696  11.053   9.934  0.9257  0.8423  0.5376
  422MOL0     C56846   9.740  11.190   9.921  0.3906 -0.6154  0.4869
  422MOL0     C56847   9.874  11.199   9.995 -0.1089 -0.5331 -0.5633
  422MOL0     C56848   9.959  11.313   9.943  0.1408 -0.2792  0.7525
  422MOL0     C56849  10.099  11.305   9.994  0.7958  0.5641 -0.6970
  422MOL0     C56850  10.174  11.435   9.963  0.3155 -0.8254  0.0662
  422MOL0     C56851  10.312  11.431  10.022 -0.2284 -0.0777  0.4783
  422MOL0     N56852  10.322  11.470  10.163 -0.4463  0.0195  0.1336
  422MOL0     C56853  10.385  11.581  10.217 -0.0126  0.0255 -1.3058
  422MOL0     C56854  10.398  11.561  10.344 -0.3293 -0.5096 -0.4608
  422MOL0     C56855  10.438  11.665  10.442 -0.9183 -0.3263  0.4317
  422MOL0     C56856  10.584  11.651  10.492  0.4441 -0.0090  0.3427
  422MOL0     C56857  10.601  11.530  10.588  0.5597  0.3208 -0.3608
  422MOL0     C56858  10.734  11.524  10.665  0.5992  0.3848 -0.5891
  422MOL0     O56859  10.774  11.387  10.704 -0.5242 -0.3335  1.1190
  422MOL0     C56860  10.905  11.371  10.755  0.0656 -0.8334 -0.0058
  422MOL0     C56861  10.996  11.312  10.666  0.1840 -0.7724  0.3004
  422MOL0     C56862  11.135  11.297  10.714  0.0356  0.6256  0.1190
  422MOL0     C56863  11.168  11.334  10.844 -0.3490  0.7822  0.5301
  422MOL0     C56864  11.320  11.334  10.881  0.6530 -0.2871  0.6466
  422MOL0     O56865  11.408  11.277  10.805 -0.8670  0.3794 -0.2112
  422MOL0     C56866  11.542  11.255  10.835 -0.6051 -0.1644  0.1530
  422MOL0     C56867  11.623  11.233  10.723  0.5944 -0.3645 -0.7609
  422MOL0     C56868  11.760  11.216  10.732  0.2202  0.0652 -0.8034
  422MOL0     C56869  11.825  11.221  10.859  0.1307  0.2749  0.0958
  422MOL0     O56870  11.962  11.198  10.865  0.1646  0.2226  0.4970
  422MOL0     C56871  12.031  11.143  10.983  0.5675 -0.1737 -0.7383
  422MOL0     C56872  11.965  11.016  11.034  0.0908  0.2131 -0.0555
  422MOL0     C56873  12.065  10.924  11.108 -0.1555  0.2606  0.2696
  422MOL0     C56874  12.077  10.962  11.248 -0.0130 -0.5327 -1.1116
  422MOL0     C56875  12.160  10.878  11.338  0.2067  0.6362 -0.1683
  422MOL0     C56876  12.141  10.910  11.485 -0.6335  0.4986  0.0416
  422MOL0     C56877  12.239  10.824  11.573  0.1022  0.4646 -0.0497
  422MOL0     C56878  12.168  10.696  11.623  0.9823 -0.1142 -0.1768
  422MOL0    Cl56879  12.301  10.612  11.701  0.6081 -0.6315 -0.5383
  422MOL0     C56880  11.741  11.225  10.975  0.5926  0.0746 -0.5253
  422MOL0     C56881  11.603  11.246  10.964  0.1586 -0.5059 -0.1496
  422MOL0     O56882  11.341  11.399  10.990  0.4968  0.5596  0.6647
  422MOL0     C56883  11.065  11.380  10.933 -0.7770  0.7115 -0.0811
  422MOL0     C56884  10.938  11.402  10.885  0.4673 -0.3498 -0.2103
  422MOL0     N56885  10.348  11.433  10.371 -0.4939  0.2816 -0.5203
  422MOL0     N56886  10.302  11.383  10.265  1.0666 -0.3011  0.3110
  422MOL0     C56887   9.360  11.040   9.598 -0.4581  0.1520 -0.5356
  422MOL0     C56888   9.238  11.012   9.544 -0.5591  0.4977  0.0740
  422MOL0     C56889   8.814  10.988   9.431 -0.1885 -0.4777  0.2700
  422MOL0     C56890   8.792  11.023   9.297 -0.1718 -0.4956 -0.3699
  422MOL0     C56891   8.666  11.053   9.254 -0.4677  0.7425 -0.0087
  422MOL0     C56892   8.552  11.025   9.331 -0.1625  0.4758  0.9384
  422MOL0     O56893   8.424  11.040   9.292 -0.4557 -0.2214  0.1744
  422MOL0     C56894   8.397  11.042   9.149  0.1578 -0.3829  0.0464
  422MOL0     C56895   8.253  11.077   9.123  1.0404 -0.0083 -0.3440
  422MOL0     C56896   8.158  10.968   9.192  0.6960 -0.7961 -0.4091
  422MOL0     C56897   8.009  11.002   9.189 -0.2696 -1.0169 -0.3424
  422MOL0     C56898   7.939  10.887   9.224  0.4755 -0.3476  0.3089
  422MOL0     C56899   7.873  10.786   9.240  0.0540 -0.2787  0.2123
  422MOL0     C56900   8.577  10.988   9.469 -0.3511 -0.7894  0.5173
  422MOL0     C56901   8.707  10.992   9.523  0.2169  0.2534  0.1587
  422MOL0     C56902   8.721  10.974   9.673 -0.5731  0.0056 -0.6273
  422MOL0     H56903   9.064  10.955   9.828  0.5883  1.1773  1.8207
  422MOL0     H56904   9.285  10.997   9.925 -3.7728  0.3861  0.7436
  422MOL0     H56905   9.494  11.117   9.977  1.1941 -0.9354  2.7207
  422MOL0     H56906   9.508  10.941   9.955  2.5385 -1.5336  1.3909
  422MOL0     H56907   9.741  10.994   9.854 -0.0641  0.5638  0.1717
  422MOL0     H56908   9.719  11.009  10.031 -1.4843  0.5010  1.0129
  422MOL0     H56909   9.671  11.273   9.937  1.4956  0.2973  0.6992
  422MOL0     H56910   9.752  11.203   9.813 -0.8086 -0.8674  0.3216
  422MOL0     H56911   9.869  11.222  10.102  0.5292 -1.8046 -0.2426
  422MOL0     H56912   9.935  11.108   9.989  0.1392 -0.5976  1.8710
  422MOL0     H56913   9.975  11.286   9.838  0.9336  0.3517  0.7038
  422MOL0     H56914   9.910  11.410   9.945 -4.3307 -2.2828  1.4314
  422MOL0     H56915  10.089  11.308  10.102  0.5716  0.8687 -0.7217
  422MOL0     H56916  10.158  11.220   9.961  1.7714  0.0314  2.1784
  422MOL0     H56917  10.114  11.513  10.011 -2.3158 -2.1396 -0.8685
  422MOL0     H56918  10.167  11.450   9.855 -2.0548 -1.3486  0.1045
  422MOL0     H56919  10.344  11.328  10.004  0.2354  0.2833 -0.8036
  422MOL0     H56920  10.388  11.493   9.974  0.2092 -1.5888 -0.8673
  422MOL0     H56921  10.415  11.673  10.167  0.6350  0.1744 -0.6524
  422MOL0     H56922  10.432  11.763  10.394  0.7497 -0.3684  0.0993
  422MOL0     H56923  10.377  11.664  10.533  2.2818 -1.4544  2.7400
  422MOL0     H56924  10.642  11.635  10.400  0.6273  2.0792  0.0380
  422MOL0     H56925  10.621  11.744  10.537 -0.0949 -0.2462  1.3061
  422MOL0     H56926  10.574  11.454  10.514 -3.4953  1.5704 -0.4354
  422MOL0     H56927  10.520  11.520  10.661  2.8200  1.0478  2.4158
  422MOL0     H56928  10.734  11.594  10.749  1.7125 -0.7269  0.3843
  422MOL0     H56929  10.814  11.554  10.597  1.8523 -1.9542 -0.2839
  422MOL0     H56930  10.959  11.282  10.568 -1.6644 -0.2301  0.7884
  422MOL0     H56931  11.218  11.270  10.650  1.0091 -0.9739  1.9295
  422MOL0     H56932  11.569  11.223  10.629 -1.9449  1.8051  0.3100
  422MOL0     H56933  11.818  11.191  10.644 -1.1559 -0.5267 -1.5716
  422MOL0     H56934  12.133  11.116  10.954  0.7118 -1.1618  0.6155
  422MOL0     H56935  12.034  11.205  11.073  0.1859 -3.2061  1.5034
  422MOL0     H56936  11.877  11.037  11.095  0.5713 -0.4562  0.9018
  422MOL0     H56937  11.919  10.962  10.951 -0.7088 -0.2542  0.6699
  422MOL0     H56938  12.032  10.820  11.106  0.5742  0.0262 -1.4200
  422MOL0     H56939  12.164  10.931  11.062 -0.0460 -0.8416  0.3136
  422MOL0     H56940  11.978  10.978  11.290 -0.6914 -2.6529 -1.7477
  422MOL0     H56941  12.124  11.060  11.239 -0.0240 -0.4053  0.1443
  422MOL0     H56942  12.264  10.900  11.311  0.6754 -0.6334  0.5728
  422MOL0     H56943  12.140  10.771  11.328  0.5694  0.5632 -0.1076
  422MOL0     H56944  12.161  11.015  11.506 -0.2959  0.9350 -2.2699
  422MOL0     H56945  12.042  10.886  11.525  0.9656 -3.0208  2.5172
  422MOL0     H56946  12.275  10.873  11.664  1.4985 -3.2222  1.6002
  422MOL0     H56947  12.325  10.794  11.511  0.8161  0.7642  0.7782
  422MOL0     H56948  12.093  10.713  11.700  2.2050  0.8922  0.8464
  422MOL0     H56949  12.121  10.643  11.540 -2.3455  0.4023  1.2250
  422MOL0     H56950  11.780  11.241  11.075  1.1937  1.8116 -1.0075
  422MOL0     H56951  11.552  11.263  11.058 -0.5558 -0.1517 -0.5887
  422MOL0     H56952  11.090  11.404  11.036 -0.5491  0.8039 -0.1568
  422MOL0     H56953  10.857  11.420  10.954  2.0220 -0.3625  1.7066
  422MOL0     H56954   9.439  11.077   9.534  2.3365 -1.7341  1.5697
  422MOL0     H56955   9.222  11.038   9.440  2.7299 -1.1572 -0.9877
  422MOL0     H56956   8.867  11.018   9.218  1.2975 -3.1404  1.0663
  422MOL0     H56957   8.655  11.065   9.147 -2.9749 -0.6668  0.0081
  422MOL0     H56958   8.414  10.941   9.111 -2.2325 -1.0051  0.4910
  422MOL0     H56959   8.451  11.121   9.095  0.5066  0.8381  2.0739
  422MOL0     H56960   8.231  11.084   9.016 -2.6321 -1.7058  0.1262
  422MOL0     H56961   8.236  11.174   9.170  0.2335 -0.4872  0.4092
  422MOL0     H56962   8.181  10.961   9.298 -3.2954 -1.7926  0.5537
  422MOL0     H56963   8.181  10.875   9.140  1.6410 -0.0822 -1.3168
  422MOL0     H56964   7.976  11.079   9.260 -1.5427 -2.6839  0.9450
  422MOL0     H56965   7.980  11.030   9.087  0.4830  1.9545  0.1579
  422MOL0     H56966   7.799  10.709   9.240 -4.2620  3.4112 -2.1399
  422MOL0     H56967   8.489  10.988   9.533 -0.9040  1.7339 -0.1081
  422MOL0     H56968   8.624  10.976   9.723 -0.6281  0.9789 -0.7428
  422MOL0     H56969   8.777  10.886   9.707 -0.5092  0.1080 -0.4639
  422MOL0     H56970   8.782  11.053   9.719  0.3734 -1.5055  0.8075
  423MOL0     O56971   8.466   3.264   1.545 -0.0649 -0.0474  0.8620
  423MOL0     C56972   8.544   3.208   1.626 -0.0782  0.0141  0.0722
  423MOL0     O56973   8.511   3.176   1.755 -0.2844 -0.1535 -0.0680
  423MOL0     C56974   8.390   3.203   1.819  0.5174 -0.4987 -0.5466
  423MOL0     C56975   8.401   3.198   1.957 -0.4674  0.5193  0.3868
  423MOL0     C56976   8.294   3.213   2.043  0.7373 -0.2331  1.2000
  423MOL0     C56977   8.153   3.212   1.996  0.1810  0.4076 -0.2301
  423MOL0     O56978   8.052   3.228   2.089  0.6271 -1.1215 -1.2845
  423MOL0     C56979   7.921   3.204   2.044 -0.2796  0.2375 -0.3049
  423MOL0     C56980   7.847   3.227   2.183 -0.2265  0.3840 -0.6506
  423MOL0     C56981   7.696   3.194   2.188  0.0805 -0.7232  0.0218
  423MOL0     C56982   7.658   3.150   2.331 -0.7165 -0.7050  1.4554
  423MOL0     C56983   7.511   3.163   2.361 -0.6470  0.3341 -0.5557
  423MOL0     C56984   7.490   3.118   2.515  0.4111 -0.4257 -0.1388
  423MOL0     C56985   7.339   3.106   2.546  0.5304  0.4291  0.0598
  423MOL0     C56986   7.258   3.228   2.484 -1.2187  0.7496 -0.1024
  423MOL0     N56987   7.312   3.357   2.509  0.4064 -0.6966  0.8516
  423MOL0     C56988   7.377   3.403   2.620  0.1007 -0.0601 -0.5147
  423MOL0     C56989   7.434   3.522   2.584  0.3884 -0.1758 -0.4529
  423MOL0     C56990   7.504   3.612   2.689  0.4268  0.2676  1.1274
  423MOL0     C56991   7.649   3.570   2.692 -0.8921  0.4472 -0.1611
  423MOL0     C56992   7.678   3.435   2.760 -0.1333 -0.4742 -0.0755
  423MOL0     C56993   7.832   3.420   2.779  0.2212 -0.2809 -0.2140
  423MOL0     O56994   7.873   3.378   2.650  0.0228 -0.2802 -0.1521
  423MOL0     C56995   8.001   3.341   2.616  0.6196  1.2115 -1.0538
  423MOL0     C56996   8.101   3.333   2.720 -0.1050  0.2380  0.1191
  423MOL0     C56997   8.231   3.295   2.685 -1.0223  0.0678 -0.2098
  423MOL0     C56998   8.270   3.282   2.555 -0.0637  0.5654  0.3086
  423MOL0     C56999   8.411   3.257   2.519 -0.1511 -1.0867  0.2543
  423MOL0     O57000   8.423   3.256   2.381 -0.6642 -0.5356  0.0762
  423MOL0     C57001   8.536   3.217   2.331  0.3233 -0.0934 -0.2553
  423MOL0     C57002   8.596   3.093   2.364  0.4502  0.4382  0.0754
  423MOL0     C57003   8.713   3.057   2.292 -0.1826  0.0759  0.4339
  423MOL0     C57004   8.771   3.133   2.188  0.1017 -0.3019 -0.3401
  423MOL0     O57005   8.880   3.107   2.114  0.5721 -0.1170  0.0289
  423MOL0     C57006   8.979   3.026   2.167  0.5045 -0.2762 -0.8785
  423MOL0     C57007   9.107   3.032   2.086  0.5964  0.0755  1.4027
  423MOL0     C57008   9.086   2.969   1.940 -0.1527  0.3332  0.1931
  423MOL0     C57009   9.195   3.029   1.851 -0.3410  0.7470 -0.4585
  423MOL0     C57010   9.327   2.990   1.925  0.1503 -0.4547  0.6363
  423MOL0     C57011   9.446   2.969   1.836 -0.2040 -0.5290  0.8740
  423MOL0     C57012   9.495   3.101   1.776  0.1856  0.4214 -0.3793
  423MOL0     C57013   9.624   3.083   1.705  0.6244  0.5400 -0.7423
  423MOL0    Cl57014   9.614   2.945   1.594 -0.0753 -0.1861 -0.2507
  423MOL0     C57015   8.714   3.257   2.162 -0.0702  0.1357  0.3327
  423MOL0     C57016   8.602   3.300   2.230  0.4160  0.3425 -0.7628
  423MOL0     O57017   8.497   3.241   2.602 -0.2084  0.7427 -0.3585
  423MOL0     C57018   8.173   3.301   2.454  1.0288 -0.4685  1.3230
  423MOL0     C57019   8.042   3.339   2.482 -0.2498  0.5472  0.2677
  423MOL0     N57020   7.379   3.560   2.461 -1.1466  0.1193  0.0945
  423MOL0     N57021   7.303   3.464   2.427  0.3008 -1.1500 -0.6041
  423MOL0     C57022   8.144   3.214   1.855 -1.0113  0.3190 -0.7602
  423MOL0     C57023   8.262   3.233   1.766  0.2709 -0.2569  0.5596
  423MOL0     C57024   8.685   3.183   1.570  1.1701 -0.0606  0.0587
  423MOL0     C57025   8.718   3.166   1.428 -0.1293  0.5646 -0.6279
  423MOL0     C57026   8.845   3.132   1.390  0.6081 -0.2588 -0.0186
  423MOL0     C57027   8.955   3.151   1.480  0.2188  0.0704 -1.4964
  423MOL0     O57028   9.086   3.135   1.443  0.7777  0.8022 -0.3118
  423MOL0     C57029   9.133   3.234   1.352  0.1667  0.0507 -1.0347
  423MOL0     C57030   9.277   3.199   1.309 -0.0470 -0.0516  0.0974
  423MOL0     C57031   9.331   3.313   1.224  0.3495 -0.6911 -0.4541
  423MOL0     C57032   9.483   3.306   1.210  1.4693  0.0036 -0.5493
  423MOL0     C57033   9.526   3.348   1.342  0.7016  0.5549  0.1507
  423MOL0     C57034   9.567   3.402   1.440  0.9999  0.0944 -0.3263
  423MOL0     C57035   8.928   3.167   1.623  0.1834 -0.9670  0.4503
  423MOL0     C57036   8.792   3.186   1.666  0.4618  0.1128  0.0851
  423MOL0     C57037   8.778   3.213   1.821  0.2770  0.1870  0.4695
  423MOL0     H57038   8.495   3.176   2.006  0.1030 -0.4301 -1.0681
  423MOL0     H57039   8.304   3.224   2.151 -1.2869 -1.8146  1.6068
  423MOL0     H57040   7.899   3.279   1.968  1.1958  1.0131  0.0108
  423MOL0     H57041   7.906   3.104   2.002 -2.1651  0.5421 -0.4816
  423MOL0     H57042   7.858   3.333   2.205  2.0695 -0.3251  2.2341
  423MOL0     H57043   7.901   3.182   2.267 -2.2345  1.1081  1.1121
  423MOL0     H57044   7.677   3.112   2.118 -2.1639 -3.0971  3.1480
  423MOL0     H57045   7.640   3.284   2.161  1.8449  0.3892 -0.0435
  423MOL0     H57046   7.696   3.048   2.342 -0.9963 -0.8835  0.8214
  423MOL0     H57047   7.714   3.220   2.394  0.2253  1.3796 -1.4605
  423MOL0     H57048   7.491   3.271   2.363  1.9373  0.8804  1.3609
  423MOL0     H57049   7.436   3.110   2.302 -3.1092  3.4530 -0.4936
  423MOL0     H57050   7.530   3.018   2.531  2.3213 -0.1961 -2.7293
  423MOL0     H57051   7.538   3.194   2.578  0.1798 -0.2025 -0.2294
  423MOL0     H57052   7.327   3.102   2.654  3.1929 -0.3435  0.4112
  423MOL0     H57053   7.286   3.019   2.503 -0.3646  0.0272  1.8963
  423MOL0     H57054   7.236   3.203   2.380  2.7715 -1.8627 -0.5602
  423MOL0     H57055   7.171   3.220   2.550  0.3509  0.0074  2.0137
  423MOL0     H57056   7.389   3.354   2.716  0.9737 -0.5253 -0.8520
  423MOL0     H57057   7.502   3.716   2.657 -1.4299 -0.4253 -1.3768
  423MOL0     H57058   7.465   3.613   2.791 -2.1714 -2.4117  0.3251
  423MOL0     H57059   7.693   3.566   2.592  0.4999  3.7334  0.2024
  423MOL0     H57060   7.706   3.647   2.744 -1.0205 -1.0093  2.2782
  423MOL0     H57061   7.642   3.356   2.693  0.6784  0.7653 -2.0727
  423MOL0     H57062   7.619   3.432   2.852 -2.8309 -0.4585 -1.7223
  423MOL0     H57063   7.839   3.349   2.862 -3.2778 -2.0470 -1.2274
  423MOL0     H57064   7.870   3.519   2.807 -0.2451  0.0260 -0.6689
  423MOL0     H57065   8.071   3.339   2.824 -0.9832 -0.4618 -0.0773
  423MOL0     H57066   8.317   3.293   2.750  0.2508  0.4447 -1.8202
  423MOL0     H57067   8.557   3.023   2.438  4.0966 -1.6449  0.2360
  423MOL0     H57068   8.765   2.962   2.294 -0.6606 -0.1884  0.4415
  423MOL0     H57069   9.004   3.055   2.269  0.3367 -0.6876 -0.7190
  423MOL0     H57070   8.949   2.921   2.169 -0.6626  0.0411  1.3724
  423MOL0     H57071   9.142   3.136   2.083  1.1643 -0.1326  0.2308
  423MOL0     H57072   9.179   2.965   2.133 -0.8379 -2.0413  0.6868
  423MOL0     H57073   9.106   2.863   1.960  0.6863  0.7445  1.5991
  423MOL0     H57074   8.986   2.975   1.895  0.5571 -4.8176 -3.0025
  423MOL0     H57075   9.192   3.138   1.855 -0.0675  0.7519  3.6532
  423MOL0     H57076   9.192   2.991   1.748  0.4127 -2.3045  0.5329
  423MOL0     H57077   9.314   2.899   1.985 -2.2487 -0.6557 -0.0882
  423MOL0     H57078   9.357   3.070   1.994  0.5216  0.7162 -0.8427
  423MOL0     H57079   9.529   2.925   1.892  1.6401 -0.1293 -1.3725
  423MOL0     H57080   9.415   2.900   1.757  0.6555 -2.1658  1.9195
  423MOL0     H57081   9.500   3.174   1.857 -0.3116  0.9711 -0.8356
  423MOL0     H57082   9.413   3.144   1.718 -0.0626 -0.2522 -0.5382
  423MOL0     H57083   9.656   3.174   1.654 -0.3904  3.8202  3.8245
  423MOL0     H57084   9.703   3.054   1.775 -0.2880 -3.6225 -1.1585
  423MOL0     H57085   8.766   3.307   2.081  1.5471 -2.1680 -0.1522
  423MOL0     H57086   8.558   3.397   2.205 -1.9546 -0.5199 -0.2393
  423MOL0     H57087   8.197   3.300   2.348  1.6048 -1.4517  1.4425
  423MOL0     H57088   7.967   3.357   2.406 -1.3757 -2.0497  0.6744
  423MOL0     H57089   8.048   3.236   1.809 -1.3542  2.1933  0.7125
  423MOL0     H57090   8.248   3.255   1.661  0.2486  1.3303  0.8711
  423MOL0     H57091   8.641   3.173   1.352  2.3158 -2.7930 -3.8020
  423MOL0     H57092   8.858   3.110   1.284 -1.5366  2.3522 -0.9434
  423MOL0     H57093   9.138   3.333   1.398  2.3121  0.5313 -2.1697
  423MOL0     H57094   9.065   3.245   1.267 -2.5377  1.2462  1.1016
  423MOL0     H57095   9.285   3.106   1.251  1.0938  0.6554 -0.9214
  423MOL0     H57096   9.336   3.185   1.400 -0.0690  1.9127  0.4618
  423MOL0     H57097   9.292   3.407   1.263  1.0224 -0.8517  0.6445
  423MOL0     H57098   9.293   3.295   1.123 -0.8722 -0.0570 -0.1238
  423MOL0     H57099   9.530   3.210   1.188  1.9014  0.6261 -2.5865
  423MOL0     H57100   9.524   3.374   1.134 -1.4707  0.8238 -1.5330
  423MOL0     H57101   9.598   3.459   1.526  0.1350 -1.1668  0.8634
  423MOL0     H57102   9.016   3.172   1.686 -1.9359  1.6152  3.5472
  423MOL0     H57103   8.720   3.299   1.855 -1.3957 -1.1119  1.0900
  423MOL0     H57104   8.738   3.129   1.879  0.4005  0.9174  1.6454
  423MOL0     H57105   8.880   3.221   1.860  1.3164 -1.8590 -1.5819
  424MOL0     O57106   3.958  10.068   3.605  0.8453  0.7820 -0.1334
  424MOL0     C57107   4.001   9.977   3.679 -1.2614 -1.0577 -0.7202
  424MOL0     O57108   4.133   9.978   3.733  0.0263  0.4343 -0.0393
  424MOL0     C57109   4.200  10.092   3.721  0.1133  1.0091  0.2504
  424MOL0     C57110   4.224  10.173   3.829  0.3404 -0.2826 -0.2235
  424MOL0     C57111   4.322  10.274   3.809 -1.3274 -0.7389 -0.7846
  424MOL0     C57112   4.401  10.284   3.690 -0.0267 -0.4085 -0.6663
  424MOL0     O57113   4.519  10.355   3.686 -0.1218 -0.7683  0.0852
  424MOL0     C57114   4.550  10.460   3.777  0.9111  0.4133 -0.0878
  424MOL0     C57115   4.647  10.557   3.696 -0.0427  0.0182  0.5081
  424MOL0     C57116   4.585  10.658   3.604 -0.0264  0.4302 -0.3292
  424MOL0     C57117   4.699  10.746   3.554 -0.9473  0.7257 -1.4712
  424MOL0     C57118   4.656  10.851   3.453 -0.1695 -0.1948  0.1485
  424MOL0     C57119   4.768  10.954   3.453  0.2044  0.0764  0.9777
  424MOL0     C57120   4.913  10.902   3.432 -0.1527  0.5860 -0.4222
  424MOL0     C57121   5.026  11.004   3.388 -0.1769  0.5588 -0.0680
  424MOL0     N57122   5.050  11.118   3.479 -0.8489  0.8726 -0.0820
  424MOL0     C57123   4.975  11.225   3.517 -0.4339 -0.4031 -0.9086
  424MOL0     C57124   5.035  11.281   3.630  0.5875  0.3365 -0.0458
  424MOL0     C57125   5.016  11.405   3.719  0.5612  0.6484  0.3443
  424MOL0     C57126   5.116  11.524   3.701  0.2722 -0.1527 -0.6317
  424MOL0     C57127   5.063  11.662   3.748  0.3626  0.2132  0.4362
  424MOL0     C57128   5.130  11.790   3.698  0.0595  0.3931 -0.1885
  424MOL0     O57129   5.260  11.780   3.754 -0.0339 -0.6915  0.2651
  424MOL0     C57130   5.360  11.874   3.719 -0.0714  0.0454  0.1435
  424MOL0     C57131   5.493  11.858   3.774  0.5683 -0.0386  0.4822
  424MOL0     C57132   5.599  11.939   3.721  0.1914 -0.1262  0.3477
  424MOL0     C57133   5.579  12.045   3.639  0.2488 -0.8745  0.7852
  424MOL0     C57134   5.689  12.134   3.603 -0.6778  0.2523  0.0542
  424MOL0     O57135   5.816  12.093   3.621  0.0902  0.6075 -0.3291
  424MOL0     C57136   5.915  12.190   3.620  1.0251 -0.0148 -0.8817
  424MOL0     C57137   5.896  12.319   3.680  0.1577  0.7250  0.4448
  424MOL0     C57138   6.008  12.406   3.690  0.4358  0.1832 -0.9006
  424MOL0     C57139   6.134  12.365   3.628 -0.5899 -0.5419  0.2374
  424MOL0     O57140   6.250  12.442   3.632 -0.0588 -0.7210  0.0454
  424MOL0     C57141   6.246  12.559   3.715  0.1295  0.1704 -0.4637
  424MOL0     C57142   6.385  12.630   3.713  0.2074  0.7290 -0.6393
  424MOL0     C57143   6.413  12.697   3.578  0.2415  1.0408 -0.0693
  424MOL0     C57144   6.539  12.786   3.605 -0.0930 -0.0514  0.4110
  424MOL0     C57145   6.591  12.861   3.483  0.4866  0.4367 -0.7559
  424MOL0     C57146   6.711  12.953   3.519 -0.4402 -0.4998 -0.3517
  424MOL0     C57147   6.825  12.878   3.603  0.8048 -0.8500  0.9433
  424MOL0     C57148   6.954  12.964   3.607  0.5199  1.1382 -0.3332
  424MOL0    Cl57149   7.018  12.982   3.437  0.0130  0.3422 -0.4727
  424MOL0     C57150   6.152  12.242   3.571 -0.7024 -1.2570  0.5916
  424MOL0     C57151   6.036  12.158   3.562  0.0354 -0.5869 -0.3364
  424MOL0     O57152   5.662  12.238   3.538  0.3028  0.2720  0.0766
  424MOL0     C57153   5.448  12.064   3.596 -0.7201 -0.5020  0.0334
  424MOL0     C57154   5.342  11.978   3.631  0.0677 -0.9252 -0.4042
  424MOL0     N57155   5.147  11.202   3.650 -0.6118 -0.4001 -0.1271
  424MOL0     N57156   5.158  11.113   3.558 -0.5649 -0.6694 -0.3827
  424MOL0     C57157   4.368  10.210   3.575 -0.5272  0.3144 -0.4028
  424MOL0     C57158   4.267  10.107   3.592 -0.1487 -0.7922  0.3958
  424MOL0     C57159   3.912   9.862   3.728 -0.2696  0.6136  0.0026
  424MOL0     C57160   3.975   9.773   3.815  0.4304 -0.1580 -1.0813
  424MOL0     C57161   3.898   9.666   3.870 -0.3121 -0.2167 -0.3403
  424MOL0     C57162   3.769   9.644   3.829  0.6949  0.6205  0.0694
  424MOL0     O57163   3.700   9.527   3.875 -0.7726 -0.1441  0.2567
  424MOL0     C57164   3.566   9.483   3.829 -0.8548  0.0315 -1.3043
  424MOL0     C57165   3.454   9.571   3.889  0.7464 -0.3334 -0.3513
  424MOL0     C57166   3.320   9.496   3.855 -0.6202  0.1429 -0.0703
  424MOL0     C57167   3.297   9.470   3.705  0.3645 -0.6779 -0.5286
  424MOL0     C57168   3.312   9.592   3.632  0.0866  0.1334 -0.1189
  424MOL0     C57169   3.338   9.689   3.570  0.1103 -0.0668  0.3543
  424MOL0     C57170   3.710   9.726   3.735  0.2032 -0.1030  0.2669
  424MOL0     C57171   3.776   9.837   3.689 -0.4162  0.1734  0.2177
  424MOL0     C57172   3.708   9.928   3.594  0.5722 -0.0896 -0.1722
  424MOL0     H57173   4.167  10.155   3.920  1.0946 -0.5189  0.2151
  424MOL0     H57174   4.332  10.333   3.900 -1.3074  0.6680 -1.6755
  424MOL0     H57175   4.467  10.523   3.811  2.2951  1.8061  0.8683
  424MOL0     H57176   4.602  10.419   3.864 -2.4408 -3.2068  0.4658
  424MOL0     H57177   4.716  10.499   3.634 -1.3199 -0.6472 -0.3428
  424MOL0     H57178   4.712  10.611   3.765  0.9602  3.2389 -2.6314
  424MOL0     H57179   4.510  10.717   3.659  1.6234 -0.5797  3.3788
  424MOL0     H57180   4.535  10.605   3.523 -0.5015 -0.8882  0.7857
  424MOL0     H57181   4.746  10.793   3.640  1.1796 -1.8043 -1.1250
  424MOL0     H57182   4.787  10.694   3.515  0.3329 -1.0674  3.1949
  424MOL0     H57183   4.640  10.801   3.357 -2.2467 -0.8455  0.7786
  424MOL0     H57184   4.560  10.896   3.479 -0.1602  0.7689 -1.3705
  424MOL0     H57185   4.745  11.023   3.371 -3.5327 -0.6811  1.1778
  424MOL0     H57186   4.772  11.015   3.544  1.8893  0.7139  0.5036
  424MOL0     H57187   4.916  10.823   3.357  1.2438 -3.2276  3.2016
  424MOL0     H57188   4.949  10.852   3.523 -0.7201  0.7012 -0.1242
  424MOL0     H57189   5.118  10.944   3.380 -0.1342  0.6648 -0.4155
  424MOL0     H57190   4.999  11.048   3.291  1.5671  2.6386  0.3135
  424MOL0     H57191   4.878  11.252   3.475 -1.7861  1.2080  2.8147
  424MOL0     H57192   4.910  11.429   3.704  0.1306 -0.8570  0.7966
  424MOL0     H57193   5.012  11.376   3.824 -1.9076  1.1337  0.4472
  424MOL0     H57194   5.222  11.512   3.728 -0.2139 -1.3467  0.9106
  424MOL0     H57195   5.127  11.522   3.592  0.0128 -0.8146 -0.6525
  424MOL0     H57196   5.078  11.662   3.856  0.6203  3.6282  0.5017
  424MOL0     H57197   4.955  11.673   3.731 -0.4069 -4.3951  1.1175
  424MOL0     H57198   5.090  11.884   3.737  2.4570  0.4596  2.3727
  424MOL0     H57199   5.137  11.784   3.589 -1.4320 -2.2909 -0.2135
  424MOL0     H57200   5.515  11.777   3.842 -0.2565  0.3580  1.2341
  424MOL0     H57201   5.702  11.922   3.748  0.5051  0.2114 -0.5907
  424MOL0     H57202   5.800  12.358   3.713 -0.5727  2.6923 -3.4038
  424MOL0     H57203   5.986  12.496   3.747 -1.5113 -0.1364 -1.0917
  424MOL0     H57204   6.172  12.632   3.680  1.0730  1.0612 -0.6723
  424MOL0     H57205   6.235  12.531   3.820  1.7224 -1.5375 -0.7026
  424MOL0     H57206   6.385  12.705   3.793 -4.5014  0.4862 -0.1281
  424MOL0     H57207   6.463  12.555   3.732 -1.8129 -1.8659 -1.8916
  424MOL0     H57208   6.423  12.624   3.498  0.8571 -1.6665  2.3305
  424MOL0     H57209   6.333  12.761   3.539 -0.7569 -1.6205 -2.7014
  424MOL0     H57210   6.613  12.715   3.644  1.2339  1.3300  0.4723
  424MOL0     H57211   6.522  12.864   3.679 -0.5638 -1.9794  2.4641
  424MOL0     H57212   6.505  12.916   3.445 -2.0278 -2.1562  0.8147
  424MOL0     H57213   6.619  12.778   3.417  2.1733 -1.0196  1.5899
  424MOL0     H57214   6.735  12.983   3.417 -3.2972  0.8552 -0.7354
  424MOL0     H57215   6.679  13.044   3.570  1.6111 -0.0218  0.1880
  424MOL0     H57216   6.829  12.775   3.565  1.5120  0.0401 -1.6363
  424MOL0     H57217   6.787  12.868   3.705 -1.2324 -0.9595  0.2186
  424MOL0     H57218   6.938  13.056   3.664 -0.9716 -0.0426  1.2412
  424MOL0     H57219   7.025  12.893   3.650  0.8682  0.1247 -2.4350
  424MOL0     H57220   6.251  12.221   3.532 -0.3239 -0.8834  1.3216
  424MOL0     H57221   6.042  12.063   3.512 -1.6501 -0.9451  0.0960
  424MOL0     H57222   5.414  12.146   3.534 -1.4798 -0.0879  0.9755
  424MOL0     H57223   5.252  11.997   3.573  0.9448  0.0037 -1.5173
  424MOL0     H57224   4.424  10.221   3.483  0.7291  0.4813  0.3709
  424MOL0     H57225   4.241  10.046   3.506 -0.7816  0.6864 -0.4886
  424MOL0     H57226   4.077   9.786   3.850 -0.2849 -3.3429  2.8953
  424MOL0     H57227   3.939   9.597   3.942 -2.5920  0.4399  1.7054
  424MOL0     H57228   3.536   9.390   3.877 -3.8140  1.4462 -0.1428
  424MOL0     H57229   3.569   9.469   3.720 -0.4680  1.2163 -1.4634
  424MOL0     H57230   3.458   9.674   3.854  2.2849  0.4576  1.9361
  424MOL0     H57231   3.459   9.579   3.998 -0.9689 -1.0367 -0.1891
  424MOL0     H57232   3.239   9.547   3.910 -0.6188 -1.6440  1.7136
  424MOL0     H57233   3.329   9.399   3.905  1.4996 -0.5155 -1.5968
  424MOL0     H57234   3.367   9.399   3.660  2.1181  0.6548 -0.0428
  424MOL0     H57235   3.196   9.431   3.693  0.6707 -1.5533 -0.3798
  424MOL0     H57236   3.369   9.776   3.516  0.6342 -2.1181 -2.8873
  424MOL0     H57237   3.608   9.707   3.701  1.1539 -2.0859 -1.7555
  424MOL0     H57238   3.764   9.956   3.504 -1.5299  1.6329 -1.0000
  424MOL0     H57239   3.613   9.887   3.560  1.1844  0.4345 -2.7698
  424MOL0     H57240   3.700  10.022   3.649  0.2182 -0.8445  1.1134
  425MOL0     O57241   3.563   9.059   0.939  0.3399 -0.9984 -0.1334
  425MOL0     C57242   3.506   8.969   0.878  0.0803 -0.8497 -0.0572
  425MOL0     O57243   3.476   8.845   0.936  0.7563  0.2234  0.2008
  425MOL0     C57244   3.508   8.835   1.067 -0.4106  0.2664 -0.3284
  425MOL0     C57245   3.458   8.915   1.169 -0.0819 -0.5927  0.0401
  425MOL0     C57246   3.497   8.885   1.302  0.3588  0.6572  0.2311
  425MOL0     C57247   3.591   8.787   1.326  0.6163 -0.7746 -0.5096
  425MOL0     O57248   3.608   8.740   1.451  0.2627  0.4315  0.1905
  425MOL0     C57249   3.549   8.795   1.568 -0.1023 -0.0975 -0.6186
  425MOL0     C57250   3.571   8.696   1.685 -0.9210  0.9755 -0.2892
  425MOL0     C57251   3.717   8.645   1.711 -0.0425  0.6742 -1.2321
  425MOL0     C57252   3.719   8.564   1.853  0.2928 -0.2173 -0.5145
  425MOL0     C57253   3.864   8.514   1.880  0.0320  0.4645  0.1914
  425MOL0     C57254   3.939   8.626   1.937  0.0131 -1.5119  0.2673
  425MOL0     C57255   4.089   8.595   1.940 -0.1319  0.8544  0.2113
  425MOL0     C57256   4.138   8.474   2.022  0.2398  0.0268  0.2217
  425MOL0     N57257   4.284   8.449   2.005  0.2266 -0.8197  0.9886
  425MOL0     C57258   4.344   8.406   1.884  0.1115  0.4783 -0.3548
  425MOL0     C57259   4.474   8.382   1.925  0.3139 -0.5191 -0.8311
  425MOL0     C57260   4.586   8.337   1.835 -0.7257 -0.4193  0.8051
  425MOL0     C57261   4.724   8.324   1.907 -0.6156 -0.5937  0.7799
  425MOL0     C57262   4.843   8.298   1.808 -0.2394  0.1638  0.9912
  425MOL0     C57263   4.963   8.271   1.889  0.5219 -0.6020  0.6338
  425MOL0     O57264   4.990   8.137   1.885  0.6464  0.0559  0.0177
  425MOL0     C57265   5.104   8.087   1.945  0.1044  0.3884  0.1801
  425MOL0     C57266   5.202   8.044   1.859 -0.5417 -0.1538 -0.7120
  425MOL0     C57267   5.322   7.999   1.914 -0.7724 -0.0491  0.0573
  425MOL0     C57268   5.345   8.011   2.053 -0.8636  0.1876 -0.2832
  425MOL0     C57269   5.481   7.984   2.101 -0.0081  0.5967 -0.1961
  425MOL0     O57270   5.499   8.001   2.229 -0.0961 -0.6835 -0.1438
  425MOL0     C57271   5.621   7.960   2.276  1.0972  0.0135 -1.0773
  425MOL0     C57272   5.739   8.020   2.235  0.2410 -0.3999 -0.4558
  425MOL0     C57273   5.864   7.965   2.279  0.4156  0.4620 -0.0029
  425MOL0     C57274   5.853   7.853   2.371  0.4199  0.4163  0.8456
  425MOL0     O57275   5.961   7.781   2.432 -0.1144 -0.2377  0.4533
  425MOL0     C57276   6.078   7.771   2.363 -0.7062  0.2866  0.7922
  425MOL0     C57277   6.188   7.696   2.441  1.0164  0.5962 -0.3764
  425MOL0     C57278   6.230   7.763   2.571 -0.6150 -0.6790  0.1149
  425MOL0     C57279   6.326   7.676   2.654 -0.3909  1.2188 -0.7270
  425MOL0     C57280   6.405   7.741   2.781 -0.4128  0.1877  0.1163
  425MOL0     C57281   6.417   7.654   2.901 -0.3240  0.5301  0.3067
  425MOL0     C57282   6.521   7.713   2.996  0.1582  0.3811  0.6846
  425MOL0     C57283   6.532   7.626   3.122  0.3236 -0.3179  0.0715
  425MOL0    Cl57284   6.625   7.722   3.238  0.4333 -0.2429 -0.1027
  425MOL0     C57285   5.735   7.792   2.398  0.5729 -0.3316 -0.3031
  425MOL0     C57286   5.621   7.855   2.360  0.9140  0.1580 -0.0114
  425MOL0     O57287   5.562   7.954   2.020 -0.5646  0.7964  0.1871
  425MOL0     C57288   5.245   8.056   2.138  0.1789  0.2078  0.2229
  425MOL0     C57289   5.126   8.101   2.075 -0.9242 -0.2088  1.1882
  425MOL0     N57290   4.483   8.409   2.064 -0.8612 -0.4659  0.0715
  425MOL0     N57291   4.371   8.455   2.105 -0.7776 -0.0030  0.4564
  425MOL0     C57292   3.659   8.726   1.219  0.5036 -0.2653  0.2830
  425MOL0     C57293   3.616   8.742   1.088 -0.5878  0.3644  0.0029
  425MOL0     C57294   3.464   8.980   0.741  0.5712  0.5144 -0.0154
  425MOL0     C57295   3.384   8.890   0.678 -0.3832  0.1882 -0.1419
  425MOL0     C57296   3.351   8.887   0.544  0.4250 -0.4435 -0.5869
  425MOL0     C57297   3.398   8.991   0.462 -0.2189  0.7735  0.4563
  425MOL0     O57298   3.383   9.000   0.324  1.0097 -0.2899  0.2960
  425MOL0     C57299   3.261   8.952   0.269  0.2166 -0.2624 -0.1736
  425MOL0     C57300   3.298   8.806   0.229  0.1315 -0.6743  1.0728
  425MOL0     C57301   3.199   8.732   0.134 -0.5057 -0.4354  0.8616
  425MOL0     C57302   3.196   8.584   0.154 -0.1222  0.4712 -0.4845
  425MOL0     C57303   3.328   8.514   0.138 -0.3177  0.2471  0.2629
  425MOL0     C57304   3.430   8.474   0.097 -0.5896  0.2757 -0.8005
  425MOL0     C57305   3.461   9.093   0.527 -0.2709 -0.2873  0.5502
  425MOL0     C57306   3.497   9.090   0.657 -0.0022  0.2813 -0.0325
  425MOL0     C57307   3.594   9.202   0.694 -0.5127  0.5134 -0.7411
  425MOL0     H57308   3.404   9.005   1.142  1.2595 -0.4540 -2.5140
  425MOL0     H57309   3.448   8.933   1.386 -0.4265 -1.2954  0.9570
  425MOL0     H57310   3.598   8.892   1.581 -1.9062  1.0362 -1.7752
  425MOL0     H57311   3.445   8.827   1.560 -0.0362 -0.1558 -1.8099
  425MOL0     H57312   3.504   8.610   1.686  1.0669 -0.7240  2.5854
  425MOL0     H57313   3.545   8.757   1.772 -2.7663 -0.2040  0.0209
  425MOL0     H57314   3.793   8.724   1.707  1.8923 -0.9792  0.3138
  425MOL0     H57315   3.727   8.571   1.631 -4.4283 -0.0852 -1.2924
  425MOL0     H57316   3.686   8.629   1.935  4.2830  1.1040  0.2976
  425MOL0     H57317   3.649   8.481   1.842  2.3269 -2.7357  3.2888
  425MOL0     H57318   3.866   8.428   1.947  0.5235  0.8530  0.6758
  425MOL0     H57319   3.918   8.485   1.789  0.2820  0.4987  0.3287
  425MOL0     H57320   3.927   8.720   1.883  2.8776 -1.5754 -0.6686
  425MOL0     H57321   3.897   8.642   2.036 -0.7321 -2.3857  0.1098
  425MOL0     H57322   4.146   8.681   1.977 -3.0926  2.9332  0.2062
  425MOL0     H57323   4.114   8.573   1.835 -0.4221  2.1124 -0.1430
  425MOL0     H57324   4.096   8.503   2.119 -1.7831  1.1028 -0.8939
  425MOL0     H57325   4.084   8.381   2.004 -0.5359  0.7564 -1.4870
  425MOL0     H57326   4.292   8.397   1.790 -2.2973 -3.4559  1.1276
  425MOL0     H57327   4.572   8.233   1.805  0.3374 -0.5387  0.6854
  425MOL0     H57328   4.590   8.402   1.747 -1.6792 -1.0678  0.2676
  425MOL0     H57329   4.738   8.423   1.950 -0.9475 -2.1257  4.8050
  425MOL0     H57330   4.709   8.243   1.979 -2.1256 -1.1361 -0.0793
  425MOL0     H57331   4.861   8.388   1.748  1.9517 -1.2634 -0.6273
  425MOL0     H57332   4.819   8.218   1.738 -0.8224  1.6270 -0.5511
  425MOL0     H57333   4.951   8.296   1.995  0.2228  0.8945  0.2635
  425MOL0     H57334   5.048   8.328   1.849 -0.7136  1.2336  0.5243
  425MOL0     H57335   5.179   8.048   1.753  0.4365  0.7625 -0.9108
  425MOL0     H57336   5.401   7.954   1.856 -0.2486 -1.1827  1.5738
  425MOL0     H57337   5.741   8.099   2.160 -0.4727  2.7264  2.5512
  425MOL0     H57338   5.949   7.997   2.221 -1.3297 -1.5380 -4.0961
  425MOL0     H57339   6.063   7.717   2.269  1.2098  2.8342 -1.1234
  425MOL0     H57340   6.119   7.870   2.340  2.6610 -1.5239 -2.0334
  425MOL0     H57341   6.137   7.601   2.455 -1.5451  1.7961 -0.8949
  425MOL0     H57342   6.274   7.688   2.374 -0.1619 -0.1030 -1.8683
  425MOL0     H57343   6.275   7.863   2.561 -1.6488  0.1885  2.9919
  425MOL0     H57344   6.146   7.775   2.640 -0.2308  1.1438  0.3359
  425MOL0     H57345   6.406   7.648   2.584 -0.2040  1.0832 -0.4590
  425MOL0     H57346   6.271   7.586   2.681 -0.4908  0.9125 -1.8929
  425MOL0     H57347   6.361   7.839   2.805  0.2472  0.7339 -0.8197
  425MOL0     H57348   6.502   7.769   2.739 -0.7368 -0.6358 -1.2318
  425MOL0     H57349   6.318   7.645   2.947 -2.0943  5.8528 -1.7382
  425MOL0     H57350   6.459   7.554   2.884  3.0088  2.0614 -1.4807
  425MOL0     H57351   6.493   7.817   3.018 -3.3862  0.2715 -2.3838
  425MOL0     H57352   6.615   7.718   2.941  0.0926  1.8119  0.6469
  425MOL0     H57353   6.432   7.600   3.158  0.6076 -5.0653 -1.8870
  425MOL0     H57354   6.585   7.533   3.099 -1.5873 -2.0904  2.3198
  425MOL0     H57355   5.735   7.705   2.463  1.6885 -0.3990 -0.3751
  425MOL0     H57356   5.525   7.814   2.392  0.4424 -0.0938 -1.6764
  425MOL0     H57357   5.259   8.057   2.245  3.6999 -0.4280 -0.1066
  425MOL0     H57358   5.041   8.138   2.133 -5.2126 -2.4642 -2.9228
  425MOL0     H57359   3.728   8.646   1.241  3.2311  1.4463 -1.4211
  425MOL0     H57360   3.660   8.671   1.020 -2.1241  0.8241 -1.5522
  425MOL0     H57361   3.350   8.808   0.742  1.9526 -2.8271 -2.4503
  425MOL0     H57362   3.279   8.814   0.510 -1.4471 -0.2998  2.6199
  425MOL0     H57363   3.234   9.000   0.175 -0.7190 -1.2506 -0.4286
  425MOL0     H57364   3.176   8.945   0.337  1.8908 -2.3449  1.8728
  425MOL0     H57365   3.319   8.743   0.316 -2.1911 -1.7131  0.9608
  425MOL0     H57366   3.394   8.804   0.176 -1.5890 -4.1944 -2.5743
  425MOL0     H57367   3.223   8.746   0.028 -2.3053  0.2536  0.5221
  425MOL0     H57368   3.101   8.777   0.150 -1.4422 -1.1863 -2.1615
  425MOL0     H57369   3.162   8.556   0.255  1.2972 -0.9018 -0.3524
  425MOL0     H57370   3.125   8.544   0.081  0.0713  0.2954 -0.5774
  425MOL0     H57371   3.524   8.435   0.065 -0.4916  0.4647 -0.7403
  425MOL0     H57372   3.502   9.169   0.461  1.4292 -1.9606 -0.4228
  425MOL0     H57373   3.600   9.231   0.800  2.3256 -1.0670 -0.3832
  425MOL0     H57374   3.688   9.150   0.671 -2.2126 -2.3293 -1.7142
  425MOL0     H57375   3.590   9.299   0.643  0.5547  2.1730  2.0869
  426MOL0     O57376   6.048   2.635   5.872 -0.6512 -1.0317 -0.8989
  426MOL0     C57377   5.980   2.547   5.825  0.0989  0.9057  0.5933
  426MOL0     O57378   6.030   2.440   5.759  0.5973 -0.0718 -0.4180
  426MOL0     C57379   6.155   2.448   5.711  0.3483  0.0039  0.5015
  426MOL0     C57380   6.225   2.330   5.730 -0.1636  0.1695  1.0411
  426MOL0     C57381   6.361   2.315   5.710  0.1302 -1.0895  0.1006
  426MOL0     C57382   6.434   2.422   5.661  0.8046  0.7652  0.0789
  426MOL0     O57383   6.569   2.434   5.671 -0.5186 -0.2237 -0.2248
  426MOL0     C57384   6.649   2.340   5.737 -0.0310  0.2767 -0.6736
  426MOL0     C57385   6.792   2.366   5.699  0.4944  0.3692  0.3341
  426MOL0     C57386   6.838   2.513   5.743  0.5392 -0.2480  0.4297
  426MOL0     C57387   6.985   2.547   5.692 -0.0848  0.1836 -0.0564
  426MOL0     C57388   7.053   2.643   5.792  0.9491  1.0070  0.0770
  426MOL0     C57389   6.972   2.777   5.810 -0.4273 -0.3583 -0.5352
  426MOL0     C57390   7.040   2.897   5.889  0.3243  0.3276 -0.2149
  426MOL0     C57391   7.086   2.857   6.030 -0.3153  0.0646 -0.2516
  426MOL0     N57392   7.168   2.966   6.089  0.1296 -0.6157 -0.3099
  426MOL0     C57393   7.125   3.086   6.138 -0.9993 -1.1959  0.0905
  426MOL0     C57394   7.241   3.147   6.181  0.3751 -0.9417 -0.3350
  426MOL0     C57395   7.259   3.288   6.223  0.0430 -1.0137 -0.7965
  426MOL0     C57396   7.169   3.323   6.338 -0.2893  0.2407  0.1295
  426MOL0     C57397   7.238   3.315   6.472 -0.8375 -0.0944  0.0661
  426MOL0     C57398   7.289   3.167   6.502  0.4700 -0.7252 -0.2967
  426MOL0     O57399   7.177   3.076   6.488 -0.4023  0.7543 -0.3368
  426MOL0     C57400   7.227   2.944   6.479 -0.5151  0.2217  0.0759
  426MOL0     C57401   7.151   2.861   6.395  0.0267 -0.1654 -1.0804
  426MOL0     C57402   7.165   2.717   6.391  0.1541 -0.5512 -0.7533
  426MOL0     C57403   7.269   2.662   6.471 -0.6203 -1.1500  0.2530
  426MOL0     C57404   7.297   2.523   6.458 -0.1210 -0.4351  0.9236
  426MOL0     O57405   7.383   2.467   6.553 -0.0484 -0.9417 -0.1583
  426MOL0     C57406   7.377   2.331   6.547 -0.5396 -0.1807 -1.0644
  426MOL0     C57407   7.469   2.265   6.465 -0.3243  0.8288  0.4541
  426MOL0     C57408   7.466   2.123   6.470  0.4259 -0.2675  0.3886
  426MOL0     C57409   7.372   2.045   6.545  0.5164 -0.6207  0.3458
  426MOL0     O57410   7.360   1.905   6.559 -0.3792 -0.6254  0.2500
  426MOL0     C57411   7.411   1.832   6.449  0.0410  0.1598 -0.3472
  426MOL0     C57412   7.359   1.683   6.456 -0.7397 -0.3115 -0.2342
  426MOL0     C57413   7.447   1.590   6.377  0.1574 -0.3037 -0.0718
  426MOL0     C57414   7.394   1.444   6.374 -0.3648  0.0031 -1.1337
  426MOL0     C57415   7.465   1.352   6.277  0.1943 -0.4137 -0.5004
  426MOL0     C57416   7.428   1.398   6.135 -0.0419 -0.2431 -0.0383
  426MOL0     C57417   7.493   1.307   6.028  0.4009 -0.4889  0.4043
  426MOL0     C57418   7.636   1.320   6.017 -0.2339  0.3701 -0.1836
  426MOL0    Cl57419   7.684   1.488   5.992 -0.0167  0.2957 -0.5014
  426MOL0     C57420   7.279   2.121   6.619  0.4751 -0.5801  0.2269
  426MOL0     C57421   7.289   2.257   6.625  1.2212 -0.0649  1.2791
  426MOL0     O57422   7.227   2.457   6.376 -0.9343 -0.1751 -0.6901
  426MOL0     C57423   7.348   2.751   6.544  0.5298  0.5753 -0.4101
  426MOL0     C57424   7.327   2.884   6.552 -0.1408 -0.7979  0.5849
  426MOL0     N57425   7.353   3.072   6.142  0.4280 -0.4725 -0.6391
  426MOL0     N57426   7.302   2.961   6.094 -0.1376  0.3092  0.4282
  426MOL0     C57427   6.355   2.546   5.627 -0.0781 -0.2858  0.1763
  426MOL0     C57428   6.224   2.560   5.655  0.3478 -0.1399 -0.4208
  426MOL0     C57429   5.837   2.541   5.838  0.5571  0.0690  0.2535
  426MOL0     C57430   5.767   2.432   5.784  0.6110 -0.3253  0.8991
  426MOL0     C57431   5.626   2.426   5.786  0.0422  0.0219 -0.1293
  426MOL0     C57432   5.549   2.531   5.853 -0.7623 -0.0165 -0.5956
  426MOL0     O57433   5.416   2.545   5.843 -0.2020  0.3010  0.0865
  426MOL0     C57434   5.342   2.580   5.955 -0.0460 -0.8927  0.6861
  426MOL0     C57435   5.188   2.588   5.924 -0.4280 -0.4496  0.5363
  426MOL0     C57436   5.158   2.707   5.819 -0.8957 -0.7730 -0.2622
  426MOL0     C57437   5.165   2.845   5.889  0.3966  0.5664  1.0345
  426MOL0     C57438   5.061   2.854   5.992 -0.5737 -0.0781 -0.5760
  426MOL0     C57439   4.984   2.854   6.087 -0.1858  0.4406  1.2609
  426MOL0     C57440   5.623   2.644   5.906 -0.1170 -0.3991  0.2688
  426MOL0     C57441   5.766   2.643   5.907 -0.4932  0.2479  0.2570
  426MOL0     C57442   5.822   2.752   6.004  0.1441  0.4990  1.3533
  426MOL0     H57443   6.173   2.237   5.754 -0.4958  0.1170  0.1744
  426MOL0     H57444   6.415   2.227   5.744  1.1458  0.0984  1.6559
  426MOL0     H57445   6.635   2.345   5.846  0.3897 -0.7564 -0.5517
  426MOL0     H57446   6.632   2.237   5.702 -1.6480  0.4508 -0.4925
  426MOL0     H57447   6.806   2.359   5.590  0.5476  1.4809  0.2483
  426MOL0     H57448   6.848   2.293   5.758  0.2458 -1.7996 -1.9362
  426MOL0     H57449   6.826   2.533   5.850  0.7375  0.6744  0.2886
  426MOL0     H57450   6.775   2.588   5.694  1.0291  0.5531  1.0012
  426MOL0     H57451   7.045   2.458   5.671  2.7493  1.2384  2.6487
  426MOL0     H57452   6.966   2.612   5.606 -2.1657  1.3061  1.1640
  426MOL0     H57453   7.061   2.587   5.886  2.6946 -2.1125 -1.7610
  426MOL0     H57454   7.157   2.654   5.759  1.7442  1.0959  2.4406
  426MOL0     H57455   6.937   2.811   5.712  0.2243  0.0330 -0.6384
  426MOL0     H57456   6.884   2.754   5.870  1.2966  0.1438  2.3616
  426MOL0     H57457   6.963   2.972   5.912 -0.3109 -0.4088  0.1383
  426MOL0     H57458   7.118   2.937   5.824  1.3930  0.5874  1.1884
  426MOL0     H57459   7.000   2.843   6.097 -0.7940  2.4374 -0.2986
  426MOL0     H57460   7.156   2.773   6.026  0.0107  0.2935  0.5150
  426MOL0     H57461   7.023   3.121   6.138  0.3676  3.6197  2.5670
  426MOL0     H57462   7.366   3.300   6.243 -0.1869  2.0343 -0.8517
  426MOL0     H57463   7.247   3.353   6.136  2.3009 -0.9001 -1.0793
  426MOL0     H57464   7.149   3.429   6.320 -0.8690 -0.1032 -1.3803
  426MOL0     H57465   7.075   3.268   6.324 -0.1858  0.7387 -3.6329
  426MOL0     H57466   7.162   3.336   6.548 -2.1402 -3.1146 -0.2670
  426MOL0     H57467   7.320   3.387   6.472 -0.1614 -0.8192 -1.4920
  426MOL0     H57468   7.323   3.162   6.606  2.0921 -3.3875 -0.8749
  426MOL0     H57469   7.378   3.152   6.440  1.3264  1.6310  0.2657
  426MOL0     H57470   7.070   2.903   6.336 -2.6379 -1.5893  1.3317
  426MOL0     H57471   7.106   2.667   6.315 -1.1927 -1.6828  0.9825
  426MOL0     H57472   7.534   2.320   6.398  3.2477 -0.9752  2.1427
  426MOL0     H57473   7.537   2.075   6.404  0.1776 -2.4144  1.5995
  426MOL0     H57474   7.362   1.870   6.358 -2.2224 -2.1080 -0.1947
  426MOL0     H57475   7.519   1.843   6.439 -0.1694  1.5369 -1.4131
  426MOL0     H57476   7.369   1.646   6.559  0.3036 -1.2125 -0.6446
  426MOL0     H57477   7.253   1.686   6.431 -1.2493  3.3747  1.6509
  426MOL0     H57478   7.449   1.618   6.272  1.1075 -3.5283 -1.0352
  426MOL0     H57479   7.548   1.591   6.421 -0.0396 -0.2690  0.3890
  426MOL0     H57480   7.286   1.450   6.356 -0.7553 -2.0904  0.1577
  426MOL0     H57481   7.400   1.403   6.476  0.8912 -2.2371 -2.0349
  426MOL0     H57482   7.438   1.246   6.282  3.6211 -1.5205 -2.2110
  426MOL0     H57483   7.572   1.358   6.302  0.3565  1.3533 -1.4575
  426MOL0     H57484   7.320   1.386   6.118 -0.3873 -0.4603  2.0583
  426MOL0     H57485   7.449   1.502   6.108 -0.8775 -0.2534 -0.7593
  426MOL0     H57486   7.444   1.320   5.931 -0.5781  1.7437  1.1289
  426MOL0     H57487   7.477   1.202   6.054 -1.2375 -0.7217 -1.3257
  426MOL0     H57488   7.690   1.282   6.104 -0.8490  3.1656  1.5346
  426MOL0     H57489   7.662   1.274   5.921 -2.1181  1.4089 -1.2449
  426MOL0     H57490   7.212   2.067   6.687  2.4461 -2.2443  0.9605
  426MOL0     H57491   7.222   2.308   6.694  0.3516  0.9957 -0.2784
  426MOL0     H57492   7.417   2.713   6.618  2.3782  3.9372 -0.1971
  426MOL0     H57493   7.392   2.949   6.610  0.3077 -2.3550  1.8764
  426MOL0     H57494   6.412   2.630   5.588 -0.0813 -1.2383 -2.0345
  426MOL0     H57495   6.172   2.652   5.630 -1.4712 -1.6625 -2.6977
  426MOL0     H57496   5.824   2.358   5.729  1.7389  0.8384  0.4620
  426MOL0     H57497   5.565   2.358   5.726  0.5119 -0.5703  0.0520
  426MOL0     H57498   5.374   2.666   6.015 -0.7708 -2.0185  2.7899
  426MOL0     H57499   5.348   2.504   6.033 -1.2681 -0.8038  0.8771
  426MOL0     H57500   5.132   2.597   6.017 -0.0309 -1.1820  0.8538
  426MOL0     H57501   5.158   2.493   5.880 -0.3289 -1.2122  2.0744
  426MOL0     H57502   5.054   2.685   5.789 -0.3807 -1.6321 -1.5294
  426MOL0     H57503   5.230   2.706   5.737  0.5288 -1.2755  0.9563
  426MOL0     H57504   5.266   2.864   5.925  1.0791 -1.7780  0.5191
  426MOL0     H57505   5.134   2.911   5.807 -0.3764 -1.5753 -0.5005
  426MOL0     H57506   4.931   2.857   6.180  3.8661 -0.9092  3.8822
  426MOL0     H57507   5.581   2.729   5.958 -1.6264 -1.2206  0.4338
  426MOL0     H57508   5.824   2.845   5.946  0.0416 -1.5354 -2.1685
  426MOL0     H57509   5.751   2.763   6.086 -1.4789 -0.2309  0.0947
  426MOL0     H57510   5.920   2.741   6.051  1.0918  1.0183 -0.4348
  427MOL0     O57511   5.151  10.489   3.266  0.3166  0.3866  0.0321
  427MOL0     C57512   5.137  10.458   3.388 -0.0152 -0.1291  1.6660
  427MOL0     O57513   5.200  10.508   3.491  1.0292 -0.0966 -0.5575
  427MOL0     C57514   5.294  10.598   3.462 -0.5681 -0.3520 -0.8767
  427MOL0     C57515   5.261  10.711   3.384  0.1854 -0.4942  0.5635
  427MOL0     C57516   5.359  10.802   3.357 -0.6845  0.1823 -1.0993
  427MOL0     C57517   5.486  10.785   3.412  0.5159 -0.1301 -0.8191
  427MOL0     O57518   5.596  10.867   3.382  0.4831 -0.2040  0.3446
  427MOL0     C57519   5.576  11.004   3.360 -0.4321 -1.0040  0.2308
  427MOL0     C57520   5.550  11.084   3.496 -0.2935  0.2953  0.0395
  427MOL0     C57521   5.660  11.057   3.596 -0.5387  0.3634  0.7733
  427MOL0     C57522   5.634  11.135   3.718  0.1901  0.7621 -0.2006
  427MOL0     C57523   5.707  11.057   3.836 -0.2367 -0.2004 -0.1458
  427MOL0     C57524   5.678  11.131   3.966 -0.4579  0.1066 -0.4490
  427MOL0     C57525   5.782  11.094   4.080 -0.8834  0.6379 -0.2953
  427MOL0     C57526   5.772  11.178   4.204 -0.4331  0.7199  0.0782
  427MOL0     N57527   5.841  11.301   4.195 -0.4052  0.2927  0.4119
  427MOL0     C57528   5.879  11.371   4.309  0.2928  0.1196  0.5391
  427MOL0     C57529   5.899  11.495   4.266 -0.7587  0.1175  0.9513
  427MOL0     C57530   5.930  11.620   4.338 -0.1338  0.4427  0.4853
  427MOL0     C57531   6.054  11.611   4.421  0.7791 -0.2215 -0.7915
  427MOL0     C57532   6.065  11.739   4.509 -0.1400 -0.7322 -0.6839
  427MOL0     C57533   6.195  11.729   4.584  0.5118 -0.1533  0.2246
  427MOL0     O57534   6.221  11.841   4.677 -0.2953  0.0024  0.8842
  427MOL0     C57535   6.346  11.860   4.744 -0.0472  0.7177 -0.0852
  427MOL0     C57536   6.457  11.774   4.725  0.2357  0.2099  0.1914
  427MOL0     C57537   6.566  11.792   4.802 -0.2266  0.0303  0.9769
  427MOL0     C57538   6.573  11.900   4.900 -0.7197  0.0118 -0.4709
  427MOL0     C57539   6.680  11.902   5.006 -0.6669  0.0190  0.1426
  427MOL0     O57540   6.683  12.005   5.097  0.5071 -0.0423 -0.5621
  427MOL0     C57541   6.771  12.007   5.201 -1.2848  0.0326 -0.5233
  427MOL0     C57542   6.726  12.053   5.325  0.3316  0.4055  1.5351
  427MOL0     C57543   6.808  12.081   5.434 -0.2728 -0.6029 -0.0341
  427MOL0     C57544   6.941  12.061   5.427  0.0052 -0.6373  0.7320
  427MOL0     O57545   7.033  12.081   5.527  1.0898 -0.2012 -0.6538
  427MOL0     C57546   7.013  12.204   5.588  0.2178  0.6439 -0.3520
  427MOL0     C57547   7.143  12.231   5.660  0.6530  0.2426  0.4468
  427MOL0     C57548   7.147  12.375   5.703  0.9260 -0.9539 -0.3897
  427MOL0     C57549   7.059  12.397   5.827  0.4005  0.1405  0.2143
  427MOL0     C57550   7.066  12.553   5.856  0.5928  0.3614 -0.5312
  427MOL0     C57551   6.985  12.574   5.988 -0.3296 -0.0190 -0.3369
  427MOL0     C57552   6.985  12.712   6.045 -0.4518 -0.3312 -0.5955
  427MOL0     C57553   6.864  12.794   5.995 -0.1679 -0.5927  0.7949
  427MOL0    Cl57554   6.878  12.818   5.821 -0.0313  0.6051 -0.1065
  427MOL0     C57555   6.999  12.013   5.305  1.5477  0.4340 -0.5162
  427MOL0     C57556   6.916  11.998   5.189 -0.1716  0.1983 -0.0538
  427MOL0     O57557   6.762  11.809   5.003 -0.5018  0.8439 -0.0912
  427MOL0     C57558   6.464  11.986   4.916  0.5669  0.1093  0.0350
  427MOL0     C57559   6.351  11.964   4.834  0.3565  0.6480 -1.3015
  427MOL0     N57560   5.884  11.496   4.126 -0.0689  0.3298  0.6424
  427MOL0     N57561   5.852  11.376   4.086  0.0770 -0.6925  0.5679
  427MOL0     C57562   5.515  10.664   3.485 -0.6585 -0.0150  0.2670
  427MOL0     C57563   5.419  10.570   3.519  0.2381 -0.4215  0.2253
  427MOL0     C57564   5.032  10.356   3.422 -0.1173 -0.1631  0.0219
  427MOL0     C57565   5.084  10.238   3.489 -0.4331  0.6474  0.2807
  427MOL0     C57566   5.000  10.131   3.516 -0.1144  0.5733  0.8521
  427MOL0     C57567   4.867  10.131   3.468  0.1097 -1.1835  0.3589
  427MOL0     O57568   4.772  10.037   3.490  0.4743 -0.1422 -0.4074
  427MOL0     C57569   4.811   9.921   3.573 -0.2552  0.3017 -0.2169
  427MOL0     C57570   4.799   9.945   3.723  0.1881 -0.4133  0.1715
  427MOL0     C57571   4.665  10.003   3.763  1.1074  0.3862  0.8301
  427MOL0     C57572   4.547   9.896   3.779 -0.2195 -0.0676 -0.7734
  427MOL0     C57573   4.564   9.822   3.900  0.3308 -0.6336 -0.6193
  427MOL0     C57574   4.580   9.762   4.005  0.5600 -0.0405  0.1154
  427MOL0     C57575   4.818  10.249   3.400  0.1697  1.2213  0.0548
  427MOL0     C57576   4.901  10.354   3.379  0.0391 -0.3504 -0.3979
  427MOL0     C57577   4.834  10.464   3.303 -0.1614  0.3332  0.0161
  427MOL0     H57578   5.158  10.727   3.353 -0.4216 -0.9348  2.2105
  427MOL0     H57579   5.337  10.889   3.297 -2.3953 -0.5774 -1.6127
  427MOL0     H57580   5.674  11.037   3.323 -0.5625 -1.2289 -0.3193
  427MOL0     H57581   5.501  11.034   3.287 -1.5559  1.0358  2.0953
  427MOL0     H57582   5.464  11.038   3.547  0.2671 -0.1735  0.5786
  427MOL0     H57583   5.537  11.191   3.478 -0.5991  0.0898 -1.0177
  427MOL0     H57584   5.754  11.089   3.551 -0.3470  0.5927  1.3192
  427MOL0     H57585   5.675  10.951   3.620  2.3543 -0.2116 -2.6312
  427MOL0     H57586   5.662  11.240   3.703  3.3916 -0.2866 -2.9043
  427MOL0     H57587   5.526  11.140   3.735  0.1411  1.5699 -0.6933
  427MOL0     H57588   5.668  10.956   3.848 -3.0043  0.7557 -0.2534
  427MOL0     H57589   5.814  11.040   3.821 -0.5994 -0.8444 -2.4043
  427MOL0     H57590   5.680  11.238   3.946  1.8150  0.1731 -0.1157
  427MOL0     H57591   5.577  11.103   3.997  0.1810 -2.8827 -0.7063
  427MOL0     H57592   5.884  11.109   4.045 -0.9803  0.1215 -0.8208
  427MOL0     H57593   5.776  10.986   4.099 -0.1994  0.5290 -0.6851
  427MOL0     H57594   5.666  11.202   4.218 -0.2009  0.4688  2.6930
  427MOL0     H57595   5.803  11.131   4.297 -0.4209 -0.4140 -0.4847
  427MOL0     H57596   5.885  11.338   4.412 -1.2130  0.2415  0.6858
  427MOL0     H57597   5.938  11.710   4.277 -1.6126 -0.0308 -0.4509
  427MOL0     H57598   5.850  11.641   4.410 -0.1298  1.5226  0.1899
  427MOL0     H57599   6.065  11.521   4.481 -0.2559 -1.2192 -2.0372
  427MOL0     H57600   6.131  11.601   4.344  0.9617  1.5144 -0.8888
  427MOL0     H57601   5.979  11.746   4.576  0.2768  2.0512 -0.3082
  427MOL0     H57602   6.063  11.828   4.445 -1.7870  1.1803  1.7890
  427MOL0     H57603   6.262  11.727   4.498  0.4882 -0.2240  0.2074
  427MOL0     H57604   6.199  11.630   4.630  0.8669  0.1038  0.7510
  427MOL0     H57605   6.453  11.693   4.653  1.6521  0.6610 -0.4363
  427MOL0     H57606   6.634  11.708   4.790 -0.8275 -0.0317 -4.5268
  427MOL0     H57607   6.618  12.062   5.333  0.0782 -1.5512  0.9566
  427MOL0     H57608   6.757  12.105   5.527  0.1412 -2.0619  0.5978
  427MOL0     H57609   7.003  12.284   5.515 -0.9149  1.9910  1.2188
  427MOL0     H57610   6.934  12.195   5.663  2.7368 -2.3386  2.2872
  427MOL0     H57611   7.163  12.161   5.742  1.1314  1.6007  1.5292
  427MOL0     H57612   7.226  12.234   5.589 -0.5372  1.3602 -0.9579
  427MOL0     H57613   7.248  12.411   5.726  0.8845  0.7932 -2.6110
  427MOL0     H57614   7.111  12.438   5.622  1.0015  0.0880  0.3665
  427MOL0     H57615   7.094  12.344   5.916  1.1173 -1.3319 -0.8908
  427MOL0     H57616   6.957  12.360   5.811  0.7058 -1.1293  1.0554
  427MOL0     H57617   7.029  12.617   5.775 -2.8792 -2.0529 -1.0527
  427MOL0     H57618   7.173  12.573   5.860  0.1561  3.1339 -0.5244
  427MOL0     H57619   6.877  12.557   5.981 -0.0536 -2.2264  0.1057
  427MOL0     H57620   7.026  12.514   6.070 -3.6037  2.9528  3.9753
  427MOL0     H57621   7.079  12.762   6.019 -0.3033 -1.7479 -3.1246
  427MOL0     H57622   6.977  12.707   6.154 -1.0941  5.5590 -0.0526
  427MOL0     H57623   6.770  12.749   6.026 -1.7919  0.6890 -1.9482
  427MOL0     H57624   6.864  12.894   6.040 -1.7195 -0.9503  1.6539
  427MOL0     H57625   7.104  11.987   5.296  1.6060  0.8955 -1.2841
  427MOL0     H57626   6.966  11.969   5.098 -0.4677 -0.4966  0.0003
  427MOL0     H57627   6.447  12.066   4.988 -0.9361  1.2587 -1.5101
  427MOL0     H57628   6.254  12.013   4.829 -0.5429 -1.0781 -1.3593
  427MOL0     H57629   5.619  10.649   3.511  0.1848  4.5171  0.2448
  427MOL0     H57630   5.446  10.486   3.581  1.5402 -2.0907 -2.4045
  427MOL0     H57631   5.190  10.223   3.509 -0.8981 -1.6848  1.2651
  427MOL0     H57632   5.037  10.040   3.561 -2.1608  0.5859  2.6936
  427MOL0     H57633   4.910   9.879   3.556  0.2211  0.8805  0.9510
  427MOL0     H57634   4.741   9.846   3.535  1.6529 -0.7200 -1.8725
  427MOL0     H57635   4.892   9.990   3.760  2.5025 -0.1668 -5.0437
  427MOL0     H57636   4.803   9.845   3.769 -2.1096 -1.0137 -0.8226
  427MOL0     H57637   4.640  10.083   3.693 -0.5175 -1.2977 -0.6105
  427MOL0     H57638   4.675  10.053   3.860 -1.5066  1.1888  0.7536
  427MOL0     H57639   4.451   9.950   3.776 -0.4300  0.0379  3.1057
  427MOL0     H57640   4.541   9.825   3.696 -1.7094  0.8200 -1.4932
  427MOL0     H57641   4.606   9.696   4.086 -0.1481 -1.6912 -0.9428
  427MOL0     H57642   4.711  10.246   3.380  0.2677 -3.1949 -0.8106
  427MOL0     H57643   4.807  10.426   3.204  1.6671 -0.1929 -0.3152
  427MOL0     H57644   4.752  10.519   3.349 -0.2151  1.3192 -1.2159
  427MOL0     H57645   4.912  10.536   3.278  1.3991 -1.5741 -0.9409
  428MOL0     O57646   6.663   5.269   0.539  0.2005 -0.1800  0.4769
  428MOL0     C57647   6.593   5.318   0.445  0.5159  0.3630 -0.6205
  428MOL0     O57648   6.589   5.454   0.397  0.1011 -0.0896 -0.0792
  428MOL0     C57649   6.693   5.528   0.455  0.9852  0.3990 -0.1597
  428MOL0     C57650   6.674   5.574   0.589  0.6267  0.0049  0.1330
  428MOL0     C57651   6.774   5.642   0.654  0.3316 -0.3475  0.5926
  428MOL0     C57652   6.894   5.679   0.591  0.4537 -0.5065 -0.4582
  428MOL0     O57653   6.989   5.757   0.670 -0.3667 -0.4063 -0.3213
  428MOL0     C57654   7.125   5.756   0.638 -0.2705 -0.1253  0.2761
  428MOL0     C57655   7.183   5.619   0.660  1.3058  0.5583  0.0930
  428MOL0     C57656   7.308   5.603   0.566  0.0137 -0.0385  0.7826
  428MOL0     C57657   7.385   5.481   0.614  0.7149  0.4744 -0.1497
  428MOL0     C57658   7.508   5.455   0.529 -0.2829 -0.6415 -0.2700
  428MOL0     C57659   7.581   5.338   0.574 -0.4776  0.1865  0.5185
  428MOL0     C57660   7.699   5.357   0.676  0.6063 -0.0463  0.7993
  428MOL0     C57661   7.735   5.217   0.732  0.0592  0.0608  0.1673
  428MOL0     N57662   7.847   5.228   0.824 -0.0836 -0.0251  0.4135
  428MOL0     C57663   7.934   5.127   0.846  0.5117  0.5906  0.0233
  428MOL0     C57664   8.015   5.172   0.947 -0.5017  0.7392  0.2991
  428MOL0     C57665   8.137   5.094   1.001  0.5386  0.4413  0.0416
  428MOL0     C57666   8.106   5.028   1.133 -0.3035 -0.0913  0.0915
  428MOL0     C57667   8.097   5.109   1.264  0.0392  0.3710  0.3103
  428MOL0     C57668   8.234   5.157   1.306 -0.7870 -0.0983  0.0561
  428MOL0     O57669   8.317   5.049   1.339 -0.6960  0.1234 -0.4702
  428MOL0     C57670   8.428   5.075   1.414  0.7906  0.4042 -0.4056
  428MOL0     C57671   8.516   4.963   1.421 -0.1400 -0.3974  0.4541
  428MOL0     C57672   8.636   4.964   1.478 -1.2192 -0.0316  0.0023
  428MOL0     C57673   8.683   5.083   1.531  0.1880 -0.2676  0.6696
  428MOL0     C57674   8.819   5.074   1.597 -1.1536  0.8548  0.7144
  428MOL0     O57675   8.890   4.956   1.584 -0.4267 -0.0048  0.1580
  428MOL0     C57676   9.014   4.962   1.623  0.0529  0.2241  0.5945
  428MOL0     C57677   9.112   5.043   1.567  0.3674  0.0712 -0.2578
  428MOL0     C57678   9.233   5.069   1.634 -0.1249  0.0082 -0.2813
  428MOL0     C57679   9.263   5.005   1.753 -0.5534  0.7039  0.4886
  428MOL0     O57680   9.386   5.007   1.811 -0.0995  0.3807  0.0257
  428MOL0     C57681   9.458   5.120   1.772 -0.6206 -1.1551 -0.4078
  428MOL0     C57682   9.569   5.133   1.868 -1.0649  0.4809  0.6975
  428MOL0     C57683   9.694   5.039   1.848  0.3973  0.3790 -1.0483
  428MOL0     C57684   9.809   5.093   1.930 -0.0017  0.3730 -0.3792
  428MOL0     C57685   9.925   4.991   1.922 -0.6220 -0.3491  1.0894
  428MOL0     C57686  10.046   5.042   1.999  0.9664  0.4456 -0.1908
  428MOL0     C57687  10.168   4.962   1.976 -0.3285  0.4917 -0.7775
  428MOL0     C57688  10.288   5.004   2.068  0.0065  0.4118 -0.1091
  428MOL0    Cl57689  10.438   4.920   2.033  0.5185  0.0612 -0.5826
  428MOL0     C57690   9.177   4.903   1.806  0.6210 -0.3541  0.4625
  428MOL0     C57691   9.048   4.896   1.740  0.3256  0.0564 -0.5072
  428MOL0     O57692   8.861   5.169   1.656 -0.8132  0.0581  0.6852
  428MOL0     C57693   8.600   5.198   1.533  0.5057  0.0968 -0.2191
  428MOL0     C57694   8.473   5.194   1.473  0.5320 -0.4900 -0.0997
  428MOL0     N57695   7.964   5.284   0.992 -0.7373 -0.1531 -0.2314
  428MOL0     N57696   7.857   5.307   0.929  0.1906  0.3505 -0.3119
  428MOL0     C57697   6.912   5.648   0.454 -0.5698 -0.4493  0.6457
  428MOL0     C57698   6.809   5.564   0.390 -0.5857 -0.1691  0.1115
  428MOL0     C57699   6.513   5.222   0.359  0.9779 -0.0729  1.0486
  428MOL0     C57700   6.526   5.248   0.224 -0.6943  0.4901 -0.4393
  428MOL0     C57701   6.463   5.166   0.129 -0.0644 -0.0964 -0.5032
  428MOL0     C57702   6.412   5.047   0.164 -0.5682  0.2404  0.6168
  428MOL0     O57703   6.377   4.955   0.064  0.3528 -0.0387  0.6417
  428MOL0     C57704   6.290   4.846   0.082  0.2972  0.3895 -0.0858
  428MOL0     C57705   6.385   4.725   0.103  0.0346 -0.5257  0.3119
  428MOL0     C57706   6.458   4.694  -0.030  0.3367 -0.3752  0.3432
  428MOL0     C57707   6.561   4.581  -0.016  0.2798  0.4566  0.6595
  428MOL0     C57708   6.641   4.574  -0.143 -0.3892  0.4878  0.0432
  428MOL0     C57709   6.695   4.554  -0.250 -0.0263 -0.1988  0.4434
  428MOL0     C57710   6.404   5.021   0.295 -0.0530  0.2642 -0.2464
  428MOL0     C57711   6.447   5.108   0.402  0.1793  0.4079  0.1133
  428MOL0     C57712   6.432   5.062   0.540 -0.6359 -0.8322 -1.0210
  428MOL0     H57713   6.585   5.547   0.644 -0.5899  0.0023 -1.7545
  428MOL0     H57714   6.768   5.670   0.759  1.0302 -2.2429  1.1983
  428MOL0     H57715   7.138   5.801   0.540 -2.1407 -0.0392  0.0311
  428MOL0     H57716   7.177   5.813   0.716  2.0550  1.9208 -2.5901
  428MOL0     H57717   7.112   5.540   0.630  2.1271  0.2924 -1.2526
  428MOL0     H57718   7.213   5.618   0.765  0.2935 -0.1383  0.3956
  428MOL0     H57719   7.372   5.688   0.592 -0.2227  0.3471  0.1322
  428MOL0     H57720   7.283   5.601   0.460 -1.6383  0.7284  1.1148
  428MOL0     H57721   7.401   5.487   0.722  0.7260  1.2130 -0.1829
  428MOL0     H57722   7.309   5.405   0.594 -0.4674  0.5835  3.2359
  428MOL0     H57723   7.483   5.454   0.423 -2.1518 -1.4941  0.1457
  428MOL0     H57724   7.571   5.544   0.542 -2.6916  1.1444 -0.2583
  428MOL0     H57725   7.517   5.257   0.610  2.3245 -2.0248  0.8797
  428MOL0     H57726   7.618   5.289   0.484 -1.6530 -1.4975  0.9042
  428MOL0     H57727   7.658   5.418   0.757 -0.0631  4.0397 -2.3086
  428MOL0     H57728   7.784   5.415   0.639  0.3079 -0.3106 -0.3219
  428MOL0     H57729   7.644   5.174   0.773 -0.5533  1.3430  0.2050
  428MOL0     H57730   7.764   5.149   0.651  1.6792 -0.3960  1.0775
  428MOL0     H57731   7.943   5.030   0.799 -1.0505  0.3967  0.0675
  428MOL0     H57732   8.172   5.024   0.925  2.1629  2.8081 -1.5079
  428MOL0     H57733   8.213   5.169   1.023  1.6842 -0.6259 -0.1867
  428MOL0     H57734   8.010   4.980   1.109  0.8316 -2.0664 -0.7288
  428MOL0     H57735   8.185   4.954   1.147 -1.5447 -0.8887  5.0278
  428MOL0     H57736   8.070   5.041   1.344  3.3931 -0.1864  1.1459
  428MOL0     H57737   8.029   5.194   1.253  0.1789  0.3768 -0.6348
  428MOL0     H57738   8.220   5.216   1.397 -0.9506 -1.2269  0.7753
  428MOL0     H57739   8.282   5.214   1.225  0.9574 -1.8445 -0.2352
  428MOL0     H57740   8.488   4.875   1.363  1.2715 -1.3301  1.1288
  428MOL0     H57741   8.698   4.876   1.475  0.0299  0.8571 -1.3621
  428MOL0     H57742   9.076   5.092   1.478 -0.4021 -2.3388 -1.3388
  428MOL0     H57743   9.298   5.141   1.586 -0.1676  0.3966  0.2406
  428MOL0     H57744   9.488   5.124   1.667  0.1226  1.2351 -0.1636
  428MOL0     H57745   9.397   5.208   1.791  0.7110 -0.1933 -0.4982
  428MOL0     H57746   9.600   5.238   1.868 -0.5523  0.3464 -0.7553
  428MOL0     H57747   9.529   5.124   1.970  1.4917 -1.3761  1.6496
  428MOL0     H57748   9.678   4.941   1.894 -1.1295  1.5654  1.1272
  428MOL0     H57749   9.721   5.034   1.742  1.3184  1.6738 -0.8909
  428MOL0     H57750   9.785   5.106   2.036  1.2521  0.9630 -0.1479
  428MOL0     H57751   9.833   5.193   1.892 -2.0977  0.2122 -2.3387
  428MOL0     H57752   9.946   4.984   1.815 -2.2726 -1.0546  0.7758
  428MOL0     H57753   9.890   4.894   1.960  0.1556 -1.4750 -0.8957
  428MOL0     H57754  10.052   5.150   1.984 -2.6896  1.1538  2.0821
  428MOL0     H57755  10.023   5.040   2.106 -0.9252  4.2064 -0.3559
  428MOL0     H57756  10.196   4.968   1.871 -4.4036  0.8003 -2.0043
  428MOL0     H57757  10.156   4.854   1.991  0.1838  0.3345 -1.4503
  428MOL0     H57758  10.306   5.112   2.065  1.0851  0.2711  0.9753
  428MOL0     H57759  10.249   4.984   2.168 -1.5992 -0.9808 -0.9563
  428MOL0     H57760   9.195   4.838   1.891 -0.7956  0.4363  1.4096
  428MOL0     H57761   8.973   4.824   1.774 -0.1370  1.2727  1.1688
  428MOL0     H57762   8.625   5.290   1.585 -1.6833 -0.3066  1.6665
  428MOL0     H57763   8.409   5.282   1.474  0.0496 -0.8300 -0.4745
  428MOL0     H57764   6.997   5.688   0.400  0.1552  0.4813  2.3764
  428MOL0     H57765   6.820   5.547   0.283 -0.7089  0.8164 -0.0693
  428MOL0     H57766   6.557   5.345   0.188 -3.6293  1.7426  0.1734
  428MOL0     H57767   6.469   5.176   0.021  3.1447 -3.4615 -0.8500
  428MOL0     H57768   6.215   4.817   0.008 -0.8028  0.8934  0.8028
  428MOL0     H57769   6.236   4.864   0.175 -1.3093 -0.0359 -0.9038
  428MOL0     H57770   6.332   4.638   0.141  0.8518 -0.2990  2.0440
  428MOL0     H57771   6.465   4.751   0.173 -0.6840 -0.3668  1.0856
  428MOL0     H57772   6.515   4.779  -0.069 -0.6366  0.1740  0.0684
  428MOL0     H57773   6.387   4.679  -0.113 -1.3380  0.0020  1.6517
  428MOL0     H57774   6.634   4.595   0.065 -0.9479  2.1902  1.5191
  428MOL0     H57775   6.513   4.484   0.000  1.6033 -0.1883  0.8473
  428MOL0     H57776   6.734   4.550  -0.349  0.5224 -5.0434  0.6149
  428MOL0     H57777   6.362   4.933   0.343  3.1744 -1.3124 -0.0642
  428MOL0     H57778   6.356   4.983   0.545  0.4318 -2.1396 -3.4973
  428MOL0     H57779   6.526   5.012   0.565 -0.2836 -0.1893 -1.0576
  428MOL0     H57780   6.406   5.143   0.608 -1.6799 -1.0622 -1.1356
  429MOL0     O57781   2.792   5.782   8.359  0.4092  0.0290 -0.1239
  429MOL0     C57782   2.813   5.855   8.456  0.1791  0.3637  0.4776
  429MOL0     O57783   2.922   5.941   8.452  0.2735  1.6010 -0.4027
  429MOL0     C57784   3.032   5.923   8.373  0.2130 -0.7595  0.4265
  429MOL0     C57785   3.099   5.802   8.349 -0.3453  0.5279 -0.5001
  429MOL0     C57786   3.218   5.788   8.271  0.1526  0.0406  0.3965
  429MOL0     C57787   3.263   5.899   8.200 -0.1899  0.6264  0.2079
  429MOL0     O57788   3.371   5.890   8.116 -0.1653 -1.1752 -0.1713
  429MOL0     C57789   3.348   5.886   7.975 -0.2388  0.6565 -0.1067
  429MOL0     C57790   3.327   5.734   7.947 -0.8742 -0.1818 -0.4681
  429MOL0     C57791   3.462   5.656   7.951 -1.2955  0.3444 -0.1548
  429MOL0     C57792   3.576   5.719   7.865  0.1297  0.5510 -0.2079
  429MOL0     C57793   3.700   5.617   7.837 -0.6577 -0.0037 -0.8389
  429MOL0     C57794   3.745   5.569   7.971  0.7637  0.6731  0.4293
  429MOL0     C57795   3.856   5.474   7.973 -0.5656  0.3069 -0.0177
  429MOL0     C57796   4.001   5.532   7.957  1.1158 -0.1115  0.8821
  429MOL0     N57797   4.102   5.430   7.911 -0.8951  0.1769  0.6078
  429MOL0     C57798   4.170   5.342   7.995 -0.1017  1.3504  0.6959
  429MOL0     C57799   4.262   5.284   7.911  0.2565 -0.3822 -0.5725
  429MOL0     C57800   4.364   5.184   7.958  0.6911  0.1399 -0.4226
  429MOL0     C57801   4.490   5.194   7.880  0.3362  0.0034 -0.0837
  429MOL0     C57802   4.595   5.099   7.931 -0.0373 -0.6062 -0.6105
  429MOL0     C57803   4.733   5.107   7.860 -0.3756 -0.2302 -0.1892
  429MOL0     O57804   4.812   5.222   7.899 -0.6024 -0.3877  0.2953
  429MOL0     C57805   4.924   5.243   7.820  0.5603 -0.3556  1.1391
  429MOL0     C57806   4.973   5.375   7.796  0.6237 -0.0664  0.1926
  429MOL0     C57807   5.091   5.397   7.718  0.2250  0.5137  0.1782
  429MOL0     C57808   5.164   5.287   7.655  0.7632 -0.1269  0.2720
  429MOL0     C57809   5.276   5.312   7.575  0.0115 -0.5643 -0.2693
  429MOL0     O57810   5.319   5.208   7.497  0.0607 -0.1289  0.0725
  429MOL0     C57811   5.428   5.216   7.426  0.8445 -0.6967  0.0635
  429MOL0     C57812   5.425   5.268   7.296  0.4153 -0.9657 -0.6445
  429MOL0     C57813   5.543   5.265   7.216  0.5291  0.1243 -0.3755
  429MOL0     C57814   5.656   5.188   7.261  0.1224  0.2800 -0.7203
  429MOL0     O57815   5.767   5.177   7.187 -0.3374 -0.4134  0.0648
  429MOL0     C57816   5.777   5.243   7.059 -0.4867  0.3308 -0.9875
  429MOL0     C57817   5.897   5.177   6.990 -0.3417  0.3845 -1.3050
  429MOL0     C57818   5.963   5.260   6.882 -0.1449  0.7274  0.0270
  429MOL0     C57819   6.014   5.392   6.926  0.2564  0.3596 -0.3690
  429MOL0     C57820   6.125   5.445   6.828 -0.0187 -0.6470 -0.4960
  429MOL0     C57821   6.160   5.596   6.856  0.0349  0.5394  0.3538
  429MOL0     C57822   6.274   5.637   6.773 -0.2038 -0.6501  0.6059
  429MOL0     C57823   6.313   5.777   6.810  0.3340 -0.4894  0.1736
  429MOL0    Cl57824   6.473   5.822   6.745  0.1223  0.0034  0.0584
  429MOL0     C57825   5.652   5.135   7.399 -0.2072 -0.1372  0.1507
  429MOL0     C57826   5.539   5.148   7.485 -0.4644 -0.1805  1.0707
  429MOL0     O57827   5.333   5.424   7.587  0.4512 -0.3323 -0.7860
  429MOL0     C57828   5.122   5.156   7.687  0.6375 -0.8173 -0.0884
  429MOL0     C57829   4.999   5.140   7.752 -0.1904 -0.1290 -1.0371
  429MOL0     N57830   4.243   5.340   7.779 -0.1276  0.9549 -0.6247
  429MOL0     N57831   4.144   5.423   7.778  0.1275 -0.0576 -0.8337
  429MOL0     C57832   3.201   6.023   8.226  0.0469  0.0277  0.1060
  429MOL0     C57833   3.088   6.031   8.307  1.0266 -0.0213 -0.8380
  429MOL0     C57834   2.716   5.853   8.566 -1.0463 -0.5196 -0.1594
  429MOL0     C57835   2.583   5.827   8.537  0.5252 -0.5765  0.0918
  429MOL0     C57836   2.474   5.841   8.626  0.0459 -0.6436  0.3776
  429MOL0     C57837   2.509   5.857   8.759  0.4658 -0.1275 -0.1674
  429MOL0     O57838   2.415   5.866   8.865  0.4617 -0.0706 -0.2039
  429MOL0     C57839   2.278   5.885   8.847  0.5105  1.5064  0.4017
  429MOL0     C57840   2.211   5.756   8.842  0.3386 -0.6498 -0.3707
  429MOL0     C57841   2.224   5.681   8.963 -0.0677  0.9491  0.5861
  429MOL0     C57842   2.105   5.576   8.971 -0.3738 -0.3246  0.1795
  429MOL0     C57843   1.988   5.617   9.053  0.2093 -0.5293  0.7480
  429MOL0     C57844   1.898   5.619   9.135  0.1890 -0.5941  0.1342
  429MOL0     C57845   2.646   5.873   8.796 -0.5123 -0.5714 -0.1352
  429MOL0     C57846   2.744   5.880   8.700 -1.2173 -0.2333 -0.4221
  429MOL0     C57847   2.877   5.928   8.744 -0.2915 -0.6963  1.0268
  429MOL0     H57848   3.065   5.709   8.394 -0.4931  0.0783 -1.5084
  429MOL0     H57849   3.266   5.691   8.261 -0.2925  0.0316 -2.7517
  429MOL0     H57850   3.259   5.944   7.949 -0.9759 -0.9332 -1.2622
  429MOL0     H57851   3.428   5.929   7.915  0.3606  3.5303  2.4969
  429MOL0     H57852   3.267   5.707   7.859 -1.8439 -2.2832  0.7425
  429MOL0     H57853   3.262   5.689   8.023 -0.5123  1.2171  0.7208
  429MOL0     H57854   3.452   5.551   7.926  4.1406 -0.6494  0.6123
  429MOL0     H57855   3.501   5.656   8.053 -1.5931  1.9074 -0.0166
  429MOL0     H57856   3.544   5.764   7.770  2.5068 -1.0486 -1.8825
  429MOL0     H57857   3.611   5.795   7.935 -0.4967 -0.7432  1.5551
  429MOL0     H57858   3.659   5.537   7.775 -3.2180 -0.4287  1.2338
  429MOL0     H57859   3.783   5.668   7.789 -1.9120  1.8456 -1.1297
  429MOL0     H57860   3.766   5.650   8.041  0.6878  2.9470 -2.0608
  429MOL0     H57861   3.663   5.510   8.013 -0.2946  1.4507 -0.4830
  429MOL0     H57862   3.853   5.394   7.898  1.9723 -0.4623  0.6209
  429MOL0     H57863   3.858   5.418   8.066  2.3665 -0.7660 -0.6017
  429MOL0     H57864   3.995   5.602   7.873  0.7549  0.5809  1.4762
  429MOL0     H57865   4.032   5.595   8.041  0.2142  4.2861 -1.7431
  429MOL0     H57866   4.152   5.333   8.101 -4.0636  1.3712  0.1713
  429MOL0     H57867   4.385   5.202   8.064  3.4640 -1.6563 -0.5575
  429MOL0     H57868   4.324   5.082   7.948  3.1135 -0.8061 -1.3213
  429MOL0     H57869   4.470   5.160   7.778 -0.9569  1.6064 -0.4133
  429MOL0     H57870   4.518   5.299   7.895 -0.8068  0.2716  0.2112
  429MOL0     H57871   4.558   4.996   7.922 -0.3012 -0.4345 -1.5532
  429MOL0     H57872   4.617   5.122   8.036  0.0574 -0.3621 -0.6826
  429MOL0     H57873   4.710   5.113   7.754  2.1720  0.1318 -0.7763
  429MOL0     H57874   4.790   5.016   7.879 -2.0997 -1.1707  0.8251
  429MOL0     H57875   4.924   5.459   7.843  0.4849  0.2153 -0.4462
  429MOL0     H57876   5.116   5.499   7.693  0.3537  1.3707  3.4197
  429MOL0     H57877   5.340   5.304   7.240  1.6888 -2.3628 -3.6969
  429MOL0     H57878   5.531   5.309   7.118 -3.1662 -0.5021 -0.3535
  429MOL0     H57879   5.693   5.212   6.997 -1.3764  0.3556  0.1743
  429MOL0     H57880   5.786   5.352   7.064  0.8235  0.2263 -0.6593
  429MOL0     H57881   5.977   5.153   7.061 -2.5910 -0.8095  1.0004
  429MOL0     H57882   5.874   5.077   6.953 -0.4602 -1.2832  2.7386
  429MOL0     H57883   6.041   5.203   6.831 -2.0275 -0.5692 -1.5200
  429MOL0     H57884   5.902   5.266   6.792 -0.9421 -1.8660  0.3094
  429MOL0     H57885   6.052   5.379   7.027  0.6196  2.9991 -0.1171
  429MOL0     H57886   5.930   5.461   6.939  0.3674  0.2593  0.9921
  429MOL0     H57887   6.092   5.445   6.724  0.0697  1.6595 -0.5822
  429MOL0     H57888   6.218   5.389   6.834  0.2621 -0.0323  1.5387
  429MOL0     H57889   6.066   5.652   6.844 -3.2005 -4.2091  0.7116
  429MOL0     H57890   6.199   5.606   6.957  1.2388  2.2619 -0.2307
  429MOL0     H57891   6.249   5.626   6.667  0.0627 -1.0031  0.5779
  429MOL0     H57892   6.363   5.576   6.789  0.6056 -0.1535 -1.5951
  429MOL0     H57893   6.235   5.845   6.776  1.4151  0.7005  0.0039
  429MOL0     H57894   6.302   5.800   6.916 -3.2310  2.1843 -0.6101
  429MOL0     H57895   5.746   5.086   7.423  1.8370  2.9289 -1.0196
  429MOL0     H57896   5.538   5.110   7.587 -0.6456  1.6426  1.7722
  429MOL0     H57897   5.166   5.060   7.660 -1.7316 -1.7779 -0.7434
  429MOL0     H57898   4.961   5.039   7.762  1.2637 -0.4672  2.1893
  429MOL0     H57899   3.223   6.108   8.162 -2.0035 -0.3993 -1.2669
  429MOL0     H57900   3.036   6.126   8.314 -0.5977 -1.0015  1.6463
  429MOL0     H57901   2.562   5.795   8.435  1.3062 -2.2630  0.4224
  429MOL0     H57902   2.371   5.834   8.594 -0.3146  0.8074  1.1344
  429MOL0     H57903   2.256   5.942   8.756 -3.7663 -0.8799 -0.3464
  429MOL0     H57904   2.234   5.950   8.923  0.8312  2.2316 -0.0247
  429MOL0     H57905   2.255   5.696   8.761  0.8816  0.2308 -0.7359
  429MOL0     H57906   2.110   5.776   8.807  0.2266 -2.8949 -1.5585
  429MOL0     H57907   2.236   5.747   9.049 -2.3500  1.2235  0.7669
  429MOL0     H57908   2.317   5.626   8.950 -0.2192  1.2982 -2.7944
  429MOL0     H57909   2.064   5.557   8.871  1.1335  0.2235 -0.5748
  429MOL0     H57910   2.145   5.479   9.003  0.9187  0.0502 -0.2275
  429MOL0     H57911   1.822   5.619   9.210 -0.0374  0.6010 -0.0728
  429MOL0     H57912   2.676   5.878   8.901  0.7257 -0.3475 -0.4871
  429MOL0     H57913   2.958   5.856   8.727 -1.2837 -1.7155  0.4683
  429MOL0     H57914   2.901   6.026   8.702 -1.8915 -0.4740  0.5653
  429MOL0     H57915   2.879   5.947   8.852 -0.4629  2.6057  0.5409
  430MOL0     O57916   3.363   2.631   4.790  0.6338 -0.7233  0.1916
  430MOL0     C57917   3.293   2.540   4.836  0.0115  0.5341 -0.1607
  430MOL0     O57918   3.339   2.428   4.900 -0.3711  0.1590  0.0245
  430MOL0     C57919   3.467   2.384   4.879  0.1428  0.4051 -0.4495
  430MOL0     C57920   3.568   2.409   4.971  0.1506 -0.3333 -0.3061
  430MOL0     C57921   3.702   2.375   4.939  1.1121  0.7598  0.2529
  430MOL0     C57922   3.734   2.301   4.828  0.7934 -0.0962  0.6399
  430MOL0     O57923   3.865   2.271   4.816  0.4182  0.3783  0.1036
  430MOL0     C57924   3.927   2.329   4.691  0.2303 -0.1306 -0.7337
  430MOL0     C57925   4.080   2.376   4.710 -0.3656 -0.4653  0.4473
  430MOL0     C57926   4.143   2.369   4.572  0.3092  0.2261 -0.5555
  430MOL0     C57927   4.277   2.449   4.572  0.1855 -0.9930 -0.9311
  430MOL0     C57928   4.406   2.381   4.614  0.8893  1.5061 -0.4433
  430MOL0     C57929   4.514   2.472   4.636  0.1401  0.4166  0.2328
  430MOL0     C57930   4.645   2.405   4.689  0.3649 -0.0045  0.0268
  430MOL0     C57931   4.731   2.517   4.742  0.2107 -0.5938 -0.5745
  430MOL0     N57932   4.878   2.478   4.751  0.9660 -0.1500  0.5787
  430MOL0     C57933   4.965   2.506   4.643 -0.2779  0.0541 -0.1846
  430MOL0     C57934   5.081   2.448   4.687 -0.6824 -0.0885  0.7625
  430MOL0     C57935   5.207   2.443   4.601  0.2332 -0.1929  0.4193
  430MOL0     C57936   5.201   2.322   4.506 -0.8789  0.4855 -0.2183
  430MOL0     C57937   5.196   2.188   4.581 -0.1484 -0.0422  0.3247
  430MOL0     C57938   5.308   2.166   4.690 -0.1821  0.3623  0.3129
  430MOL0     O57939   5.447   2.176   4.629 -0.9636 -0.0289 -0.8416
  430MOL0     C57940   5.552   2.250   4.693  0.0928  0.3589 -0.5573
  430MOL0     C57941   5.566   2.269   4.830 -0.3798  0.3807  0.0685
  430MOL0     C57942   5.691   2.323   4.878  0.8063 -0.2910 -0.7388
  430MOL0     C57943   5.795   2.369   4.795  1.3795  0.6598 -0.0114
  430MOL0     C57944   5.918   2.432   4.842 -0.0446  0.4285 -0.3878
  430MOL0     O57945   5.985   2.499   4.745 -0.9792  0.3314  0.6544
  430MOL0     C57946   6.107   2.561   4.776 -0.6723  0.1647 -0.2807
  430MOL0     C57947   6.220   2.484   4.813  0.1165 -0.4789 -0.1796
  430MOL0     C57948   6.348   2.539   4.829 -0.8380 -0.4328  0.3843
  430MOL0     C57949   6.352   2.681   4.843  0.1862  0.5433  0.5981
  430MOL0     O57950   6.465   2.742   4.871 -0.1805 -0.9452  0.6332
  430MOL0     C57951   6.482   2.831   4.986 -0.3312 -0.4822  0.5089
  430MOL0     C57952   6.621   2.895   4.972 -0.0356  0.1970 -0.5104
  430MOL0     C57953   6.729   2.790   4.974 -0.0413 -0.6311  0.0161
  430MOL0     C57954   6.771   2.742   4.827  0.5383  0.6635 -0.5264
  430MOL0     C57955   6.928   2.722   4.827 -0.3639  0.1634 -1.1831
  430MOL0     C57956   6.985   2.615   4.911  0.0332  0.4020 -0.1251
  430MOL0     C57957   7.137   2.614   4.906  0.1164 -0.0064  1.1611
  430MOL0     C57958   7.184   2.504   5.000 -0.1272  0.1305 -0.1286
  430MOL0    Cl57959   7.204   2.558   5.170 -0.1360 -0.3008  0.1299
  430MOL0     C57960   6.237   2.762   4.815 -1.6291  0.0247  0.1651
  430MOL0     C57961   6.119   2.708   4.775 -0.2564  0.0968  0.0165
  430MOL0     O57962   5.954   2.420   4.958 -0.1862  0.7798 -0.6385
  430MOL0     C57963   5.774   2.343   4.650  0.6464 -0.8188 -0.0465
  430MOL0     C57964   5.653   2.287   4.604  0.4723 -0.8951 -0.4239
  430MOL0     N57965   5.071   2.394   4.815  0.9654  0.3359  0.0874
  430MOL0     N57966   4.942   2.412   4.849  0.0128 -0.2913 -0.5669
  430MOL0     C57967   3.633   2.269   4.736  0.1510  0.0509  0.0197
  430MOL0     C57968   3.501   2.313   4.761 -0.0045  0.2555 -0.5946
  430MOL0     C57969   3.146   2.558   4.832 -0.1849 -0.6181  0.0102
  430MOL0     C57970   3.093   2.688   4.827 -0.0467  0.1404 -0.1135
  430MOL0     C57971   2.959   2.710   4.832 -0.9035  0.7490  0.0290
  430MOL0     C57972   2.875   2.601   4.864 -0.8823 -0.6948 -0.1516
  430MOL0     O57973   2.743   2.614   4.869 -0.0467 -0.5824 -0.1565
  430MOL0     C57974   2.680   2.736   4.841 -0.1284 -0.5247 -0.1677
  430MOL0     C57975   2.528   2.705   4.836 -0.7723  0.0918  0.6332
  430MOL0     C57976   2.456   2.829   4.775  0.6777  0.2448  0.1461
  430MOL0     C57977   2.308   2.815   4.771  0.5517 -0.0125  0.6250
  430MOL0     C57978   2.251   2.897   4.658  0.7032  0.3207  0.2847
  430MOL0     C57979   2.199   2.959   4.568  0.0661 -0.5969 -0.5428
  430MOL0     C57980   2.926   2.473   4.864 -0.0704 -0.2257  0.9504
  430MOL0     C57981   3.062   2.449   4.853 -0.4470  0.3306 -0.1063
  430MOL0     C57982   3.103   2.307   4.828 -0.0444  1.0734  0.1005
  430MOL0     H57983   3.555   2.456   5.067  3.9831  0.8765 -0.2037
  430MOL0     H57984   3.783   2.398   5.008 -0.0088  1.2037  1.4629
  430MOL0     H57985   3.921   2.255   4.610 -0.8260 -0.8843  0.0016
  430MOL0     H57986   3.874   2.418   4.656  0.1726  0.7262  1.3751
  430MOL0     H57987   4.143   2.305   4.763  2.8618  1.3839 -0.5790
  430MOL0     H57988   4.084   2.470   4.766 -2.3480 -0.8761  1.3647
  430MOL0     H57989   4.066   2.408   4.505  2.1828  0.0430 -2.9731
  430MOL0     H57990   4.165   2.265   4.546 -0.2776 -0.7995  2.6788
  430MOL0     H57991   4.285   2.481   4.467 -4.7992  2.5841 -0.5665
  430MOL0     H57992   4.261   2.535   4.638  1.3332  0.7057 -2.7276
  430MOL0     H57993   4.387   2.342   4.715  0.6422 -0.2130 -1.1126
  430MOL0     H57994   4.444   2.296   4.556  0.4366  0.4793  0.7099
  430MOL0     H57995   4.537   2.520   4.540  0.3034  1.1628  0.6403
  430MOL0     H57996   4.479   2.550   4.705  0.6837  0.1888  0.7716
  430MOL0     H57997   4.698   2.357   4.606 -0.0020 -2.3701  1.0630
  430MOL0     H57998   4.628   2.327   4.764 -1.6965 -0.5589 -0.9306
  430MOL0     H57999   4.720   2.600   4.672  0.1910  1.9805  2.3017
  430MOL0     H58000   4.688   2.543   4.840  0.2854  1.3945 -1.0450
  430MOL0     H58001   4.933   2.565   4.557 -0.8797 -1.6741 -1.1992
  430MOL0     H58002   5.214   2.533   4.539  3.9006 -2.1024 -2.3390
  430MOL0     H58003   5.296   2.437   4.664 -0.3025  2.0110  1.4663
  430MOL0     H58004   5.105   2.324   4.452  0.4642  1.4196 -2.7167
  430MOL0     H58005   5.285   2.323   4.437 -1.3489  0.7050 -0.7901
  430MOL0     H58006   5.209   2.106   4.510 -2.8152 -2.8874  2.7861
  430MOL0     H58007   5.098   2.173   4.627  0.1219 -0.7089  0.7038
  430MOL0     H58008   5.285   2.070   4.739 -4.2653  0.6028 -0.7324
  430MOL0     H58009   5.292   2.245   4.764 -0.7786  2.3848 -1.8619
  430MOL0     H58010   5.495   2.226   4.900 -1.5190 -1.8458 -2.3035
  430MOL0     H58011   5.708   2.348   4.982  0.8183  0.7216 -0.9688
  430MOL0     H58012   6.213   2.375   4.816 -1.4789 -0.4062  2.4041
  430MOL0     H58013   6.440   2.484   4.844  1.3995  2.9347  0.1136
  430MOL0     H58014   6.402   2.906   4.986 -1.2347 -1.3515 -1.7474
  430MOL0     H58015   6.469   2.779   5.081 -0.0057 -0.8716  0.3427
  430MOL0     H58016   6.622   2.960   4.885 -0.6964  0.5743 -0.2425
  430MOL0     H58017   6.649   2.955   5.060  1.3963 -4.1628  2.3886
  430MOL0     H58018   6.817   2.839   5.018 -0.7566  0.2379  0.5125
  430MOL0     H58019   6.704   2.712   5.046  3.3826 -1.7287  0.2034
  430MOL0     H58020   6.754   2.817   4.749  2.6633  1.6266 -0.1322
  430MOL0     H58021   6.728   2.647   4.794  0.1052  0.7839 -0.3128
  430MOL0     H58022   6.964   2.813   4.876 -0.2157 -1.6374  2.3753
  430MOL0     H58023   6.960   2.714   4.723 -2.1206 -1.7722 -1.6443
  430MOL0     H58024   6.966   2.640   5.016 -3.3738 -0.3679 -0.4370
  430MOL0     H58025   6.941   2.516   4.894  0.6876 -0.0578  0.7586
  430MOL0     H58026   7.181   2.710   4.932  1.9933 -0.8252  1.1712
  430MOL0     H58027   7.169   2.598   4.802  2.6511  1.1241  1.7070
  430MOL0     H58028   7.114   2.421   4.994 -0.1233  0.2125 -1.4490
  430MOL0     H58029   7.290   2.479   4.986  0.8824  3.0996  1.1415
  430MOL0     H58030   6.256   2.866   4.838 -1.0035  0.1841 -0.9909
  430MOL0     H58031   6.042   2.782   4.755 -0.9669 -0.1042  1.8583
  430MOL0     H58032   5.841   2.379   4.572 -1.3200  2.1369 -0.5587
  430MOL0     H58033   5.640   2.267   4.498  1.9002 -1.2549 -0.5559
  430MOL0     H58034   3.662   2.222   4.642  3.1209 -2.0503  1.7964
  430MOL0     H58035   3.420   2.291   4.691  0.4064 -2.6587 -0.2824
  430MOL0     H58036   3.161   2.772   4.817  1.8858 -1.4488 -1.2399
  430MOL0     H58037   2.925   2.813   4.838  0.9293  1.4163 -0.1176
  430MOL0     H58038   2.705   2.766   4.739 -1.2058  2.0919  0.2339
  430MOL0     H58039   2.704   2.814   4.913 -1.3325  0.0741 -0.3877
  430MOL0     H58040   2.499   2.689   4.940  1.3644 -0.6764  1.1595
  430MOL0     H58041   2.524   2.615   4.773  2.2307 -0.6743  1.3567
  430MOL0     H58042   2.501   2.851   4.678  2.6030 -2.1382  0.3882
  430MOL0     H58043   2.476   2.916   4.838 -2.8708  0.9715  0.4516
  430MOL0     H58044   2.284   2.710   4.753  4.1584 -0.9945  0.7524
  430MOL0     H58045   2.267   2.844   4.868  0.1853 -0.0628  0.4854
  430MOL0     H58046   2.142   2.998   4.486 -2.1566  0.4605  1.3584
  430MOL0     H58047   2.862   2.386   4.869 -0.0038 -0.3001  0.5131
  430MOL0     H58048   3.138   2.265   4.923  1.0008  4.0371  1.1362
  430MOL0     H58049   3.024   2.238   4.796  0.7652 -0.7204  1.7460
  430MOL0     H58050   3.184   2.308   4.754  1.0124  0.0456  1.1859
  431MOL0     O58051  10.698   0.147   8.890  1.2004  0.4752 -0.1920
  431MOL0     C58052  10.707   0.261   8.848  0.2509 -0.8160 -0.8287
  431MOL0     O58053  10.610   0.353   8.844 -0.0257 -0.6181  0.0673
  431MOL0     C58054  10.477   0.336   8.878  0.3162  0.6824  0.0343
  431MOL0     C58055  10.388   0.442   8.906  0.0880 -0.2644  0.0824
  431MOL0     C58056  10.252   0.417   8.934 -0.2066 -0.3682 -0.1588
  431MOL0     C58057  10.208   0.288   8.950  0.4998  0.3348  0.7372
  431MOL0     O58058  10.080   0.257   8.993 -0.1094 -0.5613  0.3133
  431MOL0     C58059   9.997   0.361   9.053  0.5002  0.2161  0.3047
  431MOL0     C58060   9.872   0.288   9.115 -0.5152 -0.6758  0.2171
  431MOL0     C58061   9.774   0.237   9.010 -0.0144 -0.1371 -0.1680
  431MOL0     C58062   9.665   0.148   9.078 -0.7642  0.3730  0.2934
  431MOL0     C58063   9.544   0.132   8.979  0.2097 -0.2650 -0.0732
  431MOL0     C58064   9.440   0.040   9.045  0.3459 -0.0704 -0.2025
  431MOL0     C58065   9.301   0.060   8.987  0.4163 -0.0871 -0.2350
  431MOL0     C58066   9.203  -0.059   9.038 -0.7346  0.3347 -0.2739
  431MOL0     N58067   9.143  -0.023   9.159  0.7505 -0.4836 -1.3150
  431MOL0     C58068   9.191  -0.046   9.286  0.1952 -0.0768  0.6760
  431MOL0     C58069   9.082  -0.042   9.364  0.4198  0.2202  0.1419
  431MOL0     C58070   9.092  -0.061   9.510  0.1826 -0.1421 -0.9816
  431MOL0     C58071   9.119   0.075   9.568  0.0403 -0.2320  0.4780
  431MOL0     C58072   9.183   0.081   9.718 -0.3888 -0.2835  0.3120
  431MOL0     C58073   9.334   0.046   9.723  0.9550  0.9514 -0.0897
  431MOL0     O58074   9.400   0.134   9.634 -0.1315 -0.0587 -0.3963
  431MOL0     C58075   9.536   0.111   9.636  0.0800  0.1438 -0.8701
  431MOL0     C58076   9.589   0.054   9.522 -0.1959  1.1614 -0.2040
  431MOL0     C58077   9.728   0.038   9.495  0.6488  0.4985  0.1774
  431MOL0     C58078   9.821   0.104   9.583 -0.0619 -0.4646 -1.4532
  431MOL0     C58079   9.965   0.110   9.555  0.2147 -0.1585 -0.7287
  431MOL0     O58080  10.012   0.091   9.423  0.5420 -0.0271  0.0467
  431MOL0     C58081  10.135   0.155   9.387 -0.9606 -0.0126 -0.3166
  431MOL0     C58082  10.204   0.094   9.283 -0.1537  0.0307 -0.6592
  431MOL0     C58083  10.341   0.131   9.261 -0.7752 -0.0052 -0.2796
  431MOL0     C58084  10.404   0.239   9.331  0.2949 -0.0768 -1.2523
  431MOL0     O58085  10.532   0.284   9.313  0.9969  0.5956 -0.1404
  431MOL0     C58086  10.615   0.231   9.205  0.3418 -0.7963 -0.9240
  431MOL0     C58087  10.759   0.261   9.238  0.8152  0.0974 -1.2509
  431MOL0     C58088  10.808   0.404   9.207 -0.8460  0.0772  0.3244
  431MOL0     C58089  10.953   0.424   9.269 -0.4186  0.6335 -0.4768
  431MOL0     C58090  11.070   0.374   9.175  0.8544 -0.2076 -0.5082
  431MOL0     C58091  11.189   0.319   9.261 -0.1544 -0.3867  0.6055
  431MOL0     C58092  11.306   0.412   9.261 -0.2853 -0.7389 -0.0234
  431MOL0     C58093  11.363   0.441   9.132  0.8082 -0.1282  0.5014
  431MOL0    Cl58094  11.533   0.487   9.164  0.2037  0.5106  0.1951
  431MOL0     C58095  10.327   0.302   9.426  0.2586 -0.2971 -0.6050
  431MOL0     C58096  10.195   0.266   9.456 -0.2127 -0.3829 -0.0867
  431MOL0     O58097  10.035   0.117   9.656 -0.3690 -0.7423 -0.3667
  431MOL0     C58098   9.762   0.158   9.704  0.3111  0.6155 -0.0546
  431MOL0     C58099   9.622   0.156   9.730 -1.0685  0.5568  0.2246
  431MOL0     N58100   8.974  -0.002   9.293  0.3244  0.2209 -0.2469
  431MOL0     N58101   9.011   0.009   9.171  0.3665  0.7345 -0.1819
  431MOL0     C58102  10.290   0.180   8.916 -0.1811 -0.0227 -0.1551
  431MOL0     C58103  10.415   0.208   8.869 -0.6060  0.2175 -0.3480
  431MOL0     C58104  10.841   0.297   8.786 -0.0795 -0.9861  0.6610
  431MOL0     C58105  10.942   0.201   8.745  0.0478 -0.0793 -0.1264
  431MOL0     C58106  11.070   0.226   8.694 -0.4733  0.0759 -0.1807
  431MOL0     C58107  11.106   0.360   8.679  0.6108  0.3604  0.5402
  431MOL0     O58108  11.229   0.375   8.629  0.3882 -0.6679 -0.0964
  431MOL0     C58109  11.232   0.446   8.509  0.5695 -0.2857  0.3852
  431MOL0     C58110  11.344   0.396   8.423 -0.1042  0.9438  0.4278
  431MOL0     C58111  11.326   0.259   8.364 -1.0948  0.6022  0.3726
  431MOL0     C58112  11.472   0.203   8.312  0.9582 -0.2634 -0.6025
  431MOL0     C58113  11.482   0.060   8.315 -0.5305  0.6385 -0.9069
  431MOL0     C58114  11.466  -0.057   8.309 -0.2508  0.8153  0.7948
  431MOL0     C58115  11.018   0.458   8.727  0.3118  0.4780 -0.3529
  431MOL0     C58116  10.891   0.430   8.782  1.2067 -0.2585 -0.4502
  431MOL0     C58117  10.820   0.552   8.843  0.6404 -0.3263  0.7294
  431MOL0     H58118  10.436   0.539   8.901  1.2838 -0.8868 -1.3972
  431MOL0     H58119  10.195   0.506   8.959  1.2651  0.5241  0.1673
  431MOL0     H58120  10.056   0.406   9.135  3.7719 -2.3911 -0.3884
  431MOL0     H58121   9.957   0.438   8.987  0.8793  0.9831  0.9459
  431MOL0     H58122   9.829   0.358   9.186 -0.8655  1.3178 -1.8287
  431MOL0     H58123   9.905   0.209   9.182 -1.0052 -1.0746 -0.0008
  431MOL0     H58124   9.828   0.180   8.934  1.7694  1.7379 -0.3894
  431MOL0     H58125   9.722   0.320   8.961  1.0811  0.2641 -0.6917
  431MOL0     H58126   9.716   0.055   9.105 -3.0424 -0.5321  1.7396
  431MOL0     H58127   9.646   0.195   9.174  1.2954  0.5783  0.6568
  431MOL0     H58128   9.495   0.229   8.962  1.1680  0.2015 -0.2030
  431MOL0     H58129   9.576   0.102   8.879  0.8640  2.5018 -0.7800
  431MOL0     H58130   9.478  -0.062   9.035 -0.7759 -0.3870 -1.3550
  431MOL0     H58131   9.421   0.064   9.150 -6.5224  2.4005 -1.4862
  431MOL0     H58132   9.295   0.067   8.878 -1.3274 -1.9392 -0.3339
  431MOL0     H58133   9.259   0.153   9.026  2.0287 -0.4230  2.5286
  431MOL0     H58134   9.127  -0.073   8.960 -3.1747  0.6907  1.9142
  431MOL0     H58135   9.258  -0.150   9.060  4.2324  2.5986 -1.8158
  431MOL0     H58136   9.286  -0.087   9.319 -1.7562 -3.1645  3.0183
  431MOL0     H58137   8.999  -0.102   9.551  2.3956 -2.4654  2.2062
  431MOL0     H58138   9.170  -0.131   9.539 -2.9182 -4.1034 -1.2199
  431MOL0     H58139   9.186   0.125   9.497 -0.2394 -2.2148 -1.2910
  431MOL0     H58140   9.020   0.123   9.564 -0.2969 -0.7547  2.0650
  431MOL0     H58141   9.134   0.017   9.792 -0.7195  0.8074  1.0683
  431MOL0     H58142   9.182   0.183   9.758  1.8996 -0.3983  0.7969
  431MOL0     H58143   9.343  -0.063   9.716  0.2506  0.7609  1.5499
  431MOL0     H58144   9.366   0.063   9.826  1.3662 -2.1863  0.4116
  431MOL0     H58145   9.510   0.042   9.449 -0.2852 -2.5823  0.3009
  431MOL0     H58146   9.756  -0.020   9.408 -2.7891 -1.9648  0.4929
  431MOL0     H58147  10.160   0.018   9.221 -0.1507  0.4118 -1.1341
  431MOL0     H58148  10.383   0.101   9.166  1.2216 -1.9922  1.1250
  431MOL0     H58149  10.606   0.122   9.201 -2.3390 -0.7437  0.9290
  431MOL0     H58150  10.608   0.281   9.108 -0.2700  0.9497 -0.0240
  431MOL0     H58151  10.773   0.234   9.343 -1.8882  0.6679 -0.6612
  431MOL0     H58152  10.815   0.190   9.176 -0.3978 -0.0883 -2.1669
  431MOL0     H58153  10.789   0.434   9.104 -1.2010 -2.4748 -0.3987
  431MOL0     H58154  10.751   0.473   9.271 -1.3617  1.1387 -1.2115
  431MOL0     H58155  10.964   0.364   9.359  3.0746 -2.2193 -2.5554
  431MOL0     H58156  10.960   0.531   9.290 -0.8376  0.3638  1.1300
  431MOL0     H58157  11.092   0.466   9.120 -0.1094  1.4867  1.7192
  431MOL0     H58158  11.036   0.298   9.105 -1.2842  1.0160 -0.8766
  431MOL0     H58159  11.160   0.298   9.365  0.2171 -3.7746  0.1342
  431MOL0     H58160  11.208   0.222   9.214  0.0676 -0.1684  0.2465
  431MOL0     H58161  11.382   0.368   9.327 -0.9059 -2.8890 -0.6671
  431MOL0     H58162  11.274   0.508   9.303 -2.0639 -0.1850 -2.4276
  431MOL0     H58163  11.351   0.359   9.061  0.9097 -1.1004  1.5719
  431MOL0     H58164  11.326   0.532   9.085  2.5678  0.4693  0.1760
  431MOL0     H58165  10.395   0.371   9.476  3.4215 -1.8106 -2.4833
  431MOL0     H58166  10.149   0.301   9.548  1.6594  2.3443 -0.0626
  431MOL0     H58167   9.828   0.204   9.776 -1.6401 -1.0068  2.9434
  431MOL0     H58168   9.583   0.207   9.817 -0.1523  1.0220  0.3828
  431MOL0     H58169  10.234   0.088   8.908 -0.4872  0.2271 -0.9968
  431MOL0     H58170  10.475   0.130   8.822 -2.0742 -0.0852 -1.7977
  431MOL0     H58171  10.921   0.097   8.769  1.1888 -0.7845 -1.9655
  431MOL0     H58172  11.139   0.146   8.669  3.6690  2.5609  1.9672
  431MOL0     H58173  11.250   0.554   8.520 -1.2760  0.3472 -1.9998
  431MOL0     H58174  11.137   0.435   8.456  0.1116 -1.1963  1.3732
  431MOL0     H58175  11.442   0.401   8.472  0.7280  0.3911 -1.1235
  431MOL0     H58176  11.347   0.460   8.335  1.9856 -1.5166 -1.4518
  431MOL0     H58177  11.253   0.264   8.283  0.3308 -0.9836 -1.0983
  431MOL0     H58178  11.277   0.205   8.446 -1.2068  1.7647  1.0868
  431MOL0     H58179  11.486   0.235   8.208 -1.2222  2.2199 -0.2718
  431MOL0     H58180  11.546   0.248   8.378 -0.3363 -2.0442  2.2280
  431MOL0     H58181  11.446  -0.158   8.281 -0.5352  0.9726  0.4258
  431MOL0     H58182  11.060   0.557   8.714  2.9121 -0.4434  0.5245
  431MOL0     H58183  10.740   0.523   8.913  0.5731 -3.1181 -0.3415
  431MOL0     H58184  10.885   0.624   8.893  1.4823 -1.0434  0.6961
  431MOL0     H58185  10.781   0.610   8.759 -0.0764 -2.8674 -0.8041
  432MOL0     O58186   1.772   3.691   4.334  0.3356 -0.3333  0.0518
  432MOL0     C58187   1.687   3.605   4.341 -0.2146  1.1669  0.9872
  432MOL0     O58188   1.706   3.473   4.363  0.4994 -0.1845 -0.6924
  432MOL0     C58189   1.830   3.426   4.370  0.5875 -0.1267  0.0419
  432MOL0     C58190   1.898   3.395   4.250  0.3112 -0.2838 -0.4092
  432MOL0     C58191   2.020   3.339   4.252 -0.1539  0.0659 -1.2869
  432MOL0     C58192   2.090   3.329   4.374 -0.5462 -0.1585 -0.9315
  432MOL0     O58193   2.215   3.274   4.380 -0.1807  0.2404  0.4612
  432MOL0     C58194   2.322   3.347   4.450 -0.2689  0.2147 -0.1529
  432MOL0     C58195   2.461   3.307   4.400  0.3831 -0.6304  0.7579
  432MOL0     C58196   2.513   3.177   4.467  0.4819  0.8019  0.6161
  432MOL0     C58197   2.664   3.149   4.420  0.1151  1.1200  0.4522
  432MOL0     C58198   2.687   3.011   4.491  0.1773 -0.4007 -0.0847
  432MOL0     C58199   2.822   2.943   4.462 -0.7849 -0.4060 -0.1542
  432MOL0     C58200   2.944   3.022   4.515 -0.6153  0.6495 -0.9137
  432MOL0     C58201   3.080   2.946   4.487  0.5828 -0.1582 -0.2521
  432MOL0     N58202   3.203   3.034   4.522  0.8340 -0.0664 -0.2171
  432MOL0     C58203   3.269   3.031   4.646 -0.1939  0.5730  0.1565
  432MOL0     C58204   3.378   3.113   4.627  0.6214  0.1182 -0.0931
  432MOL0     C58205   3.490   3.140   4.721 -0.8131  0.3009 -0.0502
  432MOL0     C58206   3.591   3.237   4.674 -1.2605  0.0141 -0.3527
  432MOL0     C58207   3.728   3.223   4.750  0.3889  0.1799  1.2767
  432MOL0     C58208   3.821   3.132   4.686  0.5065  0.9267 -0.1789
  432MOL0     O58209   3.944   3.131   4.764 -0.3371  0.0327 -0.0608
  432MOL0     C58210   4.044   3.216   4.731  0.3450 -0.5347 -0.1346
  432MOL0     C58211   4.168   3.197   4.797  0.2643 -0.2988 -0.3345
  432MOL0     C58212   4.268   3.288   4.780 -0.0481  0.0881  0.3913
  432MOL0     C58213   4.262   3.395   4.696 -0.5243 -0.2420  0.4673
  432MOL0     C58214   4.380   3.489   4.681  0.0731 -0.0638  0.0072
  432MOL0     O58215   4.498   3.443   4.739  0.3080 -0.7300 -0.4244
  432MOL0     C58216   4.605   3.527   4.743  0.3056 -0.1905  0.5467
  432MOL0     C58217   4.732   3.466   4.728  0.5158  0.9708  0.4940
  432MOL0     C58218   4.845   3.546   4.709  0.0490 -0.0540  1.0360
  432MOL0     C58219   4.836   3.683   4.717  0.2867  0.5493  0.1906
  432MOL0     O58220   4.948   3.764   4.710  0.4749 -0.2881  0.1798
  432MOL0     C58221   5.075   3.705   4.708  0.0959  0.9915  0.6436
  432MOL0     C58222   5.186   3.810   4.686  0.5233 -0.2841  0.4789
  432MOL0     C58223   5.306   3.743   4.622 -0.0136 -1.3007 -0.2077
  432MOL0     C58224   5.399   3.856   4.578 -0.0643  0.4899  0.3211
  432MOL0     C58225   5.532   3.799   4.539 -0.5285 -0.3298  0.0297
  432MOL0     C58226   5.546   3.784   4.389 -0.7388  0.7097  0.3788
  432MOL0     C58227   5.666   3.696   4.356 -0.3945 -0.2172  0.0370
  432MOL0     C58228   5.810   3.747   4.371  0.3695 -0.1159  0.0960
  432MOL0    Cl58229   5.822   3.899   4.278 -0.1015  0.1253 -0.3653
  432MOL0     C58230   4.717   3.747   4.748  0.0809  0.4503 -0.7564
  432MOL0     C58231   4.602   3.666   4.762 -0.3530  0.4725  0.7211
  432MOL0     O58232   4.359   3.599   4.631  0.3238 -0.2827  0.0414
  432MOL0     C58233   4.141   3.415   4.620  0.1675 -0.4931  0.7391
  432MOL0     C58234   4.033   3.327   4.650  0.3186 -0.6457  1.1136
  432MOL0     N58235   3.378   3.165   4.496  0.4777  0.6328 -0.6751
  432MOL0     N58236   3.279   3.108   4.441  0.5302  0.4454 -0.0183
  432MOL0     C58237   2.030   3.362   4.494  0.4618 -0.3845  0.2009
  432MOL0     C58238   1.901   3.415   4.494  0.3190  0.5867 -0.3618
  432MOL0     C58239   1.555   3.644   4.292 -0.3364 -0.3304 -0.7382
  432MOL0     C58240   1.477   3.552   4.218 -0.2068  0.3904  0.7615
  432MOL0     C58241   1.362   3.592   4.161  0.7085 -0.4196  0.1032
  432MOL0     C58242   1.301   3.726   4.171 -0.3315  0.8839 -0.5582
  432MOL0     O58243   1.190   3.767   4.106  0.0692  1.1445 -0.2002
  432MOL0     C58244   1.168   3.719   3.970  0.2576  0.6259  0.2969
  432MOL0     C58245   1.022   3.673   3.943  0.8118  0.0153 -0.1111
  432MOL0     C58246   0.925   3.791   3.915  0.2332 -0.4083  1.1138
  432MOL0     C58247   0.974   3.872   3.794  0.3601 -0.4792  0.4226
  432MOL0     C58248   0.857   3.922   3.723  0.5066  0.2688 -0.0643
  432MOL0     C58249   0.746   3.956   3.678 -0.1595 -0.3125  0.3661
  432MOL0     C58250   1.385   3.813   4.248  0.5850  0.4640 -0.0224
  432MOL0     C58251   1.504   3.779   4.307 -0.0115 -0.0183  0.0622
  432MOL0     C58252   1.569   3.891   4.386 -0.1531 -0.3946  0.5086
  432MOL0     H58253   1.852   3.404   4.152 -1.0227 -2.7290 -0.0637
  432MOL0     H58254   2.080   3.298   4.172 -2.6178 -4.1188 -1.2788
  432MOL0     H58255   2.315   3.456   4.443  1.3439  0.2347 -5.1846
  432MOL0     H58256   2.317   3.320   4.556 -1.5670  0.1917 -0.2020
  432MOL0     H58257   2.529   3.390   4.422 -0.7896  0.8407 -0.8882
  432MOL0     H58258   2.446   3.289   4.293 -0.8165 -0.5799  0.9119
  432MOL0     H58259   2.449   3.097   4.428 -1.5437  2.1527  1.0227
  432MOL0     H58260   2.498   3.180   4.575 -3.4608  0.0159  0.2527
  432MOL0     H58261   2.667   3.136   4.311  2.0736  1.9348  0.3629
  432MOL0     H58262   2.737   3.223   4.455  2.3168  0.4476 -2.3079
  432MOL0     H58263   2.678   3.017   4.599 -2.3373  1.6804 -0.3204
  432MOL0     H58264   2.607   2.943   4.460 -0.2368 -0.4070  0.9773
  432MOL0     H58265   2.827   2.839   4.494  0.1989 -1.2529 -2.7476
  432MOL0     H58266   2.830   2.943   4.353 -1.3870  0.5014 -0.2150
  432MOL0     H58267   2.934   3.035   4.623 -3.2432 -1.1211 -0.8411
  432MOL0     H58268   2.956   3.115   4.458 -0.3782 -0.1522 -2.2074
  432MOL0     H58269   3.078   2.858   4.552 -0.8242 -0.9135 -1.2613
  432MOL0     H58270   3.069   2.904   4.387 -2.1838 -0.0812 -0.0645
  432MOL0     H58271   3.236   2.984   4.737 -1.8911 -0.6754 -1.0376
  432MOL0     H58272   3.441   3.158   4.817 -0.2854 -0.8647  0.4624
  432MOL0     H58273   3.530   3.038   4.725 -3.9821 -1.0327  0.9645
  432MOL0     H58274   3.621   3.226   4.569 -0.4414  3.0203 -0.5410
  432MOL0     H58275   3.552   3.338   4.690  0.4663  0.8922 -1.2705
  432MOL0     H58276   3.707   3.190   4.852 -0.0448 -0.8384  0.8698
  432MOL0     H58277   3.778   3.319   4.735 -2.2885  1.3033 -1.8664
  432MOL0     H58278   3.831   3.162   4.581  2.6415  0.9632 -0.0050
  432MOL0     H58279   3.781   3.030   4.688  1.9545  0.3319  0.1393
  432MOL0     H58280   4.174   3.110   4.861  0.9269 -1.2086 -1.6087
  432MOL0     H58281   4.366   3.286   4.826  0.7744  3.9286 -0.8035
  432MOL0     H58282   4.743   3.358   4.721  0.9645  1.1158 -3.4997
  432MOL0     H58283   4.940   3.495   4.696  1.0063  2.1180 -1.1399
  432MOL0     H58284   5.087   3.644   4.797 -3.3416 -1.2133 -0.1831
  432MOL0     H58285   5.075   3.630   4.628 -0.8828  0.3673  1.2012
  432MOL0     H58286   5.144   3.885   4.617  0.1528 -0.7902  0.1479
  432MOL0     H58287   5.211   3.857   4.782 -3.2814 -1.8960  2.4905
  432MOL0     H58288   5.352   3.672   4.691  1.3511 -1.4737 -1.2592
  432MOL0     H58289   5.288   3.682   4.532 -0.0032 -0.0980 -1.0417
  432MOL0     H58290   5.420   3.928   4.657  0.6778  1.1545 -0.4657
  432MOL0     H58291   5.362   3.905   4.488  3.4316  0.6753 -1.1654
  432MOL0     H58292   5.548   3.703   4.591  3.8517  0.2856  0.2059
  432MOL0     H58293   5.617   3.858   4.573  0.3674 -1.0215 -0.9456
  432MOL0     H58294   5.450   3.745   4.351 -2.4684  3.3057  1.8286
  432MOL0     H58295   5.553   3.884   4.345 -1.0068  1.0881  1.1887
  432MOL0     H58296   5.656   3.663   4.252  0.4038 -0.2341 -0.0384
  432MOL0     H58297   5.663   3.609   4.422 -0.4424  0.0845  0.4358
  432MOL0     H58298   5.839   3.762   4.475 -2.1897  2.0898  0.5986
  432MOL0     H58299   5.870   3.673   4.317 -0.9949 -0.8348 -0.4803
  432MOL0     H58300   4.710   3.851   4.778  0.2988  0.1347  0.4102
  432MOL0     H58301   4.508   3.719   4.775 -0.1899  0.7634  0.7211
  432MOL0     H58302   4.127   3.516   4.582 -2.6204 -1.4088 -0.9152
  432MOL0     H58303   3.937   3.350   4.604  1.0466  0.5331  0.1280
  432MOL0     H58304   2.088   3.360   4.586 -0.5829 -1.4127  0.8548
  432MOL0     H58305   1.842   3.423   4.584  0.1379 -1.7149 -0.2051
  432MOL0     H58306   1.517   3.452   4.206 -0.1326  0.1984  2.3939
  432MOL0     H58307   1.306   3.516   4.108 -1.3295  0.7222  0.5407
  432MOL0     H58308   1.234   3.637   3.939 -1.7182 -0.7719 -0.4024
  432MOL0     H58309   1.187   3.803   3.904 -2.5964 -0.1627 -1.7047
  432MOL0     H58310   0.984   3.612   4.026 -0.7227 -0.3823 -1.0654
  432MOL0     H58311   1.028   3.612   3.853 -1.3482 -1.3409  0.5740
  432MOL0     H58312   0.913   3.849   4.008  0.3634  0.3186  0.6866
  432MOL0     H58313   0.827   3.749   3.892  0.5076 -1.2744  1.4828
  432MOL0     H58314   1.020   3.961   3.837 -4.5466  1.9135  1.4239
  432MOL0     H58315   1.039   3.814   3.728 -1.5476 -0.7503 -1.2942
  432MOL0     H58316   0.652   3.998   3.650  0.1523 -0.3932 -0.8400
  432MOL0     H58317   1.349   3.915   4.260  0.8524  0.5113  0.4123
  432MOL0     H58318   1.490   3.965   4.398 -0.3365 -0.9326  3.1585
  432MOL0     H58319   1.605   3.864   4.486 -0.4701  0.9993  1.0262
  432MOL0     H58320   1.648   3.934   4.323 -1.9130  1.1470 -0.7343
  433MOL0     O58321   5.400   6.903   9.972 -0.1478 -0.2928 -0.5874
  433MOL0     C58322   5.482   6.864  10.057 -0.8318 -0.7208 -0.3902
  433MOL0     O58323   5.624   6.836  10.030 -0.0519 -0.5321  0.3995
  433MOL0     C58324   5.652   6.826   9.897  0.0048 -0.4624  1.1530
  433MOL0     C58325   5.751   6.892   9.838 -0.5544 -0.1222 -0.1036
  433MOL0     C58326   5.778   6.863   9.705 -0.6143 -0.5627  0.2582
  433MOL0     C58327   5.704   6.777   9.628  0.1641  1.1653 -0.3627
  433MOL0     O58328   5.731   6.769   9.497 -0.4385 -0.2270 -0.5813
  433MOL0     C58329   5.667   6.680   9.412 -0.4318  1.0599 -0.9269
  433MOL0     C58330   5.725   6.689   9.278  0.1159 -0.3159 -0.4644
  433MOL0     C58331   5.673   6.812   9.210 -0.1355 -0.1809  0.1783
  433MOL0     C58332   5.735   6.814   9.072  1.1660 -0.8599  0.5108
  433MOL0     C58333   5.676   6.928   8.991  0.9624  0.0191  0.4472
  433MOL0     C58334   5.684   7.073   9.046 -0.8029 -0.2137 -0.0260
  433MOL0     C58335   5.637   7.171   8.942  0.3274  0.3206 -1.1249
  433MOL0     C58336   5.652   7.311   8.993 -0.8948 -0.0676  0.3564
  433MOL0     N58337   5.779   7.369   8.950  0.1461  0.3928 -0.2037
  433MOL0     C58338   5.906   7.327   8.995  0.1894  0.2882  0.9617
  433MOL0     C58339   5.991   7.381   8.905 -0.1968  0.2038  0.1535
  433MOL0     C58340   6.139   7.348   8.888 -0.4451  0.0584  0.2338
  433MOL0     C58341   6.223   7.467   8.827 -0.4204 -0.4772 -0.5344
  433MOL0     C58342   6.360   7.422   8.799  0.1373 -0.4989 -0.4441
  433MOL0     C58343   6.375   7.303   8.709 -0.1168  0.4103 -0.6470
  433MOL0     O58344   6.355   7.171   8.765 -0.6299  0.0484 -0.2058
  433MOL0     C58345   6.421   7.073   8.693  1.0946  0.2653 -0.1767
  433MOL0     C58346   6.473   6.957   8.754 -0.3954 -0.7602 -0.5250
  433MOL0     C58347   6.536   6.860   8.683 -0.7533  0.0102 -0.1045
  433MOL0     C58348   6.550   6.865   8.540 -0.8895 -0.4748 -0.2363
  433MOL0     C58349   6.620   6.761   8.472 -0.6215 -0.0619 -1.2758
  433MOL0     O58350   6.644   6.651   8.547 -0.4867 -0.5168 -0.2716
  433MOL0     C58351   6.735   6.564   8.491  0.5059  0.5551 -0.6920
  433MOL0     C58352   6.695   6.441   8.452  0.2632 -0.9530  0.6924
  433MOL0     C58353   6.793   6.357   8.400 -0.8550 -0.0378 -0.6276
  433MOL0     C58354   6.927   6.387   8.410 -0.5533  0.4142  0.1776
  433MOL0     O58355   7.005   6.273   8.391  0.2591 -0.8009  0.3512
  433MOL0     C58356   7.142   6.305   8.396 -0.8646  0.9115  0.6323
  433MOL0     C58357   7.220   6.169   8.376  0.3119  0.5732 -0.4414
  433MOL0     C58358   7.364   6.193   8.381 -0.2060 -0.1337  0.1174
  433MOL0     C58359   7.434   6.058   8.355 -0.2000  0.6837  0.4687
  433MOL0     C58360   7.583   6.062   8.401  0.7137  0.6829 -0.3896
  433MOL0     C58361   7.600   6.030   8.552 -0.6984 -0.1653  0.4590
  433MOL0     C58362   7.717   6.102   8.623  1.0776  0.2647 -0.4403
  433MOL0     C58363   7.722   6.054   8.776 -0.6668 -0.4402  0.2750
  433MOL0    Cl58364   7.854   6.137   8.876  0.2024 -0.2581  0.1673
  433MOL0     C58365   6.971   6.520   8.451  0.3757  0.1049  0.5851
  433MOL0     C58366   6.868   6.610   8.483 -0.2663  0.6129 -0.5548
  433MOL0     O58367   6.652   6.776   8.356 -0.3780  0.3066  0.0566
  433MOL0     C58368   6.496   6.983   8.479 -0.2036 -0.0649  0.1179
  433MOL0     C58369   6.435   7.087   8.557  0.0981  0.7430  0.4319
  433MOL0     N58370   5.914   7.447   8.809  0.5651 -0.2875 -0.8862
  433MOL0     N58371   5.788   7.448   8.841 -0.8234  0.3546  0.0938
  433MOL0     C58372   5.606   6.703   9.691  0.2624  1.2833 -1.2854
  433MOL0     C58373   5.580   6.733   9.823  0.1749  0.5124 -0.0535
  433MOL0     C58374   5.447   6.887  10.201  0.8472 -0.2379 -0.7211
  433MOL0     C58375   5.550   6.907  10.295 -0.7218  0.6947 -0.2674
  433MOL0     C58376   5.533   6.950  10.426 -0.5124  0.1925  0.8539
  433MOL0     C58377   5.404   6.971  10.465  0.3181  0.6430 -0.6303
  433MOL0     O58378   5.376   7.020  10.588 -0.7241  0.1500 -0.3363
  433MOL0     C58379   5.435   7.153  10.602 -1.2303  0.0379 -0.1318
  433MOL0     C58380   5.374   7.232  10.725  0.7322  0.9174  0.2380
  433MOL0     C58381   5.256   7.326  10.697 -0.6151 -0.4582 -0.2823
  433MOL0     C58382   5.204   7.386  10.833  0.7370 -0.8094 -0.3357
  433MOL0     C58383   5.079   7.454  10.807 -0.4488 -0.1234  0.0943
  433MOL0     C58384   4.961   7.484  10.787 -0.1125  0.2919 -0.1012
  433MOL0     C58385   5.295   6.935  10.390  0.8149 -0.5210 -0.2359
  433MOL0     C58386   5.313   6.897  10.259 -0.4481 -0.2628 -0.4014
  433MOL0     C58387   5.184   6.870  10.182 -0.1230 -0.3354  0.4298
  433MOL0     H58388   5.813   6.959   9.896  2.0744 -1.7882 -0.7755
  433MOL0     H58389   5.852   6.925   9.655 -3.4487  0.0117 -3.7195
  433MOL0     H58390   5.676   6.579   9.452 -0.8463  1.3429 -0.1000
  433MOL0     H58391   5.559   6.698   9.412 -0.6160  0.7715  2.9359
  433MOL0     H58392   5.684   6.614   9.209  2.4721  1.8164 -4.6046
  433MOL0     H58393   5.833   6.677   9.274  0.0973 -1.4472  1.4730
  433MOL0     H58394   5.715   6.901   9.256  1.4153 -1.4442  1.3411
  433MOL0     H58395   5.564   6.809   9.222 -0.2317 -2.8439 -0.6838
  433MOL0     H58396   5.838   6.845   9.095  0.8843  3.2969 -2.6853
  433MOL0     H58397   5.721   6.726   9.010  1.2203 -0.2133 -0.4355
  433MOL0     H58398   5.733   6.928   8.898 -1.5820 -1.5292 -1.2317
  433MOL0     H58399   5.570   6.907   8.973  1.1325 -0.7212  0.2768
  433MOL0     H58400   5.619   7.080   9.133 -0.8290  2.0175 -0.1660
  433MOL0     H58401   5.785   7.096   9.082 -1.0517  0.2255  0.3969
  433MOL0     H58402   5.531   7.150   8.922  0.1970 -2.2759  1.6951
  433MOL0     H58403   5.700   7.155   8.855  1.1800 -1.5062 -0.2221
  433MOL0     H58404   5.570   7.362   8.941 -0.9273 -1.0859 -0.6439
  433MOL0     H58405   5.639   7.312   9.101  0.4475  2.6254  0.5969
  433MOL0     H58406   5.915   7.254   9.075 -2.3016  0.7401  1.7406
  433MOL0     H58407   6.176   7.294   8.976 -2.2903 -1.7150 -0.0155
  433MOL0     H58408   6.130   7.275   8.807  2.7703  1.2215 -1.3721
  433MOL0     H58409   6.183   7.484   8.726 -1.7214 -0.1471  0.0098
  433MOL0     H58410   6.216   7.550   8.897 -1.3502 -0.3919 -0.7086
  433MOL0     H58411   6.401   7.399   8.898 -0.9193  3.5276  1.1357
  433MOL0     H58412   6.422   7.498   8.751  1.1599 -0.2217  1.2205
  433MOL0     H58413   6.477   7.298   8.670 -1.0038 -0.9446 -3.0050
  433MOL0     H58414   6.305   7.326   8.628  0.1108  0.3073 -0.8768
  433MOL0     H58415   6.464   6.942   8.861 -2.0785 -0.4701 -0.5989
  433MOL0     H58416   6.567   6.771   8.737  0.2335 -0.4051 -1.3056
  433MOL0     H58417   6.590   6.414   8.447  0.3574 -1.2917  0.5230
  433MOL0     H58418   6.766   6.261   8.358 -1.8846  0.9316 -2.3345
  433MOL0     H58419   7.173   6.367   8.311  1.7954 -2.0493 -0.7908
  433MOL0     H58420   7.172   6.357   8.487 -0.2644  2.7059 -0.5133
  433MOL0     H58421   7.193   6.100   8.457  3.4210  0.5881  0.7312
  433MOL0     H58422   7.189   6.129   8.280 -0.1927 -1.1392  0.3980
  433MOL0     H58423   7.395   6.258   8.299  2.0551 -0.3300  0.7464
  433MOL0     H58424   7.393   6.234   8.478 -0.3193 -0.9740  0.5165
  433MOL0     H58425   7.432   6.041   8.247 -3.7370  0.0755  0.5083
  433MOL0     H58426   7.395   5.966   8.399  3.2753 -1.8220 -1.2505
  433MOL0     H58427   7.618   6.165   8.386  0.7507  0.5298 -1.3904
  433MOL0     H58428   7.639   5.987   8.345  1.7819  1.2763 -0.1485
  433MOL0     H58429   7.512   6.048   8.615 -1.0065  0.5176 -0.1492
  433MOL0     H58430   7.616   5.922   8.560 -0.6181 -0.2709 -0.9395
  433MOL0     H58431   7.708   6.211   8.612  0.2290  0.2183 -0.2736
  433MOL0     H58432   7.806   6.065   8.571  0.1698 -1.8919 -0.5635
  433MOL0     H58433   7.623   6.077   8.816  0.4673  2.6954  1.5403
  433MOL0     H58434   7.732   5.946   8.793  2.3055 -0.4447 -0.7811
  433MOL0     H58435   7.075   6.547   8.460  0.5963 -0.4962 -0.0742
  433MOL0     H58436   6.899   6.707   8.522 -0.2392  1.2479 -2.0787
  433MOL0     H58437   6.502   6.993   8.371  2.1718  0.7239  0.2838
  433MOL0     H58438   6.402   7.172   8.499  3.8170  2.6881  0.8560
  433MOL0     H58439   5.551   6.624   9.642 -2.8240  4.3742 -3.3350
  433MOL0     H58440   5.502   6.676   9.871 -0.0875  0.8779 -0.0471
  433MOL0     H58441   5.645   6.870  10.258 -0.4761 -0.9278  1.7920
  433MOL0     H58442   5.615   6.958  10.496  3.0981 -0.9169 -2.8546
  433MOL0     H58443   5.399   7.206  10.514 -0.6830  0.8159  0.1098
  433MOL0     H58444   5.543   7.138  10.611 -1.8553 -5.4939  2.5810
  433MOL0     H58445   5.452   7.294  10.770  1.3014  0.3604  0.0494
  433MOL0     H58446   5.327   7.164  10.796 -0.3307  0.3865 -0.9496
  433MOL0     H58447   5.172   7.269  10.656 -1.1350  0.2913 -0.2657
  433MOL0     H58448   5.277   7.392  10.613 -2.8871 -0.1506 -0.6508
  433MOL0     H58449   5.200   7.305  10.906  1.1048 -0.1297  0.4582
  433MOL0     H58450   5.271   7.462  10.873  1.9576 -1.1034 -1.7043
  433MOL0     H58451   4.868   7.524  10.754 -0.3968 -1.6687 -1.8378
  433MOL0     H58452   5.196   6.948  10.430  1.2393  3.5228 -0.0379
  433MOL0     H58453   5.102   6.825  10.238 -0.3603 -0.5778 -0.1052
  433MOL0     H58454   5.143   6.960  10.136 -0.1016  0.3204  1.6544
  433MOL0     H58455   5.209   6.797  10.105 -0.3054 -3.2940  2.9623
  434MOL0     O58456  10.850   9.334   2.004 -0.4233  0.3287  0.1756
  434MOL0     C58457  10.884   9.260   1.908 -0.0853 -0.3410  0.3850
  434MOL0     O58458  10.807   9.202   1.816 -0.6188 -0.2701 -0.3387
  434MOL0     C58459  10.671   9.222   1.839 -0.3706 -0.2568  0.1986
  434MOL0     C58460  10.618   9.344   1.793 -1.0015 -0.7262  0.5122
  434MOL0     C58461  10.485   9.371   1.825  0.3171 -0.0901 -0.2853
  434MOL0     C58462  10.417   9.285   1.915  0.4254  0.0799  0.2268
  434MOL0     O58463  10.286   9.297   1.949 -0.8479 -0.3157 -0.1830
  434MOL0     C58464  10.209   9.393   1.876  0.6653 -0.2426  0.6433
  434MOL0     C58465  10.068   9.385   1.934  0.4532 -0.0122  0.1659
  434MOL0     C58466   9.957   9.419   1.830  0.3103  0.9463 -1.1088
  434MOL0     C58467   9.826   9.464   1.908 -0.3886 -0.2386 -0.1711
  434MOL0     C58468   9.707   9.495   1.811  0.2921  0.3972 -0.6653
  434MOL0     C58469   9.580   9.541   1.893 -0.0186  0.1601 -0.2486
  434MOL0     C58470   9.461   9.574   1.802  0.3313  0.2472 -0.0016
  434MOL0     C58471   9.340   9.616   1.873  0.6206  0.3254 -0.2179
  434MOL0     N58472   9.234   9.687   1.795  0.3362  0.3397 -0.7755
  434MOL0     C58473   9.235   9.819   1.749  1.2241  0.3020  0.1793
  434MOL0     C58474   9.126   9.825   1.662 -0.2364 -0.3503  0.3834
  434MOL0     C58475   9.088   9.947   1.579  1.1016 -0.2046  0.1858
  434MOL0     C58476   9.110   9.930   1.423 -0.6449 -0.4192 -0.1183
  434MOL0     C58477   9.109  10.078   1.362  0.3089 -0.0607 -0.4837
  434MOL0     C58478   9.168  10.089   1.223 -0.1569  0.1809  0.4978
  434MOL0     O58479   9.316  10.067   1.236 -0.4226  0.0976 -0.3525
  434MOL0     C58480   9.402  10.102   1.131 -0.4488 -0.1762  0.2976
  434MOL0     C58481   9.539  10.137   1.153 -0.1116  0.3652 -0.5861
  434MOL0     C58482   9.625  10.176   1.061  0.6440 -0.9129  1.1303
  434MOL0     C58483   9.575  10.197   0.929 -1.8542 -0.5440 -0.6948
  434MOL0     C58484   9.662  10.248   0.815 -0.4928  0.5662 -0.6896
  434MOL0     O58485   9.798  10.251   0.847  0.2243 -0.0268  0.7649
  434MOL0     C58486   9.881  10.269   0.742 -0.1528  0.8853 -0.0156
  434MOL0     C58487   9.862  10.352   0.635  0.1920  0.7974 -0.5707
  434MOL0     C58488   9.948  10.374   0.530 -0.4596  0.0251 -0.0996
  434MOL0     C58489  10.070  10.301   0.544 -0.2410 -0.5693  0.4609
  434MOL0     O58490  10.158  10.322   0.435  0.4242  0.9220 -0.5580
  434MOL0     C58491  10.231  10.206   0.382  0.2863 -0.2968 -1.2183
  434MOL0     C58492  10.325  10.254   0.274 -0.0671 -0.7854  0.0808
  434MOL0     C58493  10.255  10.284   0.140 -0.5712 -0.0027  0.0121
  434MOL0     C58494  10.360  10.253   0.037 -0.5388  0.4238  0.2755
  434MOL0     C58495  10.340  10.310  -0.108 -0.3675  0.6755  0.7026
  434MOL0     C58496  10.427  10.253  -0.221 -0.0382 -0.0863  0.5490
  434MOL0     C58497  10.463  10.362  -0.331  0.2324  0.6492 -0.1471
  434MOL0     C58498  10.514  10.301  -0.460 -0.3664 -0.4564  0.0776
  434MOL0    Cl58499  10.541  10.444  -0.569  0.2306 -0.6453 -0.3765
  434MOL0     C58500  10.087  10.211   0.647 -0.1720 -0.4192 -0.6147
  434MOL0     C58501   9.995  10.198   0.748 -0.6230 -0.7519 -0.1223
  434MOL0     O58502   9.603  10.272   0.706  0.1156 -1.0597  0.2522
  434MOL0     C58503   9.441  10.182   0.908  0.6114  0.3203  0.1528
  434MOL0     C58504   9.351  10.134   1.008 -0.6400  0.0668 -0.7341
  434MOL0     N58505   9.051   9.708   1.676  0.4222  1.1346 -0.7111
  434MOL0     N58506   9.114   9.631   1.754 -1.1299  0.2177 -0.3793
  434MOL0     C58507  10.471   9.165   1.948 -0.5772 -0.2152 -0.0847
  434MOL0     C58508  10.599   9.127   1.907  0.0758  0.7076 -0.2066
  434MOL0     C58509  11.026   9.254   1.884  0.3424  0.3998 -0.7089
  434MOL0     C58510  11.080   9.358   1.818 -0.4208  0.5991  0.2283
  434MOL0     C58511  11.222   9.367   1.796 -0.6027  0.3988 -0.8953
  434MOL0     C58512  11.308   9.257   1.830  0.3609  0.9529 -0.2384
  434MOL0     O58513  11.439   9.280   1.802  0.1610  0.0610  0.4553
  434MOL0     C58514  11.538   9.183   1.855  0.0259 -0.0174  0.0883
  434MOL0     C58515  11.670   9.245   1.887 -0.6633 -0.7164  0.0778
  434MOL0     C58516  11.741   9.307   1.765  0.6292 -0.9195  0.3133
  434MOL0     C58517  11.781   9.193   1.667  0.2388 -0.2262  0.3680
  434MOL0     C58518  11.898   9.234   1.582 -0.6226 -1.0685  0.0186
  434MOL0     C58519  12.000   9.257   1.520 -0.5498  0.7724 -0.2161
  434MOL0     C58520  11.244   9.164   1.913 -0.3436  0.1584  0.3986
  434MOL0     C58521  11.108   9.155   1.936 -0.3263  1.4148  0.7803
  434MOL0     C58522  11.054   9.045   2.025 -0.5407 -0.7074 -0.0090
  434MOL0     H58523  10.681   9.421   1.750 -0.7246 -0.2111  1.7791
  434MOL0     H58524  10.448   9.469   1.798  1.3698  0.4219  0.0711
  434MOL0     H58525  10.248   9.492   1.901  0.2786  0.0890 -0.0384
  434MOL0     H58526  10.206   9.387   1.767 -1.2744  0.9826  0.5840
  434MOL0     H58527  10.060   9.455   2.018  0.8647  4.9245 -3.4452
  434MOL0     H58528  10.054   9.283   1.970  0.5932 -1.0722 -2.5960
  434MOL0     H58529   9.935   9.332   1.768 -1.5885 -0.2913  1.1313
  434MOL0     H58530   9.985   9.499   1.761 -1.4213  0.5120 -2.3833
  434MOL0     H58531   9.801   9.390   1.984  0.9017 -0.6828 -0.1585
  434MOL0     H58532   9.844   9.561   1.955  0.8446  0.1522 -1.3908
  434MOL0     H58533   9.744   9.576   1.748 -1.2133  2.2957  0.7747
  434MOL0     H58534   9.684   9.412   1.744  0.5686  0.4279 -0.8006
  434MOL0     H58535   9.550   9.457   1.956 -2.6074  0.3122 -1.1183
  434MOL0     H58536   9.602   9.626   1.958 -5.2084  1.2647  0.5458
  434MOL0     H58537   9.435   9.494   1.732 -2.9582  0.7351  0.4815
  434MOL0     H58538   9.489   9.662   1.743 -1.7621  1.3319  0.5108
  434MOL0     H58539   9.293   9.527   1.917 -0.2675  1.1880  0.6563
  434MOL0     H58540   9.366   9.676   1.961  1.6062  0.0243 -0.3012
  434MOL0     H58541   9.302   9.902   1.771 -1.6154  2.2927  2.1281
  434MOL0     H58542   8.985   9.981   1.593  1.7369  2.5815 -1.1005
  434MOL0     H58543   9.151  10.032   1.605  0.0184  0.9795 -0.8831
  434MOL0     H58544   9.210   9.888   1.417 -0.1683  0.2489  2.0789
  434MOL0     H58545   9.043   9.862   1.371 -0.0046 -0.8783 -0.3481
  434MOL0     H58546   9.162  10.146   1.430  1.0602 -1.9940  0.9424
  434MOL0     H58547   9.002  10.103   1.362  0.7742  2.2198 -0.8378
  434MOL0     H58548   9.143  10.185   1.177  2.7008  1.4767  1.4095
  434MOL0     H58549   9.123  10.006   1.167  3.0517 -1.7916  0.5537
  434MOL0     H58550   9.584  10.110   1.248 -1.0517 -0.5104 -0.3685
  434MOL0     H58551   9.724  10.200   1.098 -0.0925  2.0511  1.4928
  434MOL0     H58552   9.771  10.411   0.636  0.1510  0.7513  1.2968
  434MOL0     H58553   9.932  10.456   0.461 -1.5366  0.0441  0.1655
  434MOL0     H58554  10.283  10.149   0.459  0.6719  2.4253  0.6854
  434MOL0     H58555  10.149  10.151   0.335 -0.9214  0.3309  0.0792
  434MOL0     H58556  10.367  10.352   0.301 -0.3929  0.2441 -2.8003
  434MOL0     H58557  10.402  10.176   0.274 -0.7347 -1.4749  1.1567
  434MOL0     H58558  10.173  10.212   0.135 -1.2060  0.7296 -0.4036
  434MOL0     H58559  10.224  10.389   0.134  1.9565  0.8835  0.9769
  434MOL0     H58560  10.363  10.144   0.027  1.6151  0.3395  1.2914
  434MOL0     H58561  10.458  10.295   0.064 -0.6544  0.7028  0.2656
  434MOL0     H58562  10.356  10.416  -0.087  1.4753  0.0757  2.6202
  434MOL0     H58563  10.238  10.287  -0.141 -0.9548  0.9404  2.2818
  434MOL0     H58564  10.517  10.208  -0.179  0.5978  2.1578  1.7504
  434MOL0     H58565  10.365  10.181  -0.275  0.5711 -0.3563  0.1893
  434MOL0     H58566  10.539  10.433  -0.296 -0.6527  0.5830  2.0576
  434MOL0     H58567  10.370  10.416  -0.349  2.3211  3.9806 -2.1261
  434MOL0     H58568  10.604  10.246  -0.433  1.0720  0.9697 -1.5512
  434MOL0     H58569  10.441  10.231  -0.503  0.7682 -2.3124  1.0485
  434MOL0     H58570  10.166  10.136   0.648 -0.8509 -1.1419 -0.6200
  434MOL0     H58571  10.020  10.137   0.834  0.2717 -0.7976 -0.3995
  434MOL0     H58572   9.399  10.199   0.809 -3.2519  0.2299  1.6122
  434MOL0     H58573   9.245  10.138   0.985 -0.8171 -2.1945 -0.4647
  434MOL0     H58574  10.428   9.082   2.003  1.9136 -1.4832  0.1387
  434MOL0     H58575  10.632   9.026   1.926  0.9341  0.4989 -2.5406
  434MOL0     H58576  11.014   9.435   1.778 -0.5354 -0.6018 -2.0449
  434MOL0     H58577  11.260   9.456   1.748  0.2505  2.0437  2.5505
  434MOL0     H58578  11.535   9.095   1.790  1.8028  0.4980 -0.7435
  434MOL0     H58579  11.505   9.150   1.954  0.3202  0.4678  0.3543
  434MOL0     H58580  11.740   9.176   1.937 -0.8880  0.3858  1.9954
  434MOL0     H58581  11.640   9.321   1.959  0.2140 -0.8079  0.5569
  434MOL0     H58582  11.830   9.361   1.798 -0.5738 -0.0778  2.3823
  434MOL0     H58583  11.672   9.383   1.728  1.2005  1.6073  3.9151
  434MOL0     H58584  11.796   9.099   1.720 -4.3194 -1.2739  0.2161
  434MOL0     H58585  11.692   9.169   1.608 -0.0891 -2.2731  1.6163
  434MOL0     H58586  12.095   9.280   1.475 -1.2596  1.8199 -1.2212
  434MOL0     H58587  11.309   9.091   1.961 -1.7807 -0.1688  1.9494
  434MOL0     H58588  10.982   8.973   1.983 -1.0188 -0.6323  0.6532
  434MOL0     H58589  11.139   8.981   2.047  2.7397  3.4120  0.5032
  434MOL0     H58590  11.014   9.070   2.124  0.0651 -0.0439  0.0739
  435MOL0     O58591  10.511   9.667   6.952  0.0241 -0.0378  0.6595
  435MOL0     C58592  10.397   9.688   6.980  0.5041  0.2137 -0.0362
  435MOL0     O58593  10.339   9.648   7.105  0.1621  0.1917  0.4549
  435MOL0     C58594  10.422   9.586   7.203  0.3887  0.9024 -0.7800
  435MOL0     C58595  10.370   9.479   7.270 -1.2965  1.0792 -0.2625
  435MOL0     C58596  10.451   9.403   7.353 -0.7378  0.4692 -0.3644
  435MOL0     C58597  10.587   9.441   7.376 -0.0827 -0.3718 -0.2199
  435MOL0     O58598  10.667   9.353   7.446 -0.4714 -1.0145  0.6092
  435MOL0     C58599  10.795   9.324   7.389  0.5502 -0.1298  0.4895
  435MOL0     C58600  10.835   9.177   7.423  0.5947 -0.1804 -0.1106
  435MOL0     C58601  10.875   9.156   7.566 -0.5441  0.5429  0.3130
  435MOL0     C58602  10.947   9.018   7.593  0.0946  0.3621  0.8512
  435MOL0     C58603  10.953   8.999   7.745  0.7459  0.5839 -0.5006
  435MOL0     C58604  10.966   8.855   7.778 -0.0662  0.3552  0.1119
  435MOL0     C58605  11.037   8.835   7.913 -1.0240 -0.9337 -0.0357
  435MOL0     C58606  11.038   8.690   7.960 -0.0508  0.8924 -0.0671
  435MOL0     N58607  11.130   8.664   8.069 -0.1155 -0.2577  0.4883
  435MOL0     C58608  11.127   8.729   8.182  0.1234  0.2988 -0.3568
  435MOL0     C58609  11.234   8.692   8.255  0.1263 -0.4357  0.5129
  435MOL0     C58610  11.288   8.711   8.390 -0.8222  0.0517 -0.3568
  435MOL0     C58611  11.290   8.862   8.432  0.0726 -0.5094  0.3587
  435MOL0     C58612  11.365   8.961   8.342 -0.2157 -0.4853  0.1134
  435MOL0     C58613  11.508   8.913   8.312 -0.7905 -0.7579 -0.4281
  435MOL0     O58614  11.569   9.024   8.244  0.0815  0.1048 -0.5697
  435MOL0     C58615  11.701   9.024   8.202  0.0978 -0.4558  0.5289
  435MOL0     C58616  11.778   9.141   8.191 -1.1773  0.3501 -0.6737
  435MOL0     C58617  11.922   9.128   8.165 -0.4244  0.0030  0.8983
  435MOL0     C58618  11.981   9.001   8.141  0.4995 -1.2093 -0.4828
  435MOL0     C58619  12.125   8.984   8.099 -0.0258 -0.2802 -0.3321
  435MOL0     O58620  12.192   9.092   8.047 -0.3469  0.2376 -0.1102
  435MOL0     C58621  12.328   9.084   8.025  0.0170 -0.1928  0.3128
  435MOL0     C58622  12.407   9.201   8.066 -0.6963  0.9785 -0.2262
  435MOL0     C58623  12.546   9.200   8.062 -0.1743 -0.2434 -0.1439
  435MOL0     C58624  12.617   9.091   8.017 -0.4743  0.2432 -0.1430
  435MOL0     O58625  12.757   9.082   8.010  0.2348  0.4211  0.0639
  435MOL0     C58626  12.832   9.201   7.990  0.5367 -0.1391  0.5687
  435MOL0     C58627  12.984   9.165   7.960  0.3166 -0.5424  0.2104
  435MOL0     C58628  13.048   9.061   8.054  0.5080 -0.9242 -0.8962
  435MOL0     C58629  13.204   9.066   8.074 -0.2429  0.7998 -0.9787
  435MOL0     C58630  13.267   8.945   8.146  0.2187  0.2900  0.2474
  435MOL0     C58631  13.214   8.941   8.288 -0.3464 -0.2455 -1.6509
  435MOL0     C58632  13.255   8.811   8.355  0.2374  0.2668 -0.6775
  435MOL0     C58633  13.154   8.701   8.347 -0.0369  0.0277  0.2903
  435MOL0    Cl58634  13.002   8.730   8.453 -0.2861 -0.0087  0.2296
  435MOL0     C58635  12.536   8.977   7.971  0.1842 -0.5492 -0.0441
  435MOL0     C58636  12.396   8.982   7.961  0.2513 -0.0285 -0.0625
  435MOL0     O58637  12.173   8.875   8.106  0.6448  0.7884  0.2803
  435MOL0     C58638  11.900   8.887   8.157 -0.5885 -0.4311  0.3460
  435MOL0     C58639  11.765   8.907   8.175 -0.5701  0.7256 -0.4494
  435MOL0     N58640  11.307   8.608   8.166  0.4905 -0.0019 -0.1038
  435MOL0     N58641  11.243   8.590   8.058 -1.0441  0.1962 -0.6156
  435MOL0     C58642  10.632   9.561   7.316 -0.4060  0.0192 -0.1023
  435MOL0     C58643  10.551   9.625   7.226  0.3088  0.4423  1.2649
  435MOL0     C58644  10.311   9.767   6.890 -0.4203  0.5925  0.0921
  435MOL0     C58645  10.178   9.769   6.916  0.8290  0.5318  0.7150
  435MOL0     C58646  10.088   9.850   6.846  0.2273  0.2153  0.9661
  435MOL0     C58647  10.137   9.927   6.733 -0.6325  0.3678 -1.4327
  435MOL0     O58648  10.072  10.007   6.648 -0.0335  0.1799  0.4429
  435MOL0     C58649   9.938  10.053   6.668 -1.2059  0.9451  0.2128
  435MOL0     C58650   9.963  10.198   6.724 -0.4363  0.6149  0.3608
  435MOL0     C58651   9.842  10.278   6.678 -0.0408 -0.1871 -0.3530
  435MOL0     C58652   9.839  10.411   6.736 -0.2908  0.4682 -0.1041
  435MOL0     C58653   9.703  10.466   6.743 -0.2154  0.2052  0.1988
  435MOL0     C58654   9.580  10.488   6.751 -0.6070  0.6450 -0.2401
  435MOL0     C58655  10.272   9.918   6.711 -0.3166 -0.4946  0.7434
  435MOL0     C58656  10.360   9.835   6.782  0.0930  0.0573  0.6183
  435MOL0     C58657  10.507   9.860   6.745  0.0619  0.3419  0.3621
  435MOL0     H58658  10.269   9.445   7.254 -1.0845 -0.3032  1.0798
  435MOL0     H58659  10.408   9.317   7.404  1.6232 -0.6428 -0.1232
  435MOL0     H58660  10.801   9.331   7.280  1.5838 -2.5786  0.3198
  435MOL0     H58661  10.862   9.400   7.430 -1.9338  0.3667  4.1159
  435MOL0     H58662  10.923   9.143   7.368  0.1816  1.6035 -1.9909
  435MOL0     H58663  10.747   9.122   7.388  2.3562 -2.4707 -1.2035
  435MOL0     H58664  10.790   9.170   7.634 -0.7601  3.7694 -0.4658
  435MOL0     H58665  10.944   9.224   7.616 -0.5126  1.0551 -0.4022
  435MOL0     H58666  10.883   8.943   7.546  0.7758 -0.1690  0.7485
  435MOL0     H58667  11.046   9.028   7.546 -0.7572  5.5651 -0.4775
  435MOL0     H58668  11.033   9.065   7.779 -0.6738  0.9370  2.5052
  435MOL0     H58669  10.861   9.039   7.789  0.9582  1.7500 -1.0695
  435MOL0     H58670  10.869   8.805   7.775  0.6195 -0.9753 -0.8593
  435MOL0     H58671  11.029   8.810   7.700 -2.6444  0.9660 -2.5000
  435MOL0     H58672  10.984   8.901   7.982  1.9861  0.8742  0.7358
  435MOL0     H58673  11.141   8.869   7.914 -1.2298 -0.2639 -0.5656
  435MOL0     H58674  10.941   8.667   8.005  1.1541  0.8313  2.6531
  435MOL0     H58675  11.053   8.617   7.880 -0.2142  1.5299 -0.6960
  435MOL0     H58676  11.055   8.801   8.218  2.0632  1.4775  1.4235
  435MOL0     H58677  11.218   8.662   8.457 -0.3440  0.1817  0.2426
  435MOL0     H58678  11.389   8.670   8.395 -0.8920 -0.0994 -0.2028
  435MOL0     H58679  11.186   8.895   8.440  0.4411  1.2263 -1.2094
  435MOL0     H58680  11.328   8.879   8.533 -0.6243  0.8921  0.4091
  435MOL0     H58681  11.365   9.056   8.397 -0.3080  0.7877 -2.0002
  435MOL0     H58682  11.318   8.969   8.244  0.9367 -1.4554 -0.5432
  435MOL0     H58683  11.511   8.819   8.256 -0.2527 -0.5545 -0.7523
  435MOL0     H58684  11.555   8.894   8.409  1.2337  0.0043 -1.2058
  435MOL0     H58685  11.733   9.239   8.203 -2.0975 -0.2196  0.8829
  435MOL0     H58686  11.981   9.219   8.159 -1.0110  0.4125  1.2434
  435MOL0     H58687  12.355   9.280   8.120 -0.7042  0.3339  0.7388
  435MOL0     H58688  12.595   9.293   8.089  2.3700 -1.4901 -0.1959
  435MOL0     H58689  12.802   9.258   7.902  2.0552  2.1947  1.4638
  435MOL0     H58690  12.815   9.270   8.073 -3.8917 -1.7039  1.2259
  435MOL0     H58691  12.981   9.124   7.859 -1.0216  0.0711 -0.0207
  435MOL0     H58692  13.038   9.259   7.949 -0.7825 -0.0826 -1.6618
  435MOL0     H58693  12.995   9.078   8.148  2.1205  4.2956 -0.6390
  435MOL0     H58694  13.030   8.962   8.009 -0.2788 -0.3259 -1.9576
  435MOL0     H58695  13.220   9.159   8.128 -2.3441 -0.2145  1.6195
  435MOL0     H58696  13.247   9.087   7.976  3.0961 -0.5506  0.0598
  435MOL0     H58697  13.375   8.933   8.136  0.0058 -3.4864  1.0338
  435MOL0     H58698  13.232   8.852   8.100  4.2756 -0.5904 -1.4892
  435MOL0     H58699  13.262   9.020   8.345  0.1244 -2.0198  0.5505
  435MOL0     H58700  13.105   8.940   8.294 -0.3196 -2.2532 -0.9183
  435MOL0     H58701  13.277   8.829   8.461  1.5334 -0.9764 -0.7143
  435MOL0     H58702  13.342   8.777   8.299 -1.6717 -2.3112 -2.3176
  435MOL0     H58703  13.125   8.686   8.242  1.2050  2.8293 -0.5644
  435MOL0     H58704  13.196   8.606   8.381  2.0230  1.1401  1.0129
  435MOL0     H58705  12.580   8.895   7.915  2.2245  1.4461 -1.5438
  435MOL0     H58706  12.346   8.900   7.911  3.9352 -0.6192 -3.3149
  435MOL0     H58707  11.936   8.785   8.152 -0.0829 -0.3260  1.5787
  435MOL0     H58708  11.705   8.817   8.167 -0.9235  0.9191 -0.0267
  435MOL0     H58709  10.732   9.595   7.341 -1.1749  1.7572  0.7622
  435MOL0     H58710  10.590   9.716   7.181 -0.4816  0.5748  0.8163
  435MOL0     H58711  10.135   9.704   6.992 -0.5338  1.9048  1.1817
  435MOL0     H58712   9.981   9.836   6.857  0.4727 -2.0292  1.0288
  435MOL0     H58713   9.877   9.996   6.739 -1.7337  2.6611  1.1839
  435MOL0     H58714   9.905  10.052   6.564  0.4261  3.3960 -0.3961
  435MOL0     H58715  10.061  10.231   6.687  1.8874 -3.1942  2.5010
  435MOL0     H58716   9.967  10.193   6.833 -1.5570  1.6666  0.4814
  435MOL0     H58717   9.755  10.222   6.714  0.8394 -0.1561  2.0429
  435MOL0     H58718   9.837  10.286   6.569  0.7561 -4.1921 -0.8578
  435MOL0     H58719   9.876  10.411   6.839 -1.3533  1.9818  0.3291
  435MOL0     H58720   9.904  10.483   6.684  0.2899 -0.8155 -1.2103
  435MOL0     H58721   9.477  10.503   6.774 -0.7584 -2.3689  1.6531
  435MOL0     H58722  10.309   9.980   6.630  1.9868 -1.6029  0.8642
  435MOL0     H58723  10.520   9.913   6.650  2.1260 -0.2151  0.2939
  435MOL0     H58724  10.559   9.910   6.827 -0.3124 -1.2634  1.6273
  435MOL0     H58725  10.550   9.760   6.729  2.0431  1.1194  0.5992
  436MOL0     O58726   9.954  10.113   7.136 -0.1972  0.4291  0.4676
  436MOL0     C58727   9.972   9.991   7.147  0.1697 -0.2409 -0.2164
  436MOL0     O58728   9.884   9.894   7.120 -0.5452  0.6424  0.4869
  436MOL0     C58729   9.770   9.919   7.046  0.3045  0.1459  0.1768
  436MOL0     C58730   9.721  10.039   6.983 -0.5829 -0.3429 -0.4793
  436MOL0     C58731   9.592  10.047   6.928  0.0378 -0.3393  0.2612
  436MOL0     C58732   9.508   9.938   6.939  0.5330 -0.9470  0.4075
  436MOL0     O58733   9.383   9.926   6.888 -0.1127 -0.2103 -0.4681
  436MOL0     C58734   9.317  10.050   6.886  0.1650  0.9759  0.2650
  436MOL0     C58735   9.171  10.000   6.844  0.4240 -0.2052  0.3454
  436MOL0     C58736   9.140  10.004   6.695  0.5581  0.5470 -0.4606
  436MOL0     C58737   8.999   9.975   6.660  0.2650 -0.2528 -1.0247
  436MOL0     C58738   8.963   9.938   6.517 -0.5785 -0.8864 -0.5288
  436MOL0     C58739   8.980  10.068   6.438 -0.3999 -0.6481  0.4014
  436MOL0     C58740   8.943  10.051   6.288 -0.6079 -0.1574 -1.1403
  436MOL0     C58741   9.051   9.995   6.197  0.1719 -0.0488  0.1724
  436MOL0     N58742   9.182  10.062   6.213  0.4421 -0.0144 -0.1171
  436MOL0     C58743   9.283  10.011   6.297 -0.3223  0.2474  0.9510
  436MOL0     C58744   9.373  10.111   6.305  0.9057  0.1577  0.2397
  436MOL0     C58745   9.495  10.107   6.389  0.3979 -0.8008 -0.0589
  436MOL0     C58746   9.616  10.147   6.297 -0.3381 -0.1097 -0.6002
  436MOL0     C58747   9.668  10.018   6.221  0.3112 -1.1739 -0.0410
  436MOL0     C58748   9.810  10.042   6.167  0.0043 -0.0475 -0.4096
  436MOL0     O58749   9.911  10.010   6.259  0.0731 -0.0933 -0.5878
  436MOL0     C58750  10.041   9.976   6.216  0.3221 -0.1098 -0.0228
  436MOL0     C58751  10.122   9.916   6.309  0.1247 -0.1281 -0.1164
  436MOL0     C58752  10.253   9.882   6.272 -0.4246  0.2488 -0.0502
  436MOL0     C58753  10.308   9.914   6.143  0.3034 -0.5076 -0.3468
  436MOL0     C58754  10.450   9.881   6.107 -0.3169  0.6800 -0.0344
  436MOL0     O58755  10.527   9.809   6.193  0.4019 -0.7415 -0.2540
  436MOL0     C58756  10.657   9.791   6.162 -0.4395  0.2123 -0.3903
  436MOL0     C58757  10.697   9.698   6.067 -0.4624  0.0066 -0.0192
  436MOL0     C58758  10.826   9.682   6.025  1.0952  0.4286 -0.3152
  436MOL0     C58759  10.930   9.735   6.101 -0.2602 -0.3711  0.5876
  436MOL0     O58760  11.054   9.693   6.066 -0.1615  1.3410 -0.1681
  436MOL0     C58761  11.132   9.771   5.973 -0.3120 -0.7398  0.5241
  436MOL0     C58762  11.274   9.788   6.019  0.5443  0.6702  0.0374
  436MOL0     C58763  11.376   9.836   5.909  0.8377 -0.0142 -0.1873
  436MOL0     C58764  11.335   9.970   5.836 -0.8199 -0.4566 -0.0478
  436MOL0     C58765  11.461  10.013   5.760 -0.6210  0.3493 -0.1441
  436MOL0     C58766  11.420  10.143   5.674  0.1174  0.0684  0.2658
  436MOL0     C58767  11.526  10.203   5.589 -0.5226  0.3252 -0.3302
  436MOL0     C58768  11.487  10.302   5.483  0.5195 -0.7020 -0.3145
  436MOL0    Cl58769  11.636  10.385   5.421 -0.1618  0.3231 -0.2549
  436MOL0     C58770  10.897   9.818   6.205  0.6544 -0.7219  0.3697
  436MOL0     C58771  10.758   9.852   6.230 -0.2085  0.8289  0.2717
  436MOL0     O58772  10.489   9.918   5.995  0.4090 -0.8754 -0.0228
  436MOL0     C58773  10.218   9.971   6.046 -0.5678 -0.4603 -0.7846
  436MOL0     C58774  10.088   9.991   6.085 -1.0923 -0.6442 -0.6283
  436MOL0     N58775   9.319  10.217   6.233  0.3968 -0.6039  0.5051
  436MOL0     N58776   9.206  10.187   6.176 -0.8796 -0.4514  0.2959
  436MOL0     C58777   9.556   9.817   6.991  0.1577  0.6536  0.0694
  436MOL0     C58778   9.686   9.807   7.043  0.0190 -0.4306  0.2781
  436MOL0     C58779  10.113   9.970   7.190  0.3623  0.2778  0.5132
  436MOL0     C58780  10.208  10.068   7.161 -0.1528 -0.7817  0.5574
  436MOL0     C58781  10.340  10.080   7.216 -0.4937  0.1722  0.6672
  436MOL0     C58782  10.380   9.972   7.293 -0.7392 -0.0957  1.1733
  436MOL0     O58783  10.503   9.968   7.349 -0.1155 -0.0298  0.0783
  436MOL0     C58784  10.589  10.082   7.364 -0.1040 -0.4185 -0.5554
  436MOL0     C58785  10.694  10.052   7.471  0.8683  0.0557 -0.5548
  436MOL0     C58786  10.775   9.925   7.465  0.2137 -0.4660 -0.7861
  436MOL0     C58787  10.861   9.914   7.332 -0.7385  0.0517  0.1611
  436MOL0     C58788  10.966   9.811   7.356  0.1884  0.4214 -0.7378
  436MOL0     C58789  11.051   9.725   7.376  0.3633  0.0572 -0.0744
  436MOL0     C58790  10.294   9.867   7.330  0.6630  0.1628 -0.0426
  436MOL0     C58791  10.163   9.866   7.276  1.0023 -0.1398  0.2677
  436MOL0     C58792  10.059   9.761   7.335  0.1538 -0.1580 -0.0027
  436MOL0     H58793   9.785  10.124   6.963 -0.2763 -1.0699 -2.9377
  436MOL0     H58794   9.561  10.141   6.884  4.2415  0.2365 -1.9689
  436MOL0     H58795   9.317  10.092   6.986 -1.0934 -1.8893  1.5933
  436MOL0     H58796   9.356  10.113   6.805  0.4635 -0.4375 -0.7311
  436MOL0     H58797   9.100  10.073   6.884  1.1887  1.0746 -0.5837
  436MOL0     H58798   9.146   9.898   6.877 -0.2156  0.1120  0.8700
  436MOL0     H58799   9.205   9.935   6.642 -0.3770 -0.9186  0.2479
  436MOL0     H58800   9.145  10.107   6.657 -2.6287  0.2694 -1.9591
  436MOL0     H58801   8.973   9.891   6.725 -0.5579 -0.5540 -1.7212
  436MOL0     H58802   8.936  10.057   6.699  1.2697  0.7233 -1.4005
  436MOL0     H58803   9.031   9.864   6.473  0.4996 -0.0263 -0.3449
  436MOL0     H58804   8.861   9.899   6.509 -0.2178 -1.6356 -1.6074
  436MOL0     H58805   8.906  10.139   6.475 -2.2165 -2.4289  0.3981
  436MOL0     H58806   9.080  10.112   6.444  0.7673 -2.5765 -2.3649
  436MOL0     H58807   8.920  10.153   6.257 -0.4252 -0.4773 -2.3724
  436MOL0     H58808   8.853   9.990   6.280 -1.0343  0.1793  0.5602
  436MOL0     H58809   9.068   9.890   6.223  0.8040  0.3149  1.2835
  436MOL0     H58810   9.022  10.007   6.092  0.7554  0.5027  0.0643
  436MOL0     H58811   9.277   9.907   6.327 -1.2712 -0.0795 -0.2918
  436MOL0     H58812   9.472  10.176   6.471 -2.3377  1.5354 -2.5938
  436MOL0     H58813   9.505  10.004   6.425  1.1049 -0.9959 -0.7833
  436MOL0     H58814   9.592  10.228   6.227 -0.4674 -0.8352 -1.4268
  436MOL0     H58815   9.697  10.168   6.367  1.7264  0.6119 -3.0422
  436MOL0     H58816   9.612   9.990   6.131  0.2371 -0.7472 -0.1269
  436MOL0     H58817   9.662   9.927   6.282  1.7604 -0.5968  1.0055
  436MOL0     H58818   9.818  10.145   6.130 -1.0887 -0.7304 -2.7883
  436MOL0     H58819   9.812   9.975   6.080  1.5438  2.1226 -2.1598
  436MOL0     H58820  10.092   9.899   6.412  2.8168  0.3265  0.8161
  436MOL0     H58821  10.310   9.836   6.352  1.9612  1.3418 -1.0122
  436MOL0     H58822  10.626   9.653   5.998  1.1156  0.1320 -1.7940
  436MOL0     H58823  10.859   9.620   5.942  3.2680 -0.0335  0.8158
  436MOL0     H58824  11.141   9.700   5.890  2.5200  0.3693 -0.2476
  436MOL0     H58825  11.089   9.869   5.954  2.3074  0.1724 -1.0894
  436MOL0     H58826  11.280   9.854   6.106  0.7216  1.8062 -0.8070
  436MOL0     H58827  11.302   9.690   6.060  1.6632 -0.1371 -2.4182
  436MOL0     H58828  11.470   9.863   5.957  1.7780  1.2433 -2.5905
  436MOL0     H58829  11.377   9.755   5.836 -2.3153 -0.2559 -0.1170
  436MOL0     H58830  11.303  10.047   5.908  0.0370  0.6450 -0.8107
  436MOL0     H58831  11.256   9.953   5.763  0.3119  2.9781 -2.2936
  436MOL0     H58832  11.481   9.936   5.685  0.4511  0.7392 -0.2807
  436MOL0     H58833  11.550  10.035   5.821 -0.9563  0.1854  0.4106
  436MOL0     H58834  11.346  10.117   5.597  2.4655 -0.7038 -1.8563
  436MOL0     H58835  11.373  10.219   5.737  0.3566 -0.3426  0.9439
  436MOL0     H58836  11.576  10.114   5.549 -0.5796 -0.8375  2.0065
  436MOL0     H58837  11.602  10.250   5.652 -1.5055  0.4158  0.8361
  436MOL0     H58838  11.432  10.247   5.406  0.5627  0.3556 -1.1343
  436MOL0     H58839  11.419  10.379   5.522  0.8119 -0.3648 -0.4557
  436MOL0     H58840  10.969   9.855   6.278  1.8954  0.4605 -1.3686
  436MOL0     H58841  10.738   9.920   6.312 -1.7973  0.0013  0.6098
  436MOL0     H58842  10.244   9.992   5.942  1.6857  0.3132 -0.1199
  436MOL0     H58843  10.026  10.034   6.006  0.3280  1.2209 -0.8094
  436MOL0     H58844   9.499   9.726   7.007  2.7856 -0.6476  2.9688
  436MOL0     H58845   9.724   9.714   7.085 -3.6238 -1.5634  1.4065
  436MOL0     H58846  10.173  10.151   7.100 -2.7462 -0.4921  2.2789
  436MOL0     H58847  10.393  10.170   7.188  1.3763 -0.8560  0.7549
  436MOL0     H58848  10.532  10.173   7.385  0.0209 -0.5962  0.6145
  436MOL0     H58849  10.640  10.107   7.270 -1.0081 -3.7169 -2.0915
  436MOL0     H58850  10.653  10.072   7.571 -0.9082 -0.1150 -1.2299
  436MOL0     H58851  10.761  10.138   7.457 -1.7152  1.9504 -2.2477
  436MOL0     H58852  10.705   9.841   7.469 -0.6435  0.2358 -0.5256
  436MOL0     H58853  10.837   9.926   7.555 -0.0481 -0.3147 -0.6018
  436MOL0     H58854  10.794   9.885   7.250 -1.5291  0.7523  0.5532
  436MOL0     H58855  10.915  10.002   7.297 -2.4860  0.7036 -1.0471
  436MOL0     H58856  11.136   9.664   7.400  1.7021  1.7270 -0.3023
  436MOL0     H58857  10.319   9.789   7.400 -0.7152  2.0883  2.8041
  436MOL0     H58858   9.969   9.814   7.367 -0.4216  0.2257 -2.1398
  436MOL0     H58859  10.037   9.684   7.260  0.3013 -0.0641 -0.1418
  436MOL0     H58860  10.093   9.713   7.427 -2.8612 -0.1558  1.2127
  437MOL0     O58861   4.357   8.097   7.061 -0.0263  0.1336 -0.4170
  437MOL0     C58862   4.329   7.987   7.011  0.1325  0.0554 -0.2864
  437MOL0     O58863   4.391   7.870   7.045 -0.1714 -0.1137 -0.2143
  437MOL0     C58864   4.503   7.879   7.118  0.0458  0.9322 -0.4902
  437MOL0     C58865   4.618   7.914   7.053  0.2716  0.3161  0.7225
  437MOL0     C58866   4.741   7.903   7.115 -0.3290  1.1401  0.7971
  437MOL0     C58867   4.752   7.860   7.244  0.0042 -0.0063 -0.1700
  437MOL0     O58868   4.867   7.838   7.312  0.5989 -0.9911  0.0286
  437MOL0     C58869   4.968   7.939   7.312 -0.5727 -0.7817 -0.7594
  437MOL0     C58870   5.074   7.919   7.197  0.2923  0.7363 -0.1401
  437MOL0     C58871   5.184   8.024   7.204 -0.1261 -0.4818  0.0595
  437MOL0     C58872   5.329   7.967   7.207  0.5444 -0.2808 -0.1141
  437MOL0     C58873   5.422   8.070   7.259  0.3643 -0.1379  0.4702
  437MOL0     C58874   5.455   8.181   7.162  0.3354  0.1908  0.2761
  437MOL0     C58875   5.559   8.284   7.212 -0.1076  0.0839  0.0325
  437MOL0     C58876   5.544   8.415   7.124  0.3119 -1.3633  0.1431
  437MOL0     N58877   5.571   8.393   6.981 -0.0890  0.8097 -0.6544
  437MOL0     C58878   5.478   8.414   6.893  0.2895 -0.2969  0.8292
  437MOL0     C58879   5.532   8.377   6.769 -0.5820  0.0428 -0.5774
  437MOL0     C58880   5.474   8.348   6.637  0.2999 -0.9755 -0.2283
  437MOL0     C58881   5.318   8.371   6.623  0.2460  0.3057  0.7156
  437MOL0     C58882   5.238   8.252   6.683  0.6444  0.0321 -0.1598
  437MOL0     C58883   5.099   8.262   6.631 -0.4098 -0.0146 -0.9697
  437MOL0     O58884   5.023   8.166   6.706 -0.3584 -0.5817 -0.0485
  437MOL0     C58885   4.909   8.115   6.651  0.4151 -0.9782 -0.1647
  437MOL0     C58886   4.852   8.012   6.723  0.1867  0.2848 -0.7534
  437MOL0     C58887   4.735   7.947   6.690  1.4365 -0.3506 -0.6792
  437MOL0     C58888   4.672   7.985   6.570 -0.4869  0.7877 -0.5923
  437MOL0     C58889   4.553   7.911   6.531  0.1721  0.2836  0.4467
  437MOL0     O58890   4.538   7.772   6.536  0.4907 -0.1741 -0.6372
  437MOL0     C58891   4.412   7.736   6.502 -0.4997  0.5001  0.3315
  437MOL0     C58892   4.313   7.747   6.597  0.2537  0.0546  0.0224
  437MOL0     C58893   4.180   7.718   6.562 -0.7341  0.4076  0.2774
  437MOL0     C58894   4.151   7.660   6.444 -0.5759 -0.0427  0.4628
  437MOL0     O58895   4.020   7.619   6.440 -0.4060 -0.5948  0.1896
  437MOL0     C58896   3.975   7.560   6.319  0.6837  0.3780  0.1835
  437MOL0     C58897   3.905   7.656   6.232  0.5063 -0.7411  0.9510
  437MOL0     C58898   3.776   7.707   6.292  0.5835  0.0858 -0.7220
  437MOL0     C58899   3.682   7.790   6.202  0.0615  0.0752  0.8671
  437MOL0     C58900   3.559   7.711   6.154  1.0176  0.4918 -0.4768
  437MOL0     C58901   3.483   7.775   6.033  0.4377 -0.1515  1.2057
  437MOL0     C58902   3.353   7.705   5.994 -0.1335  0.0158  1.0503
  437MOL0     C58903   3.252   7.680   6.103 -0.5736 -0.3717 -0.0445
  437MOL0    Cl58904   3.117   7.590   6.029 -0.4329  0.4588  0.5617
  437MOL0     C58905   4.247   7.636   6.345 -0.9665 -0.2514  0.3043
  437MOL0     C58906   4.377   7.680   6.373 -1.1486 -0.0566  0.3667
  437MOL0     O58907   4.475   7.993   6.477  0.0819 -0.5097 -1.1195
  437MOL0     C58908   4.723   8.095   6.492  0.5341 -0.0662  0.7185
  437MOL0     C58909   4.846   8.159   6.528 -0.4923 -0.1500 -0.0162
  437MOL0     N58910   5.666   8.357   6.791 -0.4124  0.3142 -0.5354
  437MOL0     N58911   5.689   8.370   6.915 -0.2875  0.4665  0.0007
  437MOL0     C58912   4.634   7.828   7.310 -0.9938 -0.8898 -0.2118
  437MOL0     C58913   4.513   7.829   7.243 -0.1377 -1.1082 -0.3702
  437MOL0     C58914   4.211   7.995   6.925  0.2774 -0.2325 -0.2013
  437MOL0     C58915   4.185   8.107   6.838 -0.3137 -0.0187  0.0966
  437MOL0     C58916   4.067   8.121   6.766 -0.7507  0.6325  0.0607
  437MOL0     C58917   3.980   8.019   6.765 -0.3507  0.2341  0.2185
  437MOL0     O58918   3.857   8.046   6.720  0.7225 -0.7105 -0.5024
  437MOL0     C58919   3.800   7.979   6.610  0.0630  0.3991 -0.7626
  437MOL0     C58920   3.670   7.900   6.667  0.6584 -0.4865  0.6638
  437MOL0     C58921   3.567   8.003   6.714  0.7006 -0.2206  0.2872
  437MOL0     C58922   3.448   7.926   6.783  0.2619 -0.2954  0.1414
  437MOL0     C58923   3.369   8.032   6.853 -0.2874  0.5942  0.4031
  437MOL0     C58924   3.300   8.103   6.919 -0.4969  0.9999  0.2399
  437MOL0     C58925   4.015   7.899   6.822  0.5642 -0.0687 -0.2516
  437MOL0     C58926   4.124   7.888   6.905 -0.0676  0.3740 -0.2999
  437MOL0     C58927   4.134   7.754   6.966  0.7351  0.8819  0.4448
  437MOL0     H58928   4.610   7.945   6.949  1.7506 -1.3999  0.0426
  437MOL0     H58929   4.833   7.926   7.061 -0.3792  0.6338  0.4811
  437MOL0     H58930   4.929   8.041   7.314 -3.0433 -1.5882 -2.4074
  437MOL0     H58931   5.028   7.922   7.401  0.5622 -0.3007 -1.4177
  437MOL0     H58932   5.025   7.943   7.102 -2.1870 -1.1286  0.5554
  437MOL0     H58933   5.120   7.820   7.207 -0.7088  0.1145 -1.3747
  437MOL0     H58934   5.164   8.077   7.298  1.5213  0.1840  0.0568
  437MOL0     H58935   5.178   8.088   7.116  0.1354 -2.1541 -1.2244
  437MOL0     H58936   5.328   7.887   7.281  0.1049  1.5710  1.9656
  437MOL0     H58937   5.357   7.930   7.107 -2.4491 -0.5143 -0.9721
  437MOL0     H58938   5.382   8.111   7.352  1.1313  0.7196  0.4382
  437MOL0     H58939   5.517   8.029   7.296 -0.4081 -3.0613 -0.5435
  437MOL0     H58940   5.480   8.143   7.063 -2.0007 -4.6774  1.2555
  437MOL0     H58941   5.357   8.227   7.147 -1.2479 -2.9362  0.2957
  437MOL0     H58942   5.661   8.245   7.201  0.6724  2.3712 -1.7663
  437MOL0     H58943   5.542   8.312   7.316 -2.7492 -2.1831  0.3268
  437MOL0     H58944   5.450   8.467   7.142  1.7103  0.6803  2.1466
  437MOL0     H58945   5.631   8.476   7.150 -0.2063 -0.5135 -0.1064
  437MOL0     H58946   5.375   8.445   6.903  0.4800  0.4319  0.5508
  437MOL0     H58947   5.538   8.412   6.576  0.4556 -0.8642  0.0466
  437MOL0     H58948   5.494   8.242   6.617  1.5293 -0.9870  0.8851
  437MOL0     H58949   5.281   8.464   6.667  1.2280  1.0042  0.0923
  437MOL0     H58950   5.306   8.364   6.515  2.1899 -0.3736  0.4975
  437MOL0     H58951   5.231   8.248   6.792 -2.9687  0.3962 -0.2322
  437MOL0     H58952   5.292   8.159   6.663  1.0116 -0.4540  2.6234
  437MOL0     H58953   5.100   8.251   6.522  1.0348  4.8215 -1.7021
  437MOL0     H58954   5.058   8.361   6.649 -1.1302 -0.4517 -0.1653
  437MOL0     H58955   4.897   7.980   6.816  2.5313 -0.6394 -2.1028
  437MOL0     H58956   4.692   7.865   6.747 -3.4956  1.8931 -0.6947
  437MOL0     H58957   4.335   7.778   6.698  3.8463  1.2603 -0.9741
  437MOL0     H58958   4.101   7.711   6.635 -2.2046  0.2753 -1.2684
  437MOL0     H58959   4.047   7.500   6.263  0.0867 -0.1724 -0.0034
  437MOL0     H58960   3.904   7.483   6.351  0.5994 -0.0578 -1.0019
  437MOL0     H58961   3.970   7.739   6.201 -3.3925  1.8081 -1.3741
  437MOL0     H58962   3.879   7.615   6.134 -0.1828  1.4835  0.1450
  437MOL0     H58963   3.710   7.626   6.326 -0.5727  0.3700 -2.2007
  437MOL0     H58964   3.811   7.767   6.376  6.5013 -2.0092 -1.2680
  437MOL0     H58965   3.731   7.806   6.106  0.6297 -0.9873  0.9734
  437MOL0     H58966   3.651   7.886   6.246  4.1467  0.6601  3.0283
  437MOL0     H58967   3.498   7.712   6.244  0.7632 -5.1716 -0.2251
  437MOL0     H58968   3.590   7.609   6.130  2.5953  1.0942 -1.1767
  437MOL0     H58969   3.453   7.877   6.058  0.8772  0.5924 -1.1121
  437MOL0     H58970   3.545   7.781   5.944 -1.1117 -2.6715 -0.1668
  437MOL0     H58971   3.386   7.607   5.956  2.2659  0.5177  1.6989
  437MOL0     H58972   3.290   7.760   5.924 -2.2056 -0.5249  2.4009
  437MOL0     H58973   3.289   7.620   6.187 -2.1255  0.2323  1.1305
  437MOL0     H58974   3.211   7.778   6.131 -0.8226  0.7425 -3.7322
  437MOL0     H58975   4.232   7.588   6.249  1.1012  1.9890 -1.2621
  437MOL0     H58976   4.451   7.661   6.296 -0.5825 -2.6963  1.4435
  437MOL0     H58977   4.679   8.128   6.398  2.6796 -2.3411 -1.2229
  437MOL0     H58978   4.876   8.244   6.467 -0.7689 -0.2350 -0.2710
  437MOL0     H58979   4.625   7.802   7.415 -1.4555 -0.2077 -0.0695
  437MOL0     H58980   4.425   7.783   7.285  0.3411 -0.9192  0.8895
  437MOL0     H58981   4.247   8.196   6.839 -1.7700  1.0814 -1.3106
  437MOL0     H58982   4.041   8.215   6.718 -1.3886 -1.1769 -3.5346
  437MOL0     H58983   3.876   7.913   6.569  0.8205 -0.5998  1.9837
  437MOL0     H58984   3.775   8.061   6.543  0.4352  0.3054 -1.0156
  437MOL0     H58985   3.697   7.842   6.756 -0.1806 -0.1214  1.1655
  437MOL0     H58986   3.621   7.840   6.590  2.4094 -0.0458 -0.8583
  437MOL0     H58987   3.523   8.070   6.640  0.1574  0.2116  0.9980
  437MOL0     H58988   3.620   8.059   6.791 -0.1737  1.4125 -0.2440
  437MOL0     H58989   3.393   7.885   6.697 -0.4982  1.6566 -0.3642
  437MOL0     H58990   3.486   7.840   6.839  2.0193  0.6915  0.5146
  437MOL0     H58991   3.231   8.160   6.978 -0.3999  1.1873  0.1750
  437MOL0     H58992   3.948   7.814   6.809 -0.4628  0.7961 -0.8089
  437MOL0     H58993   4.209   7.694   6.913  1.3172 -0.3928  2.6031
  437MOL0     H58994   4.181   7.751   7.065 -0.2166 -0.8335  0.8829
  437MOL0     H58995   4.041   7.697   6.970  0.8341  0.7880  1.7398
  438MOL0     O58996   5.672   1.955   2.650  0.7036  0.2829 -0.4378
  438MOL0     C58997   5.653   1.915   2.764  0.3043  1.0160 -0.0533
  438MOL0     O58998   5.754   1.870   2.852  0.4162 -0.6622 -0.1455
  438MOL0     C58999   5.878   1.898   2.824 -0.4902 -0.8754  0.9929
  438MOL0     C59000   5.951   1.804   2.755 -0.0405 -0.2666  0.6752
  438MOL0     C59001   6.076   1.817   2.713  0.0088 -0.1712  0.1169
  438MOL0     C59002   6.142   1.940   2.742  0.3760  0.3189  0.6168
  438MOL0     O59003   6.273   1.967   2.710  0.3680  1.1575 -0.1592
  438MOL0     C59004   6.349   1.859   2.651 -0.0378  0.1719 -0.0731
  438MOL0     C59005   6.495   1.901   2.629 -0.0462 -1.2407 -0.8407
  438MOL0     C59006   6.592   1.790   2.593 -0.0099 -0.0591  0.3113
  438MOL0     C59007   6.733   1.833   2.602 -1.3155 -0.0996  0.3668
  438MOL0     C59008   6.816   1.710   2.578 -0.8522  0.4405  0.1427
  438MOL0     C59009   6.965   1.743   2.572  0.6162  0.6740  0.7337
  438MOL0     C59010   7.059   1.691   2.693 -0.8620  0.4943 -0.9410
  438MOL0     C59011   7.062   1.536   2.720  0.2494 -1.1221  0.4696
  438MOL0     N59012   7.148   1.494   2.823  0.7339 -0.0269  0.2340
  438MOL0     C59013   7.282   1.504   2.805  0.0034 -0.2215  0.4424
  438MOL0     C59014   7.334   1.476   2.927  0.6926  0.4394 -0.0911
  438MOL0     C59015   7.486   1.464   2.955  0.5499  0.3574 -0.7633
  438MOL0     C59016   7.563   1.594   2.925 -0.1446  0.3525 -0.1955
  438MOL0     C59017   7.712   1.565   2.907  0.1231 -1.1638  0.2434
  438MOL0     C59018   7.781   1.695   2.856  0.1413  0.1035  1.1744
  438MOL0     O59019   7.888   1.653   2.776 -0.5541  0.5131 -0.0831
  438MOL0     C59020   8.015   1.658   2.832  0.3692  0.2302  0.2897
  438MOL0     C59021   8.052   1.656   2.963 -0.2871  0.5176 -0.2204
  438MOL0     C59022   8.193   1.650   3.001  0.0272  0.5284 -0.4866
  438MOL0     C59023   8.292   1.656   2.904  0.5123 -0.3269  0.1045
  438MOL0     C59024   8.436   1.650   2.938 -0.3920  0.4837 -0.1382
  438MOL0     O59025   8.469   1.663   3.073  0.2088 -0.2585  0.0334
  438MOL0     C59026   8.592   1.629   3.107 -0.2333  0.1851 -0.4942
  438MOL0     C59027   8.703   1.719   3.081  0.6065  0.2778  0.8747
  438MOL0     C59028   8.826   1.687   3.118 -0.6331  0.9366 -0.6342
  438MOL0     C59029   8.859   1.563   3.187  0.0968 -0.7853 -0.2978
  438MOL0     O59030   8.982   1.529   3.217 -0.7754 -0.0865  0.5507
  438MOL0     C59031   9.051   1.604   3.321 -0.1341 -0.2169 -0.1150
  438MOL0     C59032   9.177   1.540   3.366 -0.7332  0.2753  0.1750
  438MOL0     C59033   9.284   1.533   3.254 -0.1928  0.6140  0.3114
  438MOL0     C59034   9.363   1.661   3.226 -0.2438 -0.1335  0.7651
  438MOL0     C59035   9.500   1.615   3.147  0.0363  0.2002  0.7952
  438MOL0     C59036   9.589   1.736   3.106  0.7152 -0.1853  0.0767
  438MOL0     C59037   9.719   1.688   3.036 -0.4490  0.0042 -0.3827
  438MOL0     C59038   9.840   1.689   3.140  0.4349 -0.3504  0.0758
  438MOL0    Cl59039   9.993   1.640   3.063  0.5635  0.2505 -0.1660
  438MOL0     C59040   8.751   1.471   3.199 -0.2465  0.0171  0.8212
  438MOL0     C59041   8.620   1.506   3.164 -0.4896 -0.0880 -0.2634
  438MOL0     O59042   8.513   1.635   2.846 -0.0840 -0.3327 -0.1652
  438MOL0     C59043   8.253   1.664   2.773  0.2901 -0.4620  0.2173
  438MOL0     C59044   8.114   1.654   2.738  0.3823  0.1281 -0.5685
  438MOL0     N59045   7.228   1.467   3.017  0.8497  0.1635 -0.4626
  438MOL0     N59046   7.115   1.487   2.951  0.3213  0.0787  0.9418
  438MOL0     C59047   6.081   2.029   2.821 -0.9349  0.2523  0.0232
  438MOL0     C59048   5.950   2.019   2.862  0.2316  0.3526  0.3951
  438MOL0     C59049   5.513   1.916   2.817  0.6633 -0.5997  0.3157
  438MOL0     C59050   5.405   1.920   2.716 -0.2308 -0.1310 -0.3360
  438MOL0     C59051   5.275   1.914   2.756 -0.0592  0.5287  0.8863
  438MOL0     C59052   5.236   1.922   2.885  0.6890 -0.7784 -0.6227
  438MOL0     O59053   5.108   1.921   2.918 -0.0149  0.1205 -0.0918
  438MOL0     C59054   5.033   2.044   2.935 -0.6416 -0.6381 -0.3738
  438MOL0     C59055   4.975   2.111   2.811 -0.5468  0.6514  0.5101
  438MOL0     C59056   4.824   2.150   2.811 -0.3722 -0.0140 -0.1725
  438MOL0     C59057   4.788   2.252   2.918 -0.0861  0.4644 -0.0728
  438MOL0     C59058   4.816   2.394   2.894  0.2978 -0.3325 -0.2027
  438MOL0     C59059   4.853   2.506   2.878 -0.4985  0.3718  0.3503
  438MOL0     C59060   5.337   1.932   2.977 -0.6875 -0.5411  0.1813
  438MOL0     C59061   5.473   1.940   2.942  0.7166 -0.4962  0.3618
  438MOL0     C59062   5.565   1.994   3.056 -0.1092  0.1379  0.4294
  438MOL0     H59063   5.902   1.709   2.736  2.2495 -1.4956  0.5255
  438MOL0     H59064   6.116   1.735   2.654 -0.9343  0.1816 -1.0452
  438MOL0     H59065   6.339   1.767   2.709 -3.8038  0.2899 -0.2857
  438MOL0     H59066   6.311   1.845   2.549 -1.4635  1.5253  0.2275
  438MOL0     H59067   6.523   1.948   2.723 -4.1317 -0.2625  0.0879
  438MOL0     H59068   6.500   1.977   2.550 -1.7318 -0.0878  0.0951
  438MOL0     H59069   6.563   1.746   2.497 -1.9706 -0.3722  1.0097
  438MOL0     H59070   6.573   1.702   2.654 -1.1078 -0.4452 -0.5516
  438MOL0     H59071   6.768   1.906   2.529  2.1141 -0.2367  1.6874
  438MOL0     H59072   6.766   1.881   2.695  1.6902 -1.4994  0.1468
  438MOL0     H59073   6.804   1.639   2.661  3.0914 -0.8712 -0.1933
  438MOL0     H59074   6.780   1.657   2.490  0.5119 -1.1546  0.4982
  438MOL0     H59075   7.013   1.693   2.488 -0.4501 -1.4113  1.2799
  438MOL0     H59076   6.973   1.850   2.553  1.9091 -0.0158 -3.5132
  438MOL0     H59077   7.038   1.736   2.790 -0.2237  0.1582 -0.6474
  438MOL0     H59078   7.160   1.723   2.665 -0.8263  0.3533 -0.9716
  438MOL0     H59079   6.962   1.493   2.732  0.6857 -3.0485 -2.0626
  438MOL0     H59080   7.100   1.497   2.626 -1.2191  2.2983 -1.7505
  438MOL0     H59081   7.337   1.512   2.711  1.2434  2.4215  1.3122
  438MOL0     H59082   7.502   1.440   3.061 -0.0723 -2.1180 -1.1743
  438MOL0     H59083   7.523   1.376   2.902  0.3382 -0.5184  0.4882
  438MOL0     H59084   7.523   1.626   2.828  2.6959  2.7109 -0.7307
  438MOL0     H59085   7.545   1.676   2.995 -1.0783 -0.4305  0.5065
  438MOL0     H59086   7.706   1.494   2.824 -3.6835 -0.8629  0.0464
  438MOL0     H59087   7.757   1.526   2.998  3.0606  4.4902  1.6792
  438MOL0     H59088   7.801   1.768   2.935  1.0391  0.1676  0.8988
  438MOL0     H59089   7.717   1.747   2.784 -0.3084 -1.2269  0.5838
  438MOL0     H59090   7.975   1.659   3.040 -0.4371 -0.4614 -0.3220
  438MOL0     H59091   8.222   1.642   3.105  0.8088 -3.2956 -0.8612
  438MOL0     H59092   8.698   1.817   3.034  1.5682  0.2536  0.6982
  438MOL0     H59093   8.896   1.767   3.096  0.7507  0.1869  0.7913
  438MOL0     H59094   9.067   1.708   3.290  0.6282  0.2209  1.6082
  438MOL0     H59095   8.972   1.616   3.395 -2.0715 -2.7614 -1.5788
  438MOL0     H59096   9.223   1.600   3.445 -2.6042  0.7245  0.9683
  438MOL0     H59097   9.151   1.443   3.409 -3.8248  1.0248  0.2101
  438MOL0     H59098   9.343   1.442   3.271 -0.4406  0.4773  0.4526
  438MOL0     H59099   9.222   1.501   3.170  0.8720 -2.4828  0.5981
  438MOL0     H59100   9.387   1.723   3.313 -0.4715  3.2963 -1.4592
  438MOL0     H59101   9.296   1.728   3.172 -0.2770 -0.0362  0.9264
  438MOL0     H59102   9.465   1.567   3.055 -2.5040 -1.1253  2.3493
  438MOL0     H59103   9.559   1.550   3.212 -2.1277 -2.4800  0.2609
  438MOL0     H59104   9.525   1.801   3.045  2.3364  0.9101 -0.5432
  438MOL0     H59105   9.614   1.792   3.196 -3.5184  0.6381  0.9517
  438MOL0     H59106   9.750   1.753   2.954 -0.8994 -1.4590 -1.7713
  438MOL0     H59107   9.711   1.592   2.985 -4.7747  1.1632 -2.3420
  438MOL0     H59108   9.853   1.795   3.161  0.2877 -0.2727 -0.2215
  438MOL0     H59109   9.815   1.635   3.232 -0.4183 -0.4520 -0.2114
  438MOL0     H59110   8.765   1.370   3.237 -3.8617 -0.6654  0.6422
  438MOL0     H59111   8.538   1.435   3.173 -0.3950 -0.1212  0.3883
  438MOL0     H59112   8.338   1.686   2.710  1.1286  0.8136  1.7048
  438MOL0     H59113   8.079   1.650   2.636 -1.8801  0.6648  0.1229
  438MOL0     H59114   6.148   2.110   2.848 -1.2204 -0.0495  1.7432
  438MOL0     H59115   5.896   2.099   2.910 -0.0538  3.2095 -4.1016
  438MOL0     H59116   5.431   1.941   2.613 -1.6256  1.8562 -0.3424
  438MOL0     H59117   5.196   1.910   2.682  0.2558  0.0681  0.5633
  438MOL0     H59118   5.104   2.110   2.985  3.4162 -3.0563 -2.4277
  438MOL0     H59119   4.949   2.017   2.999  0.3916  1.2457  1.9156
  438MOL0     H59120   4.985   2.057   2.716 -0.6698  1.2138  0.1725
  438MOL0     H59121   5.043   2.193   2.790  2.4233 -0.6647  4.0294
  438MOL0     H59122   4.759   2.062   2.812  1.3237 -1.3415  1.2226
  438MOL0     H59123   4.801   2.202   2.718  0.3061 -2.1284 -1.5823
  438MOL0     H59124   4.682   2.236   2.939  0.3251  0.0511  1.8903
  438MOL0     H59125   4.836   2.214   3.008  0.0756 -0.2911 -0.4767
  438MOL0     H59126   4.865   2.612   2.864 -3.8446  0.8522  0.2478
  438MOL0     H59127   5.313   1.934   3.083  1.2658 -1.8899  0.7056
  438MOL0     H59128   5.659   2.038   3.020 -0.8794  0.6133 -1.1076
  438MOL0     H59129   5.510   2.081   3.094 -0.3949 -0.2693  0.9603
  438MOL0     H59130   5.579   1.925   3.140 -1.7017  1.4654  1.8733
  439MOL0     O59131   0.973   8.472   6.553 -0.6271 -0.3195  0.6598
  439MOL0     C59132   0.863   8.526   6.538 -0.0209  0.7313  0.0744
  439MOL0     O59133   0.784   8.533   6.426  0.1011 -0.6484  0.1178
  439MOL0     C59134   0.839   8.563   6.307 -0.6662  0.9004 -0.1392
  439MOL0     C59135   0.924   8.470   6.239  0.0018 -0.1177 -0.2259
  439MOL0     C59136   0.969   8.496   6.117  0.6300 -0.1331  0.5260
  439MOL0     C59137   0.934   8.619   6.056 -0.3206  0.2558 -0.4174
  439MOL0     O59138   0.982   8.664   5.939  0.4634 -0.3751  0.6961
  439MOL0     C59139   1.046   8.568   5.854  0.7562 -0.3368 -0.2710
  439MOL0     C59140   1.089   8.629   5.726 -0.2675  0.3833 -0.2006
  439MOL0     C59141   1.194   8.735   5.749  0.0908  0.7038  0.2437
  439MOL0     C59142   1.334   8.680   5.736  0.1209  0.3074  0.5211
  439MOL0     C59143   1.361   8.670   5.584 -0.5174  0.0902 -0.6133
  439MOL0     C59144   1.500   8.679   5.540  1.1600  0.2132 -0.0077
  439MOL0     C59145   1.556   8.818   5.560 -0.1875 -0.5147 -0.4113
  439MOL0     C59146   1.710   8.821   5.546 -0.2855 -0.1378  0.1275
  439MOL0     N59147   1.762   8.802   5.412 -0.3327  0.0970 -0.1241
  439MOL0     C59148   1.779   8.688   5.336 -0.4177 -0.0012 -0.1804
  439MOL0     C59149   1.850   8.722   5.223  1.5641  0.4919  0.9580
  439MOL0     C59150   1.903   8.628   5.119  0.2267 -0.2906 -0.4944
  439MOL0     C59151   2.066   8.640   5.103  0.5694  0.1443  0.2911
  439MOL0     C59152   2.155   8.592   5.220 -0.0491  0.5338  0.7369
  439MOL0     C59153   2.149   8.662   5.358 -0.3022  0.5338 -0.0114
  439MOL0     O59154   2.223   8.574   5.446 -0.1766  0.0110  0.0998
  439MOL0     C59155   2.332   8.637   5.508  0.1735  0.8018 -0.3398
  439MOL0     C59156   2.312   8.761   5.567  0.0424  0.6363 -0.0201
  439MOL0     C59157   2.410   8.808   5.651 -0.3143 -1.3780 -0.1222
  439MOL0     C59158   2.541   8.746   5.654 -0.2933 -0.2891 -0.7809
  439MOL0     C59159   2.662   8.807   5.709  0.6282 -0.3188  0.2205
  439MOL0     O59160   2.779   8.774   5.652 -0.1407  0.2081 -0.0201
  439MOL0     C59161   2.898   8.805   5.704  0.3583 -0.5989 -1.0886
  439MOL0     C59162   2.941   8.745   5.830  0.3181 -0.0682  0.8249
  439MOL0     C59163   3.065   8.784   5.879 -0.6676  0.1930 -0.9182
  439MOL0     C59164   3.152   8.873   5.813  0.4048 -0.0662 -0.0252
  439MOL0     O59165   3.275   8.901   5.851 -0.7023  0.1388  0.2148
  439MOL0     C59166   3.325   8.850   5.977 -0.2646 -0.4136 -0.7137
  439MOL0     C59167   3.477   8.860   5.993  0.7765  0.1079 -0.3958
  439MOL0     C59168   3.536   8.996   5.963  0.2776  0.6694 -0.0075
  439MOL0     C59169   3.686   8.979   5.944  0.6532  0.7746 -0.2642
  439MOL0     C59170   3.761   9.083   6.025 -0.8599  0.7673 -0.7720
  439MOL0     C59171   3.915   9.057   6.038  0.4313  0.4118  0.8424
  439MOL0     C59172   3.991   9.037   5.904 -0.0627 -0.7527 -0.5886
  439MOL0     C59173   4.030   9.165   5.834  1.0154 -0.1432 -0.0049
  439MOL0    Cl59174   3.885   9.235   5.761  0.0935  0.7549 -0.4254
  439MOL0     C59175   3.112   8.919   5.690 -0.3033  0.7233  0.2692
  439MOL0     C59176   2.986   8.884   5.631  0.3576 -0.0217  0.4124
  439MOL0     O59177   2.641   8.843   5.816  0.2313  0.3139  0.0798
  439MOL0     C59178   2.560   8.627   5.589 -1.0089  0.4174  0.0280
  439MOL0     C59179   2.449   8.571   5.527 -0.8907  0.1518 -0.7881
  439MOL0     N59180   1.870   8.861   5.236  0.2688 -0.1240 -0.2283
  439MOL0     N59181   1.821   8.908   5.350  0.4283  0.9370  0.2601
  439MOL0     C59182   0.856   8.710   6.125  0.9930  0.4952 -0.2441
  439MOL0     C59183   0.806   8.683   6.253 -0.5182 -0.3010  0.2701
  439MOL0     C59184   0.781   8.540   6.667  0.2245 -0.6457  0.7386
  439MOL0     C59185   0.643   8.548   6.652  1.0177  0.0538 -0.1581
  439MOL0     C59186   0.557   8.551   6.761  0.4476 -0.5785 -0.6966
  439MOL0     C59187   0.603   8.562   6.893 -0.7549 -0.5124  0.6693
  439MOL0     O59188   0.527   8.588   7.004 -0.5561  0.4894 -0.0602
  439MOL0     C59189   0.388   8.588   6.995  0.7874  0.0341 -0.4939
  439MOL0     C59190   0.323   8.648   7.121  0.9268  0.1204  0.2237
  439MOL0     C59191   0.344   8.798   7.120 -0.0391  0.8539  0.1470
  439MOL0     C59192   0.265   8.872   7.233  0.1863 -0.3306 -0.3344
  439MOL0     C59193   0.326   8.864   7.365  0.3703 -0.1623 -0.1403
  439MOL0     C59194   0.381   8.869   7.467 -0.3291 -0.0568 -0.4480
  439MOL0     C59195   0.739   8.570   6.909  0.0008 -0.0495  0.0014
  439MOL0     C59196   0.836   8.552   6.803 -0.3604 -0.3632 -0.2186
  439MOL0     C59197   0.984   8.567   6.831 -0.4608  0.5518 -0.2684
  439MOL0     H59198   0.947   8.369   6.273 -2.4565 -0.4135  0.7850
  439MOL0     H59199   1.026   8.416   6.072  0.6652 -0.7386  1.6058
  439MOL0     H59200   1.133   8.524   5.904  1.2891 -0.7844 -1.5525
  439MOL0     H59201   0.972   8.489   5.837 -2.2667  1.9079  1.3941
  439MOL0     H59202   1.007   8.676   5.672 -0.8156  0.2610  0.5083
  439MOL0     H59203   1.124   8.542   5.670 -0.9148 -0.3048  0.4447
  439MOL0     H59204   1.171   8.783   5.845 -1.2709 -1.1908  0.9298
  439MOL0     H59205   1.182   8.813   5.673  1.0127  0.2546 -0.3667
  439MOL0     H59206   1.408   8.736   5.794  0.0782 -0.2838  1.1656
  439MOL0     H59207   1.339   8.580   5.780  1.0389  0.8005  1.5952
  439MOL0     H59208   1.317   8.572   5.561 -0.3758 -0.5602  1.5601
  439MOL0     H59209   1.321   8.746   5.518  0.6534 -0.9158 -2.5763
  439MOL0     H59210   1.546   8.599   5.599  1.7205  0.1314 -0.5419
  439MOL0     H59211   1.500   8.660   5.433 -1.3030 -2.0654  0.3078
  439MOL0     H59212   1.534   8.851   5.661 -0.9807  1.4990 -1.1886
  439MOL0     H59213   1.512   8.896   5.496 -0.7945  2.1734  3.0205
  439MOL0     H59214   1.738   8.919   5.586  3.3779 -0.6131 -0.8685
  439MOL0     H59215   1.761   8.743   5.603 -0.5580 -0.6851 -0.3648
  439MOL0     H59216   1.733   8.593   5.361 -0.9189  0.9853  3.0602
  439MOL0     H59217   1.872   8.523   5.130 -0.4616 -0.1376 -0.9131
  439MOL0     H59218   1.866   8.653   5.019  0.7082  0.0516 -0.5917
  439MOL0     H59219   2.081   8.580   5.013 -0.9263  2.7775 -1.8777
  439MOL0     H59220   2.091   8.744   5.081  3.7233 -0.2214  1.6035
  439MOL0     H59221   2.257   8.616   5.188 -0.5114  1.8981  0.2155
  439MOL0     H59222   2.143   8.487   5.248 -4.1026  0.8290  0.6629
  439MOL0     H59223   2.048   8.668   5.400 -0.1695  0.5056  0.3122
  439MOL0     H59224   2.182   8.766   5.356  0.1867  0.4074  0.9798
  439MOL0     H59225   2.217   8.813   5.565 -0.5984 -0.4959 -1.8140
  439MOL0     H59226   2.391   8.900   5.705  2.7097  0.2690 -1.6048
  439MOL0     H59227   2.872   8.680   5.882 -1.0418 -0.3452 -1.2075
  439MOL0     H59228   3.105   8.745   5.972  3.8879 -0.4778 -2.9020
  439MOL0     H59229   3.296   8.916   6.060 -0.7114  1.1704 -2.0722
  439MOL0     H59230   3.302   8.745   5.994  1.2333 -1.0279 -2.1911
  439MOL0     H59231   3.494   8.812   6.090  1.9577  0.3758 -0.4618
  439MOL0     H59232   3.514   8.787   5.921  1.2977 -0.0349  0.0105
  439MOL0     H59233   3.491   9.039   5.874  0.2286 -2.0152 -1.3838
  439MOL0     H59234   3.520   9.066   6.046 -2.6047 -0.3082  0.3986
  439MOL0     H59235   3.707   8.992   5.838  3.1799 -3.6927 -0.5763
  439MOL0     H59236   3.714   8.880   5.980  2.4476  0.4189 -2.4317
  439MOL0     H59237   3.711   9.089   6.122  1.2040  0.9521  0.3476
  439MOL0     H59238   3.737   9.177   5.974 -3.2597 -0.1182 -1.3985
  439MOL0     H59239   3.964   9.135   6.098  1.3906 -1.7584  3.0269
  439MOL0     H59240   3.939   8.968   6.096 -0.5913 -1.6283 -1.7023
  439MOL0     H59241   3.935   8.968   5.840 -0.0875 -2.7071  1.4351
  439MOL0     H59242   4.088   8.993   5.927 -0.3487 -0.1754  1.9986
  439MOL0     H59243   4.070   9.235   5.907 -0.3369 -0.5502  1.1736
  439MOL0     H59244   4.094   9.150   5.747 -0.1122 -2.8102 -0.4801
  439MOL0     H59245   3.177   8.979   5.628 -0.7433 -2.4468 -3.6486
  439MOL0     H59246   2.958   8.913   5.530  0.1552  0.2990  0.5570
  439MOL0     H59247   2.649   8.566   5.587 -1.5427 -0.4036  0.7223
  439MOL0     H59248   2.457   8.470   5.487 -0.7053  1.0084 -3.0617
  439MOL0     H59249   0.846   8.812   6.090  4.2414  1.1233  0.3314
  439MOL0     H59250   0.744   8.755   6.306  1.8959  1.1215  1.3357
  439MOL0     H59251   0.607   8.546   6.550 -0.6716  1.7189  0.3575
  439MOL0     H59252   0.450   8.552   6.742  0.8011 -0.1881 -2.9893
  439MOL0     H59253   0.346   8.488   6.982  0.1696  0.2789 -0.4156
  439MOL0     H59254   0.367   8.656   6.912  2.1563  1.2911  0.1433
  439MOL0     H59255   0.373   8.603   7.207 -0.2049  1.3535  1.5646
  439MOL0     H59256   0.219   8.618   7.111  1.3196 -0.8093 -1.5563
  439MOL0     H59257   0.326   8.849   7.026  2.5093  5.2125  1.7339
  439MOL0     H59258   0.450   8.815   7.140 -0.1851  1.4578  0.4511
  439MOL0     H59259   0.270   8.979   7.208  3.3827 -0.3047  0.1146
  439MOL0     H59260   0.159   8.844   7.240 -0.0702  0.2075 -1.5860
  439MOL0     H59261   0.417   8.885   7.567 -2.0757  1.3227 -0.0024
  439MOL0     H59262   0.781   8.580   7.009 -0.1449  1.2429 -0.0508
  439MOL0     H59263   1.020   8.633   6.751 -0.0327 -2.0760 -2.3877
  439MOL0     H59264   1.002   8.599   6.934  2.2476  0.2991 -0.5794
  439MOL0     H59265   1.027   8.468   6.815 -0.9943  0.2454  0.1738
  440MOL0     O59266   6.257   9.246   9.773 -0.1903  0.3022  0.1402
  440MOL0     C59267   6.339   9.194   9.856  1.1291  0.4063  0.5926
  440MOL0     O59268   6.320   9.186   9.992  0.3573  0.0340  0.5330
  440MOL0     C59269   6.247   9.274  10.071 -0.2285 -0.5787  0.6551
  440MOL0     C59270   6.109   9.287  10.061  0.3944 -0.9032  0.3895
  440MOL0     C59271   6.032   9.380  10.131  0.6766 -0.1030 -0.0897
  440MOL0     C59272   6.087   9.465  10.231  0.3786  0.9128  0.5977
  440MOL0     O59273   6.004   9.559  10.277 -0.5244 -0.4241  0.3263
  440MOL0     C59274   6.055   9.653  10.375  0.1526  0.3433 -0.8138
  440MOL0     C59275   6.030   9.594  10.519  0.0277  0.6966  0.7677
  440MOL0     C59276   5.877   9.580  10.550  0.1315  0.2641 -0.1927
  440MOL0     C59277   5.859   9.552  10.707 -0.9852  0.5929 -0.4633
  440MOL0     C59278   5.709   9.567  10.755  0.3414 -0.3198  1.1442
  440MOL0     C59279   5.707   9.520  10.896  1.2089  0.4184  0.3684
  440MOL0     C59280   5.569   9.540  10.959 -0.8838 -0.0275  0.4400
  440MOL0     C59281   5.547   9.475  11.091  0.2518 -0.1202  0.0811
  440MOL0     N59282   5.551   9.326  11.079 -0.4066  0.1784  0.2125
  440MOL0     C59283   5.446   9.259  11.020  0.3239  0.0564 -0.1890
  440MOL0     C59284   5.490   9.126  11.000  0.0688 -0.1445  0.6152
  440MOL0     C59285   5.413   9.003  10.941  0.1743 -1.1348  0.0761
  440MOL0     C59286   5.493   8.877  10.936 -0.8332 -0.1267 -0.6226
  440MOL0     C59287   5.446   8.749  11.009  0.3082 -0.6025  0.2859
  440MOL0     C59288   5.307   8.713  10.970 -0.3478 -0.2515  1.0285
  440MOL0     O59289   5.210   8.756  11.059 -0.7389 -0.4688  0.0948
  440MOL0     C59290   5.081   8.730  11.027 -0.3475 -0.2088  0.0648
  440MOL0     C59291   5.028   8.690  10.896  0.2676  0.8456 -0.2819
  440MOL0     C59292   4.892   8.659  10.883 -0.7338  0.0844 -0.1428
  440MOL0     C59293   4.802   8.658  10.996 -0.3316  0.8600 -0.8389
  440MOL0     C59294   4.660   8.613  10.985  0.3891  0.6480  0.3739
  440MOL0     O59295   4.593   8.562  11.094 -0.4269 -0.7305 -0.8408
  440MOL0     C59296   4.458   8.541  11.100  0.3014 -0.3339 -0.9617
  440MOL0     C59297   4.427   8.448  11.201  0.2731  0.0707 -0.8813
  440MOL0     C59298   4.296   8.391  11.217 -0.0291  0.2737 -0.4379
  440MOL0     C59299   4.198   8.440  11.135 -0.0574 -0.3022  1.1082
  440MOL0     O59300   4.076   8.397  11.170 -0.1659 -0.0363  0.7474
  440MOL0     C59301   3.970   8.440  11.082  0.1220  1.3231  0.4231
  440MOL0     C59302   3.838   8.376  11.133 -0.8196 -0.3497 -0.0557
  440MOL0     C59303   3.833   8.221  11.156 -1.3624 -0.4056 -0.0664
  440MOL0     C59304   3.709   8.177  11.224  0.4942  0.3196  0.1639
  440MOL0     C59305   3.707   8.017  11.223  0.2179 -0.7080 -0.4427
  440MOL0     C59306   3.571   7.969  11.280 -0.0260 -0.2508 -0.3396
  440MOL0     C59307   3.570   7.824  11.296 -0.3418  0.6540 -0.4278
  440MOL0     C59308   3.426   7.773  11.295  0.5260 -0.0057  0.6372
  440MOL0    Cl59309   3.426   7.594  11.310  0.2301  0.0526  0.0556
  440MOL0     C59310   4.226   8.543  11.038  0.0297  0.0785 -0.1508
  440MOL0     C59311   4.363   8.590  11.012 -0.1083 -1.0712 -0.4812
  440MOL0     O59312   4.607   8.634  10.875  0.0246  0.1166 -0.0119
  440MOL0     C59313   4.860   8.700  11.120  0.4120  0.3986 -0.4952
  440MOL0     C59314   4.987   8.739  11.137  1.0129  0.1962  0.5580
  440MOL0     N59315   5.628   9.128  11.027  0.1982  0.8234 -0.3175
  440MOL0     N59316   5.664   9.247  11.072  1.0311 -0.4053 -0.4071
  440MOL0     C59317   6.224   9.448  10.243  0.1464  0.6084  0.2877
  440MOL0     C59318   6.309   9.344  10.173  0.8311 -1.2600  0.3985
  440MOL0     C59319   6.474   9.146   9.811  1.3651 -0.1962 -0.4990
  440MOL0     C59320   6.575   9.145   9.909 -0.4775 -0.5288 -0.1027
  440MOL0     C59321   6.705   9.111   9.881 -0.0006 -0.4210  0.3579
  440MOL0     C59322   6.738   9.083   9.750  0.1222  0.2076  0.1464
  440MOL0     O59323   6.863   9.061   9.701 -0.3543  0.1801  0.1725
  440MOL0     C59324   6.973   9.063   9.789 -0.6726  0.3865 -0.4095
  440MOL0     C59325   7.095   8.999   9.723 -0.1906  0.8069  0.2177
  440MOL0     C59326   7.143   9.077   9.607 -0.2986  0.1202  0.6681
  440MOL0     C59327   7.258   8.999   9.532 -1.2914  0.7339 -0.3472
  440MOL0     C59328   7.367   8.987   9.630 -0.0003  0.2898 -0.1452
  440MOL0     C59329   7.463   8.960   9.695  0.6039 -0.1919  0.1111
  440MOL0     C59330   6.636   9.086   9.653 -0.2944  0.6773  0.9558
  440MOL0     C59331   6.505   9.117   9.678  0.4076  0.3991 -0.2505
  440MOL0     C59332   6.411   9.133   9.561 -0.7863 -0.3569 -0.8400
  440MOL0     H59333   6.065   9.233   9.977  0.3018  3.3815 -2.6682
  440MOL0     H59334   5.925   9.376  10.116  0.6815 -1.2479  0.1150
  440MOL0     H59335   6.162   9.665  10.360  0.7486 -0.3902  2.1554
  440MOL0     H59336   6.001   9.746  10.354 -1.1650 -0.1674  0.1683
  440MOL0     H59337   6.090   9.646  10.594 -0.2982 -0.8548  2.1708
  440MOL0     H59338   6.065   9.490  10.523 -4.1223 -0.8773  1.9013
  440MOL0     H59339   5.831   9.499  10.493 -1.5991  0.0183  1.4135
  440MOL0     H59340   5.820   9.666  10.514 -2.7184 -1.3520  0.1001
  440MOL0     H59341   5.900   9.452  10.727 -0.2168  0.3766 -2.8164
  440MOL0     H59342   5.925   9.616  10.766 -1.2696  0.6003 -0.1531
  440MOL0     H59343   5.695   9.675  10.743  3.4146 -0.0846 -2.0712
  440MOL0     H59344   5.640   9.523  10.683  0.8155 -1.2927  1.2610
  440MOL0     H59345   5.741   9.416  10.907  0.9566  0.5386  2.7199
  440MOL0     H59346   5.780   9.576  10.956  0.6902 -2.3250  3.9452
  440MOL0     H59347   5.494   9.498  10.891  0.2823 -2.4171  0.4924
  440MOL0     H59348   5.539   9.645  10.959 -0.6740  0.0586 -1.1028
  440MOL0     H59349   5.617   9.503  11.170 -0.9168  1.3527  0.6367
  440MOL0     H59350   5.451   9.512  11.130  0.3715  0.1380  0.1318
  440MOL0     H59351   5.346   9.297  10.999  0.4248  0.1733 -0.4681
  440MOL0     H59352   5.323   8.982  10.999  0.6295 -2.7684  0.2510
  440MOL0     H59353   5.372   9.034  10.845  0.9695  1.3368  0.4842
  440MOL0     H59354   5.504   8.860  10.829 -2.9294 -0.5209 -0.8155
  440MOL0     H59355   5.588   8.897  10.987 -2.0104  2.2363  0.8232
  440MOL0     H59356   5.447   8.755  11.119  0.2874 -2.5127  0.4308
  440MOL0     H59357   5.522   8.672  10.993  0.1264 -0.8567  0.6205
  440MOL0     H59358   5.296   8.604  10.968  0.0348 -0.2873 -0.6552
  440MOL0     H59359   5.284   8.756  10.872 -0.3533 -0.4951  0.9222
  440MOL0     H59360   5.091   8.679  10.809 -0.8357  0.3766 -1.0505
  440MOL0     H59361   4.867   8.636  10.780  1.4391 -0.9070 -0.4922
  440MOL0     H59362   4.505   8.407  11.265 -2.0338  0.9040  2.7884
  440MOL0     H59363   4.275   8.314  11.290 -2.8328 -0.5643 -2.0085
  440MOL0     H59364   3.960   8.548  11.089  4.4648  1.9194  0.1146
  440MOL0     H59365   3.994   8.399  10.984 -1.7837 -1.0619  0.8665
  440MOL0     H59366   3.812   8.434  11.222 -3.4939 -2.8106  0.9464
  440MOL0     H59367   3.767   8.398  11.053 -0.2353 -0.3442 -0.5774
  440MOL0     H59368   3.851   8.177  11.057  0.7179  0.3762 -0.0889
  440MOL0     H59369   3.914   8.186  11.221  0.2095  0.8238 -1.2648
  440MOL0     H59370   3.623   8.206  11.163 -1.4315 -4.0878  0.3900
  440MOL0     H59371   3.688   8.204  11.328  0.9846  4.1696 -0.6138
  440MOL0     H59372   3.793   7.984  11.283  2.4036  3.3731 -0.9398
  440MOL0     H59373   3.723   7.969  11.126  0.0204  1.3045 -1.5303
  440MOL0     H59374   3.535   8.011  11.374 -1.8320 -0.2962 -0.9665
  440MOL0     H59375   3.490   7.989  11.210 -0.4604  1.3018  0.5748
  440MOL0     H59376   3.614   7.799  11.393  0.4297 -2.1368 -1.4269
  440MOL0     H59377   3.624   7.773  11.216 -0.0528  0.6219 -0.2134
  440MOL0     H59378   3.366   7.827  11.369 -3.0928 -1.8762 -0.6497
  440MOL0     H59379   3.371   7.797  11.203  0.5284 -0.8993  0.3905
  440MOL0     H59380   4.145   8.588  10.982  0.8353  0.9651 -0.6542
  440MOL0     H59381   4.382   8.669  10.939  1.1994  0.0800  1.0420
  440MOL0     H59382   4.798   8.689  11.209 -0.3799  1.1330 -0.9484
  440MOL0     H59383   5.025   8.751  11.238  2.5509 -1.4847  0.2347
  440MOL0     H59384   6.279   9.498  10.322  0.3617 -0.2062  0.6641
  440MOL0     H59385   6.415   9.337  10.196  0.9758 -0.6441 -0.0424
  440MOL0     H59386   6.552   9.168  10.013 -1.9124  0.4475 -0.5915
  440MOL0     H59387   6.782   9.118   9.957 -1.9514 -3.3065  2.8641
  440MOL0     H59388   6.957   8.998   9.875  0.1661  1.6046  0.6993
  440MOL0     H59389   7.002   9.164   9.817 -1.4580  0.7451 -0.8228
  440MOL0     H59390   7.063   8.902   9.684 -2.5042  2.0470 -1.2085
  440MOL0     H59391   7.176   8.988   9.796  1.2347  0.6687 -1.3377
  440MOL0     H59392   7.187   9.175   9.625  2.3379 -0.6431 -1.0392
  440MOL0     H59393   7.068   9.096   9.529 -1.2117  0.6584  1.6579
  440MOL0     H59394   7.233   8.894   9.514 -0.5319  0.5475 -0.3496
  440MOL0     H59395   7.300   9.057   9.450 -0.3381 -2.5407 -2.3343
  440MOL0     H59396   7.550   8.934   9.753  0.8824 -0.6887 -0.5311
  440MOL0     H59397   6.671   9.085   9.551 -0.8041  4.0563  0.6240
  440MOL0     H59398   6.396   9.236   9.529 -0.6414  1.7406  4.6865
  440MOL0     H59399   6.455   9.071   9.482 -0.5389 -1.4626  0.1362
  440MOL0     H59400   6.313   9.092   9.584 -2.0175  2.7526 -0.0433
  441MOL0     O59401  10.519   1.724   8.146 -0.1347 -0.5794  0.8167
  441MOL0     C59402  10.460   1.814   8.081 -0.9695 -0.2378 -0.2484
  441MOL0     O59403  10.527   1.914   8.015 -0.1472  0.1271 -0.4827
  441MOL0     C59404  10.665   1.927   8.023 -0.5911 -0.1826  0.5157
  441MOL0     C59405  10.725   1.980   7.912 -0.3355  0.6363 -0.6627
  441MOL0     C59406  10.864   2.006   7.918  0.0200 -0.4358 -0.4653
  441MOL0     C59407  10.939   1.980   8.030  0.1362  0.0007  0.1613
  441MOL0     O59408  11.068   2.004   8.036 -0.2915 -0.1775  0.0120
  441MOL0     C59409  11.160   1.892   7.997  0.2331  0.4292  0.2292
  441MOL0     C59410  11.264   1.867   8.104 -0.8329  0.0909  0.0256
  441MOL0     C59411  11.398   1.937   8.074  0.4434 -0.2494 -0.2856
  441MOL0     C59412  11.500   1.893   8.176  0.9462  0.4218 -0.2781
  441MOL0     C59413  11.640   1.954   8.142  0.3724  0.0478 -0.1175
  441MOL0     C59414  11.720   1.989   8.263 -0.6614 -0.2880 -0.0989
  441MOL0     C59415  11.867   2.036   8.232 -0.2112  0.2352  0.0014
  441MOL0     C59416  11.962   2.035   8.354 -0.1824 -0.8521  0.0368
  441MOL0     N59417  12.094   2.087   8.312 -0.7249 -0.1589 -0.3413
  441MOL0     C59418  12.146   2.210   8.349  0.1632 -0.1216 -0.1788
  441MOL0     C59419  12.263   2.213   8.278  0.5649 -0.1398 -0.0657
  441MOL0     C59420  12.371   2.322   8.281  0.3309 -0.6799 -0.3850
  441MOL0     C59421  12.519   2.259   8.285  0.8205 -0.1699  0.5607
  441MOL0     C59422  12.600   2.377   8.341  0.1352  1.1464  0.2794
  441MOL0     C59423  12.750   2.337   8.359 -0.6904  0.7446 -0.2135
  441MOL0     O59424  12.772   2.222   8.443  0.0234 -0.9751  0.4912
  441MOL0     C59425  12.889   2.238   8.522 -0.3024  0.1335  0.2413
  441MOL0     C59426  12.997   2.323   8.488 -0.6014  0.4295  0.6476
  441MOL0     C59427  13.102   2.335   8.578  0.4452  0.5116 -0.7280
  441MOL0     C59428  13.088   2.290   8.714 -0.0264 -0.2940  0.3239
  441MOL0     C59429  13.193   2.329   8.818  0.1475 -0.5674 -0.0905
  441MOL0     O59430  13.184   2.286   8.945 -0.2590 -0.6175 -0.2835
  441MOL0     C59431  13.270   2.333   9.034  0.2851  0.2958  0.0775
  441MOL0     C59432  13.269   2.461   9.093 -0.0337  0.0955 -0.4827
  441MOL0     C59433  13.348   2.496   9.201 -0.1991  0.9709 -0.2652
  441MOL0     C59434  13.429   2.397   9.262 -0.1247 -0.3155 -0.5824
  441MOL0     O59435  13.516   2.428   9.359  0.2206 -0.4360 -0.6501
  441MOL0     C59436  13.592   2.339   9.439 -0.3775 -0.9727  0.3393
  441MOL0     C59437  13.704   2.421   9.502 -0.7251 -0.1888 -0.0086
  441MOL0     C59438  13.805   2.490   9.407 -0.0053 -0.1197 -0.2571
  441MOL0     C59439  13.897   2.411   9.317  1.1076  0.3218  0.0414
  441MOL0     C59440  13.968   2.294   9.374 -0.0401  0.4707 -0.7539
  441MOL0     C59441  14.046   2.326   9.501  0.1242 -0.0744 -0.1846
  441MOL0     C59442  14.125   2.207   9.558 -0.7630  0.7768 -0.3435
  441MOL0     C59443  14.202   2.232   9.689  0.5541 -0.3255 -0.5913
  441MOL0    Cl59444  14.079   2.273   9.811 -0.3514 -0.1422  0.1614
  441MOL0     C59445  13.432   2.269   9.202 -0.3759  0.7106 -0.7895
  441MOL0     C59446  13.361   2.243   9.087  0.5039 -0.8797  0.3051
  441MOL0     O59447  13.270   2.414   8.773  0.1218 -0.0832  0.5278
  441MOL0     C59448  12.984   2.206   8.747  0.1835  0.0035 -0.3668
  441MOL0     C59449  12.890   2.184   8.653 -0.0003  0.8209 -0.2201
  441MOL0     N59450  12.272   2.099   8.202 -0.2117 -0.2139  0.0246
  441MOL0     N59451  12.185   2.010   8.238  0.2539 -0.4521  0.5876
  441MOL0     C59452  10.877   1.912   8.135  0.0840  0.1312  1.3787
  441MOL0     C59453  10.736   1.895   8.137 -0.3295 -0.4501 -0.0112
  441MOL0     C59454  10.317   1.824   8.078  0.6791 -0.0588 -0.0255
  441MOL0     C59455  10.260   1.885   8.186  0.8744  0.2230 -0.0405
  441MOL0     C59456  10.116   1.892   8.192  0.3927 -0.6738  0.2874
  441MOL0     C59457  10.033   1.849   8.091  0.1025  0.3647 -0.8070
  441MOL0     O59458   9.893   1.847   8.088 -0.3681 -0.3233  0.6201
  441MOL0     C59459   9.815   1.924   8.187 -0.5715  0.3017 -0.4437
  441MOL0     C59460   9.666   1.900   8.170  0.0553  0.4126  0.1511
  441MOL0     C59461   9.613   1.932   8.030 -0.2652 -0.2328 -0.3150
  441MOL0     C59462   9.469   1.871   8.032 -0.5378 -0.7521 -0.7629
  441MOL0     C59463   9.375   1.946   8.111  0.2397 -0.8652 -0.3562
  441MOL0     C59464   9.294   2.021   8.164  0.0432  0.5193  0.4248
  441MOL0     C59465  10.096   1.772   7.995  0.7291 -0.2257  0.4536
  441MOL0     C59466  10.231   1.753   7.987  0.0671 -0.2622 -0.3456
  441MOL0     C59467  10.291   1.668   7.876 -0.4428 -0.1196  0.4902
  441MOL0     H59468  10.670   2.005   7.822 -1.6434  2.6997  0.6139
  441MOL0     H59469  10.909   2.068   7.841  2.2036 -1.7573 -0.3401
  441MOL0     H59470  11.105   1.798   7.991  2.9641 -1.3013  0.1367
  441MOL0     H59471  11.209   1.907   7.900  0.4034 -0.9742  0.0740
  441MOL0     H59472  11.291   1.761   8.109 -0.9130  0.1263  1.5315
  441MOL0     H59473  11.224   1.888   8.203 -2.1192  0.3373 -0.5334
  441MOL0     H59474  11.400   2.044   8.053  1.7593 -0.8121 -3.5727
  441MOL0     H59475  11.441   1.902   7.980 -1.7826 -2.6949 -0.5226
  441MOL0     H59476  11.473   1.945   8.269  0.0260  0.6965 -0.6944
  441MOL0     H59477  11.507   1.785   8.185  2.1829  0.4665 -0.5373
  441MOL0     H59478  11.692   1.888   8.072  0.1420  1.4143 -1.6121
  441MOL0     H59479  11.620   2.043   8.082 -0.0783  0.0210 -0.0085
  441MOL0     H59480  11.669   2.077   8.303  0.9842  1.3654 -1.4518
  441MOL0     H59481  11.718   1.896   8.319 -1.0361  0.1385  0.6092
  441MOL0     H59482  11.862   2.139   8.195  1.7042  0.6249  0.7177
  441MOL0     H59483  11.901   1.963   8.157 -1.4638 -0.8093  0.4096
  441MOL0     H59484  11.918   2.089   8.439  0.3822 -0.3551  0.0244
  441MOL0     H59485  11.971   1.929   8.377  0.2804 -0.3312  2.5177
  441MOL0     H59486  12.116   2.286   8.420  4.2101 -0.0631  1.7275
  441MOL0     H59487  12.362   2.379   8.188 -0.0609 -0.3996 -0.1766
  441MOL0     H59488  12.358   2.391   8.365  1.0913 -2.7076  1.5134
  441MOL0     H59489  12.528   2.167   8.344  2.8471 -0.0538  0.5284
  441MOL0     H59490  12.544   2.228   8.183 -3.4584 -0.5995 -0.5520
  441MOL0     H59491  12.564   2.411   8.439  0.1897 -0.5698  0.9385
  441MOL0     H59492  12.592   2.461   8.271  0.4741  1.0605  0.1376
  441MOL0     H59493  12.791   2.421   8.414 -2.2279  0.6209  1.1886
  441MOL0     H59494  12.793   2.323   8.259  1.1157  1.4441  0.4228
  441MOL0     H59495  13.006   2.364   8.389 -1.4506 -1.6071 -0.3445
  441MOL0     H59496  13.193   2.391   8.557  1.0961 -0.8732 -1.7978
  441MOL0     H59497  13.204   2.536   9.049 -3.1900 -1.3710  1.3071
  441MOL0     H59498  13.344   2.595   9.246  0.8951  0.5460  0.8046
  441MOL0     H59499  13.524   2.308   9.519 -0.7175 -0.0717  0.4162
  441MOL0     H59500  13.621   2.245   9.393 -1.3478 -1.0663 -0.1028
  441MOL0     H59501  13.649   2.503   9.549 -1.9303 -0.9476 -0.0461
  441MOL0     H59502  13.750   2.363   9.582 -0.8017  0.4377  0.4963
  441MOL0     H59503  13.748   2.560   9.346 -0.0753  3.6191  3.6691
  441MOL0     H59504  13.868   2.556   9.466  0.6509 -2.5227  1.9062
  441MOL0     H59505  13.970   2.481   9.277  0.5158  0.0148 -1.7051
  441MOL0     H59506  13.832   2.372   9.238  0.7361 -0.6441  0.7988
  441MOL0     H59507  14.030   2.260   9.290 -1.3852 -3.7195 -0.2930
  441MOL0     H59508  13.902   2.210   9.397  0.2755  0.1469 -1.0001
  441MOL0     H59509  14.115   2.406   9.472  0.9599 -1.0824 -1.0093
  441MOL0     H59510  13.972   2.362   9.573 -0.6730 -0.0877 -0.9757
  441MOL0     H59511  14.199   2.174   9.484  0.1128  1.1100  0.3772
  441MOL0     H59512  14.071   2.114   9.579  2.5311 -1.1234  0.4936
  441MOL0     H59513  14.249   2.143   9.730  1.4455  0.2872 -0.2643
  441MOL0     H59514  14.271   2.316   9.680  0.5474 -0.1416  0.7914
  441MOL0     H59515  13.501   2.189   9.227  0.1509  1.2808 -0.3903
  441MOL0     H59516  13.362   2.143   9.045 -1.0586 -1.0793  0.6587
  441MOL0     H59517  12.959   2.166   8.845 -0.6538 -1.0340 -0.9801
  441MOL0     H59518  12.799   2.127   8.674  0.2547  0.2334 -0.6954
  441MOL0     H59519  10.937   1.870   8.215  1.2166  0.6490  0.8093
  441MOL0     H59520  10.696   1.870   8.234 -0.0602  0.7411  0.4300
  441MOL0     H59521  10.319   1.923   8.269 -0.0803 -1.4279  1.4411
  441MOL0     H59522  10.066   1.927   8.281 -0.5710  0.2201 -0.5786
  441MOL0     H59523   9.847   2.029   8.185  0.0629  0.1836  1.2633
  441MOL0     H59524   9.847   1.890   8.286 -2.4979  0.1364  0.1572
  441MOL0     H59525   9.615   1.948   8.253 -0.2982  1.7847 -0.8159
  441MOL0     H59526   9.652   1.793   8.187 -1.2104  0.7393  1.3251
  441MOL0     H59527   9.667   1.874   7.954 -1.5537 -0.3203 -1.1898
  441MOL0     H59528   9.619   2.038   8.006 -0.1447 -0.2328 -0.2877
  441MOL0     H59529   9.433   1.857   7.930  0.3177 -1.2384 -1.0072
  441MOL0     H59530   9.482   1.769   8.070 -1.8204 -0.7051 -0.1447
  441MOL0     H59531   9.224   2.079   8.220  0.1213 -0.0914  1.1569
  441MOL0     H59532  10.033   1.726   7.920  1.9194 -1.8965  0.4160
  441MOL0     H59533  10.392   1.705   7.859 -0.2446 -0.4867  0.8527
  441MOL0     H59534  10.297   1.563   7.906 -0.2796 -1.0860 -2.5213
  441MOL0     H59535  10.239   1.670   7.779  2.3136  0.0657 -1.0996
  442MOL0     O59536   9.177  11.246   0.375 -0.8461  0.4349 -0.7544
  442MOL0     C59537   9.096  11.154   0.377 -0.1683 -0.3635  0.3125
  442MOL0     O59538   9.114  11.018   0.354 -0.4911  0.0778  0.5962
  442MOL0     C59539   9.240  10.956   0.336  0.5147 -0.4788  0.5967
  442MOL0     C59540   9.363  11.020   0.299  1.2777 -0.9151 -0.4435
  442MOL0     C59541   9.477  10.949   0.277  0.0262 -0.0308 -0.0211
  442MOL0     C59542   9.479  10.816   0.285 -0.6091 -0.4363 -0.1736
  442MOL0     O59543   9.591  10.747   0.253 -0.6393 -0.0948 -0.2961
  442MOL0     C59544   9.674  10.706   0.360  0.4527 -0.1106  0.7187
  442MOL0     C59545   9.788  10.792   0.369 -0.4668 -0.0077 -0.3457
  442MOL0     C59546   9.917  10.742   0.286  0.8062 -0.4827  0.0416
  442MOL0     C59547  10.042  10.821   0.319 -0.3870 -0.2646  1.0674
  442MOL0     C59548  10.160  10.756   0.253  0.1474 -0.2028 -0.0235
  442MOL0     C59549  10.285  10.836   0.265 -0.5787 -1.4922 -0.6128
  442MOL0     C59550  10.397  10.773   0.195 -0.5194  0.6293  0.3774
  442MOL0     C59551  10.420  10.625   0.232 -0.5270  0.7579  0.4646
  442MOL0     N59552  10.556  10.586   0.214 -0.4453  0.3220  0.3887
  442MOL0     C59553  10.656  10.603   0.302  0.5646  0.1943 -0.4023
  442MOL0     C59554  10.763  10.549   0.246  0.0174  0.3682  0.4383
  442MOL0     C59555  10.901  10.559   0.306 -0.4282 -0.5122  1.1753
  442MOL0     C59556  11.008  10.448   0.267 -0.1070 -0.0885  0.8190
  442MOL0     C59557  11.063  10.470   0.118  0.7678 -0.7592  0.2558
  442MOL0     C59558  11.162  10.361   0.067  0.5007 -0.0085  0.4719
  442MOL0     O59559  11.280  10.398   0.144  0.1534 -0.7706 -0.0285
  442MOL0     C59560  11.400  10.334   0.149 -0.2334 -0.2887  0.5417
  442MOL0     C59561  11.434  10.229   0.068  0.0866 -0.6764 -0.4739
  442MOL0     C59562  11.568  10.179   0.086  0.9891  0.7170  1.0716
  442MOL0     C59563  11.662  10.236   0.174 -0.3959  0.0857 -0.3416
  442MOL0     C59564  11.801  10.182   0.184 -0.3304  0.3011  0.1592
  442MOL0     O59565  11.878  10.253   0.274  1.1312 -0.5216  0.0197
  442MOL0     C59566  12.006  10.227   0.305  0.2333  0.0912 -0.3125
  442MOL0     C59567  12.062  10.330   0.383  0.7189 -0.0358  1.2398
  442MOL0     C59568  12.195  10.311   0.439  0.6017 -0.6941  0.7421
  442MOL0     C59569  12.254  10.191   0.423 -0.2325  0.3866 -0.1472
  442MOL0     O59570  12.380  10.182   0.465  0.3118 -0.0459 -1.3295
  442MOL0     C59571  12.469  10.109   0.377 -0.8666 -0.2086 -0.1410
  442MOL0     C59572  12.618  10.139   0.408  0.3242 -0.0312  1.2561
  442MOL0     C59573  12.654  10.292   0.386  0.5294  0.1835  0.1783
  442MOL0     C59574  12.799  10.333   0.429 -0.0202  0.2407  0.0972
  442MOL0     C59575  12.893  10.219   0.378  0.1140 -0.3909 -0.3247
  442MOL0     C59576  13.031  10.276   0.371  0.7227  0.6013 -0.2855
  442MOL0     C59577  13.089  10.329   0.503 -0.0690 -0.6807  0.0888
  442MOL0     C59578  13.240  10.351   0.504 -0.0286  0.6765  0.3767
  442MOL0    Cl59579  13.332  10.204   0.512  0.0478  0.6442 -0.1362
  442MOL0     C59580  12.197  10.082   0.365  0.3185  0.3031  1.1355
  442MOL0     C59581  12.072  10.098   0.303 -0.3473 -0.5518  0.0653
  442MOL0     O59582  11.841  10.096   0.107 -0.2056 -0.4232  0.6774
  442MOL0     C59583  11.614  10.344   0.247 -0.1623  0.9226 -0.1904
  442MOL0     C59584  11.486  10.388   0.239 -0.3114  0.0656  0.7310
  442MOL0     N59585  10.734  10.490   0.125  0.6283 -0.2144  0.0637
  442MOL0     N59586  10.606  10.500   0.117  0.8114 -0.2564 -0.5231
  442MOL0     C59587   9.362  10.743   0.330  0.9816  0.0056  0.2495
  442MOL0     C59588   9.247  10.820   0.353  0.6309  0.3249  0.0086
  442MOL0     C59589   8.950  11.199   0.385 -0.4100  0.0652 -0.1685
  442MOL0     C59590   8.847  11.104   0.378 -0.1434  0.0888 -0.7678
  442MOL0     C59591   8.711  11.129   0.372 -0.3964 -0.1863 -0.6811
  442MOL0     C59592   8.664  11.260   0.372 -0.2126  0.1892  0.6821
  442MOL0     O59593   8.532  11.282   0.382  0.4300  0.8831  0.9903
  442MOL0     C59594   8.471  11.413   0.344  0.0581 -0.4745  0.0907
  442MOL0     C59595   8.348  11.388   0.266  0.8282  0.5854  0.3003
  442MOL0     C59596   8.270  11.257   0.293 -0.8610  0.1231 -0.1956
  442MOL0     C59597   8.190  11.244   0.431  0.6686  0.0969 -0.4388
  442MOL0     C59598   8.070  11.326   0.431 -0.1510 -0.4254 -0.1247
  442MOL0     C59599   7.977  11.405   0.428 -0.2537  1.1807  0.3954
  442MOL0     C59600   8.763  11.362   0.384 -0.3146  0.1289 -0.2535
  442MOL0     C59601   8.900  11.333   0.391 -0.3280 -0.2571  1.2147
  442MOL0     C59602   8.991  11.451   0.400  0.4143 -0.3169  0.2482
  442MOL0     H59603   9.372  11.123   0.264 -2.8402 -1.3415 -3.4675
  442MOL0     H59604   9.568  10.995   0.239 -1.2038  3.6321  0.9943
  442MOL0     H59605   9.621  10.696   0.455 -1.0865 -1.7536 -0.2513
  442MOL0     H59606   9.708  10.605   0.335 -0.1087 -0.0587 -0.2837
  442MOL0     H59607   9.822  10.782   0.473 -3.6826 -1.6197  0.6736
  442MOL0     H59608   9.756  10.896   0.354 -2.2704 -0.6265 -1.0333
  442MOL0     H59609   9.901  10.755   0.179 -1.8464  3.2334  0.6751
  442MOL0     H59610   9.927  10.636   0.307  1.6350 -0.3876  0.1670
  442MOL0     H59611  10.034  10.919   0.270  1.5038 -1.1064 -1.1275
  442MOL0     H59612  10.060  10.826   0.426 -1.3189  1.4882  1.1843
  442MOL0     H59613  10.170  10.664   0.311  0.3725  1.0430  2.0381
  442MOL0     H59614  10.124  10.732   0.153 -2.1504 -2.2060  1.1726
  442MOL0     H59615  10.278  10.933   0.215 -3.6070 -2.2894 -1.9526
  442MOL0     H59616  10.310  10.864   0.367 -3.0103 -0.8665 -0.1269
  442MOL0     H59617  10.490  10.830   0.194 -1.5243  2.3617 -0.9402
  442MOL0     H59618  10.366  10.776   0.090 -3.9735 -3.8979  0.9659
  442MOL0     H59619  10.401  10.617   0.339  2.2036  0.5683  1.0163
  442MOL0     H59620  10.346  10.569   0.174 -1.9230  1.9600  1.0271
  442MOL0     H59621  10.644  10.670   0.386 -2.7718  1.1459 -1.4427
  442MOL0     H59622  10.947  10.652   0.273  0.8520 -1.1800  0.9867
  442MOL0     H59623  10.881  10.567   0.413  0.7804 -0.0593  1.3872
  442MOL0     H59624  11.092  10.458   0.336  0.9830  1.0613 -0.6175
  442MOL0     H59625  10.945  10.361   0.288 -0.2972 -0.3881 -0.8578
  442MOL0     H59626  11.099  10.573   0.111 -1.9941  0.3060  0.5562
  442MOL0     H59627  10.975  10.476   0.054 -0.4448  1.7845  1.9948
  442MOL0     H59628  11.178  10.382  -0.039  0.5982  1.7513  0.8047
  442MOL0     H59629  11.123  10.261   0.089 -2.0940  1.0079  0.8594
  442MOL0     H59630  11.368  10.193  -0.010 -2.0003  1.1528  0.3400
  442MOL0     H59631  11.594  10.104   0.012 -1.3316  0.8083  0.0748
  442MOL0     H59632  12.000  10.419   0.391  1.8893  0.8029  1.1443
  442MOL0     H59633  12.245  10.388   0.497  2.4474 -1.4315  0.1847
  442MOL0     H59634  12.467  10.000   0.386  1.5995 -0.2202  0.8047
  442MOL0     H59635  12.446  10.139   0.274 -2.0263  0.3629  0.2710
  442MOL0     H59636  12.629  10.111   0.513 -0.2224 -0.1582  1.2795
  442MOL0     H59637  12.682  10.080   0.341 -1.1228  1.3557 -1.4984
  442MOL0     H59638  12.647  10.314   0.280 -1.1422 -2.7352 -0.4409
  442MOL0     H59639  12.579  10.348   0.443 -0.5313 -0.4297 -0.5841
  442MOL0     H59640  12.800  10.328   0.538  0.1918  0.5833  0.1125
  442MOL0     H59641  12.826  10.431   0.389  3.1122 -0.9762 -1.0857
  442MOL0     H59642  12.867  10.182   0.279 -0.2663 -0.7992 -0.0790
  442MOL0     H59643  12.883  10.136   0.449  1.3392 -1.4204 -1.3004
  442MOL0     H59644  13.095  10.189   0.352 -0.2935 -0.0650 -0.8105
  442MOL0     H59645  13.033  10.356   0.297 -3.3825 -1.0075 -2.4770
  442MOL0     H59646  13.069  10.269   0.593  1.7111  1.5897  2.1439
  442MOL0     H59647  13.036  10.424   0.510  0.9454  0.2413 -3.2132
  442MOL0     H59648  13.273  10.406   0.415  3.4079 -1.5520  0.0833
  442MOL0     H59649  13.267  10.414   0.589 -0.2177  0.3055  0.7136
  442MOL0     H59650  12.249   9.987   0.352 -0.2324  0.1811 -0.2842
  442MOL0     H59651  12.030  10.007   0.260  3.2990 -2.4355  0.1274
  442MOL0     H59652  11.679  10.386   0.324 -0.4355 -1.7942  1.6576
  442MOL0     H59653  11.448  10.467   0.304 -1.3533  1.0133 -0.9456
  442MOL0     H59654   9.344  10.636   0.329 -0.0738  0.0815  2.7036
  442MOL0     H59655   9.154  10.769   0.375  0.4673 -0.2132 -1.7468
  442MOL0     H59656   8.875  10.999   0.372  0.0351  0.0483  0.4854
  442MOL0     H59657   8.642  11.046   0.366 -1.1053  0.1917  1.4499
  442MOL0     H59658   8.531  11.484   0.288 -0.9447 -1.9222 -3.0432
  442MOL0     H59659   8.428  11.465   0.431 -1.1396  1.3867 -1.5285
  442MOL0     H59660   8.371  11.390   0.159  0.2016 -3.7761 -0.0976
  442MOL0     H59661   8.287  11.475   0.294 -0.6699 -0.2585 -0.2400
  442MOL0     H59662   8.334  11.168   0.293  0.8659  1.1415  3.7859
  442MOL0     H59663   8.196  11.239   0.214  0.3919  0.7726 -1.5588
  442MOL0     H59664   8.154  11.143   0.450  0.2960 -0.0289 -1.7281
  442MOL0     H59665   8.268  11.278   0.501  0.8211 -1.6985  0.3184
  442MOL0     H59666   7.884  11.456   0.416 -0.4334  0.2907 -2.9858
  442MOL0     H59667   8.727  11.461   0.410 -0.0276  0.0180  0.6103
  442MOL0     H59668   9.051  11.463   0.309 -1.9537  1.3205 -1.2127
  442MOL0     H59669   8.931  11.541   0.417  1.1110 -0.0561  1.4734
  442MOL0     H59670   9.065  11.437   0.479 -0.8858 -1.0438  1.3881
  443MOL0     O59671   4.588   0.391   6.057 -0.3939  0.5364 -0.8803
  443MOL0     C59672   4.592   0.453   5.954 -0.0387  0.4017  0.7232
  443MOL0     O59673   4.705   0.476   5.883  0.4113 -0.2462  0.2845
  443MOL0     C59674   4.808   0.387   5.893 -0.6238  0.2240  0.3241
  443MOL0     C59675   4.931   0.449   5.850  0.3351 -0.4453 -0.4793
  443MOL0     C59676   5.054   0.386   5.874  0.7736 -0.3830 -1.0821
  443MOL0     C59677   5.058   0.254   5.926  0.7330 -0.2684 -0.6722
  443MOL0     O59678   5.181   0.199   5.950 -0.1052 -0.2937 -0.4633
  443MOL0     C59679   5.201   0.075   6.011 -0.5875  0.0552 -0.0424
  443MOL0     C59680   5.336   0.025   5.967  0.2055  1.0987 -0.3701
  443MOL0     C59681   5.339  -0.035   5.824 -0.5928  0.4770  0.5393
  443MOL0     C59682   5.473  -0.044   5.762 -0.0236 -0.5367  0.6319
  443MOL0     C59683   5.541  -0.178   5.786 -0.3328  0.3430 -0.4195
  443MOL0     C59684   5.683  -0.191   5.730  0.2026 -0.2529  0.0625
  443MOL0     C59685   5.741  -0.325   5.777  0.2148  0.2887 -0.1152
  443MOL0     C59686   5.887  -0.343   5.732 -0.2364  0.2689 -0.6748
  443MOL0     N59687   5.938  -0.457   5.805  0.2405 -0.2155 -0.2204
  443MOL0     C59688   5.954  -0.471   5.943  0.9206  0.0947 -0.6796
  443MOL0     C59689   5.973  -0.601   5.960  0.0699  0.2439  0.8593
  443MOL0     C59690   6.000  -0.664   6.095 -0.8176 -0.4360 -0.2458
  443MOL0     C59691   6.127  -0.747   6.106  0.6299  0.0148 -0.7841
  443MOL0     C59692   6.249  -0.652   6.141 -0.9330  1.3753  0.1408
  443MOL0     C59693   6.363  -0.748   6.192 -0.0522  1.0764 -0.2161
  443MOL0     O59694   6.314  -0.800   6.316  0.1863  0.3262  0.3135
  443MOL0     C59695   6.405  -0.862   6.398 -0.9493 -0.1250 -0.1836
  443MOL0     C59696   6.358  -0.984   6.442  0.1333 -0.5306  0.7521
  443MOL0     C59697   6.412  -1.057   6.538  0.6714 -0.7991 -1.5237
  443MOL0     C59698   6.544  -1.025   6.583  0.6010  0.8186 -0.1365
  443MOL0     C59699   6.610  -1.109   6.686 -0.4966 -0.0270  0.5002
  443MOL0     O59700   6.750  -1.077   6.724  0.5588 -0.4800 -0.0594
  443MOL0     C59701   6.814  -1.159   6.817  1.1138  0.2282  0.5960
  443MOL0     C59702   6.804  -1.297   6.807 -0.2461 -0.5210 -0.7077
  443MOL0     C59703   6.834  -1.376   6.914  0.2759 -0.6776 -0.0393
  443MOL0     C59704   6.887  -1.321   7.042  0.9200 -0.1237  0.1251
  443MOL0     O59705   6.913  -1.409   7.146 -0.4945  0.3810 -0.9891
  443MOL0     C59706   6.947  -1.368   7.273  0.1886  0.0592 -0.1013
  443MOL0     C59707   6.950  -1.491   7.371 -0.1590  0.0258 -0.3896
  443MOL0     C59708   6.964  -1.447   7.524 -0.0356 -0.0771 -0.5535
  443MOL0     C59709   6.970  -1.564   7.626 -0.2844 -0.1536  0.3814
  443MOL0     C59710   7.001  -1.503   7.766 -0.0661 -0.0513  0.3111
  443MOL0     C59711   7.008  -1.603   7.886 -0.1157  0.2035 -0.5256
  443MOL0     C59712   7.147  -1.662   7.897  0.6210 -0.4121 -0.6129
  443MOL0     C59713   7.151  -1.801   7.962 -0.0382  0.7066 -0.8841
  443MOL0    Cl59714   7.070  -1.923   7.863 -0.1763  0.3949  0.1465
  443MOL0     C59715   6.910  -1.188   7.040 -0.0474 -1.1475 -0.4770
  443MOL0     C59716   6.870  -1.109   6.929 -0.3648 -0.3202 -0.1899
  443MOL0     O59717   6.543  -1.207   6.726 -0.1176 -0.1256  0.7844
  443MOL0     C59718   6.602  -0.911   6.524 -0.4431  0.7837 -1.1453
  443MOL0     C59719   6.535  -0.830   6.432  0.0864 -0.0052  0.1414
  443MOL0     N59720   5.969  -0.670   5.835 -0.1369 -1.6382 -0.7551
  443MOL0     N59721   5.939  -0.579   5.743 -0.2732  0.5120 -0.4595
  443MOL0     C59722   4.936   0.185   5.937  0.8052  0.4186 -0.6076
  443MOL0     C59723   4.813   0.254   5.934 -0.8973  0.2668 -0.5953
  443MOL0     C59724   4.460   0.508   5.910  0.5232  0.2056 -0.5508
  443MOL0     C59725   4.337   0.463   5.980  0.0176  0.1334  0.4727
  443MOL0     C59726   4.210   0.523   5.958  0.0247 -0.6131 -0.0488
  443MOL0     C59727   4.199   0.629   5.867 -0.6118  0.4420 -0.0630
  443MOL0     O59728   4.078   0.691   5.823  0.5878 -0.3056 -0.7094
  443MOL0     C59729   3.947   0.632   5.863  0.2227  0.0871  0.5904
  443MOL0     C59730   3.837   0.707   5.773 -0.4984  0.4142 -0.5121
  443MOL0     C59731   3.695   0.666   5.794  0.3479 -0.2143 -0.1682
  443MOL0     C59732   3.606   0.733   5.691  0.2993  0.1451  0.2238
  443MOL0     C59733   3.597   0.877   5.721 -0.7790  0.5021 -0.7165
  443MOL0     C59734   3.563   0.983   5.758 -0.4449 -0.0734  0.6692
  443MOL0     C59735   4.321   0.683   5.812 -0.4670  0.3544 -0.5767
  443MOL0     C59736   4.446   0.629   5.834  0.8181  0.0373 -0.2067
  443MOL0     C59737   4.557   0.703   5.772  0.9647  0.2006  0.1654
  443MOL0     H59738   4.926   0.551   5.812 -0.5337  0.0437  0.8482
  443MOL0     H59739   5.146   0.441   5.860  1.1325 -0.5997  0.2331
  443MOL0     H59740   5.188   0.096   6.118 -0.7330 -1.4998  0.2671
  443MOL0     H59741   5.123   0.006   5.979 -0.2486 -0.1758 -0.3781
  443MOL0     H59742   5.371  -0.046   6.042 -3.3429  1.9188  2.2894
  443MOL0     H59743   5.411   0.105   5.975  1.3612  0.8296 -5.0977
  443MOL0     H59744   5.266   0.020   5.763  0.0010  0.3803 -0.2645
  443MOL0     H59745   5.307  -0.139   5.834 -0.8677  0.6903  2.2700
  443MOL0     H59746   5.466  -0.020   5.656 -2.7811  2.4258  1.3386
  443MOL0     H59747   5.533   0.039   5.802 -1.7876  1.4938 -0.7101
  443MOL0     H59748   5.539  -0.192   5.895 -2.8250  1.8054 -0.2032
  443MOL0     H59749   5.482  -0.260   5.745 -0.7552 -0.3628  1.4934
  443MOL0     H59750   5.671  -0.184   5.621 -3.6929  0.8722  0.3994
  443MOL0     H59751   5.744  -0.106   5.760  2.3773 -1.9485  0.7042
  443MOL0     H59752   5.679  -0.404   5.735  1.0879 -0.9548  0.8677
  443MOL0     H59753   5.741  -0.331   5.887  4.3541  0.3116  0.0434
  443MOL0     H59754   5.885  -0.346   5.623 -1.6198  0.9464 -0.6866
  443MOL0     H59755   5.937  -0.248   5.752  1.1984 -0.0051 -2.6631
  443MOL0     H59756   5.968  -0.394   6.018  2.9248 -0.1386 -0.7751
  443MOL0     H59757   6.015  -0.593   6.177  3.5934 -0.2722 -0.9270
  443MOL0     H59758   5.915  -0.727   6.123 -1.1082  0.6486  1.4488
  443MOL0     H59759   6.101  -0.815   6.188 -1.4032  0.9539 -0.5901
  443MOL0     H59760   6.146  -0.799   6.012  1.1030  2.2532 -2.0003
  443MOL0     H59761   6.220  -0.583   6.221 -3.9623  0.6987 -0.2756
  443MOL0     H59762   6.274  -0.585   6.058  2.5377 -0.1166 -0.1692
  443MOL0     H59763   6.458  -0.696   6.205  0.3970  0.8432 -2.3135
  443MOL0     H59764   6.377  -0.823   6.114  0.1742  0.5864  0.2840
  443MOL0     H59765   6.263  -1.020   6.403  0.0111 -1.3497  1.7751
  443MOL0     H59766   6.362  -1.135   6.595  0.3275  1.7127  1.9247
  443MOL0     H59767   6.759  -1.347   6.721  1.5742 -0.0608 -2.0047
  443MOL0     H59768   6.823  -1.484   6.903 -0.8725 -0.4402 -1.5052
  443MOL0     H59769   7.047  -1.324   7.283  0.5428 -0.4682 -1.1289
  443MOL0     H59770   6.870  -1.301   7.312  0.1822  0.0029 -0.0164
  443MOL0     H59771   6.854  -1.542   7.359  0.3132 -1.1366  0.5102
  443MOL0     H59772   7.024  -1.568   7.347  2.0252  1.2872  1.7929
  443MOL0     H59773   7.049  -1.379   7.519 -0.7924  0.8283 -4.4486
  443MOL0     H59774   6.874  -1.395   7.558 -1.4260 -3.4662  1.5144
  443MOL0     H59775   7.037  -1.644   7.593  0.6268  0.8351 -0.2423
  443MOL0     H59776   6.870  -1.606   7.638  0.0299 -0.3159  2.8702
  443MOL0     H59777   6.937  -1.417   7.791 -1.8002 -1.3213  0.4029
  443MOL0     H59778   7.100  -1.456   7.758  0.5212 -0.9173  2.0707
  443MOL0     H59779   6.985  -1.536   7.970 -0.7658  1.4741 -1.6868
  443MOL0     H59780   6.929  -1.678   7.884 -0.8242  0.7871  1.8511
  443MOL0     H59781   7.196  -1.599   7.972 -1.7061 -0.8207  1.3990
  443MOL0     H59782   7.202  -1.649   7.804 -1.8043  0.8559 -1.9833
  443MOL0     H59783   7.256  -1.824   7.981  0.0081  1.3059 -0.3614
  443MOL0     H59784   7.086  -1.780   8.047  1.4307  0.6574  0.2884
  443MOL0     H59785   6.947  -1.128   7.123  2.6336  1.8827 -3.5479
  443MOL0     H59786   6.867  -1.001   6.934  2.1311 -0.1881 -0.3213
  443MOL0     H59787   6.693  -0.880   6.574 -1.0293 -1.9113  1.9744
  443MOL0     H59788   6.595  -0.748   6.394 -1.5521  0.1318 -2.4317
  443MOL0     H59789   4.919   0.080   5.961 -1.8173  0.7197 -0.8970
  443MOL0     H59790   4.725   0.196   5.957 -0.1172 -0.2875  1.2014
  443MOL0     H59791   4.325   0.381   6.050 -2.5100  0.5119  0.5641
  443MOL0     H59792   4.120   0.484   6.005  1.0774 -1.6551  1.1923
  443MOL0     H59793   3.923   0.653   5.968 -1.0060 -2.6215  0.9329
  443MOL0     H59794   3.941   0.523   5.850 -2.0117  0.4087 -1.7448
  443MOL0     H59795   3.861   0.674   5.671  0.8652 -0.9393  0.2085
  443MOL0     H59796   3.844   0.815   5.784  0.1349  0.1299  3.2718
  443MOL0     H59797   3.661   0.694   5.893  0.0261 -1.1522  0.0025
  443MOL0     H59798   3.682   0.560   5.767 -1.8814  0.7556 -3.6051
  443MOL0     H59799   3.650   0.713   5.593  0.6523  0.7363  0.2566
  443MOL0     H59800   3.504   0.694   5.689  0.9755 -1.6792 -1.0829
  443MOL0     H59801   3.521   1.075   5.790 -1.4874  0.2475 -1.4493
  443MOL0     H59802   4.309   0.764   5.742  0.1155  0.0889 -0.9953
  443MOL0     H59803   4.617   0.747   5.852  1.3524 -1.1382  0.6239
  443MOL0     H59804   4.625   0.633   5.723  0.8912  0.0582  0.2685
  443MOL0     H59805   4.521   0.765   5.689 -0.8461 -3.5835 -2.1286
  444MOL0     O59806   5.783   0.250   6.765  0.5978 -0.3539  0.1261
  444MOL0     C59807   5.750   0.172   6.680  0.5301 -0.0145  0.4028
  444MOL0     O59808   5.805   0.179   6.555 -0.4953 -0.0564  0.3776
  444MOL0     C59809   5.940   0.177   6.554  0.5912  0.0179 -0.2540
  444MOL0     C59810   6.010   0.297   6.559 -0.5417  0.0300  0.4703
  444MOL0     C59811   6.151   0.293   6.537  0.3012 -0.6993  0.1332
  444MOL0     C59812   6.212   0.168   6.509 -0.2391 -0.0391  0.0543
  444MOL0     O59813   6.351   0.150   6.490 -0.6741  0.2353  0.2534
  444MOL0     C59814   6.433   0.238   6.560  0.4860 -0.2007 -0.3337
  444MOL0     C59815   6.582   0.223   6.527  0.2403  0.5063  0.4577
  444MOL0     C59816   6.673   0.305   6.617 -0.0584  0.1282 -0.6706
  444MOL0     C59817   6.739   0.208   6.711  0.7851  0.2612 -0.1277
  444MOL0     C59818   6.815   0.298   6.814  0.6538 -0.2740 -0.9208
  444MOL0     C59819   6.902   0.230   6.925 -0.3787 -0.5747 -0.9176
  444MOL0     C59820   7.006   0.321   6.984  0.8080 -0.6108 -0.7051
  444MOL0     C59821   6.958   0.463   7.018  0.0122 -0.5041 -0.5572
  444MOL0     N59822   6.999   0.516   7.151  0.1695  0.2769 -0.4936
  444MOL0     C59823   7.122   0.567   7.189 -1.0441  1.0984 -0.8054
  444MOL0     C59824   7.104   0.609   7.318  0.2914 -1.0164  0.1816
  444MOL0     C59825   7.219   0.657   7.405 -0.0028 -0.1765  0.7618
  444MOL0     C59826   7.339   0.558   7.405 -0.0708  0.6905  0.1548
  444MOL0     C59827   7.429   0.601   7.519 -0.5512  0.1094 -0.0112
  444MOL0     C59828   7.562   0.519   7.527  0.2709  0.8909 -0.1762
  444MOL0     O59829   7.626   0.558   7.649 -0.3227 -0.5413  0.2243
  444MOL0     C59830   7.761   0.513   7.665  0.2360 -0.2972 -0.4609
  444MOL0     C59831   7.834   0.436   7.574  0.1035 -0.4049 -0.9364
  444MOL0     C59832   7.972   0.403   7.600  0.5142  0.2626  0.6663
  444MOL0     C59833   8.029   0.427   7.726  1.7056 -0.3922  0.0674
  444MOL0     C59834   8.166   0.380   7.761  0.1544  0.5835  0.0509
  444MOL0     O59835   8.216   0.428   7.881 -0.3192 -0.9607  0.8356
  444MOL0     C59836   8.347   0.404   7.910 -0.4228  0.4833  0.2002
  444MOL0     C59837   8.371   0.383   8.048 -0.3288  0.1456 -0.0666
  444MOL0     C59838   8.500   0.357   8.101 -0.2389 -0.2086  0.1016
  444MOL0     C59839   8.604   0.346   8.008 -0.4216 -0.0637  0.3109
  444MOL0     O59840   8.735   0.337   8.045  0.5599  0.0966  0.5338
  444MOL0     C59841   8.771   0.268   8.163  0.1860 -0.2487  0.7697
  444MOL0     C59842   8.925   0.241   8.158  0.1795 -1.0532  1.0951
  444MOL0     C59843   8.956   0.112   8.087  0.2263  0.2920  0.0611
  444MOL0     C59844   9.107   0.080   8.111  0.7835 -1.0953  0.1802
  444MOL0     C59845   9.165  -0.031   8.023 -1.1522  0.2635 -0.2720
  444MOL0     C59846   9.321  -0.011   8.043 -0.2950 -0.1120 -0.0909
  444MOL0     C59847   9.388   0.091   7.937 -0.0361 -0.0213  0.3942
  444MOL0     C59848   9.541   0.077   7.946  0.0653 -0.1528 -0.5189
  444MOL0    Cl59849   9.598  -0.073   7.857  0.2536 -0.3109  0.4609
  444MOL0     C59850   8.582   0.363   7.877 -0.0898 -0.5049 -0.3540
  444MOL0     C59851   8.457   0.406   7.827 -0.4864  1.4848 -0.1268
  444MOL0     O59852   8.223   0.301   7.682  0.0404  0.0577  0.5040
  444MOL0     C59853   7.954   0.503   7.811  0.5161 -1.2515  0.0429
  444MOL0     C59854   7.816   0.540   7.789 -0.0015  0.3573  0.0962
  444MOL0     N59855   6.973   0.584   7.357  0.1030  0.0850  0.0975
  444MOL0     N59856   6.909   0.525   7.260  0.0327  0.2126  0.3302
  444MOL0     C59857   6.138   0.052   6.509  0.3969  0.5381  0.1547
  444MOL0     C59858   6.009   0.055   6.527  0.3666 -0.4834 -0.8346
  444MOL0     C59859   5.631   0.084   6.695  0.8742 -1.0009 -0.3094
  444MOL0     C59860   5.557   0.040   6.582  0.5404  0.0561 -0.6436
  444MOL0     C59861   5.431  -0.025   6.600 -0.9928 -0.4538 -0.7796
  444MOL0     C59862   5.367  -0.040   6.725 -1.4263 -0.6106  0.3847
  444MOL0     O59863   5.257  -0.113   6.730 -0.6285 -0.0525  0.1117
  444MOL0     C59864   5.143  -0.052   6.794 -0.3057  0.2400 -0.4493
  444MOL0     C59865   5.031  -0.027   6.698 -0.1060 -0.3190  0.1803
  444MOL0     C59866   4.974  -0.158   6.660  0.1351 -0.0676 -0.2576
  444MOL0     C59867   4.824  -0.187   6.693 -0.7957  0.6564 -0.1891
  444MOL0     C59868   4.721  -0.121   6.611 -0.1420 -0.5381  0.0573
  444MOL0     C59869   4.646  -0.049   6.553  0.1408 -1.3751  0.0999
  444MOL0     C59870   5.445   0.003   6.839 -0.7922 -0.0034  0.5675
  444MOL0     C59871   5.573   0.056   6.824 -0.6327 -0.2890  0.5282
  444MOL0     C59872   5.641   0.095   6.956  0.5968  1.0548  0.1040
  444MOL0     H59873   5.945   0.380   6.586 -1.7879 -0.5151 -0.7503
  444MOL0     H59874   6.204   0.388   6.533  0.3830 -0.3858  4.1359
  444MOL0     H59875   6.399   0.339   6.535 -1.6812 -0.6240  0.6669
  444MOL0     H59876   6.422   0.223   6.667 -0.4071  1.0855 -0.2191
  444MOL0     H59877   6.600   0.275   6.432  0.1274  0.0404  0.1751
  444MOL0     H59878   6.609   0.118   6.513  1.6602  0.7608  1.1300
  444MOL0     H59879   6.620   0.382   6.674 -0.2054  0.7814 -1.6636
  444MOL0     H59880   6.752   0.352   6.558 -0.0027  1.1186  0.1706
  444MOL0     H59881   6.660   0.147   6.755 -0.3333  0.6168 -1.5473
  444MOL0     H59882   6.811   0.137   6.669 -1.4017 -0.1955 -3.5094
  444MOL0     H59883   6.884   0.360   6.756  1.7134 -0.0339  0.5363
  444MOL0     H59884   6.743   0.358   6.871  1.8221 -0.9513  1.3856
  444MOL0     H59885   6.848   0.187   7.010 -1.7952  3.5467  0.4850
  444MOL0     H59886   6.956   0.145   6.882 -2.7437 -1.7981 -1.6006
  444MOL0     H59887   7.094   0.334   6.920  0.6096  0.6062 -0.7584
  444MOL0     H59888   7.046   0.280   7.078  0.1273 -2.5991 -1.2518
  444MOL0     H59889   6.974   0.543   6.946 -1.8829  0.6546  0.2136
  444MOL0     H59890   6.849   0.471   7.019 -0.1115  0.5457 -5.0188
  444MOL0     H59891   7.213   0.580   7.132 -0.4410  3.1186  0.4844
  444MOL0     H59892   7.233   0.759   7.367 -2.2706 -0.4052 -0.9369
  444MOL0     H59893   7.166   0.660   7.500  0.9987 -3.2664  1.5195
  444MOL0     H59894   7.304   0.462   7.444 -0.8020  1.7773  2.3842
  444MOL0     H59895   7.374   0.553   7.302 -2.4338  0.4284 -0.6961
  444MOL0     H59896   7.383   0.586   7.617 -0.3589  2.0730  0.4129
  444MOL0     H59897   7.462   0.705   7.515  1.3138 -0.4807 -2.5182
  444MOL0     H59898   7.621   0.541   7.438 -1.0698  0.4227 -1.2166
  444MOL0     H59899   7.534   0.413   7.522 -0.2466  0.8689  2.1321
  444MOL0     H59900   7.800   0.401   7.477  1.2299 -2.0251 -0.7863
  444MOL0     H59901   8.017   0.353   7.515  1.3162  0.9611  0.6701
  444MOL0     H59902   8.283   0.383   8.110 -0.5492 -0.6067 -0.3678
  444MOL0     H59903   8.509   0.343   8.208  0.0357  0.9073  0.2329
  444MOL0     H59904   8.740   0.326   8.250  0.5157 -1.1517  1.4953
  444MOL0     H59905   8.709   0.178   8.168 -1.2522  0.6689  0.3307
  444MOL0     H59906   8.971   0.329   8.112 -0.2484  0.3664  3.2141
  444MOL0     H59907   8.959   0.238   8.262  1.6760 -2.3711  0.5981
  444MOL0     H59908   8.901   0.029   8.131  0.4360  1.5250  2.8183
  444MOL0     H59909   8.942   0.129   7.980 -2.2012 -0.4885  0.1891
  444MOL0     H59910   9.119   0.049   8.215  0.4284 -1.2574  0.1738
  444MOL0     H59911   9.168   0.170   8.097  0.5233 -1.0830 -0.9632
  444MOL0     H59912   9.133  -0.024   7.919  3.5420  0.0399 -1.9631
  444MOL0     H59913   9.129  -0.124   8.067 -0.7587  1.0654  1.8783
  444MOL0     H59914   9.352  -0.004   8.147  0.8410  3.1067 -0.5184
  444MOL0     H59915   9.365  -0.102   8.001 -1.0186 -0.0215 -1.0827
  444MOL0     H59916   9.357   0.194   7.956 -0.8942 -0.1977 -0.0337
  444MOL0     H59917   9.344   0.066   7.840 -0.2264 -0.5984  0.6250
  444MOL0     H59918   9.589   0.165   7.901 -0.5829 -0.3487 -1.6256
  444MOL0     H59919   9.571   0.074   8.051 -0.2234 -0.6345 -0.4522
  444MOL0     H59920   8.668   0.359   7.811 -0.2671  2.4016 -0.9244
  444MOL0     H59921   8.454   0.424   7.720 -1.1633 -2.4650 -0.9324
  444MOL0     H59922   7.989   0.538   7.908 -0.0387  1.0593 -0.5117
  444MOL0     H59923   7.761   0.599   7.862  0.4676 -0.3994  1.0967
  444MOL0     H59924   6.188  -0.040   6.481 -0.5178  0.0564  0.0906
  444MOL0     H59925   5.957  -0.040   6.512  0.8021 -0.9432  0.4449
  444MOL0     H59926   5.593   0.051   6.480 -1.2895  1.1078 -1.2222
  444MOL0     H59927   5.388  -0.060   6.507 -0.5726  1.2910 -1.6856
  444MOL0     H59928   5.164   0.050   6.826  0.0143  0.3608 -1.0316
  444MOL0     H59929   5.106  -0.125   6.867  2.1573 -2.5002 -1.6799
  444MOL0     H59930   5.075   0.030   6.614  2.0831 -0.6001  1.0647
  444MOL0     H59931   4.953   0.040   6.735 -0.0646  1.1789 -2.1768
  444MOL0     H59932   5.028  -0.242   6.704 -0.0002 -1.3566 -2.4200
  444MOL0     H59933   4.979  -0.165   6.551 -1.4599  1.7703 -0.5007
  444MOL0     H59934   4.815  -0.293   6.667  2.2239  0.6524 -1.6416
  444MOL0     H59935   4.806  -0.172   6.799  0.4982  0.1865  0.1174
  444MOL0     H59936   4.584   0.019   6.499  1.0944 -0.8666 -0.3783
  444MOL0     H59937   5.415  -0.028   6.938 -1.6893 -1.6355 -0.1851
  444MOL0     H59938   5.637   0.204   6.966 -1.7773  1.4874 -3.5763
  444MOL0     H59939   5.595   0.047   7.043  0.2539 -1.7633 -1.5311
  444MOL0     H59940   5.748   0.080   6.946  0.6069  2.2877 -2.4391
  445MOL0     O59941   9.976   9.613   4.418  0.1280  0.3443 -0.3760
  445MOL0     C59942   9.895   9.673   4.487  1.6271  0.2527 -0.3160
  445MOL0     O59943   9.873   9.799   4.474 -0.3855  0.1750 -0.0932
  445MOL0     C59944   9.938   9.878   4.375 -0.6355  0.2117  0.0817
  445MOL0     C59945   9.864   9.972   4.306 -0.0991 -0.6187 -0.5298
  445MOL0     C59946   9.927  10.073   4.231 -1.2311 -0.0225  0.0093
  445MOL0     C59947  10.071  10.075   4.216  0.6186  0.3148 -0.5102
  445MOL0     O59948  10.135  10.163   4.130 -0.5770 -0.1883  0.3114
  445MOL0     C59949  10.263  10.217   4.163 -0.3831  0.2987 -0.4587
  445MOL0     C59950  10.296  10.338   4.066 -0.8694  0.2837 -0.1220
  445MOL0     C59951  10.435  10.402   4.100  0.0236  0.1117 -0.6798
  445MOL0     C59952  10.531  10.332   4.003 -1.1867 -0.6649 -0.2593
  445MOL0     C59953  10.673  10.351   4.051  0.2702 -0.0355 -0.4145
  445MOL0     C59954  10.707  10.500   4.043  0.1707 -0.2794 -0.8862
  445MOL0     C59955  10.852  10.534   4.061  0.3059 -0.4930 -0.1141
  445MOL0     C59956  10.885  10.500   4.208 -0.7031  0.4960  0.5779
  445MOL0     N59957  11.019  10.554   4.247 -0.5095  0.3196  0.3586
  445MOL0     C59958  11.051  10.687   4.263 -0.9585  0.9335 -0.0164
  445MOL0     C59959  11.186  10.690   4.282 -0.0786 -0.0798 -0.4184
  445MOL0     C59960  11.255  10.818   4.321 -1.1687  0.0734 -0.1898
  445MOL0     C59961  11.239  10.811   4.469  0.0612  0.6057  0.4369
  445MOL0     C59962  11.258  10.947   4.541  0.2439  0.6424 -1.2651
  445MOL0     C59963  11.405  10.997   4.533  0.6448 -0.2424  0.4570
  445MOL0     O59964  11.485  10.899   4.601 -0.1464  0.7681  0.5266
  445MOL0     C59965  11.619  10.908   4.579  0.4145 -1.1405  0.8232
  445MOL0     C59966  11.703  10.802   4.607 -0.5837  0.3550 -0.2303
  445MOL0     C59967  11.843  10.816   4.578 -0.4274 -0.3668 -0.1829
  445MOL0     C59968  11.899  10.919   4.512  0.7152 -0.0307  1.0568
  445MOL0     C59969  12.033  10.906   4.449 -0.7243 -0.2548  0.5507
  445MOL0     O59970  12.097  10.785   4.445  0.6805  0.3665 -0.4168
  445MOL0     C59971  12.218  10.776   4.387 -0.1325  0.7771  0.6089
  445MOL0     C59972  12.326  10.800   4.475 -1.1026 -0.5669 -0.0698
  445MOL0     C59973  12.457  10.787   4.426 -0.1579 -0.3260  0.4885
  445MOL0     C59974  12.487  10.751   4.289  0.0312 -0.0186 -0.7154
  445MOL0     O59975  12.612  10.745   4.231  0.3899 -0.3280  1.0023
  445MOL0     C59976  12.720  10.783   4.313  0.3679  0.4678  0.9801
  445MOL0     C59977  12.863  10.773   4.237 -0.0344  0.5840  0.0986
  445MOL0     C59978  12.980  10.824   4.326 -0.9360 -0.7504 -0.6901
  445MOL0     C59979  13.101  10.845   4.237  0.3152 -0.1531 -0.7813
  445MOL0     C59980  13.217  10.887   4.329  0.1682 -0.0069 -0.8037
  445MOL0     C59981  13.314  10.969   4.241 -0.4693  0.7382 -0.6079
  445MOL0     C59982  13.438  11.010   4.328 -0.2477 -0.5660  0.0547
  445MOL0     C59983  13.541  11.061   4.234 -0.3582 -0.4793 -0.4608
  445MOL0    Cl59984  13.622  10.925   4.151  0.1850  0.5327  0.0876
  445MOL0     C59985  12.377  10.735   4.212  0.1657 -0.2153  0.9001
  445MOL0     C59986  12.247  10.749   4.251  0.9097 -0.2121  0.8676
  445MOL0     O59987  12.079  11.005   4.393  0.2525  0.5473  0.7800
  445MOL0     C59988  11.817  11.036   4.491  0.8231 -0.2478 -0.7400
  445MOL0     C59989  11.679  11.029   4.522  0.1717 -0.2087  0.8254
  445MOL0     N59990  11.232  10.562   4.281  0.1676 -0.5478 -0.8081
  445MOL0     N59991  11.131  10.484   4.264 -0.7603 -0.8895  0.1699
  445MOL0     C59992  10.146   9.975   4.275  1.8887 -0.1719  0.7708
  445MOL0     C59993  10.078   9.881   4.363  0.3983 -0.4918  0.0268
  445MOL0     C59994   9.819   9.597   4.596  0.6515 -0.5869 -0.3203
  445MOL0     C59995   9.819   9.655   4.715 -0.0456  0.0953  0.1271
  445MOL0     C59996   9.752   9.595   4.821  0.6145  0.1893  0.4586
  445MOL0     C59997   9.677   9.482   4.802 -0.2299  0.0750  0.9221
  445MOL0     O59998   9.617   9.427   4.921 -0.2314 -0.1156  0.0924
  445MOL0     C59999   9.530   9.319   4.904  0.6922  0.1483 -0.7362
  445MOL0     C60000   9.487   9.285   5.048  0.4307 -0.7566 -0.1032
  445MOL0     C60001   9.380   9.382   5.092  0.0930  0.3118 -0.1634
  445MOL0     C60002   9.353   9.368   5.238  1.5206  0.3107 -0.1649
  445MOL0     C60003   9.270   9.250   5.271  0.1177  0.3252 -0.0122
  445MOL0     C60004   9.186   9.166   5.298  1.0185  0.1309 -0.4272
  445MOL0     C60005   9.664   9.430   4.679 -0.3610  0.7520  0.3912
  445MOL0     C60006   9.737   9.487   4.570  0.2269  1.0638  0.2302
  445MOL0     C60007   9.712   9.430   4.429  0.4309 -0.8127 -1.1064
  445MOL0     H60008   9.757   9.954   4.310 -0.3391  0.2017 -2.3593
  445MOL0     H60009   9.875  10.152   4.178 -1.3976 -0.0489  0.1302
  445MOL0     H60010  10.252  10.235   4.270 -1.6389  2.2650 -0.8758
  445MOL0     H60011  10.348  10.149   4.150 -1.2147 -1.1890  1.3487
  445MOL0     H60012  10.224  10.420   4.079  1.0798  1.8248  1.7698
  445MOL0     H60013  10.283  10.301   3.964  1.2113  1.5333 -0.8913
  445MOL0     H60014  10.459  10.383   4.206  0.3132 -1.7644 -1.0525
  445MOL0     H60015  10.428  10.508   4.075  1.3267 -0.3186 -3.1898
  445MOL0     H60016  10.509  10.226   3.998  0.6426 -1.0941 -0.0969
  445MOL0     H60017  10.522  10.355   3.896  3.0683  1.0819 -0.4658
  445MOL0     H60018  10.683  10.298   4.146 -2.1380 -1.3198 -0.7830
  445MOL0     H60019  10.726  10.294   3.974 -2.8899 -4.2391  0.1954
  445MOL0     H60020  10.669  10.544   3.951  0.6734 -1.7696 -1.8279
  445MOL0     H60021  10.651  10.532   4.131  1.9052 -3.3728  1.5624
  445MOL0     H60022  10.874  10.642   4.058 -0.8475 -0.2215  0.4563
  445MOL0     H60023  10.914  10.482   3.988  0.3368 -2.0084  0.9470
  445MOL0     H60024  10.807  10.549   4.266 -0.0759 -0.3855  2.2407
  445MOL0     H60025  10.885  10.392   4.225  2.7074 -0.3012 -2.8761
  445MOL0     H60026  10.980  10.769   4.255 -0.6989  1.2638  1.0000
  445MOL0     H60027  11.359  10.824   4.288 -0.6297  3.0369  1.6984
  445MOL0     H60028  11.200  10.896   4.267  0.2046  0.9691 -0.3600
  445MOL0     H60029  11.142  10.774   4.503  0.2544 -0.4771 -0.1380
  445MOL0     H60030  11.305  10.734   4.510  0.4458  0.0905 -1.0807
  445MOL0     H60031  11.226  10.936   4.645 -0.1273  0.5474 -1.3847
  445MOL0     H60032  11.181  11.020   4.514 -2.9015 -1.8040  0.3491
  445MOL0     H60033  11.406  11.093   4.584  1.2177 -1.4120  2.8210
  445MOL0     H60034  11.440  11.004   4.430  0.4848 -0.7468  0.3626
  445MOL0     H60035  11.657  10.713   4.650 -1.4857  2.1878  2.9504
  445MOL0     H60036  11.915  10.739   4.602  0.9903  0.8036 -0.5820
  445MOL0     H60037  12.315  10.834   4.578 -0.2796  0.4550 -0.2974
  445MOL0     H60038  12.530  10.834   4.492 -1.7328  2.3090  0.5066
  445MOL0     H60039  12.708  10.886   4.349  0.2784  0.7626  0.1325
  445MOL0     H60040  12.727  10.708   4.392  0.8231 -4.0773 -2.9479
  445MOL0     H60041  12.867  10.672   4.195 -1.2348  0.5204  0.1131
  445MOL0     H60042  12.856  10.844   4.153  3.3655  0.4164 -0.4807
  445MOL0     H60043  12.964  10.926   4.362  2.3451 -0.4881  0.3417
  445MOL0     H60044  13.001  10.750   4.405  0.9996  0.5853  0.1348
  445MOL0     H60045  13.065  10.915   4.161  0.5386  0.6222 -0.1892
  445MOL0     H60046  13.127  10.748   4.193  0.6927  1.2270 -3.8940
  445MOL0     H60047  13.269  10.803   4.375 -0.8890 -0.3586 -0.2146
  445MOL0     H60048  13.174  10.945   4.410 -1.0826 -2.6980  0.6120
  445MOL0     H60049  13.349  10.911   4.155 -2.4944 -0.0985 -0.9206
  445MOL0     H60050  13.268  11.058   4.198  0.4067  0.5701 -1.9368
  445MOL0     H60051  13.486  10.923   4.373  0.8263  1.0773  2.2551
  445MOL0     H60052  13.418  11.085   4.404  0.0310 -0.7619  0.3211
  445MOL0     H60053  13.504  11.132   4.160 -0.4507 -1.1121 -1.0390
  445MOL0     H60054  13.616  11.122   4.284 -0.6130  1.4307 -2.2885
  445MOL0     H60055  12.392  10.705   4.109  1.2129  0.0501  0.9579
  445MOL0     H60056  12.163  10.735   4.183  1.6706 -2.1410  0.2649
  445MOL0     H60057  11.840  11.135   4.454 -1.6947  0.4805 -0.5146
  445MOL0     H60058  11.624  11.122   4.510  1.6732  0.7124  0.7613
  445MOL0     H60059  10.252   9.966   4.253  1.8854 -1.7221  1.2898
  445MOL0     H60060  10.134   9.803   4.413  1.2680  0.5506  0.7223
  445MOL0     H60061   9.881   9.743   4.728 -1.1530  1.2398 -1.9574
  445MOL0     H60062   9.761   9.633   4.923  0.1247 -0.0199  0.5830
  445MOL0     H60063   9.575   9.230   4.860  1.5729  0.7541 -1.1067
  445MOL0     H60064   9.437   9.340   4.851  0.0738 -1.3319 -0.2810
  445MOL0     H60065   9.565   9.276   5.124  0.7710 -0.4903 -0.4175
  445MOL0     H60066   9.450   9.183   5.035 -1.7157  0.1884 -2.0452
  445MOL0     H60067   9.293   9.393   5.027  0.0517  0.2594 -0.1167
  445MOL0     H60068   9.437   9.475   5.080 -0.5238  0.8984  1.2816
  445MOL0     H60069   9.444   9.370   5.298  0.0778  4.0104  2.2724
  445MOL0     H60070   9.305   9.458   5.276  1.0645  0.9036 -2.0705
  445MOL0     H60071   9.116   9.091   5.326 -0.0776  1.7545  1.4870
  445MOL0     H60072   9.600   9.344   4.662  0.0775  0.9491 -2.8858
  445MOL0     H60073   9.619   9.373   4.433  1.3312 -2.2663  1.9517
  445MOL0     H60074   9.703   9.513   4.358 -1.2880  1.0009  1.0779
  445MOL0     H60075   9.791   9.359   4.404  0.2565 -2.7992  3.1680
  446MOL0     O60076   2.531   1.286   9.797 -0.7534  0.2468 -0.2426
  446MOL0     C60077   2.517   1.325   9.915 -0.2337 -0.3710 -0.6045
  446MOL0     O60078   2.601   1.301  10.020 -0.1971  0.6332 -0.5713
  446MOL0     C60079   2.739   1.297   9.998  0.7502 -0.6210 -0.1218
  446MOL0     C60080   2.812   1.203  10.056  0.5070 -0.1510 -1.3110
  446MOL0     C60081   2.951   1.191  10.046 -0.5850 -1.2120 -0.9014
  446MOL0     C60082   3.026   1.289   9.979  0.6157 -0.6014  0.6191
  446MOL0     O60083   3.167   1.278   9.979  0.3595  0.4639 -0.0959
  446MOL0     C60084   3.241   1.396   9.960 -0.1636 -0.9942  0.0083
  446MOL0     C60085   3.308   1.384   9.819  0.6434 -0.4810  0.2737
  446MOL0     C60086   3.434   1.290   9.827 -1.0735  0.1632 -0.4458
  446MOL0     C60087   3.548   1.368   9.883 -0.2898 -0.0640  0.0848
  446MOL0     C60088   3.687   1.318   9.850  0.6361 -0.6517  0.4625
  446MOL0     C60089   3.793   1.410   9.905  0.6449  0.4502 -0.3990
  446MOL0     C60090   3.927   1.370   9.832 -0.2378 -0.8355  0.0004
  446MOL0     C60091   4.048   1.446   9.888 -0.0467 -0.6786 -0.4423
  446MOL0     N60092   4.177   1.422   9.822  0.2868 -1.5618  0.4657
  446MOL0     C60093   4.204   1.376   9.699 -0.1728 -0.0225  0.3661
  446MOL0     C60094   4.334   1.401   9.677  0.1225  0.0617 -0.5218
  446MOL0     C60095   4.382   1.373   9.546 -0.4048  0.1999 -0.2279
  446MOL0     C60096   4.472   1.487   9.502 -0.2510 -0.4716 -0.4551
  446MOL0     C60097   4.518   1.468   9.358 -0.3352  0.0652 -0.8817
  446MOL0     C60098   4.579   1.597   9.316 -0.0138 -0.2513 -0.5408
  446MOL0     O60099   4.683   1.639   9.401 -0.3313 -0.2113 -0.1258
  446MOL0     C60100   4.817   1.626   9.356  0.5010 -0.3387  0.5821
  446MOL0     C60101   4.900   1.551   9.427 -0.6966 -0.5410 -0.5299
  446MOL0     C60102   5.023   1.524   9.389 -0.3393  0.3005  0.2869
  446MOL0     C60103   5.079   1.560   9.262  0.0255  0.3958  0.5399
  446MOL0     C60104   5.211   1.513   9.217 -0.6469 -0.5299  0.6301
  446MOL0     O60105   5.273   1.573   9.108  0.0212  0.5549 -0.2129
  446MOL0     C60106   5.400   1.542   9.085 -1.0397 -0.0987 -0.1594
  446MOL0     C60107   5.480   1.438   9.124 -0.3473  0.2004  0.1330
  446MOL0     C60108   5.613   1.416   9.065 -0.3935 -0.1811 -0.4372
  446MOL0     C60109   5.668   1.515   8.996 -0.1144  0.0966  0.5105
  446MOL0     O60110   5.793   1.501   8.941 -0.2606  0.5223 -0.0199
  446MOL0     C60111   5.878   1.389   8.973 -0.7145 -0.2363  0.1027
  446MOL0     C60112   6.020   1.405   8.917 -0.7042 -0.3177  0.1106
  446MOL0     C60113   6.097   1.269   8.919 -1.1758  0.1932  0.8603
  446MOL0     C60114   6.251   1.293   8.890  0.2455 -0.4914  0.1641
  446MOL0     C60115   6.335   1.204   8.968 -0.4405  0.2871 -0.1088
  446MOL0     C60116   6.487   1.237   8.968  0.1542 -0.7276  0.6636
  446MOL0     C60117   6.535   1.255   8.824 -0.9916 -0.2162  0.3929
  446MOL0     C60118   6.683   1.213   8.833  0.0181 -0.2591 -0.7008
  446MOL0    Cl60119   6.769   1.275   8.691  0.6948 -0.4194 -0.1664
  446MOL0     C60120   5.600   1.624   8.956 -0.9012  0.9059 -0.6087
  446MOL0     C60121   5.462   1.632   8.993 -0.0933  0.0569  0.4855
  446MOL0     O60122   5.264   1.439   9.299 -0.1747  0.2360  0.3936
  446MOL0     C60123   4.999   1.643   9.186  0.2020  0.5543  0.7411
  446MOL0     C60124   4.869   1.671   9.233 -0.2176 -0.4058  0.3721
  446MOL0     N60125   4.395   1.448   9.789 -0.2312  0.1646  0.0965
  446MOL0     N60126   4.299   1.451   9.873  0.3436 -1.1361  0.5643
  446MOL0     C60127   2.952   1.380   9.906  0.5217  0.2364 -0.7986
  446MOL0     C60128   2.810   1.388   9.925  0.4160 -0.3356  0.5785
  446MOL0     C60129   2.381   1.362   9.963 -0.1431 -0.3209  0.2517
  446MOL0     C60130   2.336   1.321  10.091  0.7870 -0.1772 -0.1941
  446MOL0     C60131   2.214   1.369  10.144  0.2781  0.2532 -0.1063
  446MOL0     C60132   2.125   1.454  10.072 -0.3072  0.1056 -0.5163
  446MOL0     O60133   2.018   1.501  10.145 -0.1458 -0.2495 -0.0843
  446MOL0     C60134   1.941   1.614  10.089  0.2180 -0.1747 -0.4184
  446MOL0     C60135   1.821   1.561  10.018 -0.3251 -0.8118  0.1822
  446MOL0     C60136   1.688   1.562  10.100  0.0610  0.6814 -0.3251
  446MOL0     C60137   1.602   1.437  10.096  0.1872 -0.0304  0.0620
  446MOL0     C60138   1.492   1.444  10.188  0.3681  0.0752  0.8729
  446MOL0     C60139   1.401   1.441  10.265  0.9635  0.4186  0.0042
  446MOL0     C60140   2.172   1.497   9.944  0.5681  0.4346  0.7151
  446MOL0     C60141   2.296   1.454   9.882 -0.2590  0.0754 -0.6810
  446MOL0     C60142   2.334   1.506   9.748  0.5430 -0.2800 -0.6320
  446MOL0     H60143   2.753   1.135  10.116 -0.6353  1.0740 -0.9860
  446MOL0     H60144   3.007   1.122  10.108  2.8293  1.4393 -0.7025
  446MOL0     H60145   3.195   1.493   9.981 -0.1144 -1.2850  1.5850
  446MOL0     H60146   3.318   1.403  10.037 -0.2414 -0.7388  0.0641
  446MOL0     H60147   3.335   1.483   9.780 -0.5040  0.0291  0.7388
  446MOL0     H60148   3.241   1.341   9.743  2.4382  1.1405 -2.4148
  446MOL0     H60149   3.474   1.267   9.727  1.9252 -1.7043  1.0368
  446MOL0     H60150   3.408   1.194   9.873 -0.5503 -0.4760 -1.4376
  446MOL0     H60151   3.555   1.474   9.855  3.4219 -0.0555  0.5252
  446MOL0     H60152   3.534   1.365   9.991  2.5815 -2.5813  0.5235
  446MOL0     H60153   3.697   1.211   9.872 -2.0368 -0.6571  2.0077
  446MOL0     H60154   3.694   1.320   9.741 -0.7104 -1.4093  0.3427
  446MOL0     H60155   3.764   1.513   9.881  0.1732  0.2933 -0.5085
  446MOL0     H60156   3.791   1.402  10.014  1.8403  2.3010 -0.1854
  446MOL0     H60157   3.935   1.405   9.729  0.0863  1.2994  0.7025
  446MOL0     H60158   3.951   1.263   9.842  0.5609 -0.5350  1.8373
  446MOL0     H60159   4.015   1.550   9.900 -0.3059 -0.7738 -0.3104
  446MOL0     H60160   4.049   1.410   9.992 -1.6914 -1.5600 -0.7073
  446MOL0     H60161   4.133   1.330   9.631 -0.5777  0.4121  0.4858
  446MOL0     H60162   4.427   1.274   9.547  2.3650  1.3736  0.5390
  446MOL0     H60163   4.303   1.370   9.470  0.0949 -0.0729 -0.7411
  446MOL0     H60164   4.411   1.577   9.513 -0.9693 -1.0133  0.1004
  446MOL0     H60165   4.553   1.482   9.575 -1.8618 -2.3782  1.3152
  446MOL0     H60166   4.431   1.435   9.301 -1.5271 -0.5515  1.1847
  446MOL0     H60167   4.584   1.381   9.358  1.3874  1.3227 -0.6408
  446MOL0     H60168   4.501   1.673   9.320  0.7587  0.5442 -0.2133
  446MOL0     H60169   4.606   1.587   9.211 -0.9499 -0.9729 -0.7223
  446MOL0     H60170   4.860   1.508   9.518 -2.1071  0.1137 -0.8098
  446MOL0     H60171   5.074   1.466   9.466 -0.7528  1.1210  1.2045
  446MOL0     H60172   5.443   1.353   9.180  1.4471 -0.5983  0.1801
  446MOL0     H60173   5.669   1.330   9.101 -0.0744  1.0381  2.2866
  446MOL0     H60174   5.895   1.366   9.078 -2.0210 -0.9221  0.1881
  446MOL0     H60175   5.830   1.300   8.930 -0.2460  0.2431 -1.4957
  446MOL0     H60176   6.029   1.449   8.817  4.0692  0.6605  0.7300
  446MOL0     H60177   6.062   1.480   8.984 -0.6731  0.9717 -1.2842
  446MOL0     H60178   6.087   1.240   9.024 -0.7392  0.0003  0.8505
  446MOL0     H60179   6.054   1.202   8.844  1.0529  1.9028 -2.2021
  446MOL0     H60180   6.261   1.398   8.919 -1.0309  0.2994 -2.0159
  446MOL0     H60181   6.269   1.283   8.783 -0.0962  2.4896 -0.2417
  446MOL0     H60182   6.326   1.104   8.924 -2.9688 -0.3005  1.5102
  446MOL0     H60183   6.295   1.199   9.069 -1.0979 -0.3348 -0.3900
  446MOL0     H60184   6.495   1.337   9.011 -2.2771 -0.1631 -0.0612
  446MOL0     H60185   6.537   1.161   9.030  0.1098 -0.9756  0.3973
  446MOL0     H60186   6.531   1.349   8.770  0.1332 -0.5106 -0.2307
  446MOL0     H60187   6.477   1.182   8.766 -1.8859 -0.5302  1.6261
  446MOL0     H60188   6.740   1.255   8.917 -0.7075 -0.2282 -0.2178
  446MOL0     H60189   6.698   1.105   8.835 -0.5145 -0.3340  0.5807
  446MOL0     H60190   5.648   1.696   8.890 -0.2263  1.3676  0.3674
  446MOL0     H60191   5.404   1.718   8.962 -1.0908 -0.1356  1.7328
  446MOL0     H60192   5.034   1.680   9.090  0.1805 -1.8207 -0.2409
  446MOL0     H60193   4.791   1.731   9.185  1.2417  1.2297 -0.0510
  446MOL0     H60194   3.007   1.444   9.837 -1.3081  1.2516 -1.3593
  446MOL0     H60195   2.759   1.463   9.865  0.5931 -1.8070 -1.5226
  446MOL0     H60196   2.391   1.247  10.148 -1.1268 -1.9314 -0.4763
  446MOL0     H60197   2.199   1.347  10.250  2.0039 -0.7545 -0.0320
  446MOL0     H60198   2.003   1.670  10.018 -1.5277 -0.2656 -2.0883
  446MOL0     H60199   1.912   1.678  10.173  2.1788 -0.6464  0.6784
  446MOL0     H60200   1.829   1.460   9.977  1.6246 -0.6693  0.1072
  446MOL0     H60201   1.803   1.635   9.940 -0.3904 -1.4570 -0.4312
  446MOL0     H60202   1.627   1.649  10.073 -1.3543  0.5204  2.1080
  446MOL0     H60203   1.709   1.582  10.205  0.3396 -1.2858  0.0144
  446MOL0     H60204   1.555   1.438   9.997  2.9702  1.2869 -1.3399
  446MOL0     H60205   1.658   1.344  10.114  0.4895  0.4044  1.4877
  446MOL0     H60206   1.333   1.446  10.348 -0.6861  1.0453 -1.3414
  446MOL0     H60207   2.113   1.565   9.883  0.2393  0.1792  0.7404
  446MOL0     H60208   2.270   1.591   9.721 -0.6884 -0.6983  0.8365
  446MOL0     H60209   2.437   1.543   9.738  0.5835 -0.1073  0.3109
  446MOL0     H60210   2.311   1.443   9.662 -0.6470  3.4339 -3.3167
  447MOL0     O60211   3.859   2.247  10.816 -0.5316 -1.2152  0.5694
  447MOL0     C60212   3.866   2.277  10.935 -0.0499  1.2261  0.5047
  447MOL0     O60213   3.937   2.375  10.990  0.2660 -0.0740  0.4320
  447MOL0     C60214   4.058   2.407  10.924 -0.5978 -0.4027 -1.5074
  447MOL0     C60215   4.106   2.546  10.910  0.3487  0.5985  0.1040
  447MOL0     C60216   4.222   2.579  10.849 -0.0939  0.3195  0.2389
  447MOL0     C60217   4.304   2.476  10.802 -0.7840  0.3284  0.0943
  447MOL0     O60218   4.411   2.520  10.732  0.5778  0.7046  1.0607
  447MOL0     C60219   4.510   2.432  10.675 -0.4462 -0.5223  0.4613
  447MOL0     C60220   4.641   2.515  10.651 -0.0456 -0.6117 -0.8111
  447MOL0     C60221   4.744   2.419  10.580 -0.4786  0.4596 -0.5359
  447MOL0     C60222   4.886   2.472  10.586 -0.2785  0.3710 -0.3744
  447MOL0     C60223   4.979   2.398  10.493 -0.5327  0.2320 -0.3813
  447MOL0     C60224   5.042   2.271  10.566  0.1198  0.2692 -0.0981
  447MOL0     C60225   5.132   2.188  10.479 -0.0947  0.2099  0.2156
  447MOL0     C60226   5.148   2.043  10.519 -0.5215  0.3332 -1.1702
  447MOL0     N60227   5.245   1.974  10.430  0.1807 -0.3798  0.5687
  447MOL0     C60228   5.220   1.952  10.293  0.0953 -0.1816  0.0868
  447MOL0     C60229   5.317   1.863  10.259  0.8619  0.7818  0.2099
  447MOL0     C60230   5.315   1.798  10.122 -0.6854 -0.2251  0.4600
  447MOL0     C60231   5.461   1.771  10.068 -0.1529 -0.4054 -0.1599
  447MOL0     C60232   5.469   1.756   9.916 -0.0808  0.0052 -0.3933
  447MOL0     C60233   5.614   1.709   9.876  0.3719  0.1842  0.6415
  447MOL0     O60234   5.696   1.820   9.897  0.0849  0.9811 -0.5520
  447MOL0     C60235   5.831   1.798   9.872  0.0124 -0.5355 -0.0978
  447MOL0     C60236   5.913   1.908   9.900 -0.0046 -0.2410  0.5482
  447MOL0     C60237   6.051   1.896   9.900 -0.1534  0.2575  0.4891
  447MOL0     C60238   6.109   1.781   9.853  0.4369 -0.2171 -0.7514
  447MOL0     C60239   6.253   1.761   9.856 -0.5434  0.2762 -0.6293
  447MOL0     O60240   6.301   1.638   9.858  0.5008 -0.1431  0.0151
  447MOL0     C60241   6.423   1.615   9.892 -0.2404  0.4889 -0.3927
  447MOL0     C60242   6.459   1.588  10.021  0.3546 -0.8639 -0.3847
  447MOL0     C60243   6.590   1.553  10.059 -0.1726 -0.7769  0.2955
  447MOL0     C60244   6.684   1.542   9.961 -0.4177 -0.3745  0.1044
  447MOL0     O60245   6.809   1.490   9.994  0.0842  0.2104 -0.3935
  447MOL0     C60246   6.919   1.567   9.939 -0.4377 -0.4262 -0.4425
  447MOL0     C60247   7.062   1.502   9.968  0.1504  0.3410 -0.0281
  447MOL0     C60248   7.168   1.609   9.951  0.2279  0.0098  0.2670
  447MOL0     C60249   7.203   1.622   9.805 -0.6243  0.6453 -0.3290
  447MOL0     C60250   7.329   1.708   9.777  0.0090 -0.3909 -0.4014
  447MOL0     C60251   7.323   1.756   9.634 -0.1811  0.3764 -0.1173
  447MOL0     C60252   7.442   1.831   9.605  0.3923  0.1131 -0.0163
  447MOL0     C60253   7.431   1.910   9.474 -0.0298  0.1967 -0.1582
  447MOL0    Cl60254   7.591   1.986   9.437  0.2636 -0.1019 -0.1878
  447MOL0     C60255   6.646   1.576   9.830 -0.1722 -0.7294  0.1511
  447MOL0     C60256   6.513   1.609   9.793 -0.5847 -0.6287 -0.0628
  447MOL0     O60257   6.328   1.856   9.860  0.2040 -0.0528 -0.4876
  447MOL0     C60258   6.024   1.679   9.817 -0.3432 -0.0896 -0.2553
  447MOL0     C60259   5.890   1.684   9.824 -0.2362  1.0602 -0.6552
  447MOL0     N60260   5.379   1.813  10.370  0.2171  0.0980  0.2579
  447MOL0     N60261   5.342   1.888  10.468 -0.1308 -0.5633 -0.5174
  447MOL0     C60262   4.268   2.349  10.799  0.2050  0.0822  0.5159
  447MOL0     C60263   4.146   2.309  10.863 -0.0107 -0.4940 -0.5376
  447MOL0     C60264   3.775   2.197  11.025 -0.0191 -0.6874  1.4842
  447MOL0     C60265   3.641   2.232  11.060  0.3242 -0.8767 -0.1719
  447MOL0     C60266   3.566   2.144  11.133  0.0296 -0.0188 -0.7800
  447MOL0     C60267   3.620   2.027  11.186 -0.2772  1.6828  0.4349
  447MOL0     O60268   3.566   1.945  11.269  1.0747  0.3888 -0.6300
  447MOL0     C60269   3.429   1.970  11.311  0.4280  0.8578  0.2690
  447MOL0     C60270   3.355   1.856  11.359  0.4108 -0.1089  0.8744
  447MOL0     C60271   3.308   1.769  11.243  0.1123 -0.7133 -0.1986
  447MOL0     C60272   3.221   1.652  11.286 -0.3109  0.1778  0.7039
  447MOL0     C60273   3.096   1.679  11.360  0.0874 -0.5845  0.6923
  447MOL0     C60274   2.992   1.712  11.412 -0.2871 -0.2234 -0.0687
  447MOL0     C60275   3.744   1.990  11.142  0.8354  0.2890 -0.2067
  447MOL0     C60276   3.824   2.072  11.060  0.3847 -0.0455 -0.2494
  447MOL0     C60277   3.945   2.012  11.008 -0.3480 -0.2548 -0.6123
  447MOL0     H60278   4.037   2.621  10.949 -2.3844 -0.9513 -1.4506
  447MOL0     H60279   4.259   2.681  10.849  1.6617 -0.2463  1.8136
  447MOL0     H60280   4.528   2.344  10.738 -1.4467  0.4178  2.1607
  447MOL0     H60281   4.487   2.402  10.573  2.7379  1.7516 -1.0814
  447MOL0     H60282   4.675   2.553  10.748 -2.9408 -3.0707  1.3836
  447MOL0     H60283   4.632   2.603  10.586  3.1217  0.8258  0.4672
  447MOL0     H60284   4.703   2.427  10.478  0.3411  0.7472 -0.8522
  447MOL0     H60285   4.745   2.316  10.617  0.8996  0.3834 -0.7478
  447MOL0     H60286   4.883   2.581  10.580  2.1577  0.9554  4.1863
  447MOL0     H60287   4.927   2.471  10.688  1.3987  1.0970 -0.9992
  447MOL0     H60288   4.930   2.348  10.410  1.2543 -2.1060 -0.1451
  447MOL0     H60289   5.053   2.466  10.450  0.6770  0.5169  1.9639
  447MOL0     H60290   5.092   2.316  10.652  0.7055 -0.0014 -0.2927
  447MOL0     H60291   4.970   2.199  10.606  2.2883 -3.1228 -1.8119
  447MOL0     H60292   5.227   2.242  10.494  0.7101 -0.8529 -0.8309
  447MOL0     H60293   5.120   2.204  10.372  2.9918  0.1666 -0.2443
  447MOL0     H60294   5.169   2.026  10.625  0.3326  1.0782 -1.2090
  447MOL0     H60295   5.048   1.999  10.508 -0.9889  1.7993 -3.6827
  447MOL0     H60296   5.144   1.998  10.230  1.9688 -0.0192 -2.2197
  447MOL0     H60297   5.259   1.704  10.128 -1.1282 -0.0038 -0.1597
  447MOL0     H60298   5.261   1.860  10.051  0.0759  1.6045  1.4249
  447MOL0     H60299   5.532   1.840  10.113 -0.9966 -0.1948  0.9006
  447MOL0     H60300   5.479   1.669  10.105 -3.7198 -0.9175  0.5592
  447MOL0     H60301   5.430   1.844   9.863 -1.7477 -0.2806  0.3034
  447MOL0     H60302   5.408   1.673   9.879  2.0057 -0.2422 -3.6816
  447MOL0     H60303   5.617   1.699   9.767  0.4044  2.4126  0.3876
  447MOL0     H60304   5.650   1.627   9.939 -2.0714  0.3466  2.4061
  447MOL0     H60305   5.878   2.003   9.940 -1.8865 -0.5186 -0.3461
  447MOL0     H60306   6.113   1.978   9.936 -0.1682  0.5350 -0.1022
  447MOL0     H60307   6.385   1.581  10.100  1.2337 -0.1332  0.5331
  447MOL0     H60308   6.608   1.521  10.161  1.9815 -1.6497 -0.3136
  447MOL0     H60309   6.916   1.572   9.829  3.0499  1.9354 -0.5827
  447MOL0     H60310   6.921   1.668   9.981 -2.3660 -0.9934  1.1634
  447MOL0     H60311   7.061   1.461  10.070  0.7943 -3.4619 -1.4141
  447MOL0     H60312   7.075   1.416   9.902  1.3112 -0.5538  1.3021
  447MOL0     H60313   7.145   1.704  10.000  0.7407 -2.2101  5.5324
  447MOL0     H60314   7.261   1.572   9.996 -0.1174  0.2157  1.1672
  447MOL0     H60315   7.113   1.664   9.760 -1.3419 -1.0556 -0.5726
  447MOL0     H60316   7.224   1.522   9.764  0.1387 -0.1614  1.8512
  447MOL0     H60317   7.417   1.649   9.803 -0.9163 -0.6126  2.6944
  447MOL0     H60318   7.334   1.801   9.836  1.2950 -0.0294 -1.0431
  447MOL0     H60319   7.319   1.672   9.564  3.2759  1.2615 -1.6257
  447MOL0     H60320   7.234   1.816   9.615  0.2260  0.2276 -2.9205
  447MOL0     H60321   7.535   1.775   9.620 -0.0019 -0.3824  0.6721
  447MOL0     H60322   7.442   1.901   9.689 -0.2152  0.9877 -0.7259
  447MOL0     H60323   7.385   1.858   9.389  0.7086  1.8140 -1.6041
  447MOL0     H60324   7.358   1.989   9.494  3.2269  2.9246  1.8771
  447MOL0     H60325   6.723   1.564   9.755  0.8466 -2.2477  1.3667
  447MOL0     H60326   6.476   1.624   9.692  0.0772  1.6279 -0.0296
  447MOL0     H60327   6.069   1.591   9.773 -1.2393 -0.1134 -1.1659
  447MOL0     H60328   5.840   1.589   9.805  2.7750 -0.4158 -1.8888
  447MOL0     H60329   4.323   2.266  10.756 -1.3861 -1.0351  0.5345
  447MOL0     H60330   4.141   2.201  10.878 -0.7239 -0.2529  1.2001
  447MOL0     H60331   3.604   2.329  11.029  2.4054  0.4712  1.3185
  447MOL0     H60332   3.464   2.177  11.149 -0.1626 -0.6372 -0.7034
  447MOL0     H60333   3.367   2.017  11.234 -1.0929  0.3580  1.1509
  447MOL0     H60334   3.440   2.036  11.397  1.8335  2.4681 -1.0732
  447MOL0     H60335   3.278   1.886  11.431  0.2640  2.5219 -0.2513
  447MOL0     H60336   3.424   1.793  11.415  1.0285 -1.8487 -1.6994
  447MOL0     H60337   3.394   1.726  11.191 -0.9908 -1.6223 -1.3281
  447MOL0     H60338   3.249   1.826  11.170 -1.2554 -1.8662 -0.0407
  447MOL0     H60339   3.202   1.584  11.202 -1.5128  2.4001 -0.9218
  447MOL0     H60340   3.275   1.588  11.355 -0.9012 -0.5540  0.5071
  447MOL0     H60341   2.901   1.748  11.457  0.5421  1.7613  0.1292
  447MOL0     H60342   3.777   1.890  11.166  1.7379  1.0986  2.1247
  447MOL0     H60343   4.030   2.075  11.036 -0.7552 -0.1421  0.3896
  447MOL0     H60344   3.966   1.910  11.041 -1.6735 -1.6511 -3.6721
  447MOL0     H60345   3.927   1.999  10.901  1.2368  2.2992 -1.2785
  448MOL0     O60346   0.158   8.015   5.564  0.0226 -0.4087  0.2024
  448MOL0     C60347   0.192   8.017   5.679 -0.8153 -0.6416 -0.6510
  448MOL0     O60348   0.120   8.041   5.790  0.3687  0.4569 -0.2156
  448MOL0     C60349  -0.019   8.054   5.797 -0.8060 -0.1230  0.0186
  448MOL0     C60350  -0.064   8.087   5.918  0.3426 -0.1861  0.0596
  448MOL0     C60351  -0.203   8.092   5.940  0.1688 -0.1759  0.6606
  448MOL0     C60352  -0.295   8.046   5.844 -0.2207 -0.1239 -0.6566
  448MOL0     O60353  -0.425   8.049   5.888 -0.2629  0.6583 -0.4825
  448MOL0     C60354  -0.523   7.974   5.813  0.3668  0.1686  0.1377
  448MOL0     C60355  -0.661   7.977   5.874  0.5397 -0.3322 -0.0560
  448MOL0     C60356  -0.658   7.945   6.024 -0.0661  0.6475  0.7036
  448MOL0     C60357  -0.802   7.944   6.081 -0.1162  0.5014 -0.0591
  448MOL0     C60358  -0.802   7.970   6.230  0.2126 -0.1267  0.5684
  448MOL0     C60359  -0.926   7.906   6.295  0.9001  0.3286 -0.2030
  448MOL0     C60360  -0.919   7.903   6.444 -0.3754  0.6316  0.2466
  448MOL0     C60361  -1.014   7.995   6.499 -0.5528  0.0783  0.3253
  448MOL0     N60362  -1.019   8.005   6.642 -0.5078  0.1787 -0.1908
  448MOL0     C60363  -1.115   7.950   6.723  0.3412  0.5044 -0.4206
  448MOL0     C60364  -1.063   7.955   6.843 -0.3432  0.1069 -0.2016
  448MOL0     C60365  -1.127   7.905   6.966  0.2756 -1.1256  0.4196
  448MOL0     C60366  -1.213   8.016   7.029 -0.2817  0.3919 -1.2619
  448MOL0     C60367  -1.287   7.958   7.144 -0.0202  0.7253  0.1938
  448MOL0     C60368  -1.348   8.065   7.233  1.1082 -0.1197 -0.3941
  448MOL0     O60369  -1.417   8.167   7.162  0.4990 -0.1513  0.4714
  448MOL0     C60370  -1.473   8.267   7.243 -0.2679 -0.6494 -0.1386
  448MOL0     C60371  -1.525   8.374   7.174  0.4706  0.1456 -0.0690
  448MOL0     C60372  -1.574   8.487   7.242 -0.2116  0.6459  0.1183
  448MOL0     C60373  -1.576   8.493   7.380 -0.0821 -0.2833 -0.0098
  448MOL0     C60374  -1.619   8.611   7.459  0.9543  0.0646  0.7453
  448MOL0     O60375  -1.602   8.606   7.596  0.2981  0.7850  0.1160
  448MOL0     C60376  -1.663   8.715   7.662  0.6379  0.2262 -0.3777
  448MOL0     C60377  -1.597   8.765   7.774 -0.0394  0.2989  0.0805
  448MOL0     C60378  -1.642   8.859   7.856  0.1318 -0.7285  0.0500
  448MOL0     C60379  -1.770   8.912   7.830  0.2074  0.4573 -0.8719
  448MOL0     O60380  -1.836   9.004   7.911 -0.2185  0.0975  0.4123
  448MOL0     C60381  -1.758   9.073   8.001 -0.5869  0.9033 -1.4066
  448MOL0     C60382  -1.836   9.174   8.073  0.0449 -0.6445  0.1766
  448MOL0     C60383  -1.973   9.135   8.123 -0.4816  0.2363 -0.5441
  448MOL0     C60384  -1.959   9.031   8.235  0.2938 -0.7733  0.2248
  448MOL0     C60385  -2.091   8.957   8.247  0.5039  0.7273  0.0325
  448MOL0     C60386  -2.070   8.849   8.372  0.8347 -0.4213  1.2582
  448MOL0     C60387  -2.172   8.863   8.489 -0.2342  0.1115 -0.4486
  448MOL0     C60388  -2.139   8.997   8.555  0.2667  0.5669 -0.5064
  448MOL0    Cl60389  -2.225   9.003   8.715  0.1610 -0.2335  0.2287
  448MOL0     C60390  -1.853   8.859   7.724  0.0127 -0.0450 -0.4699
  448MOL0     C60391  -1.797   8.763   7.641 -0.7259 -0.1266 -0.1790
  448MOL0     O60392  -1.660   8.714   7.394 -0.1514  0.0151  0.4729
  448MOL0     C60393  -1.554   8.370   7.444  0.1893 -0.3264 -0.4774
  448MOL0     C60394  -1.502   8.260   7.373 -0.5427 -0.3260 -0.3695
  448MOL0     N60395  -0.934   8.017   6.840  0.2191 -0.4919  0.1000
  448MOL0     N60396  -0.912   8.054   6.715  0.2512 -0.4802 -0.0793
  448MOL0     C60397  -0.251   8.009   5.721 -0.0178 -0.9856  0.2371
  448MOL0     C60398  -0.117   8.015   5.701  0.1811  0.1269  0.4867
  448MOL0     C60399   0.331   7.973   5.713  0.9815  0.8152  0.4281
  448MOL0     C60400   0.346   7.904   5.834 -0.6607  0.8619 -0.2789
  448MOL0     C60401   0.475   7.852   5.851  0.3609 -0.2386 -0.6344
  448MOL0     C60402   0.579   7.869   5.762  0.5707 -0.3063  0.2150
  448MOL0     O60403   0.702   7.834   5.811  0.2231 -0.3124 -0.0693
  448MOL0     C60404   0.811   7.815   5.718  0.2428  0.8211 -0.1773
  448MOL0     C60405   0.917   7.726   5.781 -0.0750  0.5457 -0.0540
  448MOL0     C60406   0.975   7.783   5.912  0.6688 -0.3373 -0.4467
  448MOL0     C60407   1.106   7.723   5.954 -0.3582  0.7746  0.4248
  448MOL0     C60408   1.110   7.582   5.940  1.6376  0.0570 -0.6982
  448MOL0     C60409   1.131   7.464   5.921  0.4332  0.1571  0.3277
  448MOL0     C60410   0.561   7.933   5.645 -0.0200  0.1803 -0.6476
  448MOL0     C60411   0.438   7.991   5.619  0.6387  0.1096 -0.5249
  448MOL0     C60412   0.437   8.085   5.500 -0.2006 -0.0233 -0.6664
  448MOL0     H60413  -0.017   8.105   6.014 -0.9415 -0.7404  0.8284
  448MOL0     H60414  -0.235   8.120   6.040 -2.3282  0.7664 -0.3284
  448MOL0     H60415  -0.529   8.014   5.712 -1.0897  4.4370  1.7237
  448MOL0     H60416  -0.494   7.870   5.793  0.4986 -0.1705  1.8772
  448MOL0     H60417  -0.724   7.905   5.821 -3.5727  3.5365 -1.0726
  448MOL0     H60418  -0.706   8.074   5.853 -0.4393 -1.1594 -2.1132
  448MOL0     H60419  -0.599   8.031   6.056 -0.1588  0.1163  2.4528
  448MOL0     H60420  -0.600   7.855   6.047 -1.0756  0.3773  2.4042
  448MOL0     H60421  -0.874   8.015   6.040 -2.1420 -0.2406  2.0137
  448MOL0     H60422  -0.841   7.842   6.077 -0.4000  0.6410 -1.3966
  448MOL0     H60423  -0.712   7.925   6.273 -1.2441 -2.9248  0.9963
  448MOL0     H60424  -0.806   8.076   6.255 -2.4215 -0.2174  0.9177
  448MOL0     H60425  -1.010   7.963   6.255  1.9684  4.0788  2.2769
  448MOL0     H60426  -0.942   7.802   6.264  0.0928  0.8344 -1.5489
  448MOL0     H60427  -0.816   7.922   6.477 -0.7612 -1.0577  2.7221
  448MOL0     H60428  -0.938   7.804   6.484 -0.1938  0.9271  1.0873
  448MOL0     H60429  -0.992   8.094   6.456 -1.0611 -0.2468 -0.7086
  448MOL0     H60430  -1.118   7.971   6.476 -1.3327  0.9020  2.7823
  448MOL0     H60431  -1.215   7.908   6.711  0.7569 -1.7912  2.8313
  448MOL0     H60432  -1.190   7.821   6.938 -1.5113  0.6786 -1.2456
  448MOL0     H60433  -1.053   7.874   7.041 -1.5786 -2.5577  1.7643
  448MOL0     H60434  -1.159   8.108   7.055  1.3869 -0.1499 -2.6098
  448MOL0     H60435  -1.284   8.057   6.956 -1.4178  2.1458  0.7081
  448MOL0     H60436  -1.228   7.889   7.205 -1.9817 -1.1758  0.0636
  448MOL0     H60437  -1.368   7.898   7.103 -1.0898  1.2030  1.5565
  448MOL0     H60438  -1.269   8.104   7.299  0.6773  0.1890 -0.0488
  448MOL0     H60439  -1.422   8.014   7.295  0.7964  0.2717 -0.4399
  448MOL0     H60440  -1.523   8.376   7.066 -1.0026  4.2533 -0.1780
  448MOL0     H60441  -1.583   8.576   7.180  2.4934 -0.3985 -1.9833
  448MOL0     H60442  -1.504   8.712   7.795 -0.4282 -0.9788 -1.1866
  448MOL0     H60443  -1.586   8.875   7.948 -3.0803  4.7060  1.4644
  448MOL0     H60444  -1.710   9.016   8.081 -1.0020  2.0840 -0.2719
  448MOL0     H60445  -1.676   9.109   7.939 -2.4302  0.9509 -3.9751
  448MOL0     H60446  -1.786   9.213   8.161 -0.4490  0.1560  0.1082
  448MOL0     H60447  -1.834   9.270   8.020  3.0697  0.9335  2.8367
  448MOL0     H60448  -2.026   9.213   8.179  1.7115  0.6851  1.0395
  448MOL0     H60449  -2.039   9.089   8.049 -0.7279 -2.0256  0.9987
  448MOL0     H60450  -1.944   9.088   8.327  1.5551  2.4391 -1.8177
  448MOL0     H60451  -1.877   8.961   8.216 -0.3037 -0.8859 -2.2728
  448MOL0     H60452  -2.106   8.900   8.155 -1.9930  0.0890  0.7764
  448MOL0     H60453  -2.175   9.026   8.259 -0.2765 -0.3655  1.0383
  448MOL0     H60454  -2.073   8.751   8.323  3.6963  0.1436 -0.2672
  448MOL0     H60455  -1.972   8.870   8.415  0.7787  3.4802 -0.1395
  448MOL0     H60456  -2.177   8.779   8.558 -2.0475  1.6054  1.3810
  448MOL0     H60457  -2.276   8.865   8.455 -0.9561 -1.6516  1.4530
  448MOL0     H60458  -2.031   8.999   8.572  0.3139  2.4878 -0.7701
  448MOL0     H60459  -2.161   9.085   8.494  1.6411  1.2454 -0.0721
  448MOL0     H60460  -1.955   8.895   7.713 -0.8813 -2.7488 -1.7195
  448MOL0     H60461  -1.864   8.702   7.581 -1.1262  1.1227 -1.0245
  448MOL0     H60462  -1.570   8.352   7.550  0.5071 -2.9123 -0.8143
  448MOL0     H60463  -1.483   8.174   7.436 -2.2886  1.3564  2.6995
  448MOL0     H60464  -0.311   7.979   5.636 -0.0903  1.1203 -0.5286
  448MOL0     H60465  -0.083   7.980   5.604  0.7204 -1.2021  1.1321
  448MOL0     H60466   0.270   7.902   5.911  1.1058 -0.1185  1.5328
  448MOL0     H60467   0.494   7.798   5.943 -2.4265  2.5586  1.8383
  448MOL0     H60468   0.857   7.911   5.693 -0.7469  1.9729  2.1859
  448MOL0     H60469   0.764   7.760   5.636  0.2890 -0.7787  0.8448
  448MOL0     H60470   0.988   7.710   5.699 -1.2043 -0.1348 -0.9320
  448MOL0     H60471   0.872   7.629   5.804  1.8284 -1.1843 -2.9305
  448MOL0     H60472   0.900   7.774   5.992 -0.1664  0.3259 -1.1399
  448MOL0     H60473   1.006   7.887   5.896  1.1517 -0.3465  0.3427
  448MOL0     H60474   1.185   7.764   5.889 -0.2244 -0.2698 -0.1006
  448MOL0     H60475   1.137   7.743   6.057 -1.4850 -0.0492  0.9409
  448MOL0     H60476   1.175   7.366   5.920  1.1639  0.4865 -0.1137
  448MOL0     H60477   0.641   7.937   5.572  1.7614  1.7229  1.2515
  448MOL0     H60478   0.536   8.132   5.501 -1.3824  2.6683  1.3803
  448MOL0     H60479   0.435   8.028   5.406  1.2734  0.3252 -0.9311
  448MOL0     H60480   0.360   8.162   5.496  0.8676  1.2101  1.2685
  449MOL0     O60481   1.930   7.121   3.783 -0.7696  0.2651 -0.2718
  449MOL0     C60482   1.902   7.121   3.664  0.3297  0.7931  0.0763
  449MOL0     O60483   1.969   7.052   3.568  0.1669 -0.2188 -0.2791
  449MOL0     C60484   2.078   6.976   3.604 -0.4015 -0.4513  0.2207
  449MOL0     C60485   2.075   6.844   3.669 -0.1431 -1.1995  0.5160
  449MOL0     C60486   2.186   6.766   3.687  0.1093 -0.2881  0.2754
  449MOL0     C60487   2.311   6.808   3.645  0.2099  0.3900  0.0864
  449MOL0     O60488   2.419   6.734   3.672 -0.3327  0.6267 -0.6841
  449MOL0     C60489   2.434   6.683   3.806 -0.1530 -0.0140 -0.3136
  449MOL0     C60490   2.582   6.675   3.826  0.0519  0.5147 -0.2383
  449MOL0     C60491   2.626   6.618   3.969  0.5151  0.1869  0.6832
  449MOL0     C60492   2.779   6.659   4.010  0.1968 -0.2489  0.1344
  449MOL0     C60493   2.804   6.651   4.167 -1.0006 -0.0322  0.8043
  449MOL0     C60494   2.794   6.511   4.216 -0.8341  1.0784  0.0708
  449MOL0     C60495   2.812   6.484   4.369  1.2103  0.4472  0.1852
  449MOL0     C60496   2.932   6.567   4.429  0.2414  1.0683 -0.7171
  449MOL0     N60497   2.932   6.547   4.574  0.2455 -0.8607  0.7721
  449MOL0     C60498   2.926   6.424   4.643 -0.0910 -0.3326 -0.0887
  449MOL0     C60499   2.915   6.459   4.773 -0.2236  0.4796 -0.1077
  449MOL0     C60500   2.896   6.370   4.894 -0.0592 -0.7748 -0.0713
  449MOL0     C60501   2.875   6.223   4.853  0.4450 -0.7483 -0.5109
  449MOL0     C60502   2.854   6.139   4.978 -0.7159 -0.5759 -0.2089
  449MOL0     C60503   2.871   5.994   4.940 -0.4742  0.4567 -0.8911
  449MOL0     O60504   2.833   5.900   5.047  0.8134  0.0303  0.5201
  449MOL0     C60505   2.920   5.849   5.145  0.0549 -0.6354  0.2644
  449MOL0     C60506   3.056   5.846   5.142  0.3509 -0.4397 -1.0154
  449MOL0     C60507   3.134   5.778   5.241 -0.3445  0.2663 -0.0298
  449MOL0     C60508   3.062   5.688   5.330 -0.6097  0.1211  0.0299
  449MOL0     C60509   3.131   5.598   5.424  0.4553 -0.4798 -0.2003
  449MOL0     O60510   3.269   5.611   5.434 -0.9076  0.7444  0.2508
  449MOL0     C60511   3.342   5.522   5.502 -0.0215  0.3387 -0.8326
  449MOL0     C60512   3.305   5.394   5.515  0.3756  1.1271  0.0313
  449MOL0     C60513   3.389   5.304   5.572  0.0887 -0.5778  1.2073
  449MOL0     C60514   3.525   5.334   5.594  0.1780  0.6664 -0.0961
  449MOL0     O60515   3.608   5.233   5.644  0.9042 -0.3260  0.0936
  449MOL0     C60516   3.746   5.265   5.658  0.1415 -0.5013  0.2738
  449MOL0     C60517   3.807   5.146   5.731 -0.3362  0.2011  0.2205
  449MOL0     C60518   3.790   5.143   5.886  0.3894  0.0592  0.1143
  449MOL0     C60519   3.881   5.061   5.968 -0.2381 -0.6696 -0.3741
  449MOL0     C60520   3.891   5.107   6.121  0.1684 -0.0761 -0.0464
  449MOL0     C60521   3.991   5.023   6.194 -0.2901  0.5298  0.0979
  449MOL0     C60522   3.962   5.038   6.349 -0.0888 -0.1072 -0.3884
  449MOL0     C60523   4.031   4.946   6.442  0.2731  0.2890 -0.3903
  449MOL0    Cl60524   4.001   5.013   6.608 -0.1468  0.3902  0.0927
  449MOL0     C60525   3.568   5.465   5.580 -0.0550  0.2373 -0.1344
  449MOL0     C60526   3.478   5.557   5.533  0.5130 -0.1273  0.2662
  449MOL0     O60527   3.060   5.536   5.497  0.3140 -0.2384  0.2184
  449MOL0     C60528   2.917   5.684   5.323  0.0812 -0.3797 -0.0215
  449MOL0     C60529   2.850   5.770   5.231 -0.5827  0.4386  0.2775
  449MOL0     N60530   2.917   6.594   4.782 -1.1333 -0.1919 -0.0491
  449MOL0     N60531   2.928   6.652   4.663  0.0534 -0.5809  0.1007
  449MOL0     C60532   2.320   6.925   3.568  0.7181 -0.0352  0.1559
  449MOL0     C60533   2.209   7.009   3.549  0.2661 -0.7302  0.0489
  449MOL0     C60534   1.796   7.208   3.612  1.3305 -1.2552  0.1068
  449MOL0     C60535   1.779   7.219   3.470 -0.4081 -0.4926 -0.0459
  449MOL0     C60536   1.672   7.281   3.415 -0.8952 -0.1469  0.8287
  449MOL0     C60537   1.567   7.326   3.492 -0.9441  0.1881  0.0524
  449MOL0     O60538   1.457   7.380   3.430 -0.4716 -0.4077  0.1394
  449MOL0     C60539   1.339   7.420   3.506  0.0640 -0.5968  0.0072
  449MOL0     C60540   1.216   7.429   3.413  0.0018 -0.3197  0.3520
  449MOL0     C60541   1.122   7.315   3.451  0.4185 -0.2614 -0.4167
  449MOL0     C60542   1.007   7.287   3.358  0.3636 -0.6689 -0.4281
  449MOL0     C60543   0.949   7.158   3.382 -0.3392 -0.1525 -0.0319
  449MOL0     C60544   0.893   7.058   3.411 -0.7997  0.1196 -0.6029
  449MOL0     C60545   1.590   7.325   3.628  0.7899 -0.6558  0.1038
  449MOL0     C60546   1.700   7.277   3.692  0.5787  0.0327  0.0177
  449MOL0     C60547   1.697   7.285   3.836  0.0139 -0.8278 -0.3708
  449MOL0     H60548   1.977   6.816   3.705 -1.6599 -1.6744 -3.4880
  449MOL0     H60549   2.180   6.680   3.753  0.7697  1.9989  3.5221
  449MOL0     H60550   2.382   6.746   3.879 -0.7256 -1.2823  0.4053
  449MOL0     H60551   2.391   6.584   3.825 -2.1353  1.5905  5.7985
  449MOL0     H60552   2.621   6.776   3.811 -1.0961  1.0811  0.4108
  449MOL0     H60553   2.624   6.603   3.755  0.1564  0.9757 -0.6454
  449MOL0     H60554   2.610   6.510   3.976 -1.6903  0.4683  0.5580
  449MOL0     H60555   2.554   6.660   4.039  0.8500  0.8137  0.6565
  449MOL0     H60556   2.847   6.609   3.940 -0.9926  1.2509 -2.2227
  449MOL0     H60557   2.783   6.765   3.986  1.2591  0.2210  2.1544
  449MOL0     H60558   2.909   6.681   4.175 -1.3035  2.2333 -1.7762
  449MOL0     H60559   2.749   6.717   4.235 -1.6965 -1.2324  1.4272
  449MOL0     H60560   2.696   6.464   4.200 -0.5867 -0.1098  1.7867
  449MOL0     H60561   2.860   6.447   4.157 -4.3576 -2.4473 -0.5066
  449MOL0     H60562   2.823   6.378   4.396 -1.7774 -0.0546 -0.2407
  449MOL0     H60563   2.719   6.519   4.415  1.7295  1.8147  0.2536
  449MOL0     H60564   3.033   6.546   4.394  0.7047 -0.2548  1.2274
  449MOL0     H60565   2.911   6.671   4.401 -2.0570  0.6271 -0.8283
  449MOL0     H60566   2.941   6.327   4.596 -0.2737 -1.9162  2.8860
  449MOL0     H60567   2.988   6.371   4.954 -0.0666  0.0831 -0.0498
  449MOL0     H60568   2.814   6.408   4.956  2.1196  1.5839  1.6032
  449MOL0     H60569   2.780   6.212   4.800  0.4227 -1.5069 -0.3231
  449MOL0     H60570   2.958   6.195   4.787  0.1241  1.9556 -2.1878
  449MOL0     H60571   2.751   6.149   5.014 -0.6745  1.0520 -0.5042
  449MOL0     H60572   2.916   6.178   5.059  1.1821  1.6059 -2.5393
  449MOL0     H60573   2.972   5.974   4.903 -1.5555 -2.7974 -2.4181
  449MOL0     H60574   2.799   5.978   4.859  3.0824 -1.1980 -4.0454
  449MOL0     H60575   3.110   5.891   5.060  1.6733  1.3308  0.7230
  449MOL0     H60576   3.242   5.784   5.238 -0.3186 -0.5764 -2.3229
  449MOL0     H60577   3.204   5.359   5.497 -0.6864  2.4078  2.9622
  449MOL0     H60578   3.350   5.205   5.589  0.1102 -0.9950 -0.9017
  449MOL0     H60579   3.789   5.283   5.559 -0.3922 -3.2097 -0.5382
  449MOL0     H60580   3.766   5.348   5.727 -1.0507 -1.2815  1.6050
  449MOL0     H60581   3.761   5.057   5.687  0.4822  0.5310 -1.3738
  449MOL0     H60582   3.912   5.139   5.703 -0.3356  1.8108 -0.2772
  449MOL0     H60583   3.813   5.247   5.910  1.4584 -0.2120  0.2968
  449MOL0     H60584   3.684   5.117   5.900  0.3686  0.1107  0.0508
  449MOL0     H60585   3.979   5.065   5.921 -0.6255 -1.4292 -1.2935
  449MOL0     H60586   3.853   4.955   5.957  0.1828 -0.6021 -2.4250
  449MOL0     H60587   3.796   5.082   6.170  0.6077 -1.8971 -0.0702
  449MOL0     H60588   3.927   5.209   6.138  0.0813 -0.0111 -0.2437
  449MOL0     H60589   3.990   4.918   6.163  0.4671  0.0054  1.7323
  449MOL0     H60590   4.092   5.055   6.170  0.7487 -2.9666 -0.7234
  449MOL0     H60591   3.855   5.022   6.364  0.1825 -2.0747 -0.3167
  449MOL0     H60592   3.998   5.137   6.377 -0.7140  0.0457 -0.1111
  449MOL0     H60593   4.004   4.840   6.441 -2.5046  0.9153 -0.9377
  449MOL0     H60594   4.137   4.955   6.418  0.6385 -0.6928  0.7348
  449MOL0     H60595   3.668   5.490   5.613 -1.4215  1.1946  3.8167
  449MOL0     H60596   3.497   5.664   5.535  2.1278 -0.4073  1.0119
  449MOL0     H60597   2.860   5.616   5.385 -1.0999  1.0145  0.5089
  449MOL0     H60598   2.743   5.770   5.251 -0.0629  3.1854  4.3188
  449MOL0     H60599   2.420   6.952   3.533  1.8854  0.4235  3.4795
  449MOL0     H60600   2.229   7.103   3.498  1.5311 -1.1170 -0.2038
  449MOL0     H60601   1.851   7.174   3.401  3.3241 -1.4157  3.9772
  449MOL0     H60602   1.667   7.292   3.307 -0.1295  0.0055  0.8052
  449MOL0     H60603   1.349   7.522   3.544  1.8815 -0.5467 -0.5556
  449MOL0     H60604   1.328   7.342   3.582  0.2784 -0.6677 -0.0362
  449MOL0     H60605   1.252   7.420   3.310 -0.3125  1.6037  0.0422
  449MOL0     H60606   1.158   7.519   3.432  2.8948  1.2814  2.4565
  449MOL0     H60607   1.084   7.338   3.551  0.1900 -0.7838 -0.3780
  449MOL0     H60608   1.190   7.230   3.462  0.2337 -0.3545  0.0195
  449MOL0     H60609   0.934   7.359   3.399  1.2811 -0.4578  0.8944
  449MOL0     H60610   1.029   7.313   3.254 -2.4760  2.2716 -0.4867
  449MOL0     H60611   0.843   6.965   3.428  0.0787  0.0149  1.7372
  449MOL0     H60612   1.510   7.374   3.683 -2.0731  0.6850 -4.6391
  449MOL0     H60613   1.677   7.182   3.868  0.9252 -1.5962 -2.1611
  449MOL0     H60614   1.784   7.329   3.886 -1.0075  0.9552 -0.0781
  449MOL0     H60615   1.609   7.345   3.858  2.1939  2.4536  0.0500
  450MOL0     O60616   0.371   4.527   9.066  0.2541  0.0873  0.0676
  450MOL0     C60617   0.376   4.490   9.185 -0.1374  0.5552  0.6310
  450MOL0     O60618   0.276   4.466   9.270 -0.5236  0.7807  0.3142
  450MOL0     C60619   0.153   4.493   9.212  0.0609  0.5293 -0.0228
  450MOL0     C60620   0.085   4.402   9.130 -0.4621  0.5338 -0.2190
  450MOL0     C60621  -0.040   4.429   9.081  0.6303 -0.8956  0.0052
  450MOL0     C60622  -0.099   4.554   9.098  0.3845  0.2999  0.2341
  450MOL0     O60623  -0.211   4.580   9.034  0.3112 -0.1700 -0.0576
  450MOL0     C60624  -0.263   4.714   9.024  0.7823  0.4056  0.4214
  450MOL0     C60625  -0.352   4.745   9.142 -0.0792  0.1503  1.4688
  450MOL0     C60626  -0.455   4.622   9.148  0.3043 -0.5192 -0.3156
  450MOL0     C60627  -0.546   4.627   9.274  0.6639  0.5946 -0.4970
  450MOL0     C60628  -0.666   4.710   9.248  0.6571 -0.5578 -0.3758
  450MOL0     C60629  -0.777   4.647   9.170 -0.2025 -0.5758 -0.5166
  450MOL0     C60630  -0.907   4.730   9.173  0.0549 -0.2985  1.1174
  450MOL0     C60631  -1.014   4.645   9.099  0.7776 -0.1410  0.8156
  450MOL0     N60632  -1.148   4.712   9.095  0.6781 -0.3858  0.2962
  450MOL0     C60633  -1.214   4.754   9.212  0.1478 -0.2023  0.0919
  450MOL0     C60634  -1.325   4.814   9.163 -0.0570 -1.2239  0.0156
  450MOL0     C60635  -1.429   4.886   9.240 -0.0678 -0.1382  0.5743
  450MOL0     C60636  -1.567   4.819   9.230  0.0696  0.1269 -0.9393
  450MOL0     C60637  -1.637   4.840   9.361  0.0523 -0.2441  0.0539
  450MOL0     C60638  -1.786   4.826   9.331 -0.8413 -0.6248  0.4232
  450MOL0     O60639  -1.797   4.689   9.286  0.0053 -0.3593  0.1829
  450MOL0     C60640  -1.918   4.650   9.241 -0.3120  0.7648  0.2804
  450MOL0     C60641  -1.925   4.537   9.164 -0.2733  1.2498 -0.7899
  450MOL0     C60642  -2.049   4.480   9.117  1.0645  0.5435 -0.8148
  450MOL0     C60643  -2.165   4.562   9.126 -0.2374 -0.7137 -0.3416
  450MOL0     C60644  -2.286   4.517   9.067 -0.2797 -0.3768  0.7573
  450MOL0     O60645  -2.280   4.399   8.997 -0.3093  0.8384 -0.5310
  450MOL0     C60646  -2.400   4.348   8.961  0.0433 -0.7929 -0.1891
  450MOL0     C60647  -2.460   4.238   9.030 -0.0883 -0.6037 -0.6332
  450MOL0     C60648  -2.586   4.181   8.991 -0.7407 -0.5027  0.5912
  450MOL0     C60649  -2.663   4.250   8.898  0.3475 -0.7301  0.0513
  450MOL0     O60650  -2.787   4.200   8.855 -0.9621 -0.1082  0.0525
  450MOL0     C60651  -2.859   4.278   8.759  0.1650 -0.2713 -1.0197
  450MOL0     C60652  -2.999   4.223   8.738  0.2005  0.3212  0.4259
  450MOL0     C60653  -3.081   4.283   8.633  1.2449  0.3582  0.1595
  450MOL0     C60654  -3.208   4.200   8.603 -0.0198  0.3447  0.4124
  450MOL0     C60655  -3.282   4.261   8.481 -0.3323  0.5537 -0.3976
  450MOL0     C60656  -3.377   4.159   8.406 -0.0315 -0.1885  0.2268
  450MOL0     C60657  -3.439   4.220   8.277  0.1004 -0.3708 -0.7533
  450MOL0     C60658  -3.545   4.127   8.231  0.7772  0.1741  0.4425
  450MOL0    Cl60659  -3.670   4.076   8.362 -0.6715  0.3585  0.4283
  450MOL0     C60660  -2.606   4.371   8.835 -0.1755  0.3591  1.0260
  450MOL0     C60661  -2.477   4.416   8.867 -0.1051  0.6074  0.6358
  450MOL0     O60662  -2.389   4.582   9.082  0.5231 -0.0306 -0.6202
  450MOL0     C60663  -2.154   4.687   9.188  1.0323  0.5769 -1.3023
  450MOL0     C60664  -2.038   4.727   9.256  0.6273  1.1337 -0.2712
  450MOL0     N60665  -1.319   4.810   9.025  0.2539 -0.5032  0.2863
  450MOL0     N60666  -1.211   4.749   8.984  0.0561 -0.3877 -0.2259
  450MOL0     C60667  -0.037   4.640   9.188 -0.9524  0.6929 -0.7960
  450MOL0     C60668   0.087   4.611   9.252 -0.2706  0.4351  0.7349
  450MOL0     C60669   0.509   4.443   9.233 -0.6154 -1.5286  0.8192
  450MOL0     C60670   0.518   4.321   9.313  0.4913 -0.0582  0.1199
  450MOL0     C60671   0.636   4.268   9.358  0.0117 -0.0213 -0.2478
  450MOL0     C60672   0.757   4.340   9.351  0.1616 -0.1030 -0.1602
  450MOL0     O60673   0.869   4.290   9.409  0.2040  0.0887 -0.6228
  450MOL0     C60674   0.982   4.377   9.439 -0.1337 -0.2916 -0.4609
  450MOL0     C60675   1.057   4.321   9.555 -0.2842  0.7580  0.1929
  450MOL0     C60676   1.079   4.165   9.548 -0.5668 -0.0767  0.1177
  450MOL0     C60677   1.199   4.097   9.610 -0.0166 -0.2003 -0.1807
  450MOL0     C60678   1.229   4.158   9.738  0.0473 -0.4639 -0.9230
  450MOL0     C60679   1.248   4.237   9.835  0.0519 -0.4490  0.5474
  450MOL0     C60680   0.747   4.468   9.280 -0.3216  0.1742 -0.4873
  450MOL0     C60681   0.630   4.511   9.218  0.4604 -0.2563 -0.0685
  450MOL0     C60682   0.645   4.639   9.149 -0.2125 -0.7352  0.6934
  450MOL0     H60683   0.131   4.311   9.093  0.9891  0.4591  1.6670
  450MOL0     H60684  -0.090   4.350   9.026  1.8047 -3.8076  2.7847
  450MOL0     H60685  -0.179   4.785   9.021  0.3713  0.8761 -0.3221
  450MOL0     H60686  -0.321   4.701   8.932 -0.3746 -4.1574  1.5550
  450MOL0     H60687  -0.397   4.845   9.137 -1.6947 -0.6232 -0.6756
  450MOL0     H60688  -0.297   4.742   9.237 -0.8551 -2.1352  1.9139
  450MOL0     H60689  -0.395   4.530   9.145  1.0412 -0.1282  1.4648
  450MOL0     H60690  -0.515   4.632   9.057 -0.0290 -0.9160 -0.1375
  450MOL0     H60691  -0.589   4.530   9.301 -0.2730  0.9947 -0.5342
  450MOL0     H60692  -0.491   4.671   9.359  4.4075  0.1725 -2.4937
  450MOL0     H60693  -0.714   4.736   9.343  0.5005 -2.0884 -0.0120
  450MOL0     H60694  -0.638   4.808   9.207  1.1372  0.0094  1.2608
  450MOL0     H60695  -0.730   4.632   9.072  2.3743 -1.7664  0.7969
  450MOL0     H60696  -0.798   4.552   9.222  2.3335 -0.0455  1.6536
  450MOL0     H60697  -0.888   4.817   9.111  0.0634 -0.0521  1.4639
  450MOL0     H60698  -0.939   4.752   9.275  0.3879  1.1716  0.9247
  450MOL0     H60699  -0.980   4.625   8.997  2.4460  0.1549  1.2862
  450MOL0     H60700  -1.028   4.546   9.144  2.0223 -1.1564 -0.9426
  450MOL0     H60701  -1.187   4.746   9.317 -0.5247 -2.3126  0.1495
  450MOL0     H60702  -1.390   4.891   9.342  0.3162  1.0801  0.3796
  450MOL0     H60703  -1.426   4.990   9.208  0.1046  0.0922  1.3153
  450MOL0     H60704  -1.623   4.864   9.147 -2.5366  0.1171  0.7082
  450MOL0     H60705  -1.559   4.712   9.208 -0.4153 -0.8190  2.9215
  450MOL0     H60706  -1.613   4.942   9.395  0.8611 -0.8473  1.3845
  450MOL0     H60707  -1.598   4.775   9.440  2.5240  1.3178  0.2092
  450MOL0     H60708  -1.819   4.907   9.265  2.1609  2.8190  2.6845
  450MOL0     H60709  -1.842   4.840   9.424  1.2053 -0.7507  1.7378
  450MOL0     H60710  -1.829   4.486   9.168 -0.2451  1.3843  0.8990
  450MOL0     H60711  -2.034   4.397   9.049 -1.7155  1.0807 -2.2154
  450MOL0     H60712  -2.416   4.199   9.121  0.4954  2.8503  0.7068
  450MOL0     H60713  -2.640   4.107   9.049  1.8734 -1.9163  1.3468
  450MOL0     H60714  -2.866   4.380   8.797  0.4442 -1.5429  2.8599
  450MOL0     H60715  -2.799   4.256   8.669 -1.4707  0.4204 -2.3345
  450MOL0     H60716  -2.993   4.115   8.720 -0.3896  0.7644 -3.0089
  450MOL0     H60717  -3.049   4.212   8.835  0.1241 -1.4944  0.2187
  450MOL0     H60718  -3.102   4.387   8.659 -0.2893  0.1282 -0.0503
  450MOL0     H60719  -3.022   4.285   8.541 -1.1427 -0.4690 -1.5140
  450MOL0     H60720  -3.275   4.202   8.690 -1.5354  0.3929 -0.7229
  450MOL0     H60721  -3.171   4.099   8.584 -0.9604  0.3934 -2.0515
  450MOL0     H60722  -3.209   4.301   8.411 -1.4270  0.2359 -1.7703
  450MOL0     H60723  -3.344   4.340   8.525 -1.0094 -0.5712  0.7592
  450MOL0     H60724  -3.331   4.061   8.390  0.7697 -0.3584  3.0333
  450MOL0     H60725  -3.463   4.150   8.474 -1.0667  0.0386 -1.0048
  450MOL0     H60726  -3.354   4.222   8.208  2.0516 -3.5895  1.3223
  450MOL0     H60727  -3.479   4.321   8.292 -1.5083 -1.3274  2.0463
  450MOL0     H60728  -3.588   4.187   8.149  1.8546  0.1489 -0.1556
  450MOL0     H60729  -3.503   4.035   8.189 -0.4237  0.1019 -0.6834
  450MOL0     H60730  -2.644   4.435   8.756  2.1947  0.8186  0.1692
  450MOL0     H60731  -2.433   4.500   8.814  3.2624 -0.9307  0.7239
  450MOL0     H60732  -2.242   4.749   9.200 -0.1278 -0.9446 -1.5614
  450MOL0     H60733  -2.048   4.815   9.318 -0.4189 -0.8641  2.5648
  450MOL0     H60734  -0.071   4.742   9.205  1.6375  1.4600  0.1854
  450MOL0     H60735   0.145   4.678   9.314  1.2182  1.1493 -1.3201
  450MOL0     H60736   0.429   4.262   9.327 -0.2467  1.0715  0.3390
  450MOL0     H60737   0.623   4.173   9.409  0.1558 -1.2314 -2.3066
  450MOL0     H60738   0.957   4.481   9.460  0.5887  0.2600 -2.1585
  450MOL0     H60739   1.052   4.376   9.355  0.3673  2.4814 -0.1438
  450MOL0     H60740   0.986   4.332   9.637 -0.6760 -1.3843  0.2004
  450MOL0     H60741   1.155   4.364   9.576  0.3139 -0.4576 -0.0212
  450MOL0     H60742   1.070   4.131   9.445 -0.5817  2.2837 -0.7303
  450MOL0     H60743   0.990   4.131   9.601 -0.0561  0.9392  1.6912
  450MOL0     H60744   1.189   3.989   9.626 -2.1684  0.0093  0.2317
  450MOL0     H60745   1.270   4.096   9.527 -4.0091 -0.6590 -4.0060
  450MOL0     H60746   1.270   4.297   9.921  4.6670  1.6143 -1.7141
  450MOL0     H60747   0.839   4.521   9.257  0.9018 -1.4080  0.5517
  450MOL0     H60748   0.685   4.715   9.217 -0.0750 -0.6441  0.5088
  450MOL0     H60749   0.699   4.625   9.056  0.9464 -0.6862  1.3438
  450MOL0     H60750   0.547   4.682   9.126  0.3617 -0.3330 -1.1618
  451MOL0     O60751   9.845   9.468   7.821 -0.4506  0.5065  0.4009
  451MOL0     C60752   9.852   9.441   7.704  0.0698  0.8649 -0.5024
  451MOL0     O60753   9.965   9.447   7.626  0.7535 -0.5834  0.3612
  451MOL0     C60754  10.079   9.493   7.681 -0.1325 -0.3219 -0.1755
  451MOL0     C60755  10.100   9.589   7.784  0.0507 -0.0792 -0.0798
  451MOL0     C60756  10.237   9.625   7.819  0.4209  0.4754 -0.0686
  451MOL0     C60757  10.348   9.567   7.759  0.1791  0.7060 -0.2053
  451MOL0     O60758  10.464   9.599   7.808  0.5330 -0.7246  0.1730
  451MOL0     C60759  10.577   9.556   7.731  0.1414 -0.2339 -0.3750
  451MOL0     C60760  10.709   9.595   7.794 -0.2677 -0.3079  0.3774
  451MOL0     C60761  10.825   9.587   7.700  0.1127 -0.4183  0.4247
  451MOL0     C60762  10.956   9.608   7.783 -0.3933 -0.1249  0.1186
  451MOL0     C60763  11.084   9.641   7.707 -0.3055  0.2103  0.2656
  451MOL0     C60764  11.205   9.689   7.795 -0.0741 -0.2828  0.4928
  451MOL0     C60765  11.336   9.741   7.736 -0.2238 -0.7706 -0.0258
  451MOL0     C60766  11.443   9.790   7.836  0.0815 -0.5553 -0.0030
  451MOL0     N60767  11.572   9.776   7.758 -0.1420 -0.6621 -0.5348
  451MOL0     C60768  11.671   9.877   7.772 -0.6412  0.4686  0.4754
  451MOL0     C60769  11.789   9.822   7.723 -0.2788 -0.3068  0.6822
  451MOL0     C60770  11.928   9.882   7.706  0.6336 -0.3614  0.1252
  451MOL0     C60771  11.955   9.906   7.554 -0.1120 -0.5713  0.8576
  451MOL0     C60772  12.084   9.994   7.532  0.9393  0.3433  0.0166
  451MOL0     C60773  12.211   9.955   7.604 -0.2389 -0.4562  0.3013
  451MOL0     O60774  12.323   9.978   7.513 -0.1453  0.4097  0.2131
  451MOL0     C60775  12.453   9.969   7.557 -0.5665 -0.1968 -0.2790
  451MOL0     C60776  12.557   9.987   7.471  0.0428  0.5808 -0.2686
  451MOL0     C60777  12.688   9.965   7.512 -0.5484  0.2813  0.0488
  451MOL0     C60778  12.719   9.928   7.645 -0.0421 -0.2155  0.3163
  451MOL0     C60779  12.856   9.896   7.676 -0.0093  0.0452 -0.2619
  451MOL0     O60780  12.954   9.917   7.585  0.2913 -0.0526  0.2815
  451MOL0     C60781  13.054   9.822   7.585  0.1086  0.2934  1.2471
  451MOL0     C60782  13.012   9.688   7.554 -0.7076  0.0633  0.3995
  451MOL0     C60783  13.109   9.580   7.551 -0.4462 -0.2185  0.1901
  451MOL0     C60784  13.239   9.609   7.561 -0.7328  0.1664 -0.2015
  451MOL0     O60785  13.330   9.511   7.556 -0.6992 -0.4708  0.1654
  451MOL0     C60786  13.297   9.381   7.608  0.9590  0.5539  0.0161
  451MOL0     C60787  13.259   9.370   7.756 -0.4938 -0.3329 -0.2830
  451MOL0     C60788  13.348   9.457   7.859  0.3177  0.4371  0.3480
  451MOL0     C60789  13.491   9.485   7.816 -0.5086 -0.1601 -0.2173
  451MOL0     C60790  13.567   9.555   7.923  0.1332  0.2413 -0.3503
  451MOL0     C60791  13.709   9.594   7.892  1.8978 -0.4018 -0.9667
  451MOL0     C60792  13.792   9.488   7.819 -0.1157  1.0391  0.0838
  451MOL0     C60793  13.951   9.490   7.859 -0.0863  0.5836 -0.3256
  451MOL0    Cl60794  13.953   9.428   8.028 -0.0024  0.2542  0.2112
  451MOL0     C60795  13.278   9.735   7.587  0.0170 -1.2174  0.5176
  451MOL0     C60796  13.188   9.841   7.599  0.0867  0.6000  0.0419
  451MOL0     O60797  12.886   9.861   7.790 -0.0292 -1.0920 -0.1123
  451MOL0     C60798  12.609   9.923   7.733  0.4582 -0.0636  0.4888
  451MOL0     C60799  12.481   9.946   7.692 -0.1819  0.3905  0.4748
  451MOL0     N60800  11.758   9.698   7.673  0.4623  0.0321 -0.0297
  451MOL0     N60801  11.630   9.671   7.697  0.1191 -0.1867 -0.9138
  451MOL0     C60802  10.324   9.475   7.659  0.7806  0.3896 -0.1501
  451MOL0     C60803  10.196   9.440   7.622 -0.6217 -0.8816  0.6372
  451MOL0     C60804   9.719   9.410   7.640  0.2299  0.2755  0.2349
  451MOL0     C60805   9.637   9.299   7.693 -0.2883 -0.3183 -0.0660
  451MOL0     C60806   9.513   9.254   7.632 -0.7639  0.1753 -0.2480
  451MOL0     C60807   9.471   9.322   7.516  0.7726  0.1297  0.3614
  451MOL0     O60808   9.344   9.318   7.458 -0.1961 -0.3936  0.1619
  451MOL0     C60809   9.244   9.228   7.494  0.4005 -0.4280  0.5795
  451MOL0     C60810   9.221   9.112   7.397  0.0461 -0.3552 -0.4138
  451MOL0     C60811   9.339   9.014   7.409  0.6558  0.7116 -0.9770
  451MOL0     C60812   9.330   8.880   7.348 -0.1902 -0.1378  0.3041
  451MOL0     C60813   9.224   8.790   7.396 -0.1293  0.1704  0.8143
  451MOL0     C60814   9.146   8.708   7.437 -0.7367  1.1265  0.0467
  451MOL0     C60815   9.549   9.426   7.463  0.4620  0.3660  0.0781
  451MOL0     C60816   9.671   9.461   7.520 -0.0801 -0.0142 -0.3465
  451MOL0     C60817   9.739   9.570   7.448 -0.4259  0.1551 -0.4752
  451MOL0     H60818  10.027   9.647   7.840  0.2151 -0.6331  0.7234
  451MOL0     H60819  10.258   9.698   7.896 -0.0826  0.5841 -0.0315
  451MOL0     H60820  10.575   9.447   7.739 -1.5383 -0.1840  0.2982
  451MOL0     H60821  10.575   9.587   7.626 -2.7298  1.6037  0.1120
  451MOL0     H60822  10.733   9.519   7.869  0.6886  1.4974  1.9744
  451MOL0     H60823  10.691   9.691   7.843  2.6392  0.9710 -0.8313
  451MOL0     H60824  10.826   9.668   7.626  0.2612 -0.1856  0.6827
  451MOL0     H60825  10.824   9.493   7.643  0.2332  0.3930 -0.9560
  451MOL0     H60826  10.945   9.687   7.858 -1.3094 -0.7719  0.6896
  451MOL0     H60827  10.975   9.518   7.841  2.0745 -0.0078 -0.4165
  451MOL0     H60828  11.115   9.551   7.653 -0.7817  0.3480 -0.2525
  451MOL0     H60829  11.070   9.720   7.632  0.9965  1.9828  1.8031
  451MOL0     H60830  11.176   9.760   7.872  0.2618  1.8189 -1.2186
  451MOL0     H60831  11.228   9.597   7.850  4.2948  0.0112 -0.4783
  451MOL0     H60832  11.308   9.829   7.678  0.3468 -1.1058 -0.8337
  451MOL0     H60833  11.377   9.660   7.674  1.1283  0.5469 -0.9230
  451MOL0     H60834  11.428   9.894   7.864  1.4475  1.0220 -4.3649
  451MOL0     H60835  11.438   9.728   7.926 -3.3960 -1.1763 -0.5027
  451MOL0     H60836  11.665   9.966   7.833  0.1963  0.9126 -0.0650
  451MOL0     H60837  11.936   9.974   7.765  0.7087 -0.8880  0.9430
  451MOL0     H60838  11.997   9.807   7.746  0.4697 -0.1407  0.8452
  451MOL0     H60839  11.961   9.807   7.506 -2.2904 -0.9732  1.2747
  451MOL0     H60840  11.862   9.947   7.512  1.4521  0.7727 -1.5333
  451MOL0     H60841  12.060  10.096   7.563  1.1870  0.2103  0.6489
  451MOL0     H60842  12.120   9.999   7.428 -0.8989 -0.1964 -0.6778
  451MOL0     H60843  12.200   9.849   7.630 -1.4738 -0.4267 -0.0355
  451MOL0     H60844  12.217  10.016   7.694 -1.8858  2.1156 -1.2102
  451MOL0     H60845  12.536  10.003   7.366  2.5176  0.5382 -0.8338
  451MOL0     H60846  12.767   9.958   7.438 -0.4936  0.5116  0.0839
  451MOL0     H60847  12.905   9.667   7.546 -0.4401 -0.7004 -1.9168
  451MOL0     H60848  13.069   9.481   7.535 -1.8848  0.4314 -0.5224
  451MOL0     H60849  13.220   9.330   7.548  2.0169  0.8913 -1.7147
  451MOL0     H60850  13.387   9.322   7.587 -0.8232 -2.0201 -0.9128
  451MOL0     H60851  13.155   9.400   7.773 -0.6458 -0.3940 -1.1055
  451MOL0     H60852  13.263   9.263   7.781 -0.5065 -0.4465 -0.7623
  451MOL0     H60853  13.299   9.553   7.878  0.9143  0.3406  2.5770
  451MOL0     H60854  13.344   9.407   7.956  1.2796  1.2600  0.8191
  451MOL0     H60855  13.494   9.545   7.724 -0.1177  0.8954  0.4663
  451MOL0     H60856  13.538   9.389   7.796  1.3170  0.1827  2.0072
  451MOL0     H60857  13.567   9.481   8.004  2.8800  0.1646 -0.3292
  451MOL0     H60858  13.527   9.648   7.965 -0.4645  0.2838 -0.9923
  451MOL0     H60859  13.710   9.689   7.836  2.5895  2.3048  3.1958
  451MOL0     H60860  13.758   9.620   7.986  0.2823 -2.5463  0.5292
  451MOL0     H60861  13.774   9.513   7.714 -0.1286  2.6591  0.4477
  451MOL0     H60862  13.771   9.384   7.846  1.7572  0.2484 -1.3273
  451MOL0     H60863  14.016   9.430   7.794 -1.3303  0.4965 -1.5366
  451MOL0     H60864  13.987   9.593   7.855  0.1035  0.4873 -1.6283
  451MOL0     H60865  13.385   9.754   7.588  0.0068 -1.1816  1.0566
  451MOL0     H60866  13.216   9.944   7.616 -0.0643  0.9774 -1.7856
  451MOL0     H60867  12.625   9.890   7.835 -2.1858  0.5915  1.1781
  451MOL0     H60868  12.410   9.934   7.774 -1.0007  1.1469 -0.1053
  451MOL0     H60869  10.403   9.423   7.607  0.3097  1.7666 -2.3515
  451MOL0     H60870  10.178   9.369   7.542 -1.8838  1.8664 -1.7131
  451MOL0     H60871   9.680   9.257   7.783  1.0547  0.7259 -0.1820
  451MOL0     H60872   9.448   9.182   7.682  1.8160 -1.4829  0.8917
  451MOL0     H60873   9.154   9.291   7.497  0.4853 -0.2967  0.3928
  451MOL0     H60874   9.264   9.180   7.590 -0.7540 -3.7876 -0.7253
  451MOL0     H60875   9.223   9.158   7.298 -0.1496  3.3239  1.1397
  451MOL0     H60876   9.126   9.066   7.423  1.2194 -3.0659 -0.5584
  451MOL0     H60877   9.354   8.988   7.514  0.9965  0.3132 -1.1177
  451MOL0     H60878   9.429   9.059   7.365  1.5338 -0.5299 -0.5234
  451MOL0     H60879   9.295   8.893   7.245  2.1821 -0.5234 -0.5958
  451MOL0     H60880   9.431   8.840   7.351  1.2750  3.2383  2.1402
  451MOL0     H60881   9.087   8.636   7.492 -0.7453  1.1099  0.0164
  451MOL0     H60882   9.511   9.471   7.372  2.4686  2.5503  0.2310
  451MOL0     H60883   9.835   9.536   7.408  0.7726  3.5874 -0.8700
  451MOL0     H60884   9.681   9.602   7.361 -0.4838 -1.2674 -0.9811
  451MOL0     H60885   9.752   9.656   7.514  0.9704  1.8384 -2.8113
  452MOL0     O60886  10.776   6.352   8.348  0.0140  0.5422 -1.1561
  452MOL0     C60887  10.860   6.391   8.427  0.3363 -0.9595  0.0281
  452MOL0     O60888  10.843   6.490   8.523  0.4345 -0.1301 -0.5550
  452MOL0     C60889  10.723   6.556   8.527 -0.5033 -0.4577 -0.0816
  452MOL0     C60890  10.602   6.486   8.527  0.4569  0.3653 -0.2896
  452MOL0     C60891  10.482   6.550   8.548  0.2700  0.1107  0.6260
  452MOL0     C60892  10.494   6.682   8.591 -0.1768  1.4288  0.9597
  452MOL0     O60893  10.372   6.739   8.621 -0.6777 -0.6129 -0.4947
  452MOL0     C60894  10.374   6.844   8.717  0.9755 -0.2344 -0.0468
  452MOL0     C60895  10.230   6.905   8.746 -0.4545 -0.2825 -0.8904
  452MOL0     C60896  10.103   6.804   8.759  0.7888 -0.1756  0.0613
  452MOL0     C60897   9.967   6.866   8.795 -0.2720  0.6327 -0.2692
  452MOL0     C60898   9.908   6.939   8.679  0.2988  0.2516 -0.5005
  452MOL0     C60899   9.768   6.984   8.703 -0.5485 -0.6555  0.3976
  452MOL0     C60900   9.707   7.025   8.562  0.5103 -0.7298  0.0375
  452MOL0     C60901   9.566   7.091   8.577 -1.0335  0.3840 -0.5332
  452MOL0     N60902   9.461   6.993   8.609 -0.0951 -0.5035 -0.0205
  452MOL0     C60903   9.407   6.983   8.734  0.2441  0.5709  0.2657
  452MOL0     C60904   9.301   6.899   8.711 -0.3946  0.0191 -0.3018
  452MOL0     C60905   9.193   6.857   8.802  1.0305  0.2082  0.2304
  452MOL0     C60906   9.232   6.833   8.949 -0.7071  0.5021 -0.0868
  452MOL0     C60907   9.351   6.734   8.956 -0.5623 -0.2162 -0.7695
  452MOL0     C60908   9.367   6.692   9.101  0.1988  0.6467  0.2300
  452MOL0     O60909   9.423   6.806   9.175 -0.0829 -0.0078  0.0218
  452MOL0     C60910   9.557   6.817   9.196 -0.0121 -0.0084  0.6335
  452MOL0     C60911   9.653   6.734   9.137 -0.0709 -0.1024 -0.3216
  452MOL0     C60912   9.788   6.759   9.150 -0.0446  0.8014  0.1592
  452MOL0     C60913   9.837   6.859   9.233 -0.3663  0.1169 -0.0373
  452MOL0     C60914   9.982   6.884   9.262 -0.3760 -0.3679 -0.8086
  452MOL0     O60915  10.066   6.857   9.162  0.4712 -0.4295 -0.0760
  452MOL0     C60916  10.194   6.912   9.149 -0.4504 -0.0738  0.0674
  452MOL0     C60917  10.301   6.825   9.108 -0.2951 -0.5996 -0.0321
  452MOL0     C60918  10.432   6.869   9.102  0.6194 -0.0378  0.0290
  452MOL0     C60919  10.457   7.005   9.131  0.5028  0.6399  0.3690
  452MOL0     O60920  10.578   7.060   9.118  0.2660  0.0195  0.8588
  452MOL0     C60921  10.648   7.039   8.992 -0.0662  0.5092  0.6266
  452MOL0     C60922  10.796   7.097   8.994  0.0589  0.4647 -0.3506
  452MOL0     C60923  10.838   7.122   8.853 -0.6019  1.1265 -0.0999
  452MOL0     C60924  10.977   7.175   8.855 -0.5932 -0.1309 -0.5984
  452MOL0     C60925  11.041   7.177   8.715 -0.0754  0.3135 -0.7585
  452MOL0     C60926  11.154   7.274   8.706  0.1365  0.1520  0.3077
  452MOL0     C60927  11.229   7.259   8.572  0.6579  0.2389  0.2253
  452MOL0     C60928  11.372   7.267   8.592  0.5607 -0.1947 -0.6630
  452MOL0    Cl60929  11.448   7.208   8.444  0.2141 -0.1846 -0.5472
  452MOL0     C60930  10.355   7.094   9.176 -0.0054 -0.2017  1.5384
  452MOL0     C60931  10.220   7.046   9.178 -0.2374  0.0953  0.8624
  452MOL0     O60932  10.011   6.951   9.360  0.2859  0.1396  0.3457
  452MOL0     C60933   9.744   6.949   9.283  0.4429 -0.3208 -0.1943
  452MOL0     C60934   9.608   6.935   9.263  0.2167  0.4715  0.6467
  452MOL0     N60935   9.312   6.847   8.578  0.4468 -0.3075 -0.1034
  452MOL0     N60936   9.395   6.921   8.515  0.5010  0.4912  0.5808
  452MOL0     C60937  10.614   6.752   8.601 -0.0645 -0.1345 -0.3337
  452MOL0     C60938  10.738   6.688   8.563  0.7316 -0.4988  0.4874
  452MOL0     C60939  10.990   6.331   8.402 -0.5476  0.2514  0.0352
  452MOL0     C60940  11.101   6.412   8.372  1.1553 -0.5504  0.7825
  452MOL0     C60941  11.222   6.363   8.331  0.9763 -0.1784  0.1987
  452MOL0     C60942  11.241   6.234   8.315 -0.9603  1.0206  0.1465
  452MOL0     O60943  11.372   6.197   8.267  0.3169  0.3955  0.3583
  452MOL0     C60944  11.400   6.063   8.251 -0.0905  0.4547 -0.5163
  452MOL0     C60945  11.545   6.034   8.220 -1.0109  0.7855 -0.4443
  452MOL0     C60946  11.579   5.893   8.176  0.0058 -0.0110 -0.5350
  452MOL0     C60947  11.583   5.782   8.282  0.0050  0.1686  0.1715
  452MOL0     C60948  11.626   5.648   8.231 -0.2864  0.2105  0.7436
  452MOL0     C60949  11.673   5.546   8.181  0.3657 -0.6232  0.7677
  452MOL0     C60950  11.140   6.145   8.351  0.9265 -0.3269  0.6181
  452MOL0     C60951  11.009   6.189   8.389  0.0820 -0.9290  0.2057
  452MOL0     C60952  10.914   6.079   8.418 -0.3554  0.2799 -0.2285
  452MOL0     H60953  10.594   6.380   8.506 -1.9211 -0.4092  3.4993
  452MOL0     H60954  10.382   6.507   8.539  0.9123 -1.9690  2.3959
  452MOL0     H60955  10.414   6.791   8.803  2.2763 -1.4517 -1.3472
  452MOL0     H60956  10.432   6.934   8.695 -0.2646  0.5437 -0.2606
  452MOL0     H60957  10.214   6.975   8.663  2.3361 -0.6911 -1.8730
  452MOL0     H60958  10.240   6.956   8.842  1.0769  0.6391 -1.5094
  452MOL0     H60959  10.123   6.732   8.839 -1.4741 -2.0296 -0.8941
  452MOL0     H60960  10.088   6.759   8.661  2.3646  3.6265 -2.1447
  452MOL0     H60961   9.902   6.780   8.816  0.3582  0.0017 -0.8659
  452MOL0     H60962   9.982   6.934   8.878  2.9310  0.0038 -0.1942
  452MOL0     H60963   9.971   7.022   8.648 -2.1341  3.2677  1.9223
  452MOL0     H60964   9.920   6.873   8.593  3.5149  0.7630 -0.5692
  452MOL0     H60965   9.708   6.911   8.758 -1.5469  0.2947  0.6175
  452MOL0     H60966   9.771   7.068   8.773 -1.0294 -0.8323  0.6411
  452MOL0     H60967   9.709   6.945   8.487 -0.9842 -1.5508  0.8312
  452MOL0     H60968   9.768   7.111   8.532  0.4447 -1.1318 -1.3295
  452MOL0     H60969   9.573   7.172   8.651 -0.8592 -0.9074  0.9144
  452MOL0     H60970   9.540   7.143   8.484  2.2339  2.7797 -0.2608
  452MOL0     H60971   9.420   7.026   8.833 -1.3834  2.5429 -0.3171
  452MOL0     H60972   9.108   6.927   8.801 -0.0746 -1.0904  0.5803
  452MOL0     H60973   9.152   6.763   8.765 -1.9632  1.5420 -0.1550
  452MOL0     H60974   9.273   6.932   8.971  2.4502 -1.0924  2.0752
  452MOL0     H60975   9.146   6.808   9.012 -0.6324  0.6134  0.0609
  452MOL0     H60976   9.441   6.785   8.920  1.2714 -2.2734  0.6448
  452MOL0     H60977   9.330   6.646   8.895  2.5908 -0.7604 -1.2049
  452MOL0     H60978   9.418   6.595   9.103  0.2759  0.6439 -1.2113
  452MOL0     H60979   9.271   6.662   9.144  1.5875 -1.8226  1.9095
  452MOL0     H60980   9.628   6.642   9.085  0.3489 -1.9106  2.4436
  452MOL0     H60981   9.866   6.700   9.103  2.3970  0.5094  4.1652
  452MOL0     H60982  10.277   6.722   9.086  0.1966 -0.8993  0.7923
  452MOL0     H60983  10.511   6.802   9.071  1.1223 -2.9306  6.2715
  452MOL0     H60984  10.661   6.933   8.969 -1.3621 -0.0073  2.0943
  452MOL0     H60985  10.584   7.074   8.911  2.7422 -0.2423 -2.0747
  452MOL0     H60986  10.800   7.189   9.053  2.6682 -0.2538  0.7485
  452MOL0     H60987  10.863   7.020   9.033  0.0730 -0.3032 -1.7954
  452MOL0     H60988  10.812   7.026   8.808 -1.9447  1.3119  0.2167
  452MOL0     H60989  10.765   7.189   8.806 -4.1210 -2.8707 -0.9969
  452MOL0     H60990  11.030   7.113   8.927  0.9877  2.8467  1.0076
  452MOL0     H60991  10.970   7.277   8.894  3.7030  0.3625 -0.5802
  452MOL0     H60992  10.962   7.193   8.641 -0.8127 -1.4830 -0.3981
  452MOL0     H60993  11.076   7.077   8.691 -0.6162  0.3843 -1.8958
  452MOL0     H60994  11.111   7.375   8.713 -2.0385 -0.5955 -1.0591
  452MOL0     H60995  11.218   7.247   8.790 -1.5102  3.2661  2.8129
  452MOL0     H60996  11.182   7.340   8.516  1.1616  0.8560  0.6756
  452MOL0     H60997  11.211   7.158   8.534  0.2352 -0.8385  3.0453
  452MOL0     H60998  11.408   7.370   8.600 -2.3126  0.7820  1.1841
  452MOL0     H60999  11.410   7.201   8.670  3.9477  1.0770 -1.0816
  452MOL0     H61000  10.385   7.190   9.214  1.1942 -0.8303  2.2355
  452MOL0     H61001  10.138   7.112   9.202 -2.6650 -1.7449 -1.6608
  452MOL0     H61002   9.777   7.032   9.344  1.3408 -2.7031  2.8292
  452MOL0     H61003   9.543   7.015   9.299  0.3241 -0.2902  2.6695
  452MOL0     H61004  10.616   6.852   8.643  0.1019 -0.0613 -0.5106
  452MOL0     H61005  10.836   6.734   8.565  0.2111  0.6084  1.4378
  452MOL0     H61006  11.105   6.518   8.391  5.3661 -0.4412  0.2066
  452MOL0     H61007  11.300   6.438   8.316 -0.7327  1.7722  0.6663
  452MOL0     H61008  11.340   6.031   8.165 -0.8801  2.1043 -0.6142
  452MOL0     H61009  11.372   6.008   8.341  1.1238 -0.8743 -0.9125
  452MOL0     H61010  11.601   6.051   8.312 -1.2404  0.4859 -0.2475
  452MOL0     H61011  11.576   6.110   8.147 -2.0056  0.1419 -1.5868
  452MOL0     H61012  11.682   5.900   8.138  0.2091  0.0815  0.0206
  452MOL0     H61013  11.516   5.859   8.094  0.7830 -0.7652 -0.8319
  452MOL0     H61014  11.662   5.815   8.349 -3.2480  1.4174  3.7570
  452MOL0     H61015  11.480   5.778   8.319 -0.2628  3.2940  0.0348
  452MOL0     H61016  11.712   5.465   8.123  3.0339 -0.1726  1.7770
  452MOL0     H61017  11.155   6.039   8.338 -2.2744 -0.6444 -1.7229
  452MOL0     H61018  10.958   5.995   8.473 -1.9232 -0.4142  0.0260
  452MOL0     H61019  10.830   6.113   8.479 -3.5946 -4.3601 -1.5450
  452MOL0     H61020  10.868   6.030   8.332 -2.8690  0.8345  0.6991
  453MOL0     O61021   0.608   1.398   7.085  0.0408 -0.2440 -0.3683
  453MOL0     C61022   0.604   1.345   6.973 -0.0243 -0.8320 -0.1530
  453MOL0     O61023   0.719   1.304   6.912  0.0191 -0.4399  0.4973
  453MOL0     C61024   0.842   1.323   6.971 -0.5272  0.3235 -0.8185
  453MOL0     C61025   0.914   1.436   6.959  0.0635 -0.2144  0.8446
  453MOL0     C61026   1.040   1.460   7.021 -0.2331  1.2647 -0.2282
  453MOL0     C61027   1.094   1.359   7.099  0.0583 -0.0093 -0.1891
  453MOL0     O61028   1.212   1.360   7.170  0.1867  0.8084 -0.4185
  453MOL0     C61029   1.267   1.492   7.195 -0.2605  0.0288 -0.1563
  453MOL0     C61030   1.384   1.490   7.293 -1.1264 -0.0252 -1.2184
  453MOL0     C61031   1.497   1.604   7.291 -0.2724  0.5420 -0.0045
  453MOL0     C61032   1.579   1.596   7.421 -0.0763 -0.1980  0.0989
  453MOL0     C61033   1.693   1.699   7.418  0.0086 -0.3725  0.1023
  453MOL0     C61034   1.803   1.700   7.525  1.0685  0.0437 -0.6636
  453MOL0     C61035   1.923   1.777   7.466 -0.0514 -0.4323 -0.5060
  453MOL0     C61036   2.055   1.753   7.548  0.2977 -0.2029 -0.1222
  453MOL0     N61037   2.168   1.834   7.503 -0.1432  0.0549  0.6095
  453MOL0     C61038   2.218   1.848   7.374 -0.1873 -0.0682 -0.3653
  453MOL0     C61039   2.313   1.938   7.403 -1.1636  0.0288 -0.1979
  453MOL0     C61040   2.421   1.967   7.295  0.2580  0.2467 -0.4602
  453MOL0     C61041   2.507   1.846   7.262  0.3814 -0.4313  0.2680
  453MOL0     C61042   2.616   1.866   7.146  0.1073 -0.0951  0.5767
  453MOL0     C61043   2.718   1.969   7.187 -0.0258 -0.3179  1.0027
  453MOL0     O61044   2.673   2.098   7.135  0.0549 -0.5835  0.3742
  453MOL0     C61045   2.728   2.211   7.185 -0.7841 -0.3394 -0.4756
  453MOL0     C61046   2.864   2.228   7.210 -0.0707  0.3669  0.3580
  453MOL0     C61047   2.916   2.353   7.252 -0.3155  0.6540 -0.5707
  453MOL0     C61048   2.821   2.453   7.277  0.3323  0.7014 -0.4786
  453MOL0     C61049   2.857   2.582   7.324  0.5541  0.2560  0.1910
  453MOL0     O61050   2.771   2.657   7.381  0.0847 -0.9847 -0.0659
  453MOL0     C61051   2.797   2.790   7.430  0.2563  0.5939  1.0294
  453MOL0     C61052   2.917   2.827   7.496  0.4327  0.5390  0.0324
  453MOL0     C61053   2.930   2.958   7.549  0.1997 -0.4522  0.3790
  453MOL0     C61054   2.832   3.053   7.528  0.4631  0.4533  0.4484
  453MOL0     O61055   2.839   3.187   7.561  0.3810  0.1825 -0.3262
  453MOL0     C61056   2.961   3.232   7.623 -0.2624 -0.1130  1.0011
  453MOL0     C61057   2.954   3.384   7.655  0.5502 -1.0284  0.2626
  453MOL0     C61058   3.082   3.427   7.742 -0.0229  0.0568  0.4279
  453MOL0     C61059   3.113   3.574   7.721  0.0837  0.1085  0.0742
  453MOL0     C61060   3.216   3.640   7.818  0.2167  0.4637 -0.1786
  453MOL0     C61061   3.357   3.623   7.766 -0.2960 -0.4368 -0.0252
  453MOL0     C61062   3.460   3.702   7.845 -0.0889 -0.0030 -0.0633
  453MOL0     C61063   3.504   3.624   7.968  0.0587  1.0272 -0.3505
  453MOL0    Cl61064   3.616   3.715   8.084 -0.4836  0.2167  0.0561
  453MOL0     C61065   2.710   3.012   7.473  0.8408  0.1060  0.9561
  453MOL0     C61066   2.695   2.886   7.418 -1.2121  1.1891 -0.1081
  453MOL0     O61067   2.975   2.609   7.307 -0.2957 -0.3776  0.2014
  453MOL0     C61068   2.685   2.437   7.238 -0.1322 -0.4542 -0.0321
  453MOL0     C61069   2.645   2.317   7.184  0.7803  0.2395 -0.0836
  453MOL0     N61070   2.323   1.979   7.533 -0.4452  0.3424 -0.2210
  453MOL0     N61071   2.233   1.919   7.593  0.1459 -0.1480  0.4514
  453MOL0     C61072   1.030   1.237   7.097 -0.1598  0.0703 -0.3810
  453MOL0     C61073   0.907   1.218   7.040 -0.3398 -0.0750  0.3027
  453MOL0     C61074   0.481   1.333   6.894  0.4596 -0.1963  0.3437
  453MOL0     C61075   0.475   1.376   6.760  0.0580 -0.8640 -0.8181
  453MOL0     C61076   0.357   1.372   6.686 -0.6756  0.8425 -0.3379
  453MOL0     C61077   0.243   1.338   6.745 -0.5559  0.9622 -0.2377
  453MOL0     O61078   0.116   1.338   6.689  0.1874  0.3251 -0.3367
  453MOL0     C61079   0.102   1.364   6.550 -0.2093  0.3090 -0.5435
  453MOL0     C61080  -0.041   1.400   6.525 -0.2229  0.2964  0.2543
  453MOL0     C61081  -0.117   1.272   6.488 -0.7308 -0.2635  0.8513
  453MOL0     C61082  -0.125   1.170   6.602  0.2855  1.3531 -0.0066
  453MOL0     C61083  -0.231   1.075   6.595  0.1652  0.4053  0.1660
  453MOL0     C61084  -0.326   0.999   6.585  0.1114 -1.0880  0.3457
  453MOL0     C61085   0.246   1.293   6.880 -0.1494  0.2891 -1.3256
  453MOL0     C61086   0.365   1.298   6.954 -0.3597  0.1219  0.4113
  453MOL0     C61087   0.356   1.258   7.097  1.1628  0.6552  0.8452
  453MOL0     H61088   0.879   1.519   6.899  0.5372  0.1194  1.0247
  453MOL0     H61089   1.082   1.557   6.995 -1.2635  2.2330  1.4577
  453MOL0     H61090   1.308   1.537   7.105 -0.1908  0.8436  0.2769
  453MOL0     H61091   1.198   1.561   7.244 -1.1719 -2.4483  2.3852
  453MOL0     H61092   1.442   1.398   7.299 -2.4510 -0.8066  1.7411
  453MOL0     H61093   1.329   1.486   7.388  2.3693 -4.2964  0.9967
  453MOL0     H61094   1.459   1.706   7.277 -0.1830  0.2617 -3.0390
  453MOL0     H61095   1.565   1.583   7.208  0.1447 -0.5544  0.6008
  453MOL0     H61096   1.518   1.615   7.509 -2.3198 -1.9347 -0.9582
  453MOL0     H61097   1.617   1.493   7.424  2.8429  0.7817  0.1880
  453MOL0     H61098   1.743   1.690   7.321 -0.9258  0.8266 -0.5066
  453MOL0     H61099   1.634   1.790   7.422  0.1216 -0.2653 -0.5766
  453MOL0     H61100   1.770   1.735   7.623  2.7182  1.3972 -0.5468
  453MOL0     H61101   1.829   1.594   7.532  0.4515 -0.0772 -0.0644
  453MOL0     H61102   1.913   1.886   7.473  5.4215  0.3124 -0.2390
  453MOL0     H61103   1.937   1.769   7.358 -1.1511  2.8125 -0.9974
  453MOL0     H61104   2.035   1.753   7.656  3.4920 -3.0213  0.6588
  453MOL0     H61105   2.078   1.650   7.523  2.4711  0.5391 -1.4495
  453MOL0     H61106   2.203   1.787   7.286  0.6519 -0.6476 -0.1195
  453MOL0     H61107   2.367   1.997   7.204  0.6813  0.4568 -0.6484
  453MOL0     H61108   2.478   2.054   7.331 -2.0551  1.2237  1.0969
  453MOL0     H61109   2.560   1.812   7.351  0.5605 -3.2953 -0.8379
  453MOL0     H61110   2.432   1.770   7.239 -2.8191  3.1595 -2.5414
  453MOL0     H61111   2.577   1.863   7.044 -0.1336 -1.2145  0.6853
  453MOL0     H61112   2.660   1.767   7.130  1.3690  0.4099  0.7978
  453MOL0     H61113   2.804   1.936   7.127  0.1277 -1.4064  1.7793
  453MOL0     H61114   2.749   1.978   7.291 -1.1485 -0.6813  1.3806
  453MOL0     H61115   2.921   2.136   7.212 -3.8636 -2.2883 -1.1623
  453MOL0     H61116   3.018   2.352   7.290  0.3178  0.0871 -2.1913
  453MOL0     H61117   2.994   2.751   7.510 -0.3275 -0.3631 -0.5671
  453MOL0     H61118   3.021   2.984   7.603 -1.0729 -0.2075  2.5388
  453MOL0     H61119   2.978   3.187   7.722 -0.6092  1.1390  1.6629
  453MOL0     H61120   3.046   3.213   7.557 -1.1862 -2.3341  0.3779
  453MOL0     H61121   2.955   3.444   7.563 -1.2871 -0.1998  0.7259
  453MOL0     H61122   2.865   3.416   7.711  0.0142 -3.6040  1.0224
  453MOL0     H61123   3.043   3.405   7.842 -2.2509 -1.4300 -0.6794
  453MOL0     H61124   3.173   3.367   7.732 -0.5744 -1.1144  2.0206
  453MOL0     H61125   3.015   3.620   7.735 -0.6072 -1.3964  0.3913
  453MOL0     H61126   3.136   3.594   7.616 -3.2184  1.2250 -0.5594
  453MOL0     H61127   3.208   3.605   7.922 -4.5007  1.5531  0.0341
  453MOL0     H61128   3.201   3.748   7.823 -3.1180  0.0827  0.0571
  453MOL0     H61129   3.383   3.517   7.769  2.0543 -0.0365 -2.4103
  453MOL0     H61130   3.362   3.653   7.661 -2.3135 -2.2063 -0.6824
  453MOL0     H61131   3.419   3.799   7.876  1.3304  1.1890 -1.7916
  453MOL0     H61132   3.544   3.710   7.777  1.1882 -1.4063  1.2664
  453MOL0     H61133   3.414   3.590   8.020  0.3688  1.3269  0.3955
  453MOL0     H61134   3.558   3.536   7.934  0.4080  1.4308 -0.8518
  453MOL0     H61135   2.637   3.091   7.480 -0.7557 -1.3990  2.0079
  453MOL0     H61136   2.602   2.851   7.372  0.1516 -1.4224 -1.0618
  453MOL0     H61137   2.613   2.518   7.251 -0.4933 -1.1178  2.8295
  453MOL0     H61138   2.544   2.311   7.145  1.2908  3.5813 -2.3550
  453MOL0     H61139   1.059   1.151   7.157 -2.4533 -1.1343 -0.9112
  453MOL0     H61140   0.866   1.119   7.052  0.0568 -0.6404 -2.4486
  453MOL0     H61141   0.566   1.403   6.708 -0.4043  1.0430 -0.7115
  453MOL0     H61142   0.351   1.390   6.579 -1.9689 -1.5484 -0.7355
  453MOL0     H61143   0.143   1.277   6.497 -0.2329 -0.6557  0.9362
  453MOL0     H61144   0.175   1.439   6.517 -0.5873 -0.2320 -2.7944
  453MOL0     H61145  -0.055   1.476   6.447  1.3778  2.8205  2.2779
  453MOL0     H61146  -0.091   1.444   6.611 -1.6593 -2.8869  1.1905
  453MOL0     H61147  -0.066   1.233   6.400  3.0570  4.5167  0.5212
  453MOL0     H61148  -0.218   1.306   6.462 -0.0174  2.1415  0.9141
  453MOL0     H61149  -0.029   1.124   6.627 -0.2075  0.0597 -0.3952
  453MOL0     H61150  -0.148   1.220   6.696  0.1170  1.6102 -0.1859
  453MOL0     H61151  -0.403   0.927   6.567 -2.2083  2.0400 -4.3142
  453MOL0     H61152   0.154   1.259   6.926  0.2571  0.1079 -0.6319
  453MOL0     H61153   0.445   1.208   7.137  0.4944  0.4677  2.1645
  453MOL0     H61154   0.334   1.351   7.151 -1.0736 -2.0161  5.1226
  453MOL0     H61155   0.277   1.187   7.124  1.2759 -0.1223 -0.7626
  454MOL0     O61156  10.577   2.861   5.636 -0.8716 -0.1814 -0.2659
  454MOL0     C61157  10.455   2.821   5.634 -0.2031 -0.6019  0.9706
  454MOL0     O61158  10.416   2.708   5.682  0.0478  0.4643  0.3333
  454MOL0     C61159  10.513   2.611   5.723  1.1063 -0.5131 -0.4033
  454MOL0     C61160  10.522   2.487   5.669  0.1812  0.7343  0.5153
  454MOL0     C61161  10.616   2.395   5.710  0.4854 -0.2606  0.7686
  454MOL0     C61162  10.715   2.432   5.801 -0.7116 -0.9411 -0.2562
  454MOL0     O61163  10.829   2.358   5.838 -0.8142  0.2653  0.6808
  454MOL0     C61164  10.840   2.218   5.794 -0.0721 -0.5518 -0.1614
  454MOL0     C61165  10.964   2.160   5.851 -0.8022  0.5446  0.3826
  454MOL0     C61166  11.091   2.231   5.796  0.2031 -0.6338 -1.3727
  454MOL0     C61167  11.188   2.129   5.741  0.2573  0.8286  0.0049
  454MOL0     C61168  11.321   2.192   5.684  0.2854 -0.2889 -0.5543
  454MOL0     C61169  11.400   2.275   5.780  1.1698  0.1398  0.1342
  454MOL0     C61170  11.510   2.332   5.704  0.6802  0.1431 -0.4138
  454MOL0     C61171  11.577   2.449   5.788  0.4667  0.3167 -0.8048
  454MOL0     N61172  11.616   2.414   5.928 -0.2508  0.6720  0.2290
  454MOL0     C61173  11.671   2.288   5.967  0.5369  0.7833  0.0246
  454MOL0     C61174  11.679   2.298   6.106 -0.0983 -0.5829  0.0458
  454MOL0     C61175  11.713   2.191   6.207  0.2610  0.0505  0.3093
  454MOL0     C61176  11.820   2.231   6.316 -1.0494 -0.1509  0.6064
  454MOL0     C61177  11.953   2.296   6.263  0.3967  0.3622  0.3184
  454MOL0     C61178  12.054   2.191   6.208  0.0203 -0.8802 -0.1338
  454MOL0     O61179  12.133   2.138   6.320 -0.1637  0.1979 -0.2364
  454MOL0     C61180  12.254   2.077   6.308  0.3571  0.5992 -0.1984
  454MOL0     C61181  12.285   2.013   6.184  0.1794 -0.1741  0.9964
  454MOL0     C61182  12.400   1.931   6.168  0.1615 -0.7322 -0.1271
  454MOL0     C61183  12.470   1.901   6.280 -0.3350  0.4876 -0.1575
  454MOL0     C61184  12.589   1.810   6.261 -0.1118  0.3729 -0.0506
  454MOL0     O61185  12.609   1.767   6.132 -0.7071  0.6263 -0.6275
  454MOL0     C61186  12.727   1.700   6.117 -0.0887  0.0296  1.0885
  454MOL0     C61187  12.733   1.568   6.159  0.1549  0.9098 -0.7794
  454MOL0     C61188  12.850   1.495   6.141 -0.0616  1.1211 -0.4700
  454MOL0     C61189  12.955   1.553   6.066  0.5977 -0.6982 -0.7878
  454MOL0     O61190  13.069   1.484   6.046 -0.3731  0.6213 -0.2023
  454MOL0     C61191  13.198   1.552   6.070 -0.9436 -0.5661 -0.6068
  454MOL0     C61192  13.317   1.461   6.073  0.2733  0.3807  0.2812
  454MOL0     C61193  13.303   1.349   6.171  0.3326  0.5082  0.3065
  454MOL0     C61194  13.427   1.266   6.195  0.4930  0.1640  0.4425
  454MOL0     C61195  13.447   1.152   6.092 -0.1184 -0.0511 -0.3053
  454MOL0     C61196  13.554   1.053   6.139 -0.4704 -0.1342  1.0913
  454MOL0     C61197  13.572   0.909   6.085  0.4909  0.4307  0.1152
  454MOL0     C61198  13.711   0.840   6.132 -0.2483 -0.1732 -0.2994
  454MOL0    Cl61199  13.678   0.792   6.305 -0.2021 -0.0163  0.5752
  454MOL0     C61200  12.945   1.681   6.015 -0.3730 -0.6319  1.3522
  454MOL0     C61201  12.831   1.755   6.032  1.0551 -0.2706 -0.4754
  454MOL0     O61202  12.660   1.780   6.360 -0.2337  0.2374  0.3412
  454MOL0     C61203  12.438   1.961   6.403  0.9154 -0.3682  0.1285
  454MOL0     C61204  12.329   2.047   6.423 -0.4642  0.1923  1.0494
  454MOL0     N61205  11.619   2.419   6.148  0.5080 -0.0230 -0.9190
  454MOL0     N61206  11.600   2.494   6.039 -0.2387 -0.1814 -0.3143
  454MOL0     C61207  10.704   2.556   5.864  0.8861  0.2197  0.5712
  454MOL0     C61208  10.603   2.642   5.822  0.3880 -0.6041 -0.2155
  454MOL0     C61209  10.347   2.906   5.587  0.0630  1.0430  0.0854
  454MOL0     C61210  10.225   2.914   5.655 -0.2639  0.8067 -0.0770
  454MOL0     C61211  10.126   3.009   5.617  0.4683  0.3417  0.7737
  454MOL0     C61212  10.140   3.081   5.502  0.6049 -0.6648  0.4709
  454MOL0     O61213  10.048   3.178   5.452 -0.1272  0.5225 -0.2146
  454MOL0     C61214   9.926   3.198   5.524  0.5274  0.4239 -0.3081
  454MOL0     C61215   9.805   3.121   5.460 -0.0997  0.3225 -0.6151
  454MOL0     C61216   9.664   3.155   5.512  1.0647  0.1851 -0.2347
  454MOL0     C61217   9.565   3.090   5.414 -0.4642 -0.3900 -0.6688
  454MOL0     C61218   9.573   2.944   5.422 -0.7333 -0.2975  0.0701
  454MOL0     C61219   9.582   2.824   5.422 -0.0795  0.1581  0.1045
  454MOL0     C61220  10.254   3.064   5.435 -0.6371 -0.3233  0.7336
  454MOL0     C61221  10.364   2.984   5.474 -1.1072  1.4297 -0.1497
  454MOL0     C61222  10.490   2.976   5.390 -0.8318 -0.6430 -0.3377
  454MOL0     H61223  10.448   2.459   5.595  3.9574 -0.8921 -3.0202
  454MOL0     H61224  10.614   2.299   5.659  0.2824  2.0382 -4.1254
  454MOL0     H61225  10.751   2.161   5.822 -0.5674 -0.2727 -1.1126
  454MOL0     H61226  10.841   2.217   5.685 -1.6090 -1.4781 -0.2009
  454MOL0     H61227  10.972   2.053   5.831  0.1640  0.6056  0.4155
  454MOL0     H61228  10.956   2.175   5.959  0.2909 -1.1327  0.7252
  454MOL0     H61229  11.140   2.272   5.885  0.7604 -3.1078 -0.4833
  454MOL0     H61230  11.074   2.313   5.725  0.4899 -0.3078 -1.0668
  454MOL0     H61231  11.197   2.065   5.830 -0.9507  0.0741 -0.3883
  454MOL0     H61232  11.136   2.070   5.665 -1.4566  3.5421 -1.0793
  454MOL0     H61233  11.395   2.112   5.669 -0.1032 -1.5201  3.0049
  454MOL0     H61234  11.306   2.245   5.590  1.1498  0.2699 -0.3828
  454MOL0     H61235  11.341   2.359   5.817  1.3628 -0.3261  1.5437
  454MOL0     H61236  11.443   2.209   5.856 -0.1676 -0.1276  0.6832
  454MOL0     H61237  11.482   2.368   5.605  3.3979 -0.5962 -1.5189
  454MOL0     H61238  11.568   2.243   5.677 -1.9357 -2.5378  1.9302
  454MOL0     H61239  11.658   2.497   5.733  0.9106 -0.1994 -0.6146
  454MOL0     H61240  11.498   2.523   5.805  0.4361 -0.0786  1.0322
  454MOL0     H61241  11.706   2.210   5.900 -0.2971  2.4259 -2.4861
  454MOL0     H61242  11.619   2.164   6.257 -0.3898  0.5101 -0.6482
  454MOL0     H61243  11.760   2.107   6.156 -0.6691  0.0990 -0.6438
  454MOL0     H61244  11.763   2.305   6.373 -1.3339  0.9841 -1.0886
  454MOL0     H61245  11.835   2.145   6.382  1.1049 -0.2102  0.0940
  454MOL0     H61246  12.002   2.334   6.352  0.5812 -3.6182  2.1300
  454MOL0     H61247  11.939   2.372   6.185 -0.5507 -0.3525 -0.2452
  454MOL0     H61248  12.124   2.237   6.137 -0.7242 -1.7487 -1.4572
  454MOL0     H61249  11.995   2.119   6.150  1.0155 -0.7867 -1.3130
  454MOL0     H61250  12.220   2.030   6.099  0.7829  0.3288  0.6238
  454MOL0     H61251  12.425   1.893   6.069  3.2032 -0.6082  0.4903
  454MOL0     H61252  12.651   1.530   6.218  0.8657 -1.4161 -1.2027
  454MOL0     H61253  12.851   1.392   6.174  0.9193  1.3237  0.1427
  454MOL0     H61254  13.216   1.627   5.993 -2.7214 -1.9935 -2.5160
  454MOL0     H61255  13.179   1.602   6.166 -0.4885  0.6872 -1.1421
  454MOL0     H61256  13.335   1.412   5.977 -2.1398  2.6741 -1.4744
  454MOL0     H61257  13.402   1.527   6.090  0.2732  0.8745 -1.4425
  454MOL0     H61258  13.278   1.387   6.270 -0.9682  1.5508 -0.3892
  454MOL0     H61259  13.216   1.285   6.154  0.3366  0.7709 -0.8259
  454MOL0     H61260  13.406   1.223   6.294  1.8010  0.7713  1.0079
  454MOL0     H61261  13.511   1.335   6.187 -1.0114  1.9226 -1.0145
  454MOL0     H61262  13.468   1.188   5.990 -0.5697  2.4085  0.4158
  454MOL0     H61263  13.352   1.097   6.089 -0.5380  0.6525 -0.1304
  454MOL0     H61264  13.643   1.109   6.107 -0.5737 -0.3920  0.3207
  454MOL0     H61265  13.543   1.044   6.247 -0.7704  2.0758  1.2886
  454MOL0     H61266  13.553   0.912   5.977  4.5009  0.6323 -0.7437
  454MOL0     H61267  13.498   0.843   6.131  1.7056  0.5285  2.3186
  454MOL0     H61268  13.746   0.763   6.062 -0.1925 -1.3356  0.9766
  454MOL0     H61269  13.791   0.914   6.136 -0.1291 -0.3569  2.2746
  454MOL0     H61270  13.029   1.730   5.966 -0.7099  0.0929  1.4849
  454MOL0     H61271  12.827   1.860   6.007  0.9091 -0.1794 -0.0773
  454MOL0     H61272  12.493   1.932   6.492 -1.2139  1.1956  2.0650
  454MOL0     H61273  12.325   2.094   6.521  3.2718 -2.9357  2.9360
  454MOL0     H61274  10.773   2.581   5.944  0.7486  1.1529  0.4133
  454MOL0     H61275  10.581   2.732   5.879 -3.3437 -1.5266  0.0449
  454MOL0     H61276  10.218   2.843   5.737  2.4807  0.9406  0.3948
  454MOL0     H61277  10.037   3.009   5.679 -0.2466  1.2909 -0.2280
  454MOL0     H61278   9.902   3.304   5.513  2.7080  1.0076  0.0185
  454MOL0     H61279   9.934   3.180   5.631 -0.3267 -0.0474 -0.3134
  454MOL0     H61280   9.823   3.013   5.466 -1.9951 -0.1333 -2.0530
  454MOL0     H61281   9.803   3.128   5.351 -0.1885 -0.3414 -0.6650
  454MOL0     H61282   9.642   3.262   5.518 -2.5098 -0.2903 -2.2256
  454MOL0     H61283   9.656   3.106   5.610  1.3313 -0.3918 -0.4969
  454MOL0     H61284   9.461   3.119   5.434  0.6883  3.0422  1.2211
  454MOL0     H61285   9.581   3.115   5.308 -1.8062 -3.3657 -1.6922
  454MOL0     H61286   9.571   2.717   5.421 -2.1902  0.3003 -1.7641
  454MOL0     H61287  10.259   3.115   5.339  0.0157 -0.0583  0.9015
  454MOL0     H61288  10.527   2.873   5.382 -1.7782 -0.8279 -4.4939
  454MOL0     H61289  10.479   3.006   5.285  0.6790  0.5767 -0.1925
  454MOL0     H61290  10.564   3.037   5.442 -0.5276 -2.7869  1.9327
  455MOL0     O61291   6.106  10.472   2.193  0.4149  0.2718  0.6489
  455MOL0     C61292   6.067  10.462   2.307  0.6404  0.5665  0.7654
  455MOL0     O61293   6.066  10.345   2.378  0.0728  0.2791  0.1027
  455MOL0     C61294   6.097  10.240   2.302  0.4107  0.1125 -0.2029
  455MOL0     C61295   5.997  10.153   2.252 -0.7322 -0.4661  0.0281
  455MOL0     C61296   6.036  10.055   2.158 -0.3114  0.1502 -0.2149
  455MOL0     C61297   6.174  10.038   2.126  0.3848  0.3662  0.1746
  455MOL0     O61298   6.207   9.939   2.038  0.7183 -0.2178  0.4662
  455MOL0     C61299   6.234   9.999   1.905  0.3580  0.0121  0.3193
  455MOL0     C61300   6.304   9.906   1.807 -0.4053  0.7218  0.1673
  455MOL0     C61301   6.445   9.875   1.865  0.6294  0.1448 -0.0943
  455MOL0     C61302   6.545   9.988   1.866  0.5285 -0.1171 -0.0508
  455MOL0     C61303   6.678   9.943   1.912 -0.5425  0.6285  0.7776
  455MOL0     C61304   6.772  10.057   1.922 -0.4081 -0.1145  0.1756
  455MOL0     C61305   6.910  10.001   1.926 -0.0397 -0.9290 -0.8420
  455MOL0     C61306   6.949   9.925   2.060  0.2393 -0.5604  0.2711
  455MOL0     N61307   6.947  10.020   2.179  0.7338  0.2331  0.1383
  455MOL0     C61308   6.871  10.009   2.291 -0.2950 -0.3760  0.0603
  455MOL0     C61309   6.922  10.106   2.378 -0.5829  0.1339  0.9872
  455MOL0     C61310   6.891  10.145   2.516 -0.1878 -0.2126 -0.1972
  455MOL0     C61311   7.003  10.131   2.626  0.7378  0.2945 -0.1320
  455MOL0     C61312   6.951  10.191   2.760  0.6926  0.5034 -0.7016
  455MOL0     C61313   7.071  10.188   2.864 -0.7157 -0.2447 -0.4134
  455MOL0     O61314   7.074  10.047   2.902 -0.1683  0.1646 -0.1698
  455MOL0     C61315   7.195  10.009   2.955 -0.5804  0.2260  0.1299
  455MOL0     C61316   7.253   9.882   2.930 -0.7882 -0.5013 -0.4649
  455MOL0     C61317   7.375   9.827   2.984 -0.3263  0.3412 -0.0367
  455MOL0     C61318   7.457   9.918   3.061  0.0293  0.2115 -0.1509
  455MOL0     C61319   7.583   9.878   3.119 -0.3078  0.5382 -0.8388
  455MOL0     O61320   7.649   9.978   3.190  0.4309 -0.4000 -0.8309
  455MOL0     C61321   7.780   9.981   3.228 -0.1455  0.5122  0.8155
  455MOL0     C61322   7.876   9.925   3.146  0.3809  0.7219 -0.1623
  455MOL0     C61323   8.001   9.917   3.189 -0.4569  0.8427 -0.3246
  455MOL0     C61324   8.038   9.980   3.311  0.0641 -0.4672 -0.4325
  455MOL0     O61325   8.170   9.968   3.356  0.6255 -0.3319 -0.1334
  455MOL0     C61326   8.209   9.986   3.498  0.3872 -0.4868 -0.0331
  455MOL0     C61327   8.353   9.936   3.504 -0.8503 -0.3007 -0.1672
  455MOL0     C61328   8.444  10.049   3.443 -0.0607  1.1862 -0.2320
  455MOL0     C61329   8.588  10.011   3.466  0.4045 -0.2712  1.0374
  455MOL0     C61330   8.675  10.135   3.437 -0.0245 -1.2192 -0.3892
  455MOL0     C61331   8.829  10.116   3.464  0.4561 -0.0129 -0.1496
  455MOL0     C61332   8.903  10.256   3.450  0.1733 -0.5350 -0.1927
  455MOL0     C61333   9.038  10.253   3.531  0.8758  0.2758 -0.3286
  455MOL0    Cl61334   9.157  10.137   3.467  0.0127 -0.0529  0.2066
  455MOL0     C61335   7.938  10.046   3.385 -0.5848  0.3229 -0.5877
  455MOL0     C61336   7.808  10.046   3.341 -0.5383  0.6373  0.0445
  455MOL0     O61337   7.628   9.763   3.097  0.3747 -0.2757 -0.6427
  455MOL0     C61338   7.402  10.047   3.084  1.3070 -0.4346 -0.5131
  455MOL0     C61339   7.266  10.087   3.041 -0.2111 -0.1823 -0.4659
  455MOL0     N61340   7.030  10.167   2.305 -0.2710  0.0614 -0.0315
  455MOL0     N61341   7.033  10.127   2.188 -0.1225  0.2178  0.3795
  455MOL0     C61342   6.272  10.122   2.177 -0.1413 -0.0393  0.0758
  455MOL0     C61343   6.234  10.226   2.260  0.7390  0.3766 -0.8367
  455MOL0     C61344   6.028  10.591   2.378 -0.4849 -0.2449 -0.3882
  455MOL0     C61345   5.983  10.587   2.514 -0.1652  0.2124 -0.5398
  455MOL0     C61346   5.917  10.704   2.575 -1.0033  1.1316  0.3497
  455MOL0     C61347   5.897  10.820   2.491  0.1224 -1.0098 -0.2527
  455MOL0     O61348   5.823  10.931   2.530 -0.1019  0.2587  0.0563
  455MOL0     C61349   5.704  10.947   2.453 -0.3026 -0.0160  1.7394
  455MOL0     C61350   5.580  10.906   2.535  0.1485  0.2548  0.7500
  455MOL0     C61351   5.567  10.753   2.558 -0.7404 -0.3054 -0.1133
  455MOL0     C61352   5.425  10.698   2.547 -0.0126 -0.9309  0.4104
  455MOL0     C61353   5.433  10.554   2.529  0.7298  1.3591  0.9521
  455MOL0     C61354   5.462  10.445   2.498 -0.6408 -1.2314  0.6031
  455MOL0     C61355   5.975  10.834   2.380 -0.6133  0.6616  0.2425
  455MOL0     C61356   6.038  10.724   2.326 -0.4614  0.6647 -0.6679
  455MOL0     C61357   6.125  10.753   2.202  0.5021 -0.1778 -0.0998
  455MOL0     H61358   5.894  10.170   2.279 -0.6769  0.0232 -0.0574
  455MOL0     H61359   5.974   9.975   2.119  1.5621 -0.9635 -1.0386
  455MOL0     H61360   6.141  10.041   1.867 -0.0205  0.5738  1.7873
  455MOL0     H61361   6.283  10.096   1.917  1.4136 -0.7901  3.4400
  455MOL0     H61362   6.316   9.947   1.706  0.4340  0.2602  0.0727
  455MOL0     H61363   6.237   9.819   1.799 -2.2297  1.9869  1.0892
  455MOL0     H61364   6.480   9.789   1.808 -4.6721 -1.4891 -1.4380
  455MOL0     H61365   6.431   9.840   1.968  0.0221  0.4979 -0.0513
  455MOL0     H61366   6.559  10.038   1.770  1.8876  3.0291  1.5957
  455MOL0     H61367   6.507  10.070   1.928 -3.0844 -1.5220 -0.1893
  455MOL0     H61368   6.664   9.899   2.012  0.0072 -2.3827 -0.3436
  455MOL0     H61369   6.718   9.867   1.844 -0.9145  2.3316 -1.4577
  455MOL0     H61370   6.769  10.115   1.829 -0.4730 -3.3121 -1.9932
  455MOL0     H61371   6.742  10.129   1.999 -0.8530  1.0838 -1.0659
  455MOL0     H61372   6.975  10.087   1.908 -0.8848 -0.5787 -2.3612
  455MOL0     H61373   6.922   9.936   1.840  0.7438 -0.6344 -0.9607
  455MOL0     H61374   6.901   9.828   2.071  1.9264 -1.9472 -3.1316
  455MOL0     H61375   7.055   9.900   2.047 -0.0768 -0.8253 -2.3853
  455MOL0     H61376   6.799   9.930   2.309  0.3327 -0.6509  1.5831
  455MOL0     H61377   6.878  10.254   2.515 -1.2152 -0.3115  0.8255
  455MOL0     H61378   6.797  10.102   2.551 -0.3869  1.8296  2.0816
  455MOL0     H61379   7.024  10.025   2.646 -3.0218 -0.4493  0.5743
  455MOL0     H61380   7.086  10.191   2.588  1.0734  2.2009  3.2473
  455MOL0     H61381   6.860  10.143   2.796  0.9987 -2.9116 -3.9209
  455MOL0     H61382   6.930  10.299   2.753 -0.2629  0.3406 -0.4984
  455MOL0     H61383   7.042  10.248   2.951 -2.8065 -1.3520 -0.2826
  455MOL0     H61384   7.163  10.229   2.822 -0.2780 -0.0966  0.6685
  455MOL0     H61385   7.205   9.822   2.854 -2.0892 -1.6685  1.2085
  455MOL0     H61386   7.412   9.727   2.962 -2.1873  0.0177 -2.0180
  455MOL0     H61387   7.857   9.863   3.058 -0.2507  0.9977 -0.2273
  455MOL0     H61388   8.069   9.855   3.132 -0.4089  1.3594 -0.8427
  455MOL0     H61389   8.194  10.090   3.528 -1.7302 -1.5209  2.9263
  455MOL0     H61390   8.155   9.916   3.563 -0.3580 -0.7839 -0.9492
  455MOL0     H61391   8.377   9.907   3.607 -0.0136 -0.2507 -0.3463
  455MOL0     H61392   8.373   9.843   3.449  2.6936 -1.7377  3.0916
  455MOL0     H61393   8.411  10.072   3.341 -3.3838  2.2868  0.9621
  455MOL0     H61394   8.423  10.138   3.502 -0.5645  2.2784 -1.9820
  455MOL0     H61395   8.618   9.934   3.395 -2.5944 -0.3355 -0.3463
  455MOL0     H61396   8.604   9.969   3.565  1.7298 -2.2216  0.0407
  455MOL0     H61397   8.648  10.216   3.505 -1.6696 -0.8712 -1.3852
  455MOL0     H61398   8.655  10.184   3.341  0.7413  1.0048  0.5119
  455MOL0     H61399   8.849  10.084   3.567 -0.8973  1.4572  0.6291
  455MOL0     H61400   8.871  10.045   3.393 -0.5713 -1.2677  0.4498
  455MOL0     H61401   8.846  10.338   3.494  2.8922  0.4399  1.7963
  455MOL0     H61402   8.930  10.279   3.347  2.1303  0.0665  0.4106
  455MOL0     H61403   9.085  10.351   3.529 -1.5733  1.5272 -0.9310
  455MOL0     H61404   9.014  10.248   3.638 -1.2630 -0.2816 -0.7783
  455MOL0     H61405   7.960  10.111   3.469  0.4115 -0.1039 -0.5025
  455MOL0     H61406   7.747  10.102   3.411  2.2113  2.2749  1.2969
  455MOL0     H61407   7.444  10.121   3.152 -0.0192 -0.6233  0.5446
  455MOL0     H61408   7.230  10.175   3.093  1.9235 -2.1402  5.1603
  455MOL0     H61409   6.375  10.113   2.146 -0.5860 -0.9026 -1.2648
  455MOL0     H61410   6.312  10.298   2.285  0.6640  0.0177  0.5262
  455MOL0     H61411   5.968  10.487   2.554 -0.3441  0.1150 -0.8505
  455MOL0     H61412   5.865  10.703   2.670 -0.6023  1.9017  0.5810
  455MOL0     H61413   5.709  10.888   2.361  3.5554 -0.4360  2.0588
  455MOL0     H61414   5.693  11.051   2.418  0.0737 -0.0927  1.3824
  455MOL0     H61415   5.488  10.942   2.489 -0.7870 -0.8260  1.7353
  455MOL0     H61416   5.582  10.956   2.632 -1.0397  0.7811  0.5223
  455MOL0     H61417   5.621  10.741   2.652  1.2122  0.9188 -1.0257
  455MOL0     H61418   5.616  10.700   2.476 -0.1956 -1.5671  0.9980
  455MOL0     H61419   5.368  10.726   2.636  2.3087 -0.1795  1.7623
  455MOL0     H61420   5.373  10.752   2.467 -3.1604 -3.4669  0.5376
  455MOL0     H61421   5.499  10.353   2.458  0.9827 -0.7172  0.8881
  455MOL0     H61422   5.969  10.921   2.316  1.4603  2.8228  2.7735
  455MOL0     H61423   6.075  10.721   2.110 -0.6362  2.5645 -0.5465
  455MOL0     H61424   6.150  10.859   2.188 -2.2755  0.7314  1.0792
  455MOL0     H61425   6.219  10.702   2.221 -0.1874 -1.2856  0.4016
  456MOL0     O61426  11.083   6.470   7.109 -0.1673 -0.0996  0.4029
  456MOL0     C61427  11.156   6.487   7.204 -1.2576  0.8696 -0.1128
  456MOL0     O61428  11.144   6.432   7.331  0.1933 -0.0821 -0.2905
  456MOL0     C61429  11.022   6.380   7.355  0.1388 -0.6647 -0.0813
  456MOL0     C61430  10.983   6.259   7.304 -0.8231  0.3111  0.1726
  456MOL0     C61431  10.863   6.209   7.347  0.1064 -0.8482  0.0247
  456MOL0     C61432  10.782   6.276   7.436  0.4859  0.1446 -0.4206
  456MOL0     O61433  10.658   6.224   7.465 -0.0183 -0.0448  0.0584
  456MOL0     C61434  10.562   6.293   7.542  0.1711  0.4934 -0.0456
  456MOL0     C61435  10.436   6.221   7.527  0.4365 -0.6192  0.3772
  456MOL0     C61436  10.425   6.097   7.620 -0.5474 -0.1032  0.0677
  456MOL0     C61437  10.547   6.007   7.618  0.0366 -0.6398  0.5481
  456MOL0     C61438  10.521   5.877   7.695 -0.0155 -0.4128  0.3309
  456MOL0     C61439  10.435   5.770   7.625 -0.0800  0.6258 -0.0124
  456MOL0     C61440  10.499   5.703   7.501 -0.0264  0.8104  0.5812
  456MOL0     C61441  10.499   5.554   7.495 -0.8584  1.0607 -0.3730
  456MOL0     N61442  10.558   5.507   7.370  0.3424 -0.0665  0.0473
  456MOL0     C61443  10.504   5.513   7.246 -0.6003 -0.2556 -0.4872
  456MOL0     C61444  10.607   5.477   7.166  0.2303 -0.5362  0.0884
  456MOL0     C61445  10.577   5.479   7.025  0.2809 -0.4354  0.6919
  456MOL0     C61446  10.700   5.510   6.948 -0.9548 -0.5556  0.0262
  456MOL0     C61447  10.750   5.656   6.974  0.2049  0.5808  0.6092
  456MOL0     C61448  10.867   5.699   6.892  0.7149 -0.8755  0.5372
  456MOL0     O61449  10.888   5.843   6.891 -0.0406  0.2916 -0.1823
  456MOL0     C61450  11.002   5.892   6.843 -0.3537 -0.0736  0.0832
  456MOL0     C61451  11.007   6.033   6.825 -0.3679 -0.1439  0.2965
  456MOL0     C61452  11.124   6.092   6.764 -0.1034 -0.7162 -0.4039
  456MOL0     C61453  11.229   6.019   6.730 -0.4308  1.3176  0.0777
  456MOL0     C61454  11.355   6.086   6.689  0.8851  0.0026  0.5873
  456MOL0     O61455  11.357   6.223   6.676 -1.1271  0.0198  0.0944
  456MOL0     C61456  11.477   6.287   6.670 -0.3211 -0.6867  0.2319
  456MOL0     C61457  11.505   6.380   6.768 -0.6418  0.9223  0.0999
  456MOL0     C61458  11.629   6.451   6.756  0.5000 -0.0810  0.8061
  456MOL0     C61459  11.717   6.430   6.653 -0.0028 -0.0002 -0.1857
  456MOL0     O61460  11.838   6.495   6.623  0.1679 -0.3973  0.3689
  456MOL0     C61461  11.922   6.520   6.729 -0.2880  0.0673 -0.5008
  456MOL0     C61462  12.064   6.549   6.673 -0.9730  0.5332 -1.1825
  456MOL0     C61463  12.079   6.670   6.579  0.5112  0.3775 -0.1170
  456MOL0     C61464  12.072   6.805   6.657  1.0695  1.0113 -1.2923
  456MOL0     C61465  12.110   6.922   6.564 -1.3578 -0.4193 -0.3466
  456MOL0     C61466  12.128   7.051   6.645 -0.3834  0.7888 -0.0997
  456MOL0     C61467  11.998   7.091   6.716 -0.8528  0.3455 -0.4141
  456MOL0     C61468  12.009   7.238   6.780  0.6065  0.4031 -0.3978
  456MOL0    Cl61469  12.047   7.364   6.662 -0.0229 -0.8155 -0.0073
  456MOL0     C61470  11.683   6.336   6.553 -0.3488 -0.5903  0.8052
  456MOL0     C61471  11.561   6.264   6.561  0.5665  0.6574  0.1478
  456MOL0     O61472  11.459   6.017   6.685 -0.2536  0.0909  0.2477
  456MOL0     C61473  11.214   5.873   6.739  0.1572 -0.4115 -0.0804
  456MOL0     C61474  11.101   5.814   6.783  0.1196  0.0563 -0.7680
  456MOL0     N61475  10.718   5.437   7.242 -0.4011  0.1872  0.1919
  456MOL0     N61476  10.680   5.439   7.359  0.2892 -0.8137 -0.8699
  456MOL0     C61477  10.827   6.388   7.503 -0.0361 -0.9527 -0.8707
  456MOL0     C61478  10.942   6.446   7.451 -0.7290 -0.6838  0.5584
  456MOL0     C61479  11.281   6.552   7.160  0.6415 -0.1140  1.1005
  456MOL0     C61480  11.384   6.567   7.256 -0.5836 -0.2931  0.4933
  456MOL0     C61481  11.507   6.622   7.232 -0.3880 -0.1227 -0.1517
  456MOL0     C61482  11.544   6.653   7.095 -0.0113 -0.0440  0.4285
  456MOL0     O61483  11.661   6.696   7.035 -0.6236  0.3210 -0.4322
  456MOL0     C61484  11.764   6.717   7.132 -0.2298 -0.3469 -0.6969
  456MOL0     C61485  11.904   6.750   7.076 -0.5611 -0.0375 -0.5047
  456MOL0     C61486  12.007   6.800   7.180  0.3512 -0.4015 -0.1233
  456MOL0     C61487  12.137   6.847   7.116  0.2185  0.0861  0.1362
  456MOL0     C61488  12.155   6.987   7.114 -0.3231 -0.0499 -0.0421
  456MOL0     C61489  12.174   7.103   7.115  0.4931 -0.2018 -0.6977
  456MOL0     C61490  11.441   6.645   7.001 -0.1440  0.3979 -0.9588
  456MOL0     C61491  11.307   6.604   7.028 -0.1174 -0.7080 -1.0469
  456MOL0     C61492  11.205   6.614   6.921  0.4418  0.1339 -0.0766
  456MOL0     H61493  11.046   6.201   7.238 -1.3922  0.5309 -0.5732
  456MOL0     H61494  10.813   6.118   7.317  3.0551 -1.8649 -2.4059
  456MOL0     H61495  10.588   6.296   7.649 -1.1049 -0.0432  0.2962
  456MOL0     H61496  10.553   6.399   7.517 -2.2098  0.1430 -0.9345
  456MOL0     H61497  10.434   6.189   7.422  2.1327  1.0603 -0.2360
  456MOL0     H61498  10.352   6.286   7.550 -0.4059 -0.3737 -2.8729
  456MOL0     H61499  10.334   6.043   7.590  1.2004 -3.6767  0.7376
  456MOL0     H61500  10.404   6.124   7.724  0.9797  1.9397 -0.1018
  456MOL0     H61501  10.581   5.998   7.514 -0.5416 -0.7888  0.3668
  456MOL0     H61502  10.629   6.062   7.665  1.4591 -1.8022 -0.4636
  456MOL0     H61503  10.618   5.835   7.726 -0.9641 -2.6711  0.4820
  456MOL0     H61504  10.485   5.909   7.793  0.6157  0.5009  0.2720
  456MOL0     H61505  10.418   5.698   7.706 -0.5016 -1.3329 -1.7548
  456MOL0     H61506  10.334   5.802   7.599 -0.0111  0.0668 -1.0111
  456MOL0     H61507  10.600   5.743   7.490  1.8423 -3.2477  1.1067
  456MOL0     H61508  10.444   5.724   7.408  0.8987 -4.9174 -1.7138
  456MOL0     H61509  10.562   5.517   7.577  0.9563  2.1717 -1.2021
  456MOL0     H61510  10.397   5.514   7.504 -0.5548 -0.1772 -1.9685
  456MOL0     H61511  10.405   5.551   7.223  0.9929  4.5917 -0.4522
  456MOL0     H61512  10.546   5.379   6.993 -1.3511  0.7398 -1.7480
  456MOL0     H61513  10.499   5.552   7.001 -0.4191 -1.6569 -0.9384
  456MOL0     H61514  10.778   5.438   6.975 -0.1128 -0.1616 -1.2436
  456MOL0     H61515  10.676   5.506   6.841 -0.1946 -1.5834 -0.1133
  456MOL0     H61516  10.782   5.665   7.078  1.2886 -2.7294  0.6516
  456MOL0     H61517  10.669   5.719   6.935  0.6608  0.2804 -0.9133
  456MOL0     H61518  10.869   5.655   6.792  2.1135 -2.2727  1.1364
  456MOL0     H61519  10.955   5.647   6.932  1.1843 -1.3485 -1.0318
  456MOL0     H61520  10.934   6.100   6.868  1.1663  3.2878 -1.9405
  456MOL0     H61521  11.132   6.200   6.758 -1.6486 -0.4558  1.2421
  456MOL0     H61522  11.434   6.405   6.846 -0.9962 -0.6201  0.2931
  456MOL0     H61523  11.660   6.513   6.839 -0.2081 -3.1395  3.5757
  456MOL0     H61524  11.885   6.604   6.789 -1.6089 -1.1093  0.4067
  456MOL0     H61525  11.932   6.427   6.785  0.1480 -0.6417 -1.7176
  456MOL0     H61526  12.136   6.562   6.755  0.2345  0.2138 -2.1596
  456MOL0     H61527  12.100   6.460   6.620 -1.1118 -0.2995  0.0656
  456MOL0     H61528  12.179   6.649   6.538  0.6849  0.6807  0.1502
  456MOL0     H61529  12.015   6.663   6.491  1.0868  0.0092 -0.5156
  456MOL0     H61530  12.142   6.799   6.740 -1.3325 -1.9768  0.7192
  456MOL0     H61531  11.972   6.826   6.696 -0.0683  0.8777 -3.9139
  456MOL0     H61532  12.042   6.927   6.479 -0.1758  0.6751 -1.2688
  456MOL0     H61533  12.205   6.897   6.516 -0.8979 -1.4775  1.0242
  456MOL0     H61534  12.203   7.017   6.717  0.4773  3.7557  0.5796
  456MOL0     H61535  12.164   7.134   6.583  0.7368 -0.0476 -0.5980
  456MOL0     H61536  11.977   7.030   6.804  0.2640  0.4789 -0.0392
  456MOL0     H61537  11.921   7.092   6.638  0.1294 -2.7035 -1.5929
  456MOL0     H61538  11.930   7.249   6.854  0.9692 -5.6435  1.4170
  456MOL0     H61539  12.094   7.232   6.848  0.1221 -2.3844  0.0672
  456MOL0     H61540  11.739   6.320   6.461  1.0721 -1.9922  1.8575
  456MOL0     H61541  11.529   6.203   6.477  1.1988  0.7255 -0.1498
  456MOL0     H61542  11.293   5.809   6.701  0.3792 -0.1918  0.0088
  456MOL0     H61543  11.104   5.707   6.764  2.6761  0.2722 -2.0996
  456MOL0     H61544  10.773   6.421   7.592 -3.9435  0.7153 -3.5927
  456MOL0     H61545  10.967   6.544   7.489  2.5116 -1.6778  1.3470
  456MOL0     H61546  11.372   6.540   7.361  0.1068  1.3491  1.0135
  456MOL0     H61547  11.573   6.618   7.318  1.1105 -1.8013 -1.3128
  456MOL0     H61548  11.772   6.631   7.200 -2.7757 -0.6444 -0.6978
  456MOL0     H61549  11.734   6.806   7.188  1.4834  0.7611 -1.4373
  456MOL0     H61550  11.890   6.824   6.997 -1.0984  1.5110  0.9780
  456MOL0     H61551  11.934   6.653   7.037 -2.0545 -0.5043 -0.5454
  456MOL0     H61552  12.022   6.719   7.252  2.3170  0.3713  0.3907
  456MOL0     H61553  11.964   6.886   7.233  0.8646  0.6269 -1.3085
  456MOL0     H61554  12.215   6.797   7.176 -1.2527 -0.7601  1.4075
  456MOL0     H61555  12.140   6.806   7.014 -2.7179 -2.2683  0.8406
  456MOL0     H61556  12.194   7.208   7.112  0.4303 -0.1731 -0.2199
  456MOL0     H61557  11.450   6.696   6.906 -3.1186  1.1572 -0.9229
  456MOL0     H61558  11.161   6.525   6.874 -1.1382 -0.1345  1.7299
  456MOL0     H61559  11.125   6.684   6.948  0.1209 -0.5594  0.8627
  456MOL0     H61560  11.264   6.673   6.852  0.9164  1.2816  1.2667
  457MOL0     O61561   5.960   7.183  10.031 -0.3129 -0.0185  0.7453
  457MOL0     C61562   5.916   7.142  10.132  0.8445 -0.8444 -0.3732
  457MOL0     O61563   5.983   7.078  10.227 -0.0581 -0.1395  0.1564
  457MOL0     C61564   6.085   6.984  10.187 -0.7652  0.2808 -0.6943
  457MOL0     C61565   6.091   6.905  10.073  0.1853 -0.0977 -0.2782
  457MOL0     C61566   6.193   6.812  10.057  0.2053  0.9157  0.5568
  457MOL0     C61567   6.287   6.790  10.162  0.7117 -0.5327 -0.3848
  457MOL0     O61568   6.381   6.691  10.140  0.5896  0.3513 -0.0309
  457MOL0     C61569   6.481   6.656  10.237  0.4129  0.4990  0.9757
  457MOL0     C61570   6.585   6.556  10.172  0.7412 -0.2956 -0.0063
  457MOL0     C61571   6.680   6.640  10.082  0.7151 -0.4974  0.0788
  457MOL0     C61572   6.807   6.562  10.051  0.2164  0.5507  0.2370
  457MOL0     C61573   6.867   6.609   9.914  0.0857  0.2591  0.0810
  457MOL0     C61574   6.941   6.743   9.929  0.0805 -0.4601  0.1130
  457MOL0     C61575   7.065   6.744  10.027 -0.1858 -0.3095  0.4766
  457MOL0     C61576   7.147   6.873   9.998  0.7425  0.4094 -0.5931
  457MOL0     N61577   7.225   6.913  10.116  0.4458 -0.5992 -0.4829
  457MOL0     C61578   7.286   7.035  10.120 -0.3146 -0.4295 -0.7342
  457MOL0     C61579   7.372   7.029  10.223  0.0430 -0.8478 -0.5384
  457MOL0     C61580   7.431   7.153  10.279  0.2300 -0.4280 -0.2234
  457MOL0     C61581   7.426   7.135  10.433  0.0869 -0.4710 -0.5378
  457MOL0     C61582   7.478   7.258  10.520 -0.0063 -0.3411  0.6622
  457MOL0     C61583   7.626   7.285  10.496 -0.0894  0.1985  0.1181
  457MOL0     O61584   7.710   7.195  10.581 -0.3910  0.2773 -0.9700
  457MOL0     C61585   7.846   7.193  10.568  1.0570  1.0200  0.0522
  457MOL0     C61586   7.922   7.103  10.642 -0.5122  0.9568  0.0806
  457MOL0     C61587   8.059   7.099  10.644 -1.1701  0.2422 -0.5567
  457MOL0     C61588   8.124   7.205  10.581 -0.8084  0.2806  1.1950
  457MOL0     C61589   8.274   7.225  10.600  0.1490  0.6655  0.3865
  457MOL0     O61590   8.341   7.121  10.659 -0.0774  0.1273  0.4311
  457MOL0     C61591   8.467   7.141  10.684  0.0559 -0.0973 -0.0307
  457MOL0     C61592   8.574   7.095  10.601  0.5930 -0.5431 -0.4031
  457MOL0     C61593   8.701   7.135  10.631 -0.2127  0.1895  0.3261
  457MOL0     C61594   8.724   7.203  10.757  0.6356  0.4645  0.6484
  457MOL0     O61595   8.843   7.266  10.793  0.6524  0.4203 -0.5695
  457MOL0     C61596   8.961   7.225  10.715  0.1845  0.0565  0.1382
  457MOL0     C61597   9.093   7.251  10.787  0.7121 -0.1104 -0.1322
  457MOL0     C61598   9.088   7.235  10.940  0.3498  0.2597  0.4649
  457MOL0     C61599   9.069   7.092  10.981 -0.4988 -1.0993 -0.5776
  457MOL0     C61600   9.070   7.073  11.131  0.0102  0.2741 -0.9202
  457MOL0     C61601   8.954   7.151  11.205  0.0849 -0.4460  0.4228
  457MOL0     C61602   8.817   7.140  11.140  0.1830 -0.4228 -0.0585
  457MOL0     C61603   8.715   7.169  11.246  0.7804  0.5144 -0.1921
  457MOL0    Cl61604   8.555   7.170  11.171  0.3896  0.3597  0.2142
  457MOL0     C61605   8.623   7.243  10.838 -0.2610  0.0267 -0.3318
  457MOL0     C61606   8.494   7.213  10.800  0.4210  0.3673  0.0857
  457MOL0     O61607   8.317   7.330  10.561 -0.3546 -0.2240  0.0610
  457MOL0     C61608   8.051   7.288  10.498 -0.0688 -0.4246  0.0219
  457MOL0     C61609   7.919   7.288  10.499 -0.2494 -0.2899 -0.2315
  457MOL0     N61610   7.366   6.904  10.281 -0.0038  0.0982 -0.4012
  457MOL0     N61611   7.283   6.831  10.209  0.7599  0.2137 -0.1580
  457MOL0     C61612   6.291   6.878  10.271  0.1458  0.7016 -0.6670
  457MOL0     C61613   6.188   6.972  10.285  0.1975 -0.1238  0.1186
  457MOL0     C61614   5.785   7.188  10.173  0.2806 -0.0747  0.7684
  457MOL0     C61615   5.688   7.213  10.067 -0.2003  0.2748 -0.8085
  457MOL0     C61616   5.560   7.261  10.091 -0.6167  0.5653 -0.4641
  457MOL0     C61617   5.519   7.276  10.223  0.1848  0.9487 -0.0138
  457MOL0     O61618   5.397   7.305  10.273 -0.7826 -0.1602  0.6058
  457MOL0     C61619   5.286   7.312  10.190  0.3474  0.5023 -0.7288
  457MOL0     C61620   5.161   7.276  10.273 -0.1467 -0.1503  0.3789
  457MOL0     C61621   5.031   7.252  10.191 -0.6982 -0.5165  0.2549
  457MOL0     C61622   4.909   7.313  10.259  0.1531 -0.9336  0.1016
  457MOL0     C61623   4.899   7.265  10.396  0.0730  0.1035  0.1036
  457MOL0     C61624   4.890   7.231  10.516  0.0465 -0.0722  0.6412
  457MOL0     C61625   5.615   7.255  10.331 -0.1269 -0.5676 -0.2136
  457MOL0     C61626   5.746   7.215  10.309 -0.9623 -0.4736 -1.2300
  457MOL0     C61627   5.832   7.187  10.436  0.1843  0.1279  0.3218
  457MOL0     H61628   6.015   6.931  10.001 -0.9255  3.1494  1.8516
  457MOL0     H61629   6.214   6.754   9.968 -0.6291  0.6672  0.5119
  457MOL0     H61630   6.527   6.752  10.263 -0.7521  1.1002  0.8856
  457MOL0     H61631   6.433   6.612  10.324 -1.1614  0.7842  0.2837
  457MOL0     H61632   6.534   6.474  10.120 -0.1328 -1.0361  1.9327
  457MOL0     H61633   6.647   6.517  10.252  2.3516  0.9695 -0.5847
  457MOL0     H61634   6.709   6.732  10.133 -2.7485 -0.1685  1.7068
  457MOL0     H61635   6.635   6.679   9.990  4.9333  2.0086 -1.1994
  457MOL0     H61636   6.879   6.571  10.133  2.0513  1.5728 -1.4152
  457MOL0     H61637   6.781   6.455  10.049 -0.4989  0.7184 -1.6763
  457MOL0     H61638   6.934   6.537   9.867  1.4626  1.5201  0.0300
  457MOL0     H61639   6.780   6.630   9.852  0.9534  1.8072 -0.6639
  457MOL0     H61640   6.978   6.761   9.828 -0.0938 -4.9159 -0.9770
  457MOL0     H61641   6.869   6.816   9.966 -1.2496 -1.2534 -0.8101
  457MOL0     H61642   7.137   6.663  10.015  1.0269  0.3195  2.9126
  457MOL0     H61643   7.026   6.733  10.129  0.0680 -1.1861  0.4835
  457MOL0     H61644   7.214   6.849   9.915 -0.9137 -2.1675 -1.2918
  457MOL0     H61645   7.065   6.944   9.979 -1.3322 -1.4354  0.8881
  457MOL0     H61646   7.254   7.131  10.081  0.5677  0.4821  0.7032
  457MOL0     H61647   7.532   7.165  10.239 -0.1053 -1.8836 -1.6084
  457MOL0     H61648   7.371   7.240  10.250  1.2579 -0.2519 -1.9530
  457MOL0     H61649   7.330   7.093  10.464 -0.7160  1.1356 -0.6884
  457MOL0     H61650   7.505   7.071  10.472 -0.1058  0.3727  1.3570
  457MOL0     H61651   7.456   7.254  10.627 -3.5426  2.5582  0.2429
  457MOL0     H61652   7.417   7.338  10.477  1.3216  0.4181  0.1621
  457MOL0     H61653   7.650   7.388  10.523  1.3586 -0.2706  0.7488
  457MOL0     H61654   7.643   7.260  10.391 -0.0795  2.3415 -0.4317
  457MOL0     H61655   7.875   7.031  10.708  1.5173 -0.1368  0.4112
  457MOL0     H61656   8.111   7.021  10.699 -2.0622 -3.7644 -4.8534
  457MOL0     H61657   8.547   7.058  10.503  1.3688  1.0928 -1.2839
  457MOL0     H61658   8.786   7.125  10.564 -0.2468  3.0366 -0.2918
  457MOL0     H61659   8.951   7.121  10.681 -1.4625 -0.0700  0.9367
  457MOL0     H61660   8.963   7.289  10.627  0.5453 -2.1301 -1.5391
  457MOL0     H61661   9.182   7.207  10.740  1.8560  3.1105 -1.3404
  457MOL0     H61662   9.107   7.360  10.780 -0.6762  0.2050  1.4867
  457MOL0     H61663   9.183   7.274  10.978 -0.3355  0.7328  1.7383
  457MOL0     H61664   9.006   7.290  10.987 -0.5828 -0.7743  0.1174
  457MOL0     H61665   9.155   7.040  10.940  0.4834  0.8858 -1.1586
  457MOL0     H61666   8.978   7.049  10.936 -2.0399  0.9627  0.3858
  457MOL0     H61667   9.172   7.100  11.162  0.6094 -2.6771  0.0461
  457MOL0     H61668   9.068   6.965  11.148 -1.3792 -0.0913 -3.0513
  457MOL0     H61669   8.953   7.115  11.308 -0.5130  1.1714  1.0210
  457MOL0     H61670   8.988   7.255  11.213  2.1884 -1.1839  2.0273
  457MOL0     H61671   8.800   7.035  11.113 -3.6901 -1.3133  4.4239
  457MOL0     H61672   8.810   7.210  11.056  0.0553 -2.7985 -2.1546
  457MOL0     H61673   8.717   7.106  11.335 -0.0248  0.8496  0.0724
  457MOL0     H61674   8.733   7.271  11.283 -1.4964  0.4466  1.2773
  457MOL0     H61675   8.642   7.296  10.930 -0.0074 -1.5835  0.5871
  457MOL0     H61676   8.410   7.234  10.866  2.4321 -1.7658  3.6906
  457MOL0     H61677   8.102   7.374  10.456 -1.0363  0.6062  0.9043
  457MOL0     H61678   7.871   7.373  10.451  0.9864  2.2168  2.6931
  457MOL0     H61679   6.376   6.876  10.337  1.0019 -1.6281 -1.7619
  457MOL0     H61680   6.185   7.043  10.367  1.7176  0.0387  0.0788
  457MOL0     H61681   5.713   7.205   9.962 -1.6606 -0.2771 -1.1498
  457MOL0     H61682   5.483   7.278  10.017  0.4938  0.3463 -1.7051
  457MOL0     H61683   5.300   7.240  10.109  1.9820  2.1741 -2.0261
  457MOL0     H61684   5.275   7.414  10.151  1.0558  0.6872 -0.4573
  457MOL0     H61685   5.140   7.360  10.338  0.8372  2.4243 -2.3754
  457MOL0     H61686   5.193   7.186  10.327  4.8561  0.1149 -1.5889
  457MOL0     H61687   5.018   7.148  10.160 -1.4507  0.0823 -1.5505
  457MOL0     H61688   5.043   7.300  10.094  0.5393  0.5513  0.8981
  457MOL0     H61689   4.923   7.421  10.271  0.4157 -1.2163  3.3517
  457MOL0     H61690   4.815   7.290  10.208 -0.3408  3.5642 -1.4202
  457MOL0     H61691   4.869   7.215  10.620  0.4712  1.2414  0.9590
  457MOL0     H61692   5.580   7.272  10.432  1.3250  1.3968  0.0071
  457MOL0     H61693   5.866   7.084  10.448  0.0307  0.1676  1.2018
  457MOL0     H61694   5.925   7.243  10.428 -0.1665  0.6922  0.1802
  457MOL0     H61695   5.775   7.227  10.521 -2.1605  0.8757 -1.4840
  458MOL0     O61696   0.689   0.970   8.516 -0.6207 -0.2760 -0.0483
  458MOL0     C61697   0.699   1.084   8.477  0.3224  0.2311  0.3337
  458MOL0     O61698   0.771   1.185   8.531  0.5257 -0.2576 -0.3038
  458MOL0     C61699   0.851   1.157   8.647 -0.2665  0.3354  0.1335
  458MOL0     C61700   0.990   1.187   8.658 -1.7270  1.2403 -0.1714
  458MOL0     C61701   1.070   1.151   8.766  0.0339  0.2834 -0.1496
  458MOL0     C61702   1.008   1.085   8.875 -0.2555 -0.5873  0.0814
  458MOL0     O61703   1.071   1.078   8.996 -0.0594  0.4146 -1.3504
  458MOL0     C61704   1.214   1.059   9.003 -0.2003 -0.5052 -0.8630
  458MOL0     C61705   1.282   0.968   8.901  0.3245  0.3160  0.1217
  458MOL0     C61706   1.409   0.901   8.952  0.1376 -0.1568  1.0958
  458MOL0     C61707   1.516   1.002   8.988 -0.5273 -0.1957 -0.4725
  458MOL0     C61708   1.645   0.939   9.050 -0.8331  0.3020  0.2444
  458MOL0     C61709   1.710   0.844   8.949 -0.6335 -1.0142 -0.7435
  458MOL0     C61710   1.849   0.796   8.989  0.2741 -0.3530 -1.0636
  458MOL0     C61711   1.902   0.725   8.865 -0.5762  0.0467  0.0303
  458MOL0     N61712   2.023   0.642   8.872 -0.2301 -0.0965 -0.1745
  458MOL0     C61713   2.064   0.573   8.983 -0.1002  0.4959  0.0665
  458MOL0     C61714   2.201   0.551   8.968 -0.4925  0.0327  0.8292
  458MOL0     C61715   2.293   0.473   9.051  0.6504 -0.4247  0.5251
  458MOL0     C61716   2.332   0.560   9.174  1.0006 -0.3219 -0.0192
  458MOL0     C61717   2.443   0.501   9.251 -0.4721  0.2193 -0.8031
  458MOL0     C61718   2.583   0.528   9.198  0.6082 -0.3799  0.7775
  458MOL0     O61719   2.673   0.456   9.283  0.1851 -0.3911 -0.1970
  458MOL0     C61720   2.806   0.480   9.237  0.3348 -0.4401 -0.7160
  458MOL0     C61721   2.911   0.421   9.306  0.9428 -0.1887 -0.5348
  458MOL0     C61722   3.046   0.441   9.283  0.1058 -0.8296 -0.0512
  458MOL0     C61723   3.087   0.541   9.182 -0.1430 -0.1697 -0.3748
  458MOL0     C61724   3.228   0.572   9.161  0.2774  0.3765 -0.7253
  458MOL0     O61725   3.260   0.650   9.058 -0.2681 -1.2109 -0.0260
  458MOL0     C61726   3.380   0.714   9.052  0.6598  1.1453  0.6201
  458MOL0     C61727   3.455   0.758   9.164 -0.3764  0.5622 -1.0867
  458MOL0     C61728   3.570   0.828   9.142  0.4921 -0.2595  0.0916
  458MOL0     C61729   3.608   0.851   9.016  0.2465 -0.9421 -0.0771
  458MOL0     O61730   3.726   0.918   8.993  0.0246 -0.5945 -0.4293
  458MOL0     C61731   3.848   0.848   8.996  0.6042 -0.2998  0.1369
  458MOL0     C61732   3.947   0.899   9.100 -0.4185 -0.1405 -0.2166
  458MOL0     C61733   3.954   1.052   9.123 -0.4612  0.4595  0.6074
  458MOL0     C61734   4.051   1.084   9.240 -0.1305  0.2515 -0.5057
  458MOL0     C61735   4.068   1.230   9.283  0.6085  0.4988 -0.0295
  458MOL0     C61736   4.106   1.322   9.166 -0.2670  0.1199  0.2962
  458MOL0     C61737   4.093   1.469   9.211 -0.1736  0.3128 -0.3352
  458MOL0     C61738   4.162   1.565   9.106  0.1835 -0.2382  0.0129
  458MOL0    Cl61739   4.214   1.717   9.184 -0.1839 -0.3985  0.0865
  458MOL0     C61740   3.533   0.817   8.908  0.6120  0.2610  0.5988
  458MOL0     C61741   3.412   0.749   8.920  0.4209  0.1226  0.2440
  458MOL0     O61742   3.305   0.527   9.247  0.6069  0.0220 -0.1608
  458MOL0     C61743   2.984   0.594   9.106 -0.8964 -0.3605  0.2668
  458MOL0     C61744   2.850   0.561   9.130  0.1753  0.6968 -0.3233
  458MOL0     N61745   2.243   0.611   8.850  0.2365 -0.8370 -1.1421
  458MOL0     N61746   2.136   0.666   8.795  0.3598 -0.6808 -0.2389
  458MOL0     C61747   0.866   1.060   8.871 -0.4526  0.2937  0.3775
  458MOL0     C61748   0.788   1.095   8.762  0.2331  0.6772  0.6944
  458MOL0     C61749   0.628   1.122   8.347 -0.4849 -1.1094 -0.2518
  458MOL0     C61750   0.659   1.252   8.291 -0.2806  0.4668 -0.0724
  458MOL0     C61751   0.596   1.311   8.188 -0.1668 -0.5107  0.2526
  458MOL0     C61752   0.487   1.232   8.128 -0.1443  0.2642 -0.1888
  458MOL0     O61753   0.414   1.290   8.030 -0.3680  0.1285  0.4109
  458MOL0     C61754   0.277   1.317   8.064 -0.1477 -0.7211 -0.6136
  458MOL0     C61755   0.216   1.396   7.948 -0.2383 -0.5012  0.4662
  458MOL0     C61756   0.100   1.480   7.983  0.7034  0.4395  0.4036
  458MOL0     C61757   0.029   1.558   7.869 -0.1656  0.0612  0.3211
  458MOL0     C61758   0.125   1.664   7.819  1.6509 -0.1283 -0.4157
  458MOL0     C61759   0.223   1.728   7.782  0.0172 -0.9986 -0.5092
  458MOL0     C61760   0.460   1.100   8.172 -0.0709 -0.5757  0.0024
  458MOL0     C61761   0.523   1.042   8.284 -0.8596 -0.1026 -0.4827
  458MOL0     C61762   0.478   0.907   8.341 -0.6382  0.1961  0.4746
  458MOL0     H61763   1.040   1.249   8.584 -1.1444  3.8955  2.2483
  458MOL0     H61764   1.175   1.179   8.768  0.1920 -0.2313 -0.7744
  458MOL0     H61765   1.264   1.156   9.005  1.9300 -1.5223 -1.2310
  458MOL0     H61766   1.230   1.011   9.100  0.4042 -0.9542 -1.1793
  458MOL0     H61767   1.308   1.030   8.815  0.6200  3.1530  2.1168
  458MOL0     H61768   1.203   0.896   8.876 -0.4865  1.4460 -0.6976
  458MOL0     H61769   1.447   0.843   8.868 -1.6432  3.5067 -2.6412
  458MOL0     H61770   1.389   0.838   9.038 -0.4005 -1.9728 -0.2989
  458MOL0     H61771   1.542   1.066   8.903 -1.0487 -2.4301 -2.4352
  458MOL0     H61772   1.480   1.072   9.063 -3.9441 -3.9332  1.7587
  458MOL0     H61773   1.704   1.028   9.073 -2.2322  1.3502 -0.0543
  458MOL0     H61774   1.625   0.881   9.141 -1.7791 -0.7941 -0.6336
  458MOL0     H61775   1.647   0.756   8.935  0.3937 -2.0619  0.8780
  458MOL0     H61776   1.729   0.896   8.855  2.6573 -0.2027  0.2564
  458MOL0     H61777   1.842   0.721   9.068 -0.3946 -0.3798 -1.1454
  458MOL0     H61778   1.912   0.882   9.017  0.0408 -0.6642  0.4823
  458MOL0     H61779   1.821   0.653   8.848 -0.5471 -0.1635  0.7325
  458MOL0     H61780   1.934   0.796   8.789  3.5501  0.1987  1.6513
  458MOL0     H61781   2.010   0.530   9.066 -1.0231  1.4111 -0.0449
  458MOL0     H61782   2.252   0.376   9.081  0.2672  0.0956  1.7764
  458MOL0     H61783   2.376   0.447   8.985  0.0627 -0.0423 -0.3794
  458MOL0     H61784   2.367   0.660   9.146  3.4676 -0.7732  1.2272
  458MOL0     H61785   2.245   0.575   9.239  1.5290  2.8225  0.1358
  458MOL0     H61786   2.436   0.392   9.258 -2.3862  0.4197  1.3473
  458MOL0     H61787   2.436   0.520   9.359 -0.4468 -1.8581 -0.3883
  458MOL0     H61788   2.601   0.636   9.201  4.1432 -0.7943 -0.4501
  458MOL0     H61789   2.585   0.497   9.093 -2.9521  0.9028  0.1931
  458MOL0     H61790   2.888   0.364   9.396 -3.2593 -0.2719 -1.4491
  458MOL0     H61791   3.123   0.389   9.339  2.2501  0.8829 -1.2567
  458MOL0     H61792   3.423   0.738   9.266 -0.1664  2.6277 -0.5640
  458MOL0     H61793   3.635   0.861   9.222  2.0916  0.0442 -1.2667
  458MOL0     H61794   3.831   0.740   9.005 -0.2200 -0.1698  0.2458
  458MOL0     H61795   3.885   0.860   8.894  2.0823  0.1600  0.7044
  458MOL0     H61796   3.922   0.855   9.197  0.7032  1.8755  1.0485
  458MOL0     H61797   4.050   0.864   9.086 -1.3384 -3.4300  0.2517
  458MOL0     H61798   3.992   1.100   9.032  1.0838 -1.0913  0.3861
  458MOL0     H61799   3.854   1.084   9.155 -0.0697  3.2168 -0.6395
  458MOL0     H61800   4.150   1.049   9.208  0.5340  2.0451 -0.5517
  458MOL0     H61801   4.019   1.030   9.329  0.5285 -0.1579 -0.5152
  458MOL0     H61802   4.139   1.241   9.365  1.3187 -0.4199 -0.5068
  458MOL0     H61803   3.970   1.258   9.324 -0.1662 -1.3185 -0.5116
  458MOL0     H61804   4.205   1.294   9.128 -0.2611  2.2679 -1.4527
  458MOL0     H61805   4.035   1.307   9.084 -0.2723 -0.8449  0.4623
  458MOL0     H61806   4.155   1.475   9.300 -0.1208  0.1934 -0.3635
  458MOL0     H61807   3.986   1.489   9.227 -0.7634 -1.5138 -1.6688
  458MOL0     H61808   4.251   1.515   9.068  0.2479 -2.3609  2.5928
  458MOL0     H61809   4.101   1.580   9.017  1.1827 -0.0053 -0.6381
  458MOL0     H61810   3.557   0.844   8.806 -4.5668  0.7374 -0.7725
  458MOL0     H61811   3.342   0.741   8.838  2.5234  0.1965 -1.6247
  458MOL0     H61812   3.008   0.673   9.035  1.6284  0.1635  1.6086
  458MOL0     H61813   2.779   0.617   9.070 -1.8484  0.0993  1.4074
  458MOL0     H61814   0.816   1.032   8.964 -0.4724  0.4132  0.4030
  458MOL0     H61815   0.682   1.076   8.768  0.4000 -0.2965  0.7085
  458MOL0     H61816   0.743   1.305   8.335  0.8369 -0.4478 -1.0323
  458MOL0     H61817   0.619   1.412   8.155  0.4946 -1.2837 -1.8196
  458MOL0     H61818   0.283   1.378   8.154 -3.8503  0.3246 -0.9033
  458MOL0     H61819   0.226   1.222   8.080 -0.9984 -0.2518 -0.5035
  458MOL0     H61820   0.191   1.319   7.874 -1.2626  1.1049 -0.9294
  458MOL0     H61821   0.294   1.463   7.911 -1.3478  0.6366  0.1239
  458MOL0     H61822   0.122   1.532   8.076  1.5637  0.4903  0.1742
  458MOL0     H61823   0.027   1.403   8.010 -0.9673  2.2462  1.2760
  458MOL0     H61824   0.028   1.489   7.784  0.7167 -0.1439  0.4694
  458MOL0     H61825  -0.070   1.600   7.890  0.3964  0.7230  1.7725
  458MOL0     H61826   0.312   1.775   7.745 -1.0766  0.0486 -1.8939
  458MOL0     H61827   0.387   1.040   8.119  1.3591  0.2980 -3.2185
  458MOL0     H61828   0.545   0.821   8.330 -1.9871 -0.5800 -2.5938
  458MOL0     H61829   0.456   0.926   8.447  0.0011 -2.0317  1.0667
  458MOL0     H61830   0.385   0.873   8.296 -0.8853  0.1929  0.9729
  459MOL0     O61831  10.657   6.972  10.754  0.5855 -0.0902  0.8218
  459MOL0     C61832  10.603   7.019  10.653  0.3250 -0.1543  0.0095
  459MOL0     O61833  10.664   7.064  10.541 -0.3899 -0.3529  0.4201
  459MOL0     C61834  10.806   7.061  10.532 -1.1582  1.1673 -0.6706
  459MOL0     C61835  10.872   7.181  10.518 -0.2919 -1.1964 -0.7419
  459MOL0     C61836  11.014   7.179  10.502  0.1922 -1.0118  0.4613
  459MOL0     C61837  11.090   7.061  10.495 -0.7421  0.5723  0.6092
  459MOL0     O61838  11.223   7.061  10.477  0.7515  0.6213  0.6500
  459MOL0     C61839  11.314   7.164  10.523  0.1263 -0.1524 -0.2529
  459MOL0     C61840  11.457   7.117  10.487 -0.2369 -0.2218  0.8479
  459MOL0     C61841  11.554   7.243  10.504  0.4261 -1.0356  0.1946
  459MOL0     C61842  11.684   7.210  10.434  0.6860  0.3620 -0.6726
  459MOL0     C61843  11.762   7.336  10.412 -0.4576  0.7381 -0.3113
  459MOL0     C61844  11.893   7.300  10.336  0.1128 -0.1901  0.8950
  459MOL0     C61845  11.969   7.427  10.293 -0.0842 -0.1304  0.4745
  459MOL0     C61846  12.105   7.402  10.225 -0.2529 -0.0447  0.6829
  459MOL0     N61847  12.199   7.486  10.287  0.0492  0.8100 -0.3377
  459MOL0     C61848  12.276   7.455  10.391 -1.1404  1.0083 -0.2669
  459MOL0     C61849  12.328   7.565  10.424 -0.3581  0.2420  0.4338
  459MOL0     C61850  12.409   7.574  10.535 -1.2789  0.1145 -0.3809
  459MOL0     C61851  12.511   7.696  10.535 -0.4232  0.5806 -0.3614
  459MOL0     C61852  12.618   7.669  10.637 -0.0066  0.0296 -0.4706
  459MOL0     C61853  12.716   7.791  10.647  0.2423  0.6016  0.5805
  459MOL0     O61854  12.648   7.919  10.651  0.8304  0.8722  0.1728
  459MOL0     C61855  12.725   8.036  10.647 -0.0191  0.4076  0.8731
  459MOL0     C61856  12.865   8.039  10.612 -0.1474  0.3394 -0.2591
  459MOL0     C61857  12.946   8.159  10.609 -1.2357  0.2042  1.0162
  459MOL0     C61858  12.887   8.268  10.656  0.1837 -0.1058  0.1317
  459MOL0     C61859  12.966   8.390  10.659  0.0562 -0.3376  1.5736
  459MOL0     O61860  13.084   8.383  10.719 -0.4415  0.7057  0.1122
  459MOL0     C61861  13.169   8.489  10.728  0.2949  0.2239  0.0751
  459MOL0     C61862  13.312   8.462  10.744 -0.0833  0.2085 -0.0110
  459MOL0     C61863  13.398   8.564  10.772 -0.5388  0.0230 -0.1176
  459MOL0     C61864  13.352   8.691  10.799  0.1019  0.2195  0.8357
  459MOL0     O61865  13.451   8.784  10.808 -0.2021 -0.0062 -1.0536
  459MOL0     C61866  13.424   8.918  10.775 -0.0142  0.4370 -0.1844
  459MOL0     C61867  13.551   8.986  10.749  0.0022 -0.1181  0.2489
  459MOL0     C61868  13.656   8.962  10.864 -0.8670  0.4720  0.3059
  459MOL0     C61869  13.793   9.029  10.832  0.2087  1.1258  0.8102
  459MOL0     C61870  13.880   9.025  10.957  0.2158  0.0814 -0.4257
  459MOL0     C61871  14.006   9.112  10.935 -0.2321 -0.0255  0.0052
  459MOL0     C61872  14.099   9.089  11.048 -0.2176 -0.6758  0.7504
  459MOL0     C61873  14.088   9.194  11.152  0.3549 -0.6411 -0.5619
  459MOL0    Cl61874  14.207   9.169  11.278  0.2655  0.0805 -0.2139
  459MOL0     C61875  13.219   8.712  10.785 -0.2371 -0.0380 -0.0344
  459MOL0     C61876  13.121   8.622  10.741 -0.0689  0.2617 -0.3670
  459MOL0     O61877  12.921   8.486  10.585  0.4998 -0.0615  0.1829
  459MOL0     C61878  12.750   8.272  10.688 -0.1936  0.3325  0.2594
  459MOL0     C61879  12.672   8.155  10.680 -0.2128  0.0739 -1.1809
  459MOL0     N61880  12.304   7.669  10.343  0.0800  0.5561  0.1954
  459MOL0     N61881  12.231   7.611  10.252 -0.2188 -0.2708  0.1634
  459MOL0     C61882  11.015   6.943  10.506  0.6630 -0.6692  0.2351
  459MOL0     C61883  10.877   6.937  10.521 -0.4924  0.1047  0.7703
  459MOL0     C61884  10.459   7.035  10.659  0.4908 -0.1206 -0.6046
  459MOL0     C61885  10.413   7.162  10.605 -0.4656 -0.1164  0.5832
  459MOL0     C61886  10.274   7.186  10.624 -0.5842 -0.0380 -0.2266
  459MOL0     C61887  10.179   7.097  10.670 -0.7968  0.1039 -0.6584
  459MOL0     O61888  10.047   7.132  10.668  0.8588  0.2540 -0.1942
  459MOL0     C61889   9.942   7.041  10.705  0.0025  0.8417  0.0820
  459MOL0     C61890   9.804   7.113  10.714 -0.5519 -0.1501  0.6346
  459MOL0     C61891   9.712   7.007  10.772  0.8927 -1.0768 -0.7401
  459MOL0     C61892   9.564   7.048  10.783 -0.6766 -1.1815 -0.8975
  459MOL0     C61893   9.550   7.131  10.901 -0.3013 -0.6486  0.5155
  459MOL0     C61894   9.518   7.189  11.000  0.0867 -0.2387 -0.5436
  459MOL0     C61895  10.232   6.972  10.708 -0.0321  1.1388 -0.0094
  459MOL0     C61896  10.366   6.937  10.709 -0.9728  0.3621 -0.0162
  459MOL0     C61897  10.390   6.799  10.758  0.9327  1.0820  0.8441
  459MOL0     H61898  10.818   7.275  10.519 -1.3406 -1.7961  0.1526
  459MOL0     H61899  11.056   7.278  10.487 -2.3121 -0.1709 -2.1593
  459MOL0     H61900  11.294   7.263  10.479  1.7584 -0.6468 -2.3118
  459MOL0     H61901  11.318   7.174  10.632  3.4888 -1.4187 -0.1358
  459MOL0     H61902  11.459   7.101  10.379  1.1936  0.7778  0.6884
  459MOL0     H61903  11.493   7.023  10.528 -1.4839 -2.1657 -2.1494
  459MOL0     H61904  11.580   7.260  10.609  1.9803 -0.0178 -0.3053
  459MOL0     H61905  11.514   7.332  10.454  0.4269  0.2662  2.3600
  459MOL0     H61906  11.732   7.140  10.503  1.9605  0.7739 -1.1235
  459MOL0     H61907  11.656   7.163  10.339  2.4546  2.7424 -2.4880
  459MOL0     H61908  11.694   7.403  10.359 -1.9716  1.3152  2.1800
  459MOL0     H61909  11.777   7.394  10.503  1.0788  2.2917 -1.5000
  459MOL0     H61910  11.955   7.238  10.401  1.8031  0.5941  0.0931
  459MOL0     H61911  11.856   7.254  10.244 -0.5403 -0.0106  1.0670
  459MOL0     H61912  11.984   7.476  10.390  2.2823 -1.7014  0.9802
  459MOL0     H61913  11.898   7.478  10.228  2.0207  0.3276 -1.5812
  459MOL0     H61914  12.136   7.298  10.238  1.4606  0.4380  0.6955
  459MOL0     H61915  12.103   7.422  10.117  0.5329  0.0999  0.6878
  459MOL0     H61916  12.281   7.359  10.441 -0.6335  2.0616  1.8085
  459MOL0     H61917  12.355   7.580  10.630 -1.5041  0.9823 -0.5581
  459MOL0     H61918  12.473   7.485  10.545  0.0474  1.0504 -0.2966
  459MOL0     H61919  12.564   7.708  10.440 -0.2662 -0.0703 -0.3623
  459MOL0     H61920  12.455   7.787  10.559 -2.4931 -0.6535 -0.3394
  459MOL0     H61921  12.677   7.578  10.626  1.3509  0.8055  0.1634
  459MOL0     H61922  12.572   7.659  10.736 -0.6071  2.2464 -0.4715
  459MOL0     H61923  12.758   7.795  10.547  0.5058  0.5171  0.6880
  459MOL0     H61924  12.786   7.782  10.731  1.0221 -1.9269 -0.2373
  459MOL0     H61925  12.920   7.949  10.588 -0.3089  0.3869 -0.8298
  459MOL0     H61926  13.047   8.163  10.571 -2.1283  0.0118 -1.5808
  459MOL0     H61927  13.338   8.357  10.736  2.5058  0.6540  1.3880
  459MOL0     H61928  13.505   8.544  10.774 -0.6589 -1.4704 -3.0490
  459MOL0     H61929  13.352   8.929  10.693 -0.6187  3.2812  0.6106
  459MOL0     H61930  13.375   8.955  10.866 -0.5426 -0.8958  0.0916
  459MOL0     H61931  13.610   8.944  10.667 -0.8092  0.2326 -0.5239
  459MOL0     H61932  13.526   9.091  10.730  3.5528  0.7212 -0.6306
  459MOL0     H61933  13.624   9.003  10.961  2.2493  0.0064  1.6502
  459MOL0     H61934  13.679   8.857  10.883  2.7056  0.9072 -0.9785
  459MOL0     H61935  13.771   9.133  10.805  0.3041  1.0664  0.4928
  459MOL0     H61936  13.835   8.972  10.748 -0.7891  0.2673  0.8593
  459MOL0     H61937  13.894   8.920  10.982 -0.6666  0.2207  0.7174
  459MOL0     H61938  13.834   9.067  11.047 -0.4648  0.2722 -0.8515
  459MOL0     H61939  14.052   9.100  10.836 -1.6129  0.4359 -0.7220
  459MOL0     H61940  13.984   9.218  10.929 -2.2081 -0.3814  0.5057
  459MOL0     H61941  14.205   9.087  11.018  0.6714  1.4336  3.3579
  459MOL0     H61942  14.091   8.988  11.089  3.6339 -1.5235 -0.1805
  459MOL0     H61943  14.105   9.292  11.108  0.6501 -1.8407 -3.3900
  459MOL0     H61944  13.987   9.205  11.194  1.4082  0.7055  1.7836
  459MOL0     H61945  13.176   8.812  10.776 -1.6219 -0.3871  1.9880
  459MOL0     H61946  13.017   8.653  10.744  0.6331  3.0678  3.8138
  459MOL0     H61947  12.701   8.360  10.728 -1.5995 -1.0775  1.7874
  459MOL0     H61948  12.566   8.168  10.699  0.2317  2.2801  0.1777
  459MOL0     H61949  11.078   6.855  10.496 -0.1242 -1.3711  1.2006
  459MOL0     H61950  10.830   6.839  10.520 -0.6992  0.0311 -3.8503
  459MOL0     H61951  10.478   7.242  10.572  0.9961 -1.1740  0.8127
  459MOL0     H61952  10.227   7.276  10.584 -2.4064 -0.9814 -0.3179
  459MOL0     H61953   9.962   7.001  10.805 -1.8029 -3.9480 -1.1986
  459MOL0     H61954   9.934   6.962  10.630  1.4742  1.7866 -1.1440
  459MOL0     H61955   9.777   7.147  10.613 -1.8617 -0.8074  0.7427
  459MOL0     H61956   9.805   7.200  10.780 -1.0885 -1.3675  2.2868
  459MOL0     H61957   9.753   6.982  10.870  0.7974  2.0792  0.2382
  459MOL0     H61958   9.714   6.923  10.702  1.1353 -0.3346 -1.6500
  459MOL0     H61959   9.536   7.095  10.688  0.1462 -1.6063 -1.3619
  459MOL0     H61960   9.496   6.963  10.797 -1.0323 -0.6288  1.0260
  459MOL0     H61961   9.507   7.245  11.090  2.6387  1.2147 -1.0266
  459MOL0     H61962  10.168   6.895  10.753  1.3448 -0.1827 -0.2314
  459MOL0     H61963  10.396   6.751  10.660  2.0801  2.8389  0.0100
  459MOL0     H61964  10.485   6.788  10.811  0.8788  0.7441  0.8736
  459MOL0     H61965  10.305   6.767  10.819  1.6441  1.6083  2.1336
  460MOL0     O61966   2.390   3.711   9.413  0.3117 -0.0834 -0.0104
  460MOL0     C61967   2.321   3.782   9.338 -0.6022 -0.3020 -0.0359
  460MOL0     O61968   2.362   3.885   9.256  0.9218 -0.7871 -0.0768
  460MOL0     C61969   2.471   3.962   9.286 -0.3272  0.2751  0.3616
  460MOL0     C61970   2.523   3.976   9.421  0.6398 -0.1052  0.8858
  460MOL0     C61971   2.630   4.061   9.445  0.4226 -0.7724  0.6837
  460MOL0     C61972   2.686   4.142   9.342 -0.4972  1.0180  1.1161
  460MOL0     O61973   2.788   4.238   9.357  0.1704 -0.1025 -0.0892
  460MOL0     C61974   2.844   4.238   9.492  0.6015 -0.1884 -0.2792
  460MOL0     C61975   2.973   4.322   9.479  0.5421  0.4423  0.0856
  460MOL0     C61976   3.072   4.287   9.359  0.3318 -0.0236  0.6853
  460MOL0     C61977   3.213   4.342   9.371  0.2436 -0.1409  0.0515
  460MOL0     C61978   3.289   4.297   9.245  0.2346 -0.1460 -0.2409
  460MOL0     C61979   3.414   4.364   9.226 -0.4148 -0.1902  0.6162
  460MOL0     C61980   3.542   4.324   9.312  1.4784  0.3707  0.0513
  460MOL0     C61981   3.543   4.380   9.459  0.2923  0.4386 -0.9001
  460MOL0     N61982   3.532   4.532   9.470  0.0454  0.1860  0.2112
  460MOL0     C61983   3.627   4.623   9.413 -0.2339  1.3152  0.8829
  460MOL0     C61984   3.569   4.742   9.419 -0.0500  0.2750 -0.4820
  460MOL0     C61985   3.605   4.868   9.352 -0.0138 -0.3818 -0.7923
  460MOL0     C61986   3.761   4.899   9.342  0.0131  0.0687  0.0338
  460MOL0     C61987   3.820   4.977   9.459 -0.7058 -0.0398 -0.5406
  460MOL0     C61988   3.974   4.959   9.470  0.1378  0.0517  0.3172
  460MOL0     O61989   4.043   4.980   9.347  0.7709 -0.0408  0.7008
  460MOL0     C61990   4.182   4.967   9.341  0.9590 -0.4283  1.2677
  460MOL0     C61991   4.240   5.005   9.221 -0.3014  1.2905 -0.2456
  460MOL0     C61992   4.383   4.993   9.192 -0.0287  0.5536  0.0572
  460MOL0     C61993   4.468   4.939   9.287  0.3132 -0.0047 -0.6796
  460MOL0     C61994   4.618   4.935   9.285  0.6241 -0.3805 -0.4177
  460MOL0     O61995   4.678   4.999   9.174  0.3025 -0.0784  0.1869
  460MOL0     C61996   4.816   5.008   9.175  0.0438  0.1201 -0.7734
  460MOL0     C61997   4.892   4.898   9.120 -0.7186  0.5730 -0.0432
  460MOL0     C61998   5.034   4.896   9.127  0.6809 -0.2094  0.2524
  460MOL0     C61999   5.107   5.000   9.185 -0.2506 -0.8147 -0.5485
  460MOL0     O62000   5.241   5.003   9.189  0.5850  0.0034 -1.6598
  460MOL0     C62001   5.310   5.020   9.064 -0.0445 -0.4851 -0.0848
  460MOL0     C62002   5.449   4.980   9.066 -0.8891  0.3249  0.1944
  460MOL0     C62003   5.484   4.832   9.047 -0.8622 -0.8549  0.1147
  460MOL0     C62004   5.634   4.817   9.008 -1.0553  0.0270  0.3093
  460MOL0     C62005   5.718   4.786   9.136 -0.1110 -0.5928 -0.2228
  460MOL0     C62006   5.870   4.805   9.118 -1.6900  0.7789  0.3816
  460MOL0     C62007   5.946   4.778   9.253  1.5629  0.5313 -0.0353
  460MOL0     C62008   6.095   4.802   9.251 -0.6335  0.0817  0.6045
  460MOL0    Cl62009   6.191   4.641   9.251  0.4618  0.1329 -0.0625
  460MOL0     C62010   5.036   5.101   9.251  0.1084  0.5946 -0.5016
  460MOL0     C62011   4.893   5.103   9.242 -0.1399 -0.0128 -0.1869
  460MOL0     O62012   4.676   4.886   9.378  0.0666  0.2610 -0.5988
  460MOL0     C62013   4.403   4.906   9.411 -0.0793  1.2006 -0.0479
  460MOL0     C62014   4.268   4.920   9.442 -0.9325  0.1418  0.9408
  460MOL0     N62015   3.451   4.729   9.485  0.1524 -0.0864 -0.4981
  460MOL0     N62016   3.420   4.609   9.509 -0.3298  0.9060 -0.5429
  460MOL0     C62017   2.635   4.126   9.204 -1.3474 -0.1939 -0.2715
  460MOL0     C62018   2.536   4.031   9.179 -0.1559  0.1653 -0.7578
  460MOL0     C62019   2.179   3.740   9.310  0.3603 -0.1259  0.9528
  460MOL0     C62020   2.106   3.822   9.224  0.6284  0.2771  0.2942
  460MOL0     C62021   1.968   3.791   9.182 -0.3917 -0.4704  0.2137
  460MOL0     C62022   1.912   3.675   9.221 -0.3692  0.6704 -0.5455
  460MOL0     O62023   1.791   3.638   9.172 -0.4231  0.0050  0.8063
  460MOL0     C62024   1.751   3.500   9.201 -0.1786 -0.9876 -0.8056
  460MOL0     C62025   1.619   3.469   9.135  0.8872 -0.1313 -0.1540
  460MOL0     C62026   1.497   3.549   9.200 -0.4007  0.1368 -0.6744
  460MOL0     C62027   1.366   3.518   9.132  0.0369  0.1109 -0.0974
  460MOL0     C62028   1.256   3.563   9.213  0.2466  0.7281  0.5967
  460MOL0     C62029   1.177   3.631   9.282 -1.1676  0.3442 -0.1713
  460MOL0     C62030   1.989   3.588   9.307 -0.3130  0.5554  0.5021
  460MOL0     C62031   2.121   3.607   9.338  0.0643 -0.6654  0.5462
  460MOL0     C62032   2.186   3.507   9.430 -0.5030 -0.2438  0.1564
  460MOL0     H62033   2.474   3.924   9.503  1.0163 -2.3213 -0.2174
  460MOL0     H62034   2.669   4.059   9.546  1.8130  1.9390  0.2945
  460MOL0     H62035   2.780   4.278   9.571 -0.4019 -0.0050 -1.1554
  460MOL0     H62036   2.869   4.134   9.514 -1.1016 -0.2064  1.8975
  460MOL0     H62037   3.027   4.287   9.567 -0.7004 -1.5818  0.1212
  460MOL0     H62038   2.928   4.421   9.493 -1.9394 -0.1070 -2.8930
  460MOL0     H62039   3.033   4.321   9.263  2.4138 -0.5391 -0.3839
  460MOL0     H62040   3.087   4.179   9.363  0.4518  0.0224  2.4654
  460MOL0     H62041   3.195   4.449   9.377 -2.8570 -0.5081 -0.8480
  460MOL0     H62042   3.262   4.307   9.463  1.5126  3.1450  0.7507
  460MOL0     H62043   3.308   4.190   9.250  3.3864  0.1963 -2.2284
  460MOL0     H62044   3.236   4.333   9.156  1.0978  0.7518 -0.4099
  460MOL0     H62045   3.449   4.346   9.125  3.0962 -1.7167  1.9695
  460MOL0     H62046   3.394   4.472   9.223 -0.2998 -0.1905 -0.2424
  460MOL0     H62047   3.622   4.374   9.257  1.1324  1.3819  0.4426
  460MOL0     H62048   3.556   4.216   9.310  1.2865  0.3438 -1.4292
  460MOL0     H62049   3.459   4.336   9.514  1.2691  0.3796  0.6106
  460MOL0     H62050   3.632   4.341   9.511 -1.7971 -3.7794 -0.0613
  460MOL0     H62051   3.713   4.590   9.356 -1.5920 -0.4465 -0.2467
  460MOL0     H62052   3.576   4.861   9.246 -1.0207 -0.3389 -0.5359
  460MOL0     H62053   3.550   4.953   9.395  2.1595  1.6296 -1.7761
  460MOL0     H62054   3.822   4.809   9.329  2.4885  1.8764 -1.9232
  460MOL0     H62055   3.785   4.951   9.248  1.5563 -1.6415 -0.5982
  460MOL0     H62056   3.770   4.963   9.555  1.4093  0.4641  0.7117
  460MOL0     H62057   3.787   5.073   9.418 -0.9140  0.7390  1.3579
  460MOL0     H62058   3.996   4.859   9.509  0.8481  0.7084  1.6816
  460MOL0     H62059   4.006   5.045   9.531 -0.5744  2.4823 -2.4895
  460MOL0     H62060   4.178   5.036   9.137  1.8772 -2.0289 -3.3512
  460MOL0     H62061   4.424   5.039   9.103 -0.6060 -1.4245 -1.2873
  460MOL0     H62062   4.848   4.814   9.066  0.2513 -0.7129  1.0987
  460MOL0     H62063   5.089   4.811   9.088  2.3074  0.6017  0.7053
  460MOL0     H62064   5.256   4.988   8.975  0.3903 -0.0108 -0.5222
  460MOL0     H62065   5.296   5.128   9.052 -3.1910 -0.8204 -0.0730
  460MOL0     H62066   5.489   5.031   8.978  0.0749 -0.5891  0.0786
  460MOL0     H62067   5.490   5.017   9.161  2.5241  0.1599 -1.0799
  460MOL0     H62068   5.464   4.788   9.146  2.7039 -2.1559  0.4249
  460MOL0     H62069   5.422   4.780   8.974  1.9863 -3.2518 -0.8036
  460MOL0     H62070   5.676   4.906   8.961  0.1212  0.1027  1.4400
  460MOL0     H62071   5.652   4.736   8.936  1.0527  1.3998 -0.7817
  460MOL0     H62072   5.677   4.691   9.172 -1.2285 -0.6015 -1.4514
  460MOL0     H62073   5.689   4.859   9.212  2.0728  0.6799 -0.5314
  460MOL0     H62074   5.910   4.732   9.046 -1.3291 -1.5126  2.7435
  460MOL0     H62075   5.893   4.904   9.079 -2.0378  0.0160 -1.9553
  460MOL0     H62076   5.935   4.673   9.279 -1.3476  0.9190  0.6763
  460MOL0     H62077   5.900   4.842   9.329  2.7882 -0.1671  1.3364
  460MOL0     H62078   6.130   4.857   9.164  1.5341  0.4030  1.6020
  460MOL0     H62079   6.128   4.869   9.331  0.9331  0.7092 -0.5188
  460MOL0     H62080   5.094   5.177   9.302  1.6768 -0.4139 -0.7256
  460MOL0     H62081   4.838   5.178   9.297  0.5975 -0.1505  0.7647
  460MOL0     H62082   4.456   4.867   9.498  0.8066  2.4370 -0.0110
  460MOL0     H62083   4.241   4.898   9.545  4.1615 -2.6213  2.0518
  460MOL0     H62084   2.680   4.171   9.117  2.5141 -2.3223  0.4002
  460MOL0     H62085   2.513   4.019   9.073  2.5985 -2.4479 -1.2015
  460MOL0     H62086   2.139   3.914   9.176  0.9446 -1.0324 -2.1670
  460MOL0     H62087   1.923   3.856   9.108  1.7396  1.2368  0.3314
  460MOL0     H62088   1.744   3.495   9.310  1.0730  1.3977 -0.5535
  460MOL0     H62089   1.823   3.427   9.164  2.0874  1.4798 -1.5851
  460MOL0     H62090   1.592   3.364   9.146 -0.6532 -0.0602 -2.5655
  460MOL0     H62091   1.627   3.491   9.028 -1.0036  3.3933  0.2697
  460MOL0     H62092   1.514   3.657   9.206  0.7011 -0.0801  3.5732
  460MOL0     H62093   1.501   3.517   9.304 -0.8464  2.1397  0.0070
  460MOL0     H62094   1.377   3.574   9.038  0.8980  1.5942  0.8503
  460MOL0     H62095   1.352   3.411   9.117  0.8658 -0.1591  0.9572
  460MOL0     H62096   1.106   3.684   9.342 -0.0285  0.2090  1.3788
  460MOL0     H62097   1.947   3.500   9.355 -0.1219  0.4552  0.4870
  460MOL0     H62098   2.117   3.428   9.460  0.3223 -2.3700 -2.9936
  460MOL0     H62099   2.255   3.452   9.365  2.2319  2.5282  0.4593
  460MOL0     H62100   2.242   3.553   9.512  1.9620 -2.1707 -0.3389
  461MOL0     O62101   8.994   7.833   8.511  0.7582  0.8875 -0.5056
  461MOL0     C62102   8.905   7.897   8.582 -0.5456  0.2860 -0.0708
  461MOL0     O62103   8.933   7.986   8.684  0.2711  0.9127  0.2291
  461MOL0     C62104   9.065   8.010   8.683 -0.5955 -0.4687 -1.0137
  461MOL0     C62105   9.135   7.908   8.751 -0.1315 -0.0282 -0.2210
  461MOL0     C62106   9.266   7.937   8.789 -0.4255 -0.0969  0.2875
  461MOL0     C62107   9.335   8.053   8.754  0.7089  0.8452 -0.0139
  461MOL0     O62108   9.466   8.079   8.780 -0.2358  0.9320 -0.0603
  461MOL0     C62109   9.538   7.980   8.862  0.2213  0.0726  0.3706
  461MOL0     C62110   9.675   8.057   8.897 -0.3858  0.8613 -1.3530
  461MOL0     C62111   9.659   8.181   8.998  0.1761  0.3337  1.1325
  461MOL0     C62112   9.776   8.279   8.990  0.4682 -0.4900 -0.7313
  461MOL0     C62113   9.761   8.385   9.101  0.4729  1.0918  0.1062
  461MOL0     C62114   9.859   8.492   9.106 -0.3896 -0.7992 -0.4951
  461MOL0     C62115   9.960   8.458   9.220 -1.0456  0.6015 -0.8252
  461MOL0     C62116  10.070   8.557   9.251 -0.2324  0.0783  0.1937
  461MOL0     N62117  10.016   8.676   9.320 -0.2239  0.2407 -0.4122
  461MOL0     C62118  10.039   8.693   9.456 -0.7744  0.1821  1.1147
  461MOL0     C62119   9.990   8.812   9.471  0.1731  0.5603 -0.2976
  461MOL0     C62120   9.944   8.867   9.602 -0.6286 -0.8548 -0.7254
  461MOL0     C62121   9.969   9.021   9.637  0.7305  0.2620 -0.7435
  461MOL0     C62122   9.868   9.107   9.545 -0.5731  0.0820  0.7264
  461MOL0     C62123   9.899   9.261   9.554 -0.5691 -0.1651  0.4011
  461MOL0     O62124   9.845   9.319   9.669  0.1791  0.1420  0.1250
  461MOL0     C62125   9.712   9.322   9.694 -0.4960 -0.5021  0.0188
  461MOL0     C62126   9.673   9.342   9.824 -0.7290  0.1566  0.0485
  461MOL0     C62127   9.541   9.347   9.857 -0.2297  0.7049 -0.0450
  461MOL0     C62128   9.435   9.334   9.774 -0.9176 -0.4413 -0.2841
  461MOL0     C62129   9.299   9.341   9.818 -0.8149 -0.6778  0.3396
  461MOL0     O62130   9.208   9.291   9.739 -0.0668  0.8209  0.0306
  461MOL0     C62131   9.079   9.287   9.778 -0.0410 -0.6376 -0.0401
  461MOL0     C62132   9.007   9.407   9.750  0.3989 -0.7625  0.5115
  461MOL0     C62133   8.877   9.424   9.813 -0.2846  0.4056 -0.9494
  461MOL0     C62134   8.816   9.307   9.867 -0.4629  0.3151 -0.1878
  461MOL0     O62135   8.690   9.307   9.914  0.0608 -0.2001  0.3700
  461MOL0     C62136   8.624   9.431   9.931  0.5868 -0.8290 -0.8359
  461MOL0     C62137   8.491   9.410   9.989 -0.2542  0.2337  0.7544
  461MOL0     C62138   8.407   9.292   9.932  1.2330 -0.2937  0.5999
  461MOL0     C62139   8.410   9.298   9.776  0.8269 -0.1299  0.6165
  461MOL0     C62140   8.329   9.179   9.718 -0.1287 -0.5225  0.4719
  461MOL0     C62141   8.307   9.195   9.574 -0.7808 -0.5045 -0.3072
  461MOL0     C62142   8.212   9.091   9.511  0.4879 -0.1891 -0.1045
  461MOL0     C62143   8.236   9.093   9.361  0.6939 -0.3616 -0.3535
  461MOL0    Cl62144   8.167   8.939   9.309  0.0764 -0.1547 -0.4681
  461MOL0     C62145   8.879   9.179   9.855 -0.1263 -0.1606  0.0976
  461MOL0     C62146   9.011   9.173   9.825  0.2732 -0.7769 -0.0732
  461MOL0     O62147   9.276   9.421   9.909 -0.3611 -0.5227  0.4301
  461MOL0     C62148   9.473   9.323   9.638  0.0164  0.9580 -0.1899
  461MOL0     C62149   9.610   9.309   9.600  0.5462  0.4020 -0.6901
  461MOL0     N62150   9.964   8.876   9.357  0.0615  0.2017  0.3366
  461MOL0     N62151   9.987   8.793   9.260 -0.0093 -0.0211  0.3804
  461MOL0     C62152   9.263   8.155   8.686  0.3934 -0.1229  0.5073
  461MOL0     C62153   9.125   8.130   8.659 -0.1825  0.3801  0.4513
  461MOL0     C62154   8.761   7.893   8.527 -0.5363 -0.4589 -0.3680
  461MOL0     C62155   8.714   7.775   8.474  0.1359  0.9226 -0.1441
  461MOL0     C62156   8.588   7.772   8.415  0.0771  0.2340 -0.8455
  461MOL0     C62157   8.512   7.892   8.400 -0.4553 -0.2511 -0.2903
  461MOL0     O62158   8.394   7.897   8.330  0.2821  0.6014 -0.4349
  461MOL0     C62159   8.278   7.846   8.392  0.2162 -0.8938  0.1363
  461MOL0     C62160   8.174   7.952   8.431  0.1160 -0.3748  0.4689
  461MOL0     C62161   8.207   8.080   8.335 -0.4234 -0.7460  0.4522
  461MOL0     C62162   8.080   8.175   8.321 -0.2638  1.1461 -0.3643
  461MOL0     C62163   7.977   8.109   8.245 -0.1656  0.1151  0.1943
  461MOL0     C62164   7.898   8.041   8.181  0.6042 -0.2771 -0.1583
  461MOL0     C62165   8.551   8.005   8.469 -0.3395 -0.4149 -0.0518
  461MOL0     C62166   8.677   8.012   8.535 -0.0185  0.7011  0.6812
  461MOL0     C62167   8.713   8.135   8.613 -0.0374  0.1095  0.2181
  461MOL0     H62168   9.089   7.813   8.774 -1.5363  0.3227 -1.4295
  461MOL0     H62169   9.325   7.859   8.837  4.2237  3.5736  1.3430
  461MOL0     H62170   9.481   7.961   8.953 -0.0616 -1.6598 -0.1376
  461MOL0     H62171   9.545   7.895   8.794  0.8216  1.1866 -0.9994
  461MOL0     H62172   9.734   8.070   8.806  0.7292 -0.0142 -0.7911
  461MOL0     H62173   9.737   7.987   8.955 -2.9128  0.3918  0.9814
  461MOL0     H62174   9.646   8.145   9.100 -3.1763  2.8992  1.7750
  461MOL0     H62175   9.565   8.232   8.975  1.4878  2.6525  0.6313
  461MOL0     H62176   9.871   8.226   9.004  0.3504 -0.7639 -0.9649
  461MOL0     H62177   9.783   8.320   8.889 -3.0746  1.2104 -0.4340
  461MOL0     H62178   9.663   8.428   9.078  0.4062  1.3125  0.7954
  461MOL0     H62179   9.752   8.334   9.198 -1.3226  0.2120 -0.4713
  461MOL0     H62180   9.904   8.488   9.007  2.1161 -2.7805  0.6196
  461MOL0     H62181   9.817   8.591   9.125 -0.6514 -0.0906 -4.0907
  461MOL0     H62182  10.008   8.363   9.195  0.9585  0.8067  1.7337
  461MOL0     H62183   9.907   8.443   9.314  0.6848  0.4330  0.1843
  461MOL0     H62184  10.144   8.512   9.317  0.4717  0.3017 -0.4238
  461MOL0     H62185  10.124   8.579   9.158 -1.6335 -0.4528 -0.7782
  461MOL0     H62186  10.098   8.632   9.523 -1.7858 -1.0400  0.9117
  461MOL0     H62187   9.838   8.847   9.617 -0.7864  1.1508  1.4969
  461MOL0     H62188  10.004   8.812   9.675  0.1080 -4.4635 -3.7779
  461MOL0     H62189   9.943   9.038   9.742  1.1546 -0.1476 -0.5655
  461MOL0     H62190  10.072   9.052   9.615  0.5805  1.3920  0.0671
  461MOL0     H62191   9.768   9.091   9.585 -0.9040 -2.3177 -0.8721
  461MOL0     H62192   9.869   9.084   9.438  1.3720  1.5019  0.3583
  461MOL0     H62193   9.857   9.310   9.466 -1.9673 -0.9233  0.6167
  461MOL0     H62194  10.007   9.263   9.567 -0.5021 -2.4836  0.6791
  461MOL0     H62195   9.750   9.361   9.898  0.3016 -0.3978 -0.8429
  461MOL0     H62196   9.521   9.371   9.961 -3.9524  1.7473 -0.8469
  461MOL0     H62197   9.051   9.492   9.699 -0.0043  0.7508  2.5278
  461MOL0     H62198   8.838   9.522   9.838  2.5218  0.7262  3.2693
  461MOL0     H62199   8.679   9.503   9.992 -2.8601  0.4885  0.9759
  461MOL0     H62200   8.602   9.479   9.836 -4.0418  0.3327  0.5621
  461MOL0     H62201   8.517   9.380  10.091  5.0359 -1.0246 -0.6748
  461MOL0     H62202   8.438   9.506   9.983  0.1282  0.3954 -4.7220
  461MOL0     H62203   8.445   9.197   9.972  0.9196 -1.3473 -1.5004
  461MOL0     H62204   8.302   9.306   9.959  0.8787  1.0477 -1.3113
  461MOL0     H62205   8.507   9.304   9.725 -0.7856  1.5361 -2.5134
  461MOL0     H62206   8.361   9.385   9.730  1.5608 -0.6904 -1.3435
  461MOL0     H62207   8.237   9.166   9.776 -0.4406 -0.7485 -0.0734
  461MOL0     H62208   8.390   9.092   9.748 -1.4557 -1.1146  1.5923
  461MOL0     H62209   8.260   9.292   9.555 -0.8344 -0.5207 -0.2551
  461MOL0     H62210   8.406   9.202   9.527 -0.6273 -0.8779 -0.0452
  461MOL0     H62211   8.108   9.091   9.544  0.7848 -3.3002  1.2797
  461MOL0     H62212   8.248   8.992   9.544 -0.4754 -0.0404  1.4798
  461MOL0     H62213   8.175   9.176   9.326  0.3764 -0.6925 -0.6002
  461MOL0     H62214   8.340   9.094   9.327  0.6722  0.3118 -0.3961
  461MOL0     H62215   8.807   9.099   9.864  0.2892 -0.5663 -0.1534
  461MOL0     H62216   9.061   9.076   9.826 -2.4885 -2.4105  3.4154
  461MOL0     H62217   9.397   9.321   9.560 -2.3797  1.3746  1.9826
  461MOL0     H62218   9.620   9.281   9.496 -2.6855  1.8529 -1.5141
  461MOL0     H62219   9.290   8.259   8.668 -2.0785  0.6087  0.6023
  461MOL0     H62220   9.058   8.200   8.610 -2.7548 -2.0869  0.1971
  461MOL0     H62221   8.781   7.690   8.464  0.6051  1.1274  1.0150
  461MOL0     H62222   8.554   7.686   8.359  2.6429 -1.2612 -0.3081
  461MOL0     H62223   8.288   7.783   8.481 -3.0737  0.8834  1.9195
  461MOL0     H62224   8.234   7.786   8.312 -0.5300 -3.7942  2.5550
  461MOL0     H62225   8.178   7.979   8.537 -0.8951 -0.0575  0.4447
  461MOL0     H62226   8.070   7.924   8.410 -0.1654  1.4062 -0.7046
  461MOL0     H62227   8.233   8.054   8.232 -1.4451 -0.2616  0.0644
  461MOL0     H62228   8.293   8.132   8.378  2.5093 -3.0063 -2.2295
  461MOL0     H62229   8.043   8.177   8.424  1.3664 -1.7013  0.3947
  461MOL0     H62230   8.110   8.272   8.281 -0.2845  2.4228  2.4622
  461MOL0     H62231   7.823   7.981   8.134  1.6473 -2.3998  0.7649
  461MOL0     H62232   8.485   8.091   8.465  1.2917  1.0160  1.7965
  461MOL0     H62233   8.735   8.121   8.719  2.7248  1.7244 -0.0464
  461MOL0     H62234   8.800   8.190   8.574  0.7105 -0.1230  1.4918
  461MOL0     H62235   8.632   8.208   8.603  1.8838  2.1498 -1.9643
  462MOL0     O62236   8.911   9.517  10.324  0.1164 -0.0724 -0.2581
  462MOL0     C62237   8.800   9.554  10.271 -0.0865  0.3800  0.1970
  462MOL0     O62238   8.787   9.666  10.183 -0.0274  0.1790  0.4911
  462MOL0     C62239   8.895   9.722  10.123  0.1913  0.3433  0.2034
  462MOL0     C62240   8.995   9.647  10.065  0.1749  0.3133 -0.2855
  462MOL0     C62241   9.105   9.712  10.009  0.3184 -0.2090  0.1762
  462MOL0     C62242   9.121   9.855  10.020  0.4210  0.3833  0.4567
  462MOL0     O62243   9.227   9.931   9.956  0.6583  1.0498  0.1886
  462MOL0     C62244   9.348   9.869   9.990 -0.6477  0.7994 -0.0989
  462MOL0     C62245   9.467   9.953   9.952  0.4637  0.2586 -0.1919
  462MOL0     C62246   9.606   9.900  10.004  0.3151 -0.0606  0.2329
  462MOL0     C62247   9.669   9.784   9.927 -0.2726  0.6202  0.0020
  462MOL0     C62248   9.821   9.769   9.926 -0.0309  0.5786 -0.1592
  462MOL0     C62249   9.888   9.762  10.066 -0.4086  0.3498 -0.7436
  462MOL0     C62250  10.037   9.763  10.063 -0.2309  0.5812  0.5748
  462MOL0     C62251  10.108   9.810  10.199 -0.5544 -0.1166  0.9802
  462MOL0     N62252  10.251   9.830  10.177 -0.3772 -0.0667  0.5419
  462MOL0     C62253  10.354   9.753  10.234 -0.2452 -0.8342  0.8058
  462MOL0     C62254  10.467   9.824  10.232 -0.2607  0.2915 -0.7317
  462MOL0     C62255  10.601   9.797  10.299 -0.4057  0.2746  0.3082
  462MOL0     C62256  10.703   9.724  10.218 -0.4384  0.8405  0.0836
  462MOL0     C62257  10.735   9.803  10.080  0.2592  0.6049 -0.0542
  462MOL0     C62258  10.791   9.935  10.112 -0.2951 -0.4645  0.3164
  462MOL0     O62259  10.910   9.917  10.194 -0.3016  0.1213  0.2974
  462MOL0     C62260  11.019   9.980  10.134 -0.7481  0.2221  0.1108
  462MOL0     C62261  11.047  10.119  10.124  0.4697 -0.4194  0.6342
  462MOL0     C62262  11.171  10.159  10.073  0.1170 -1.1155  0.5758
  462MOL0     C62263  11.278  10.068  10.036  0.2681 -0.7276 -0.8566
  462MOL0     C62264  11.408  10.114   9.986 -0.0243 -0.0948 -0.6962
  462MOL0     O62265  11.505  10.023   9.967  0.2439 -0.0507  0.0301
  462MOL0     C62266  11.627  10.055   9.914  0.7464 -0.2982 -0.3123
  462MOL0     C62267  11.657  10.171   9.832 -0.9070 -0.6461 -0.2142
  462MOL0     C62268  11.788  10.204   9.789  0.6011  0.8276  0.7514
  462MOL0     C62269  11.887  10.110   9.825  0.0165 -0.6391  0.0168
  462MOL0     O62270  12.012  10.149   9.782  0.0814 -1.0560  0.3110
  462MOL0     C62271  12.121  10.063   9.801 -0.2825 -0.6661  0.1679
  462MOL0     C62272  12.182  10.072   9.942 -0.4857  0.2675 -1.0139
  462MOL0     C62273  12.320  10.145   9.945  0.5676  0.1015 -0.2626
  462MOL0     C62274  12.325  10.283   9.874  0.2867 -0.1580  0.8062
  462MOL0     C62275  12.455  10.357   9.904  0.1476  0.6377 -0.7823
  462MOL0     C62276  12.447  10.425  10.037  0.1455  0.1685  0.4812
  462MOL0     C62277  12.587  10.463  10.077  0.2260 -0.2106 -0.8073
  462MOL0     C62278  12.646  10.578   9.988  0.4790  0.6026  0.3068
  462MOL0    Cl62279  12.537  10.713   9.942 -0.2410 -0.4012  0.1831
  462MOL0     C62280  11.863   9.996   9.909  0.9374 -0.3249 -0.1569
  462MOL0     C62281  11.729   9.981   9.957  0.8659  0.3201  0.3379
  462MOL0     O62282  11.428  10.239   9.978  0.8959  0.8623 -0.2951
  462MOL0     C62283  11.242   9.936  10.048  0.9726  0.0137  0.4065
  462MOL0     C62284  11.122   9.895  10.108  0.0445  0.5799 -0.0240
  462MOL0     N62285  10.441   9.934  10.155 -0.3593 -0.0449 -0.6691
  462MOL0     N62286  10.314   9.942  10.127 -0.4105 -0.0060 -0.3089
  462MOL0     C62287   9.021   9.931  10.083  0.1631 -0.1818  0.7464
  462MOL0     C62288   8.911   9.859  10.128  0.0119  0.4512 -0.4061
  462MOL0     C62289   8.678   9.477  10.309 -0.4088  0.0002 -0.1981
  462MOL0     C62290   8.662   9.342  10.280  0.0345 -0.5939 -0.0948
  462MOL0     C62291   8.559   9.270  10.336 -0.0005  1.1679  0.1559
  462MOL0     C62292   8.470   9.325  10.420  0.5014  0.0448 -0.4945
  462MOL0     O62293   8.377   9.233  10.474 -0.7553  0.0388  0.6449
  462MOL0     C62294   8.258   9.301  10.529 -0.6129  0.3256 -0.7343
  462MOL0     C62295   8.160   9.198  10.561 -0.0081 -0.1783  0.1919
  462MOL0     C62296   8.046   9.264  10.642  0.7074 -0.0265  0.4415
  462MOL0     C62297   7.936   9.172  10.698 -1.2246  0.0775 -0.1075
  462MOL0     C62298   7.856   9.243  10.797  0.4849  0.8294 -0.3993
  462MOL0     C62299   7.804   9.309  10.886 -0.0930  0.2224  0.2791
  462MOL0     C62300   8.476   9.458  10.447 -0.2710 -0.4199 -0.0852
  462MOL0     C62301   8.578   9.538  10.395 -0.3880 -0.2131  0.4500
  462MOL0     C62302   8.569   9.687  10.413 -0.4632  0.5826  0.8065
  462MOL0     H62303   9.004   9.540  10.080  0.4971  0.6622  2.4346
  462MOL0     H62304   9.182   9.664   9.950 -0.5395 -0.7168 -0.5584
  462MOL0     H62305   9.346   9.855  10.099 -1.4791  0.7835 -0.1125
  462MOL0     H62306   9.367   9.779   9.931  5.1104  0.1387  2.1308
  462MOL0     H62307   9.441  10.052   9.990 -4.2693 -0.7747 -0.1216
  462MOL0     H62308   9.465   9.965   9.843 -3.1165  4.8234  0.0592
  462MOL0     H62309   9.604   9.875  10.111 -1.2295  0.2285  0.2936
  462MOL0     H62310   9.671   9.988   9.998  0.4263 -0.1108  0.6396
  462MOL0     H62311   9.626   9.696   9.976  0.9144  2.1114  4.1570
  462MOL0     H62312   9.642   9.778   9.821  0.5016 -1.8122 -0.1221
  462MOL0     H62313   9.840   9.669   9.888  1.8662 -0.3892  2.9548
  462MOL0     H62314   9.871   9.847   9.868 -0.1192  2.0845  1.6656
  462MOL0     H62315   9.847   9.849  10.117 -1.4132  0.3098 -1.4718
  462MOL0     H62316   9.861   9.681  10.135  2.2056  0.1946  0.2547
  462MOL0     H62317  10.075   9.834   9.989 -0.1814 -0.1586 -0.1239
  462MOL0     H62318  10.071   9.664  10.031  0.9061  1.4211 -0.9319
  462MOL0     H62319  10.074   9.910  10.226 -3.8758 -0.9680  0.3083
  462MOL0     H62320  10.081   9.761  10.293 -2.6163  1.4410  1.2568
  462MOL0     H62321  10.347   9.654  10.278 -0.2419  0.1033  3.0416
  462MOL0     H62322  10.651   9.890  10.329  1.7315 -1.3611  2.1484
  462MOL0     H62323  10.587   9.741  10.392 -0.6972 -1.8153 -0.9326
  462MOL0     H62324  10.792   9.718  10.280  0.7932  1.4165 -1.5550
  462MOL0     H62325  10.660   9.626  10.194 -2.8874  1.4938  1.4500
  462MOL0     H62326  10.640   9.822  10.028  2.1755  1.4382 -3.5581
  462MOL0     H62327  10.794   9.740  10.013  0.8889  0.8535  0.2572
  462MOL0     H62328  10.722  10.000  10.166  2.3601 -0.6586  4.4176
  462MOL0     H62329  10.826   9.982  10.020  0.5470 -0.1092  0.8052
  462MOL0     H62330  10.976  10.196  10.150  0.8529  0.6759 -1.3971
  462MOL0     H62331  11.184  10.263  10.043 -1.9531 -1.5730 -2.3272
  462MOL0     H62332  11.585  10.246   9.800  0.8868  1.5641  0.6386
  462MOL0     H62333  11.807  10.290   9.726  1.3926 -0.5095 -0.9415
  462MOL0     H62334  12.102   9.959   9.775 -1.9470 -0.3917  0.1561
  462MOL0     H62335  12.187  10.103   9.723 -1.6357  0.5119 -0.4244
  462MOL0     H62336  12.110  10.118  10.010 -1.3301  0.3694 -1.9494
  462MOL0     H62337  12.205   9.967   9.963 -3.4727 -0.0972  1.0223
  462MOL0     H62338  12.355  10.164  10.047 -0.2270  1.5034 -0.2249
  462MOL0     H62339  12.386  10.075   9.892 -1.3883 -0.0436 -2.6986
  462MOL0     H62340  12.244  10.351   9.899 -0.5621  0.4270 -2.8648
  462MOL0     H62341  12.327  10.262   9.766  0.1225  2.9963  0.0958
  462MOL0     H62342  12.478  10.429   9.825  1.0529 -0.6109 -1.7037
  462MOL0     H62343  12.542  10.292   9.890 -0.7609 -0.5411 -1.1782
  462MOL0     H62344  12.381  10.508  10.013 -0.9686 -1.5662 -3.0130
  462MOL0     H62345  12.388  10.372  10.113 -2.5476  0.5891 -1.2109
  462MOL0     H62346  12.653  10.375  10.074  0.7142  0.0832  0.5168
  462MOL0     H62347  12.592  10.494  10.182  2.9525  0.8569 -1.1763
  462MOL0     H62348  12.735  10.622  10.034  2.3555 -2.1881 -0.4346
  462MOL0     H62349  12.684  10.530   9.898  1.4071  1.4726  0.2191
  462MOL0     H62350  11.944   9.932   9.943  0.4566 -1.2196 -0.6584
  462MOL0     H62351  11.703   9.904  10.030 -1.4883  0.6708 -0.0493
  462MOL0     H62352  11.314   9.865  10.010  0.3744  0.4981 -1.7623
  462MOL0     H62353  11.110   9.787  10.114  3.2062  0.1633  0.3353
  462MOL0     H62354   9.014  10.038  10.099 -2.9728 -0.4563  1.9822
  462MOL0     H62355   8.837   9.921  10.179  0.6625  0.9466 -0.0528
  462MOL0     H62356   8.737   9.294  10.219  1.0526 -1.3658  1.6812
  462MOL0     H62357   8.557   9.162  10.326  0.5570  1.1337  0.3768
  462MOL0     H62358   8.212   9.378  10.467 -6.3693  0.4126  2.9409
  462MOL0     H62359   8.293   9.347  10.622 -1.4511 -0.7041  0.1112
  462MOL0     H62360   8.212   9.126  10.625  1.4273  1.3564  0.8240
  462MOL0     H62361   8.111   9.141  10.482 -1.0239 -1.1123  1.4486
  462MOL0     H62362   7.989   9.330  10.575 -2.7261 -2.9716  0.1757
  462MOL0     H62363   8.087   9.319  10.727  1.5663  0.1428 -0.0658
  462MOL0     H62364   7.886   9.107  10.626 -0.4358  2.2034 -2.7562
  462MOL0     H62365   7.995   9.115  10.770 -0.0476  1.6594  0.2424
  462MOL0     H62366   7.762   9.387  10.946 -0.5075 -1.6280  2.5131
  462MOL0     H62367   8.401   9.502  10.512  2.7989  1.2143  2.6570
  462MOL0     H62368   8.671   9.727  10.418 -0.4414  0.7445 -0.4569
  462MOL0     H62369   8.509   9.721  10.328 -0.0690 -0.6545  0.0151
  462MOL0     H62370   8.522   9.719  10.507  1.5275  0.0945  2.0274
  463MOL0     O62371   3.786  11.391   2.138  0.5425  0.1926  0.8030
  463MOL0     C62372   3.800  11.487   2.068 -0.4589 -0.8861 -0.7120
  463MOL0     O62373   3.918  11.527   2.020 -0.8708 -0.2943  0.2511
  463MOL0     C62374   4.028  11.461   2.074  0.7161  0.1290 -0.6241
  463MOL0     C62375   4.053  11.326   2.056 -0.2009 -0.5277  0.9266
  463MOL0     C62376   4.167  11.257   2.105  0.9181  0.2199  0.9858
  463MOL0     C62377   4.263  11.330   2.171 -0.4066  0.1907 -0.2607
  463MOL0     O62378   4.387  11.279   2.210  0.1759 -0.1912 -0.0047
  463MOL0     C62379   4.456  11.207   2.099 -0.0627 -0.7153  0.2662
  463MOL0     C62380   4.605  11.189   2.113 -0.0215  0.2237 -0.5913
  463MOL0     C62381   4.672  11.312   2.162 -0.0429  0.9575 -0.1601
  463MOL0     C62382   4.828  11.288   2.156  0.4783  0.0328 -0.0060
  463MOL0     C62383   4.905  11.420   2.206  1.0016 -0.5214  0.2961
  463MOL0     C62384   5.052  11.403   2.213  0.0383 -0.3389 -0.0691
  463MOL0     C62385   5.113  11.529   2.279 -0.0263 -0.0041  0.7127
  463MOL0     C62386   5.266  11.506   2.290  0.2320  0.3050 -0.2980
  463MOL0     N62387   5.335  11.628   2.323 -0.2474  1.0548  0.5182
  463MOL0     C62388   5.470  11.633   2.312 -0.6813 -0.0572  0.1074
  463MOL0     C62389   5.514  11.758   2.351 -0.6854 -0.2635 -0.0172
  463MOL0     C62390   5.661  11.801   2.335  0.1819  1.0434  0.0149
  463MOL0     C62391   5.673  11.929   2.250  0.0145 -0.2322  0.6147
  463MOL0     C62392   5.819  11.981   2.233 -0.4353  0.1435 -0.0515
  463MOL0     C62393   5.906  11.863   2.184  0.1138  0.2930  0.1971
  463MOL0     O62394   6.030  11.917   2.133  0.4812 -0.1506  0.7991
  463MOL0     C62395   6.138  11.939   2.215  1.0109 -0.0321  0.1710
  463MOL0     C62396   6.259  11.954   2.144 -0.5085 -0.4433  1.2777
  463MOL0     C62397   6.385  11.972   2.207  0.1336 -0.2217 -0.7397
  463MOL0     C62398   6.390  11.972   2.341 -0.7412  0.1222 -1.0231
  463MOL0     C62399   6.517  11.961   2.404  0.4936  0.1617  0.3838
  463MOL0     O62400   6.628  11.943   2.339  0.0664 -0.1744  0.4098
  463MOL0     C62401   6.746  11.964   2.401 -1.2286  0.3489  0.2907
  463MOL0     C62402   6.771  12.069   2.494  0.0571  0.6105  0.1719
  463MOL0     C62403   6.898  12.112   2.529 -0.0971 -0.3482 -0.9933
  463MOL0     C62404   7.005  12.040   2.471 -0.4804  0.0740  0.4471
  463MOL0     O62405   7.139  12.066   2.488 -0.7578  0.2412 -0.1612
  463MOL0     C62406   7.166  12.154   2.598 -0.0641  0.2605 -0.1536
  463MOL0     C62407   7.319  12.173   2.608  0.0529  0.4713  0.5601
  463MOL0     C62408   7.389  12.179   2.467 -0.2013  0.6845  0.3456
  463MOL0     C62409   7.328  12.263   2.354  0.0452  0.0251 -0.0909
  463MOL0     C62410   7.427  12.285   2.243 -0.5422 -0.7064 -0.1231
  463MOL0     C62411   7.391  12.352   2.110 -0.2413 -0.4684  0.1439
  463MOL0     C62412   7.324  12.494   2.116  0.1806  0.1622 -0.4252
  463MOL0     C62413   7.296  12.528   1.965 -0.2286 -0.3439  0.4437
  463MOL0    Cl62414   7.186  12.663   1.963  0.0295  0.0656  0.1192
  463MOL0     C62415   6.991  11.941   2.380  0.4099  0.8967  0.2328
  463MOL0     C62416   6.856  11.895   2.349  0.3172 -0.9917  0.1868
  463MOL0     O62417   6.513  11.970   2.529  0.1781  0.2756 -0.3125
  463MOL0     C62418   6.270  11.954   2.419  0.2773  0.5022 -0.1909
  463MOL0     C62419   6.144  11.929   2.353 -0.0601  0.3915  0.7987
  463MOL0     N62420   5.403  11.823   2.397  0.4062  0.9079  0.1635
  463MOL0     N62421   5.292  11.743   2.387 -0.5147  0.5308 -0.1201
  463MOL0     C62422   4.231  11.458   2.203  0.7221 -0.5052  1.0043
  463MOL0     C62423   4.117  11.525   2.153  0.1347 -0.7489  0.0272
  463MOL0     C62424   3.671  11.552   2.024 -0.7576 -0.6456  0.9006
  463MOL0     C62425   3.667  11.623   1.906  0.9343 -0.4998  0.5084
  463MOL0     C62426   3.552  11.698   1.862  0.0075 -0.5465 -0.0531
  463MOL0     C62427   3.443  11.702   1.941  0.6446  0.1723 -0.4367
  463MOL0     O62428   3.344  11.785   1.900  0.0629  0.0894  0.0337
  463MOL0     C62429   3.320  11.886   1.994 -0.7475  0.0635  0.4973
  463MOL0     C62430   3.205  11.968   1.953 -0.4372 -0.1576  0.0364
  463MOL0     C62431   3.203  12.088   2.056  1.2931  0.8306  1.1862
  463MOL0     C62432   3.086  12.188   2.041  0.1516 -0.1978 -0.1217
  463MOL0     C62433   3.078  12.246   1.906  0.6559  0.1191 -0.2084
  463MOL0     C62434   3.069  12.286   1.792  0.9187  0.1629  0.4637
  463MOL0     C62435   3.430  11.630   2.055 -0.2460  0.4121 -0.0819
  463MOL0     C62436   3.543  11.558   2.101 -0.2572  0.8796 -0.5272
  463MOL0     C62437   3.534  11.489   2.236 -0.5181  0.4204 -0.3849
  463MOL0     H62438   3.982  11.270   1.996  0.2195 -1.2812  1.1217
  463MOL0     H62439   4.186  11.150   2.095  1.7472  0.2359  2.1597
  463MOL0     H62440   4.414  11.112   2.064 -1.4308  0.1556 -0.5438
  463MOL0     H62441   4.438  11.271   2.012  0.9240 -1.2344 -0.3395
  463MOL0     H62442   4.634  11.153   2.013 -0.6969 -1.6689 -0.1666
  463MOL0     H62443   4.622  11.104   2.180  4.0412  0.5752 -0.9380
  463MOL0     H62444   4.635  11.338   2.261 -1.7090  1.1032 -0.7888
  463MOL0     H62445   4.646  11.396   2.097  0.5517 -1.1002 -3.2965
  463MOL0     H62446   4.857  11.213   2.229 -0.0985  0.9192  1.1636
  463MOL0     H62447   4.844  11.257   2.052  2.4018 -0.0786  0.2987
  463MOL0     H62448   4.878  11.515   2.159  1.5720  0.2467  1.4780
  463MOL0     H62449   4.863  11.447   2.303  0.4658  1.2428 -0.3773
  463MOL0     H62450   5.075  11.312   2.269 -1.4556 -0.6346  0.1087
  463MOL0     H62451   5.085  11.396   2.109 -0.8021 -1.7683 -0.2686
  463MOL0     H62452   5.065  11.543   2.377  0.5033 -1.7807  1.2640
  463MOL0     H62453   5.091  11.618   2.220  1.9053  1.0874  1.5491
  463MOL0     H62454   5.279  11.423   2.361 -1.9588 -0.8503 -1.1747
  463MOL0     H62455   5.294  11.468   2.191 -1.2360 -0.3906 -0.4655
  463MOL0     H62456   5.531  11.560   2.261 -2.1404 -1.5104  0.3598
  463MOL0     H62457   5.715  11.813   2.430  1.8407 -0.5884 -0.6630
  463MOL0     H62458   5.714  11.727   2.275  0.0666  1.7961 -1.0373
  463MOL0     H62459   5.632  11.915   2.149 -0.6012 -1.2390  0.9920
  463MOL0     H62460   5.611  12.005   2.297  0.3632 -0.0267  0.7461
  463MOL0     H62461   5.863  12.017   2.327  2.0246 -3.3011  0.3229
  463MOL0     H62462   5.817  12.057   2.155 -3.6433  1.0787  0.8006
  463MOL0     H62463   5.853  11.813   2.102  1.8309 -0.9684 -0.2001
  463MOL0     H62464   5.930  11.785   2.256  0.6901 -0.9674 -1.2964
  463MOL0     H62465   6.252  11.968   2.036  1.7236  3.7222  1.4800
  463MOL0     H62466   6.468  11.993   2.141 -1.0135 -3.1444 -3.3931
  463MOL0     H62467   6.686  12.124   2.533  0.2244  0.4949  0.7110
  463MOL0     H62468   6.911  12.185   2.608  1.1688 -3.5292  2.0155
  463MOL0     H62469   7.111  12.247   2.582 -0.4829 -0.0867 -0.7400
  463MOL0     H62470   7.129  12.114   2.692  2.4150  0.7544  1.1252
  463MOL0     H62471   7.327  12.266   2.663 -0.3804 -0.4692  2.2760
  463MOL0     H62472   7.364  12.093   2.668 -2.7580 -0.4785  1.5780
  463MOL0     H62473   7.493  12.209   2.487  1.5051 -2.4271 -2.6759
  463MOL0     H62474   7.398  12.078   2.426 -0.8239  1.3414 -1.5284
  463MOL0     H62475   7.304  12.366   2.382 -0.7390  0.2778 -1.6250
  463MOL0     H62476   7.239  12.216   2.314 -1.3536  3.0472 -0.8265
  463MOL0     H62477   7.486  12.194   2.226  0.2025  0.0884 -2.2102
  463MOL0     H62478   7.500  12.358   2.278 -1.7438  0.9940 -1.0179
  463MOL0     H62479   7.483  12.353   2.051 -0.2578  1.1320  0.0954
  463MOL0     H62480   7.317  12.290   2.058 -2.4712  0.2353  2.3008
  463MOL0     H62481   7.386  12.560   2.176  0.5384 -2.2190  2.0121
  463MOL0     H62482   7.223  12.501   2.156 -0.0721  0.1944 -1.0512
  463MOL0     H62483   7.388  12.552   1.912 -0.9206  0.2962 -0.5116
  463MOL0     H62484   7.233  12.452   1.917 -2.3280  1.8152 -0.4648
  463MOL0     H62485   7.083  11.909   2.333  0.6088 -2.1305  2.3998
  463MOL0     H62486   6.855  11.815   2.275 -1.2641 -1.6026  0.8335
  463MOL0     H62487   6.271  11.926   2.524 -0.5749  0.5827 -0.1594
  463MOL0     H62488   6.046  11.922   2.399  0.0144  0.2396  0.9343
  463MOL0     H62489   4.292  11.515   2.272 -0.5344 -1.0363  2.6147
  463MOL0     H62490   4.087  11.628   2.171 -5.1150 -1.5275 -2.4474
  463MOL0     H62491   3.757  11.620   1.846  1.2516 -0.7823  0.9913
  463MOL0     H62492   3.561  11.755   1.770 -0.0879 -1.7025 -0.8016
  463MOL0     H62493   3.410  11.937   2.028  0.2032 -2.8614  2.8549
  463MOL0     H62494   3.296  11.846   2.093 -0.6344 -0.4887  0.3069
  463MOL0     H62495   3.117  11.903   1.950 -1.0125  0.6170 -0.3138
  463MOL0     H62496   3.216  12.004   1.850 -0.6210 -1.8893 -0.6229
  463MOL0     H62497   3.295  12.145   2.043  1.8169 -0.5799 -2.2645
  463MOL0     H62498   3.210  12.051   2.159 -0.6884 -1.5263  0.5960
  463MOL0     H62499   2.983  12.162   2.067  0.8290 -0.9216  2.0651
  463MOL0     H62500   3.110  12.266   2.114 -1.9728 -0.2903  0.7704
  463MOL0     H62501   3.066  12.314   1.689  3.0765 -0.3080  0.2328
  463MOL0     H62502   3.343  11.616   2.118  0.1216 -1.0101  0.1290
  463MOL0     H62503   3.599  11.544   2.305 -4.1960  4.2388  0.4075
  463MOL0     H62504   3.434  11.496   2.279 -0.4652 -2.2068  0.3433
  463MOL0     H62505   3.557  11.382   2.233 -3.0598 -0.1684 -1.4346
  464MOL0     O62506  10.396   0.618   5.979 -0.7689  0.4194  0.1934
  464MOL0     C62507  10.411   0.725   6.035  0.0500 -1.3597  0.0758
  464MOL0     O62508  10.470   0.836   5.975 -0.3393 -0.7405  0.6549
  464MOL0     C62509  10.564   0.810   5.873  0.1230  1.1011 -0.2317
  464MOL0     C62510  10.688   0.868   5.901 -0.0467  0.5205  0.2237
  464MOL0     C62511  10.786   0.867   5.793 -0.4115 -0.7852 -0.7306
  464MOL0     C62512  10.768   0.816   5.667  0.9040  0.4207 -0.4072
  464MOL0     O62513  10.866   0.817   5.572  0.9008  0.3288  0.2081
  464MOL0     C62514  10.879   0.690   5.501 -0.5839  0.1641 -0.0561
  464MOL0     C62515  11.016   0.674   5.425 -0.0785 -0.2592 -0.3295
  464MOL0     C62516  11.145   0.723   5.493 -0.0639 -0.5582 -0.1542
  464MOL0     C62517  11.265   0.743   5.402 -0.0534 -0.4591 -0.0475
  464MOL0     C62518  11.305   0.617   5.319 -0.0172  0.5463  0.2604
  464MOL0     C62519  11.312   0.485   5.397 -0.6407  0.1000 -0.1009
  464MOL0     C62520  11.439   0.489   5.478 -0.1818 -0.2127  0.4041
  464MOL0     C62521  11.501   0.360   5.542 -1.1285  0.0648  0.2856
  464MOL0     N62522  11.651   0.368   5.543 -0.2778 -0.1199  0.4503
  464MOL0     C62523  11.729   0.423   5.641 -0.0294 -0.7586 -0.5081
  464MOL0     C62524  11.844   0.439   5.579 -1.5197  0.5044 -0.0066
  464MOL0     C62525  11.950   0.538   5.614 -0.1854  0.3831 -0.5600
  464MOL0     C62526  12.072   0.462   5.665  0.3274 -0.4871 -0.6741
  464MOL0     C62527  12.077   0.461   5.822  0.4611  0.7422 -0.1032
  464MOL0     C62528  12.194   0.381   5.883 -0.1103 -0.1963  0.3760
  464MOL0     O62529  12.324   0.422   5.836  0.5455  0.8298 -0.0240
  464MOL0     C62530  12.427   0.327   5.839  0.0501  0.4014  0.6234
  464MOL0     C62531  12.520   0.325   5.942  0.1452 -0.1101  0.1057
  464MOL0     C62532  12.629   0.238   5.940 -0.5868  0.0906  0.2556
  464MOL0     C62533  12.643   0.148   5.825 -0.0403  0.6026  0.4637
  464MOL0     C62534  12.753   0.054   5.828  0.7496 -0.0445 -0.0903
  464MOL0     O62535  12.871   0.098   5.874 -0.1360 -0.0181  0.2219
  464MOL0     C62536  12.990   0.024   5.868 -0.0084 -0.8202  0.7792
  464MOL0     C62537  13.102   0.085   5.932 -0.1910 -0.0470 -0.3727
  464MOL0     C62538  13.229   0.033   5.930  0.1782 -0.2453  0.3929
  464MOL0     C62539  13.257  -0.094   5.873  0.3512  0.6555  0.3713
  464MOL0     O62540  13.386  -0.147   5.851 -0.7752  0.1197  0.3323
  464MOL0     C62541  13.492  -0.049   5.889  0.4025  0.2582  1.1251
  464MOL0     C62542  13.620  -0.094   5.837  0.4278 -0.1221 -0.5733
  464MOL0     C62543  13.741  -0.003   5.872 -0.6646 -0.2937  0.0807
  464MOL0     C62544  13.874  -0.078   5.860 -0.8342 -0.0396 -0.2542
  464MOL0     C62545  13.988   0.027   5.866 -0.7480 -0.0085 -0.7282
  464MOL0     C62546  14.113  -0.038   5.923  0.7703 -0.1690  0.3331
  464MOL0     C62547  14.220   0.077   5.938  1.3581 -0.2535  0.0147
  464MOL0     C62548  14.355   0.030   5.979  0.1989 -0.1275 -1.3789
  464MOL0    Cl62549  14.487   0.150   5.977 -0.0304 -0.0858  0.3746
  464MOL0     C62550  13.153  -0.164   5.817  0.1944 -0.4201  0.3535
  464MOL0     C62551  13.021  -0.105   5.805  0.7734 -0.1679 -0.2624
  464MOL0     O62552  12.726  -0.061   5.789  0.0191 -0.3307 -0.0605
  464MOL0     C62553  12.530   0.134   5.734 -1.4689 -0.2433 -0.7952
  464MOL0     C62554  12.433   0.228   5.745 -0.2480 -0.8155 -0.6517
  464MOL0     N62555  11.842   0.370   5.463  0.1788 -0.5780  0.2518
  464MOL0     N62556  11.723   0.336   5.436 -0.6341 -0.3587  0.6896
  464MOL0     C62557  10.638   0.768   5.644  0.1778 -0.6057 -0.4913
  464MOL0     C62558  10.543   0.761   5.744  0.3871 -0.2384 -0.7306
  464MOL0     C62559  10.353   0.732   6.170  0.6350 -0.0026 -0.4155
  464MOL0     C62560  10.391   0.845   6.245  0.0740  0.9002 -0.5383
  464MOL0     C62561  10.317   0.881   6.362  0.3287  0.0408 -0.5056
  464MOL0     C62562  10.223   0.791   6.416 -0.4775  0.2700  0.2998
  464MOL0     O62563  10.162   0.816   6.535  0.4256 -0.3105 -0.8034
  464MOL0     C62564  10.050   0.897   6.532 -0.1917  0.2127  0.3797
  464MOL0     C62565   9.927   0.815   6.505  0.0147  0.3931  0.5250
  464MOL0     C62566   9.876   0.719   6.608  0.2879  0.3467 -0.2723
  464MOL0     C62567   9.755   0.769   6.676 -0.2782  0.4113  0.2895
  464MOL0     C62568   9.718   0.693   6.793  0.5283  0.1949 -0.4981
  464MOL0     C62569   9.695   0.657   6.909 -1.4725 -0.2759 -0.3136
  464MOL0     C62570  10.188   0.675   6.349  0.0808 -0.0346 -0.2887
  464MOL0     C62571  10.249   0.642   6.224  0.4428 -0.8949 -0.3889
  464MOL0     C62572  10.193   0.525   6.149 -0.6516 -0.4397 -1.0099
  464MOL0     H62573  10.712   0.922   5.991  0.5206  1.3287 -0.3923
  464MOL0     H62574  10.887   0.898   5.818 -1.4640  1.9221  0.6033
  464MOL0     H62575  10.889   0.607   5.572  2.9427 -1.1747 -1.8671
  464MOL0     H62576  10.789   0.671   5.442 -0.9939  1.9043 -0.0442
  464MOL0     H62577  11.011   0.721   5.326  1.0983  0.6495  0.0277
  464MOL0     H62578  11.023   0.566   5.406  2.6332 -0.7496  2.6588
  464MOL0     H62579  11.175   0.663   5.580 -2.0840  1.4365  2.0941
  464MOL0     H62580  11.122   0.819   5.540  0.4770 -0.0915 -0.8323
  464MOL0     H62581  11.239   0.812   5.321 -1.7690 -1.4193 -0.3642
  464MOL0     H62582  11.354   0.777   5.456 -0.0776 -0.9450  0.3069
  464MOL0     H62583  11.227   0.590   5.248 -1.3158 -0.3220  1.9519
  464MOL0     H62584  11.389   0.635   5.250 -2.2078  0.0337 -2.7418
  464MOL0     H62585  11.223   0.474   5.461  0.1805 -0.8704  0.9136
  464MOL0     H62586  11.316   0.402   5.326 -0.2496  0.7843 -0.8954
  464MOL0     H62587  11.414   0.558   5.559 -0.8518  0.0773 -0.0357
  464MOL0     H62588  11.516   0.547   5.427  0.5673 -1.6142 -0.1177
  464MOL0     H62589  11.463   0.337   5.641 -3.4695  1.0467 -0.3168
  464MOL0     H62590  11.468   0.271   5.487 -1.3675  1.5599 -2.1351
  464MOL0     H62591  11.702   0.475   5.732  1.6740 -1.5670  0.5055
  464MOL0     H62592  11.974   0.593   5.522  2.5672 -0.7389 -0.6250
  464MOL0     H62593  11.919   0.611   5.689  1.2888  2.2821 -1.6956
  464MOL0     H62594  12.069   0.362   5.619  0.0330 -0.2072 -1.2651
  464MOL0     H62595  12.161   0.498   5.613  2.8870 -4.3097  0.5789
  464MOL0     H62596  11.992   0.404   5.861  0.3432  0.6599 -0.4783
  464MOL0     H62597  12.075   0.566   5.853 -3.0160  0.5116  0.8584
  464MOL0     H62598  12.170   0.277   5.859 -2.3508  0.6495 -1.3439
  464MOL0     H62599  12.207   0.408   5.989  0.7525  1.1766 -0.0529
  464MOL0     H62600  12.510   0.388   6.030  1.1178  0.5366 -0.2392
  464MOL0     H62601  12.699   0.237   6.022 -0.9484 -0.0530  0.5655
  464MOL0     H62602  13.081   0.181   5.978  0.4474 -0.7028  1.4084
  464MOL0     H62603  13.296   0.096   5.988  0.1264 -0.7143  0.9740
  464MOL0     H62604  13.474   0.044   5.834  1.5650  0.0767  0.3996
  464MOL0     H62605  13.510  -0.049   5.996  1.6120 -1.4451  0.9717
  464MOL0     H62606  13.653  -0.193   5.870 -0.0127  0.4905  1.9014
  464MOL0     H62607  13.599  -0.099   5.730  0.8784  0.1198 -0.6763
  464MOL0     H62608  13.736   0.070   5.790 -2.9806 -1.6842 -1.1105
  464MOL0     H62609  13.724   0.049   5.967  1.5605  0.4779  0.1229
  464MOL0     H62610  13.880  -0.132   5.765  0.7293 -0.8748  0.2753
  464MOL0     H62611  13.874  -0.149   5.943 -0.5523 -1.8832 -1.7768
  464MOL0     H62612  13.960   0.114   5.927  0.3020  0.4022 -0.8118
  464MOL0     H62613  13.994   0.062   5.762 -0.6375  0.1430 -0.6711
  464MOL0     H62614  14.096  -0.074   6.025 -0.9681  0.9546  0.4893
  464MOL0     H62615  14.150  -0.122   5.864  1.0273  0.4137 -0.3604
  464MOL0     H62616  14.199   0.170   5.991  7.8502  1.1989  0.8270
  464MOL0     H62617  14.236   0.118   5.838 -1.3992 -1.7371 -1.1506
  464MOL0     H62618  14.337  -0.009   6.080 -2.0153  0.5483 -1.4483
  464MOL0     H62619  14.385  -0.044   5.904 -0.6725 -2.3956  0.4010
  464MOL0     H62620  13.187  -0.259   5.777  1.1479 -0.3321  0.9066
  464MOL0     H62621  12.944  -0.163   5.755  1.2746 -2.7127  1.7042
  464MOL0     H62622  12.526   0.062   5.653 -1.0682 -0.0059 -1.0252
  464MOL0     H62623  12.362   0.248   5.666 -0.5819  1.6885  0.1898
  464MOL0     H62624  10.596   0.713   5.560  0.2002 -1.0469 -0.2147
  464MOL0     H62625  10.445   0.722   5.718  0.7780 -1.9810  0.2927
  464MOL0     H62626  10.477   0.909   6.227  3.1186 -1.9045  2.4725
  464MOL0     H62627  10.340   0.970   6.419 -2.2481  0.9198 -0.7012
  464MOL0     H62628  10.057   0.979   6.460  0.4891  0.4940  0.7617
  464MOL0     H62629  10.042   0.944   6.630  2.6151  0.9037  0.3602
  464MOL0     H62630   9.957   0.757   6.416 -0.0405  0.3091  0.5614
  464MOL0     H62631   9.857   0.894   6.479  0.1279  0.1533 -0.5806
  464MOL0     H62632   9.961   0.710   6.676  1.3413 -1.0129 -1.7041
  464MOL0     H62633   9.862   0.615   6.576 -3.1303  0.4685  0.4249
  464MOL0     H62634   9.769   0.873   6.707 -0.1120 -0.5945  4.1143
  464MOL0     H62635   9.669   0.763   6.608 -0.4375  0.4159  0.4870
  464MOL0     H62636   9.667   0.619   7.005 -1.1957 -2.6581 -1.1161
  464MOL0     H62637  10.122   0.598   6.389  1.6702 -0.9781  0.6117
  464MOL0     H62638  10.145   0.565   6.060  1.6124 -1.3388 -2.7291
  464MOL0     H62639  10.255   0.440   6.120  1.5473  1.6144 -2.6372
  464MOL0     H62640  10.109   0.481   6.205 -3.6375  1.4662 -3.6839
  465MOL0     O62641   1.890   2.101   4.033  0.1468  0.5267  0.7753
  465MOL0     C62642   1.890   2.017   3.941  0.1795  0.3787  0.1517
  465MOL0     O62643   1.794   1.931   3.899 -1.0843  0.3339  0.0701
  465MOL0     C62644   1.680   1.922   3.976 -1.0986 -0.3365 -0.5661
  465MOL0     C62645   1.691   1.859   4.101  0.4204 -0.4025 -0.2692
  465MOL0     C62646   1.591   1.868   4.197  0.5547  0.3615 -0.1826
  465MOL0     C62647   1.471   1.942   4.165 -0.1333 -0.4734 -1.5862
  465MOL0     O62648   1.365   1.943   4.256  0.4289 -0.4270 -0.4383
  465MOL0     C62649   1.359   1.853   4.372  0.2175 -1.1038  1.1296
  465MOL0     C62650   1.233   1.874   4.453 -0.4553 -0.1628  0.2329
  465MOL0     C62651   1.227   2.012   4.525  0.1223 -0.1940  1.2298
  465MOL0     C62652   1.118   2.022   4.636  0.2270  0.4236 -0.3109
  465MOL0     C62653   0.972   2.012   4.588 -0.5896  0.5803 -0.7192
  465MOL0     C62654   0.936   2.110   4.484 -0.2468 -0.0783  0.1095
  465MOL0     C62655   0.788   2.076   4.441  1.1942 -0.2457  1.2485
  465MOL0     C62656   0.726   2.179   4.345  0.6826  0.2419  0.2819
  465MOL0     N62657   0.795   2.177   4.210  0.4737 -0.5076  0.2503
  465MOL0     C62658   0.773   2.111   4.098  0.4650 -0.8408 -0.1523
  465MOL0     C62659   0.871   2.152   4.018  0.1550  0.2959 -0.4837
  465MOL0     C62660   0.896   2.076   3.890 -0.1525  0.1957  0.1253
  465MOL0     C62661   0.955   1.941   3.909  0.1759  1.1274  0.6825
  465MOL0     C62662   1.001   1.883   3.769 -0.3885  0.1794  0.3709
  465MOL0     C62663   1.063   1.742   3.767 -0.9488 -0.0471  0.1518
  465MOL0     O62664   1.121   1.696   3.637 -0.7816 -0.1649 -0.1053
  465MOL0     C62665   1.250   1.731   3.590 -0.1222  0.6714  0.5664
  465MOL0     C62666   1.265   1.697   3.455  0.2587  0.5768 -0.5020
  465MOL0     C62667   1.396   1.708   3.405 -0.5078  0.2825  0.0267
  465MOL0     C62668   1.499   1.750   3.481 -0.4890 -1.0072  0.6746
  465MOL0     C62669   1.637   1.737   3.433 -0.4329 -0.3548  0.9280
  465MOL0     O62670   1.653   1.686   3.309 -0.3027 -0.9511 -0.0322
  465MOL0     C62671   1.770   1.676   3.246  0.0014  0.0635  0.5466
  465MOL0     C62672   1.876   1.594   3.296  0.2268  0.2429 -0.4173
  465MOL0     C62673   1.997   1.595   3.219 -0.2409  0.3449 -0.0235
  465MOL0     C62674   2.016   1.655   3.094 -0.2377  0.3200 -0.2786
  465MOL0     O62675   2.132   1.643   3.022 -0.6610 -0.5532 -0.2664
  465MOL0     C62676   2.158   1.729   2.906 -0.5801  0.9595  0.2102
  465MOL0     C62677   2.305   1.719   2.878  0.0772 -0.8207  0.2843
  465MOL0     C62678   2.336   1.767   2.740  0.6108  0.2113  0.0810
  465MOL0     C62679   2.403   1.648   2.668 -0.8407 -0.2285 -0.0747
  465MOL0     C62680   2.386   1.667   2.515  0.2934  0.0828 -0.1050
  465MOL0     C62681   2.483   1.778   2.465 -0.4928 -0.0491 -0.4724
  465MOL0     C62682   2.465   1.811   2.315  0.5455  0.3798 -1.0075
  465MOL0     C62683   2.560   1.896   2.243  0.2353 -0.1600  1.0259
  465MOL0    Cl62684   2.729   1.817   2.217 -0.0488  0.4306  0.1655
  465MOL0     C62685   1.900   1.719   3.043 -1.2090  0.0917  1.6730
  465MOL0     C62686   1.785   1.740   3.123  0.3436  0.6141 -0.1143
  465MOL0     O62687   1.724   1.779   3.511 -0.0844 -0.2116 -0.1395
  465MOL0     C62688   1.476   1.789   3.613 -0.7449 -1.1935 -0.4511
  465MOL0     C62689   1.348   1.784   3.664  0.8648  0.1526  0.5760
  465MOL0     N62690   0.952   2.245   4.076  0.9447  0.8388  0.6256
  465MOL0     N62691   0.896   2.264   4.190  0.3764 -0.4897 -0.1937
  465MOL0     C62692   1.457   2.001   4.042  0.1069  0.1172  0.7436
  465MOL0     C62693   1.561   1.980   3.943  0.7492 -0.1609  0.2885
  465MOL0     C62694   2.013   2.012   3.865  0.4189 -0.1896  0.5662
  465MOL0     C62695   2.135   1.989   3.942  0.1908 -0.6904  0.2978
  465MOL0     C62696   2.251   2.005   3.884 -0.5052  0.0799  0.9171
  465MOL0     C62697   2.267   2.028   3.738 -0.2931  0.7657  0.1207
  465MOL0     O62698   2.388   2.048   3.671  0.0630 -0.3478 -0.2386
  465MOL0     C62699   2.505   2.008   3.747  0.4979 -0.1275  0.6330
  465MOL0     C62700   2.501   1.854   3.766  0.2307 -0.5248 -0.2400
  465MOL0     C62701   2.622   1.812   3.844  0.3546 -0.0773 -0.3565
  465MOL0     C62702   2.629   1.830   3.997 -0.3464 -0.0011 -0.6841
  465MOL0     C62703   2.524   1.755   4.062 -0.7847 -0.1632  0.8927
  465MOL0     C62704   2.435   1.693   4.114  0.4135  0.6314 -0.2286
  465MOL0     C62705   2.146   2.029   3.662 -0.2745 -0.5105 -0.9444
  465MOL0     C62706   2.024   2.019   3.724 -0.1812 -0.0885 -0.1837
  465MOL0     C62707   1.904   2.030   3.635  0.4106  0.4527 -0.2082
  465MOL0     H62708   1.784   1.806   4.123  1.8071  1.4963 -1.3136
  465MOL0     H62709   1.618   1.841   4.298  2.9711  0.8738 -0.6185
  465MOL0     H62710   1.355   1.753   4.327  1.4004 -0.2500 -1.0768
  465MOL0     H62711   1.449   1.848   4.435  1.0047 -1.1406  0.0408
  465MOL0     H62712   1.230   1.795   4.528  1.8546  0.2704  0.8522
  465MOL0     H62713   1.154   1.841   4.384  1.0852 -3.2594 -0.2520
  465MOL0     H62714   1.215   2.099   4.459 -0.2870 -1.7018 -0.7926
  465MOL0     H62715   1.321   2.034   4.578 -1.0311 -0.8294  3.6748
  465MOL0     H62716   1.143   1.943   4.707  0.2740  0.1609 -0.6161
  465MOL0     H62717   1.131   2.115   4.693  1.7255  0.7568 -1.1377
  465MOL0     H62718   0.938   1.912   4.559  1.7664 -0.4014 -0.3011
  465MOL0     H62719   0.916   2.038   4.678  2.5766  3.6158  0.5796
  465MOL0     H62720   0.932   2.212   4.523 -1.3038  0.1220 -0.4727
  465MOL0     H62721   1.003   2.112   4.397  0.5650  1.2902  0.7492
  465MOL0     H62722   0.727   2.085   4.530  2.6953  0.7582  2.2371
  465MOL0     H62723   0.789   1.978   4.394  2.4973  0.8346 -1.2129
  465MOL0     H62724   0.622   2.148   4.328  1.0320 -1.3401  0.8749
  465MOL0     H62725   0.739   2.275   4.395 -0.3414  1.0000 -0.8228
  465MOL0     H62726   0.701   2.032   4.083  1.4239 -2.2472  2.1346
  465MOL0     H62727   0.801   2.059   3.838 -0.7493 -1.9523  1.7744
  465MOL0     H62728   0.959   2.141   3.829 -1.4426  1.1821 -0.1954
  465MOL0     H62729   1.044   1.953   3.972  1.5906  3.3063 -1.5721
  465MOL0     H62730   0.875   1.879   3.950  0.9890  0.2169  0.9439
  465MOL0     H62731   1.078   1.941   3.719 -0.7874 -0.5686 -1.1842
  465MOL0     H62732   0.915   1.873   3.701 -0.5519  0.8872  0.4653
  465MOL0     H62733   0.994   1.663   3.798  0.2611 -1.3846 -0.4229
  465MOL0     H62734   1.145   1.736   3.839  0.6902 -1.7105 -1.7338
  465MOL0     H62735   1.181   1.655   3.401  1.1364 -0.0229 -1.4288
  465MOL0     H62736   1.417   1.668   3.307 -1.1315  4.8476 -2.2481
  465MOL0     H62737   1.865   1.541   3.390 -1.9553  3.8103  1.5038
  465MOL0     H62738   2.079   1.547   3.273  1.1352  0.7565 -1.6745
  465MOL0     H62739   2.108   1.710   2.810 -0.4342  0.7874  0.1692
  465MOL0     H62740   2.128   1.829   2.939 -0.8024  1.3647 -1.1416
  465MOL0     H62741   2.357   1.790   2.944  0.6404  0.7286 -1.7287
  465MOL0     H62742   2.344   1.618   2.892  1.0979 -0.4121  0.4862
  465MOL0     H62743   2.245   1.798   2.687  0.4963  1.6710  1.0914
  465MOL0     H62744   2.396   1.858   2.735 -0.9097  1.2558  0.0177
  465MOL0     H62745   2.370   1.547   2.692  3.0873 -1.5571  0.5474
  465MOL0     H62746   2.510   1.641   2.693 -1.1245 -2.2831  0.7350
  465MOL0     H62747   2.285   1.696   2.485  0.7402  3.1486  0.9924
  465MOL0     H62748   2.407   1.570   2.470 -1.5209  0.2626 -1.4507
  465MOL0     H62749   2.465   1.866   2.528 -1.8150 -0.5119 -0.1775
  465MOL0     H62750   2.585   1.746   2.493 -0.9316 -1.9896 -0.9521
  465MOL0     H62751   2.373   1.870   2.307  1.1513  1.2675 -1.7715
  465MOL0     H62752   2.464   1.720   2.254 -0.1611 -0.7047  0.5754
  465MOL0     H62753   2.522   1.931   2.146  2.9794  1.3606  0.3881
  465MOL0     H62754   2.575   1.989   2.299  0.2251  3.1808 -3.9178
  465MOL0     H62755   1.901   1.736   2.936  1.2647 -1.6122  1.3509
  465MOL0     H62756   1.703   1.799   3.084 -2.2273 -3.0035 -0.7064
  465MOL0     H62757   1.541   1.848   3.677 -1.0222  0.3536 -1.5263
  465MOL0     H62758   1.325   1.819   3.764 -1.8013  1.4604 -0.3778
  465MOL0     H62759   1.372   2.066   4.023  0.9031  0.9013 -0.2522
  465MOL0     H62760   1.544   2.028   3.847  0.9484 -2.2105 -0.8267
  465MOL0     H62761   2.122   1.987   4.049 -1.0851  0.0536  0.1739
  465MOL0     H62762   2.331   1.994   3.955  1.2251  0.3895 -0.9001
  465MOL0     H62763   2.507   2.068   3.838 -1.3168  2.6972 -1.0221
  465MOL0     H62764   2.591   2.038   3.687  0.4970  2.8194  1.9256
  465MOL0     H62765   2.501   1.807   3.667 -0.4618  1.9309 -1.4961
  465MOL0     H62766   2.413   1.817   3.818  0.8065 -0.2588  0.9516
  465MOL0     H62767   2.708   1.869   3.809 -0.5486  1.5742 -0.0169
  465MOL0     H62768   2.646   1.707   3.823 -0.5950 -0.8830  2.1966
  465MOL0     H62769   2.722   1.784   4.029  0.1421  2.5718  1.9554
  465MOL0     H62770   2.630   1.936   4.026  1.1859  0.4749 -2.2763
  465MOL0     H62771   2.350   1.641   4.153  0.3423  1.3272  0.5730
  465MOL0     H62772   2.157   2.034   3.554  1.7012 -2.4818 -0.9056
  465MOL0     H62773   1.850   1.936   3.630 -0.7546  1.1725 -2.9909
  465MOL0     H62774   1.836   2.105   3.677 -1.6083 -1.3818 -0.0561
  465MOL0     H62775   1.931   2.053   3.531  0.5591  0.6469 -0.1287
  466MOL0     O62776   8.699   6.222   0.924 -0.2490 -0.0158 -0.0104
  466MOL0     C62777   8.807   6.166   0.945  0.0572  0.7820  0.0769
  466MOL0     O62778   8.822   6.045   0.988  0.3312  0.8813 -0.4439
  466MOL0     C62779   8.714   5.975   1.035  0.4466  0.4901 -1.3136
  466MOL0     C62780   8.618   5.924   0.939 -0.3221  0.2066  0.1209
  466MOL0     C62781   8.509   5.857   1.005  0.3402 -0.0740 -0.3171
  466MOL0     C62782   8.492   5.834   1.144  0.3341 -0.5949  0.0297
  466MOL0     O62783   8.378   5.767   1.194  0.4292  1.3154  0.3514
  466MOL0     C62784   8.344   5.643   1.131 -0.3205 -0.7663  0.0008
  466MOL0     C62785   8.416   5.529   1.218 -0.3452  1.0338 -0.3602
  466MOL0     C62786   8.563   5.528   1.184 -0.1912 -0.3874 -0.2734
  466MOL0     C62787   8.615   5.388   1.198  0.3875  0.2824  0.0826
  466MOL0     C62788   8.753   5.376   1.146  0.4757  1.0146 -0.9461
  466MOL0     C62789   8.818   5.256   1.212  0.0666 -0.0857  0.4213
  466MOL0     C62790   8.965   5.243   1.180  0.3014 -0.1930  0.5991
  466MOL0     C62791   9.055   5.336   1.263  0.3500  1.3189 -0.0496
  466MOL0     N62792   9.191   5.294   1.252 -0.0236 -0.6412 -0.2502
  466MOL0     C62793   9.292   5.324   1.162 -0.2682 -0.2605  0.1735
  466MOL0     C62794   9.395   5.251   1.204 -0.7290 -0.2785 -0.0869
  466MOL0     C62795   9.536   5.273   1.148 -0.1724 -0.3797 -0.7204
  466MOL0     C62796   9.644   5.309   1.256  0.7753 -0.4084  0.2224
  466MOL0     C62797   9.634   5.451   1.306 -0.0337 -0.9676 -0.0328
  466MOL0     C62798   9.745   5.456   1.426 -0.5443 -0.0357 -0.5052
  466MOL0     O62799   9.882   5.455   1.377  0.2385  0.2373 -0.7415
  466MOL0     C62800   9.940   5.553   1.307  0.2122  0.0222 -0.2333
  466MOL0     C62801   9.882   5.681   1.288 -0.8014 -0.5060 -0.9473
  466MOL0     C62802   9.963   5.782   1.225 -0.3551 -0.0388  0.1820
  466MOL0     C62803  10.088   5.750   1.160 -0.7639  0.0942 -0.0526
  466MOL0     C62804  10.151   5.842   1.068  0.1737 -0.2310 -0.3345
  466MOL0     O62805  10.268   5.793   1.017  0.9129 -0.4618  1.2908
  466MOL0     C62806  10.345   5.883   0.941  0.2241 -0.4100  0.7739
  466MOL0     C62807  10.419   5.984   0.997  0.4527 -1.0239 -0.1991
  466MOL0     C62808  10.500   6.061   0.915 -0.0063 -0.8046 -0.4610
  466MOL0     C62809  10.514   6.033   0.778 -0.4780  0.3514  0.2063
  466MOL0     O62810  10.603   6.114   0.704  0.2851 -0.1878 -0.1347
  466MOL0     C62811  10.674   6.031   0.605 -0.7855 -0.3969 -0.3409
  466MOL0     C62812  10.798   6.099   0.568 -0.4677  0.2466  0.1381
  466MOL0     C62813  10.869   6.036   0.447  0.2570  0.2240  0.2270
  466MOL0     C62814  11.012   6.091   0.436 -0.7239  0.2857  0.4988
  466MOL0     C62815  11.098   6.010   0.330 -0.5057 -0.1156  0.2552
  466MOL0     C62816  11.164   5.879   0.383 -0.1289 -0.0145 -0.5074
  466MOL0     C62817  11.276   5.905   0.492 -0.6197  0.0655  0.0812
  466MOL0     C62818  11.342   5.775   0.533 -0.7345  0.1587  0.0031
  466MOL0    Cl62819  11.241   5.669   0.634  0.1713 -0.0779  0.0013
  466MOL0     C62820  10.436   5.934   0.724  0.2498  0.0562 -0.0205
  466MOL0     C62821  10.353   5.860   0.804  0.0345 -0.2220  0.2731
  466MOL0     O62822  10.111   5.958   1.054 -0.2176  0.1293 -0.1928
  466MOL0     C62823  10.140   5.622   1.182 -0.2993  0.3637 -0.3897
  466MOL0     C62824  10.067   5.521   1.252  1.1240  1.4068  0.4103
  466MOL0     N62825   9.353   5.161   1.298 -0.1952 -0.5415  0.1151
  466MOL0     N62826   9.234   5.193   1.334 -0.5745 -0.2723  0.6809
  466MOL0     C62827   8.590   5.882   1.231 -1.1686  0.1248  0.8754
  466MOL0     C62828   8.707   5.941   1.182  1.1002 -0.0798  0.9107
  466MOL0     C62829   8.937   6.242   0.915  1.0381 -0.0691 -0.2421
  466MOL0     C62830   9.058   6.181   0.951  0.8654  0.4383 -0.2569
  466MOL0     C62831   9.176   6.243   0.919 -1.2077 -0.2446  0.3249
  466MOL0     C62832   9.184   6.366   0.858  0.0779 -0.7317  0.2754
  466MOL0     O62833   9.307   6.428   0.829  0.7608 -0.1923  0.7867
  466MOL0     C62834   9.401   6.423   0.934  0.4360 -0.2536 -0.8205
  466MOL0     C62835   9.501   6.534   0.926 -0.2501 -0.1881  0.9769
  466MOL0     C62836   9.599   6.506   0.816 -0.2252 -0.2391 -0.9467
  466MOL0     C62837   9.708   6.621   0.793  0.7611  0.6456  0.1810
  466MOL0     C62838   9.823   6.600   0.886  0.2790 -0.0501 -0.2718
  466MOL0     C62839   9.913   6.586   0.969 -1.4049  0.6730  0.0788
  466MOL0     C62840   9.060   6.422   0.821 -0.6140 -0.1118  0.2965
  466MOL0     C62841   8.940   6.368   0.847 -0.4709  0.1112 -1.1125
  466MOL0     C62842   8.813   6.437   0.801  0.2228 -0.4222  0.2387
  466MOL0     H62843   8.647   5.923   0.835 -2.5697 -1.8278 -0.5958
  466MOL0     H62844   8.424   5.820   0.948  1.4143 -1.4757 -1.0711
  466MOL0     H62845   8.237   5.626   1.148 -0.3448  0.1225  0.7818
  466MOL0     H62846   8.359   5.631   1.023 -0.9031  2.8321 -0.6279
  466MOL0     H62847   8.355   5.440   1.199  1.2589  0.1480 -1.6379
  466MOL0     H62848   8.402   5.558   1.323 -2.0531 -1.8646  0.2992
  466MOL0     H62849   8.621   5.597   1.246  0.6671  1.7415 -3.1891
  466MOL0     H62850   8.581   5.556   1.079  1.5638 -2.0736 -0.4701
  466MOL0     H62851   8.604   5.351   1.300 -2.0368 -1.2305 -0.6472
  466MOL0     H62852   8.549   5.319   1.145 -2.8768  2.2116  1.3416
  466MOL0     H62853   8.763   5.365   1.037 -0.0440 -1.7349 -0.7699
  466MOL0     H62854   8.817   5.460   1.176  0.9618  0.2754  0.1530
  466MOL0     H62855   8.813   5.254   1.321  1.1200 -4.9881  0.6345
  466MOL0     H62856   8.783   5.157   1.180 -0.7563 -0.2277  1.7029
  466MOL0     H62857   8.974   5.272   1.075  0.9882 -1.8569  0.1680
  466MOL0     H62858   9.000   5.140   1.192 -1.0232 -1.0537 -2.1924
  466MOL0     H62859   9.046   5.438   1.225 -2.1639  1.1149 -0.1651
  466MOL0     H62860   9.035   5.345   1.370 -0.6043 -2.3075  0.2050
  466MOL0     H62861   9.297   5.414   1.101 -1.2522  1.5090  2.5709
  466MOL0     H62862   9.571   5.181   1.100  1.5051 -0.9347  1.4094
  466MOL0     H62863   9.541   5.355   1.076  2.0791  0.8266  0.6901
  466MOL0     H62864   9.643   5.234   1.335  2.3813 -0.0895  0.5823
  466MOL0     H62865   9.740   5.291   1.206  1.2682  0.8314  0.6702
  466MOL0     H62866   9.532   5.470   1.341  0.4250 -0.0660  0.8672
  466MOL0     H62867   9.656   5.525   1.228 -2.1036 -1.5378 -1.2385
  466MOL0     H62868   9.728   5.367   1.488 -0.9741 -0.1408 -0.7675
  466MOL0     H62869   9.736   5.544   1.490 -1.4095  0.1109 -0.8171
  466MOL0     H62870   9.784   5.707   1.327 -0.3066  1.2758 -0.8403
  466MOL0     H62871   9.918   5.881   1.224 -0.1998  0.0877  2.2957
  466MOL0     H62872  10.416   5.998   1.104 -0.3766  1.5951 -0.4989
  466MOL0     H62873  10.561   6.138   0.962 -1.4283  0.0194  0.0979
  466MOL0     H62874  10.692   5.930   0.642 -4.1041 -1.3483 -0.9586
  466MOL0     H62875  10.605   6.019   0.520 -4.3865  1.9418  1.9808
  466MOL0     H62876  10.773   6.204   0.552 -0.6792 -0.1518 -2.7943
  466MOL0     H62877  10.860   6.076   0.655  1.7893 -2.7996 -2.0264
  466MOL0     H62878  10.871   5.928   0.463  1.3984 -0.0318 -1.4361
  466MOL0     H62879  10.813   6.069   0.359 -0.3244 -0.7422  0.2260
  466MOL0     H62880  11.062   6.088   0.533 -0.7750 -1.2571  0.5035
  466MOL0     H62881  11.001   6.197   0.415 -1.2850  0.1560  0.1037
  466MOL0     H62882  11.182   6.076   0.307 -0.3322  0.1542  1.5928
  466MOL0     H62883  11.041   5.981   0.242  0.3590 -1.5227  0.1273
  466MOL0     H62884  11.081   5.814   0.414  2.5532 -2.1624  2.7542
  466MOL0     H62885  11.212   5.829   0.298  1.7734 -0.3500  0.7202
  466MOL0     H62886  11.244   5.962   0.579  0.0672  1.3852 -0.5006
  466MOL0     H62887  11.355   5.969   0.452 -1.8139  2.3526  1.1950
  466MOL0     H62888  11.371   5.717   0.445 -2.1488  1.9886 -1.7513
  466MOL0     H62889  11.428   5.807   0.593  0.5178  1.7527 -2.4573
  466MOL0     H62890  10.435   5.910   0.618 -1.0510  0.6962 -0.1615
  466MOL0     H62891  10.310   5.764   0.776 -4.6222  2.0488 -1.2914
  466MOL0     H62892  10.232   5.592   1.135  0.2604  3.6297 -1.6813
  466MOL0     H62893  10.103   5.422   1.278 -2.5043  0.4564  2.4474
  466MOL0     H62894   8.584   5.852   1.335 -2.2707 -2.3743  0.1543
  466MOL0     H62895   8.786   5.959   1.254  2.8197 -1.0252 -0.6381
  466MOL0     H62896   9.060   6.090   1.011 -2.8464 -0.4977 -1.2957
  466MOL0     H62897   9.271   6.199   0.946  0.4909  2.0670 -1.4310
  466MOL0     H62898   9.462   6.332   0.935  4.7815  2.3442 -1.7046
  466MOL0     H62899   9.354   6.437   1.032  0.0915  0.0454 -1.0248
  466MOL0     H62900   9.561   6.539   1.018 -1.1687 -1.5862  1.6863
  466MOL0     H62901   9.449   6.627   0.904 -0.8737 -1.0588 -1.6138
  466MOL0     H62902   9.533   6.511   0.729 -1.0466 -0.3654 -0.3429
  466MOL0     H62903   9.653   6.412   0.834  0.0475  0.5629  3.2536
  466MOL0     H62904   9.738   6.602   0.689 -1.3721 -1.4698 -0.1569
  466MOL0     H62905   9.663   6.720   0.803  5.5372  3.0753  0.4226
  466MOL0     H62906  10.002   6.565   1.025 -2.4916  0.2332  1.6886
  466MOL0     H62907   9.059   6.522   0.777  2.3192  0.7309  1.9332
  466MOL0     H62908   8.834   6.538   0.764 -2.9039  0.0404 -0.4892
  466MOL0     H62909   8.772   6.376   0.720  2.0118 -2.5611  0.8463
  466MOL0     H62910   8.739   6.457   0.880 -0.0471  0.4806 -0.2256
  467MOL0     O62911   1.125   7.353   3.013 -0.5406 -0.7018  0.2281
  467MOL0     C62912   1.121   7.282   2.921 -0.8073  0.7669  0.5295
  467MOL0     O62913   1.003   7.253   2.850 -0.2824 -0.3328  0.0663
  467MOL0     C62914   0.889   7.283   2.918  0.0818 -0.5708 -0.3608
  467MOL0     C62915   0.830   7.195   3.012  0.0838  0.0154 -0.9422
  467MOL0     C62916   0.725   7.252   3.095  0.5522 -0.2720  0.1572
  467MOL0     C62917   0.681   7.390   3.071 -0.4424  0.2767 -0.2982
  467MOL0     O62918   0.590   7.460   3.152 -0.0884 -0.3236 -0.5412
  467MOL0     C62919   0.518   7.392   3.256  0.0038 -0.0655 -0.1291
  467MOL0     C62920   0.434   7.500   3.328 -0.0235 -0.3748 -0.3954
  467MOL0     C62921   0.359   7.438   3.443  0.2656 -0.0812 -0.1911
  467MOL0     C62922   0.237   7.355   3.416 -0.2889  0.5069 -0.4781
  467MOL0     C62923   0.169   7.312   3.544 -0.5961  0.5377 -0.1173
  467MOL0     C62924   0.031   7.242   3.515  0.7276  0.0967  0.4744
  467MOL0     C62925   0.042   7.093   3.520 -0.1808 -0.1400 -0.7312
  467MOL0     C62926  -0.088   7.033   3.475  1.1446  0.1215  0.2991
  467MOL0     N62927  -0.151   7.067   3.342  0.3497 -0.4155  0.5137
  467MOL0     C62928  -0.158   6.987   3.234  0.7831  0.6798  1.4189
  467MOL0     C62929  -0.239   7.040   3.141 -0.2316  1.1192 -0.5279
  467MOL0     C62930  -0.264   6.998   2.994  0.2244  0.5024  0.4522
  467MOL0     C62931  -0.137   6.967   2.917  0.6712 -0.3518 -0.7384
  467MOL0     C62932  -0.181   6.932   2.771  0.0242 -0.4038 -0.0528
  467MOL0     C62933  -0.067   6.877   2.691  0.1389  0.4131 -0.7138
  467MOL0     O62934  -0.120   6.823   2.570 -0.9774 -0.1386 -0.1508
  467MOL0     C62935  -0.023   6.767   2.481 -0.8224 -0.9202  0.3008
  467MOL0     C62936   0.121   6.788   2.496 -0.8066 -0.9649  0.0280
  467MOL0     C62937   0.207   6.750   2.398  0.3532  0.4988 -1.3394
  467MOL0     C62938   0.157   6.711   2.273  0.1129  0.4270  0.3168
  467MOL0     C62939   0.234   6.662   2.165 -0.1002 -0.9167 -0.6991
  467MOL0     O62940   0.173   6.629   2.047 -0.1218 -0.0534 -0.2951
  467MOL0     C62941   0.246   6.577   1.939  0.3456  0.9024  0.5188
  467MOL0     C62942   0.380   6.606   1.904  0.5432 -0.4291 -0.3236
  467MOL0     C62943   0.433   6.556   1.780 -0.1531  0.4917  0.3063
  467MOL0     C62944   0.356   6.477   1.694 -0.6304 -0.2311 -0.1038
  467MOL0     O62945   0.407   6.427   1.574 -0.1073  0.3477 -0.8009
  467MOL0     C62946   0.478   6.306   1.595 -0.6961  0.0170 -0.2759
  467MOL0     C62947   0.617   6.293   1.521  0.9183 -0.2049  0.2498
  467MOL0     C62948   0.728   6.396   1.576  0.0204 -0.2903 -0.3880
  467MOL0     C62949   0.860   6.382   1.498 -0.9475 -0.1099  0.5177
  467MOL0     C62950   0.975   6.454   1.566  0.4477 -0.5189  0.7609
  467MOL0     C62951   0.951   6.605   1.579  0.5788  1.0570 -0.3228
  467MOL0     C62952   1.065   6.672   1.658  0.2835  0.0739  0.2306
  467MOL0     C62953   1.191   6.657   1.574  0.0946 -0.2198 -0.1429
  467MOL0    Cl62954   1.303   6.778   1.634  0.0138 -0.2048 -0.0308
  467MOL0     C62955   0.222   6.452   1.731  0.8560 -0.3232 -0.3641
  467MOL0     C62956   0.167   6.506   1.847 -0.7407  0.0842  0.4624
  467MOL0     O62957   0.356   6.655   2.181  0.4769 -0.3678  0.0371
  467MOL0     C62958   0.020   6.705   2.257  0.0237  0.2635 -0.3674
  467MOL0     C62959  -0.071   6.725   2.360  0.6867  0.4010 -0.0907
  467MOL0     N62960  -0.295   7.154   3.212 -0.3294 -0.3347  0.0974
  467MOL0     N62961  -0.232   7.170   3.330  0.8695 -0.3788 -0.0747
  467MOL0     C62962   0.734   7.467   2.971 -0.2048 -0.8769 -0.2488
  467MOL0     C62963   0.841   7.417   2.903  0.0242 -1.3063  0.1467
  467MOL0     C62964   1.251   7.244   2.855 -0.1059  0.3438 -0.0578
  467MOL0     C62965   1.250   7.217   2.718 -0.2316 -0.0476 -0.2703
  467MOL0     C62966   1.364   7.177   2.653  0.3547 -0.5736 -1.6035
  467MOL0     C62967   1.485   7.155   2.720  0.7192  0.2162  0.0859
  467MOL0     O62968   1.596   7.108   2.653 -0.8014  0.2202 -0.6416
  467MOL0     C62969   1.717   7.110   2.732  0.7599 -0.9911 -0.2376
  467MOL0     C62970   1.840   7.071   2.647 -0.7334  0.0504  0.2213
  467MOL0     C62971   1.973   7.065   2.728 -1.1164  0.2437  0.0380
  467MOL0     C62972   2.069   6.968   2.663 -0.0569  0.2341  0.0831
  467MOL0     C62973   2.119   7.025   2.539  0.1913 -0.1121  0.1487
  467MOL0     C62974   2.146   7.074   2.431 -1.2472 -0.5330  0.6195
  467MOL0     C62975   1.495   7.192   2.855  0.0043 -0.2506  0.0596
  467MOL0     C62976   1.376   7.234   2.923  0.2533 -0.0237  0.7821
  467MOL0     C62977   1.386   7.254   3.073 -0.1581 -0.7127 -0.3112
  467MOL0     H62978   0.866   7.093   3.012 -2.4409 -1.0939 -4.4525
  467MOL0     H62979   0.680   7.198   3.178 -1.3714 -0.6005 -1.0448
  467MOL0     H62980   0.451   7.316   3.214 -1.9513  2.0768 -1.1417
  467MOL0     H62981   0.592   7.346   3.321  2.0583  2.1923 -0.7509
  467MOL0     H62982   0.371   7.549   3.252  2.7298  1.1867 -1.8323
  467MOL0     H62983   0.499   7.580   3.364 -0.6044  0.2041 -0.6077
  467MOL0     H62984   0.328   7.521   3.507  1.5121  2.1008 -2.2379
  467MOL0     H62985   0.430   7.376   3.499  0.6426 -0.5724 -1.1859
  467MOL0     H62986   0.165   7.412   3.356 -0.6113 -0.4244 -1.0063
  467MOL0     H62987   0.263   7.264   3.362 -0.3307 -0.1536  0.5898
  467MOL0     H62988   0.233   7.250   3.607  0.1621  3.2141  1.9587
  467MOL0     H62989   0.145   7.400   3.605  0.1941  0.5320  0.2037
  467MOL0     H62990  -0.041   7.267   3.593  0.1402  0.4213 -0.1673
  467MOL0     H62991   0.001   7.268   3.413  2.7574 -2.1034 -0.7983
  467MOL0     H62992   0.068   7.061   3.622 -0.4018  1.4254 -0.1631
  467MOL0     H62993   0.114   7.047   3.451  1.4006  1.3612 -0.1705
  467MOL0     H62994  -0.082   6.924   3.482  0.2395  0.1146  1.0890
  467MOL0     H62995  -0.158   7.061   3.554  2.1233  0.0089  1.2251
  467MOL0     H62996  -0.108   6.892   3.219 -0.9454 -0.1217  0.4787
  467MOL0     H62997  -0.342   6.921   2.992 -0.7338  1.4445  0.6642
  467MOL0     H62998  -0.309   7.088   2.951 -0.4834  0.7061  1.5751
  467MOL0     H62999  -0.081   7.061   2.922  0.0517 -0.0440  1.6413
  467MOL0     H63000  -0.080   6.881   2.954 -0.7875 -0.8045  0.5832
  467MOL0     H63001  -0.217   7.020   2.716  1.7226 -0.0554 -0.6654
  467MOL0     H63002  -0.261   6.859   2.783 -1.0818  0.7323 -0.2643
  467MOL0     H63003  -0.014   6.798   2.744  1.5823  0.1564 -2.4528
  467MOL0     H63004   0.005   6.960   2.684  2.1720 -1.2304 -0.2427
  467MOL0     H63005   0.160   6.841   2.583 -1.6681 -0.6887  0.2575
  467MOL0     H63006   0.313   6.765   2.415  0.7262 -1.6252 -1.5630
  467MOL0     H63007   0.436   6.678   1.964  0.8560 -0.6064 -0.4012
  467MOL0     H63008   0.533   6.574   1.742 -0.6090  0.1711 -1.1307
  467MOL0     H63009   0.493   6.294   1.703  0.5734  0.0925 -0.4259
  467MOL0     H63010   0.413   6.223   1.566 -1.1083  0.6438 -1.1941
  467MOL0     H63011   0.653   6.192   1.547  0.4950 -0.6399 -0.7994
  467MOL0     H63012   0.603   6.304   1.414 -0.8927 -0.5874  0.4064
  467MOL0     H63013   0.700   6.501   1.566  1.5188  0.4058  1.9442
  467MOL0     H63014   0.749   6.375   1.681 -1.0853  3.6023  0.8005
  467MOL0     H63015   0.856   6.416   1.394  2.6850 -1.4997 -0.2228
  467MOL0     H63016   0.884   6.275   1.496 -2.4558 -0.4927  1.5535
  467MOL0     H63017   1.064   6.442   1.504  1.9217  1.1377  2.4154
  467MOL0     H63018   0.991   6.399   1.659  3.3551 -0.8006  0.1805
  467MOL0     H63019   0.933   6.644   1.478  0.3380 -0.3242 -0.8359
  467MOL0     H63020   0.857   6.620   1.634  0.9055 -0.0907  0.6077
  467MOL0     H63021   1.070   6.625   1.756  1.7209 -1.7602 -0.6415
  467MOL0     H63022   1.044   6.778   1.673 -0.7584 -0.2440  1.1190
  467MOL0     H63023   1.238   6.559   1.582 -0.4425 -0.3849  1.5661
  467MOL0     H63024   1.175   6.681   1.469 -1.4901 -0.9654 -0.1019
  467MOL0     H63025   0.159   6.383   1.676 -2.5293  0.3327  2.3324
  467MOL0     H63026   0.063   6.487   1.869 -1.2759 -0.0584 -1.8996
  467MOL0     H63027  -0.032   6.673   2.168 -0.0056  2.6561 -1.2755
  467MOL0     H63028  -0.173   6.721   2.322  0.4481  0.8256  0.4833
  467MOL0     H63029   0.694   7.566   2.951 -0.7702 -0.4146  2.7644
  467MOL0     H63030   0.887   7.479   2.827  2.7356 -1.9147  1.2005
  467MOL0     H63031   1.163   7.229   2.654  1.1847 -0.2479 -2.3191
  467MOL0     H63032   1.352   7.169   2.546 -1.5055 -0.5018 -1.4297
  467MOL0     H63033   1.708   7.056   2.826 -0.6218 -3.1504 -1.5137
  467MOL0     H63034   1.741   7.216   2.748 -0.0644 -0.3375 -2.7375
  467MOL0     H63035   1.857   7.137   2.561  2.6390  1.2469  1.6347
  467MOL0     H63036   1.818   6.981   2.589 -1.4925  1.6449 -2.1409
  467MOL0     H63037   1.956   7.021   2.827  1.0418 -0.8961 -0.0194
  467MOL0     H63038   2.022   7.162   2.742 -0.2945  0.2128 -2.2387
  467MOL0     H63039   2.155   6.944   2.725  0.9033 -3.9572 -2.4986
  467MOL0     H63040   2.019   6.877   2.629 -2.5057  1.6013 -0.2743
  467MOL0     H63041   2.178   7.120   2.339 -1.4301  1.4173  1.4730
  467MOL0     H63042   1.588   7.200   2.911 -0.7867  1.7687  1.1885
  467MOL0     H63043   1.484   7.231   3.119 -0.6636 -1.2560  0.5372
  467MOL0     H63044   1.351   7.356   3.088 -0.3481 -0.6070 -1.4487
  467MOL0     H63045   1.319   7.202   3.142 -0.2442  0.2369  0.3433
  468MOL0     O63046   2.508   2.493   3.302  0.0001 -0.3036  0.0890
  468MOL0     C63047   2.443   2.406   3.359  0.4028  0.0583 -0.1731
  468MOL0     O63048   2.484   2.298   3.436 -0.4695 -0.3758 -0.5115
  468MOL0     C63049   2.619   2.281   3.458  0.2691 -0.2805  0.6901
  468MOL0     C63050   2.697   2.376   3.523  0.3502 -0.6417  0.0573
  468MOL0     C63051   2.828   2.336   3.545  0.6267 -0.7812  0.5382
  468MOL0     C63052   2.878   2.215   3.495  0.0497 -0.3078 -0.6020
  468MOL0     O63053   3.003   2.175   3.529  0.2377  0.5401 -0.5495
  468MOL0     C63054   3.096   2.281   3.566  0.3575  0.0315  0.2723
  468MOL0     C63055   3.241   2.235   3.536 -0.4634 -0.0298  0.0515
  468MOL0     C63056   3.249   2.202   3.382  0.0351 -0.3699 -0.6393
  468MOL0     C63057   3.393   2.196   3.330 -0.5629  0.4179 -0.3696
  468MOL0     C63058   3.478   2.084   3.390 -0.7735  0.5401 -0.7935
  468MOL0     C63059   3.458   1.951   3.321  0.0461 -0.3964  0.2849
  468MOL0     C63060   3.555   1.844   3.373 -0.3205  0.0735 -0.7319
  468MOL0     C63061   3.571   1.737   3.260 -0.5880  0.0882  0.1132
  468MOL0     N63062   3.601   1.608   3.328  0.3253 -0.3592  0.3497
  468MOL0     C63063   3.715   1.530   3.310  0.1216 -0.1743 -0.5446
  468MOL0     C63064   3.696   1.417   3.381  0.1510 -1.9072  0.9818
  468MOL0     C63065   3.790   1.310   3.395  0.3327 -0.3922  0.3166
  468MOL0     C63066   3.838   1.272   3.540  0.3077  0.2155  1.2263
  468MOL0     C63067   3.945   1.167   3.522 -0.1608  0.6496  0.1183
  468MOL0     C63068   4.057   1.190   3.428 -0.6254 -0.3238 -0.6302
  468MOL0     O63069   4.124   1.303   3.485  0.3738  0.1686 -1.3446
  468MOL0     C63070   4.238   1.333   3.425 -1.0133  0.1302  0.4236
  468MOL0     C63071   4.288   1.458   3.459  0.2557 -0.1908 -0.5471
  468MOL0     C63072   4.397   1.509   3.387 -0.4169 -0.3989 -0.4657
  468MOL0     C63073   4.465   1.431   3.286 -0.2903  1.0234 -0.5384
  468MOL0     C63074   4.591   1.489   3.232  0.3388 -0.9582 -0.2633
  468MOL0     O63075   4.662   1.419   3.146 -0.8296  0.3336  0.8544
  468MOL0     C63076   4.792   1.441   3.110  0.5923  0.0247  1.0073
  468MOL0     C63077   4.867   1.325   3.095  0.3732  0.4476 -0.3820
  468MOL0     C63078   4.996   1.333   3.045  0.2596  0.6571  0.6775
  468MOL0     C63079   5.059   1.456   3.028  0.7027 -0.3074 -0.1697
  468MOL0     O63080   5.193   1.447   3.001  0.2285  0.4898 -0.4229
  468MOL0     C63081   5.270   1.547   3.054  0.6268  0.7077 -0.2301
  468MOL0     C63082   5.421   1.543   3.018 -0.3657  0.2360  0.6169
  468MOL0     C63083   5.433   1.541   2.863 -0.0840  0.1797  0.5357
  468MOL0     C63084   5.566   1.505   2.794 -0.4506  0.0057 -0.1267
  468MOL0     C63085   5.551   1.529   2.642 -0.4750  0.3486 -0.4272
  468MOL0     C63086   5.680   1.486   2.572 -0.5055  0.0924 -0.0580
  468MOL0     C63087   5.680   1.570   2.439 -0.2489  0.1500  0.2894
  468MOL0     C63088   5.808   1.551   2.357  0.9935  0.4181  0.2203
  468MOL0    Cl63089   5.946   1.652   2.407  0.0522  0.0291  0.1157
  468MOL0     C63090   4.988   1.575   3.035  0.1082  0.1209  0.5169
  468MOL0     C63091   4.856   1.568   3.085 -0.2628  0.2835  1.1064
  468MOL0     O63092   4.626   1.601   3.276 -0.6171  0.3064  1.1867
  468MOL0     C63093   4.418   1.301   3.257 -0.7696  0.0388  0.1458
  468MOL0     C63094   4.306   1.252   3.322 -0.0510 -0.2214  0.4900
  468MOL0     N63095   3.564   1.414   3.433 -0.5591 -0.6496  0.7467
  468MOL0     N63096   3.511   1.529   3.403  0.1678  0.7042  0.3394
  468MOL0     C63097   2.806   2.127   3.424  0.4219  0.0742 -0.5104
  468MOL0     C63098   2.673   2.164   3.402  0.1238 -0.3483  0.0387
  468MOL0     C63099   2.294   2.430   3.380 -1.1532  0.2147 -1.0674
  468MOL0     C63100   2.236   2.393   3.504  0.1880  0.7196 -0.0138
  468MOL0     C63101   2.091   2.411   3.535 -1.1587 -0.8248 -0.2091
  468MOL0     C63102   2.013   2.457   3.422 -0.3101  0.5085  0.1615
  468MOL0     O63103   1.880   2.480   3.430 -0.0032 -0.7458 -0.6096
  468MOL0     C63104   1.802   2.445   3.546  0.2477 -0.0501 -0.7969
  468MOL0     C63105   1.654   2.465   3.500  0.2992 -0.4240  0.2273
  468MOL0     C63106   1.563   2.421   3.617  0.6809 -0.2396  0.0533
  468MOL0     C63107   1.413   2.394   3.580 -0.0255  0.3901 -0.0743
  468MOL0     C63108   1.359   2.256   3.584 -0.5934  0.6374  0.2125
  468MOL0     C63109   1.296   2.150   3.582  0.1504 -0.0199  0.6767
  468MOL0     C63110   2.083   2.495   3.300  0.0160 -0.1670  0.0831
  468MOL0     C63111   2.221   2.476   3.276  0.8446 -0.8457  0.2698
  468MOL0     C63112   2.257   2.493   3.138 -0.6210 -0.4981 -0.7419
  468MOL0     H63113   2.667   2.472   3.565  1.1216 -0.3494 -0.0449
  468MOL0     H63114   2.889   2.400   3.609  1.1236 -1.9107  1.2109
  468MOL0     H63115   3.083   2.372   3.506  0.8535  0.0700  0.2152
  468MOL0     H63116   3.096   2.325   3.666  2.2081  1.7303 -0.4248
  468MOL0     H63117   3.258   2.144   3.594  2.2960 -0.0260 -0.6315
  468MOL0     H63118   3.314   2.310   3.567 -1.0885 -0.6769  3.4773
  468MOL0     H63119   3.186   2.277   3.334 -2.2792 -1.5724  0.4082
  468MOL0     H63120   3.209   2.104   3.355 -1.9506 -0.7039  2.9126
  468MOL0     H63121   3.405   2.179   3.222 -0.6428 -3.7294  0.1462
  468MOL0     H63122   3.448   2.287   3.355 -0.9836  0.7825 -0.7448
  468MOL0     H63123   3.581   2.107   3.362  0.1252 -1.8610  0.2885
  468MOL0     H63124   3.476   2.088   3.499  1.9426  0.4355 -0.6941
  468MOL0     H63125   3.354   1.920   3.334  0.2416 -2.9253 -2.7208
  468MOL0     H63126   3.477   1.969   3.215  0.0780 -0.1180  0.3371
  468MOL0     H63127   3.520   1.809   3.470  3.4954  2.2260  1.6535
  468MOL0     H63128   3.654   1.886   3.390  0.2927 -2.2444  2.1685
  468MOL0     H63129   3.483   1.725   3.195  2.4335 -3.9939 -3.8291
  468MOL0     H63130   3.652   1.771   3.195  0.2147 -1.1174  0.4462
  468MOL0     H63131   3.810   1.551   3.261  1.4802 -1.1693  1.5556
  468MOL0     H63132   3.746   1.228   3.338 -0.9972  1.1877 -1.0449
  468MOL0     H63133   3.876   1.352   3.341 -2.1683  1.6574 -2.3944
  468MOL0     H63134   3.873   1.360   3.593  1.3460  0.8270 -0.3856
  468MOL0     H63135   3.763   1.219   3.599  3.5969 -4.7422  1.6479
  468MOL0     H63136   3.906   1.073   3.484  1.1283 -1.0995  2.7981
  468MOL0     H63137   3.989   1.141   3.619 -1.6699 -1.8030  0.2127
  468MOL0     H63138   4.039   1.208   3.322  0.7279  1.1242 -0.6616
  468MOL0     H63139   4.129   1.108   3.435  0.0615  0.3906  1.8953
  468MOL0     H63140   4.242   1.528   3.528 -1.8717 -0.8387 -1.2218
  468MOL0     H63141   4.441   1.599   3.429 -0.0273  0.4287 -2.5113
  468MOL0     H63142   4.814   1.232   3.114 -1.9995  1.5751 -1.0864
  468MOL0     H63143   5.050   1.243   3.017  0.1560  1.1087 -1.1717
  468MOL0     H63144   5.232   1.645   3.024 -3.7106  0.8890  4.4384
  468MOL0     H63145   5.268   1.534   3.163  1.3289 -3.6760 -0.5664
  468MOL0     H63146   5.478   1.624   3.064 -2.1239  1.8161  0.1399
  468MOL0     H63147   5.470   1.449   3.048 -0.3948  0.1205  0.3157
  468MOL0     H63148   5.361   1.475   2.812  1.2431 -1.5727  0.8270
  468MOL0     H63149   5.409   1.643   2.832 -1.1240 -1.2401 -4.1202
  468MOL0     H63150   5.597   1.403   2.819  0.2910 -0.0283 -1.1013
  468MOL0     H63151   5.645   1.563   2.843 -2.3646  0.7884  2.2169
  468MOL0     H63152   5.516   1.631   2.626 -1.9938 -0.3380 -1.7819
  468MOL0     H63153   5.467   1.466   2.609 -1.2727  1.3539 -0.3586
  468MOL0     H63154   5.763   1.512   2.639 -2.6328  1.3868  2.2714
  468MOL0     H63155   5.690   1.378   2.559 -0.0753  0.2132 -0.8202
  468MOL0     H63156   5.672   1.679   2.447 -3.2335  0.6887 -5.1384
  468MOL0     H63157   5.601   1.537   2.371  1.2739  0.1306 -1.5367
  468MOL0     H63158   5.834   1.445   2.366  0.7277  0.0457 -2.5309
  468MOL0     H63159   5.780   1.559   2.251 -4.1329  3.3177  1.4787
  468MOL0     H63160   5.040   1.669   3.020 -1.5237  0.6494 -2.3499
  468MOL0     H63161   4.798   1.657   3.107  0.0240  1.4967 -2.4580
  468MOL0     H63162   4.453   1.241   3.173  1.0372 -1.2139  1.7140
  468MOL0     H63163   4.257   1.162   3.285  0.6821  0.0355 -1.2189
  468MOL0     H63164   2.844   2.027   3.403 -0.5122 -1.3341  3.6188
  468MOL0     H63165   2.614   2.087   3.352  0.8737 -0.1621 -1.1629
  468MOL0     H63166   2.303   2.342   3.573 -2.0265  0.6675  2.2679
  468MOL0     H63167   2.058   2.398   3.637  0.8511  0.1009  0.6161
  468MOL0     H63168   1.820   2.507   3.635 -1.6437 -0.3691 -0.1423
  468MOL0     H63169   1.816   2.341   3.577 -2.8942  0.5196  3.6540
  468MOL0     H63170   1.636   2.397   3.416  1.3515  0.3513 -0.6699
  468MOL0     H63171   1.625   2.567   3.474 -1.3862 -0.6545  1.0712
  468MOL0     H63172   1.564   2.494   3.698 -2.5268 -0.3574  0.3297
  468MOL0     H63173   1.602   2.324   3.646 -1.4292 -1.1676 -0.0167
  468MOL0     H63174   1.364   2.458   3.654 -0.2935 -0.7939  0.7889
  468MOL0     H63175   1.391   2.439   3.482  2.6480  0.7286 -0.5939
  468MOL0     H63176   1.240   2.060   3.572 -1.5486  0.6142  3.5147
  468MOL0     H63177   2.009   2.532   3.230  0.4696 -1.2920 -1.0097
  468MOL0     H63178   2.272   2.396   3.089  1.8653  0.5813 -2.3154
  468MOL0     H63179   2.179   2.547   3.084  2.2523 -0.2179 -5.1601
  468MOL0     H63180   2.340   2.564   3.130 -2.2129  1.2839 -2.2253
  469MOL0     O63181   2.689   5.800   6.538 -1.1698 -0.0277 -0.8447
  469MOL0     C63182   2.714   5.706   6.618 -0.6127 -1.4641 -0.1523
  469MOL0     O63183   2.827   5.627   6.615 -0.9319 -0.5812  0.0329
  469MOL0     C63184   2.942   5.680   6.568 -0.3907 -0.0087 -0.7665
  469MOL0     C63185   2.982   5.637   6.441 -0.0513 -0.0985  0.2652
  469MOL0     C63186   3.100   5.683   6.384 -0.4177 -0.0083 -0.1830
  469MOL0     C63187   3.170   5.793   6.453  0.6747 -0.2100 -0.0935
  469MOL0     O63188   3.284   5.864   6.403  0.2301  0.3399  0.6766
  469MOL0     C63189   3.344   5.828   6.285 -0.4891 -1.0157  0.5164
  469MOL0     C63190   3.487   5.870   6.283 -0.0454 -0.6712  0.1974
  469MOL0     C63191   3.544   5.812   6.408 -0.8001 -0.7248 -0.0822
  469MOL0     C63192   3.696   5.852   6.421  0.3488  0.3887  0.0729
  469MOL0     C63193   3.715   5.920   6.556 -0.4400  0.1913 -0.2753
  469MOL0     C63194   3.863   5.927   6.610 -0.0716 -0.3280  0.3374
  469MOL0     C63195   3.943   6.043   6.552 -0.0450 -0.2315  0.6234
  469MOL0     C63196   4.090   6.010   6.541  0.3576  0.0473  0.0785
  469MOL0     N63197   4.125   5.918   6.434  0.2866  0.1619  0.1285
  469MOL0     C63198   4.082   5.947   6.305  0.0029 -0.2226 -0.8639
  469MOL0     C63199   4.133   5.860   6.228 -0.8306 -0.9418  0.3630
  469MOL0     C63200   4.113   5.845   6.077 -0.2542 -0.6195  0.3243
  469MOL0     C63201   3.975   5.811   6.046 -0.6499 -0.1126  1.0838
  469MOL0     C63202   3.920   5.697   6.127 -1.7488  0.5034  0.0098
  469MOL0     C63203   4.005   5.568   6.117  0.1281  0.8526 -1.0648
  469MOL0     O63204   4.015   5.514   5.984  0.3216 -0.3880 -0.0691
  469MOL0     C63205   4.126   5.432   5.948  0.0577  0.5905 -0.5295
  469MOL0     C63206   4.260   5.461   5.997 -0.1555  0.2478  0.3886
  469MOL0     C63207   4.367   5.385   5.945  0.6325  0.1893 -0.1560
  469MOL0     C63208   4.342   5.279   5.851 -0.8965 -1.1012 -0.2410
  469MOL0     C63209   4.462   5.211   5.793  0.0694 -1.0545 -0.4642
  469MOL0     O63210   4.578   5.258   5.831 -0.6543  0.0979 -0.5115
  469MOL0     C63211   4.696   5.204   5.787  0.4348  0.0873  0.4988
  469MOL0     C63212   4.709   5.086   5.708 -0.1169 -0.6192 -0.1629
  469MOL0     C63213   4.828   5.038   5.670  1.0166 -0.3386 -0.9465
  469MOL0     C63214   4.949   5.099   5.710  0.7713 -1.1291 -0.2491
  469MOL0     O63215   5.068   5.050   5.665 -0.0143  0.4217  0.5739
  469MOL0     C63216   5.183   5.061   5.745 -0.2392 -0.1279  0.2312
  469MOL0     C63217   5.268   4.937   5.711  0.3547  0.3719  0.2863
  469MOL0     C63218   5.320   4.926   5.568  0.2518  0.3577  0.8454
  469MOL0     C63219   5.421   5.029   5.523 -0.5232  0.3718  0.0737
  469MOL0     C63220   5.551   5.028   5.606 -0.5686  0.4151 -0.6142
  469MOL0     C63221   5.662   5.087   5.531 -0.4424 -0.1895 -0.2130
  469MOL0     C63222   5.789   5.089   5.612 -0.2418 -0.3504 -0.4374
  469MOL0     C63223   5.916   5.121   5.539 -0.4433 -0.0718  0.4075
  469MOL0    Cl63224   5.945   5.008   5.404  0.2947  0.3021 -0.4195
  469MOL0     C63225   4.940   5.203   5.810  0.1726 -0.0756  0.6220
  469MOL0     C63226   4.817   5.261   5.840  0.3985  0.0714 -0.2178
  469MOL0     O63227   4.430   5.130   5.712 -0.6538  0.6504  0.3825
  469MOL0     C63228   4.211   5.255   5.807  0.2941 -0.2083 -0.0898
  469MOL0     C63229   4.112   5.335   5.850  0.8146 -0.5611 -0.4439
  469MOL0     N63230   4.232   5.786   6.300 -0.0281  0.0400  1.1476
  469MOL0     N63231   4.224   5.820   6.428 -0.6425  0.3391  0.7510
  469MOL0     C63232   3.122   5.837   6.575  0.0288  0.1398 -0.2988
  469MOL0     C63233   3.012   5.781   6.631 -0.2823 -0.0431 -0.9364
  469MOL0     C63234   2.612   5.667   6.724 -1.2729  0.3001 -0.4001
  469MOL0     C63235   2.479   5.715   6.708  0.0325 -0.2901 -0.2786
  469MOL0     C63236   2.381   5.677   6.795 -0.2400  0.3673  0.0882
  469MOL0     C63237   2.414   5.594   6.906 -0.0987 -0.0087  0.1878
  469MOL0     O63238   2.321   5.541   7.000  0.3693 -0.0202 -0.1398
  469MOL0     C63239   2.235   5.625   7.079 -0.0745  0.3417 -0.6793
  469MOL0     C63240   2.289   5.613   7.220  0.2146  1.0593  0.8671
  469MOL0     C63241   2.237   5.717   7.325  0.4076  0.0375  0.4911
  469MOL0     C63242   2.318   5.720   7.455  0.1155 -0.6348 -0.0148
  469MOL0     C63243   2.241   5.787   7.567  0.2939  0.5883  0.6235
  469MOL0     C63244   2.182   5.839   7.656 -0.0286  0.2575  0.0578
  469MOL0     C63245   2.541   5.549   6.922  0.6635  0.3613 -0.1003
  469MOL0     C63246   2.646   5.582   6.839  0.5756 -0.1803  1.1045
  469MOL0     C63247   2.782   5.509   6.861 -0.2230 -0.2995 -0.1322
  469MOL0     H63248   2.929   5.566   6.378  2.5034 -0.6072 -1.4453
  469MOL0     H63249   3.146   5.650   6.291  2.2800  0.2865  0.9616
  469MOL0     H63250   3.340   5.720   6.264 -4.2425 -0.5833 -2.1993
  469MOL0     H63251   3.289   5.874   6.202 -1.3701 -2.5259  0.2159
  469MOL0     H63252   3.497   5.979   6.282 -1.5061 -0.5174 -1.2924
  469MOL0     H63253   3.533   5.813   6.202 -0.8401 -1.7128  0.4557
  469MOL0     H63254   3.524   5.705   6.397  1.6309 -1.0661 -2.1644
  469MOL0     H63255   3.501   5.857   6.498  0.8793  0.2430  0.2870
  469MOL0     H63256   3.755   5.760   6.421  0.6714  0.5940  0.3790
  469MOL0     H63257   3.728   5.913   6.336 -2.6271  1.6235 -0.2804
  469MOL0     H63258   3.654   6.011   6.555  0.2579  0.7173 -2.8006
  469MOL0     H63259   3.675   5.848   6.628  0.3672 -1.3274 -1.2896
  469MOL0     H63260   3.859   5.940   6.718 -0.5546 -0.8969  0.3995
  469MOL0     H63261   3.916   5.831   6.606  0.4196 -0.1110  1.5953
  469MOL0     H63262   3.932   6.134   6.612 -2.8723 -1.4657  2.1894
  469MOL0     H63263   3.916   6.074   6.450  0.3690 -1.2591  0.1830
  469MOL0     H63264   4.143   6.105   6.531 -0.3484  0.5081  0.6254
  469MOL0     H63265   4.126   5.967   6.636  1.3385 -1.0152 -0.7418
  469MOL0     H63266   4.014   6.029   6.282  1.9370  2.0075  0.9046
  469MOL0     H63267   4.149   5.938   6.031  1.0235 -0.1913  2.0506
  469MOL0     H63268   4.186   5.775   6.035  4.6371  3.3180  1.1989
  469MOL0     H63269   3.909   5.898   6.053  0.4550  1.1025 -1.9122
  469MOL0     H63270   3.982   5.771   5.944 -0.2123 -0.9039  1.4164
  469MOL0     H63271   3.821   5.684   6.083 -0.6423  0.7994 -2.7499
  469MOL0     H63272   3.910   5.723   6.233  0.7081 -1.1515  0.7313
  469MOL0     H63273   3.948   5.491   6.170 -0.5392  2.4043  0.5970
  469MOL0     H63274   4.103   5.572   6.165 -0.0033 -0.5356 -0.6364
  469MOL0     H63275   4.279   5.531   6.078  1.7849  0.0875  0.1234
  469MOL0     H63276   4.467   5.403   5.981  1.7148 -1.8240 -1.9531
  469MOL0     H63277   4.626   5.031   5.666  0.3704 -1.1683 -0.4214
  469MOL0     H63278   4.843   4.944   5.618  0.7376 -0.9120 -0.0133
  469MOL0     H63279   5.231   5.155   5.716  1.5134 -1.1034 -0.1943
  469MOL0     H63280   5.160   5.067   5.852  1.4798  0.0806  0.6116
  469MOL0     H63281   5.352   4.945   5.780 -1.8302  0.2458  3.1815
  469MOL0     H63282   5.220   4.841   5.734  0.4326  0.7742  2.3525
  469MOL0     H63283   5.350   4.822   5.550 -2.7133 -0.6622  1.1697
  469MOL0     H63284   5.231   4.938   5.505  0.9844  1.8075  0.0410
  469MOL0     H63285   5.382   5.131   5.522 -1.2643  0.1166 -1.8437
  469MOL0     H63286   5.434   4.991   5.421  0.1925 -0.5387  0.4870
  469MOL0     H63287   5.575   4.927   5.642 -1.1353 -0.4878 -2.6442
  469MOL0     H63288   5.539   5.099   5.688  0.9754  0.3781 -0.3243
  469MOL0     H63289   5.680   5.023   5.444  1.9382  2.0244 -1.4787
  469MOL0     H63290   5.647   5.192   5.505  3.8560  1.0586  1.4546
  469MOL0     H63291   5.800   4.987   5.651 -0.0915 -0.7680 -1.5469
  469MOL0     H63292   5.783   5.157   5.698  3.3719  0.5290 -0.6988
  469MOL0     H63293   5.914   5.226   5.505  3.0028  0.7912  2.4297
  469MOL0     H63294   5.996   5.114   5.613 -0.1241  0.8362  0.1696
  469MOL0     H63295   5.028   5.253   5.849  0.4396 -0.8967  1.0940
  469MOL0     H63296   4.806   5.347   5.904 -3.2139 -0.2445 -0.2467
  469MOL0     H63297   4.191   5.185   5.727  2.0866  0.4373 -1.1640
  469MOL0     H63298   4.022   5.338   5.791  1.4862 -0.0456 -1.4696
  469MOL0     H63299   3.179   5.911   6.631 -0.1405 -0.0591  0.1357
  469MOL0     H63300   2.987   5.825   6.727 -0.5423  1.8399 -1.8306
  469MOL0     H63301   2.462   5.765   6.613 -0.7578  1.0095  0.5196
  469MOL0     H63302   2.275   5.697   6.786 -0.1794  1.6586  1.8004
  469MOL0     H63303   2.128   5.611   7.062  0.2151  1.3145 -4.0197
  469MOL0     H63304   2.253   5.731   7.058  0.6507  0.5055  0.6429
  469MOL0     H63305   2.397   5.625   7.210  0.2588 -0.5669 -1.3298
  469MOL0     H63306   2.269   5.511   7.255  2.7179  0.4267  0.5879
  469MOL0     H63307   2.132   5.692   7.336  0.2564 -0.4760 -1.6048
  469MOL0     H63308   2.235   5.819   7.283 -6.7888 -1.4404 -4.6132
  469MOL0     H63309   2.341   5.615   7.479 -2.0508 -0.7675  1.8249
  469MOL0     H63310   2.412   5.774   7.442  0.2376  0.0136  2.9135
  469MOL0     H63311   2.112   5.882   7.726  0.8969  2.5960 -0.3386
  469MOL0     H63312   2.555   5.473   6.998  0.0169  0.5530  0.2164
  469MOL0     H63313   2.865   5.581   6.863  0.9952 -1.5134  3.9763
  469MOL0     H63314   2.787   5.482   6.967  2.4701  1.2792  0.2370
  469MOL0     H63315   2.804   5.431   6.789 -1.7576 -0.8587 -0.0157
  470MOL0     O63316   3.871  11.090   4.855 -0.4671  0.2695 -0.2682
  470MOL0     C63317   3.802  11.005   4.922 -0.6854  0.6304  0.5148
  470MOL0     O63318   3.852  10.888   4.947  0.3568  0.7054 -0.5512
  470MOL0     C63319   3.972  10.846   4.903  0.7248  0.7034 -0.4582
  470MOL0     C63320   4.084  10.855   4.980 -0.5797 -0.2160  0.3001
  470MOL0     C63321   4.214  10.831   4.938  0.6996 -0.4688  0.1680
  470MOL0     C63322   4.236  10.797   4.805 -0.5839  0.1432 -0.6862
  470MOL0     O63323   4.369  10.774   4.762 -0.4956 -0.3813  0.8778
  470MOL0     C63324   4.464  10.879   4.804  0.3262 -0.6829  0.1946
  470MOL0     C63325   4.593  10.818   4.865 -0.0771  0.5712 -0.3370
  470MOL0     C63326   4.685  10.921   4.924 -0.1563  0.5740 -0.4747
  470MOL0     C63327   4.796  10.854   5.009  0.0838  0.2081 -0.1062
  470MOL0     C63328   4.861  10.733   4.940 -0.2203  0.6691  0.2716
  470MOL0     C63329   5.013  10.719   4.952  1.2353  0.5699  0.4416
  470MOL0     C63330   5.070  10.776   5.076 -0.6123  0.2785 -1.0971
  470MOL0     C63331   5.219  10.728   5.102 -0.0127  0.2356 -0.5312
  470MOL0     N63332   5.307  10.801   5.009  0.9690 -0.2219 -0.1866
  470MOL0     C63333   5.388  10.902   5.043 -0.2720 -0.9522 -0.5622
  470MOL0     C63334   5.460  10.926   4.933 -1.1596 -0.0829 -0.3375
  470MOL0     C63335   5.576  11.030   4.936  0.1754  0.2107 -0.7835
  470MOL0     C63336   5.720  10.959   4.942  0.0093 -0.4451 -1.0326
  470MOL0     C63337   5.742  10.880   5.070  0.3964  0.0209 -1.1116
  470MOL0     C63338   5.885  10.878   5.099  0.0299 -0.7542 -0.0242
  470MOL0     O63339   5.912  10.796   5.219 -0.6470 -0.7914 -0.3722
  470MOL0     C63340   6.028  10.814   5.284 -0.7477  0.4590  0.0581
  470MOL0     C63341   6.041  10.770   5.418  0.3229  0.4137  1.2080
  470MOL0     C63342   6.156  10.779   5.497  0.5790 -0.2029  0.9567
  470MOL0     C63343   6.275  10.818   5.431  0.2055 -0.0367  0.3063
  470MOL0     C63344   6.405  10.804   5.506 -0.0753  0.9715  0.2669
  470MOL0     O63345   6.395  10.759   5.638  0.3700 -0.3942  0.4660
  470MOL0     C63346   6.499  10.708   5.714 -0.5446 -0.5328  0.5874
  470MOL0     C63347   6.586  10.613   5.662  0.0377 -0.2161 -0.2181
  470MOL0     C63348   6.680  10.560   5.753  0.1888 -0.4474  1.5368
  470MOL0     C63349   6.687  10.597   5.889 -0.3541  1.5932 -0.1491
  470MOL0     O63350   6.780  10.547   5.978 -0.6612 -1.0195  0.2266
  470MOL0     C63351   6.858  10.435   5.937 -0.9949  0.7717 -0.6032
  470MOL0     C63352   6.975  10.389   6.038  0.4696  0.7634  0.6462
  470MOL0     C63353   6.897  10.331   6.159  0.0003  0.6478  0.0713
  470MOL0     C63354   6.979  10.271   6.264 -1.0273 -0.0539  0.3015
  470MOL0     C63355   6.917  10.189   6.383  0.4078 -0.3566  0.0697
  470MOL0     C63356   6.865  10.049   6.351  0.0795 -0.0735 -0.0162
  470MOL0     C63357   6.959   9.971   6.253 -0.2524 -0.2397 -0.0875
  470MOL0     C63358   6.933   9.823   6.224  0.5948 -0.8326 -0.0227
  470MOL0    Cl63359   6.761   9.788   6.191 -0.3524  0.0647 -0.0137
  470MOL0     C63360   6.595  10.688   5.935  0.4004 -0.1666 -0.3289
  470MOL0     C63361   6.499  10.743   5.850  0.2040  0.0620  0.5682
  470MOL0     O63362   6.512  10.833   5.451  0.3288  0.3093  0.1088
  470MOL0     C63363   6.267  10.872   5.295 -0.4788 -0.1382  0.0528
  470MOL0     C63364   6.146  10.865   5.224  0.9744  0.4678 -1.0334
  470MOL0     N63365   5.431  10.842   4.833 -0.0170 -0.0669 -0.1493
  470MOL0     N63366   5.334  10.767   4.878 -0.5632  0.6309 -0.0312
  470MOL0     C63367   4.124  10.798   4.717  0.1603 -0.4871  0.4450
  470MOL0     C63368   3.999  10.829   4.767 -0.2874 -0.3140  0.1292
  470MOL0     C63369   3.667  11.019   4.965  0.1998  0.5735  0.1598
  470MOL0     C63370   3.614  10.929   5.059  1.4631  0.4518  0.4135
  470MOL0     C63371   3.479  10.928   5.105 -0.3286  0.3434 -1.1379
  470MOL0     C63372   3.399  11.028   5.046  0.6845 -0.2564  1.1980
  470MOL0     O63373   3.263  11.050   5.066  0.2012 -0.4145 -0.5004
  470MOL0     C63374   3.197  10.962   5.156 -0.3267 -0.0840  0.2173
  470MOL0     C63375   3.048  10.980   5.155 -0.0461  0.7605  0.0204
  470MOL0     C63376   3.010  10.908   5.024 -0.5034  0.3360 -0.0434
  470MOL0     C63377   2.861  10.935   4.989  0.8262  0.9527 -0.2589
  470MOL0     C63378   2.828  11.075   4.984 -0.1531 -0.3201 -0.8828
  470MOL0     C63379   2.808  11.196   4.976 -0.4682  0.6612  1.0261
  470MOL0     C63380   3.443  11.113   4.956  0.1534  0.3424 -0.0511
  470MOL0     C63381   3.571  11.112   4.912 -1.1507 -0.8686  0.3574
  470MOL0     C63382   3.594  11.189   4.783  0.0541 -0.2172 -1.0091
  470MOL0     H63383   4.077  10.885   5.084 -1.4460 -0.9232  0.4502
  470MOL0     H63384   4.302  10.846   5.001  0.9476 -1.7858  0.1658
  470MOL0     H63385   4.495  10.942   4.721 -0.8011 -1.3730 -0.7712
  470MOL0     H63386   4.427  10.954   4.875  0.4381  0.2618 -0.7335
  470MOL0     H63387   4.635  10.747   4.794  3.5723  3.0369 -0.9236
  470MOL0     H63388   4.545  10.759   4.944 -1.9700  0.9111 -1.1655
  470MOL0     H63389   4.626  10.992   4.983  0.8955 -0.3815  1.8383
  470MOL0     H63390   4.746  10.961   4.843 -0.4627 -2.9610 -2.6374
  470MOL0     H63391   4.868  10.936   5.012 -0.4930  0.7298 -0.1806
  470MOL0     H63392   4.768  10.833   5.112  1.1776 -0.9457 -0.0297
  470MOL0     H63393   4.821  10.634   4.965  1.8219 -0.3248 -0.1601
  470MOL0     H63394   4.858  10.738   4.831 -2.2528 -0.4861  0.2135
  470MOL0     H63395   5.040  10.614   4.963  1.3091  0.6634  1.1729
  470MOL0     H63396   5.066  10.757   4.864  0.6639 -3.1894 -1.7491
  470MOL0     H63397   5.007  10.746   5.160 -0.5553 -2.1483 -1.8343
  470MOL0     H63398   5.067  10.885   5.077  3.2737  0.5455  0.6730
  470MOL0     H63399   5.247  10.751   5.205 -5.4081  0.9307  1.0440
  470MOL0     H63400   5.231  10.619   5.093 -2.5297 -0.3895  2.2797
  470MOL0     H63401   5.391  10.949   5.141 -0.4154  1.2034 -1.5306
  470MOL0     H63402   5.568  11.091   4.845  1.7785  1.2744 -0.2650
  470MOL0     H63403   5.560  11.099   5.020 -3.1186 -1.3737  0.0464
  470MOL0     H63404   5.722  10.899   4.850  1.0660  0.5881 -1.7129
  470MOL0     H63405   5.788  11.044   4.930  1.4655 -1.6637 -1.8557
  470MOL0     H63406   5.719  10.776   5.047 -0.8437  0.4433 -1.8921
  470MOL0     H63407   5.692  10.911   5.162 -0.1791 -0.7016 -1.1745
  470MOL0     H63408   5.914  10.983   5.112 -4.1187  0.3642  1.8527
  470MOL0     H63409   5.933  10.834   5.011 -1.3531  2.0842 -2.3657
  470MOL0     H63410   5.945  10.745   5.461 -0.2457  1.9653  0.9129
  470MOL0     H63411   6.154  10.732   5.594 -1.7117  0.8635  1.4918
  470MOL0     H63412   6.593  10.583   5.558  0.9957 -1.7509  0.2520
  470MOL0     H63413   6.759  10.495   5.716  0.3210  0.8572 -0.6390
  470MOL0     H63414   6.799  10.347   5.910  0.9114 -0.5902 -0.5251
  470MOL0     H63415   6.916  10.469   5.850  0.8099  0.2875  0.3702
  470MOL0     H63416   7.044  10.315   5.998 -1.6890 -1.0466  0.1068
  470MOL0     H63417   7.032  10.479   6.065  0.9291  0.9427 -0.8586
  470MOL0     H63418   6.836  10.406   6.210 -1.4309 -0.3349 -0.1374
  470MOL0     H63419   6.837  10.253   6.111  1.1751 -0.7416  0.7735
  470MOL0     H63420   7.037  10.349   6.314  0.4024  0.1003 -1.5089
  470MOL0     H63421   7.064  10.210   6.231  0.0815  1.6972 -0.2287
  470MOL0     H63422   6.837  10.254   6.421  0.7451  1.0988 -1.5857
  470MOL0     H63423   6.993  10.176   6.460 -1.2710 -2.9629  1.4400
  470MOL0     H63424   6.834   9.987   6.435  0.9452 -0.5554 -0.0354
  470MOL0     H63425   6.772  10.055   6.293 -1.3489  2.2030  2.3385
  470MOL0     H63426   7.062   9.967   6.291 -1.5289  0.4109  3.9014
  470MOL0     H63427   6.956  10.010   6.151 -2.6099 -0.8907 -0.3175
  470MOL0     H63428   6.994   9.798   6.137  0.7187 -1.4541  0.2386
  470MOL0     H63429   6.966   9.755   6.303 -0.7001 -0.9111  0.4850
  470MOL0     H63430   6.597  10.710   6.041 -2.9572 -0.0406 -0.1865
  470MOL0     H63431   6.420  10.811   5.881 -1.8408 -2.3026  0.8268
  470MOL0     H63432   6.353  10.921   5.251 -0.8499  0.2227 -0.2771
  470MOL0     H63433   6.139  10.902   5.122  1.2817  1.0928 -0.8313
  470MOL0     H63434   4.140  10.754   4.619  0.3905  1.5529 -0.4822
  470MOL0     H63435   3.911  10.833   4.705  0.9956 -1.6961 -1.9222
  470MOL0     H63436   3.673  10.854   5.109  0.5933  0.6567  1.7972
  470MOL0     H63437   3.454  10.849   5.175  0.9813  0.3488 -0.6412
  470MOL0     H63438   3.230  10.973   5.260 -0.7253 -0.6275  0.4040
  470MOL0     H63439   3.230  10.863   5.123 -0.2928 -0.1918  0.5651
  470MOL0     H63440   3.013  11.083   5.166 -2.8442 -0.2430  1.5061
  470MOL0     H63441   2.995  10.934   5.239  0.8952  0.7705  0.6465
  470MOL0     H63442   3.037  10.802   5.033 -0.7365  0.0698 -2.0360
  470MOL0     H63443   3.066  10.939   4.935  3.9845 -2.4158  1.4581
  470MOL0     H63444   2.862  10.888   4.890  1.9142 -0.5507  0.4250
  470MOL0     H63445   2.796  10.881   5.058 -0.4752  2.4844 -0.2424
  470MOL0     H63446   2.780  11.299   4.973 -0.2634  0.6912 -0.8103
  470MOL0     H63447   3.368  11.184   4.921 -0.6784 -1.2790 -1.7526
  470MOL0     H63448   3.506  11.208   4.720  0.0839  1.0058 -0.7027
  470MOL0     H63449   3.642  11.286   4.794 -0.7194  0.0169  0.5825
  470MOL0     H63450   3.658  11.132   4.715 -0.7732 -0.2167 -1.8070
  471MOL0     O63451   2.791   8.484   8.473  0.3155 -0.0608  0.5213
  471MOL0     C63452   2.779   8.385   8.548  0.6418 -0.1969  0.0715
  471MOL0     O63453   2.846   8.272   8.543 -0.4389  0.8037  0.1879
  471MOL0     C63454   2.920   8.236   8.432 -0.4980 -0.4745 -0.1370
  471MOL0     C63455   2.855   8.187   8.322 -0.0873  0.4618  0.3862
  471MOL0     C63456   2.925   8.150   8.210 -0.4075 -0.0487  0.3455
  471MOL0     C63457   3.066   8.184   8.201 -0.4361 -0.1816  0.0366
  471MOL0     O63458   3.127   8.159   8.076  0.4376  0.2802 -0.7365
  471MOL0     C63459   3.264   8.144   8.075 -0.8786 -0.7604 -0.2591
  471MOL0     C63460   3.305   8.123   7.929  0.5691  0.5737  0.5836
  471MOL0     C63461   3.453   8.092   7.934  0.2342  0.5707  0.2576
  471MOL0     C63462   3.531   8.079   7.796  0.0762  0.7161  0.8272
  471MOL0     C63463   3.674   8.032   7.800 -0.9222  0.3896 -0.5571
  471MOL0     C63464   3.781   8.116   7.879 -0.3869 -0.2320 -0.4748
  471MOL0     C63465   3.922   8.054   7.861 -0.6091 -0.2804 -0.4593
  471MOL0     C63466   4.021   8.105   7.967  0.1524  0.2220 -0.2725
  471MOL0     N63467   4.153   8.057   7.943  0.1276 -0.0614 -0.3908
  471MOL0     C63468   4.257   8.117   7.864  0.5811  0.1823 -1.1811
  471MOL0     C63469   4.373   8.040   7.893  0.6334  0.8054 -0.7483
  471MOL0     C63470   4.496   8.076   7.816 -0.8830 -0.1875 -0.0604
  471MOL0     C63471   4.610   7.970   7.824  1.4938 -0.7366 -0.3451
  471MOL0     C63472   4.722   8.006   7.725 -0.9420 -0.0707 -0.3668
  471MOL0     C63473   4.838   7.908   7.737  0.3989  0.3437  0.3630
  471MOL0     O63474   4.937   7.964   7.647 -0.4181  0.5142  0.4097
  471MOL0     C63475   5.061   7.996   7.690 -0.2770  0.8579  0.2021
  471MOL0     C63476   5.135   7.915   7.789  0.2185 -0.2160  0.6097
  471MOL0     C63477   5.257   7.957   7.840  0.1172  0.1487  0.5640
  471MOL0     C63478   5.318   8.079   7.793  0.6128 -1.4046 -0.1103
  471MOL0     C63479   5.440   8.142   7.856  0.6477 -0.2790  0.4997
  471MOL0     O63480   5.472   8.264   7.820 -0.0398 -0.3479 -0.6935
  471MOL0     C63481   5.579   8.341   7.868  0.3633 -0.9141 -0.0781
  471MOL0     C63482   5.590   8.376   8.008 -0.6369  0.2992  0.1823
  471MOL0     C63483   5.684   8.481   8.047  0.8663  1.2365 -0.3819
  471MOL0     C63484   5.766   8.533   7.950 -1.0535  0.1570 -0.1463
  471MOL0     O63485   5.867   8.626   7.963  0.6939 -0.0811 -0.2849
  471MOL0     C63486   5.888   8.674   8.096 -0.9246  0.3711  0.9548
  471MOL0     C63487   6.002   8.770   8.102 -0.8617  0.2640  0.3304
  471MOL0     C63488   6.137   8.695   8.096  0.0203  1.5255  0.7395
  471MOL0     C63489   6.258   8.793   8.106 -0.3810  0.5959 -0.7320
  471MOL0     C63490   6.287   8.835   8.253  0.8941 -0.6952 -0.1193
  471MOL0     C63491   6.411   8.925   8.252  0.0470  1.1268 -0.6763
  471MOL0     C63492   6.473   8.972   8.386  0.4997  0.3309 -0.2956
  471MOL0     C63493   6.363   9.012   8.483 -0.1782 -0.0443  0.8002
  471MOL0    Cl63494   6.287   9.170   8.450 -0.2650 -0.0957  0.0617
  471MOL0     C63495   5.758   8.502   7.822  0.4847  1.3647 -0.1667
  471MOL0     C63496   5.674   8.404   7.781  0.2195 -1.3126 -0.0118
  471MOL0     O63497   5.510   8.065   7.915  0.1199  0.4243 -0.1357
  471MOL0     C63498   5.250   8.146   7.702  0.7986  0.3469  1.2870
  471MOL0     C63499   5.120   8.111   7.653 -0.2664 -0.1148 -1.6214
  471MOL0     N63500   4.334   7.940   7.987 -0.4901 -0.4710 -0.5123
  471MOL0     N63501   4.208   7.950   8.009 -0.9048  0.8389  0.3654
  471MOL0     C63502   3.133   8.244   8.315 -0.9766  0.2967 -0.2923
  471MOL0     C63503   3.058   8.270   8.434 -0.9038  0.0313 -0.3462
  471MOL0     C63504   2.664   8.391   8.638  0.4836  0.4250  0.0034
  471MOL0     C63505   2.682   8.374   8.782 -0.3146 -0.6293 -0.1367
  471MOL0     C63506   2.582   8.368   8.874  0.7481 -0.4526 -0.9021
  471MOL0     C63507   2.450   8.390   8.837  0.4496  0.4914 -0.2111
  471MOL0     O63508   2.359   8.390   8.938  0.1285 -0.2506  0.7244
  471MOL0     C63509   2.222   8.402   8.905  0.4875  0.3636  0.2171
  471MOL0     C63510   2.123   8.378   9.019 -1.6686  0.1143 -0.2532
  471MOL0     C63511   2.151   8.258   9.117  0.6529 -0.5088 -0.5871
  471MOL0     C63512   2.024   8.221   9.201  0.1872 -0.1970 -0.5893
  471MOL0     C63513   2.047   8.090   9.254  0.1126 -0.3256 -0.7595
  471MOL0     C63514   2.052   7.971   9.285  0.0514  0.4045  0.4329
  471MOL0     C63515   2.425   8.405   8.695  0.7917  0.2739  1.0034
  471MOL0     C63516   2.525   8.405   8.605  0.2232 -0.9863  0.5269
  471MOL0     C63517   2.489   8.420   8.454  0.3729  0.2657  0.7910
  471MOL0     H63518   2.751   8.158   8.329 -0.9418  2.6701 -1.6803
  471MOL0     H63519   2.881   8.101   8.124  3.3734 -2.0624 -0.6645
  471MOL0     H63520   3.312   8.237   8.108 -0.9964 -0.2426 -1.4809
  471MOL0     H63521   3.292   8.059   8.138 -0.7906 -1.2645 -0.9669
  471MOL0     H63522   3.272   8.206   7.865 -2.0764 -1.1235 -0.4209
  471MOL0     H63523   3.250   8.041   7.881 -2.9231  2.8249  0.3620
  471MOL0     H63524   3.456   7.993   7.981 -1.9696 -0.0338 -0.6989
  471MOL0     H63525   3.501   8.169   7.994 -0.3030  0.9700  0.1834
  471MOL0     H63526   3.471   8.015   7.731  1.5347 -1.2716  1.3318
  471MOL0     H63527   3.539   8.169   7.735 -0.1291 -0.5599 -1.1823
  471MOL0     H63528   3.678   7.927   7.829  1.7224  0.7681  0.7550
  471MOL0     H63529   3.706   8.031   7.696  0.5003 -2.6677 -0.1888
  471MOL0     H63530   3.782   8.222   7.854 -1.1335 -0.2495 -0.6123
  471MOL0     H63531   3.756   8.107   7.985 -3.5374 -1.4659 -1.2004
  471MOL0     H63532   3.956   8.063   7.758 -1.9475 -1.8033 -1.0646
  471MOL0     H63533   3.912   7.946   7.876  1.9282 -0.4470  0.7153
  471MOL0     H63534   4.029   8.213   7.951 -1.7353  0.5213  0.5338
  471MOL0     H63535   3.978   8.081   8.065 -2.5379 -0.4182 -1.5023
  471MOL0     H63536   4.265   8.209   7.808  3.0210  0.2822 -0.7534
  471MOL0     H63537   4.473   8.089   7.710 -1.5876  1.1693  0.2416
  471MOL0     H63538   4.541   8.170   7.848  0.8573 -0.1493 -2.3970
  471MOL0     H63539   4.656   7.965   7.924  0.5137  0.9696  0.2389
  471MOL0     H63540   4.572   7.869   7.808 -3.0754  0.7570 -0.3385
  471MOL0     H63541   4.755   8.109   7.741 -3.4406  0.9253 -1.1295
  471MOL0     H63542   4.695   7.990   7.620  1.6708  0.2520 -1.1493
  471MOL0     H63543   4.807   7.813   7.692 -2.8384  1.1049  0.7926
  471MOL0     H63544   4.875   7.894   7.839  4.0395 -0.7947 -0.9269
  471MOL0     H63545   5.098   7.822   7.832  1.1622 -0.4543  0.9105
  471MOL0     H63546   5.303   7.903   7.922  2.3188  1.3864  0.2354
  471MOL0     H63547   5.522   8.351   8.088  0.8081  2.6296  2.2840
  471MOL0     H63548   5.681   8.510   8.151  0.7662  0.0911 -0.0536
  471MOL0     H63549   5.802   8.729   8.137 -1.3840 -0.7319  1.5185
  471MOL0     H63550   5.897   8.589   8.164 -2.9893 -0.2186  0.5673
  471MOL0     H63551   5.996   8.843   8.020  0.9191 -0.2216 -0.2841
  471MOL0     H63552   6.000   8.820   8.199  1.4176 -1.0685  1.1165
  471MOL0     H63553   6.144   8.627   8.181  1.4257  0.8413  0.1150
  471MOL0     H63554   6.150   8.654   7.995  0.1955  1.8178  0.6448
  471MOL0     H63555   6.250   8.885   8.047  1.4621  0.6496 -0.9310
  471MOL0     H63556   6.347   8.744   8.067  1.3165  1.4984  1.7122
  471MOL0     H63557   6.306   8.750   8.320 -2.9636 -1.2207  0.5656
  471MOL0     H63558   6.201   8.896   8.282  2.8782  3.0940 -1.5310
  471MOL0     H63559   6.495   8.870   8.209 -0.7139 -1.3080  0.7456
  471MOL0     H63560   6.391   9.012   8.189  0.9606  2.3554  0.6705
  471MOL0     H63561   6.537   9.059   8.367 -0.3012  0.7288 -1.2071
  471MOL0     H63562   6.534   8.900   8.442  1.0253  1.2172  0.3036
  471MOL0     H63563   6.287   8.933   8.483 -2.0178  1.6705  1.2357
  471MOL0     H63564   6.406   9.015   8.583  1.0369 -1.1337  0.3528
  471MOL0     H63565   5.818   8.544   7.741 -3.9092  1.4604 -3.8072
  471MOL0     H63566   5.669   8.390   7.673  1.4261 -0.8722 -0.1454
  471MOL0     H63567   5.282   8.247   7.679 -4.5325  2.1743  0.3032
  471MOL0     H63568   5.068   8.183   7.591 -2.6405 -0.6328 -0.3567
  471MOL0     H63569   3.241   8.251   8.316 -0.7060 -1.9612  3.4461
  471MOL0     H63570   3.100   8.304   8.528 -2.5799 -0.4065  0.6164
  471MOL0     H63571   2.782   8.363   8.824 -1.2773 -2.3221  1.8901
  471MOL0     H63572   2.595   8.371   8.982  2.2357  1.2432 -1.0843
  471MOL0     H63573   2.208   8.319   8.835 -0.6761  1.2916 -0.6900
  471MOL0     H63574   2.201   8.494   8.851  1.3479 -1.7027 -4.1044
  471MOL0     H63575   2.022   8.368   8.977 -1.5628  1.1414 -0.7877
  471MOL0     H63576   2.127   8.464   9.086 -1.0481 -1.3537  1.6898
  471MOL0     H63577   2.242   8.262   9.177  1.1364 -4.2785 -0.8452
  471MOL0     H63578   2.184   8.175   9.055  1.7109 -2.2320  2.1003
  471MOL0     H63579   2.005   8.285   9.288  2.0994  0.3426 -0.5171
  471MOL0     H63580   1.931   8.224   9.144 -0.0702  2.1033 -0.1193
  471MOL0     H63581   2.065   7.867   9.306 -1.3752  0.5650  2.4024
  471MOL0     H63582   2.322   8.397   8.661  1.8190 -0.4661 -2.3642
  471MOL0     H63583   2.484   8.526   8.427 -0.7522  0.4517  1.6174
  471MOL0     H63584   2.557   8.361   8.393 -0.2531 -0.8644  1.1660
  471MOL0     H63585   2.387   8.381   8.441  1.5880 -3.0221  0.1532
  472MOL0     O63586   3.182   7.683   7.527 -0.2323  0.2088  0.7298
  472MOL0     C63587   3.165   7.676   7.404 -1.1160  0.5008 -0.1127
  472MOL0     O63588   3.266   7.700   7.308  0.0673 -0.0923 -0.8321
  472MOL0     C63589   3.389   7.755   7.336  0.2481  0.1536 -0.0780
  472MOL0     C63590   3.451   7.788   7.467 -0.1533  0.2833  0.6772
  472MOL0     C63591   3.569   7.859   7.471  0.5195 -0.3530 -0.1301
  472MOL0     C63592   3.627   7.908   7.354  0.2594 -0.1969 -0.0035
  472MOL0     O63593   3.747   7.979   7.372  0.2521 -0.0137 -0.1571
  472MOL0     C63594   3.841   7.962   7.257 -0.1085  0.1956 -1.1278
  472MOL0     C63595   3.983   8.006   7.281 -0.4619  0.9125 -0.8205
  472MOL0     C63596   4.071   7.909   7.356 -0.0262  0.8079  0.1452
  472MOL0     C63597   4.039   7.881   7.504  0.9179  1.0356  0.0459
  472MOL0     C63598   4.120   7.755   7.559  0.3540 -0.4284 -0.8686
  472MOL0     C63599   4.100   7.745   7.712 -0.4732 -0.2659 -0.3755
  472MOL0     C63600   4.202   7.643   7.758 -0.3767 -1.3320 -0.4018
  472MOL0     C63601   4.193   7.610   7.905  0.1970 -0.4350 -0.7938
  472MOL0     N63602   4.054   7.592   7.949  0.5620 -0.4449 -1.0628
  472MOL0     C63603   3.982   7.677   8.025 -0.2809  0.1153  0.5415
  472MOL0     C63604   3.882   7.594   8.063 -0.6231  0.3311 -0.3244
  472MOL0     C63605   3.789   7.652   8.169  0.1871 -0.4317 -0.1463
  472MOL0     C63606   3.701   7.537   8.227  0.7489  0.1101 -0.3145
  472MOL0     C63607   3.611   7.587   8.342  0.1213 -0.0480  0.3885
  472MOL0     C63608   3.495   7.479   8.351 -0.0809 -0.0703 -0.9626
  472MOL0     O63609   3.400   7.522   8.446 -0.5611  0.0535  0.3003
  472MOL0     C63610   3.271   7.471   8.446 -0.2853  1.1641 -0.8137
  472MOL0     C63611   3.202   7.412   8.343  0.1062 -1.0743  0.5557
  472MOL0     C63612   3.062   7.389   8.338 -0.0465  0.3602  0.2091
  472MOL0     C63613   2.992   7.415   8.463  1.0123  0.4633  0.4956
  472MOL0     C63614   2.846   7.394   8.456  0.8456  0.5910 -0.6459
  472MOL0     O63615   2.799   7.316   8.358  0.2042  0.4929 -0.6843
  472MOL0     C63616   2.672   7.264   8.362  1.0128 -0.3900 -0.0491
  472MOL0     C63617   2.557   7.339   8.399  0.4287 -0.4591  0.0908
  472MOL0     C63618   2.423   7.287   8.398 -0.0884  0.2394  0.3849
  472MOL0     C63619   2.401   7.155   8.357 -0.9518 -0.2190 -0.2193
  472MOL0     O63620   2.281   7.080   8.359 -0.2163 -0.3171  0.0235
  472MOL0     C63621   2.161   7.158   8.382 -0.5118 -0.4205  0.6622
  472MOL0     C63622   2.044   7.082   8.317  0.3168  0.4318 -0.6856
  472MOL0     C63623   1.935   7.189   8.295 -0.0090  1.2152 -1.2315
  472MOL0     C63624   1.804   7.117   8.252 -0.9262  0.1284 -1.1262
  472MOL0     C63625   1.682   7.208   8.243 -0.1278  0.4885  0.4481
  472MOL0     C63626   1.666   7.304   8.122 -0.2169 -0.0432 -1.2660
  472MOL0     C63627   1.517   7.359   8.139  0.8054  0.0486  0.7316
  472MOL0     C63628   1.478   7.471   8.033 -0.5956  0.0413  0.9813
  472MOL0    Cl63629   1.301   7.488   8.035  0.4178 -0.3236  0.5390
  472MOL0     C63630   2.518   7.075   8.325  0.6973 -0.0899  0.2994
  472MOL0     C63631   2.642   7.129   8.326  0.6349 -0.0698 -0.1780
  472MOL0     O63632   2.772   7.449   8.546 -0.1940 -0.5985 -0.6753
  472MOL0     C63633   3.056   7.471   8.570 -0.4900  0.0202 -0.0552
  472MOL0     C63634   3.198   7.499   8.561 -0.4338 -0.4161  0.3153
  472MOL0     N63635   3.887   7.475   8.005 -0.0784  0.1727  0.0185
  472MOL0     N63636   3.984   7.482   7.931 -0.1066 -1.2038  0.5415
  472MOL0     C63637   3.567   7.876   7.229  0.1895 -0.4535 -0.1625
  472MOL0     C63638   3.446   7.803   7.222 -0.2102 -0.0056  0.7396
  472MOL0     C63639   3.032   7.620   7.360 -0.2353 -0.0561 -0.0383
  472MOL0     C63640   3.025   7.557   7.234  0.3302  0.8545 -0.8065
  472MOL0     C63641   2.908   7.485   7.198 -0.3567  0.0558 -0.2457
  472MOL0     C63642   2.800   7.488   7.282  0.1948 -0.5505  0.1315
  472MOL0     O63643   2.698   7.415   7.226  0.1215  0.2335  0.5428
  472MOL0     C63644   2.552   7.436   7.266  0.4657  0.1182 -0.5395
  472MOL0     C63645   2.525   7.321   7.360  0.0540 -0.1371  0.8529
  472MOL0     C63646   2.376   7.312   7.395  0.4447  0.3868  0.0768
  472MOL0     C63647   2.303   7.433   7.451 -0.7874  0.1595 -0.9562
  472MOL0     C63648   2.385   7.478   7.568 -0.0166  0.9783  0.8985
  472MOL0     C63649   2.453   7.502   7.665 -0.4397  0.1433  0.1991
  472MOL0     C63650   2.799   7.568   7.401  0.4754 -0.7626 -1.0127
  472MOL0     C63651   2.918   7.631   7.436  0.1404 -0.0057  0.5800
  472MOL0     C63652   2.899   7.717   7.560 -0.9318 -0.2625  0.7589
  472MOL0     H63653   3.396   7.751   7.553  0.3091 -1.6252  0.2128
  472MOL0     H63654   3.606   7.891   7.568 -1.1329  0.1395  0.3544
  472MOL0     H63655   3.833   7.857   7.228 -2.1976  0.0493 -0.2208
  472MOL0     H63656   3.803   8.037   7.187  0.6867  1.4804 -0.2180
  472MOL0     H63657   3.983   8.093   7.348  1.5032 -0.6616  1.3617
  472MOL0     H63658   4.046   8.024   7.193  2.7298  0.2811  1.1812
  472MOL0     H63659   4.168   7.960   7.366  0.0202  0.5612  1.1027
  472MOL0     H63660   4.084   7.813   7.305  0.5647  0.1589  1.4536
  472MOL0     H63661   4.051   7.967   7.571  1.5583 -1.1642  2.9942
  472MOL0     H63662   3.931   7.865   7.500  1.2203 -1.6805  0.6058
  472MOL0     H63663   4.080   7.664   7.513 -0.3725  0.0318 -1.1554
  472MOL0     H63664   4.225   7.775   7.536 -0.3917  1.2260 -3.1723
  472MOL0     H63665   4.127   7.837   7.764  2.1372 -1.8462  1.2981
  472MOL0     H63666   3.999   7.718   7.744  0.0238 -0.3630  1.2034
  472MOL0     H63667   4.307   7.676   7.757 -0.4027 -1.2301  0.0333
  472MOL0     H63668   4.193   7.548   7.704 -3.0745 -0.6577 -1.2898
  472MOL0     H63669   4.241   7.514   7.927  2.6838  1.3939  2.5534
  472MOL0     H63670   4.235   7.691   7.964 -0.7472  0.2291 -1.0131
  472MOL0     H63671   4.002   7.779   8.054  1.8006 -0.3861  1.0794
  472MOL0     H63672   3.845   7.698   8.251 -1.7307 -2.8859  2.7817
  472MOL0     H63673   3.721   7.718   8.114  1.0992 -0.3741 -1.2387
  472MOL0     H63674   3.639   7.498   8.146 -0.2686  1.1658 -0.0678
  472MOL0     H63675   3.753   7.453   8.273 -0.4621 -1.4060 -1.6032
  472MOL0     H63676   3.581   7.687   8.309  0.4756 -0.6531 -1.9789
  472MOL0     H63677   3.672   7.599   8.431  2.3455  5.6416 -1.4915
  472MOL0     H63678   3.529   7.382   8.387  0.0713  0.4259  0.2498
  472MOL0     H63679   3.449   7.470   8.252  0.4614 -0.1084 -1.2105
  472MOL0     H63680   3.252   7.378   8.253  1.1194  1.2033  0.1867
  472MOL0     H63681   3.008   7.369   8.246 -0.8933  1.5480  0.4203
  472MOL0     H63682   2.565   7.443   8.428  2.3309 -0.5280 -0.0541
  472MOL0     H63683   2.335   7.342   8.432  0.0027 -0.1013  1.2189
  472MOL0     H63684   2.142   7.174   8.489 -0.7756 -0.5461  0.6346
  472MOL0     H63685   2.176   7.247   8.320 -0.4202 -2.1729 -2.0150
  472MOL0     H63686   2.076   7.032   8.225 -0.8215 -2.7433  0.4804
  472MOL0     H63687   2.001   7.007   8.385  0.1828  2.3439  1.4385
  472MOL0     H63688   1.928   7.244   8.390  3.6808 -2.0261  1.1961
  472MOL0     H63689   1.965   7.262   8.219  2.5885 -1.1575 -2.6557
  472MOL0     H63690   1.782   7.037   8.323 -0.7708 -0.0359 -1.2642
  472MOL0     H63691   1.822   7.066   8.157 -0.8706 -1.2845 -0.3773
  472MOL0     H63692   1.672   7.267   8.334  2.8977 -0.0916  1.2880
  472MOL0     H63693   1.598   7.139   8.232  1.5866 -1.3645 -2.0225
  472MOL0     H63694   1.735   7.389   8.128 -1.1997  0.7488 -0.6275
  472MOL0     H63695   1.687   7.251   8.029 -2.5438 -0.3566 -1.6753
  472MOL0     H63696   1.515   7.414   8.234 -0.8250  1.1937  0.0766
  472MOL0     H63697   1.455   7.270   8.131  0.9371  0.0090  0.0903
  472MOL0     H63698   1.531   7.565   8.049 -0.1732  0.0690 -0.4388
  472MOL0     H63699   1.504   7.431   7.935  0.6502 -0.5909  1.5375
  472MOL0     H63700   2.509   6.969   8.305 -0.6720  0.3560 -1.7250
  472MOL0     H63701   2.724   7.062   8.301  0.6087 -0.5344  0.8970
  472MOL0     H63702   3.003   7.488   8.664  0.7586 -1.4317  0.9769
  472MOL0     H63703   3.248   7.550   8.643 -0.1024  0.0296 -0.1641
  472MOL0     H63704   3.609   7.912   7.136  0.6232 -0.9686 -0.1720
  472MOL0     H63705   3.413   7.794   7.119  2.7352  1.9794 -0.5333
  472MOL0     H63706   3.110   7.536   7.170 -0.4118  0.2972 -1.6223
  472MOL0     H63707   2.895   7.440   7.101  1.4750  0.7015 -0.8409
  472MOL0     H63708   2.480   7.429   7.183 -1.8947  2.3236  1.1793
  472MOL0     H63709   2.533   7.538   7.301  2.2492  1.4259 -3.0462
  472MOL0     H63710   2.576   7.326   7.456  0.6603 -0.2955  0.5431
  472MOL0     H63711   2.568   7.229   7.319 -0.4615  0.2469 -0.6398
  472MOL0     H63712   2.377   7.238   7.475  2.0738  0.3110  0.0052
  472MOL0     H63713   2.317   7.271   7.311  1.8903  0.7397 -1.1506
  472MOL0     H63714   2.295   7.515   7.379  1.0090  1.4532  0.2067
  472MOL0     H63715   2.204   7.417   7.494  0.5468  0.3612  2.4977
  472MOL0     H63716   2.500   7.529   7.758 -0.4457  1.5683 -0.1814
  472MOL0     H63717   2.704   7.559   7.453  0.7396  1.2247 -0.0895
  472MOL0     H63718   2.906   7.820   7.523 -0.3589  0.1599  1.9707
  472MOL0     H63719   2.799   7.713   7.603 -1.0172 -1.2795  0.4900
  472MOL0     H63720   2.975   7.712   7.639 -0.9595  2.7211  1.1117
  473MOL0     O63721   0.905   4.430   6.910  0.3674 -0.5788  0.1036
  473MOL0     C63722   0.918   4.536   6.855 -0.0869  0.6332 -0.1036
  473MOL0     O63723   0.819   4.623   6.811  0.6106  0.5840  0.2825
  473MOL0     C63724   0.696   4.578   6.844  1.0739  1.1257  0.1551
  473MOL0     C63725   0.624   4.494   6.756 -0.7116 -0.4254 -0.4335
  473MOL0     C63726   0.506   4.436   6.795 -0.8103 -0.2363  0.5843
  473MOL0     C63727   0.436   4.474   6.910  0.8385  0.0909 -0.5045
  473MOL0     O63728   0.317   4.412   6.957  0.2054 -1.0900 -0.0863
  473MOL0     C63729   0.240   4.339   6.859 -1.0054 -1.2200  0.1752
  473MOL0     C63730   0.092   4.305   6.899 -0.1269 -0.3383 -0.0269
  473MOL0     C63731   0.071   4.229   7.023  0.3909  0.2407 -0.6096
  473MOL0     C63732  -0.073   4.200   7.039 -0.2359 -0.7068  0.6377
  473MOL0     C63733  -0.091   4.105   7.148 -0.9004  0.0378 -0.3780
  473MOL0     C63734  -0.236   4.064   7.176  0.6344 -0.5940 -0.1405
  473MOL0     C63735  -0.230   3.920   7.238  0.0104  0.3522  0.5270
  473MOL0     C63736  -0.375   3.893   7.285 -0.5778  0.2337  0.5373
  473MOL0     N63737  -0.461   3.858   7.175 -0.3149 -0.0216 -0.8013
  473MOL0     C63738  -0.495   3.731   7.152 -0.2722 -0.3127 -0.6769
  473MOL0     C63739  -0.578   3.729   7.050 -0.1758  0.8093 -0.1909
  473MOL0     C63740  -0.641   3.597   7.003 -0.7781 -0.2367 -0.3083
  473MOL0     C63741  -0.686   3.595   6.855 -0.0170  0.1399  0.5844
  473MOL0     C63742  -0.619   3.479   6.775  0.7891 -0.1252  0.6402
  473MOL0     C63743  -0.458   3.471   6.774 -0.0688 -0.3955 -0.5473
  473MOL0     O63744  -0.408   3.605   6.768  0.0853 -0.2674 -0.4041
  473MOL0     C63745  -0.281   3.644   6.803 -0.7904  0.1500 -0.5294
  473MOL0     C63746  -0.260   3.776   6.838  0.1543 -0.3088 -0.6384
  473MOL0     C63747  -0.134   3.820   6.880 -0.2154  0.3864  0.2548
  473MOL0     C63748  -0.023   3.728   6.889 -0.7727  0.1699  0.8119
  473MOL0     C63749   0.108   3.771   6.917 -0.6289 -1.2252  0.5345
  473MOL0     O63750   0.197   3.677   6.924  0.4090  0.1869 -0.4156
  473MOL0     C63751   0.327   3.691   6.968  1.0267  0.7302  0.0080
  473MOL0     C63752   0.392   3.815   6.998  0.0851  0.7665  0.4726
  473MOL0     C63753   0.528   3.824   7.021 -0.2996  0.0673  0.0230
  473MOL0     C63754   0.594   3.698   7.023 -0.3819 -1.1243 -0.6119
  473MOL0     O63755   0.731   3.709   7.035  0.2057 -0.3926 -0.4172
  473MOL0     C63756   0.816   3.808   6.964 -0.8771  0.2216 -0.8096
  473MOL0     C63757   0.940   3.830   7.050  0.9012 -0.0003  0.4826
  473MOL0     C63758   1.039   3.923   6.972 -0.4708  0.4622 -0.1089
  473MOL0     C63759   1.171   3.952   7.051 -1.1374 -0.8223 -0.7474
  473MOL0     C63760   1.278   4.025   6.968  0.1346  0.2043 -0.0777
  473MOL0     C63761   1.412   4.029   7.038 -0.0184 -0.3447  0.3858
  473MOL0     C63762   1.504   4.135   6.961 -0.2792  0.6251  0.3029
  473MOL0     C63763   1.632   4.147   7.036 -0.5508 -0.1300 -0.5674
  473MOL0    Cl63764   1.736   4.003   7.009  0.1628 -0.2737 -0.1057
  473MOL0     C63765   0.532   3.576   6.988  0.4754 -0.1761  0.0991
  473MOL0     C63766   0.393   3.575   6.960 -0.9966 -0.2251 -0.0744
  473MOL0     O63767   0.126   3.890   6.938  0.3425  0.5056  0.2979
  473MOL0     C63768  -0.049   3.589   6.855  0.4945  0.0410  0.2067
  473MOL0     C63769  -0.175   3.552   6.817  0.7065  0.0342 -0.7319
  473MOL0     N63770  -0.613   3.858   7.021 -1.0359 -0.4958 -0.2577
  473MOL0     N63771  -0.537   3.936   7.098  0.1036 -0.8491  0.2848
  473MOL0     C63772   0.510   4.567   6.996 -0.1792  0.8596  0.2444
  473MOL0     C63773   0.630   4.629   6.952 -0.3259 -0.2740  0.3375
  473MOL0     C63774   1.056   4.590   6.825 -0.5204  0.0311 -0.3917
  473MOL0     C63775   1.065   4.723   6.810 -0.1221 -0.5697  0.0753
  473MOL0     C63776   1.184   4.784   6.776  0.3281 -0.2580  0.1762
  473MOL0     C63777   1.300   4.711   6.773 -1.0690 -0.3087  0.1253
  473MOL0     O63778   1.405   4.790   6.747  0.4304  0.3874  0.5257
  473MOL0     C63779   1.542   4.744   6.761  0.4519 -0.0671 -0.1962
  473MOL0     C63780   1.647   4.858   6.734 -0.8290 -0.3472  0.5728
  473MOL0     C63781   1.793   4.804   6.742 -0.1609 -0.0422 -0.3150
  473MOL0     C63782   1.894   4.915   6.690  1.1674 -0.6980 -0.1286
  473MOL0     C63783   2.027   4.875   6.726 -0.0390 -0.4795 -0.2403
  473MOL0     C63784   2.132   4.831   6.765  0.2056 -0.8400 -1.1055
  473MOL0     C63785   1.298   4.573   6.791 -0.3016 -0.5192  0.2623
  473MOL0     C63786   1.174   4.507   6.815  0.6234 -0.2602  1.0822
  473MOL0     C63787   1.170   4.359   6.812  0.0663 -0.2685 -0.5769
  473MOL0     H63788   0.678   4.447   6.675  0.8269 -2.0064  1.3883
  473MOL0     H63789   0.469   4.349   6.741 -3.7666 -0.0822  2.1301
  473MOL0     H63790   0.239   4.382   6.759 -2.9281  0.1497  0.7273
  473MOL0     H63791   0.298   4.246   6.858 -0.5574 -1.0188  2.0745
  473MOL0     H63792   0.051   4.251   6.813 -0.7340  0.5638 -0.3203
  473MOL0     H63793   0.034   4.397   6.913 -0.3182 -0.4433 -0.1358
  473MOL0     H63794   0.119   4.273   7.111 -0.2704 -1.2256  0.5328
  473MOL0     H63795   0.119   4.134   6.997  2.1736  1.4678 -2.0466
  473MOL0     H63796  -0.132   4.290   7.060  0.0283 -0.6922  1.3437
  473MOL0     H63797  -0.112   4.150   6.950 -0.9556  1.3777 -0.2966
  473MOL0     H63798  -0.031   4.017   7.124 -1.2542 -0.2764 -0.1316
  473MOL0     H63799  -0.056   4.149   7.242  1.2709 -0.0005 -1.1121
  473MOL0     H63800  -0.276   4.135   7.249 -1.5588 -0.5810 -1.2690
  473MOL0     H63801  -0.302   4.066   7.089 -1.6905  1.4585  1.5041
  473MOL0     H63802  -0.156   3.922   7.319 -0.6241  1.1656  1.1003
  473MOL0     H63803  -0.184   3.852   7.166  1.6660  1.8297  0.0890
  473MOL0     H63804  -0.374   3.811   7.357  0.9914 -3.1285 -2.9414
  473MOL0     H63805  -0.421   3.979   7.335  0.0559 -0.1529  1.8261
  473MOL0     H63806  -0.461   3.649   7.214  0.5738  0.6545  0.1793
  473MOL0     H63807  -0.565   3.521   7.023  0.6767  0.8900 -1.3274
  473MOL0     H63808  -0.727   3.577   7.067  0.4794  0.1929  1.5838
  473MOL0     H63809  -0.793   3.589   6.830 -0.2069  0.7437  1.2184
  473MOL0     H63810  -0.660   3.693   6.812  2.1012 -1.1402 -1.2870
  473MOL0     H63811  -0.662   3.472   6.675 -2.8611  0.8790  1.9514
  473MOL0     H63812  -0.660   3.382   6.806  0.1768 -0.5418 -1.3050
  473MOL0     H63813  -0.425   3.415   6.686  1.7976  2.1346 -1.5729
  473MOL0     H63814  -0.421   3.419   6.863  1.6538  2.4111  0.4877
  473MOL0     H63815  -0.346   3.842   6.846 -0.3174 -1.0581  0.7878
  473MOL0     H63816  -0.121   3.920   6.921  1.2736  0.2035  0.2705
  473MOL0     H63817   0.336   3.907   7.008 -3.3399 -0.4306 -4.1262
  473MOL0     H63818   0.575   3.918   7.049 -1.6089  0.4118  1.1950
  473MOL0     H63819   0.844   3.779   6.862  0.5554  2.3454 -1.0921
  473MOL0     H63820   0.768   3.906   6.963  1.1273  1.2859 -3.0131
  473MOL0     H63821   0.917   3.856   7.154  2.3151 -1.0569  1.1013
  473MOL0     H63822   0.979   3.728   7.060 -0.9591 -0.8489 -0.5833
  473MOL0     H63823   1.053   3.889   6.869  1.9255  2.6066 -0.5931
  473MOL0     H63824   0.989   4.020   6.970 -3.2221 -0.7303  2.2314
  473MOL0     H63825   1.208   3.854   7.081  0.3426  0.4792  2.0858
  473MOL0     H63826   1.166   4.017   7.139  4.8994  1.7875 -1.8554
  473MOL0     H63827   1.251   4.131   6.963  2.9947  1.0600  0.6066
  473MOL0     H63828   1.280   3.979   6.869  0.7146  2.1662 -1.0244
  473MOL0     H63829   1.401   4.063   7.142  1.6416 -0.1269  0.5289
  473MOL0     H63830   1.456   3.929   7.035  0.3853 -0.1602 -2.1306
  473MOL0     H63831   1.451   4.230   6.966  1.0272  1.3201  2.0475
  473MOL0     H63832   1.519   4.105   6.856 -3.6542 -0.3218 -0.0138
  473MOL0     H63833   1.675   4.246   7.017  0.3402 -0.0519  1.5459
  473MOL0     H63834   1.606   4.145   7.142  2.4321  0.1681  0.2450
  473MOL0     H63835   0.589   3.486   6.974 -0.7386 -0.9486 -0.0347
  473MOL0     H63836   0.343   3.493   6.909  0.7545 -1.4727  0.1451
  473MOL0     H63837   0.027   3.512   6.846 -0.0651 -0.3477 -1.5420
  473MOL0     H63838  -0.188   3.448   6.788 -1.3872  0.0991 -0.1501
  473MOL0     H63839   0.460   4.594   7.088  0.3201  0.7755  0.5428
  473MOL0     H63840   0.674   4.712   7.006  0.0724 -0.0089 -0.3877
  473MOL0     H63841   0.980   4.790   6.826  2.0018  2.5585 -0.6870
  473MOL0     H63842   1.199   4.891   6.760 -0.7253  0.2633  2.3067
  473MOL0     H63843   1.554   4.652   6.703 -1.4383  1.3852 -3.2019
  473MOL0     H63844   1.538   4.718   6.867 -1.4839  0.5477 -0.0725
  473MOL0     H63845   1.636   4.925   6.820 -0.0452  0.2150  0.2464
  473MOL0     H63846   1.622   4.924   6.651 -2.4246  2.7245  3.2323
  473MOL0     H63847   1.809   4.713   6.684  2.6414 -0.4240  0.8907
  473MOL0     H63848   1.813   4.773   6.845 -0.0384 -2.9353 -1.1364
  473MOL0     H63849   1.895   4.922   6.580  3.1681 -1.2732 -0.1886
  473MOL0     H63850   1.872   5.012   6.736  1.4408 -0.7607  0.1343
  473MOL0     H63851   2.226   4.798   6.804  1.0512  1.1062 -1.4316
  473MOL0     H63852   1.396   4.529   6.771  1.1451  2.3689  0.4332
  473MOL0     H63853   1.080   4.311   6.775  1.4469 -2.5673 -1.1486
  473MOL0     H63854   1.255   4.320   6.754  0.9549 -4.2592  2.9233
  473MOL0     H63855   1.192   4.320   6.912 -3.1681  2.5040  1.4503
  474MOL0     O63856   2.652  10.450   2.686 -0.0602  0.1354 -0.3095
  474MOL0     C63857   2.628  10.414   2.575 -0.3107 -0.3234  0.1053
  474MOL0     O63858   2.724  10.343   2.493  0.4764 -0.6498  1.0058
  474MOL0     C63859   2.855  10.338   2.528 -0.7005 -0.6160 -0.3914
  474MOL0     C63860   2.895  10.273   2.637 -0.1081 -0.2677 -0.3517
  474MOL0     C63861   3.025  10.289   2.682 -0.4284  0.9969  0.7545
  474MOL0     C63862   3.129  10.344   2.602  0.1282 -0.3687 -0.1905
  474MOL0     O63863   3.257  10.338   2.628 -0.7227 -0.8913 -0.3241
  474MOL0     C63864   3.305  10.221   2.698  0.4495 -0.3394  0.6044
  474MOL0     C63865   3.455  10.199   2.672 -0.1566 -0.1784 -0.4095
  474MOL0     C63866   3.513  10.071   2.729 -0.3207  0.3591 -0.0112
  474MOL0     C63867   3.665  10.067   2.696  0.6062  0.5561 -0.3399
  474MOL0     C63868   3.722   9.935   2.760 -1.1485  0.0763  0.2764
  474MOL0     C63869   3.873   9.921   2.758  0.0154 -0.6846  0.2656
  474MOL0     C63870   3.922   9.792   2.828  0.2173 -0.1811  0.3285
  474MOL0     C63871   4.066   9.765   2.771  0.9639 -0.3060  0.3079
  474MOL0     N63872   4.111   9.640   2.822  0.2156  0.1066 -0.0015
  474MOL0     C63873   4.070   9.519   2.772  0.7369 -0.0082 -0.4023
  474MOL0     C63874   4.137   9.434   2.850  0.8675 -0.9001  0.0453
  474MOL0     C63875   4.145   9.289   2.828 -0.1234 -0.0219  0.1817
  474MOL0     C63876   4.185   9.249   2.696  0.2289  1.0955  0.4208
  474MOL0     C63877   4.248   9.108   2.686 -0.1060 -1.2144  0.0044
  474MOL0     C63878   4.254   9.063   2.538  0.4017  0.4408 -0.1960
  474MOL0     O63879   4.121   9.047   2.499 -0.1115  0.2505 -0.1359
  474MOL0     C63880   4.100   9.047   2.365  0.3566 -0.7085 -0.1496
  474MOL0     C63881   3.971   9.066   2.317 -0.5365  0.1704  0.0946
  474MOL0     C63882   3.934   9.069   2.174  0.0312 -0.6194 -0.1358
  474MOL0     C63883   4.041   9.045   2.082 -0.3777 -0.3967  0.1652
  474MOL0     C63884   4.015   9.057   1.941  0.3921  0.6841 -0.0171
  474MOL0     O63885   3.885   9.045   1.904  0.9910 -0.4761  0.2916
  474MOL0     C63886   3.840   9.074   1.774 -0.1920  0.2614  0.5240
  474MOL0     C63887   3.875   8.989   1.664  1.2990 -0.0710  0.2543
  474MOL0     C63888   3.848   9.036   1.532 -0.0481  0.3648 -0.1174
  474MOL0     C63889   3.777   9.154   1.507 -0.0366 -0.3273 -0.1845
  474MOL0     O63890   3.762   9.182   1.377 -0.1053 -0.7216  0.1483
  474MOL0     C63891   3.676   9.296   1.348  0.3105  0.0509 -0.1284
  474MOL0     C63892   3.682   9.328   1.196  0.7074 -0.1863  0.1186
  474MOL0     C63893   3.600   9.443   1.150 -0.8729 -0.0269 -0.1271
  474MOL0     C63894   3.680   9.571   1.148 -0.1789  0.0550  0.0843
  474MOL0     C63895   3.583   9.670   1.082  0.4929 -0.5047  0.8568
  474MOL0     C63896   3.636   9.819   1.068 -0.9525  0.6236 -0.4049
  474MOL0     C63897   3.767   9.842   0.998 -0.1589 -0.3957  0.1598
  474MOL0     C63898   3.795   9.994   0.977  0.0764  0.5724 -0.4798
  474MOL0    Cl63899   3.931  10.010   0.853  0.0653 -0.0570 -0.0824
  474MOL0     C63900   3.739   9.234   1.617  0.3786  0.1846 -0.1082
  474MOL0     C63901   3.776   9.199   1.744 -0.0865  0.0181 -0.0760
  474MOL0     O63902   4.112   9.067   1.865 -0.3310  0.2061 -0.2987
  474MOL0     C63903   4.167   9.039   2.123  0.1751 -0.0091 -0.1122
  474MOL0     C63904   4.192   9.031   2.264 -0.4091 -0.3183  0.3366
  474MOL0     N63905   4.205   9.495   2.947 -0.0343 -0.0797 -0.0686
  474MOL0     N63906   4.192   9.614   2.932 -0.1276 -0.2977 -0.4631
  474MOL0     C63907   3.087  10.412   2.487 -0.6200  0.1294 -0.4829
  474MOL0     C63908   2.948  10.411   2.456 -0.6321 -0.0066  0.3299
  474MOL0     C63909   2.485  10.416   2.533 -0.2051  0.7157  0.1088
  474MOL0     C63910   2.453  10.369   2.400 -1.5204 -0.3198  0.1084
  474MOL0     C63911   2.330  10.351   2.350 -0.6219 -0.3444  0.5433
  474MOL0     C63912   2.222  10.388   2.424 -0.4454  1.0958  0.0782
  474MOL0     O63913   2.104  10.369   2.349  0.9867 -0.6982  0.5265
  474MOL0     C63914   2.007  10.471   2.371  0.4086 -0.3531 -0.4403
  474MOL0     C63915   1.876  10.409   2.423 -0.6533 -0.1846 -0.3572
  474MOL0     C63916   1.766  10.519   2.447  0.1903 -0.2893 -0.4756
  474MOL0     C63917   1.632  10.474   2.514 -0.5001  0.6296  0.6459
  474MOL0     C63918   1.604  10.333   2.483  0.6505 -0.5205  0.0183
  474MOL0     C63919   1.567  10.215   2.494 -0.8961  0.9555  0.9802
  474MOL0     C63920   2.234  10.445   2.556 -0.1379 -0.0471  1.3586
  474MOL0     C63921   2.363  10.467   2.601 -0.7643  0.1458 -0.2318
  474MOL0     C63922   2.383  10.547   2.730 -0.2255  0.1453  0.1190
  474MOL0     H63923   2.818  10.230   2.701  0.5385  0.6079  1.0680
  474MOL0     H63924   3.049  10.248   2.780  1.8818  1.7857  0.5721
  474MOL0     H63925   3.287  10.226   2.806 -2.4973  1.3640  0.1353
  474MOL0     H63926   3.249  10.135   2.661  0.7691 -0.6551  0.8429
  474MOL0     H63927   3.507  10.288   2.709  0.0288 -0.3120 -0.3450
  474MOL0     H63928   3.472  10.196   2.564 -0.5469  0.2211 -0.4838
  474MOL0     H63929   3.458   9.981   2.699 -1.4921  0.0569  2.7650
  474MOL0     H63930   3.498  10.073   2.837 -2.4076 -2.2878 -0.1582
  474MOL0     H63931   3.689  10.083   2.590 -0.4236  1.7644 -0.4121
  474MOL0     H63932   3.713  10.149   2.750 -2.1706  2.0109  0.1050
  474MOL0     H63933   3.681   9.945   2.861  1.1518 -0.6485  1.3412
  474MOL0     H63934   3.679   9.850   2.707 -1.4751  0.4853 -0.1277
  474MOL0     H63935   3.912   9.931   2.656  1.9233 -0.7037  0.9661
  474MOL0     H63936   3.906  10.015   2.804 -0.0919 -1.6919  2.5215
  474MOL0     H63937   3.859   9.705   2.805 -0.8683  0.8020 -0.5549
  474MOL0     H63938   3.925   9.800   2.937 -3.4462  0.1311  0.5288
  474MOL0     H63939   4.079   9.761   2.663  0.6981 -2.3040  0.3144
  474MOL0     H63940   4.143   9.838   2.798  1.7943 -0.4950 -1.3859
  474MOL0     H63941   4.015   9.492   2.682  2.7336  0.6291 -1.8882
  474MOL0     H63942   4.206   9.240   2.904 -0.6320 -2.3317 -0.8217
  474MOL0     H63943   4.044   9.256   2.853  1.2666 -2.3241  3.3236
  474MOL0     H63944   4.102   9.260   2.625  0.9221  2.3168 -0.2313
  474MOL0     H63945   4.259   9.316   2.651  2.2701 -1.8946 -0.9839
  474MOL0     H63946   4.180   9.039   2.738 -0.1201 -2.1970 -1.2712
  474MOL0     H63947   4.348   9.113   2.729  0.6047 -1.9075 -1.5077
  474MOL0     H63948   4.312   8.971   2.539 -0.6002 -0.2439 -1.3973
  474MOL0     H63949   4.303   9.142   2.480 -1.0029  1.7841  0.3820
  474MOL0     H63950   3.899   9.066   2.397 -0.9996 -0.9693 -0.2909
  474MOL0     H63951   3.831   9.086   2.145  0.1394  1.3972  0.5170
  474MOL0     H63952   3.920   8.892   1.684  1.4092  0.4517  2.8880
  474MOL0     H63953   3.870   8.979   1.443  1.0758  0.9856 -0.2595
  474MOL0     H63954   3.572   9.268   1.366  0.4926 -0.0197  0.8950
  474MOL0     H63955   3.703   9.383   1.409 -4.1468 -0.0830  2.4544
  474MOL0     H63956   3.789   9.344   1.180  0.4173  0.1648 -1.6717
  474MOL0     H63957   3.635   9.240   1.152 -0.8522 -0.5412  2.2977
  474MOL0     H63958   3.572   9.415   1.048 -0.3875 -0.7426 -0.0746
  474MOL0     H63959   3.500   9.448   1.195 -1.3352 -1.5246 -0.9099
  474MOL0     H63960   3.773   9.558   1.091 -0.6942 -0.3712 -0.6667
  474MOL0     H63961   3.717   9.610   1.244  0.3790 -0.1897 -0.0279
  474MOL0     H63962   3.485   9.669   1.131 -0.4475 -1.9486 -0.9061
  474MOL0     H63963   3.549   9.629   0.986  1.1555 -2.8872  1.5603
  474MOL0     H63964   3.567   9.888   1.018  1.6470  2.0554 -2.2552
  474MOL0     H63965   3.646   9.859   1.169  1.5893  2.0731 -1.1649
  474MOL0     H63966   3.752   9.801   0.898 -2.1064 -2.1560  1.1030
  474MOL0     H63967   3.847   9.802   1.060  0.2171  0.0816 -0.0098
  474MOL0     H63968   3.708  10.037   0.926 -1.4682 -1.0771  0.6478
  474MOL0     H63969   3.811  10.048   1.071 -0.3189 -0.4649  0.1964
  474MOL0     H63970   3.670   9.316   1.602 -0.5926 -0.7844 -1.1427
  474MOL0     H63971   3.741   9.261   1.826  1.0987  1.4906 -0.6349
  474MOL0     H63972   4.254   9.036   2.057  0.6334 -1.2657  0.4956
  474MOL0     H63973   4.293   9.006   2.295  0.2108  1.6815  0.0854
  474MOL0     H63974   3.162  10.463   2.427 -1.0906 -1.3953 -2.4857
  474MOL0     H63975   2.904  10.456   2.368 -0.5645 -1.2662 -0.3693
  474MOL0     H63976   2.534  10.330   2.339 -1.7194  0.9911 -1.0245
  474MOL0     H63977   2.317  10.317   2.248  3.6226  1.1702 -0.7053
  474MOL0     H63978   1.980  10.528   2.281  0.1538 -2.3395 -1.7037
  474MOL0     H63979   2.048  10.536   2.448 -0.8007  0.5296 -0.5122
  474MOL0     H63980   1.897  10.358   2.517 -0.0746 -0.1810 -0.4825
  474MOL0     H63981   1.835  10.355   2.337 -0.3071  0.2908 -0.8245
  474MOL0     H63982   1.749  10.579   2.357  1.7531  0.6530 -0.1923
  474MOL0     H63983   1.818  10.601   2.498  0.3561  0.3647 -1.6526
  474MOL0     H63984   1.637  10.479   2.623  2.7074  0.0899  0.6063
  474MOL0     H63985   1.553  10.540   2.476  0.1040  1.4401  0.7647
  474MOL0     H63986   1.541  10.112   2.483  3.4392 -0.2712  0.5403
  474MOL0     H63987   2.150  10.488   2.609 -0.1962  1.6382 -0.0332
  474MOL0     H63988   2.462  10.623   2.725  0.0814 -0.0894  1.2064
  474MOL0     H63989   2.294  10.602   2.765  0.7624  0.4933  2.2431
  474MOL0     H63990   2.399  10.478   2.813 -0.2246 -0.9253 -0.7531
  475MOL0     O63991   3.663  10.798   4.592  0.1620 -0.3060  0.1715
  475MOL0     C63992   3.611  10.882   4.515 -0.2353  0.7031  0.0503
  475MOL0     O63993   3.672  10.951   4.411  0.1114  0.0033 -0.6584
  475MOL0     C63994   3.808  10.952   4.402 -0.5784 -0.0485 -0.1210
  475MOL0     C63995   3.878  11.029   4.498 -0.9816 -0.6163 -0.5562
  475MOL0     C63996   4.015  11.034   4.493 -0.4253  0.2421 -0.4329
  475MOL0     C63997   4.087  10.957   4.401  0.5022 -0.8887  0.0780
  475MOL0     O63998   4.223  10.945   4.409  0.6496  0.0665  0.4020
  475MOL0     C63999   4.309  11.033   4.489 -0.4707  0.4523  0.4256
  475MOL0     C64000   4.450  11.022   4.440 -0.1636 -0.2461 -0.8016
  475MOL0     C64001   4.548  11.120   4.500 -0.9662  0.7501 -0.2992
  475MOL0     C64002   4.508  11.267   4.472  0.7926  0.4520 -0.0680
  475MOL0     C64003   4.620  11.350   4.524 -0.7731  0.5918  0.6667
  475MOL0     C64004   4.612  11.493   4.450 -0.8832 -0.0585 -0.0060
  475MOL0     C64005   4.726  11.583   4.492 -0.0669  0.2837 -0.4643
  475MOL0     C64006   4.728  11.614   4.636  0.1110  0.1305  0.0755
  475MOL0     N64007   4.866  11.656   4.666  1.4493  0.3566 -0.0556
  475MOL0     C64008   4.941  11.751   4.591 -0.5672  0.3426 -0.3580
  475MOL0     C64009   5.064  11.763   4.660  0.7290  0.4441  0.2368
  475MOL0     C64010   5.186  11.838   4.614 -0.6077 -0.5429 -0.6605
  475MOL0     C64011   5.270  11.746   4.521  0.0551  0.2424  0.1197
  475MOL0     C64012   5.323  11.620   4.600 -0.4137  0.9735 -0.0486
  475MOL0     C64013   5.423  11.654   4.715  0.5799 -0.5223  0.2530
  475MOL0     O64014   5.491  11.774   4.683  0.0726  0.3056  0.1938
  475MOL0     C64015   5.591  11.825   4.760  0.4736  0.8845  0.2019
  475MOL0     C64016   5.594  11.807   4.895 -0.3482  0.1188 -0.6257
  475MOL0     C64017   5.700  11.856   4.973  0.5521  0.2768  0.4568
  475MOL0     C64018   5.815  11.917   4.916 -0.1106  0.1400 -0.5142
  475MOL0     C64019   5.928  11.976   4.997  0.2259  0.0779  0.4628
  475MOL0     O64020   5.913  11.982   5.129 -0.2516  0.1935 -0.5284
  475MOL0     C64021   6.020  12.023   5.207  0.9175  0.0660  0.3402
  475MOL0     C64022   5.992  12.118   5.310 -1.0574  0.1512  0.2706
  475MOL0     C64023   6.101  12.184   5.365  0.0946 -0.7733  0.0757
  475MOL0     C64024   6.238  12.150   5.333  0.8146  0.7252 -0.4124
  475MOL0     O64025   6.352  12.202   5.398  0.2228 -0.0833  0.6465
  475MOL0     C64026   6.329  12.262   5.525  0.1632  0.5762 -0.6580
  475MOL0     C64027   6.468  12.293   5.585  1.3153 -1.8107 -0.5479
  475MOL0     C64028   6.547  12.406   5.515 -0.1650 -0.0507  0.5202
  475MOL0     C64029   6.665  12.460   5.588 -0.3133 -0.0036  0.2100
  475MOL0     C64030   6.734  12.589   5.526 -0.5754 -0.1709  0.0717
  475MOL0     C64031   6.813  12.549   5.397  0.3356  0.9797 -0.2864
  475MOL0     C64032   6.912  12.653   5.344 -0.0339  0.4620  0.5410
  475MOL0     C64033   6.858  12.791   5.318 -0.1428 -0.0193 -0.0350
  475MOL0    Cl64034   6.723  12.783   5.199  0.1811 -0.0456 -0.8553
  475MOL0     C64035   6.262  12.049   5.249 -0.1364 -0.2167  0.5556
  475MOL0     C64036   6.154  11.990   5.179 -1.1428 -1.0536 -0.2386
  475MOL0     O64037   6.024  12.016   4.929  0.7695  0.7297 -0.2025
  475MOL0     C64038   5.816  11.922   4.773  0.2451 -1.3485 -0.6383
  475MOL0     C64039   5.709  11.878   4.697  1.0139  0.2778  0.3226
  475MOL0     N64040   5.060  11.673   4.769 -0.7890 -0.3481  0.1966
  475MOL0     N64041   4.942  11.628   4.778  0.5136  0.3533 -0.0501
  475MOL0     C64042   4.022  10.888   4.299 -0.8881  0.5242 -0.6137
  475MOL0     C64043   3.884  10.888   4.303 -0.0656  0.4362 -0.2421
  475MOL0     C64044   3.463  10.897   4.524 -0.2861  0.2332 -0.1911
  475MOL0     C64045   3.410  10.917   4.651  1.2175  0.8391 -0.2262
  475MOL0     C64046   3.273  10.944   4.667 -0.6463 -0.0840 -0.0048
  475MOL0     C64047   3.191  10.955   4.560  0.6091  0.3020 -0.2411
  475MOL0     O64048   3.052  10.966   4.575  0.0283  0.0024  0.0566
  475MOL0     C64049   2.974  11.033   4.479 -0.1438 -0.1653 -0.2280
  475MOL0     C64050   2.860  11.112   4.548 -1.0539  0.1749  0.8963
  475MOL0     C64051   2.776  11.025   4.636  1.0631  1.0273 -0.5269
  475MOL0     C64052   2.665  10.953   4.556 -0.3638 -0.3960  0.5475
  475MOL0     C64053   2.578  11.049   4.489 -0.2214 -0.1464 -0.0243
  475MOL0     C64054   2.513  11.127   4.428 -1.1550 -0.0847  0.2332
  475MOL0     C64055   3.245  10.948   4.426  0.2490 -0.8243 -0.1757
  475MOL0     C64056   3.375  10.909   4.405  0.0265 -0.9650  0.7999
  475MOL0     C64057   3.430  10.903   4.272 -0.3823  0.3083  0.6687
  475MOL0     H64058   3.809  11.073   4.570 -1.1121 -1.3114 -0.2495
  475MOL0     H64059   4.053  11.075   4.586 -5.4473  1.8460  1.2094
  475MOL0     H64060   4.277  11.137   4.477  0.4321  0.5956 -0.9835
  475MOL0     H64061   4.290  11.005   4.593 -1.8119 -1.5118 -0.2926
  475MOL0     H64062   4.438  11.052   4.335  0.7616  4.8614  0.3206
  475MOL0     H64063   4.480  10.918   4.455 -2.0290 -0.4930  2.0077
  475MOL0     H64064   4.647  11.105   4.455 -0.5663  2.2958 -0.0300
  475MOL0     H64065   4.553  11.094   4.606  0.9737  1.0030 -0.2923
  475MOL0     H64066   4.507  11.275   4.363  1.0322 -0.6951 -0.1671
  475MOL0     H64067   4.414  11.294   4.522  1.1248 -1.5949  1.7665
  475MOL0     H64068   4.617  11.368   4.632 -0.6527  3.2159  0.3066
  475MOL0     H64069   4.708  11.288   4.502 -2.6818 -1.8506 -0.5958
  475MOL0     H64070   4.606  11.481   4.341  1.8892  0.8847 -0.3367
  475MOL0     H64071   4.518  11.546   4.469 -0.8693  0.2644 -0.7940
  475MOL0     H64072   4.721  11.674   4.431  2.5593 -1.1772 -3.1224
  475MOL0     H64073   4.819  11.532   4.464  0.7087  1.7017 -0.5912
  475MOL0     H64074   4.658  11.698   4.651 -3.1169 -2.2852 -0.2669
  475MOL0     H64075   4.696  11.530   4.698 -1.9890 -0.7579 -2.0488
  475MOL0     H64076   4.930  11.796   4.493 -1.6985  2.1036  0.5275
  475MOL0     H64077   5.159  11.937   4.577 -0.9263  0.3720  1.8422
  475MOL0     H64078   5.244  11.865   4.702  0.7551 -1.1964 -1.3213
  475MOL0     H64079   5.215  11.721   4.430 -0.5290  0.6625  0.3492
  475MOL0     H64080   5.356  11.801   4.483  1.0817  0.2391  2.2796
  475MOL0     H64081   5.392  11.565   4.534 -0.6342  1.2054 -0.4711
  475MOL0     H64082   5.239  11.557   4.632  1.2006 -1.0181  0.5449
  475MOL0     H64083   5.492  11.572   4.737  3.8311  1.3265 -2.1603
  475MOL0     H64084   5.369  11.672   4.808  2.5678 -0.1548  1.3814
  475MOL0     H64085   5.513  11.760   4.950  1.6965 -3.1203 -0.1711
  475MOL0     H64086   5.704  11.839   5.080 -0.3805  2.8096  0.9664
  475MOL0     H64087   5.894  12.161   5.323 -1.0435  0.2606  0.0183
  475MOL0     H64088   6.069  12.261   5.434 -0.5852 -2.3591  1.6308
  475MOL0     H64089   6.267  12.351   5.514  0.8603  1.3747  1.4169
  475MOL0     H64090   6.275  12.195   5.593  0.0199  1.5105  0.1762
  475MOL0     H64091   6.449  12.320   5.689  1.7099 -0.0226 -0.9132
  475MOL0     H64092   6.527  12.203   5.564  1.6606 -1.9297  0.8655
  475MOL0     H64093   6.577  12.373   5.415  1.7987 -2.9948  1.9331
  475MOL0     H64094   6.471  12.485   5.506  1.2549  1.2698 -0.5132
  475MOL0     H64095   6.736  12.379   5.607 -2.7739 -2.3690 -0.1066
  475MOL0     H64096   6.622  12.489   5.684 -1.8260 -2.5979  0.4039
  475MOL0     H64097   6.799  12.626   5.606  0.8910  0.5300 -1.3777
  475MOL0     H64098   6.668  12.674   5.509 -0.5709 -0.0755  0.5077
  475MOL0     H64099   6.863  12.453   5.407  2.1806  2.1220  2.8019
  475MOL0     H64100   6.746  12.530   5.312  0.1478 -0.8575  0.2265
  475MOL0     H64101   6.957  12.613   5.253 -2.4386  2.2643 -1.5986
  475MOL0     H64102   6.999  12.676   5.406  1.6010  0.6274 -1.7225
  475MOL0     H64103   6.807  12.837   5.403  0.5880  1.7382 -0.5078
  475MOL0     H64104   6.946  12.850   5.289 -0.4912  0.4306 -0.1721
  475MOL0     H64105   6.362  12.012   5.229 -0.6187 -1.0087 -0.5104
  475MOL0     H64106   6.199  11.918   5.111  0.9035  0.4503 -0.5671
  475MOL0     H64107   5.893  11.978   4.721 -1.1982  2.6471  1.1808
  475MOL0     H64108   5.716  11.883   4.589  4.0451  1.2840  0.4869
  475MOL0     H64109   4.077  10.848   4.215  1.3553  1.7877  0.1893
  475MOL0     H64110   3.837  10.829   4.225 -0.0202  0.3916 -0.2359
  475MOL0     H64111   3.469  10.913   4.741  1.3104  0.5423 -0.2996
  475MOL0     H64112   3.243  10.957   4.771 -0.4792 -2.4718  0.3964
  475MOL0     H64113   2.946  10.958   4.404 -1.8714  1.0273 -0.8327
  475MOL0     H64114   3.036  11.109   4.431  2.0239 -0.9995  1.1025
  475MOL0     H64115   2.815  11.174   4.471 -1.8426 -1.4271  0.0159
  475MOL0     H64116   2.902  11.187   4.616 -1.8046  2.1420 -0.7219
  475MOL0     H64117   2.735  11.091   4.713 -0.5738  1.5086 -1.7460
  475MOL0     H64118   2.826  10.943   4.688  0.3593 -0.2485 -1.7816
  475MOL0     H64119   2.717  10.897   4.477 -0.1984  1.0238 -0.3878
  475MOL0     H64120   2.599  10.884   4.609 -1.0007 -0.1064  0.1480
  475MOL0     H64121   2.464  11.188   4.355  0.7329  0.1532 -0.8881
  475MOL0     H64122   3.182  10.970   4.341  1.0323  1.9139 -0.1596
  475MOL0     H64123   3.349  10.897   4.198 -1.2031  2.3238  1.3297
  475MOL0     H64124   3.494  10.989   4.253  0.4974 -0.5800 -0.5680
  475MOL0     H64125   3.498  10.819   4.253 -1.0616 -0.6441  2.2250
  476MOL0     O64126   6.810   3.420   6.067  0.3826  0.5193  0.0259
  476MOL0     C64127   6.734   3.356   5.996 -0.2664  0.9240  0.9656
  476MOL0     O64128   6.602   3.340   6.015  0.5354 -0.2091  0.7517
  476MOL0     C64129   6.529   3.363   6.138  1.0523  0.0368 -0.0172
  476MOL0     C64130   6.586   3.380   6.266  0.0816 -0.2191 -0.8874
  476MOL0     C64131   6.501   3.396   6.381  0.2195 -0.3599  0.4550
  476MOL0     C64132   6.360   3.398   6.365  0.4676  0.6658  0.9161
  476MOL0     O64133   6.258   3.408   6.457  0.4420  0.2681 -0.7677
  476MOL0     C64134   6.302   3.383   6.591  0.1600 -0.3620  0.8290
  476MOL0     C64135   6.177   3.374   6.680  0.1316  0.4999 -0.0481
  476MOL0     C64136   6.064   3.279   6.640 -1.2013  0.1697  1.1722
  476MOL0     C64137   5.976   3.248   6.750 -0.5283 -0.4603 -0.2591
  476MOL0     C64138   5.882   3.362   6.772  0.5526 -0.2921 -0.7078
  476MOL0     C64139   5.770   3.324   6.874 -0.4009 -0.4002 -0.5276
  476MOL0     C64140   5.668   3.438   6.881  1.2790 -0.2330  0.7465
  476MOL0     C64141   5.586   3.440   6.745  0.4156  0.3862  0.0603
  476MOL0     N64142   5.465   3.522   6.766  0.2984  0.0423  0.2906
  476MOL0     C64143   5.458   3.636   6.838 -0.3073 -0.0248 -1.2334
  476MOL0     C64144   5.331   3.674   6.831  0.2925  0.0287  0.6356
  476MOL0     C64145   5.265   3.783   6.910  0.5340  0.1987 -0.1200
  476MOL0     C64146   5.237   3.910   6.828  0.5287  0.3122 -0.0829
  476MOL0     C64147   5.352   3.996   6.776 -0.8146  0.3440 -0.7242
  476MOL0     C64148   5.387   4.107   6.883  0.3159  0.1646  0.2611
  476MOL0     O64149   5.453   4.054   6.996 -0.1271  0.3841  0.2030
  476MOL0     C64150   5.578   4.003   6.977 -0.4580 -0.4884 -0.1437
  476MOL0     C64151   5.670   4.047   6.882 -0.2671 -0.0200  0.6492
  476MOL0     C64152   5.794   3.984   6.870  0.1485  0.0479 -0.5032
  476MOL0     C64153   5.837   3.891   6.965 -0.9713 -0.5905 -0.3386
  476MOL0     C64154   5.964   3.815   6.945  0.3864  0.0091 -0.1315
  476MOL0     O64155   5.998   3.710   7.025 -0.6567  0.2532  0.0968
  476MOL0     C64156   6.136   3.683   7.014 -0.6376 -0.5750  0.6923
  476MOL0     C64157   6.176   3.552   6.970 -0.1864 -0.7710  0.6628
  476MOL0     C64158   6.305   3.514   6.993 -0.4641  0.7012  0.4024
  476MOL0     C64159   6.405   3.617   7.034  0.2204  0.1604 -0.4962
  476MOL0     O64160   6.543   3.600   7.045  0.0623  0.5723  0.4047
  476MOL0     C64161   6.604   3.471   6.993 -0.2876  0.1983  0.0134
  476MOL0     C64162   6.583   3.466   6.850 -0.0930  1.0008  0.2850
  476MOL0     C64163   6.679   3.353   6.805 -0.7846  0.1443 -0.4749
  476MOL0     C64164   6.818   3.414   6.760 -0.6488  0.6104  0.4582
  476MOL0     C64165   6.935   3.359   6.838  0.6927  0.2078 -0.3475
  476MOL0     C64166   6.945   3.208   6.837 -0.2279 -0.2318  0.1425
  476MOL0     C64167   7.065   3.176   6.927  0.6661 -0.3936  0.4086
  476MOL0     C64168   7.134   3.047   6.917 -0.0916  1.0701 -0.3590
  476MOL0    Cl64169   7.299   3.059   6.830 -0.6977  0.2707  0.3181
  476MOL0     C64170   6.361   3.749   7.061 -0.1432 -0.4980  0.7308
  476MOL0     C64171   6.228   3.773   7.066 -0.0214  0.0748 -1.0163
  476MOL0     O64172   6.030   3.853   6.846  0.0160 -0.1666  0.3232
  476MOL0     C64173   5.751   3.852   7.063 -0.1619 -0.8672 -0.0093
  476MOL0     C64174   5.616   3.903   7.067 -0.9171  0.8376  0.4144
  476MOL0     N64175   5.254   3.589   6.750  0.0937  0.8100  0.0740
  476MOL0     N64176   5.343   3.496   6.709  0.0201  0.0091  0.0356
  476MOL0     C64177   6.305   3.387   6.232  0.1550 -0.7535  0.5631
  476MOL0     C64178   6.387   3.378   6.119 -0.3000  0.3966  0.3942
  476MOL0     C64179   6.798   3.276   5.886 -0.8402  0.4387 -0.4640
  476MOL0     C64180   6.723   3.170   5.842  0.2040  0.0228  1.1501
  476MOL0     C64181   6.763   3.095   5.734 -0.2981 -0.0734  1.0254
  476MOL0     C64182   6.887   3.126   5.669 -0.4860 -0.9368  1.0886
  476MOL0     O64183   6.924   3.057   5.565 -0.0836 -0.0169  0.1838
  476MOL0     C64184   7.010   3.111   5.457  0.0695  0.5926 -0.6791
  476MOL0     C64185   6.930   3.120   5.324  0.5747 -0.2273  0.2150
  476MOL0     C64186   6.873   3.261   5.298 -0.7219  0.0651  0.6550
  476MOL0     C64187   6.941   3.352   5.188  0.4762 -0.4940  0.2466
  476MOL0     C64188   7.085   3.370   5.204  0.0145 -0.7108 -0.2331
  476MOL0     C64189   7.206   3.386   5.209 -0.0632 -0.4611 -0.4354
  476MOL0     C64190   6.964   3.235   5.717  1.1368 -0.3325  0.9996
  476MOL0     C64191   6.926   3.306   5.827 -0.3847  0.7525 -0.8689
  476MOL0     C64192   7.024   3.413   5.872  0.3609  0.2873  1.1134
  476MOL0     H64193   6.691   3.354   6.277 -0.0840 -0.6503 -0.3155
  476MOL0     H64194   6.546   3.412   6.479 -2.2282 -0.0305  1.6094
  476MOL0     H64195   6.375   3.302   6.591  0.8377  0.1888 -1.1359
  476MOL0     H64196   6.359   3.472   6.623 -0.8901  0.3468  0.7630
  476MOL0     H64197   6.142   3.477   6.686 -0.9308  0.2273 -1.2064
  476MOL0     H64198   6.220   3.347   6.777  0.9563  1.4549 -0.1369
  476MOL0     H64199   6.108   3.191   6.593  0.5825  1.1435  0.9103
  476MOL0     H64200   6.005   3.324   6.560 -2.1249 -0.6190  1.4025
  476MOL0     H64201   5.914   3.163   6.717 -0.9431 -0.9414  1.6510
  476MOL0     H64202   6.034   3.231   6.841  2.2051  2.7995 -1.1830
  476MOL0     H64203   5.949   3.441   6.808 -1.9481 -0.2788  4.8915
  476MOL0     H64204   5.830   3.383   6.679  0.5585 -1.2009 -0.9286
  476MOL0     H64205   5.724   3.228   6.851 -0.9449 -0.7093  1.6346
  476MOL0     H64206   5.801   3.333   6.979 -0.6935  1.1237 -0.5398
  476MOL0     H64207   5.708   3.537   6.904 -0.4282  1.2821 -2.2058
  476MOL0     H64208   5.592   3.412   6.955 -0.0026 -1.9194 -1.0611
  476MOL0     H64209   5.645   3.466   6.656 -1.2444 -0.4636 -1.3612
  476MOL0     H64210   5.548   3.339   6.726  0.4769  0.9101 -3.8419
  476MOL0     H64211   5.546   3.673   6.889  3.3438 -4.0606 -3.9259
  476MOL0     H64212   5.175   3.735   6.949  1.0818  0.6207  1.7793
  476MOL0     H64213   5.331   3.803   6.995 -0.4360 -0.1657  0.7323
  476MOL0     H64214   5.189   3.874   6.737 -1.6209  1.5466  0.4909
  476MOL0     H64215   5.169   3.970   6.889 -2.3758  0.3161 -3.0181
  476MOL0     H64216   5.325   4.047   6.683  0.3838  0.7599 -0.8604
  476MOL0     H64217   5.439   3.936   6.749 -0.4401  1.5575 -2.3717
  476MOL0     H64218   5.302   4.161   6.927  2.9020  1.2512  4.5099
  476MOL0     H64219   5.446   4.191   6.847 -1.0722  2.1378  2.2875
  476MOL0     H64220   5.650   4.130   6.815  2.1021  2.3671  2.6590
  476MOL0     H64221   5.860   4.026   6.794 -0.9562 -1.0231 -2.1270
  476MOL0     H64222   6.102   3.480   6.937 -0.1266  0.3900 -2.3672
  476MOL0     H64223   6.335   3.410   6.981 -1.2326  0.5097  0.1042
  476MOL0     H64224   6.710   3.488   7.010 -0.6370  3.2647 -0.1691
  476MOL0     H64225   6.556   3.385   7.041  0.9323 -0.2926  0.3699
  476MOL0     H64226   6.480   3.434   6.831 -0.5429  0.3731  3.3104
  476MOL0     H64227   6.602   3.564   6.807  0.7917  0.4059 -0.7316
  476MOL0     H64228   6.688   3.276   6.882 -1.0280  0.1023 -0.4896
  476MOL0     H64229   6.640   3.305   6.715  5.3637 -1.5688 -2.7173
  476MOL0     H64230   6.816   3.522   6.774 -0.6088  0.3513  2.7797
  476MOL0     H64231   6.826   3.407   6.651 -1.7202  2.1532  0.2522
  476MOL0     H64232   6.931   3.399   6.940  2.0171 -0.3737 -0.0548
  476MOL0     H64233   7.024   3.399   6.791 -0.3933  0.3666 -2.3864
  476MOL0     H64234   6.857   3.159   6.880 -0.7755 -1.5552 -2.2954
  476MOL0     H64235   6.957   3.171   6.734 -2.0145  1.9407 -0.9193
  476MOL0     H64236   7.041   3.202   7.031  1.6554  2.2944  0.0517
  476MOL0     H64237   7.143   3.243   6.891  2.2669 -1.0583  2.4316
  476MOL0     H64238   7.159   3.028   7.021  0.1937  2.2161 -0.2039
  476MOL0     H64239   7.073   2.963   6.882  1.2196  0.0810 -0.3524
  476MOL0     H64240   6.422   3.833   7.092 -0.3409  0.9116 -2.3459
  476MOL0     H64241   6.179   3.862   7.104  3.0315  1.5556 -0.2916
  476MOL0     H64242   5.783   3.774   7.131  3.3718 -1.4224 -2.0764
  476MOL0     H64243   5.543   3.867   7.139 -0.2464 -2.2655 -0.3028
  476MOL0     H64244   6.198   3.376   6.212 -0.0210 -0.1270  1.1257
  476MOL0     H64245   6.345   3.377   6.019  1.8288  0.1046 -0.5393
  476MOL0     H64246   6.629   3.143   5.889 -0.4164 -1.5459 -0.8597
  476MOL0     H64247   6.704   3.011   5.698 -0.2031  0.1927  0.2442
  476MOL0     H64248   7.100   3.051   5.441  0.9155  2.3632 -3.1089
  476MOL0     H64249   7.040   3.211   5.490 -2.6296  1.1937  0.2131
  476MOL0     H64250   6.841   3.056   5.324 -1.3673  2.2127 -2.0805
  476MOL0     H64251   6.973   3.086   5.229 -1.5387 -0.8057 -0.5898
  476MOL0     H64252   6.876   3.313   5.394  1.3839  1.4840 -0.1027
  476MOL0     H64253   6.772   3.239   5.262 -0.4741 -2.4259  1.3178
  476MOL0     H64254   6.910   3.323   5.087  0.0184  1.4100 -0.1979
  476MOL0     H64255   6.911   3.457   5.196  3.1403  0.3069  0.7478
  476MOL0     H64256   7.307   3.420   5.218 -0.8803  1.5940  2.4306
  476MOL0     H64257   7.064   3.268   5.689  0.0088  1.9717 -0.5875
  476MOL0     H64258   6.984   3.513   5.851 -0.8948 -0.5568 -0.7053
  476MOL0     H64259   7.037   3.412   5.981 -2.6835  0.3994  1.5674
  476MOL0     H64260   7.125   3.397   5.833  0.8186 -0.9675  2.6967
  477MOL0     O64261   8.842   9.519   6.855  0.3651  0.2506 -0.1021
  477MOL0     C64262   8.849   9.630   6.898  0.0253  0.0656 -0.7994
  477MOL0     O64263   8.961   9.680   6.970  0.1465  0.1989 -0.6221
  477MOL0     C64264   9.071   9.598   6.988 -0.5821 -0.1243  0.5678
  477MOL0     C64265   9.167   9.591   6.888 -0.6820  0.4443 -0.2859
  477MOL0     C64266   9.277   9.512   6.913 -0.6217  0.3093 -0.4847
  477MOL0     C64267   9.299   9.423   7.024 -0.4483 -0.9868  0.7992
  477MOL0     O64268   9.418   9.346   7.034  0.1501  0.4279 -0.6854
  477MOL0     C64269   9.523   9.357   6.941 -0.7417  0.4442 -0.6552
  477MOL0     C64270   9.647   9.276   7.000  0.1286  0.7922  0.0897
  477MOL0     C64271   9.669   9.297   7.148  0.2637  0.5571 -0.4605
  477MOL0     C64272   9.780   9.208   7.193 -0.7303  0.1901  1.1647
  477MOL0     C64273   9.813   9.225   7.337 -0.1398 -0.1751 -0.5705
  477MOL0     C64274   9.894   9.099   7.374 -0.7182  0.6548 -0.8930
  477MOL0     C64275   9.926   9.108   7.521  0.0820  0.4371  0.1764
  477MOL0     C64276   9.991   8.975   7.575  0.4252  0.0878 -0.0107
  477MOL0     N64277  10.136   8.966   7.545  0.1748 -0.1536 -0.4759
  477MOL0     C64278  10.242   9.021   7.613 -0.1847  0.0759  0.2626
  477MOL0     C64279  10.352   8.986   7.529 -0.8534 -0.6833 -0.3124
  477MOL0     C64280  10.491   9.030   7.559 -0.0951 -0.0294  0.1561
  477MOL0     C64281  10.553   8.956   7.677  0.2609  0.3826  0.2390
  477MOL0     C64282  10.530   9.030   7.800 -0.9576 -0.4660 -0.6499
  477MOL0     C64283  10.528   8.954   7.937 -0.1408  0.6231  1.1214
  477MOL0     O64284  10.663   8.922   7.983 -0.0853  0.3325 -0.0510
  477MOL0     C64285  10.673   8.887   8.122  0.2251 -0.7871  0.3514
  477MOL0     C64286  10.579   8.799   8.179 -1.2149 -0.4263  0.5521
  477MOL0     C64287  10.585   8.761   8.314 -0.7891 -0.0786  0.9394
  477MOL0     C64288  10.689   8.814   8.394  0.1642  0.1650  0.2674
  477MOL0     C64289  10.700   8.777   8.534 -0.3131 -0.5730 -1.0220
  477MOL0     O64290  10.584   8.759   8.591  0.0726  0.0743 -0.2712
  477MOL0     C64291  10.584   8.727   8.719 -0.0317 -0.4213  0.7261
  477MOL0     C64292  10.513   8.616   8.756  0.3263  0.7157  0.6426
  477MOL0     C64293  10.518   8.574   8.885  0.4543 -0.1734 -0.8550
  477MOL0     C64294  10.592   8.656   8.982  0.0743 -0.5409 -0.1661
  477MOL0     O64295  10.601   8.615   9.116  0.7217 -0.0388 -0.6156
  477MOL0     C64296  10.468   8.599   9.172  0.1732  0.5741 -0.5461
  477MOL0     C64297  10.461   8.658   9.313 -0.2813  0.0799  0.1490
  477MOL0     C64298  10.469   8.809   9.312 -0.5656  0.3059 -0.2732
  477MOL0     C64299  10.534   8.873   9.439 -0.9103 -0.2593 -0.4764
  477MOL0     C64300  10.509   9.024   9.444  0.2707 -0.1240 -0.3937
  477MOL0     C64301  10.573   9.088   9.324 -0.5697 -0.3646  0.0636
  477MOL0     C64302  10.576   9.237   9.356 -0.4817 -0.0351  0.6745
  477MOL0     C64303  10.550   9.339   9.235  0.5063  0.0910  0.6554
  477MOL0    Cl64304  10.711   9.348   9.158  0.4015 -0.2052 -0.1776
  477MOL0     C64305  10.651   8.772   8.940 -0.4914 -0.2162  0.1914
  477MOL0     C64306  10.653   8.812   8.807 -0.7034  0.3835 -0.6243
  477MOL0     O64307  10.820   8.767   8.586  0.7386  0.2778 -0.0329
  477MOL0     C64308  10.786   8.907   8.329 -0.7051  0.6690 -0.0508
  477MOL0     C64309  10.777   8.934   8.196  1.0779  0.2901 -0.0167
  477MOL0     N64310  10.307   8.920   7.419  0.1873 -0.0174 -0.1660
  477MOL0     N64311  10.179   8.911   7.432 -0.2255 -0.4716  0.0745
  477MOL0     C64312   9.190   9.434   7.122  0.3733  0.7859 -0.3602
  477MOL0     C64313   9.083   9.523   7.106 -0.5186  0.4693  0.5335
  477MOL0     C64314   8.734   9.732   6.871 -0.8959  0.3523 -0.4079
  477MOL0     C64315   8.701   9.762   6.738  0.3956 -0.1560  0.3438
  477MOL0     C64316   8.592   9.850   6.718 -0.0917 -0.4900  0.2704
  477MOL0     C64317   8.531   9.921   6.819  0.1560 -0.7789  0.9908
  477MOL0     O64318   8.442  10.016   6.783  0.1905  0.1476  0.3980
  477MOL0     C64319   8.472  10.154   6.794 -0.2438 -0.3214  0.1967
  477MOL0     C64320   8.563  10.199   6.674  0.2459 -0.4345  0.1948
  477MOL0     C64321   8.487  10.172   6.545 -0.1171  0.3907  0.0461
  477MOL0     C64322   8.571  10.226   6.425 -0.7680  0.3842  0.3341
  477MOL0     C64323   8.505  10.227   6.294 -0.4355  0.1275  0.1244
  477MOL0     C64324   8.458  10.250   6.183 -0.3351 -0.5557 -0.5074
  477MOL0     C64325   8.580   9.904   6.947 -0.7645 -0.2619  0.2729
  477MOL0     C64326   8.682   9.812   6.975 -0.0779  0.3290  0.0851
  477MOL0     C64327   8.718   9.789   7.123  0.7914  1.0514  0.3620
  477MOL0     H64328   9.166   9.656   6.801  1.4457 -0.2967 -0.9462
  477MOL0     H64329   9.347   9.521   6.830 -0.2908  1.4468 -0.0964
  477MOL0     H64330   9.492   9.317   6.844 -0.0285 -0.7923 -0.4066
  477MOL0     H64331   9.558   9.459   6.925  2.1482 -0.6015 -1.8730
  477MOL0     H64332   9.731   9.312   6.940  0.4279 -0.6735 -0.4295
  477MOL0     H64333   9.633   9.170   6.979  0.3742  0.8248 -0.2303
  477MOL0     H64334   9.579   9.257   7.195 -1.2351  1.9476 -2.0382
  477MOL0     H64335   9.695   9.400   7.177  0.4651  0.8196 -1.5368
  477MOL0     H64336   9.747   9.106   7.174 -1.3042  0.5980 -0.0953
  477MOL0     H64337   9.876   9.224   7.142 -1.8272  0.5984 -0.8713
  477MOL0     H64338   9.873   9.313   7.364 -3.3470  1.1010  3.4554
  477MOL0     H64339   9.723   9.221   7.399 -0.3932 -0.0787 -0.9256
  477MOL0     H64340   9.836   9.007   7.359 -2.7467  0.8988  3.6311
  477MOL0     H64341   9.983   9.108   7.312 -0.9179  2.3850 -0.9632
  477MOL0     H64342   9.834   9.111   7.579  0.3818 -1.3500  0.7958
  477MOL0     H64343   9.979   9.197   7.559 -0.6040  0.1362  1.9413
  477MOL0     H64344   9.977   8.970   7.683 -2.0337  0.3117 -0.2720
  477MOL0     H64345   9.949   8.879   7.543  3.6668 -2.3414  2.2575
  477MOL0     H64346  10.246   9.074   7.708 -1.5405 -2.5295  1.9173
  477MOL0     H64347  10.543   9.003   7.467  3.2754  1.9613  1.2711
  477MOL0     H64348  10.493   9.140   7.564  0.8357 -0.0111 -0.3205
  477MOL0     H64349  10.499   8.861   7.678  1.3572 -0.2573  0.2965
  477MOL0     H64350  10.658   8.927   7.673 -0.0964 -0.9731  0.1873
  477MOL0     H64351  10.435   9.085   7.799 -1.0952 -0.7060 -0.7345
  477MOL0     H64352  10.613   9.100   7.813 -1.6167  0.0664  1.1694
  477MOL0     H64353  10.480   8.858   7.914  3.4104 -0.3856 -3.3257
  477MOL0     H64354  10.465   8.992   8.019 -0.4004 -3.6371  3.2313
  477MOL0     H64355  10.501   8.751   8.121 -2.0598  1.0657  0.4168
  477MOL0     H64356  10.507   8.698   8.354 -0.7182  0.0761  1.3225
  477MOL0     H64357  10.456   8.567   8.678  2.2997  0.0659 -0.4720
  477MOL0     H64358  10.463   8.489   8.923 -2.9677 -0.0213 -4.7937
  477MOL0     H64359  10.387   8.650   9.119  1.4179  1.0904 -2.0061
  477MOL0     H64360  10.450   8.492   9.171  3.0644  0.0105 -1.1478
  477MOL0     H64361  10.375   8.619   9.367 -0.0043 -2.0321 -0.8317
  477MOL0     H64362  10.542   8.625   9.377 -0.8935 -1.8600 -0.0345
  477MOL0     H64363  10.505   8.844   9.215  2.7992  0.2701  0.8589
  477MOL0     H64364  10.368   8.851   9.307  0.2705  2.5100  0.4075
  477MOL0     H64365  10.643   8.867   9.434 -0.8006 -0.5442  1.6047
  477MOL0     H64366  10.502   8.816   9.527  3.7448 -1.1804  0.9228
  477MOL0     H64367  10.566   9.070   9.526 -0.4577 -1.8996  1.1749
  477MOL0     H64368  10.403   9.042   9.463 -0.2481 -2.2338 -1.0742
  477MOL0     H64369  10.674   9.047   9.315 -0.1007  0.7259  0.2896
  477MOL0     H64370  10.518   9.072   9.230  0.6722 -0.7013 -0.6217
  477MOL0     H64371  10.664   9.261   9.416 -0.1211  2.2894 -0.6735
  477MOL0     H64372  10.494   9.258   9.425 -1.2713  3.3766 -1.0699
  477MOL0     H64373  10.468   9.307   9.171 -0.2450 -0.3496  1.8042
  477MOL0     H64374  10.523   9.430   9.288 -1.2516 -1.6001  2.8855
  477MOL0     H64375  10.684   8.845   9.013 -1.8002 -0.3549  0.9460
  477MOL0     H64376  10.705   8.899   8.771  1.4308 -0.6496 -0.1710
  477MOL0     H64377  10.875   8.939   8.382  1.3376 -0.6135 -2.4853
  477MOL0     H64378  10.844   9.010   8.157 -1.2613  3.7959  2.1697
  477MOL0     H64379   9.206   9.376   7.212 -0.7171 -2.7409 -2.2455
  477MOL0     H64380   9.004   9.527   7.179  0.5714 -1.4714  1.9053
  477MOL0     H64381   8.740   9.702   6.656 -0.9678  0.1546 -0.5774
  477MOL0     H64382   8.545   9.866   6.622  0.2697  0.4652  0.2462
  477MOL0     H64383   8.508  10.174   6.895  0.5380  0.3807 -0.2094
  477MOL0     H64384   8.377  10.206   6.783  0.6829  2.4272  3.3753
  477MOL0     H64385   8.650  10.133   6.676  1.1624  0.6484  3.7215
  477MOL0     H64386   8.595  10.304   6.677  1.8030 -0.7345 -2.7336
  477MOL0     H64387   8.392  10.227   6.546  0.4569  1.4460  1.4683
  477MOL0     H64388   8.470  10.065   6.536  2.8606 -0.3004  1.2653
  477MOL0     H64389   8.618  10.323   6.442  4.0892 -2.0112  2.7783
  477MOL0     H64390   8.661  10.165   6.417 -1.8056 -1.2815  0.6700
  477MOL0     H64391   8.430  10.272   6.082  2.5181  0.4195 -1.1902
  477MOL0     H64392   8.532   9.953   7.032 -2.6505 -2.1268  0.3801
  477MOL0     H64393   8.629   9.809   7.185  0.7157  2.0839 -0.0608
  477MOL0     H64394   8.749   9.687   7.144 -1.0988 -0.5131 -3.5049
  477MOL0     H64395   8.786   9.870   7.150  0.7667  0.9317  0.8013
  478MOL0     O64396   9.595   8.884   2.303 -0.0052  0.9502  0.4826
  478MOL0     C64397   9.627   8.811   2.211  0.1585  0.1097  0.4724
  478MOL0     O64398   9.548   8.711   2.155 -0.7664 -0.1596  0.9978
  478MOL0     C64399   9.417   8.703   2.195 -0.5126  0.5986 -0.2297
  478MOL0     C64400   9.334   8.812   2.180 -0.5599  0.0186 -0.4689
  478MOL0     C64401   9.196   8.801   2.219 -0.3762 -0.2369 -0.6570
  478MOL0     C64402   9.147   8.674   2.270  0.0611  0.4257 -0.1175
  478MOL0     O64403   9.015   8.677   2.304  0.3772 -0.1705 -0.3818
  478MOL0     C64404   8.938   8.553   2.299 -0.3797  0.3977  0.1752
  478MOL0     C64405   8.784   8.583   2.268 -0.4835  0.5175 -0.1422
  478MOL0     C64406   8.771   8.666   2.145 -0.1667 -0.2923  0.2157
  478MOL0     C64407   8.622   8.701   2.127  0.6497 -0.7782 -0.3823
  478MOL0     C64408   8.599   8.779   1.995 -0.4084  0.1692 -0.6284
  478MOL0     C64409   8.445   8.813   1.984  0.9382 -0.7530  0.2842
  478MOL0     C64410   8.355   8.679   1.979  0.7893  0.7358 -0.1347
  478MOL0     C64411   8.235   8.687   1.884 -0.1181  0.0937  0.2158
  478MOL0     N64412   8.135   8.791   1.926  0.0131  0.5020 -0.0084
  478MOL0     C64413   8.004   8.764   1.972 -0.9431  0.3503 -0.2986
  478MOL0     C64414   7.942   8.882   2.000 -0.2173  0.3482 -0.8597
  478MOL0     C64415   7.787   8.877   2.028  0.6284  0.3631 -0.1076
  478MOL0     C64416   7.718   8.905   1.898  0.0596  0.4872 -0.0855
  478MOL0     C64417   7.712   9.048   1.868 -0.2037 -0.0203 -0.6185
  478MOL0     C64418   7.635   9.083   1.739  0.4762 -0.1160  0.0752
  478MOL0     O64419   7.502   9.015   1.730 -0.0685 -0.2378 -0.4477
  478MOL0     C64420   7.388   9.072   1.776 -0.2496  0.7090 -0.1305
  478MOL0     C64421   7.264   9.009   1.751 -0.8254  0.6211  0.9190
  478MOL0     C64422   7.146   9.061   1.791  0.1754 -0.0622 -0.0552
  478MOL0     C64423   7.136   9.176   1.870 -0.1293  0.7527 -0.3756
  478MOL0     C64424   7.011   9.233   1.927 -0.0292 -0.4344 -0.4660
  478MOL0     O64425   7.034   9.330   2.026  1.3198 -0.7836  0.2171
  478MOL0     C64426   6.939   9.414   2.075  0.3066  0.1384  0.6001
  478MOL0     C64427   6.990   9.508   2.165 -0.1420  0.1249  0.6302
  478MOL0     C64428   6.910   9.604   2.220 -0.1167 -0.5279 -0.0650
  478MOL0     C64429   6.770   9.607   2.201 -0.4123  1.2346  0.9724
  478MOL0     O64430   6.705   9.709   2.264 -0.1445 -0.4788 -0.7980
  478MOL0     C64431   6.564   9.734   2.252  0.3541 -0.3734 -0.6200
  478MOL0     C64432   6.529   9.880   2.290  0.5555  0.0168 -0.7033
  478MOL0     C64433   6.541   9.906   2.444 -0.3429 -0.6727  0.0430
  478MOL0     C64434   6.456  10.022   2.499 -0.0595 -0.0023  0.6422
  478MOL0     C64435   6.460  10.056   2.646 -0.5519 -0.0446  0.1484
  478MOL0     C64436   6.409   9.941   2.730  0.5725 -0.3285 -0.1903
  478MOL0     C64437   6.251   9.933   2.718 -0.6918 -0.1698  0.0142
  478MOL0     C64438   6.191   9.862   2.831  0.0578  0.2621  0.6088
  478MOL0    Cl64439   6.245   9.689   2.812 -0.4456 -0.1751  0.3205
  478MOL0     C64440   6.718   9.512   2.112 -0.0646 -0.3164  0.1434
  478MOL0     C64441   6.804   9.420   2.047  0.8476  0.4203  0.4837
  478MOL0     O64442   6.899   9.212   1.873 -0.7110 -0.0269 -0.8171
  478MOL0     C64443   7.255   9.235   1.894  0.4287 -0.4269  0.8069
  478MOL0     C64444   7.378   9.190   1.846 -0.9438  0.6939 -0.2216
  478MOL0     N64445   8.035   8.983   1.973  0.2597  0.5725  0.4687
  478MOL0     N64446   8.146   8.928   1.924  0.4718  0.0922  0.5449
  478MOL0     C64447   9.238   8.568   2.285 -0.6462 -0.1258 -0.1827
  478MOL0     C64448   9.373   8.585   2.248 -0.2025  0.6325 -0.0913
  478MOL0     C64449   9.762   8.836   2.165  0.0306 -0.1161 -0.2049
  478MOL0     C64450   9.813   8.971   2.181 -0.7954  0.2530  0.5958
  478MOL0     C64451   9.944   9.005   2.148 -0.4181 -0.5869 -0.7277
  478MOL0     C64452  10.032   8.906   2.110 -0.7941 -0.4484  0.4543
  478MOL0     O64453  10.165   8.935   2.089  0.4460  0.2148 -0.6568
  478MOL0     C64454  10.242   8.934   2.209  0.1829  0.3970  0.5256
  478MOL0     C64455  10.331   8.809   2.204 -0.2124 -0.4315  0.1106
  478MOL0     C64456  10.410   8.779   2.337 -0.5020 -0.5616 -0.5480
  478MOL0     C64457  10.530   8.866   2.366 -0.1825  0.5135  0.9036
  478MOL0     C64458  10.626   8.886   2.249 -0.1969  0.2426  0.5704
  478MOL0     C64459  10.696   8.896   2.152 -0.2407 -0.8409  0.1039
  478MOL0     C64460   9.983   8.783   2.083  0.0262 -0.6966 -0.0551
  478MOL0     C64461   9.847   8.738   2.107  0.3078 -0.0360  0.7421
  478MOL0     C64462   9.791   8.596   2.067  0.2035 -0.2906 -0.1309
  478MOL0     H64463   9.362   8.908   2.138  0.2142 -0.0438 -0.0996
  478MOL0     H64464   9.135   8.889   2.204  2.0409  1.3318 -2.1741
  478MOL0     H64465   8.977   8.479   2.228 -3.7079 -2.4169  0.9782
  478MOL0     H64466   8.949   8.513   2.400 -2.8199 -4.1952 -1.0969
  478MOL0     H64467   8.750   8.645   2.352 -1.6731 -0.6785  0.2819
  478MOL0     H64468   8.724   8.492   2.260 -2.1829  1.2866  2.3767
  478MOL0     H64469   8.794   8.611   2.054 -3.3419 -1.9716  0.2810
  478MOL0     H64470   8.837   8.753   2.152 -1.1733  0.3542  4.0406
  478MOL0     H64471   8.573   8.603   2.124  0.6142 -0.7440 -1.5596
  478MOL0     H64472   8.585   8.766   2.207  0.5034  1.3424 -2.0876
  478MOL0     H64473   8.658   8.870   2.007  1.3207 -0.9541 -0.0895
  478MOL0     H64474   8.634   8.720   1.909 -0.1557 -2.2824  1.0425
  478MOL0     H64475   8.410   8.873   2.069 -2.8212  1.8792 -2.7657
  478MOL0     H64476   8.424   8.877   1.898  1.5818 -2.1257 -0.9238
  478MOL0     H64477   8.325   8.659   2.083  0.5211 -2.8161 -0.7677
  478MOL0     H64478   8.424   8.598   1.955  1.3221  1.1307  0.0224
  478MOL0     H64479   8.275   8.709   1.785  3.2020  1.5560  1.7325
  478MOL0     H64480   8.182   8.591   1.890  2.0436 -1.0881  1.3998
  478MOL0     H64481   7.961   8.664   1.980  1.4111 -0.5804  3.4120
  478MOL0     H64482   7.758   8.782   2.075 -0.3859  0.5457 -0.3481
  478MOL0     H64483   7.752   8.948   2.104 -1.8483  1.6526 -2.2824
  478MOL0     H64484   7.766   8.844   1.821 -0.0970 -0.4986  0.5709
  478MOL0     H64485   7.621   8.854   1.904  0.6673 -1.6038 -4.4516
  478MOL0     H64486   7.814   9.088   1.862 -0.3491  0.2657 -1.2928
  478MOL0     H64487   7.670   9.095   1.958  3.4484  1.5001  0.4675
  478MOL0     H64488   7.688   9.040   1.654 -0.1615 -2.2162  0.6580
  478MOL0     H64489   7.624   9.191   1.729 -2.5549  0.1984  4.1647
  478MOL0     H64490   7.281   8.921   1.690 -2.1256  1.2425 -0.3945
  478MOL0     H64491   7.057   9.002   1.775  0.8073 -1.0182 -0.1392
  478MOL0     H64492   7.097   9.493   2.175  0.5901  0.9420 -3.7580
  478MOL0     H64493   6.944   9.675   2.295 -0.9802  0.0738 -0.2294
  478MOL0     H64494   6.541   9.728   2.145  0.5570  0.4300 -0.7083
  478MOL0     H64495   6.504   9.662   2.309 -1.0578  2.9573  2.4944
  478MOL0     H64496   6.589   9.955   2.238  3.2263  0.2525  2.3948
  478MOL0     H64497   6.421   9.891   2.275  0.0707 -0.4410  1.9616
  478MOL0     H64498   6.510   9.815   2.496 -0.6426 -1.6750 -1.8273
  478MOL0     H64499   6.646   9.930   2.466 -0.4677 -1.1945  1.3227
  478MOL0     H64500   6.353  10.010   2.465 -0.1974  0.7349  0.7867
  478MOL0     H64501   6.481  10.114   2.445 -3.3120 -0.9885 -2.9448
  478MOL0     H64502   6.406  10.148   2.670  2.5016  1.6611  1.0189
  478MOL0     H64503   6.565  10.082   2.663 -0.0944 -1.8015  0.2026
  478MOL0     H64504   6.447   9.847   2.692 -2.5389 -1.4994 -0.7319
  478MOL0     H64505   6.441   9.968   2.831 -1.3283  4.2336 -0.5165
  478MOL0     H64506   6.228   9.884   2.623  3.0506 -1.9159 -0.1825
  478MOL0     H64507   6.195  10.026   2.704 -2.1536 -0.6929  1.9496
  478MOL0     H64508   6.226   9.905   2.925 -1.9944  0.6783  1.2238
  478MOL0     H64509   6.082   9.864   2.822  0.2241  1.4931 -5.0695
  478MOL0     H64510   6.615   9.501   2.082  0.1203  0.0180 -0.6247
  478MOL0     H64511   6.754   9.357   1.974  1.4316 -0.2986  0.6825
  478MOL0     H64512   7.261   9.326   1.952  1.2700 -0.2862  0.5121
  478MOL0     H64513   7.462   9.251   1.878  0.4566 -0.2870 -1.8925
  478MOL0     H64514   9.200   8.480   2.335 -3.6768 -0.0767 -2.1400
  478MOL0     H64515   9.449   8.508   2.250  0.4853  1.3094  0.2318
  478MOL0     H64516   9.754   9.056   2.214  1.1972  1.9435 -0.0282
  478MOL0     H64517   9.978   9.104   2.174 -0.2908 -0.9881  0.7306
  478MOL0     H64518  10.170   8.928   2.292  1.7581 -0.7127  1.8819
  478MOL0     H64519  10.307   9.020   2.219 -1.1810  1.4609  0.5224
  478MOL0     H64520  10.393   8.805   2.115  1.9096 -0.4323  1.5191
  478MOL0     H64521  10.265   8.723   2.190 -0.3447 -0.3913  0.4701
  478MOL0     H64522  10.450   8.678   2.320  3.1197  0.7416 -0.6171
  478MOL0     H64523  10.341   8.784   2.421  0.9397  2.2165  0.5981
  478MOL0     H64524  10.499   8.965   2.402  4.7922  2.4938  0.5416
  478MOL0     H64525  10.584   8.813   2.445 -0.2888  0.3483  0.8661
  478MOL0     H64526  10.752   8.878   2.062 -2.7567  0.2165 -1.7877
  478MOL0     H64527  10.063   8.723   2.040  0.7674  0.0195  0.2908
  478MOL0     H64528   9.865   8.549   2.002  0.5396 -3.3695  2.2497
  478MOL0     H64529   9.780   8.529   2.152  2.3419  0.5959  0.9153
  478MOL0     H64530   9.702   8.617   2.006  1.4592  1.4846 -1.4573
  479MOL0     O64531   2.510   8.753   3.947  0.1435 -0.7151  0.0919
  479MOL0     C64532   2.536   8.753   4.068 -0.4523  0.2081 -0.3337
  479MOL0     O64533   2.487   8.649   4.160 -0.4559 -0.1876 -0.0508
  479MOL0     C64534   2.388   8.568   4.126 -0.1424 -0.4917  0.5881
  479MOL0     C64535   2.370   8.515   4.003 -1.4128 -0.2258  0.1494
  479MOL0     C64536   2.249   8.455   3.968  0.2157  0.7696  0.3361
  479MOL0     C64537   2.143   8.446   4.056 -0.0929 -0.7234 -0.1292
  479MOL0     O64538   2.017   8.406   4.022 -0.3779  0.2858  0.1487
  479MOL0     C64539   2.010   8.286   3.939  0.5173 -0.2092 -0.4544
  479MOL0     C64540   1.869   8.288   3.872 -0.0160 -0.1390 -0.3803
  479MOL0     C64541   1.821   8.146   3.837 -0.5091 -0.7782 -0.8941
  479MOL0     C64542   1.702   8.136   3.747 -0.6347 -0.3727 -0.2347
  479MOL0     C64543   1.679   7.995   3.711  0.7270  0.6898  0.4232
  479MOL0     C64544   1.532   7.987   3.661  0.1439 -0.2788  0.1940
  479MOL0     C64545   1.495   8.024   3.520  0.0667  0.7271  0.4039
  479MOL0     C64546   1.467   7.907   3.418  0.2603  0.7805  0.4278
  479MOL0     N64547   1.601   7.853   3.382 -0.3106 -0.5889 -0.1205
  479MOL0     C64548   1.657   7.732   3.437  0.0882 -0.6194 -0.5283
  479MOL0     C64549   1.776   7.720   3.369  0.2893  0.6320  0.3349
  479MOL0     C64550   1.880   7.613   3.384 -0.4647  0.6281  1.0991
  479MOL0     C64551   1.918   7.528   3.265 -0.3043  0.0279  0.9555
  479MOL0     C64552   2.012   7.417   3.296 -1.0073  0.0182 -0.8173
  479MOL0     C64553   2.166   7.458   3.274  1.2563 -0.7267  0.5479
  479MOL0     O64554   2.249   7.339   3.304  0.1559 -0.7076  0.7114
  479MOL0     C64555   2.379   7.339   3.268  0.0800 -0.5157 -0.3412
  479MOL0     C64556   2.448   7.451   3.223 -0.0312 -0.0910  0.7957
  479MOL0     C64557   2.578   7.443   3.188 -0.0429 -0.7614 -0.5252
  479MOL0     C64558   2.651   7.325   3.201 -0.5452  0.2470  0.2142
  479MOL0     C64559   2.798   7.318   3.164  0.0539  0.0202  0.1536
  479MOL0     O64560   2.851   7.191   3.149 -0.9803 -0.5885  0.1222
  479MOL0     C64561   2.986   7.170   3.111  0.0210  0.0650 -1.3007
  479MOL0     C64562   3.027   7.042   3.123  0.5146  0.8794  0.2956
  479MOL0     C64563   3.160   7.004   3.093 -0.5760  0.6827 -0.3373
  479MOL0     C64564   3.261   7.095   3.056  0.9255 -0.6895 -0.9449
  479MOL0     O64565   3.379   7.043   3.021 -0.2706  0.6620  0.5946
  479MOL0     C64566   3.493   7.137   3.020 -0.0331  0.6414 -0.0263
  479MOL0     C64567   3.622   7.053   2.981 -0.0125  0.0484 -1.0779
  479MOL0     C64568   3.589   6.935   2.896 -0.5549  0.1420 -0.1811
  479MOL0     C64569   3.720   6.872   2.829  0.1308  0.3422 -0.2389
  479MOL0     C64570   3.684   6.732   2.780 -0.0150  0.1317 -0.3976
  479MOL0     C64571   3.816   6.657   2.744  0.1920 -0.9420 -0.4083
  479MOL0     C64572   3.795   6.515   2.705 -0.7806  0.2778 -0.7910
  479MOL0     C64573   3.918   6.462   2.631 -0.0040 -0.4838  0.2257
  479MOL0    Cl64574   3.912   6.283   2.609 -0.0529 -0.1041 -0.3229
  479MOL0     C64575   3.219   7.232   3.051  0.3031  0.6229  0.5573
  479MOL0     C64576   3.084   7.265   3.069  0.2748  0.6982 -0.2835
  479MOL0     O64577   2.855   7.424   3.176 -0.2679 -0.1853  0.4938
  479MOL0     C64578   2.587   7.212   3.255  0.1117  0.0394  0.1666
  479MOL0     C64579   2.448   7.218   3.276 -0.1013  0.0481 -0.8644
  479MOL0     N64580   1.783   7.823   3.286  0.0756 -1.5726  0.1070
  479MOL0     N64581   1.681   7.893   3.282 -0.5007  0.4808 -0.5185
  479MOL0     C64582   2.161   8.497   4.186  0.0697  0.2649 -0.7852
  479MOL0     C64583   2.280   8.565   4.216 -0.7354 -0.0098 -0.0468
  479MOL0     C64584   2.613   8.865   4.136  0.1184  0.0670 -0.0146
  479MOL0     C64585   2.649   8.848   4.271 -0.8718  0.3567 -0.4140
  479MOL0     C64586   2.718   8.948   4.343  0.2639  0.7499  0.1631
  479MOL0     C64587   2.742   9.067   4.281  1.0346  0.1203 -0.7394
  479MOL0     O64588   2.825   9.161   4.338  0.2140 -0.3840 -0.6883
  479MOL0     C64589   2.793   9.201   4.468  0.8505 -0.1365 -0.6081
  479MOL0     C64590   2.807   9.342   4.490  0.0519  0.0260 -0.0885
  479MOL0     C64591   2.749   9.440   4.386 -0.4525 -0.3204 -0.0966
  479MOL0     C64592   2.599   9.411   4.367 -0.3476 -0.3025 -0.0814
  479MOL0     C64593   2.533   9.521   4.294 -0.3373 -0.6789  0.6721
  479MOL0     C64594   2.484   9.620   4.238  0.7043 -0.2495 -0.2376
  479MOL0     C64595   2.702   9.085   4.149 -0.2710 -0.6786 -0.1842
  479MOL0     C64596   2.653   8.984   4.079 -0.1981 -0.5075  0.4169
  479MOL0     C64597   2.609   9.013   3.937 -0.2838 -0.3377 -0.6132
  479MOL0     H64598   2.452   8.521   3.933 -0.3296 -0.5664  1.3551
  479MOL0     H64599   2.237   8.419   3.866  0.1432 -3.0351  1.5212
  479MOL0     H64600   2.086   8.294   3.860  0.4590 -1.4150 -0.6503
  479MOL0     H64601   2.026   8.198   4.003  1.0819  0.4441  0.3226
  479MOL0     H64602   1.869   8.352   3.784 -3.8458 -0.2333 -0.6451
  479MOL0     H64603   1.793   8.346   3.926  0.6783  2.2208 -1.8212
  479MOL0     H64604   1.804   8.092   3.930  2.6081  1.0176  0.9062
  479MOL0     H64605   1.909   8.098   3.793 -0.3674 -0.3604 -1.0755
  479MOL0     H64606   1.628   8.175   3.818  1.2673  1.9986  0.5786
  479MOL0     H64607   1.724   8.189   3.654 -1.1840 -1.3513 -0.9345
  479MOL0     H64608   1.747   7.958   3.634 -0.4493 -0.4342 -0.1065
  479MOL0     H64609   1.692   7.916   3.785  1.0549  0.5547  0.2227
  479MOL0     H64610   1.517   7.879   3.670  0.4505 -0.2728  0.8457
  479MOL0     H64611   1.460   8.025   3.733  1.3494 -2.1004  2.4980
  479MOL0     H64612   1.580   8.082   3.481  1.6186 -1.8012 -0.2259
  479MOL0     H64613   1.416   8.099   3.512  1.0683  1.7642 -0.2714
  479MOL0     H64614   1.399   7.830   3.455  0.0018  0.3369 -0.9241
  479MOL0     H64615   1.424   7.953   3.329 -1.5803  0.3418  1.0578
  479MOL0     H64616   1.597   7.671   3.504 -2.8752  3.0742  0.5226
  479MOL0     H64617   1.965   7.662   3.431  1.9833 -0.2557 -2.0819
  479MOL0     H64618   1.843   7.540   3.456 -0.0573 -1.7709 -0.9630
  479MOL0     H64619   1.825   7.486   3.225 -2.1877  3.5388  1.2551
  479MOL0     H64620   1.970   7.598   3.200  1.7162 -3.1444 -1.1262
  479MOL0     H64621   1.991   7.334   3.228 -2.0924 -0.1834 -0.2599
  479MOL0     H64622   2.001   7.381   3.399  2.2348 -0.3203 -0.4881
  479MOL0     H64623   2.195   7.537   3.344  1.5070  1.4267 -1.8175
  479MOL0     H64624   2.191   7.494   3.173  3.3698 -0.2742  1.1779
  479MOL0     H64625   2.415   7.553   3.210  1.7042  0.3382 -0.6389
  479MOL0     H64626   2.619   7.534   3.146  0.9803 -0.9401  0.0469
  479MOL0     H64627   2.970   6.958   3.163  2.9306 -0.0133  2.1665
  479MOL0     H64628   3.187   6.899   3.086 -1.2453  0.5955 -2.4096
  479MOL0     H64629   3.477   7.222   2.953 -2.0916  2.3492  2.4303
  479MOL0     H64630   3.493   7.191   3.115 -1.6736 -0.2705  0.5293
  479MOL0     H64631   3.689   7.111   2.917 -0.3597  1.5956 -0.1055
  479MOL0     H64632   3.682   7.027   3.069 -2.2576  1.6410  1.0691
  479MOL0     H64633   3.532   6.869   2.962  0.7128 -0.1954  0.5963
  479MOL0     H64634   3.515   6.969   2.822 -1.0734  1.3192  0.8469
  479MOL0     H64635   3.807   6.859   2.894 -1.8894  0.0062  2.5292
  479MOL0     H64636   3.750   6.938   2.746  0.2021  1.5916  0.7572
  479MOL0     H64637   3.612   6.736   2.698 -1.2900 -1.0801  0.6075
  479MOL0     H64638   3.637   6.671   2.858  0.6961 -3.5466 -2.6011
  479MOL0     H64639   3.870   6.713   2.666  1.5772 -0.0379  1.1294
  479MOL0     H64640   3.884   6.659   2.829  1.5901  5.7792 -1.1102
  479MOL0     H64641   3.706   6.510   2.640 -0.8040  0.6243 -0.7859
  479MOL0     H64642   3.781   6.446   2.788 -2.8978  1.0370 -0.4560
  479MOL0     H64643   3.931   6.522   2.541  0.6840  0.0277  0.6555
  479MOL0     H64644   4.003   6.487   2.695 -1.2830 -0.2680  1.9128
  479MOL0     H64645   3.286   7.310   3.015 -3.0018  3.3480 -0.2157
  479MOL0     H64646   3.076   7.373   3.070 -2.3027  0.5676  0.5521
  479MOL0     H64647   2.643   7.120   3.262 -0.7153 -0.5411 -0.6923
  479MOL0     H64648   2.395   7.126   3.296 -0.2726 -0.2872 -2.6812
  479MOL0     H64649   2.087   8.482   4.264  0.7497  1.4464  0.1133
  479MOL0     H64650   2.298   8.611   4.313 -0.3308  3.7329 -1.7250
  479MOL0     H64651   2.615   8.759   4.322 -2.4142 -1.0164 -3.5888
  479MOL0     H64652   2.747   8.931   4.446  0.9250  2.2705  0.2543
  479MOL0     H64653   2.851   9.149   4.544  0.4527  2.0097  1.2825
  479MOL0     H64654   2.688   9.181   4.491  0.1656  0.8242 -2.6832
  479MOL0     H64655   2.915   9.363   4.494  0.1433 -0.5170  2.5459
  479MOL0     H64656   2.755   9.347   4.586  0.0173 -1.0988 -0.0360
  479MOL0     H64657   2.793   9.427   4.286 -3.1953 -0.2512 -1.4105
  479MOL0     H64658   2.772   9.535   4.434 -1.4184 -0.4687  0.6922
  479MOL0     H64659   2.577   9.320   4.310 -0.2673 -1.3130  1.4532
  479MOL0     H64660   2.550   9.407   4.465 -0.2324  0.5229  0.0222
  479MOL0     H64661   2.436   9.695   4.178  1.8771  0.1870 -0.6608
  479MOL0     H64662   2.718   9.186   4.112 -2.4629 -0.6231 -1.1339
  479MOL0     H64663   2.657   8.946   3.864 -0.0788  1.1073 -1.8439
  479MOL0     H64664   2.500   9.021   3.940 -0.1779  3.3770 -1.5590
  479MOL0     H64665   2.641   9.113   3.909 -0.9940 -0.7306 -3.0755
  480MOL0     O64666  11.083   7.017   4.595 -0.1380 -0.4863 -0.0111
  480MOL0     C64667  11.146   6.995   4.698  0.4835 -0.4339  0.1959
  480MOL0     O64668  11.253   6.918   4.702 -0.6920 -0.2041 -0.2269
  480MOL0     C64669  11.273   6.840   4.591 -0.0352 -0.6339  0.9450
  480MOL0     C64670  11.197   6.727   4.560  0.1798 -0.2707  0.0320
  480MOL0     C64671  11.227   6.643   4.453  0.0356  0.2049 -0.3939
  480MOL0     C64672  11.330   6.677   4.366 -0.4055  0.3853  0.0854
  480MOL0     O64673  11.361   6.592   4.267  0.1738  0.5391  0.1010
  480MOL0     C64674  11.465   6.628   4.166  1.0809  0.8115 -0.6624
  480MOL0     C64675  11.514   6.500   4.099  0.0859  0.0436  0.5399
  480MOL0     C64676  11.605   6.550   3.988 -0.0588 -1.1631 -0.0305
  480MOL0     C64677  11.684   6.447   3.902 -0.9218 -0.8372  0.5905
  480MOL0     C64678  11.798   6.496   3.810  0.1216 -0.9957  0.5182
  480MOL0     C64679  11.873   6.387   3.741 -0.3585 -0.2817 -1.1505
  480MOL0     C64680  11.987   6.427   3.647  0.3445 -0.3310  0.2928
  480MOL0     C64681  12.089   6.509   3.713 -0.3698  0.4738  0.3465
  480MOL0     N64682  12.189   6.583   3.632 -0.1456 -0.4213 -0.0947
  480MOL0     C64683  12.310   6.531   3.601 -0.1429  0.4046  0.4179
  480MOL0     C64684  12.370   6.633   3.538 -0.1977 -0.6214 -0.1050
  480MOL0     C64685  12.512   6.635   3.487 -0.4768  0.3283  0.2153
  480MOL0     C64686  12.604   6.614   3.608  0.0139  0.7266  0.3582
  480MOL0     C64687  12.754   6.618   3.562 -0.4770 -0.0892 -0.6033
  480MOL0     C64688  12.834   6.648   3.678 -0.2418  0.8032  0.7457
  480MOL0     O64689  12.969   6.686   3.639 -0.3137 -0.7011 -0.5990
  480MOL0     C64690  13.064   6.629   3.722 -0.3878  0.9977  0.1021
  480MOL0     C64691  13.072   6.667   3.857 -0.8010 -0.3796  0.0748
  480MOL0     C64692  13.182   6.622   3.934 -0.1324  0.8232 -0.8893
  480MOL0     C64693  13.292   6.558   3.880 -1.2311 -0.5749  0.5327
  480MOL0     C64694  13.396   6.505   3.963  0.3034  0.8355 -0.6936
  480MOL0     O64695  13.493   6.420   3.916 -0.1265  0.0622  0.4044
  480MOL0     C64696  13.571   6.351   4.008  0.6308  0.2607 -0.1903
  480MOL0     C64697  13.706   6.361   3.996 -0.1955 -0.9181 -1.8292
  480MOL0     C64698  13.784   6.277   4.082  0.1993  0.1773  0.6160
  480MOL0     C64699  13.722   6.183   4.167 -0.3210  0.5493  0.1949
  480MOL0     O64700  13.786   6.088   4.248 -0.0462 -0.3131 -0.3086
  480MOL0     C64701  13.927   6.100   4.285  1.1706  0.9671 -0.0145
  480MOL0     C64702  13.948   5.999   4.393 -1.3696  0.1774  0.0147
  480MOL0     C64703  13.883   6.047   4.519  0.8480  0.0222 -0.8709
  480MOL0     C64704  13.948   5.987   4.651 -0.8558 -0.3527  0.5015
  480MOL0     C64705  13.873   6.003   4.779 -0.5848  0.5829 -0.0168
  480MOL0     C64706  13.852   6.151   4.814 -0.4752  0.2990 -0.1081
  480MOL0     C64707  13.812   6.177   4.960  1.0180  1.4354  0.0145
  480MOL0     C64708  13.685   6.260   4.945  0.1549 -0.7725 -0.0496
  480MOL0    Cl64709  13.558   6.172   4.851 -0.8834  0.0743 -0.2696
  480MOL0     C64710  13.580   6.183   4.179 -0.3679 -0.6454  0.2630
  480MOL0     C64711  13.508   6.270   4.102  0.1530  0.0422  0.0906
  480MOL0     O64712  13.391   6.542   4.080  0.3222 -0.4706  0.3822
  480MOL0     C64713  13.298   6.535   3.743  1.4031 -0.5252  1.4653
  480MOL0     C64714  13.179   6.563   3.667 -0.6854  0.0573  0.0638
  480MOL0     N64715  12.284   6.741   3.530  0.4414  0.2063 -0.7406
  480MOL0     N64716  12.173   6.705   3.582  0.8539 -0.5892 -0.5196
  480MOL0     C64717  11.397   6.797   4.384 -0.3516  0.1135  0.4966
  480MOL0     C64718  11.368   6.875   4.495  0.7097  0.7110  0.0894
  480MOL0     C64719  11.113   7.068   4.817 -0.2154 -0.2691  0.2047
  480MOL0     C64720  11.145   7.010   4.943 -0.5480  0.0356  0.3384
  480MOL0     C64721  11.107   7.068   5.064 -0.6352 -0.0834  0.0374
  480MOL0     C64722  11.038   7.189   5.068  0.8125 -0.4297 -0.1094
  480MOL0     O64723  10.970   7.248   5.169  0.0751 -0.3175 -0.0478
  480MOL0     C64724  10.927   7.159   5.278 -0.6982 -0.3988  1.0489
  480MOL0     C64725  10.793   7.101   5.227  0.2952  1.1481 -0.6283
  480MOL0     C64726  10.689   7.200   5.167 -0.4425 -0.0447 -0.0930
  480MOL0     C64727  10.663   7.328   5.253  0.1735  0.7474 -0.0915
  480MOL0     C64728  10.546   7.399   5.212  0.2926  0.3241 -0.9038
  480MOL0     C64729  10.464   7.482   5.187  0.4319  0.2581 -0.1087
  480MOL0     C64730  11.017   7.261   4.947  0.7438 -0.5484  0.6861
  480MOL0     C64731  11.044   7.198   4.823 -0.0114 -0.5905 -1.1311
  480MOL0     C64732  11.004   7.277   4.693  0.4637 -0.0657  0.2728
  480MOL0     H64733  11.117   6.702   4.628 -1.7006  1.2651 -1.4795
  480MOL0     H64734  11.176   6.549   4.435  4.4431 -2.0216 -2.8650
  480MOL0     H64735  11.424   6.684   4.081  2.5931  1.4495 -0.9945
  480MOL0     H64736  11.548   6.671   4.222  0.4465  1.8146 -0.4685
  480MOL0     H64737  11.428   6.450   4.052 -1.7465  1.0555  2.6202
  480MOL0     H64738  11.565   6.423   4.157 -1.1151  1.1125  3.1599
  480MOL0     H64739  11.692   6.601   4.031  2.2563 -3.4172 -1.7572
  480MOL0     H64740  11.537   6.612   3.928 -0.0772 -1.4811 -0.3410
  480MOL0     H64741  11.736   6.386   3.976  1.0709 -2.7811 -2.2213
  480MOL0     H64742  11.617   6.376   3.853 -0.7107 -2.4967  2.5609
  480MOL0     H64743  11.768   6.561   3.727  1.3504 -0.2248  0.6496
  480MOL0     H64744  11.865   6.555   3.875 -1.3873  3.0476 -1.2376
  480MOL0     H64745  11.913   6.313   3.811 -0.1816  1.5404  0.7500
  480MOL0     H64746  11.808   6.332   3.672 -1.9757 -1.0302  0.8382
  480MOL0     H64747  11.949   6.493   3.568  0.2417 -2.1877 -1.2742
  480MOL0     H64748  12.032   6.339   3.600 -1.7854 -2.0256  1.2273
  480MOL0     H64749  12.055   6.581   3.788  2.1332  1.7799  0.3248
  480MOL0     H64750  12.146   6.436   3.771  3.3861  2.0593 -1.0398
  480MOL0     H64751  12.345   6.432   3.627 -0.2471  0.6207  1.4094
  480MOL0     H64752  12.532   6.547   3.426 -1.6012 -0.0082  0.3237
  480MOL0     H64753  12.546   6.726   3.436 -2.0816  0.6017 -0.4098
  480MOL0     H64754  12.576   6.691   3.681 -0.6491 -1.4621  2.5433
  480MOL0     H64755  12.589   6.519   3.659  0.3686  0.6769  0.3746
  480MOL0     H64756  12.765   6.702   3.493  1.4583 -1.0971 -1.6198
  480MOL0     H64757  12.787   6.528   3.509  2.4089  0.5234 -0.0062
  480MOL0     H64758  12.840   6.557   3.740  1.8077 -0.4346 -1.1194
  480MOL0     H64759  12.791   6.728   3.740 -1.6063 -0.4106  1.4459
  480MOL0     H64760  12.999   6.731   3.905  1.0445  0.9516  1.2209
  480MOL0     H64761  13.190   6.644   4.040  1.6014 -2.3838 -0.2230
  480MOL0     H64762  13.743   6.443   3.935 -2.4267  1.9814  0.4239
  480MOL0     H64763  13.890   6.299   4.075  0.1916 -0.0488 -0.3755
  480MOL0     H64764  13.987   6.081   4.195  0.5650  2.0801 -0.6804
  480MOL0     H64765  13.951   6.202   4.318 -1.4456  1.7947 -0.4399
  480MOL0     H64766  13.892   5.908   4.374 -1.1419  0.5457 -2.7559
  480MOL0     H64767  14.056   5.981   4.402 -1.7038 -2.4020 -0.2770
  480MOL0     H64768  13.889   6.155   4.536  0.6760 -0.3598  2.3171
  480MOL0     H64769  13.777   6.021   4.524  1.1968 -1.2257  2.4494
  480MOL0     H64770  14.044   6.038   4.658 -0.0322 -1.4447 -1.7288
  480MOL0     H64771  13.969   5.881   4.633  3.8927  0.6589 -1.4897
  480MOL0     H64772  13.931   5.956   4.859 -0.4290  3.2309  1.5395
  480MOL0     H64773  13.778   5.949   4.781  0.1254 -0.6597  1.5267
  480MOL0     H64774  13.943   6.210   4.808  1.5082 -2.2755  2.0739
  480MOL0     H64775  13.792   6.185   4.730  1.8402 -2.5016 -3.1690
  480MOL0     H64776  13.889   6.230   5.016 -0.8732  1.8835  2.3660
  480MOL0     H64777  13.799   6.085   5.019 -0.4208  2.0412  0.7124
  480MOL0     H64778  13.645   6.279   5.045  0.4694 -1.9931  0.3204
  480MOL0     H64779  13.707   6.359   4.904  0.0491  0.0982  1.8869
  480MOL0     H64780  13.526   6.128   4.255  0.2274 -0.8773  0.5224
  480MOL0     H64781  13.400   6.267   4.117  0.0247  2.4314  0.0564
  480MOL0     H64782  13.378   6.497   3.680  0.4701 -3.1125  1.7183
  480MOL0     H64783  13.164   6.533   3.563 -1.0959  2.3698 -0.6043
  480MOL0     H64784  11.474   6.839   4.319  0.9054  1.9315  2.9874
  480MOL0     H64785  11.416   6.971   4.514 -0.4905  1.3400  0.0264
  480MOL0     H64786  11.170   6.904   4.946 -0.2538  0.0727 -0.7062
  480MOL0     H64787  11.106   7.002   5.151 -4.8934 -0.7930 -0.3034
  480MOL0     H64788  10.928   7.209   5.375 -0.8018  1.5677  0.0835
  480MOL0     H64789  10.986   7.068   5.293 -1.6085 -0.9459  1.3605
  480MOL0     H64790  10.740   7.050   5.309  0.9455 -1.8010 -1.8990
  480MOL0     H64791  10.804   7.025   5.149  1.6401  1.1256 -0.4322
  480MOL0     H64792  10.605   7.133   5.151  1.9816 -2.8884 -2.1803
  480MOL0     H64793  10.733   7.224   5.070  1.6047  1.7745  1.1872
  480MOL0     H64794  10.637   7.296   5.354  0.2529 -1.2322 -0.6443
  480MOL0     H64795  10.748   7.397   5.248  0.7144  0.4603  3.3153
  480MOL0     H64796  10.375   7.532   5.155 -0.0258 -1.6203 -1.9686
  480MOL0     H64797  10.963   7.355   4.942  2.5529  0.5103 -4.2102
  480MOL0     H64798  11.068   7.245   4.610 -0.1465 -0.5155 -0.0346
  480MOL0     H64799  10.901   7.258   4.660  1.7056 -4.4027 -1.9274
  480MOL0     H64800  11.016   7.383   4.714 -2.2433  0.3484  0.0562
  481MOL0     O64801   8.121   1.835   6.634  0.5988  0.0829  0.3528
  481MOL0     C64802   8.031   1.914   6.603 -0.8511 -0.7656 -0.2601
  481MOL0     O64803   7.969   1.920   6.488 -0.0907 -0.1247 -0.0862
  481MOL0     C64804   7.961   1.809   6.413  0.3584 -0.9330 -0.0232
  481MOL0     C64805   8.046   1.784   6.314  0.2535 -0.9036  0.5478
  481MOL0     C64806   8.044   1.668   6.234  0.9342  0.3402 -0.0512
  481MOL0     C64807   7.940   1.576   6.261 -0.7106  0.5634  0.4041
  481MOL0     O64808   7.919   1.472   6.169 -0.3127 -0.5935  0.1511
  481MOL0     C64809   7.985   1.346   6.201 -0.3521  0.6216  0.4437
  481MOL0     C64810   8.136   1.345   6.190  0.0163 -0.3579 -0.2210
  481MOL0     C64811   8.208   1.390   6.320 -0.0896 -0.8757  0.9936
  481MOL0     C64812   8.336   1.486   6.289  0.0469  0.8619 -0.0469
  481MOL0     C64813   8.429   1.451   6.395 -0.7244  0.4440  0.5786
  481MOL0     C64814   8.566   1.519   6.391 -1.0531  0.7414 -0.0499
  481MOL0     C64815   8.564   1.668   6.374 -0.0863  0.4118  0.8433
  481MOL0     C64816   8.500   1.739   6.494  0.7152  1.1815  0.1918
  481MOL0     N64817   8.530   1.881   6.507  0.3899 -0.1298  0.5437
  481MOL0     C64818   8.442   1.981   6.508  0.3186  0.5825  1.5737
  481MOL0     C64819   8.521   2.090   6.535 -0.3432  0.6816  0.2130
  481MOL0     C64820   8.468   2.237   6.533 -0.0115  1.2123  0.0854
  481MOL0     C64821   8.348   2.262   6.435 -0.4975  0.3185 -0.8362
  481MOL0     C64822   8.333   2.410   6.395  0.0643 -0.5114  0.0966
  481MOL0     C64823   8.340   2.511   6.511 -0.0953  0.0412 -0.1794
  481MOL0     O64824   8.260   2.468   6.610  0.8280  0.0861 -0.3955
  481MOL0     C64825   8.247   2.544   6.726  0.1507  0.0296 -1.5642
  481MOL0     C64826   8.309   2.669   6.755  0.1549 -0.5273 -0.3860
  481MOL0     C64827   8.277   2.752   6.860 -0.0232  0.3819 -0.8755
  481MOL0     C64828   8.174   2.703   6.948  0.5269 -0.7387  0.5822
  481MOL0     C64829   8.137   2.786   7.067  0.0613 -0.4547  0.1961
  481MOL0     O64830   8.053   2.719   7.148  0.0660  0.2841  0.1248
  481MOL0     C64831   8.019   2.762   7.274  0.3594  0.3363 -0.1111
  481MOL0     C64832   7.994   2.655   7.361  0.1933 -0.2867  0.2283
  481MOL0     C64833   7.945   2.681   7.492  0.0705  0.4898 -0.0825
  481MOL0     C64834   7.941   2.812   7.539  0.3033  0.4940  0.2023
  481MOL0     O64835   7.896   2.847   7.671  0.1330 -1.1922  0.6494
  481MOL0     C64836   7.942   2.774   7.782 -0.2323 -0.5692  0.0423
  481MOL0     C64837   7.833   2.678   7.835  0.5929 -0.1349 -0.2266
  481MOL0     C64838   7.896   2.565   7.919  0.2608  0.3809  0.0964
  481MOL0     C64839   7.773   2.481   7.982 -0.2929 -0.3240  0.5158
  481MOL0     C64840   7.729   2.368   7.875  0.6535  0.6813  0.3290
  481MOL0     C64841   7.611   2.278   7.922 -0.6552  0.2046 -0.0424
  481MOL0     C64842   7.493   2.344   7.996 -0.1199  0.1249 -0.2781
  481MOL0     C64843   7.376   2.255   8.024 -0.6926  0.8075  0.1961
  481MOL0    Cl64844   7.280   2.335   8.152 -0.3024 -0.1775  0.2469
  481MOL0     C64845   7.961   2.918   7.450  0.3194 -0.1719  0.4071
  481MOL0     C64846   8.000   2.888   7.316 -0.0770 -0.6773 -0.3633
  481MOL0     O64847   8.187   2.893   7.086  0.3085 -0.7352 -0.2777
  481MOL0     C64848   8.108   2.579   6.930 -0.3400 -0.2936 -0.6667
  481MOL0     C64849   8.146   2.506   6.822 -1.2389  0.7137  0.5112
  481MOL0     N64850   8.654   2.056   6.556 -0.4962  1.8271 -0.5456
  481MOL0     N64851   8.656   1.926   6.527  0.6467 -0.7197 -0.8575
  481MOL0     C64852   7.846   1.599   6.355  0.1883 -0.5097 -0.2827
  481MOL0     C64853   7.862   1.713   6.432  1.2394 -0.5240  0.5836
  481MOL0     C64854   8.001   2.021   6.707  0.1570  0.2998  0.1137
  481MOL0     C64855   8.098   2.071   6.795  0.6956 -0.8030 -0.1943
  481MOL0     C64856   8.073   2.168   6.890 -0.2751  0.1629 -0.0147
  481MOL0     C64857   7.939   2.212   6.912 -0.2283  0.5905  0.0654
  481MOL0     O64858   7.908   2.311   7.003  0.3372 -0.6121  0.1449
  481MOL0     C64859   7.832   2.268   7.119 -0.2809 -0.4265  0.6696
  481MOL0     C64860   7.692   2.334   7.127 -0.6421 -0.0115  0.4055
  481MOL0     C64861   7.690   2.487   7.150 -0.4506  0.6901  1.1255
  481MOL0     C64862   7.562   2.552   7.208  0.0341 -0.1319 -0.9522
  481MOL0     C64863   7.583   2.680   7.273  0.6314  0.0941  0.2820
  481MOL0     C64864   7.593   2.784   7.329  0.6029  0.6459 -0.0435
  481MOL0     C64865   7.840   2.168   6.826 -0.0107  0.1152 -0.1802
  481MOL0     C64866   7.867   2.067   6.732 -0.0778  1.1910  0.2630
  481MOL0     C64867   7.755   2.021   6.647 -0.2261 -0.7929 -0.0406
  481MOL0     H64868   8.133   1.849   6.304  1.3685 -2.3917  0.1960
  481MOL0     H64869   8.106   1.671   6.145  0.8128  1.8980 -0.1054
  481MOL0     H64870   7.945   1.297   6.290 -0.4773  1.2949  0.7616
  481MOL0     H64871   7.945   1.271   6.133 -4.1978  0.7210  2.3593
  481MOL0     H64872   8.166   1.411   6.109  1.4274 -2.4446 -1.5075
  481MOL0     H64873   8.162   1.242   6.162 -0.1729 -0.5564  0.3183
  481MOL0     H64874   8.237   1.303   6.379 -2.4641 -1.9710  0.6696
  481MOL0     H64875   8.135   1.447   6.380 -1.7196  0.7247 -2.2090
  481MOL0     H64876   8.383   1.465   6.192  0.8740 -0.3145  0.5878
  481MOL0     H64877   8.317   1.594   6.286 -2.8337  0.4130 -0.4956
  481MOL0     H64878   8.376   1.488   6.483  0.3857  2.8673  0.2982
  481MOL0     H64879   8.445   1.342   6.393  3.4548  0.9232  0.3256
  481MOL0     H64880   8.625   1.501   6.481 -0.1670  0.0480 -0.7517
  481MOL0     H64881   8.626   1.486   6.306  1.4749  0.0836  1.8572
  481MOL0     H64882   8.519   1.689   6.277  0.5861  1.5805  0.7691
  481MOL0     H64883   8.667   1.702   6.359 -0.2225  0.4782 -0.0053
  481MOL0     H64884   8.392   1.723   6.482  0.3405  3.0483  0.7664
  481MOL0     H64885   8.536   1.683   6.581  0.6988  1.2284  0.2292
  481MOL0     H64886   8.336   1.960   6.497  0.3060  0.5646  1.7256
  481MOL0     H64887   8.444   2.254   6.638  2.0364 -2.3152  1.3228
  481MOL0     H64888   8.555   2.299   6.511 -0.9331  2.2147 -0.8463
  481MOL0     H64889   8.367   2.201   6.346 -0.5615  2.6383 -2.5199
  481MOL0     H64890   8.258   2.241   6.493  1.7473  0.7667  3.2377
  481MOL0     H64891   8.244   2.437   6.338  0.3432  0.3746  0.0522
  481MOL0     H64892   8.425   2.431   6.339  0.6303  1.6170  1.6679
  481MOL0     H64893   8.316   2.612   6.477  1.3516 -0.2403 -2.2141
  481MOL0     H64894   8.443   2.517   6.548 -0.9608  0.9914  2.2778
  481MOL0     H64895   8.392   2.700   6.691 -0.5882 -1.4148 -1.8415
  481MOL0     H64896   8.329   2.848   6.857 -1.2915  1.4217  3.3793
  481MOL0     H64897   8.011   2.555   7.324 -0.5335 -0.3745  0.1261
  481MOL0     H64898   7.909   2.594   7.546 -0.1286 -1.0472 -2.5340
  481MOL0     H64899   8.031   2.715   7.763 -0.5804 -0.9428 -0.4696
  481MOL0     H64900   7.961   2.846   7.863  0.6222  0.7017 -1.2454
  481MOL0     H64901   7.758   2.725   7.900 -0.3525 -2.2218  0.2785
  481MOL0     H64902   7.779   2.624   7.757  2.9047 -0.0049 -2.0253
  481MOL0     H64903   7.957   2.498   7.858 -1.7658 -3.4057  1.8672
  481MOL0     H64904   7.958   2.605   8.000  3.0303  2.8450 -2.9179
  481MOL0     H64905   7.687   2.547   7.992  1.1542  2.3940 -2.7896
  481MOL0     H64906   7.811   2.440   8.076 -0.1089  1.6168  1.3340
  481MOL0     H64907   7.812   2.302   7.845  1.1792  1.3838  0.2213
  481MOL0     H64908   7.691   2.410   7.782  2.2221 -0.3908 -0.8497
  481MOL0     H64909   7.577   2.226   7.831 -1.2669  1.5135 -0.5876
  481MOL0     H64910   7.652   2.204   7.991 -0.2290  2.0514  1.7673
  481MOL0     H64911   7.461   2.433   7.941 -0.1422  0.0393 -0.4061
  481MOL0     H64912   7.540   2.386   8.085 -0.1407 -1.0326  0.2945
  481MOL0     H64913   7.314   2.225   7.939 -1.1061 -1.2243  1.1563
  481MOL0     H64914   7.402   2.155   8.060  1.5927  1.6484  1.1204
  481MOL0     H64915   7.942   3.024   7.467  2.1560  0.3711 -0.6207
  481MOL0     H64916   8.013   2.979   7.259  1.5193  0.6535  1.9648
  481MOL0     H64917   8.027   2.561   7.000  0.3249  3.3643  1.3347
  481MOL0     H64918   8.092   2.414   6.802 -0.1952 -0.6520  3.3697
  481MOL0     H64919   7.771   1.525   6.380  0.4622 -0.0623  2.0998
  481MOL0     H64920   7.800   1.730   6.519  3.7008  1.3975  2.1079
  481MOL0     H64921   8.197   2.028   6.786  1.2402  0.4447 -0.3016
  481MOL0     H64922   8.150   2.201   6.960  1.0181 -0.3186 -1.1626
  481MOL0     H64923   7.893   2.304   7.203  1.4566 -2.1320  0.2186
  481MOL0     H64924   7.822   2.160   7.131 -3.2028 -0.2014  0.8992
  481MOL0     H64925   7.640   2.286   7.210  1.8100 -3.5762  0.0864
  481MOL0     H64926   7.627   2.301   7.045  2.2030  1.1288 -2.5399
  481MOL0     H64927   7.714   2.533   7.054 -0.9950  1.6462  1.4323
  481MOL0     H64928   7.767   2.514   7.223  0.2603 -1.3721  1.1991
  481MOL0     H64929   7.494   2.568   7.123  0.1979 -1.9539 -1.4799
  481MOL0     H64930   7.520   2.477   7.276  1.8673  0.9156  1.4584
  481MOL0     H64931   7.593   2.878   7.381 -0.4399  1.2364 -1.0652
  481MOL0     H64932   7.738   2.203   6.833  1.3104  4.4088  0.9583
  481MOL0     H64933   7.659   2.050   6.691 -1.3877 -2.3351 -1.4369
  481MOL0     H64934   7.765   2.052   6.543  2.5349 -2.1224 -0.2558
  481MOL0     H64935   7.737   1.915   6.629 -0.7383 -0.2881 -2.8784
  482MOL0     O64936   3.179  11.342  10.355  0.2038 -0.0486 -0.3579
  482MOL0     C64937   3.256  11.408  10.422 -0.4128  0.3330  0.1382
  482MOL0     O64938   3.222  11.492  10.523  0.1937 -0.0986 -0.5915
  482MOL0     C64939   3.094  11.546  10.543 -1.3064 -0.2910 -0.1101
  482MOL0     C64940   3.057  11.592  10.669 -1.3268  0.0038  0.3044
  482MOL0     C64941   2.927  11.631  10.700 -0.1233  0.1041  0.1004
  482MOL0     C64942   2.824  11.627  10.603  0.4503  0.4832  0.1929
  482MOL0     O64943   2.699  11.664  10.643 -0.8724  0.6433  0.9056
  482MOL0     C64944   2.625  11.732  10.535 -0.2521 -0.5111  0.5853
  482MOL0     C64945   2.511  11.822  10.589  1.2107 -0.4821  0.6387
  482MOL0     C64946   2.439  11.889  10.470  0.0481 -0.8809 -0.6030
  482MOL0     C64947   2.315  11.945  10.522 -0.9367 -0.1902  0.2808
  482MOL0     C64948   2.236  12.005  10.402  0.1222  0.4473 -0.0321
  482MOL0     C64949   2.092  12.052  10.433  0.4937  0.6202  0.2442
  482MOL0     C64950   1.996  12.077  10.303  0.5917  0.2913  0.0934
  482MOL0     C64951   2.046  12.196  10.210  0.3157  0.2230  0.1608
  482MOL0     N64952   2.058  12.323  10.284  0.7393 -0.4723 -0.4379
  482MOL0     C64953   1.956  12.418  10.294 -0.5672  0.6688  0.4275
  482MOL0     C64954   1.996  12.526  10.362 -1.4842  0.6246 -0.5062
  482MOL0     C64955   1.932  12.657  10.373  0.3091 -0.0605  0.1038
  482MOL0     C64956   1.907  12.703  10.520 -0.8997  0.2322  0.6239
  482MOL0     C64957   1.803  12.810  10.523  0.1141  0.1487 -0.8880
  482MOL0     C64958   1.820  12.862  10.662  0.4679 -0.3377 -0.4238
  482MOL0     O64959   1.711  12.951  10.680  0.1261  0.3751 -0.6726
  482MOL0     C64960   1.580  12.903  10.711  0.3083 -0.3635 -0.1070
  482MOL0     C64961   1.540  12.770  10.736 -0.1547 -0.7366  0.7967
  482MOL0     C64962   1.400  12.740  10.751  0.2324  0.6282 -0.6987
  482MOL0     C64963   1.296  12.831  10.729 -0.3675 -0.2599  0.2674
  482MOL0     C64964   1.155  12.786  10.745  0.3034 -0.1742  0.0261
  482MOL0     O64965   1.129  12.664  10.807  0.4839  0.0099 -0.1891
  482MOL0     C64966   1.006  12.621  10.863  0.6129 -0.0083  1.1326
  482MOL0     C64967   1.009  12.509  10.944  0.1306 -0.0857 -0.3575
  482MOL0     C64968   0.894  12.446  10.989 -0.7529 -0.0031 -0.9076
  482MOL0     C64969   0.769  12.502  10.984  0.7755  0.1678  0.8469
  482MOL0     O64970   0.660  12.436  11.042 -0.8769 -0.6453  0.1610
  482MOL0     C64971   0.546  12.415  10.965 -0.8965  0.5337 -0.1103
  482MOL0     C64972   0.436  12.352  11.042  0.1873 -1.0769 -0.1418
  482MOL0     C64973   0.386  12.441  11.152 -0.7285 -0.7615 -0.5085
  482MOL0     C64974   0.302  12.555  11.095 -0.7311 -0.3151 -0.0410
  482MOL0     C64975   0.192  12.591  11.191 -0.3259  0.2543  0.3378
  482MOL0     C64976   0.121  12.717  11.136 -0.1708  0.2622 -0.3278
  482MOL0     C64977  -0.002  12.756  11.220 -0.6172  0.1685 -0.2164
  482MOL0     C64978  -0.120  12.657  11.206  0.9952  0.2322  0.0484
  482MOL0    Cl64979  -0.205  12.671  11.044 -0.0362 -0.0721  0.5874
  482MOL0     C64980   0.760  12.627  10.917 -1.1649  0.5908  0.9506
  482MOL0     C64981   0.879  12.682  10.851 -0.6466 -0.9937 -0.7412
  482MOL0     O64982   1.066  12.868  10.720  0.5942  1.1297 -0.0658
  482MOL0     C64983   1.335  12.969  10.709 -0.9965  0.0961  0.4087
  482MOL0     C64984   1.479  12.999  10.707  0.7054 -0.0480  0.2612
  482MOL0     N64985   2.113  12.487  10.416 -0.3640  0.5828 -0.5166
  482MOL0     N64986   2.142  12.370  10.378  0.1711  0.9893 -0.1953
  482MOL0     C64987   2.866  11.595  10.471  0.2059  0.4099 -0.2743
  482MOL0     C64988   3.000  11.556  10.440  0.4365 -0.3570  0.0120
  482MOL0     C64989   3.393  11.401  10.379  0.3604  0.9295 -0.9499
  482MOL0     C64990   3.450  11.520  10.338  0.5727 -0.1624 -0.0062
  482MOL0     C64991   3.580  11.522  10.296  0.4122  0.1916 -0.2509
  482MOL0     C64992   3.660  11.410  10.306  0.8646  0.6726  0.3829
  482MOL0     O64993   3.792  11.419  10.273 -0.0082  0.1223 -0.0866
  482MOL0     C64994   3.875  11.303  10.275  0.3364  0.2980  0.7710
  482MOL0     C64995   4.003  11.337  10.207 -0.3601  0.2674  0.5376
  482MOL0     C64996   4.108  11.406  10.301  0.5460 -0.0299  1.1320
  482MOL0     C64997   4.178  11.306  10.390 -0.4625  0.0319  0.0904
  482MOL0     C64998   4.287  11.370  10.464 -0.0285  0.3135  1.4230
  482MOL0     C64999   4.369  11.434  10.525  0.2132 -0.3654 -0.3272
  482MOL0     C65000   3.603  11.284  10.352 -0.7171 -0.5848  0.0763
  482MOL0     C65001   3.464  11.275  10.381 -0.0716 -1.2310  0.2169
  482MOL0     C65002   3.400  11.148  10.410  0.2364  0.1491  0.5711
  482MOL0     H65003   3.135  11.579  10.743  1.1103  0.4236 -2.0344
  482MOL0     H65004   2.912  11.662  10.804  0.0557 -2.3233  0.9169
  482MOL0     H65005   2.687  11.800  10.476 -2.7795  1.1853 -0.2792
  482MOL0     H65006   2.581  11.656  10.470  1.6618 -1.2657  0.0923
  482MOL0     H65007   2.557  11.901  10.648  1.0042  0.3400 -0.2694
  482MOL0     H65008   2.445  11.778  10.664  1.8826  0.8412  2.0551
  482MOL0     H65009   2.413  11.818  10.391 -1.4814 -1.0984  0.0752
  482MOL0     H65010   2.496  11.978  10.438 -1.7958  1.3039  1.7940
  482MOL0     H65011   2.261  11.857  10.559 -0.4939 -0.7261 -0.3187
  482MOL0     H65012   2.327  12.020  10.600 -3.2403  0.5575 -0.0249
  482MOL0     H65013   2.293  12.093  10.370 -0.0270  1.7042  2.7882
  482MOL0     H65014   2.227  11.931  10.323 -2.3794 -1.2760  1.7017
  482MOL0     H65015   2.048  11.963  10.479  0.5710 -0.7588 -2.1160
  482MOL0     H65016   2.092  12.137  10.501  1.1249 -1.1771  2.5919
  482MOL0     H65017   1.897  12.101  10.344 -0.6372 -2.1907 -1.1866
  482MOL0     H65018   1.992  11.992  10.235 -1.3325  1.1738 -0.9959
  482MOL0     H65019   2.145  12.186  10.164  0.3808  5.0472 -1.3095
  482MOL0     H65020   1.971  12.207  10.132 -0.1072 -2.0784  0.1765
  482MOL0     H65021   1.865  12.429  10.236  0.5487 -0.4473 -1.6544
  482MOL0     H65022   1.998  12.731  10.327  1.0241  0.3576  1.7172
  482MOL0     H65023   1.838  12.655  10.318  0.1446 -0.2065  0.3825
  482MOL0     H65024   1.879  12.607  10.565  2.2406 -1.3345 -0.4850
  482MOL0     H65025   2.002  12.734  10.564 -0.7385 -0.0720  0.4949
  482MOL0     H65026   1.705  12.768  10.500 -0.1264  1.9710 -3.5992
  482MOL0     H65027   1.839  12.884  10.451  4.3008 -1.2368 -0.4978
  482MOL0     H65028   1.915  12.916  10.662  0.2081  0.1517 -1.8486
  482MOL0     H65029   1.833  12.780  10.734 -0.6282  1.1516  1.5709
  482MOL0     H65030   1.615  12.692  10.748  1.1704  0.1045 -1.3706
  482MOL0     H65031   1.368  12.639  10.772 -1.1703  0.7733 -1.9596
  482MOL0     H65032   1.108  12.473  10.971  0.6186 -0.4338 -2.4480
  482MOL0     H65033   0.913  12.350  11.035  3.6032  0.6149 -1.0146
  482MOL0     H65034   0.507  12.508  10.921 -0.9717  0.1506 -0.8726
  482MOL0     H65035   0.574  12.354  10.878 -2.4232  0.3495 -0.5050
  482MOL0     H65036   0.356  12.327  10.972  0.8787  0.4537 -1.5328
  482MOL0     H65037   0.479  12.266  11.095  0.5926  0.4192  2.0860
  482MOL0     H65038   0.325  12.393  11.229  0.5463 -1.1270  0.2945
  482MOL0     H65039   0.471  12.469  11.214  0.8667 -1.1993 -2.4065
  482MOL0     H65040   0.272  12.538  10.991 -0.2302  2.4162 -0.7059
  482MOL0     H65041   0.377  12.633  11.077  0.4695 -2.0484 -3.4865
  482MOL0     H65042   0.246  12.607  11.285 -0.9142 -1.5661  1.0272
  482MOL0     H65043   0.138  12.496  11.185  2.2808 -1.2151 -2.6591
  482MOL0     H65044   0.185  12.806  11.135 -1.4014  1.2017  0.8630
  482MOL0     H65045   0.083  12.715  11.033 -2.1027  0.1590  0.3530
  482MOL0     H65046  -0.038  12.855  11.190 -0.5252  0.4337  0.5182
  482MOL0     H65047   0.037  12.761  11.322  3.6362  2.3065 -1.6902
  482MOL0     H65048  -0.088  12.555  11.227 -0.1406  0.1120  1.3845
  482MOL0     H65049  -0.201  12.681  11.277  0.9410  2.7111 -0.7601
  482MOL0     H65050   0.663  12.670  10.894 -2.4708  0.2473  5.0180
  482MOL0     H65051   0.854  12.777  10.807 -0.5313 -1.0973 -1.0306
  482MOL0     H65052   1.261  13.046  10.691 -1.2687 -0.4356 -0.8940
  482MOL0     H65053   1.520  13.099  10.696 -0.5482  0.4596  0.0774
  482MOL0     H65054   2.799  11.593  10.387  1.3924  0.7600 -1.2628
  482MOL0     H65055   3.024  11.546  10.334 -0.3544  2.1075 -0.4601
  482MOL0     H65056   3.394  11.612  10.326  1.9285  0.6615 -0.3329
  482MOL0     H65057   3.626  11.616  10.268  0.9638 -0.1064 -0.3484
  482MOL0     H65058   3.828  11.224  10.216 -0.8063  0.7084  1.0880
  482MOL0     H65059   3.897  11.263  10.375  1.6822  0.2566  0.4678
  482MOL0     H65060   3.988  11.403  10.122  1.1552 -0.6190 -0.4595
  482MOL0     H65061   4.049  11.249  10.162 -4.8639 -2.1392  0.1662
  482MOL0     H65062   4.068  11.489  10.360 -2.3730 -0.6125  0.1426
  482MOL0     H65063   4.188  11.447  10.239  1.4682 -0.4059  2.0548
  482MOL0     H65064   4.110  11.252  10.457 -0.2642  1.3486  1.4217
  482MOL0     H65065   4.216  11.228  10.324 -0.6645 -0.0643  0.0875
  482MOL0     H65066   4.443  11.495  10.574  2.1022 -2.0793 -0.9336
  482MOL0     H65067   3.648  11.185  10.349 -1.2641 -0.8288 -0.2185
  482MOL0     H65068   3.317  11.159  10.480 -0.0419  2.3533 -0.0462
  482MOL0     H65069   3.345  11.111  10.324 -1.0116  0.4646  1.2180
  482MOL0     H65070   3.466  11.071  10.451 -1.2313 -1.0521  0.7639
  483MOL0     O65071   7.038   9.734   0.873  0.7649  0.0011 -0.1081
  483MOL0     C65072   6.960   9.643   0.884 -0.4570 -0.2784  0.5432
  483MOL0     O65073   6.997   9.511   0.871  0.3587  1.0935 -0.6000
  483MOL0     C65074   7.128   9.478   0.896 -0.8228  0.3979 -0.5943
  483MOL0     C65075   7.158   9.459   1.033  0.0212 -0.2586 -0.0122
  483MOL0     C65076   7.288   9.429   1.076 -0.3841  0.2564 -0.4965
  483MOL0     C65077   7.386   9.428   0.984 -0.0095 -0.1017  1.3308
  483MOL0     O65078   7.507   9.393   1.040  0.3702 -0.0128  0.3860
  483MOL0     C65079   7.635   9.399   0.965  0.1189 -1.0723  0.0058
  483MOL0     C65080   7.707   9.541   0.979  0.1783 -0.3805  0.1985
  483MOL0     C65081   7.750   9.552   1.133 -0.2225 -0.7394 -0.3665
  483MOL0     C65082   7.881   9.630   1.160 -0.2713 -0.1948  0.1053
  483MOL0     C65083   7.922   9.629   1.304 -0.5684 -0.3043 -0.6363
  483MOL0     C65084   8.048   9.707   1.318  0.5984 -0.5985  0.0297
  483MOL0     C65085   8.092   9.739   1.462  0.3271 -0.6604  0.1185
  483MOL0     C65086   8.242   9.773   1.470  0.1836  1.0520  1.2193
  483MOL0     N65087   8.330   9.651   1.451 -0.1490 -0.2089 -0.1357
  483MOL0     C65088   8.370   9.598   1.334 -0.5471 -0.4033  0.5491
  483MOL0     C65089   8.426   9.486   1.371  0.0906 -0.1266  0.2023
  483MOL0     C65090   8.476   9.377   1.273  0.6340 -0.5932  0.3575
  483MOL0     C65091   8.403   9.239   1.278  0.1083  0.4599 -0.7809
  483MOL0     C65092   8.249   9.252   1.268 -0.9306 -0.2446 -0.5081
  483MOL0     C65093   8.195   9.272   1.131  0.2779 -0.0227  1.1552
  483MOL0     O65094   8.186   9.408   1.091  0.4931 -0.7653 -0.0119
  483MOL0     C65095   8.122   9.426   0.966  0.1916 -0.5534 -0.7668
  483MOL0     C65096   8.133   9.551   0.903 -0.0210 -0.7433  0.6500
  483MOL0     C65097   8.103   9.562   0.766  0.3689 -0.4078  0.1157
  483MOL0     C65098   8.038   9.452   0.698  0.6191  0.6852  0.9361
  483MOL0     C65099   8.008   9.470   0.557  0.5015  0.6608  0.8260
  483MOL0     O65100   7.927   9.382   0.494 -0.1666  0.2934 -0.0960
  483MOL0     C65101   7.948   9.372   0.355 -0.1312  0.0060 -0.1302
  483MOL0     C65102   8.068   9.321   0.303  0.3949 -0.0320 -0.3084
  483MOL0     C65103   8.092   9.315   0.164  0.5931 -0.5737  0.9916
  483MOL0     C65104   7.982   9.354   0.078 -0.5525 -0.3427 -0.2154
  483MOL0     O65105   8.009   9.338  -0.052  0.5550  0.4653  0.1566
  483MOL0     C65106   8.049   9.458  -0.118 -0.1024 -0.2026  0.5368
  483MOL0     C65107   8.070   9.456  -0.267  0.0987 -0.6896  0.3765
  483MOL0     C65108   8.195   9.371  -0.313  0.6169  0.7028  0.6688
  483MOL0     C65109   8.187   9.216  -0.316 -0.7802 -0.3390  0.2824
  483MOL0     C65110   8.316   9.163  -0.390  0.9073 -0.1187 -0.7186
  483MOL0     C65111   8.279   9.025  -0.450 -0.1973  1.0085  0.1381
  483MOL0     C65112   8.380   8.953  -0.534  0.0412  0.1341 -0.3796
  483MOL0     C65113   8.519   8.939  -0.463 -0.7596  0.9334 -0.0417
  483MOL0    Cl65114   8.492   8.862  -0.309 -0.0008  0.0017 -0.6893
  483MOL0     C65115   7.862   9.404   0.130  0.7364 -1.1509 -0.9549
  483MOL0     C65116   7.851   9.421   0.271  0.0945 -0.0578  0.5465
  483MOL0     O65117   8.068   9.560   0.499  0.5643  0.4384  0.2048
  483MOL0     C65118   8.032   9.326   0.760  0.0976 -0.0736 -0.2522
  483MOL0     C65119   8.071   9.312   0.893  0.7186 -0.4213  0.0713
  483MOL0     N65120   8.404   9.464   1.506  0.8600 -0.3372  0.2654
  483MOL0     N65121   8.369   9.579   1.560 -0.0888  0.0720  0.8553
  483MOL0     C65122   7.358   9.440   0.843 -0.8262  0.7246 -0.4606
  483MOL0     C65123   7.231   9.459   0.795 -0.2074  0.1349  0.2402
  483MOL0     C65124   6.812   9.686   0.879  0.4997  0.0461  0.4725
  483MOL0     C65125   6.728   9.602   0.812 -0.7328 -0.1168 -0.3655
  483MOL0     C65126   6.587   9.644   0.800 -0.4494  0.2117  0.7996
  483MOL0     C65127   6.534   9.764   0.860 -0.5520  0.7372 -0.1017
  483MOL0     O65128   6.403   9.807   0.853  0.2962 -0.6362  0.5324
  483MOL0     C65129   6.299   9.740   0.773  0.9016  0.0658  0.7652
  483MOL0     C65130   6.229   9.638   0.862 -0.8694 -0.6593  0.5186
  483MOL0     C65131   6.125   9.565   0.781 -0.0661 -0.1988 -0.1115
  483MOL0     C65132   6.029   9.483   0.866 -0.7143  0.3945  0.0879
  483MOL0     C65133   6.090   9.399   0.971 -0.5509  0.0359 -0.3150
  483MOL0     C65134   6.130   9.319   1.051  0.9322  1.2850 -1.2541
  483MOL0     C65135   6.628   9.841   0.924 -0.0021  1.4520 -0.5155
  483MOL0     C65136   6.765   9.810   0.933  0.3304  0.7768 -0.4567
  483MOL0     C65137   6.847   9.894   1.026 -0.3372 -0.1195  0.3781
  483MOL0     H65138   7.091   9.482   1.115  0.8758  0.2363  0.5629
  483MOL0     H65139   7.313   9.419   1.180 -0.4703 -1.4774 -0.6247
  483MOL0     H65140   7.702   9.321   1.000  0.6002 -0.7948 -0.2787
  483MOL0     H65141   7.613   9.380   0.859 -3.1550 -0.6657  0.4890
  483MOL0     H65142   7.633   9.615   0.949 -1.8077 -2.2940  0.1581
  483MOL0     H65143   7.785   9.537   0.903 -0.0245  1.0015 -0.1003
  483MOL0     H65144   7.764   9.450   1.172 -4.3653 -0.8546  1.3519
  483MOL0     H65145   7.674   9.596   1.198 -0.4007 -1.0034 -0.3959
  483MOL0     H65146   7.968   9.590   1.107  0.2568  4.0939 -2.7697
  483MOL0     H65147   7.861   9.732   1.126 -4.1505 -0.9667 -0.3761
  483MOL0     H65148   7.844   9.672   1.367  1.1931  1.0487  0.7335
  483MOL0     H65149   7.934   9.530   1.347 -0.1433  1.4813  3.8373
  483MOL0     H65150   8.123   9.648   1.265  0.0820 -0.6637 -0.6480
  483MOL0     H65151   8.039   9.798   1.258 -1.5744 -1.1145 -0.5239
  483MOL0     H65152   8.070   9.663   1.538 -0.2471 -0.5024  0.1192
  483MOL0     H65153   8.033   9.824   1.497 -2.7172 -2.2370 -0.7820
  483MOL0     H65154   8.271   9.844   1.392 -0.7877  0.6678  0.4940
  483MOL0     H65155   8.268   9.821   1.565  3.1630  1.8944  0.1087
  483MOL0     H65156   8.349   9.641   1.237  0.2900  1.6987  1.2284
  483MOL0     H65157   8.462   9.415   1.172  0.2582  1.6136  1.1700
  483MOL0     H65158   8.582   9.353   1.283  0.5415 -2.7305 -2.5124
  483MOL0     H65159   8.445   9.169   1.205  0.4767  0.8973 -0.9907
  483MOL0     H65160   8.418   9.196   1.378 -2.6245  0.7071 -0.1829
  483MOL0     H65161   8.218   9.335   1.333 -1.4386 -0.7884 -0.0461
  483MOL0     H65162   8.210   9.155   1.299 -1.2241  0.2387  0.7065
  483MOL0     H65163   8.093   9.234   1.132  0.0084  0.5099 -1.0474
  483MOL0     H65164   8.258   9.234   1.050  0.0207  3.8459 -1.1077
  483MOL0     H65165   8.173   9.631   0.965 -4.4512 -0.3265  3.3849
  483MOL0     H65166   8.121   9.648   0.702 -2.2519  0.3420  0.2624
  483MOL0     H65167   8.152   9.285   0.362  1.8741 -1.2003 -2.9344
  483MOL0     H65168   8.181   9.271   0.120 -0.6427 -1.4164 -0.8385
  483MOL0     H65169   7.981   9.541  -0.097  0.6480  1.1129 -1.8187
  483MOL0     H65170   8.146   9.483  -0.073  0.0736  0.5173 -0.2100
  483MOL0     H65171   7.972   9.436  -0.312 -1.0809  1.7068  1.6860
  483MOL0     H65172   8.086   9.557  -0.306  2.8377 -0.7247  1.2312
  483MOL0     H65173   8.222   9.411  -0.411 -0.6164  1.6648  0.7015
  483MOL0     H65174   8.272   9.387  -0.236 -0.1079  0.0484  1.5532
  483MOL0     H65175   8.096   9.181  -0.365  0.4246 -0.3756 -2.0822
  483MOL0     H65176   8.182   9.172  -0.215 -2.2791 -2.6900 -0.7239
  483MOL0     H65177   8.399   9.156  -0.319  0.6485  2.5611 -0.0227
  483MOL0     H65178   8.339   9.224  -0.478 -1.6889 -0.3618 -1.6564
  483MOL0     H65179   8.244   8.963  -0.366 -1.7605  1.3849 -0.2123
  483MOL0     H65180   8.183   9.033  -0.501 -1.4657  0.1736  2.2439
  483MOL0     H65181   8.404   8.999  -0.630  0.5768  0.5099 -0.0716
  483MOL0     H65182   8.339   8.854  -0.558  0.5968  0.1519 -1.4528
  483MOL0     H65183   8.575   8.872  -0.529  1.3342  3.3353 -0.8568
  483MOL0     H65184   8.570   9.035  -0.453 -1.4707  1.1557  2.0370
  483MOL0     H65185   7.789   9.443   0.059  1.4300  0.7286 -0.6908
  483MOL0     H65186   7.761   9.471   0.307 -0.3168  0.7716 -1.4882
  483MOL0     H65187   7.992   9.243   0.704 -0.2054 -1.4919  1.9500
  483MOL0     H65188   8.044   9.214   0.932  0.5105 -0.3819  0.0222
  483MOL0     H65189   7.438   9.427   0.771 -0.9622 -0.8294 -0.3631
  483MOL0     H65190   7.216   9.451   0.688  1.3528 -3.6533  0.1370
  483MOL0     H65191   6.769   9.509   0.774 -0.0838  0.5406 -1.3100
  483MOL0     H65192   6.518   9.575   0.753  1.5844 -0.1853 -1.8818
  483MOL0     H65193   6.337   9.695   0.681 -2.9719  0.2079 -1.1363
  483MOL0     H65194   6.224   9.817   0.751  0.8341 -0.0828  0.4651
  483MOL0     H65195   6.180   9.693   0.942  0.9897  0.8553  0.6752
  483MOL0     H65196   6.290   9.565   0.915  1.7189  0.7066 -0.4127
  483MOL0     H65197   6.178   9.491   0.720  0.5915  0.3006 -0.1561
  483MOL0     H65198   6.058   9.624   0.717 -1.0470 -0.0214  1.0481
  483MOL0     H65199   5.958   9.550   0.914 -0.4043  0.4732  0.4375
  483MOL0     H65200   5.980   9.416   0.795  1.5279  0.0135 -1.2249
  483MOL0     H65201   6.153   9.243   1.122  1.9347  1.7259 -1.0850
  483MOL0     H65202   6.589   9.917   0.991 -1.4768  0.0380  0.2811
  483MOL0     H65203   6.941   9.915   0.975 -0.8878 -1.9360 -1.5402
  483MOL0     H65204   6.789   9.982   1.058 -1.4620 -0.4075 -0.7741
  483MOL0     H65205   6.871   9.841   1.119 -4.1465 -0.3640  1.4028
  484MOL0     O65206   9.965  10.704   3.552 -0.1776  0.1953  0.2440
  484MOL0     C65207   9.996  10.587   3.536 -0.8370  0.1279  0.3869
  484MOL0     O65208  10.107  10.529   3.600 -0.7064 -0.5967 -0.5540
  484MOL0     C65209  10.172  10.602   3.695  0.6363 -0.0174 -0.1435
  484MOL0     C65210  10.314  10.633   3.662 -0.1937 -0.5962 -1.5395
  484MOL0     C65211  10.386  10.712   3.751  0.2619 -0.2431  0.1642
  484MOL0     C65212  10.336  10.750   3.872 -0.0549  0.1324  0.9571
  484MOL0     O65213  10.384  10.842   3.960  0.9848  1.0032  0.0630
  484MOL0     C65214  10.527  10.843   3.971  0.3467 -0.1470  0.4485
  484MOL0     C65215  10.563  10.951   4.065 -0.0478 -1.3252  1.1748
  484MOL0     C65216  10.712  10.972   4.063  0.3929  0.1646  0.1170
  484MOL0     C65217  10.769  11.052   4.183 -0.1638  0.8372  1.0382
  484MOL0     C65218  10.925  11.072   4.156 -0.4750 -0.5100  1.3369
  484MOL0     C65219  10.969  11.180   4.254  0.2442 -0.1173  0.7382
  484MOL0     C65220  11.118  11.209   4.229 -0.0990 -0.4060 -0.3706
  484MOL0     C65221  11.174  11.295   4.335 -1.0216  0.5671 -0.3157
  484MOL0     N65222  11.315  11.321   4.297  0.4273 -0.3246  0.1460
  484MOL0     C65223  11.363  11.439   4.259 -0.6560  0.1024  0.4469
  484MOL0     C65224  11.490  11.417   4.242 -0.3349  0.4417  0.4671
  484MOL0     C65225  11.597  11.506   4.212  0.2863 -0.4667  0.1499
  484MOL0     C65226  11.583  11.558   4.065 -0.4341  0.4527  0.0929
  484MOL0     C65227  11.706  11.654   4.027 -0.1217  0.3289 -0.4621
  484MOL0     C65228  11.837  11.581   4.018 -0.1292  0.0454 -0.4410
  484MOL0     O65229  11.921  11.583   4.139 -0.3477 -0.0227  0.3019
  484MOL0     C65230  12.050  11.598   4.085 -0.3820  0.2283 -0.8429
  484MOL0     C65231  12.125  11.722   4.090  0.0282  0.6414  0.3299
  484MOL0     C65232  12.251  11.725   4.050  0.0853  0.2211  0.4476
  484MOL0     C65233  12.324  11.608   4.024 -0.5905  0.5250 -0.5996
  484MOL0     C65234  12.470  11.619   3.986 -0.4043  0.6286  0.3304
  484MOL0     O65235  12.527  11.743   4.011  0.5178 -0.2752  0.9922
  484MOL0     C65236  12.660  11.750   3.990  0.1186 -0.2906 -1.3162
  484MOL0     C65237  12.721  11.715   3.876 -0.4059 -0.1033  0.6410
  484MOL0     C65238  12.861  11.719   3.875 -0.1378 -0.3641  0.1920
  484MOL0     C65239  12.937  11.768   3.982 -0.8665  0.4347  0.7618
  484MOL0     O65240  13.071  11.769   3.978 -0.5961 -0.2646  0.8005
  484MOL0     C65241  13.156  11.760   3.866 -0.1960  0.0102  0.2633
  484MOL0     C65242  13.292  11.746   3.929 -0.1604 -0.0010 -0.1634
  484MOL0     C65243  13.412  11.760   3.842 -0.3329  0.4318 -0.0276
  484MOL0     C65244  13.400  11.678   3.704 -0.3313 -0.1724 -1.1455
  484MOL0     C65245  13.531  11.647   3.645 -0.3796 -0.5925  0.5018
  484MOL0     C65246  13.617  11.766   3.600 -0.0147  0.4731 -0.3682
  484MOL0     C65247  13.737  11.706   3.518 -0.3737 -0.3601  0.3688
  484MOL0     C65248  13.842  11.810   3.486  0.7517 -0.0448  0.0506
  484MOL0    Cl65249  13.868  11.834   3.312  0.5392  0.1091 -0.3262
  484MOL0     C65250  12.876  11.798   4.097 -0.0302 -0.4165  0.0935
  484MOL0     C65251  12.737  11.792   4.110  0.1555 -0.3864 -0.5871
  484MOL0     O65252  12.532  11.525   3.945 -1.1446 -0.0159  0.8456
  484MOL0     C65253  12.248  11.486   4.018 -0.5247 -0.0771 -0.7185
  484MOL0     C65254  12.115  11.477   4.058  0.2248 -1.0446  1.4751
  484MOL0     N65255  11.518  11.281   4.268 -0.1861 -0.9737  0.5390
  484MOL0     N65256  11.410  11.221   4.301 -0.1382 -0.8209  0.7481
  484MOL0     C65257  10.203  10.720   3.901  0.2786  0.0510  0.3900
  484MOL0     C65258  10.120  10.636   3.821  0.3531 -0.6772  0.8848
  484MOL0     C65259   9.906  10.490   3.458  0.3764  0.6487 -0.7465
  484MOL0     C65260   9.768  10.519   3.465 -0.3190 -0.0513  0.7900
  484MOL0     C65261   9.681  10.424   3.410  0.6247 -0.4877 -0.3338
  484MOL0     C65262   9.723  10.304   3.347  0.3757  0.0462  0.3082
  484MOL0     O65263   9.622  10.231   3.290 -0.0813  0.4260  0.3025
  484MOL0     C65264   9.643  10.100   3.239 -0.0758 -0.1180 -0.2682
  484MOL0     C65265   9.519  10.055   3.171  0.4742 -0.2210  0.2709
  484MOL0     C65266   9.498   9.901   3.136 -0.3686 -0.4661 -0.2558
  484MOL0     C65267   9.433   9.821   3.249  0.3405 -0.2789  0.3416
  484MOL0     C65268   9.293   9.851   3.260  0.5445 -0.5028 -1.1253
  484MOL0     C65269   9.177   9.891   3.276 -0.2196  0.8030  0.8056
  484MOL0     C65270   9.859  10.282   3.345  1.0434  0.0966  0.3514
  484MOL0     C65271   9.951  10.371   3.398 -0.7092  0.3686  0.4248
  484MOL0     C65272  10.100  10.333   3.387  0.4189 -0.2408 -0.7335
  484MOL0     H65273  10.361  10.609   3.568 -0.1063 -0.5449 -1.5090
  484MOL0     H65274  10.482  10.743   3.711 -0.7873 -0.8124 -3.0964
  484MOL0     H65275  10.563  10.745   4.000 -0.6758 -0.0616  2.1131
  484MOL0     H65276  10.569  10.882   3.877  1.5012 -0.3058  0.8881
  484MOL0     H65277  10.527  10.926   4.166 -3.1955  0.3528  0.6039
  484MOL0     H65278  10.526  11.050   4.036  0.0765 -1.7873 -0.6605
  484MOL0     H65279  10.726  11.039   3.978 -2.1814 -1.3754 -1.6715
  484MOL0     H65280  10.772  10.881   4.051 -0.2581 -0.1026 -1.3696
  484MOL0     H65281  10.716  11.147   4.175  1.1350  1.4653 -4.6277
  484MOL0     H65282  10.756  10.997   4.277  0.9337 -0.4345  0.4854
  484MOL0     H65283  10.980  10.979   4.173  0.4452 -0.1525  0.4254
  484MOL0     H65284  10.946  11.109   4.055 -1.2109  0.5148  1.5512
  484MOL0     H65285  10.900  11.262   4.235  0.4073 -0.1704 -0.1036
  484MOL0     H65286  10.947  11.161   4.360  0.9257 -0.3546  0.8426
  484MOL0     H65287  11.117  11.268   4.137  3.3154  1.6648  0.7212
  484MOL0     H65288  11.173  11.114   4.227  1.4854  0.4835 -0.5732
  484MOL0     H65289  11.131  11.393   4.359  1.5633  0.9532  3.6671
  484MOL0     H65290  11.178  11.240   4.430  0.2948  2.2880  0.6595
  484MOL0     H65291  11.304  11.530   4.247 -2.3794 -1.1575 -1.4007
  484MOL0     H65292  11.599  11.582   4.291  1.2967 -1.9502  1.6085
  484MOL0     H65293  11.689  11.454   4.239  0.4210 -0.6948 -0.7248
  484MOL0     H65294  11.587  11.483   3.986  0.7234 -0.9127  1.3986
  484MOL0     H65295  11.487  11.611   4.058 -1.9960 -1.8545  2.1355
  484MOL0     H65296  11.723  11.737   4.096  3.0835 -0.8069  0.3007
  484MOL0     H65297  11.666  11.694   3.933  0.8019 -1.1005 -1.5107
  484MOL0     H65298  11.894  11.623   3.935 -0.6566  5.2861  1.4326
  484MOL0     H65299  11.814  11.477   3.995  0.0813  0.5042 -2.9561
  484MOL0     H65300  12.076  11.802   4.143 -2.1363 -1.4347  1.6594
  484MOL0     H65301  12.307  11.818   4.055  2.9916 -1.4158  0.4502
  484MOL0     H65302  12.670  11.678   3.788 -0.3116 -0.0120  0.5472
  484MOL0     H65303  12.910  11.680   3.787 -0.6869  0.2414 -0.3949
  484MOL0     H65304  13.126  11.678   3.801  0.6097  0.8837 -1.2595
  484MOL0     H65305  13.142  11.860   3.824 -2.5940  1.3872  3.8015
  484MOL0     H65306  13.300  11.815   4.014  2.1092 -2.5069  1.8477
  484MOL0     H65307  13.303  11.644   3.967 -1.4100  0.0993  0.5256
  484MOL0     H65308  13.429  11.865   3.817  2.8183 -0.3953 -2.1489
  484MOL0     H65309  13.506  11.734   3.892 -0.3517  1.5514  0.6135
  484MOL0     H65310  13.343  11.730   3.626  1.1346 -2.0160 -3.5693
  484MOL0     H65311  13.353  11.583   3.728  1.7129 -2.1025 -4.1749
  484MOL0     H65312  13.515  11.597   3.549  1.1113 -1.2393  0.5693
  484MOL0     H65313  13.589  11.585   3.714  0.3769 -1.0690 -0.5405
  484MOL0     H65314  13.562  11.819   3.522 -0.9719 -3.0013 -2.2499
  484MOL0     H65315  13.649  11.828   3.685  1.5829  1.9292 -1.9435
  484MOL0     H65316  13.719  11.640   3.433  3.3886 -1.5561  0.3323
  484MOL0     H65317  13.793  11.635   3.580 -0.0138  0.8580  1.4938
  484MOL0     H65318  13.810  11.908   3.520  0.7994  0.1574 -0.4725
  484MOL0     H65319  13.935  11.776   3.532 -0.2393 -0.1960  2.0464
  484MOL0     H65320  12.934  11.827   4.184 -0.2177  0.2290  0.0088
  484MOL0     H65321  12.683  11.820   4.200 -1.1746  0.5391 -1.6320
  484MOL0     H65322  12.302  11.397   3.987  0.8157  0.0444  1.1144
  484MOL0     H65323  12.057  11.386   4.059 -1.6991  0.0518 -0.7631
  484MOL0     H65324  10.171  10.764   3.995  3.0932  1.1048  0.9635
  484MOL0     H65325  10.015  10.628   3.844  0.2739 -0.3636  0.6375
  484MOL0     H65326   9.725  10.609   3.508  0.9041  0.6797  0.5115
  484MOL0     H65327   9.578  10.446   3.434  0.8500  1.4384 -0.9832
  484MOL0     H65328   9.672  10.041   3.327  1.4814  3.2051  1.6276
  484MOL0     H65329   9.716  10.114   3.158  0.3135 -0.1997  0.0635
  484MOL0     H65330   9.504  10.095   3.071 -1.7514 -1.2348  0.1412
  484MOL0     H65331   9.435  10.086   3.236 -0.9453 -1.6055 -0.8231
  484MOL0     H65332   9.598   9.863   3.113 -0.1428 -0.5002  0.7272
  484MOL0     H65333   9.448   9.878   3.042  3.3908 -3.9013 -1.7422
  484MOL0     H65334   9.432   9.719   3.210 -0.8288 -0.3236  0.4614
  484MOL0     H65335   9.489   9.836   3.342 -0.8184 -1.8091  1.3398
  484MOL0     H65336   9.073   9.916   3.287 -0.3694  1.0107 -0.7807
  484MOL0     H65337   9.907  10.214   3.275  2.6746 -1.5972  2.9252
  484MOL0     H65338  10.164  10.421   3.395  0.1363 -0.0618 -0.4202
  484MOL0     H65339  10.122  10.265   3.470  1.6036  0.2087 -0.6641
  484MOL0     H65340  10.107  10.280   3.291 -1.8107 -0.6703 -0.6992
  485MOL0     O65341   8.924   5.059   0.952  0.8586  0.4041  0.5163
  485MOL0     C65342   8.918   4.956   0.889 -0.6939  0.6772  0.1647
  485MOL0     O65343   8.811   4.910   0.815 -0.3855 -0.6252 -0.3381
  485MOL0     C65344   8.707   5.000   0.785 -0.2148 -0.0878 -0.6704
  485MOL0     C65345   8.706   5.137   0.771 -0.2418 -0.3536 -0.3524
  485MOL0     C65346   8.585   5.198   0.726 -0.3881  0.8823  0.2116
  485MOL0     C65347   8.469   5.130   0.710  0.3957  0.2697 -0.5181
  485MOL0     O65348   8.347   5.186   0.680 -0.0613  0.2133  0.1428
  485MOL0     C65349   8.332   5.321   0.713 -0.2610  0.2222 -0.9264
  485MOL0     C65350   8.188   5.367   0.686 -1.0275 -0.2796 -0.5716
  485MOL0     C65351   8.173   5.496   0.765 -0.1748 -0.4083 -0.7540
  485MOL0     C65352   8.060   5.586   0.702  0.7958 -0.0869 -0.9108
  485MOL0     C65353   8.115   5.730   0.699  0.2381 -0.2882  0.5094
  485MOL0     C65354   8.092   5.815   0.826 -0.5290  0.0998  0.0444
  485MOL0     C65355   8.151   5.953   0.833  0.2515 -1.3611  0.3631
  485MOL0     C65356   8.150   6.013   0.975  0.8269 -0.1720 -0.0885
  485MOL0     N65357   8.189   6.151   0.981  0.3806 -0.6981  0.3942
  485MOL0     C65358   8.314   6.196   1.012  0.4036  0.0268 -0.0717
  485MOL0     C65359   8.303   6.331   1.023  0.8657 -0.0032 -0.0156
  485MOL0     C65360   8.419   6.425   1.052  0.2384  0.1739 -0.1912
  485MOL0     C65361   8.473   6.418   1.193 -0.3256 -0.5592 -0.6525
  485MOL0     C65362   8.536   6.555   1.240 -0.1895  1.1681  0.6376
  485MOL0     C65363   8.625   6.545   1.374 -0.4140 -0.5915  0.1066
  485MOL0     O65364   8.731   6.456   1.352  0.2954 -0.3194 -0.4294
  485MOL0     C65365   8.850   6.518   1.338 -0.4165  0.5107 -1.7126
  485MOL0     C65366   8.914   6.506   1.217 -0.5200  0.0364 -0.7361
  485MOL0     C65367   9.038   6.564   1.199 -0.1047  0.3633  0.4830
  485MOL0     C65368   9.092   6.645   1.296 -0.5607 -0.9515 -0.1074
  485MOL0     C65369   9.237   6.699   1.286  0.0678  1.0447 -0.0978
  485MOL0     O65370   9.337   6.623   1.231 -0.3542  0.3163 -0.1694
  485MOL0     C65371   9.471   6.667   1.231  0.6346  0.0857  0.4157
  485MOL0     C65372   9.510   6.792   1.183 -0.5836  0.4700  0.4405
  485MOL0     C65373   9.644   6.827   1.173 -0.2957 -0.3206  0.9163
  485MOL0     C65374   9.752   6.744   1.216  0.9329  0.2225  0.1002
  485MOL0     O65375   9.886   6.785   1.208 -0.5168 -0.4871  0.5340
  485MOL0     C65376   9.915   6.923   1.185  0.6525  0.5427 -0.1123
  485MOL0     C65377  10.063   6.940   1.207 -0.1605 -0.7000 -0.2924
  485MOL0     C65378  10.146   6.884   1.082  0.5250  0.6844 -1.5944
  485MOL0     C65379  10.288   6.930   1.099 -0.7279 -0.2410  0.7294
  485MOL0     C65380  10.375   6.899   0.968  0.6462 -0.9670  0.1796
  485MOL0     C65381  10.527   6.911   0.977  0.9755 -0.8599 -0.8927
  485MOL0     C65382  10.580   7.026   1.059  0.1531  0.8486  0.2753
  485MOL0     C65383  10.543   7.159   1.007 -0.2775 -0.3911  0.6688
  485MOL0    Cl65384  10.656   7.284   1.054  0.1081 -0.4100  0.4489
  485MOL0     C65385   9.714   6.614   1.258 -0.5314 -0.4489  0.3423
  485MOL0     C65386   9.575   6.574   1.262 -1.1021 -0.2031  0.0410
  485MOL0     O65387   9.253   6.809   1.341  0.1967  0.0006 -0.4606
  485MOL0     C65388   9.036   6.654   1.427 -0.2259 -0.5883 -0.1988
  485MOL0     C65389   8.914   6.589   1.453 -0.3398 -0.2247 -0.2397
  485MOL0     N65390   8.166   6.356   1.015 -0.3044 -0.7580 -0.8799
  485MOL0     N65391   8.103   6.254   0.986  0.0394  0.2328 -0.2855
  485MOL0     C65392   8.472   4.988   0.725 -0.1721  0.7507  0.1043
  485MOL0     C65393   8.592   4.923   0.761 -0.6760  0.0122  0.3900
  485MOL0     C65394   9.032   4.852   0.892 -0.1277 -0.5699 -1.2109
  485MOL0     C65395   9.163   4.919   0.913  0.3131  0.2892  0.5853
  485MOL0     C65396   9.278   4.847   0.929  1.0880  0.1796 -0.3031
  485MOL0     C65397   9.279   4.705   0.899 -0.1323 -0.4350 -0.6830
  485MOL0     O65398   9.392   4.627   0.912 -0.8406 -0.4985  0.3422
  485MOL0     C65399   9.513   4.691   0.872  0.6790 -0.0643 -0.3780
  485MOL0     C65400   9.593   4.752   0.996  0.2770 -0.1209  0.8636
  485MOL0     C65401   9.611   4.657   1.121  0.3227  0.0705  0.1788
  485MOL0     C65402   9.707   4.709   1.225 -0.2265  1.3699  0.5022
  485MOL0     C65403   9.645   4.810   1.308  0.1905 -0.7145 -0.0634
  485MOL0     C65404   9.581   4.902   1.357 -0.1495 -0.3417 -0.9418
  485MOL0     C65405   9.150   4.640   0.878 -0.4792 -0.3275 -0.2434
  485MOL0     C65406   9.026   4.715   0.870  0.0243  0.1295 -1.5303
  485MOL0     C65407   8.904   4.625   0.859  0.2919  0.2503  0.2622
  485MOL0     H65408   8.795   5.195   0.789 -0.3329 -0.8354  1.9214
  485MOL0     H65409   8.587   5.306   0.717 -3.1796  1.1577  1.7627
  485MOL0     H65410   8.360   5.322   0.819 -0.5157  1.7622 -0.8510
  485MOL0     H65411   8.412   5.380   0.668  3.4260 -4.3397 -1.1007
  485MOL0     H65412   8.122   5.289   0.726  1.8147 -0.9387  3.4298
  485MOL0     H65413   8.197   5.371   0.577  0.0637  0.5232 -0.4667
  485MOL0     H65414   8.269   5.547   0.777  0.3427 -1.0092 -2.0467
  485MOL0     H65415   8.135   5.477   0.865 -0.0307 -0.1304 -0.6471
  485MOL0     H65416   8.023   5.551   0.605  2.3090 -1.0832 -1.1620
  485MOL0     H65417   7.979   5.593   0.775 -0.4506 -1.9534 -2.0330
  485MOL0     H65418   8.219   5.742   0.667 -0.2966  3.7732 -0.2008
  485MOL0     H65419   8.050   5.778   0.626 -1.5617 -1.5977  1.1810
  485MOL0     H65420   7.986   5.829   0.848 -0.5623  0.5272 -0.3626
  485MOL0     H65421   8.137   5.758   0.908 -1.6045  0.1269  0.6660
  485MOL0     H65422   8.089   6.020   0.772 -2.4450 -1.5126  2.7240
  485MOL0     H65423   8.257   5.945   0.809  1.1540 -2.3026  3.9865
  485MOL0     H65424   8.051   6.007   1.021  0.0186  3.3020 -1.0635
  485MOL0     H65425   8.210   5.946   1.037 -0.8921 -2.5014 -0.7686
  485MOL0     H65426   8.407   6.140   1.026 -0.2019 -1.1591 -0.6490
  485MOL0     H65427   8.498   6.405   0.979  0.8960 -2.3424  1.1081
  485MOL0     H65428   8.370   6.523   1.054  0.6180  0.4950 -2.7139
  485MOL0     H65429   8.390   6.388   1.259  1.0786 -2.0644  0.5100
  485MOL0     H65430   8.546   6.337   1.200  2.0450  1.5937  2.0070
  485MOL0     H65431   8.465   6.635   1.262 -1.1110  1.4998 -2.9055
  485MOL0     H65432   8.592   6.599   1.157  0.0623 -1.7048 -0.8386
  485MOL0     H65433   8.562   6.505   1.454 -1.8028  1.6457  0.2410
  485MOL0     H65434   8.666   6.638   1.415  1.9286 -2.2062  1.6686
  485MOL0     H65435   8.862   6.463   1.132 -2.0859  0.1115  0.1594
  485MOL0     H65436   9.087   6.554   1.103  1.7771 -0.2476  1.4513
  485MOL0     H65437   9.434   6.857   1.141  1.2392  1.2486 -1.8280
  485MOL0     H65438   9.664   6.928   1.139 -0.0169  0.0158  2.0446
  485MOL0     H65439   9.890   6.963   1.087  0.0058  0.3116 -0.0492
  485MOL0     H65440   9.872   6.985   1.265  1.1282  1.6089 -0.6674
  485MOL0     H65441  10.075   7.048   1.209 -1.4610 -0.5088 -1.2133
  485MOL0     H65442  10.098   6.878   1.291  1.1588 -0.0924 -0.3750
  485MOL0     H65443  10.136   6.775   1.079  0.5738  0.5343  1.1881
  485MOL0     H65444  10.102   6.938   0.997  0.8088  0.8768 -1.6212
  485MOL0     H65445  10.351   6.882   1.175  0.8550 -0.0360 -0.4046
  485MOL0     H65446  10.293   7.036   1.127  0.6060 -0.1903  0.3957
  485MOL0     H65447  10.337   6.952   0.881 -0.1102 -1.0105  0.4720
  485MOL0     H65448  10.360   6.800   0.925  0.6469 -0.4032 -1.1538
  485MOL0     H65449  10.559   6.815   1.020 -2.7456 -2.0242 -0.3443
  485MOL0     H65450  10.570   6.905   0.877  1.6004 -0.7285 -0.6327
  485MOL0     H65451  10.689   7.018   1.056  0.3440  1.1193  3.4599
  485MOL0     H65452  10.553   7.013   1.164  2.7868 -0.6282  0.8480
  485MOL0     H65453  10.561   7.156   0.899  2.2158  4.0602  0.6956
  485MOL0     H65454  10.444   7.195   1.038 -0.1620  1.5689 -0.9770
  485MOL0     H65455   9.785   6.532   1.266  1.3299  1.1499  1.0358
  485MOL0     H65456   9.552   6.477   1.303  0.6111  0.1509  2.0200
  485MOL0     H65457   9.093   6.681   1.515  0.5225 -2.2706 -0.1302
  485MOL0     H65458   8.881   6.566   1.554  0.9926 -1.3745 -0.0419
  485MOL0     H65459   8.381   4.930   0.726 -2.0394  3.4442  2.6622
  485MOL0     H65460   8.588   4.817   0.783 -1.2999  0.1171  0.8031
  485MOL0     H65461   9.150   5.023   0.942 -5.3005  1.4195 -4.2052
  485MOL0     H65462   9.373   4.898   0.941  2.4726 -2.7229  2.2570
  485MOL0     H65463   9.501   4.769   0.796  0.2306  0.4499  0.2096
  485MOL0     H65464   9.578   4.617   0.824 -0.0730 -1.8515  1.2445
  485MOL0     H65465   9.540   4.840   1.034 -0.5199 -1.0243  1.9079
  485MOL0     H65466   9.687   4.789   0.953 -0.8118  1.3599 -0.3910
  485MOL0     H65467   9.642   4.558   1.086  0.3148  0.0171  0.3256
  485MOL0     H65468   9.515   4.649   1.174 -0.6779  0.7170 -1.4398
  485MOL0     H65469   9.745   4.632   1.292  0.0931  2.5865  1.7870
  485MOL0     H65470   9.785   4.751   1.161  1.3599 -1.0566  0.7105
  485MOL0     H65471   9.525   4.981   1.402 -2.3842 -3.2386  1.9044
  485MOL0     H65472   9.162   4.533   0.867 -0.8111 -1.1914  5.1167
  485MOL0     H65473   8.862   4.639   0.759  0.5179  2.6551  0.4470
  485MOL0     H65474   8.922   4.519   0.876  0.6455  0.0539 -1.1900
  485MOL0     H65475   8.834   4.648   0.940 -0.8987  1.4303 -1.0363
  486MOL0     O65476   1.361  10.399   0.057  0.2404  0.2619 -0.2776
  486MOL0     C65477   1.347  10.327  -0.041  0.9737  0.7988  0.1679
  486MOL0     O65478   1.453  10.284  -0.118  0.2443  0.3591  0.1201
  486MOL0     C65479   1.582  10.321  -0.073  0.2294  0.3210 -1.3911
  486MOL0     C65480   1.658  10.227  -0.005 -0.2483 -0.4342 -0.1974
  486MOL0     C65481   1.783  10.274   0.048  0.0724 -0.9166  0.4507
  486MOL0     C65482   1.830  10.409   0.036 -1.0250  0.4555 -0.1457
  486MOL0     O65483   1.955  10.455   0.069  0.6513 -0.4542  0.0871
  486MOL0     C65484   2.073  10.375   0.088  1.0308  0.5730  0.4085
  486MOL0     C65485   2.185  10.460   0.132 -0.6465  0.3741  0.1098
  486MOL0     C65486   2.309  10.379   0.165 -0.8055 -0.0351 -0.4949
  486MOL0     C65487   2.416  10.392   0.054  0.0888  0.0080  0.4020
  486MOL0     C65488   2.462  10.546   0.047  0.2122  1.0596 -0.7533
  486MOL0     C65489   2.607  10.563   0.092  0.1756 -0.7345 -0.7669
  486MOL0     C65490   2.648  10.710   0.135 -0.5297  0.2850 -0.5953
  486MOL0     C65491   2.805  10.723   0.145 -0.4310 -0.0149  0.3546
  486MOL0     N65492   2.859  10.675   0.271 -0.5101 -0.2351 -0.8603
  486MOL0     C65493   2.924  10.744   0.367 -0.1707 -0.8779  0.1025
  486MOL0     C65494   2.935  10.654   0.469  0.2118 -0.8900  0.7687
  486MOL0     C65495   2.997  10.668   0.603  0.4766 -0.2834  1.2055
  486MOL0     C65496   3.141  10.610   0.602 -0.1938  0.1949 -0.4331
  486MOL0     C65497   3.215  10.648   0.729  0.1832 -0.4049 -0.7570
  486MOL0     C65498   3.365  10.613   0.725 -0.0681  0.7908 -0.1854
  486MOL0     O65499   3.375  10.465   0.718 -0.0394 -0.3745  0.1429
  486MOL0     C65500   3.489  10.398   0.680  0.1326 -0.3261 -0.3461
  486MOL0     C65501   3.483  10.258   0.685 -0.4024  0.6125  0.6723
  486MOL0     C65502   3.593  10.183   0.639 -0.0246  0.2965  0.5762
  486MOL0     C65503   3.709  10.251   0.597  0.5558  0.8903  0.3570
  486MOL0     C65504   3.832  10.170   0.569  0.6173  0.1557 -0.4018
  486MOL0     O65505   3.936  10.250   0.531 -0.4316  0.5960 -0.6601
  486MOL0     C65506   4.051  10.189   0.486 -0.0829 -0.3184  0.2679
  486MOL0     C65507   4.108  10.076   0.538 -0.4343 -0.5426 -0.5520
  486MOL0     C65508   4.235  10.042   0.494 -0.2358 -0.6046  0.0121
  486MOL0     C65509   4.306  10.109   0.391 -0.4591 -0.9682 -0.2600
  486MOL0     O65510   4.434  10.073   0.344 -0.5121  0.1257 -0.1317
  486MOL0     C65511   4.541  10.170   0.339  0.6211  0.3348 -0.5762
  486MOL0     C65512   4.653  10.157   0.437  0.2072  0.1899 -0.4416
  486MOL0     C65513   4.597  10.184   0.584 -0.0759  0.9803  0.5009
  486MOL0     C65514   4.724  10.197   0.676 -0.7329 -0.4195 -0.4312
  486MOL0     C65515   4.713  10.141   0.818 -0.4547  0.5912 -0.0734
  486MOL0     C65516   4.845  10.127   0.890 -0.1559  1.1197  0.0163
  486MOL0     C65517   4.835  10.063   1.032  0.6500  0.1356 -0.3058
  486MOL0     C65518   4.976  10.059   1.092 -0.2948 -0.2003  0.2671
  486MOL0    Cl65519   5.036  10.224   1.116  0.0637 -0.2154  0.1434
  486MOL0     C65520   4.248  10.232   0.345 -0.6033 -0.3359 -0.9404
  486MOL0     C65521   4.120  10.264   0.390 -0.5440 -0.9308 -0.4130
  486MOL0     O65522   3.825  10.052   0.550 -0.0906 -0.1336  1.0198
  486MOL0     C65523   3.712  10.394   0.608  0.4635  0.5514  0.4588
  486MOL0     C65524   3.605  10.469   0.645 -0.3366  0.4349  0.9769
  486MOL0     N65525   2.908  10.528   0.419 -0.1708  0.0675 -0.4328
  486MOL0     N65526   2.872  10.544   0.293  0.0348 -0.1386 -0.1827
  486MOL0     C65527   1.742  10.500  -0.031 -0.0110  0.5311  0.0714
  486MOL0     C65528   1.619  10.459  -0.074 -0.0424  0.5486  0.6801
  486MOL0     C65529   1.211  10.263  -0.070 -0.4977  0.6255 -0.2409
  486MOL0     C65530   1.219  10.133  -0.122  0.3347 -0.5486 -0.3844
  486MOL0     C65531   1.109  10.060  -0.167 -0.4396 -0.7727 -0.0760
  486MOL0     C65532   0.983  10.099  -0.150  0.7879 -0.1066  0.5297
  486MOL0     O65533   0.882  10.018  -0.193  0.0995  0.2235 -0.0665
  486MOL0     C65534   0.750  10.075  -0.181 -0.6447 -0.0369 -0.3744
  486MOL0     C65535   0.640   9.970  -0.204  0.5375  0.5979  0.2296
  486MOL0     C65536   0.658   9.840  -0.123  0.5875 -1.1540  0.2752
  486MOL0     C65537   0.531   9.750  -0.130  0.3866  0.1588  0.0958
  486MOL0     C65538   0.511   9.681  -0.266  0.4367  0.0989 -0.2472
  486MOL0     C65539   0.530   9.635  -0.377  0.1041 -0.0670 -0.1257
  486MOL0     C65540   0.970  10.225  -0.082 -0.2857 -0.8283 -0.5940
  486MOL0     C65541   1.083  10.309  -0.037 -0.3677  0.1007  1.3603
  486MOL0     C65542   1.064  10.445   0.032 -0.4764 -0.2103  0.9413
  486MOL0     H65543   1.620  10.126   0.004 -0.4666 -0.5047 -1.6589
  486MOL0     H65544   1.856  10.202   0.084 -1.1800 -2.4814 -0.0304
  486MOL0     H65545   2.040  10.300   0.161 -2.0253  1.4498  0.0584
  486MOL0     H65546   2.105  10.318  -0.000  0.3796  1.7229 -0.5943
  486MOL0     H65547   2.169  10.530   0.215  4.3893  2.4260 -0.2688
  486MOL0     H65548   2.204  10.528   0.049  0.0043  0.8052  0.6020
  486MOL0     H65549   2.291  10.274   0.192  2.6811 -0.4138  0.9374
  486MOL0     H65550   2.347  10.408   0.263 -1.7141  1.3543 -0.5393
  486MOL0     H65551   2.496  10.328   0.090 -1.3941 -0.8685  2.3252
  486MOL0     H65552   2.386  10.355  -0.045 -3.7963  0.2781  1.3119
  486MOL0     H65553   2.440  10.587  -0.052  1.8766  1.1188 -1.1316
  486MOL0     H65554   2.406  10.602   0.122  0.2568 -0.2481  0.2964
  486MOL0     H65555   2.625  10.516   0.189 -0.3288  1.5497  0.5053
  486MOL0     H65556   2.679  10.521   0.021  1.1112  1.9269 -1.5223
  486MOL0     H65557   2.620  10.732   0.239  0.7098  1.6398 -0.5074
  486MOL0     H65558   2.610  10.787   0.068 -3.1335 -0.0310  0.3803
  486MOL0     H65559   2.853  10.676   0.059  2.5518  0.5330  1.6039
  486MOL0     H65560   2.830  10.830   0.137  2.4537 -0.7565 -2.8886
  486MOL0     H65561   2.951  10.849   0.371 -0.3031 -0.8700  0.9128
  486MOL0     H65562   2.990  10.772   0.637  0.0845 -0.9074  3.1810
  486MOL0     H65563   2.942  10.612   0.679  2.3326 -2.9251  0.7511
  486MOL0     H65564   3.130  10.501   0.606 -1.1249  0.2844 -0.3657
  486MOL0     H65565   3.194  10.632   0.509  0.0646 -1.8494 -0.8086
  486MOL0     H65566   3.156  10.610   0.813  0.2868 -0.2044 -0.5928
  486MOL0     H65567   3.219  10.756   0.745  1.1616 -0.6854  1.1327
  486MOL0     H65568   3.424  10.658   0.805 -0.6644 -0.2633  0.8745
  486MOL0     H65569   3.401  10.648   0.628  1.5480  0.4133  0.2499
  486MOL0     H65570   3.395  10.211   0.728 -1.7338  3.1741  0.8739
  486MOL0     H65571   3.589  10.075   0.651  1.2984 -0.1229 -2.1507
  486MOL0     H65572   4.061  10.026   0.622 -0.9248  0.0817 -0.4432
  486MOL0     H65573   4.290   9.953   0.521 -2.4125 -1.6170  1.3475
  486MOL0     H65574   4.589  10.157   0.242  5.0406  0.5983  1.2934
  486MOL0     H65575   4.500  10.272   0.339  1.6746  0.7759 -0.2570
  486MOL0     H65576   4.710  10.064   0.430 -0.2339 -0.5361  3.3521
  486MOL0     H65577   4.729  10.234   0.425 -0.3892  1.1740  1.5414
  486MOL0     H65578   4.538  10.275   0.585 -2.9523 -0.7619  0.0113
  486MOL0     H65579   4.535  10.101   0.619  1.1645  0.4444  1.5343
  486MOL0     H65580   4.757  10.301   0.684  1.8487 -1.2915  3.2153
  486MOL0     H65581   4.803  10.136   0.631 -2.2478 -2.4091 -0.5323
  486MOL0     H65582   4.666  10.044   0.800  1.0732  0.4052 -4.1393
  486MOL0     H65583   4.646  10.201   0.881  1.7123  0.3404  2.6228
  486MOL0     H65584   4.916  10.063   0.837  2.1731 -0.9617  5.0048
  486MOL0     H65585   4.888  10.227   0.897 -0.9733  1.5625 -0.9991
  486MOL0     H65586   4.796   9.961   1.036  1.6770 -0.3133 -1.0919
  486MOL0     H65587   4.769  10.118   1.099  2.1942 -0.1024  1.4782
  486MOL0     H65588   4.966  10.006   1.187  1.4143 -1.4448 -0.2052
  486MOL0     H65589   5.042  10.008   1.021 -0.9367 -0.5298 -0.1098
  486MOL0     H65590   4.295  10.279   0.259  0.8964 -0.6288 -0.3195
  486MOL0     H65591   4.071  10.352   0.348  0.0552 -1.3612 -2.0865
  486MOL0     H65592   3.801  10.445   0.574  0.7795  0.1363  0.6564
  486MOL0     H65593   3.614  10.576   0.632 -0.2190  0.5073  1.6372
  486MOL0     H65594   1.766  10.605  -0.037 -2.3926  1.1599  0.5505
  486MOL0     H65595   1.552  10.527  -0.126 -0.9407  0.1094  1.2384
  486MOL0     H65596   1.317  10.089  -0.129  0.3844 -0.4288 -0.4355
  486MOL0     H65597   1.128   9.974  -0.230  1.7968 -0.8589  0.6278
  486MOL0     H65598   0.742  10.165  -0.244 -2.0246 -0.0782 -0.2973
  486MOL0     H65599   0.738  10.104  -0.076  0.7900 -1.0538  0.0899
  486MOL0     H65600   0.631   9.942  -0.309  0.1544 -1.1585  0.7012
  486MOL0     H65601   0.544  10.010  -0.170 -0.1306 -1.6969  1.1961
  486MOL0     H65602   0.656   9.858  -0.015  0.6276 -3.2363  0.6808
  486MOL0     H65603   0.754   9.799  -0.157  0.3527 -0.6684 -1.0587
  486MOL0     H65604   0.540   9.669  -0.057 -2.4595  0.6385  1.0982
  486MOL0     H65605   0.446   9.811  -0.101 -0.7325 -1.1692 -0.2482
  486MOL0     H65606   0.555   9.585  -0.468  3.1167  2.0369 -0.6213
  486MOL0     H65607   0.872  10.265  -0.058 -0.3864 -1.0797 -0.5865
  486MOL0     H65608   1.084  10.446   0.140 -0.9675 -2.1351  1.0867
  486MOL0     H65609   1.119  10.516  -0.030 -1.9970 -0.5492 -0.8804
  486MOL0     H65610   0.956  10.459   0.019 -0.8184 -4.0368 -2.0713
  487MOL0     O65611   5.619  10.234   8.662  0.8329  0.8552 -0.0151
  487MOL0     C65612   5.629  10.353   8.683  0.1119  0.7575 -0.4411
  487MOL0     O65613   5.528  10.437   8.719  0.0908  0.3791 -0.3798
  487MOL0     C65614   5.396  10.398   8.707 -0.3605  0.1417 -0.3939
  487MOL0     C65615   5.350  10.352   8.579  0.8399  0.2231 -0.7078
  487MOL0     C65616   5.210  10.307   8.576  0.4815 -0.6466 -0.2219
  487MOL0     C65617   5.117  10.326   8.683  0.7385 -0.3435  0.4996
  487MOL0     O65618   4.996  10.262   8.675  0.0277 -0.3111  0.6471
  487MOL0     C65619   4.896  10.329   8.593  0.6159  0.5169  0.0188
  487MOL0     C65620   4.841  10.446   8.667 -0.5049  0.6164 -0.0565
  487MOL0     C65621   4.739  10.536   8.598  0.1673  0.5433 -0.1416
  487MOL0     C65622   4.613  10.452   8.561  0.1245 -1.4306 -0.0696
  487MOL0     C65623   4.492  10.549   8.535  0.2831 -1.0170  0.3119
  487MOL0     C65624   4.362  10.466   8.527  0.0161  0.3617  0.0421
  487MOL0     C65625   4.223  10.536   8.513  0.2935 -0.2517 -0.5426
  487MOL0     C65626   4.178  10.540   8.374  0.3374 -0.1761  0.0906
  487MOL0     N65627   4.035  10.561   8.352  0.1508  0.7097  0.4654
  487MOL0     C65628   3.948  10.595   8.454  0.1444 -0.6249  0.7672
  487MOL0     C65629   3.847  10.650   8.381  1.1081 -0.5911  1.1978
  487MOL0     C65630   3.713  10.705   8.442  0.1110  0.9940  0.6044
  487MOL0     C65631   3.686  10.844   8.393 -0.9321  0.4459 -0.7026
  487MOL0     C65632   3.597  10.907   8.499 -0.5115  0.1644 -0.1450
  487MOL0     C65633   3.459  10.881   8.452  0.3732 -0.3924 -0.4052
  487MOL0     O65634   3.362  10.975   8.492 -0.6322 -0.2585 -0.0006
  487MOL0     C65635   3.229  10.950   8.449 -0.1475  0.1729 -0.3841
  487MOL0     C65636   3.185  10.841   8.364 -0.5851 -0.1447  0.2803
  487MOL0     C65637   3.053  10.818   8.337 -0.6426  0.2328 -0.8650
  487MOL0     C65638   2.955  10.903   8.384  0.8064 -0.8088  0.5718
  487MOL0     C65639   2.815  10.878   8.352 -0.3193 -0.9740 -0.2615
  487MOL0     O65640   2.791  10.758   8.287 -0.5925  0.1800 -0.5861
  487MOL0     C65641   2.671  10.726   8.237 -0.7130 -0.4547  1.0467
  487MOL0     C65642   2.599  10.821   8.170  0.7643 -1.2078 -0.0509
  487MOL0     C65643   2.481  10.782   8.097  0.2720 -0.3506  0.6095
  487MOL0     C65644   2.446  10.643   8.087  1.0159  0.2831 -0.3860
  487MOL0     O65645   2.331  10.596   8.025 -0.2586  0.3023 -0.4805
  487MOL0     C65646   2.246  10.695   7.965  0.1776  0.2506 -0.2491
  487MOL0     C65647   2.127  10.619   7.920  0.4972  0.5871 -0.3704
  487MOL0     C65648   2.155  10.522   7.800  0.1788 -1.1768 -0.2024
  487MOL0     C65649   2.016  10.480   7.744  0.2723  0.1526  0.4395
  487MOL0     C65650   2.033  10.361   7.651  0.5269 -0.6536  0.8801
  487MOL0     C65651   1.907  10.267   7.636 -0.7911  0.4945 -0.2750
  487MOL0     C65652   1.792  10.345   7.583 -0.2397  0.5318  0.6698
  487MOL0     C65653   1.661  10.264   7.591 -0.2669 -0.1204  0.3460
  487MOL0    Cl65654   1.592  10.307   7.752 -0.2490  0.4260  0.3598
  487MOL0     C65655   2.533  10.553   8.155  0.1262  0.8732 -0.3840
  487MOL0     C65656   2.643  10.588   8.234  0.3816  0.1731 -0.1026
  487MOL0     O65657   2.732  10.968   8.378  0.4445  1.1120  0.2275
  487MOL0     C65658   2.985  11.009   8.465  0.8753  0.2742 -1.9595
  487MOL0     C65659   3.125  11.033   8.498 -0.4981 -0.2585  0.5170
  487MOL0     N65660   3.879  10.666   8.243 -0.1667  0.6904  0.2228
  487MOL0     N65661   3.991  10.602   8.234  0.1344  0.3297  0.3358
  487MOL0     C65662   5.164  10.372   8.800 -0.4405 -0.1773 -0.3716
  487MOL0     C65663   5.302  10.410   8.814  0.1021  0.8169  0.6340
  487MOL0     C65664   5.759  10.409   8.696 -0.0252  0.4208  0.7208
  487MOL0     C65665   5.819  10.409   8.823 -0.1854 -0.6810  0.5298
  487MOL0     C65666   5.953  10.456   8.843  0.5778  0.1615 -0.4203
  487MOL0     C65667   6.023  10.502   8.729 -0.2652 -0.0132  0.6008
  487MOL0     O65668   6.146  10.555   8.726  0.5044 -0.3651  0.3540
  487MOL0     C65669   6.234  10.557   8.831 -0.4196  0.3599 -0.2069
  487MOL0     C65670   6.326  10.438   8.828  0.0253 -0.0750 -0.1827
  487MOL0     C65671   6.440  10.452   8.929 -0.3768  0.0766  0.8548
  487MOL0     C65672   6.383  10.463   9.061 -0.2813  0.0406 -0.0248
  487MOL0     C65673   6.493  10.428   9.162 -0.9001 -0.0553 -0.0517
  487MOL0     C65674   6.585  10.402   9.241  0.9931 -0.6477 -0.1688
  487MOL0     C65675   5.954  10.517   8.607 -0.2747  0.1740 -0.7945
  487MOL0     C65676   5.822  10.466   8.585 -1.0748  0.5063  0.3504
  487MOL0     C65677   5.746  10.489   8.456  0.5776 -0.2935 -0.2283
  487MOL0     H65678   5.416  10.325   8.497  1.1985  1.2362 -0.7668
  487MOL0     H65679   5.173  10.253   8.489  0.1177  1.4354 -1.4089
  487MOL0     H65680   4.945  10.351   8.498  1.6118  0.9477  0.6098
  487MOL0     H65681   4.810  10.263   8.580 -1.9141  1.8026  6.5072
  487MOL0     H65682   4.926  10.509   8.695  0.6853 -0.8838 -0.1579
  487MOL0     H65683   4.808  10.417   8.767  1.9172  0.6647  0.8281
  487MOL0     H65684   4.769  10.575   8.500  0.7347 -1.9776 -1.0304
  487MOL0     H65685   4.720  10.617   8.669  0.4888 -0.9254  1.6742
  487MOL0     H65686   4.633  10.388   8.475  1.9951 -0.2207 -0.6184
  487MOL0     H65687   4.597  10.370   8.631  2.1531 -0.8511  1.1742
  487MOL0     H65688   4.496  10.618   8.620  3.8533 -1.2223  0.4572
  487MOL0     H65689   4.505  10.599   8.439  0.3520 -1.6538 -0.0142
  487MOL0     H65690   4.378  10.397   8.444  2.3262  0.0551  0.6692
  487MOL0     H65691   4.370  10.413   8.622  3.2058 -3.0802 -1.8910
  487MOL0     H65692   4.210  10.626   8.573  0.9454 -0.3187 -0.2928
  487MOL0     H65693   4.151  10.471   8.564 -0.6871 -0.4718 -2.1391
  487MOL0     H65694   4.234  10.614   8.316 -1.4943 -1.3180 -3.4183
  487MOL0     H65695   4.199  10.453   8.311 -0.2369  2.3339 -3.8992
  487MOL0     H65696   3.968  10.578   8.559  5.3875 -1.3578 -0.0471
  487MOL0     H65697   3.636  10.648   8.390  2.2503 -0.1915 -1.4539
  487MOL0     H65698   3.706  10.698   8.551 -1.0267 -1.9121  0.4352
  487MOL0     H65699   3.786  10.888   8.393 -2.0513  3.1684 -0.0006
  487MOL0     H65700   3.656  10.859   8.289  0.5526 -1.5712 -1.4807
  487MOL0     H65701   3.620  11.014   8.498  1.2473 -0.1890 -0.2876
  487MOL0     H65702   3.610  10.877   8.603  0.0640 -2.1370 -0.8216
  487MOL0     H65703   3.432  10.781   8.488  1.9314  0.2345  2.8624
  487MOL0     H65704   3.457  10.891   8.343 -0.8214 -0.9194 -0.4525
  487MOL0     H65705   3.258  10.765   8.336  0.1692  0.7139 -0.1580
  487MOL0     H65706   3.023  10.731   8.278  1.0247 -1.8370  1.1801
  487MOL0     H65707   2.619  10.927   8.171 -0.0806 -1.0417  0.1182
  487MOL0     H65708   2.422  10.858   8.047 -2.1320 -1.7086  1.1856
  487MOL0     H65709   2.214  10.778   8.029 -0.5715  0.6416 -1.1065
  487MOL0     H65710   2.299  10.742   7.882  1.7440 -0.0900  0.5106
  487MOL0     H65711   2.089  10.557   8.002 -0.2449 -1.8231 -2.4193
  487MOL0     H65712   2.037  10.674   7.889 -0.8359 -1.5500 -0.5139
  487MOL0     H65713   2.209  10.575   7.720 -2.0764  1.1988 -0.2908
  487MOL0     H65714   2.214  10.444   7.849  0.2599  1.0289  3.6273
  487MOL0     H65715   1.968  10.563   7.693  1.1893 -0.3408 -1.3272
  487MOL0     H65716   1.953  10.449   7.828  1.3535  0.0433  1.2390
  487MOL0     H65717   2.127  10.313   7.678  0.8836 -0.1029  0.6273
  487MOL0     H65718   2.056  10.406   7.555 -1.0780  2.9592  2.0339
  487MOL0     H65719   1.933  10.185   7.569  1.9861 -0.9921  2.3656
  487MOL0     H65720   1.888  10.225   7.736  1.4819  2.5514  1.1353
  487MOL0     H65721   1.819  10.369   7.480 -3.3499  0.5192 -0.2467
  487MOL0     H65722   1.786  10.438   7.639 -1.0493  0.5022  0.6373
  487MOL0     H65723   1.596  10.286   7.506  1.5834 -0.3135 -1.1609
  487MOL0     H65724   1.687  10.158   7.583  2.8669  0.5663  0.0939
  487MOL0     H65725   2.514  10.446   8.159  1.1548  0.7202  2.1277
  487MOL0     H65726   2.707  10.524   8.294 -1.5808  0.1829  2.1575
  487MOL0     H65727   2.905  11.067   8.511  1.1824  0.3889 -1.5618
  487MOL0     H65728   3.143  11.118   8.564  0.2998 -0.2498  0.2976
  487MOL0     H65729   5.091  10.397   8.876  0.1831  3.6291 -0.8423
  487MOL0     H65730   5.324  10.440   8.915  0.2175 -0.9749  1.1815
  487MOL0     H65731   5.773  10.351   8.903 -1.3875 -1.3865 -0.6343
  487MOL0     H65732   6.004  10.452   8.939 -0.5790 -0.6607  0.1753
  487MOL0     H65733   6.189  10.564   8.931 -0.7486 -0.5236 -0.2810
  487MOL0     H65734   6.300  10.644   8.836 -0.2300  0.1350  2.1942
  487MOL0     H65735   6.380  10.429   8.734  2.3904 -0.5644  1.1565
  487MOL0     H65736   6.266  10.346   8.836 -0.2600  0.2426  2.1273
  487MOL0     H65737   6.494  10.544   8.904 -1.6973  1.2870  2.2671
  487MOL0     H65738   6.499  10.360   8.920 -2.3028 -1.3551  2.0129
  487MOL0     H65739   6.342  10.563   9.076 -2.3045 -0.2509 -2.7263
  487MOL0     H65740   6.303  10.390   9.074 -1.6688  1.4612 -0.2420
  487MOL0     H65741   6.654  10.380   9.320 -0.9273  0.9369  2.0782
  487MOL0     H65742   6.006  10.578   8.534  2.5467 -0.6938  0.3591
  487MOL0     H65743   5.755  10.396   8.399 -1.7143 -0.0987 -0.9833
  487MOL0     H65744   5.638  10.504   8.465  0.3970 -2.1876  1.3204
  487MOL0     H65745   5.787  10.579   8.409 -0.6886  1.2171  1.4465
  488MOL0     O65746   1.478   5.326   8.852 -0.2467  0.3345 -0.7768
  488MOL0     C65747   1.387   5.249   8.887 -0.0595  1.0607 -0.9982
  488MOL0     O65748   1.280   5.213   8.812  0.1119  0.5200  0.1568
  488MOL0     C65749   1.237   5.279   8.702 -0.7724 -0.3144  0.0351
  488MOL0     C65750   1.316   5.357   8.614 -0.4216  0.2578 -1.0320
  488MOL0     C65751   1.255   5.412   8.503 -0.3438  0.2657 -0.4838
  488MOL0     C65752   1.117   5.420   8.483 -0.5826 -0.5083 -0.2554
  488MOL0     O65753   1.086   5.489   8.358  0.1939 -0.2410  0.3987
  488MOL0     C65754   0.964   5.451   8.289 -0.0933 -0.2245  0.0528
  488MOL0     C65755   0.857   5.554   8.305  0.3447  0.1250 -1.1277
  488MOL0     C65756   0.769   5.517   8.432  0.2547  0.0884 -0.7453
  488MOL0     C65757   0.644   5.602   8.411 -0.0108 -0.9425  0.0489
  488MOL0     C65758   0.571   5.591   8.540  0.3488 -1.0171 -0.4085
  488MOL0     C65759   0.424   5.632   8.522 -0.0980 -0.0141 -0.3671
  488MOL0     C65760   0.330   5.668   8.634 -0.5442 -0.1987 -1.2454
  488MOL0     C65761   0.403   5.783   8.720  0.7377 -0.2751  0.6347
  488MOL0     N65762   0.321   5.909   8.690 -0.1985  0.2475 -0.5458
  488MOL0     C65763   0.181   5.922   8.696  0.2918  0.2088  0.1629
  488MOL0     C65764   0.158   6.052   8.659  0.0194 -0.2032  0.0168
  488MOL0     C65765   0.025   6.125   8.630  0.4909  0.4707  0.1039
  488MOL0     C65766  -0.077   6.108   8.744 -0.3882 -0.0616 -0.1274
  488MOL0     C65767  -0.197   6.212   8.734  0.0727 -0.4101  0.9689
  488MOL0     C65768  -0.253   6.231   8.874  0.0057 -1.2024 -0.0910
  488MOL0     O65769  -0.335   6.121   8.927  0.0110 -1.2480  0.0925
  488MOL0     C65770  -0.465   6.123   8.887 -0.6339  0.0062  0.0853
  488MOL0     C65771  -0.548   6.035   8.961 -0.5732  0.3096 -0.2727
  488MOL0     C65772  -0.689   6.021   8.944  0.2680 -0.5215 -0.0947
  488MOL0     C65773  -0.751   6.104   8.854 -0.8954 -0.0457  0.4072
  488MOL0     C65774  -0.905   6.095   8.836 -0.0928  0.3693 -0.4049
  488MOL0     O65775  -0.967   5.977   8.878  0.1418 -0.4948 -0.0788
  488MOL0     C65776  -1.100   5.970   8.907 -0.3894 -0.6665  0.0262
  488MOL0     C65777  -1.175   5.877   8.857  0.9396  0.3858 -0.1858
  488MOL0     C65778  -1.313   5.869   8.878 -0.0726  0.1032  0.7147
  488MOL0     C65779  -1.372   5.953   8.971 -0.4119 -0.4832 -0.4507
  488MOL0     O65780  -1.501   5.931   8.991  0.6857  0.0076  0.2178
  488MOL0     C65781  -1.590   6.026   9.057 -0.3706 -0.4458 -0.7489
  488MOL0     C65782  -1.737   5.987   9.031  0.0114  0.3597  0.6144
  488MOL0     C65783  -1.818   6.101   9.068  0.7175 -0.2553 -0.7712
  488MOL0     C65784  -1.972   6.096   9.023  0.1041  0.8355 -1.1374
  488MOL0     C65785  -2.046   6.217   9.065 -0.3547 -0.1394 -0.0196
  488MOL0     C65786  -2.193   6.235   9.015 -0.6332  0.2166  0.0650
  488MOL0     C65787  -2.255   6.377   9.030 -0.0066 -0.2029  0.2652
  488MOL0     C65788  -2.412   6.375   9.005 -0.8758  0.3335  0.0641
  488MOL0    Cl65789  -2.465   6.542   8.982  0.0756  0.2851  0.0882
  488MOL0     C65790  -1.296   6.055   9.036  0.3141  0.1585 -0.1990
  488MOL0     C65791  -1.160   6.069   8.991  0.3845  1.0647  0.0239
  488MOL0     O65792  -0.963   6.188   8.786  0.0165  0.0383  0.4552
  488MOL0     C65793  -0.669   6.203   8.785 -0.1203  0.5017  0.3419
  488MOL0     C65794  -0.529   6.205   8.791 -0.3472  0.0292 -0.8076
  488MOL0     N65795   0.270   6.111   8.622 -0.4232  0.3229  1.1743
  488MOL0     N65796   0.370   6.027   8.642  0.2398 -0.5148  0.6669
  488MOL0     C65797   1.038   5.344   8.570  0.4632  0.9309  0.2648
  488MOL0     C65798   1.101   5.278   8.678 -0.3009  0.6457  0.1069
  488MOL0     C65799   1.400   5.184   9.027  0.1023  0.4802  0.6867
  488MOL0     C65800   1.296   5.097   9.062  0.0230 -0.2914 -0.1084
  488MOL0     C65801   1.277   5.050   9.192 -0.6267  0.3580  0.0389
  488MOL0     C65802   1.376   5.073   9.292  0.4667 -0.1039  0.0284
  488MOL0     O65803   1.351   5.028   9.419 -0.5166 -0.9442 -0.3815
  488MOL0     C65804   1.455   5.047   9.517 -0.0238  0.1242 -0.2062
  488MOL0     C65805   1.563   4.940   9.503 -0.5652 -0.1426 -0.6132
  488MOL0     C65806   1.677   4.977   9.598 -0.4016 -0.2347  0.3004
  488MOL0     C65807   1.797   5.053   9.553  0.3480 -0.7753 -0.0246
  488MOL0     C65808   1.773   5.202   9.544 -0.2371  0.7355 -0.6293
  488MOL0     C65809   1.755   5.322   9.524 -0.1538 -0.3271 -1.2190
  488MOL0     C65810   1.489   5.147   9.245 -0.2233  0.3774  0.8040
  488MOL0     C65811   1.508   5.207   9.123  0.5558 -0.2858 -0.5345
  488MOL0     C65812   1.640   5.281   9.103 -0.4776 -1.3671  0.0163
  488MOL0     H65813   1.423   5.375   8.619 -0.4482  0.1202  1.1208
  488MOL0     H65814   1.317   5.452   8.423 -0.3470  2.6742  0.6271
  488MOL0     H65815   0.990   5.439   8.183 -2.2663  2.7102 -0.9310
  488MOL0     H65816   0.933   5.352   8.325 -0.6973  0.2231  0.7797
  488MOL0     H65817   0.799   5.554   8.212  3.1500  2.8658 -3.0928
  488MOL0     H65818   0.899   5.655   8.317  1.1440 -0.4947  2.0799
  488MOL0     H65819   0.826   5.559   8.516  0.9782 -0.3464 -1.0129
  488MOL0     H65820   0.741   5.413   8.447 -1.8835  0.5101 -1.4713
  488MOL0     H65821   0.673   5.706   8.394  0.0674 -0.8228  0.8409
  488MOL0     H65822   0.586   5.566   8.326  0.6135  0.5862 -1.0612
  488MOL0     H65823   0.564   5.486   8.570 -1.6783 -0.6742  0.5408
  488MOL0     H65824   0.624   5.653   8.613 -0.1734 -0.2455 -0.6602
  488MOL0     H65825   0.425   5.722   8.459 -1.1879 -0.1720 -0.6108
  488MOL0     H65826   0.379   5.549   8.468  1.2090 -0.3837 -0.9328
  488MOL0     H65827   0.310   5.581   8.697 -0.3298  1.0008  0.5435
  488MOL0     H65828   0.236   5.698   8.586  0.0206  2.0595 -1.0505
  488MOL0     H65829   0.370   5.779   8.824 -1.3766  0.0624  0.0428
  488MOL0     H65830   0.510   5.799   8.707  0.3157  0.4028 -3.3506
  488MOL0     H65831   0.106   5.848   8.721 -1.0995  1.6571  0.4531
  488MOL0     H65832   0.060   6.229   8.620  1.4087  0.1168 -0.5057
  488MOL0     H65833  -0.017   6.087   8.537 -2.3927  1.5802  0.8487
  488MOL0     H65834  -0.110   6.004   8.747  0.1126 -0.2246 -0.2037
  488MOL0     H65835  -0.033   6.131   8.841 -1.4784 -0.0486  0.3725
  488MOL0     H65836  -0.269   6.162   8.669  0.0142 -1.1584  1.5928
  488MOL0     H65837  -0.161   6.311   8.705 -1.1212  0.4226  2.2334
  488MOL0     H65838  -0.303   6.328   8.862 -1.7621 -2.2891 -2.1739
  488MOL0     H65839  -0.171   6.259   8.942  0.8651  0.5368 -1.7462
  488MOL0     H65840  -0.500   5.967   9.031  4.1195  1.1188 -2.3321
  488MOL0     H65841  -0.741   5.948   9.005 -0.1451  1.6022  2.2509
  488MOL0     H65842  -1.135   5.806   8.785  0.4487  1.0181 -1.0941
  488MOL0     H65843  -1.370   5.793   8.827  1.6764 -1.4116  0.9281
  488MOL0     H65844  -1.577   6.010   9.165 -1.3833 -0.7794 -0.6668
  488MOL0     H65845  -1.575   6.129   9.025 -1.1238 -0.4410 -1.0910
  488MOL0     H65846  -1.748   5.972   8.923  2.9493 -0.2902  0.3298
  488MOL0     H65847  -1.771   5.895   9.079 -0.8211  0.4645  0.2498
  488MOL0     H65848  -1.809   6.117   9.176 -1.5586 -3.1062 -0.0419
  488MOL0     H65849  -1.788   6.196   9.022  0.5844  0.2201  0.0977
  488MOL0     H65850  -2.028   6.015   9.069 -0.2639  0.4817 -2.1886
  488MOL0     H65851  -1.971   6.076   8.916 -0.5749 -1.7674 -0.7286
  488MOL0     H65852  -1.992   6.302   9.023  0.4834 -0.3990  0.5254
  488MOL0     H65853  -2.037   6.232   9.173 -2.4376  2.8221 -0.1343
  488MOL0     H65854  -2.187   6.213   8.908  0.0810 -0.0741  0.1585
  488MOL0     H65855  -2.263   6.162   9.057 -1.2727  1.8562  2.0265
  488MOL0     H65856  -2.211   6.446   8.958  0.2902  1.6052  2.0800
  488MOL0     H65857  -2.241   6.420   9.130 -0.6405 -0.3257  0.4137
  488MOL0     H65858  -2.423   6.324   8.909 -0.7356 -0.6654  0.5719
  488MOL0     H65859  -2.460   6.320   9.086 -1.2708 -0.1039 -0.4639
  488MOL0     H65860  -1.346   6.129   9.098 -1.0926  0.1745 -1.3035
  488MOL0     H65861  -1.114   6.158   9.032  1.7447  1.2173 -1.7273
  488MOL0     H65862  -0.720   6.268   8.714 -1.1534 -0.0150  0.5944
  488MOL0     H65863  -0.478   6.288   8.744 -0.1430  1.7421  2.2140
  488MOL0     H65864   0.929   5.339   8.568  0.4566  1.2055 -0.0906
  488MOL0     H65865   1.050   5.222   8.755  0.4873 -1.5231 -0.8775
  488MOL0     H65866   1.224   5.060   8.989  0.2501 -1.8281  0.4020
  488MOL0     H65867   1.179   5.010   9.217 -0.4095  0.2937  0.8053
  488MOL0     H65868   1.413   5.037   9.618  0.1313  1.3105 -0.0118
  488MOL0     H65869   1.483   5.152   9.511 -2.2345  0.7206 -1.2033
  488MOL0     H65870   1.600   4.926   9.401  3.8653  1.0489  0.5975
  488MOL0     H65871   1.518   4.849   9.543 -0.4773  0.1479  0.1709
  488MOL0     H65872   1.719   4.880   9.629 -0.1970  0.2693  1.6618
  488MOL0     H65873   1.630   5.019   9.687 -1.2045 -1.1294  0.3252
  488MOL0     H65874   1.879   5.037   9.624 -0.8293 -0.3269  1.4897
  488MOL0     H65875   1.814   5.020   9.451  0.7284 -1.5634  0.2893
  488MOL0     H65876   1.741   5.423   9.492  1.7203  0.2371 -0.3941
  488MOL0     H65877   1.572   5.164   9.313  1.7781  0.7149 -1.5628
  488MOL0     H65878   1.711   5.231   9.037  1.1391 -0.8343  1.2830
  488MOL0     H65879   1.613   5.381   9.067 -1.2129 -1.0349  1.4467
  488MOL0     H65880   1.698   5.299   9.194  3.4192  1.7146 -2.6772
  489MOL0     O65881   5.567   2.903   2.559  0.3595  0.2653 -0.2647
  489MOL0     C65882   5.507   3.001   2.606  0.0727 -0.9949 -0.5725
  489MOL0     O65883   5.549   3.071   2.717 -0.3738 -0.2947 -0.6675
  489MOL0     C65884   5.656   3.013   2.776  0.1726 -0.1565 -0.3275
  489MOL0     C65885   5.784   3.061   2.740 -0.5988  0.5492  0.0555
  489MOL0     C65886   5.900   3.011   2.795 -0.2554 -0.0206  0.4129
  489MOL0     C65887   5.889   2.912   2.891  0.0411 -0.0685  0.2316
  489MOL0     O65888   6.009   2.864   2.945  0.5530 -0.3023  0.4158
  489MOL0     C65889   6.093   2.813   2.848 -0.5242  0.9558  1.1149
  489MOL0     C65890   6.220   2.764   2.912 -0.6563 -0.0535 -0.3362
  489MOL0     C65891   6.298   2.888   2.961 -0.4970 -0.4099  0.6708
  489MOL0     C65892   6.437   2.852   3.026  0.2898  0.5023  0.2003
  489MOL0     C65893   6.512   2.994   3.030 -0.3726  0.2698  0.2263
  489MOL0     C65894   6.620   2.995   3.132 -0.7174 -0.4564  0.2245
  489MOL0     C65895   6.728   3.104   3.099 -0.2288 -0.0967 -0.0302
  489MOL0     C65896   6.793   3.147   3.231  0.0628  0.4162  0.4463
  489MOL0     N65897   6.868   3.044   3.295 -0.5522  0.5318  0.9178
  489MOL0     C65898   7.005   3.051   3.304  0.3309  0.2172 -0.2487
  489MOL0     C65899   7.034   2.930   3.361 -0.5862  0.0457  0.5549
  489MOL0     C65900   7.163   2.892   3.419 -0.1302 -0.4595 -0.2166
  489MOL0     C65901   7.165   2.840   3.566 -1.0256 -0.5167  0.5708
  489MOL0     C65902   7.122   2.946   3.666  0.4451  0.3043  0.9353
  489MOL0     C65903   7.150   2.903   3.815 -0.4105 -0.5934  0.2401
  489MOL0     O65904   7.289   2.901   3.844 -0.3741  0.0055 -0.9580
  489MOL0     C65905   7.295   2.847   3.973 -0.5585  0.9313  0.0399
  489MOL0     C65906   7.258   2.927   4.077 -0.0469 -0.1426 -0.1337
  489MOL0     C65907   7.256   2.867   4.209 -0.3697  0.1344  0.1561
  489MOL0     C65908   7.284   2.727   4.235 -0.1245  0.2343 -0.1369
  489MOL0     C65909   7.266   2.667   4.374  0.3755 -0.7304  1.1180
  489MOL0     O65910   7.339   2.560   4.401 -0.0255  0.0687 -0.4829
  489MOL0     C65911   7.315   2.488   4.517 -0.2075 -0.4185 -0.2941
  489MOL0     C65912   7.187   2.443   4.549 -0.2796  0.1444  0.0938
  489MOL0     C65913   7.169   2.361   4.662 -1.2457 -0.2744 -0.1427
  489MOL0     C65914   7.277   2.319   4.748 -1.1201  1.0444 -0.4081
  489MOL0     O65915   7.249   2.218   4.840 -0.3287 -0.0654  0.3298
  489MOL0     C65916   7.344   2.202   4.946  0.2429 -1.0375 -0.1435
  489MOL0     C65917   7.258   2.167   5.066  0.1886  0.2351 -0.3350
  489MOL0     C65918   7.347   2.122   5.183  0.4728 -0.9486  0.3489
  489MOL0     C65919   7.257   2.132   5.308 -0.7195  0.4274  0.3639
  489MOL0     C65920   7.318   2.050   5.419 -0.0671 -1.0012 -0.3517
  489MOL0     C65921   7.241   2.061   5.545 -0.8665 -0.7487  0.5587
  489MOL0     C65922   7.303   1.991   5.668 -0.3905  1.1221 -0.0603
  489MOL0     C65923   7.234   2.036   5.798 -0.3625 -0.1781  0.7278
  489MOL0    Cl65924   7.054   2.053   5.782 -0.1925  0.6592  0.5744
  489MOL0     C65925   7.402   2.369   4.712 -0.2529  1.0111  0.5381
  489MOL0     C65926   7.419   2.446   4.597  0.5049 -0.0905  0.0735
  489MOL0     O65927   7.178   2.716   4.441 -0.4009 -0.2316  0.4968
  489MOL0     C65928   7.321   2.648   4.128 -0.1824 -0.1545  0.8197
  489MOL0     C65929   7.329   2.713   3.995  0.2009  0.9142  0.0794
  489MOL0     N65930   6.924   2.858   3.380  0.0670 -0.3385 -0.2693
  489MOL0     N65931   6.813   2.925   3.344  0.0158 -0.1029 -0.1292
  489MOL0     C65932   5.762   2.859   2.934  0.2349  1.1098 -0.1707
  489MOL0     C65933   5.646   2.915   2.880 -0.9252 -0.3689 -0.5172
  489MOL0     C65934   5.372   3.036   2.569  0.0561 -0.9617  0.6186
  489MOL0     C65935   5.338   3.174   2.546  0.7663 -0.1408 -0.5397
  489MOL0     C65936   5.207   3.212   2.516  0.0493 -0.1660 -0.5933
  489MOL0     C65937   5.107   3.116   2.519  0.2971  0.3508  0.2981
  489MOL0     O65938   4.969   3.152   2.509 -0.8440 -0.3137 -0.1791
  489MOL0     C65939   4.932   3.210   2.378 -0.2219 -0.0196 -1.5479
  489MOL0     C65940   4.817   3.115   2.326 -0.7476  0.0087  0.1362
  489MOL0     C65941   4.682   3.134   2.389 -0.7902  0.2817 -0.6984
  489MOL0     C65942   4.585   3.027   2.330 -0.6957  0.0067  0.3979
  489MOL0     C65943   4.459   3.019   2.409  0.8095  0.2566  1.2301
  489MOL0     C65944   4.374   3.006   2.484 -0.0577  0.1770  0.1629
  489MOL0     C65945   5.131   2.986   2.551 -0.2287 -0.4591 -0.4345
  489MOL0     C65946   5.262   2.945   2.578  0.0133 -0.4824 -0.0060
  489MOL0     C65947   5.280   2.797   2.613 -0.0146 -1.1320  0.5941
  489MOL0     H65948   5.788   3.151   2.680 -1.3017  2.1913  2.3180
  489MOL0     H65949   5.999   3.043   2.766 -0.3903  1.2286  1.2391
  489MOL0     H65950   6.045   2.728   2.797  1.0844  1.8919 -2.2043
  489MOL0     H65951   6.122   2.880   2.767 -0.4780 -0.5495 -0.1776
  489MOL0     H65952   6.280   2.698   2.848  0.5614  0.3366  0.3738
  489MOL0     H65953   6.195   2.715   3.006 -0.0420 -0.7325 -0.5156
  489MOL0     H65954   6.237   2.939   3.036  1.5561  0.6931  1.6802
  489MOL0     H65955   6.318   2.969   2.890 -3.0981  0.5824  0.9458
  489MOL0     H65956   6.417   2.802   3.121  2.4542 -0.8745  0.0163
  489MOL0     H65957   6.492   2.775   2.971  0.0912  1.3951 -1.3090
  489MOL0     H65958   6.555   3.018   2.932 -2.2232  4.0818  0.2007
  489MOL0     H65959   6.443   3.077   3.042  1.1436  1.5336  0.5587
  489MOL0     H65960   6.581   3.007   3.234 -0.1129 -1.4693  0.5912
  489MOL0     H65961   6.674   2.899   3.138 -2.0428 -1.1529  1.6695
  489MOL0     H65962   6.689   3.193   3.049 -1.2473 -0.4324  0.1476
  489MOL0     H65963   6.810   3.051   3.049 -0.6906 -0.8940  0.0487
  489MOL0     H65964   6.860   3.230   3.207 -2.3009  1.9364 -1.3033
  489MOL0     H65965   6.717   3.180   3.302  0.8628  1.5852  0.7922
  489MOL0     H65966   7.061   3.138   3.273  0.9109  0.0024  0.1745
  489MOL0     H65967   7.192   2.802   3.364 -0.9295 -0.5739 -0.4520
  489MOL0     H65968   7.237   2.968   3.394  1.9505 -2.1836  0.3425
  489MOL0     H65969   7.095   2.757   3.561  0.5593 -1.8321 -0.7312
  489MOL0     H65970   7.263   2.798   3.590 -1.2172  0.2424  2.9748
  489MOL0     H65971   7.016   2.965   3.647  0.6186  0.8314  0.4535
  489MOL0     H65972   7.184   3.034   3.646 -0.0957  0.3530 -0.5841
  489MOL0     H65973   7.114   2.800   3.821 -2.8588  0.1736 -0.3890
  489MOL0     H65974   7.084   2.961   3.880  1.1159  0.3348  1.0147
  489MOL0     H65975   7.220   3.026   4.059  0.4467 -0.2476 -2.0095
  489MOL0     H65976   7.226   2.936   4.287 -0.3263 -0.4447  0.6943
  489MOL0     H65977   7.100   2.470   4.490 -0.0427  0.9241  0.0851
  489MOL0     H65978   7.071   2.325   4.690 -0.5220 -2.8018 -0.6307
  489MOL0     H65979   7.414   2.121   4.922 -0.7362 -2.3927  1.3867
  489MOL0     H65980   7.402   2.291   4.973 -0.9329 -0.1647 -0.4165
  489MOL0     H65981   7.194   2.252   5.090  3.0032  2.6473 -0.7441
  489MOL0     H65982   7.193   2.085   5.033  1.5890 -0.4641 -1.5210
  489MOL0     H65983   7.398   2.027   5.171  2.3191  0.2968 -3.4322
  489MOL0     H65984   7.423   2.200   5.192  0.7623 -0.4979 -3.8329
  489MOL0     H65985   7.156   2.098   5.287 -0.3451 -0.0603 -0.7454
  489MOL0     H65986   7.242   2.235   5.342  1.4099  1.2839 -1.0341
  489MOL0     H65987   7.420   2.087   5.431 -0.8365  2.1396 -2.1543
  489MOL0     H65988   7.332   1.947   5.387  0.0198 -1.2510  0.4911
  489MOL0     H65989   7.225   2.168   5.562  0.8197 -0.1621 -1.2094
  489MOL0     H65990   7.148   2.006   5.530 -1.1098 -0.5409  1.2551
  489MOL0     H65991   7.411   2.001   5.682 -0.3604  0.0551  0.6100
  489MOL0     H65992   7.278   1.886   5.655 -0.8658  0.7307  3.1885
  489MOL0     H65993   7.269   1.982   5.887  1.5639  0.7287  0.5895
  489MOL0     H65994   7.278   2.134   5.818 -0.0432  0.0632 -0.9840
  489MOL0     H65995   7.498   2.345   4.757 -0.1311  0.0910 -0.1727
  489MOL0     H65996   7.517   2.485   4.569  1.7916 -1.7047  2.0833
  489MOL0     H65997   7.352   2.547   4.152 -0.0225 -0.5587 -0.9811
  489MOL0     H65998   7.367   2.645   3.920  2.4831  0.7760  1.2900
  489MOL0     H65999   5.758   2.785   3.013  2.0221  3.6805  2.5307
  489MOL0     H66000   5.550   2.870   2.903  0.3539 -2.0642  1.9408
  489MOL0     H66001   5.411   3.254   2.540 -0.7307  1.4889  1.5456
  489MOL0     H66002   5.170   3.312   2.494 -1.2259 -0.8057 -1.4986
  489MOL0     H66003   5.014   3.215   2.307  0.0048 -1.0100 -1.3805
  489MOL0     H66004   4.900   3.314   2.371 -1.6272 -0.1914  0.9842
  489MOL0     H66005   4.852   3.016   2.355 -1.1058  0.3249  1.7401
  489MOL0     H66006   4.791   3.134   2.221 -3.9688  2.8540  1.2242
  489MOL0     H66007   4.645   3.236   2.372  1.0193  1.5021  1.9016
  489MOL0     H66008   4.694   3.120   2.496  1.6886 -0.8043 -1.0607
  489MOL0     H66009   4.551   3.058   2.231  0.7297  2.3192  0.5578
  489MOL0     H66010   4.641   2.933   2.338  2.7150  1.9691  1.9889
  489MOL0     H66011   4.307   2.994   2.567 -1.7286  1.8737 -0.8280
  489MOL0     H66012   5.041   2.926   2.564 -0.4622 -0.0724 -0.2503
  489MOL0     H66013   5.187   2.739   2.609  0.3812 -1.7235 -0.8397
  489MOL0     H66014   5.360   2.748   2.556 -0.0394 -0.1617 -0.2997
  489MOL0     H66015   5.310   2.799   2.718 -1.6509 -0.3814  1.0743
  490MOL0     O66016   0.041   1.586   3.289 -0.3394  0.1614  0.1079
  490MOL0     C66017  -0.035   1.548   3.379 -0.1166  1.0109  0.0394
  490MOL0     O66018  -0.151   1.470   3.357 -0.3813 -0.5804 -0.3653
  490MOL0     C66019  -0.159   1.404   3.235 -0.2215 -0.3669  0.0729
  490MOL0     C66020  -0.141   1.266   3.231 -0.3449  1.1166 -0.1471
  490MOL0     C66021  -0.144   1.187   3.114 -0.8756  0.4370  0.6116
  490MOL0     C66022  -0.172   1.256   2.991  0.0901 -1.1067  0.6822
  490MOL0     O66023  -0.172   1.176   2.878  0.4233  0.5857  0.0653
  490MOL0     C66024  -0.179   1.230   2.750 -1.4288 -0.3193 -0.1360
  490MOL0     C66025  -0.205   1.123   2.645  0.9905  0.8689  0.2158
  490MOL0     C66026  -0.079   1.022   2.633  0.2882 -0.4283 -0.3055
  490MOL0     C66027   0.037   1.090   2.559  0.0332 -0.5282  0.3527
  490MOL0     C66028   0.153   0.995   2.550 -0.2369  0.0636 -0.4922
  490MOL0     C66029   0.203   0.947   2.693  0.5431 -0.0172 -0.0550
  490MOL0     C66030   0.333   0.870   2.693  0.0003  0.8384  0.4863
  490MOL0     C66031   0.315   0.717   2.638 -0.1152 -0.3964  0.5950
  490MOL0     N66032   0.447   0.661   2.610 -0.7908  0.0073 -0.0829
  490MOL0     C66033   0.515   0.582   2.699  0.3096 -0.2894  0.6966
  490MOL0     C66034   0.627   0.542   2.628 -0.0313 -0.7781 -0.5228
  490MOL0     C66035   0.727   0.441   2.663  0.3411  0.0989 -0.3076
  490MOL0     C66036   0.871   0.471   2.623  0.8106 -0.2162  0.4943
  490MOL0     C66037   0.943   0.336   2.626 -0.4436 -0.3419 -0.2768
  490MOL0     C66038   1.090   0.365   2.595 -0.0526 -1.0849 -0.8594
  490MOL0     O66039   1.147   0.435   2.707  0.8689 -0.5924  0.2389
  490MOL0     C66040   1.269   0.412   2.747  0.5106 -0.4006  0.9842
  490MOL0     C66041   1.378   0.383   2.673  0.0514  0.0921  0.0247
  490MOL0     C66042   1.503   0.377   2.735  0.0132  0.2754  0.1093
  490MOL0     C66043   1.516   0.388   2.878  0.3098  0.2344  0.2592
  490MOL0     C66044   1.649   0.366   2.943 -0.8110  0.5210  0.8756
  490MOL0     O66045   1.761   0.382   2.861 -0.0774 -0.0897 -0.0454
  490MOL0     C66046   1.886   0.351   2.913  0.0683  0.1994  0.9525
  490MOL0     C66047   1.910   0.232   2.989  0.4863  0.6244  0.0284
  490MOL0     C66048   2.037   0.200   3.031 -0.8612 -0.9276 -0.6468
  490MOL0     C66049   2.151   0.276   3.006  0.7004  0.5024  0.7242
  490MOL0     O66050   2.281   0.262   3.048 -0.5372 -0.3235 -0.2731
  490MOL0     C66051   2.312   0.149   3.128 -0.6971 -0.4099  0.1805
  490MOL0     C66052   2.340   0.016   3.058 -0.0828 -0.2692 -0.2424
  490MOL0     C66053   2.485  -0.007   3.019 -0.4358 -0.4118  0.6329
  490MOL0     C66054   2.490  -0.115   2.915  0.3477 -0.1864 -0.4407
  490MOL0     C66055   2.463  -0.254   2.980  0.0141  0.7674 -0.0377
  490MOL0     C66056   2.493  -0.367   2.884 -0.5840 -0.1571  0.8171
  490MOL0     C66057   2.638  -0.382   2.841 -0.0093 -0.2067 -0.7900
  490MOL0     C66058   2.651  -0.489   2.736  0.2502  1.2356  0.5060
  490MOL0    Cl66059   2.830  -0.486   2.694  0.0103  0.1984 -0.1469
  490MOL0     C66060   2.127   0.388   2.929 -0.3999  0.9033 -0.6582
  490MOL0     C66061   2.001   0.434   2.895 -0.3832  0.3002  0.3961
  490MOL0     O66062   1.656   0.352   3.063 -0.2587 -0.0276 -0.2287
  490MOL0     C66063   1.398   0.409   2.949  1.3200  0.0470  0.0022
  490MOL0     C66064   1.273   0.422   2.883  0.2707 -0.1869  0.4746
  490MOL0     N66065   0.619   0.601   2.506  0.3419 -0.8246  0.8098
  490MOL0     N66066   0.514   0.676   2.496 -0.0721 -0.1902  1.1718
  490MOL0     C66067  -0.194   1.396   2.996  0.5469  0.2926  0.2161
  490MOL0     C66068  -0.178   1.466   3.113  0.0256 -0.0066 -0.0241
  490MOL0     C66069   0.009   1.602   3.511  0.1396 -0.5064 -0.6567
  490MOL0     C66070   0.142   1.642   3.533  0.1883 -0.5309 -0.1822
  490MOL0     C66071   0.184   1.689   3.658 -0.6035  0.1344 -0.0051
  490MOL0     C66072   0.097   1.694   3.769 -0.0901 -0.1218  0.1205
  490MOL0     O66073   0.138   1.758   3.888 -0.4009  0.1529 -0.0423
  490MOL0     C66074   0.043   1.818   3.981  0.0537 -0.5545 -1.1734
  490MOL0     C66075   0.001   1.952   3.929  0.2543  0.6039 -0.0713
  490MOL0     C66076  -0.150   1.984   3.943 -0.1139  0.1958 -0.4786
  490MOL0     C66077  -0.180   2.041   4.084 -0.1993  0.1798  0.1989
  490MOL0     C66078  -0.108   2.169   4.094  0.1174 -0.0001 -0.3964
  490MOL0     C66079  -0.077   2.288   4.107 -0.6514 -0.6576 -0.5034
  490MOL0     C66080  -0.038   1.654   3.755 -0.8121 -0.1349  0.3706
  490MOL0     C66081  -0.080   1.611   3.624 -0.3310 -0.2617  0.1337
  490MOL0     C66082  -0.220   1.589   3.608 -0.2500  0.4529 -0.4427
  490MOL0     H66083  -0.100   1.216   3.318  0.2285 -0.4732 -1.2842
  490MOL0     H66084  -0.112   1.084   3.121 -1.0994  0.4094  1.3182
  490MOL0     H66085  -0.245   1.316   2.733  0.2272  0.5026 -3.0910
  490MOL0     H66086  -0.079   1.269   2.726 -1.0798  0.0722  1.7824
  490MOL0     H66087  -0.217   1.163   2.544  0.5549 -1.9076 -0.9493
  490MOL0     H66088  -0.293   1.062   2.669  1.6241  0.5959  2.0231
  490MOL0     H66089  -0.103   0.936   2.569  3.4113 -1.4052 -0.3656
  490MOL0     H66090  -0.044   1.012   2.736  0.7365  1.5171 -0.2329
  490MOL0     H66091   0.006   1.117   2.458  1.7958 -1.9089 -0.6135
  490MOL0     H66092   0.071   1.180   2.610  2.0069  0.2730 -2.1429
  490MOL0     H66093   0.115   0.920   2.480 -1.4961  0.0282  0.2150
  490MOL0     H66094   0.224   1.053   2.489 -0.3233  1.1337  0.4008
  490MOL0     H66095   0.208   1.034   2.759  1.2972  1.3285 -1.8114
  490MOL0     H66096   0.125   0.884   2.738 -0.0532 -1.4429 -2.8063
  490MOL0     H66097   0.383   0.873   2.790  1.5657  3.0703 -0.3100
  490MOL0     H66098   0.397   0.913   2.616 -1.0785  0.4668 -0.6501
  490MOL0     H66099   0.248   0.657   2.700 -0.1669 -0.7027  0.2534
  490MOL0     H66100   0.263   0.727   2.542  1.1137 -0.3993 -0.0903
  490MOL0     H66101   0.469   0.542   2.789  2.6821 -1.0797  1.6202
  490MOL0     H66102   0.729   0.422   2.771  1.5589  0.4019 -0.2608
  490MOL0     H66103   0.693   0.352   2.610 -2.1231  0.2395  0.9090
  490MOL0     H66104   0.870   0.513   2.522 -1.5211 -1.0648  0.1079
  490MOL0     H66105   0.920   0.546   2.687 -0.8152  0.5697  0.8648
  490MOL0     H66106   0.905   0.277   2.542 -2.2508  2.4177 -1.5440
  490MOL0     H66107   0.934   0.290   2.724 -2.8679 -0.8095 -0.6664
  490MOL0     H66108   1.111   0.420   2.502  1.9830 -0.0487  0.1498
  490MOL0     H66109   1.150   0.274   2.581 -0.3049 -1.3043 -0.5073
  490MOL0     H66110   1.371   0.396   2.565 -0.1154  0.6549  0.1025
  490MOL0     H66111   1.595   0.376   2.677 -0.4061  1.5358 -0.6342
  490MOL0     H66112   1.824   0.173   3.018  0.0026  0.6019 -1.4018
  490MOL0     H66113   2.055   0.104   3.079 -0.1645  0.6762  2.6399
  490MOL0     H66114   2.407   0.168   3.180 -1.1937  1.3986  0.4880
  490MOL0     H66115   2.234   0.128   3.201  3.7047 -1.1091  5.2789
  490MOL0     H66116   2.304  -0.063   3.124  0.3990 -1.6115 -1.5228
  490MOL0     H66117   2.281  -0.002   2.968  0.4944  1.4506 -1.0074
  490MOL0     H66118   2.528   0.089   2.989 -2.3302  0.6285  1.0695
  490MOL0     H66119   2.545  -0.035   3.107 -1.1175  1.6173  1.8353
  490MOL0     H66120   2.590  -0.120   2.871 -0.9017 -0.6329 -3.4781
  490MOL0     H66121   2.418  -0.095   2.836 -0.0893 -0.3262 -0.0790
  490MOL0     H66122   2.359  -0.272   3.008  0.8310  0.2482  2.9616
  490MOL0     H66123   2.520  -0.271   3.072 -0.5514 -0.6928  0.0584
  490MOL0     H66124   2.448  -0.461   2.917 -2.2921 -0.7633 -2.7289
  490MOL0     H66125   2.441  -0.346   2.790 -2.3780  0.3964  1.8925
  490MOL0     H66126   2.701  -0.404   2.928  0.9187 -1.2669 -1.6826
  490MOL0     H66127   2.672  -0.285   2.805 -0.8309  0.4560  0.1681
  490MOL0     H66128   2.611  -0.579   2.784 -0.8024  1.3509 -0.1218
  490MOL0     H66129   2.594  -0.466   2.645 -0.2381 -0.9165  0.2089
  490MOL0     H66130   2.214   0.451   2.912  0.0695  0.0859 -1.3106
  490MOL0     H66131   2.003   0.535   2.853  2.4592 -0.5188 -1.7373
  490MOL0     H66132   1.393   0.397   3.057 -1.8787  4.0366  0.5393
  490MOL0     H66133   1.188   0.445   2.947 -1.1551 -0.5799 -1.2212
  490MOL0     H66134  -0.216   1.444   2.901  1.2814  3.2679  1.4655
  490MOL0     H66135  -0.192   1.573   3.111  0.1827  0.0151 -1.6090
  490MOL0     H66136   0.220   1.638   3.458  0.3143  3.2334 -0.4365
  490MOL0     H66137   0.288   1.707   3.680 -0.5573 -1.4829  1.2951
  490MOL0     H66138   0.086   1.821   4.081 -1.1170 -2.4076 -0.5648
  490MOL0     H66139  -0.044   1.755   4.004 -0.8421  1.2620  0.7394
  490MOL0     H66140   0.024   1.951   3.822 -2.0334 -2.2154 -0.6496
  490MOL0     H66141   0.070   2.022   3.977 -1.2778  0.5416  2.3758
  490MOL0     H66142  -0.219   1.899   3.932  0.2590  0.0131 -1.5238
  490MOL0     H66143  -0.167   2.061   3.868 -1.3049  0.7292  0.3077
  490MOL0     H66144  -0.285   2.071   4.094  0.5192  2.6252  1.3832
  490MOL0     H66145  -0.144   1.979   4.166 -0.2612 -0.0168  0.0767
  490MOL0     H66146  -0.041   2.388   4.124  0.6368 -0.5767 -3.1930
  490MOL0     H66147  -0.113   1.660   3.832 -2.8878 -0.9483 -1.4886
  490MOL0     H66148  -0.263   1.651   3.529  1.3130  1.3434 -0.6083
  490MOL0     H66149  -0.228   1.481   3.588  0.6405  0.2323  0.3038
  490MOL0     H66150  -0.286   1.602   3.694  0.4708 -0.9793  0.3806
  491MOL0     O66151   7.291   9.070   6.167 -1.1278  0.4239  0.3099
  491MOL0     C66152   7.323   8.987   6.251 -0.1872  0.7892 -0.2489
  491MOL0     O66153   7.450   8.917   6.257  0.1860  0.3586  0.4870
  491MOL0     C66154   7.549   8.969   6.178 -0.4156  0.6016 -0.6724
  491MOL0     C66155   7.578   9.110   6.155 -0.4686  0.6093  0.7715
  491MOL0     C66156   7.678   9.130   6.061  0.4248 -0.3071 -0.0649
  491MOL0     C66157   7.761   9.040   5.996 -0.7033  0.1842 -0.2882
  491MOL0     O66158   7.857   9.077   5.897  0.1728 -0.1327 -0.3984
  491MOL0     C66159   7.992   9.047   5.915  1.1139 -0.1938 -0.3161
  491MOL0     C66160   8.064   9.155   5.832  0.2592 -0.3554 -0.4657
  491MOL0     C66161   8.218   9.166   5.875  0.2365 -0.8943  0.0447
  491MOL0     C66162   8.242   9.214   6.017  0.7727 -0.0675  0.6416
  491MOL0     C66163   8.394   9.249   6.040 -0.4615  0.5420 -0.5059
  491MOL0     C66164   8.421   9.316   6.176  0.5535 -0.0252  0.6563
  491MOL0     C66165   8.568   9.337   6.220  0.5118  0.0516  0.4469
  491MOL0     C66166   8.626   9.478   6.189 -0.0381  0.7682 -0.2786
  491MOL0     N66167   8.721   9.520   6.295  0.5937  0.0847 -0.3062
  491MOL0     C66168   8.804   9.427   6.358  0.5192 -0.2229 -0.2642
  491MOL0     C66169   8.862   9.500   6.459 -1.4420 -0.7547  0.5275
  491MOL0     C66170   8.962   9.458   6.570 -0.2158  0.5917  0.5926
  491MOL0     C66171   9.087   9.396   6.512 -0.0759 -0.1920  0.5621
  491MOL0     C66172   9.170   9.508   6.440  0.4696 -0.4417  0.2803
  491MOL0     C66173   9.236   9.597   6.542 -0.1904  0.6182 -0.2947
  491MOL0     O66174   9.364   9.654   6.502  0.6662 -0.1976  0.3236
  491MOL0     C66175   9.475   9.598   6.559  0.6721 -0.9992 -0.3380
  491MOL0     C66176   9.513   9.460   6.555  0.2893 -0.2267  0.3089
  491MOL0     C66177   9.626   9.427   6.632 -0.4931  0.3497  0.5516
  491MOL0     C66178   9.693   9.524   6.702 -0.0690  0.6437 -0.6305
  491MOL0     C66179   9.813   9.475   6.782 -0.5676  0.1416 -0.4302
  491MOL0     O66180   9.893   9.363   6.733  0.0993 -0.9980 -0.5529
  491MOL0     C66181  10.007   9.331   6.797 -0.5381 -0.0621  0.4271
  491MOL0     C66182  10.110   9.423   6.824  0.3643  0.0906 -0.1275
  491MOL0     C66183  10.217   9.400   6.908 -0.9970  1.3416 -0.6109
  491MOL0     C66184  10.229   9.270   6.975  0.3455 -0.0648 -0.1060
  491MOL0     O66185  10.340   9.254   7.055  0.5630 -0.0961 -0.6221
  491MOL0     C66186  10.386   9.126   7.091  1.1213 -0.0767 -0.4917
  491MOL0     C66187  10.520   9.131   7.158 -0.3818 -0.1390 -0.5816
  491MOL0     C66188  10.625   9.218   7.089 -0.1289  0.1435 -0.5247
  491MOL0     C66189  10.653   9.172   6.944  0.0401 -0.5555  0.6442
  491MOL0     C66190  10.767   9.247   6.875  0.3738 -1.4454 -0.6588
  491MOL0     C66191  10.881   9.286   6.958 -0.2839 -1.1220 -0.3210
  491MOL0     C66192  10.961   9.399   6.882 -0.6961  0.0731 -0.5606
  491MOL0     C66193  11.065   9.473   6.977  1.1961  0.6600  1.0118
  491MOL0    Cl66194  10.977   9.547   7.113  0.3081 -0.0214  0.1497
  491MOL0     C66195  10.131   9.173   6.936  0.6767 -0.8653 -1.1110
  491MOL0     C66196  10.025   9.207   6.850 -0.8348  0.7113  0.4288
  491MOL0     O66197   9.834   9.540   6.884 -1.0312  0.2362  0.2138
  491MOL0     C66198   9.652   9.650   6.708 -0.4915  0.0524 -0.3093
  491MOL0     C66199   9.546   9.689   6.636 -0.5959  0.1126  0.3800
  491MOL0     N66200   8.826   9.634   6.439  0.1065 -0.6487 -0.1856
  491MOL0     N66201   8.728   9.646   6.355  0.0122 -0.0207 -0.0912
  491MOL0     C66202   7.732   8.907   6.030 -0.6339  0.2650 -0.8686
  491MOL0     C66203   7.627   8.877   6.108  0.5944  0.7120  0.2635
  491MOL0     C66204   7.219   8.943   6.345  0.1446  0.5251  0.7217
  491MOL0     C66205   7.092   8.980   6.314  0.2318 -0.5861 -0.3489
  491MOL0     C66206   6.985   8.957   6.392 -0.6785 -1.1334 -0.5051
  491MOL0     C66207   6.993   8.886   6.508 -1.0493 -0.1221  0.8657
  491MOL0     O66208   6.883   8.866   6.580 -0.3927 -0.2723 -0.3080
  491MOL0     C66209   6.890   8.835   6.730 -0.0405 -0.7872  0.2826
  491MOL0     C66210   6.767   8.750   6.771  0.5772 -0.2884 -0.4314
  491MOL0     C66211   6.638   8.804   6.689  0.2055 -0.0652  0.3228
  491MOL0     C66212   6.515   8.732   6.733 -0.7635  0.0925  0.0755
  491MOL0     C66213   6.463   8.769   6.864  0.3844  0.3374  1.0178
  491MOL0     C66214   6.423   8.817   6.966  0.0302  0.1740  0.4506
  491MOL0     C66215   7.128   8.840   6.545 -0.0593  0.3425 -0.1999
  491MOL0     C66216   7.240   8.876   6.469 -0.4042  0.0036 -0.1540
  491MOL0     C66217   7.368   8.819   6.512 -0.1758 -0.8685 -1.0041
  491MOL0     H66218   7.529   9.188   6.212 -3.9943 -0.9416  0.1113
  491MOL0     H66219   7.690   9.231   6.022 -2.5615  1.0904  2.1587
  491MOL0     H66220   8.016   9.058   6.021 -0.2227 -0.3951  0.0311
  491MOL0     H66221   8.008   8.941   5.892 -1.8139 -1.2893  2.0266
  491MOL0     H66222   8.017   9.254   5.841 -1.3098 -1.0431 -0.8378
  491MOL0     H66223   8.059   9.133   5.725 -2.3255  0.4525 -0.5695
  491MOL0     H66224   8.259   9.233   5.799  0.0060 -0.5052  0.2611
  491MOL0     H66225   8.277   9.074   5.871  1.1748 -0.3743  1.5514
  491MOL0     H66226   8.189   9.309   6.024  0.6361  0.0608 -1.5149
  491MOL0     H66227   8.208   9.135   6.085 -0.5729 -1.5077 -1.5447
  491MOL0     H66228   8.457   9.160   6.054  0.9014  1.9515  3.5672
  491MOL0     H66229   8.427   9.316   5.960 -1.4607 -0.3862 -1.7674
  491MOL0     H66230   8.364   9.409   6.173 -0.5928 -0.5384  3.3844
  491MOL0     H66231   8.382   9.249   6.253  1.5338 -0.5442  0.7196
  491MOL0     H66232   8.632   9.253   6.194  1.1821  0.7097 -0.0848
  491MOL0     H66233   8.557   9.341   6.329 -1.1237 -1.7473  0.3999
  491MOL0     H66234   8.690   9.470   6.101  0.5501  0.4385  0.1701
  491MOL0     H66235   8.558   9.563   6.180  1.3944  1.9189 -0.5010
  491MOL0     H66236   8.804   9.320   6.341 -0.3840 -0.0489 -1.5172
  491MOL0     H66237   8.983   9.541   6.639  1.3078  0.8145 -0.1115
  491MOL0     H66238   8.915   9.387   6.638 -0.2660  0.1758  0.1265
  491MOL0     H66239   9.146   9.350   6.592  1.2354 -0.7566 -0.6725
  491MOL0     H66240   9.060   9.318   6.441 -0.2142 -0.3756  0.8151
  491MOL0     H66241   9.109   9.556   6.363 -2.6849  2.3156  4.1392
  491MOL0     H66242   9.256   9.466   6.385  2.1899 -0.0908  2.5551
  491MOL0     H66243   9.244   9.546   6.639 -2.7848  0.0642 -0.2882
  491MOL0     H66244   9.162   9.675   6.561 -2.4361 -1.8446  2.1603
  491MOL0     H66245   9.474   9.379   6.495  1.6497  1.7073 -3.5154
  491MOL0     H66246   9.660   9.324   6.643  1.0305  0.5622 -1.4979
  491MOL0     H66247  10.104   9.521   6.779 -1.5759  0.7236  1.3709
  491MOL0     H66248  10.294   9.476   6.920 -0.7228  0.7776  1.6296
  491MOL0     H66249  10.310   9.075   7.152 -0.2312  2.4423  0.0619
  491MOL0     H66250  10.406   9.056   7.009  4.2245 -1.8318  1.5762
  491MOL0     H66251  10.514   9.165   7.261  0.9441 -1.5236 -0.0073
  491MOL0     H66252  10.565   9.031   7.151  1.1400  0.6102 -2.5625
  491MOL0     H66253  10.603   9.324   7.102  1.9166  0.3983  1.5070
  491MOL0     H66254  10.722   9.199   7.137  0.7462  2.8339 -1.0270
  491MOL0     H66255  10.562   9.175   6.884 -0.4331 -2.7865  1.1744
  491MOL0     H66256  10.687   9.068   6.938 -1.7535 -1.0963 -0.7885
  491MOL0     H66257  10.718   9.337   6.836  3.1721  1.4032  1.7837
  491MOL0     H66258  10.791   9.191   6.785  2.3407  2.4010 -2.7835
  491MOL0     H66259  10.838   9.332   7.048  0.5065  0.0574 -0.5333
  491MOL0     H66260  10.940   9.195   6.977 -0.6536 -1.1556  0.7683
  491MOL0     H66261  10.888   9.474   6.849 -1.7088 -2.0125 -3.4077
  491MOL0     H66262  11.010   9.365   6.791 -3.1367 -1.8296 -1.2908
  491MOL0     H66263  11.138   9.399   7.011  1.3905 -0.8456 -2.3361
  491MOL0     H66264  11.116   9.543   6.910 -1.4562  0.1714 -1.7459
  491MOL0     H66265  10.126   9.074   6.979 -0.6077 -0.4996 -0.3644
  491MOL0     H66266   9.945   9.135   6.836 -1.1405  0.9185  1.0485
  491MOL0     H66267   9.712   9.724   6.760  0.9264 -0.2553 -1.4530
  491MOL0     H66268   9.512   9.792   6.643 -0.4377  0.3671 -1.8439
  491MOL0     H66269   7.800   8.827   6.002  1.8974  2.1153 -0.3692
  491MOL0     H66270   7.625   8.769   6.120  0.5483  0.8791  1.9995
  491MOL0     H66271   7.073   9.047   6.230  2.4050  3.5810  2.1292
  491MOL0     H66272   6.890   9.004   6.369 -1.0002 -0.8041  1.2867
  491MOL0     H66273   6.884   8.928   6.788  0.6321 -0.2863 -0.4291
  491MOL0     H66274   6.984   8.789   6.763 -0.7906 -2.4821  0.1238
  491MOL0     H66275   6.746   8.755   6.878 -0.3863 -0.2835 -0.6157
  491MOL0     H66276   6.784   8.647   6.737 -1.7825 -1.2948  1.1692
  491MOL0     H66277   6.638   8.787   6.581 -0.6537 -1.9454  0.5898
  491MOL0     H66278   6.626   8.910   6.711 -1.6784 -0.2545  0.3646
  491MOL0     H66279   6.438   8.763   6.662 -0.1593 -1.8532 -1.5562
  491MOL0     H66280   6.524   8.623   6.733 -0.7965  0.0782  1.3444
  491MOL0     H66281   6.386   8.858   7.058 -1.9377  2.0631 -1.0622
  491MOL0     H66282   7.141   8.779   6.634 -2.3765  1.4994  1.0286
  491MOL0     H66283   7.451   8.889   6.498 -0.5797 -0.1316  0.1231
  491MOL0     H66284   7.362   8.806   6.621  2.3567  0.0920 -0.6802
  491MOL0     H66285   7.405   8.725   6.470  0.6131 -1.6010  1.1630
  492MOL0     O66286   8.602   1.164   3.465 -0.3122  0.2598  0.0759
  492MOL0     C66287   8.628   1.117   3.353  0.0883 -0.0896 -0.5275
  492MOL0     O66288   8.758   1.097   3.290 -0.4111  0.0415 -0.3940
  492MOL0     C66289   8.884   1.123   3.349 -0.2052  0.9613 -0.8743
  492MOL0     C66290   8.912   1.172   3.483  0.0538  0.0604 -0.6845
  492MOL0     C66291   9.041   1.187   3.531 -0.1200  0.6172  0.6098
  492MOL0     C66292   9.151   1.160   3.457 -0.2564 -0.4175  0.7363
  492MOL0     O66293   9.269   1.189   3.524  0.3001 -0.3483 -0.1905
  492MOL0     C66294   9.393   1.189   3.455  0.2538  0.1578 -0.0258
  492MOL0     C66295   9.495   1.265   3.537 -0.3220  0.1780  1.3239
  492MOL0     C66296   9.628   1.192   3.552 -0.7429  0.2504  0.7586
  492MOL0     C66297   9.726   1.217   3.437  0.2802 -0.2530  0.5305
  492MOL0     C66298   9.866   1.149   3.455  0.2529  0.3636 -0.5759
  492MOL0     C66299   9.960   1.148   3.333  0.2258 -0.8300  0.4471
  492MOL0     C66300  10.091   1.060   3.337  0.7786 -0.8641 -0.1274
  492MOL0     C66301  10.163   1.080   3.195 -0.7732  0.3940  0.0348
  492MOL0     N66302  10.291   1.007   3.212  0.2147 -0.3737  0.2560
  492MOL0     C66303  10.412   1.058   3.194 -0.0147 -0.6052  0.0178
  492MOL0     C66304  10.502   0.957   3.208 -0.1508  1.2109  0.4766
  492MOL0     C66305  10.649   0.958   3.203 -0.0600  0.5274  0.0313
  492MOL0     C66306  10.684   0.937   3.053 -0.1611  0.0508  0.3748
  492MOL0     C66307  10.819   0.996   3.023 -0.1573  0.8344 -0.1038
  492MOL0     C66308  10.930   0.949   3.118  0.3081  0.5088 -0.7256
  492MOL0     O66309  10.947   0.811   3.088 -0.3338 -0.3970  0.1512
  492MOL0     C66310  11.082   0.775   3.083 -0.2198 -0.5129  0.3720
  492MOL0     C66311  11.134   0.688   3.175 -0.2904 -0.8523 -0.9763
  492MOL0     C66312  11.267   0.642   3.169  0.6664  0.2331  0.2266
  492MOL0     C66313  11.358   0.686   3.072 -0.2389  0.4624 -0.4099
  492MOL0     C66314  11.492   0.627   3.053  0.3648 -0.5644  0.8407
  492MOL0     O66315  11.534   0.531   3.147 -0.2994 -0.2527  0.0200
  492MOL0     C66316  11.656   0.464   3.134 -0.0565  0.3367 -0.0342
  492MOL0     C66317  11.656   0.336   3.192 -0.3740  0.7469 -0.7230
  492MOL0     C66318  11.769   0.259   3.169 -0.4420  0.1910  0.1326
  492MOL0     C66319  11.886   0.300   3.114 -0.2224  1.0395 -0.8179
  492MOL0     O66320  11.997   0.221   3.126  0.1680 -0.4704 -0.1239
  492MOL0     C66321  12.132   0.267   3.091  0.4113  0.1196  0.4805
  492MOL0     C66322  12.210   0.141   3.063 -0.4990 -0.0654 -0.0087
  492MOL0     C66323  12.346   0.188   3.010  0.0334 -0.2166  0.3967
  492MOL0     C66324  12.425   0.062   2.982 -0.0112 -0.1548 -0.9635
  492MOL0     C66325  12.572   0.086   2.953 -0.5891 -0.3141 -0.0621
  492MOL0     C66326  12.627  -0.040   2.876  0.2781 -0.0421 -0.0043
  492MOL0     C66327  12.774  -0.033   2.837  0.0144  0.4335  0.6678
  492MOL0     C66328  12.872  -0.009   2.962 -0.0767 -0.6212  0.6246
  492MOL0    Cl66329  13.046  -0.020   2.916  0.2285 -0.4401 -0.4083
  492MOL0     C66330  11.888   0.435   3.061 -0.2628  0.7010  0.6620
  492MOL0     C66331  11.769   0.515   3.076 -0.4398 -0.0042 -0.4438
  492MOL0     O66332  11.557   0.668   2.955 -0.2786  0.0565 -0.4094
  492MOL0     C66333  11.319   0.786   2.988 -0.1495  0.0537  0.3252
  492MOL0     C66334  11.180   0.823   2.987 -0.6842  0.6614  0.5740
  492MOL0     N66335  10.431   0.837   3.240 -0.5861  0.2936  0.2979
  492MOL0     N66336  10.307   0.872   3.236  0.8399  0.3033  0.1942
  492MOL0     C66337   9.125   1.106   3.329  0.2319  0.4591  0.4795
  492MOL0     C66338   8.998   1.096   3.278 -0.3348 -0.0926 -0.7919
  492MOL0     C66339   8.505   1.093   3.268 -1.3742  0.1230  0.3120
  492MOL0     C66340   8.524   1.098   3.124 -0.0421 -0.0201  1.0347
  492MOL0     C66341   8.420   1.087   3.033  0.1362  0.1485  0.4279
  492MOL0     C66342   8.297   1.047   3.078  0.1054 -0.6015  0.3272
  492MOL0     O66343   8.210   0.997   2.979  0.3443 -0.4132  0.7779
  492MOL0     C66344   8.074   0.968   3.012 -0.7373 -0.5815  0.0343
  492MOL0     C66345   7.994   0.911   2.892  0.6962 -0.4404  0.3655
  492MOL0     C66346   7.855   0.869   2.947 -0.3131  1.0514 -0.2678
  492MOL0     C66347   7.775   0.807   2.829  1.4895 -0.0163 -0.6699
  492MOL0     C66348   7.654   0.755   2.887  0.2774  0.1219 -0.6970
  492MOL0     C66349   7.552   0.693   2.918 -0.4849 -0.1622  0.1543
  492MOL0     C66350   8.269   1.044   3.210  0.2312 -0.0697  0.1216
  492MOL0     C66351   8.375   1.058   3.311 -0.8272 -0.6337 -0.0028
  492MOL0     C66352   8.350   1.029   3.457  0.0042 -0.1510 -0.7953
  492MOL0     H66353   8.831   1.216   3.540  0.8064  2.1199 -1.1317
  492MOL0     H66354   9.050   1.222   3.634  1.4637 -4.5308  2.5547
  492MOL0     H66355   9.427   1.086   3.441 -1.8992 -0.5645 -0.3791
  492MOL0     H66356   9.389   1.225   3.352  4.9212  0.3481 -0.3600
  492MOL0     H66357   9.459   1.272   3.640  2.4175 -0.8250  2.4391
  492MOL0     H66358   9.513   1.365   3.496 -0.6451 -0.0010  0.7258
  492MOL0     H66359   9.618   1.083   3.559  2.2358 -0.3180 -1.6165
  492MOL0     H66360   9.686   1.232   3.635  1.9043  1.7517 -1.6386
  492MOL0     H66361   9.673   1.182   3.348 -1.3871 -1.4737  1.9717
  492MOL0     H66362   9.738   1.325   3.421  1.7887 -0.6902 -2.0556
  492MOL0     H66363   9.920   1.193   3.540 -0.4522  0.5520 -0.2157
  492MOL0     H66364   9.845   1.045   3.481 -2.8334  1.4067  1.8099
  492MOL0     H66365   9.905   1.102   3.249  0.3825  0.0810 -0.1703
  492MOL0     H66366   9.979   1.250   3.298 -0.5910 -1.4577 -2.0721
  492MOL0     H66367  10.073   0.957   3.367 -1.1339 -0.6311 -0.3528
  492MOL0     H66368  10.153   1.106   3.414 -1.9492  0.7696  1.2619
  492MOL0     H66369  10.103   1.046   3.110  0.2080  1.2647 -1.0382
  492MOL0     H66370  10.193   1.185   3.187  3.7295 -0.6388  0.9525
  492MOL0     H66371  10.441   1.163   3.192  3.0161 -1.3172  1.1520
  492MOL0     H66372  10.687   1.055   3.236  0.8971  0.3708 -0.5650
  492MOL0     H66373  10.696   0.875   3.257 -0.5181 -1.3497 -2.2616
  492MOL0     H66374  10.685   0.831   3.026  1.8521  0.7534 -2.9418
  492MOL0     H66375  10.625   0.988   2.976  0.7238  1.2865  0.4841
  492MOL0     H66376  10.821   1.105   3.012  0.7826  0.7531 -0.8828
  492MOL0     H66377  10.846   0.959   2.924 -1.3883 -2.0591  0.5359
  492MOL0     H66378  10.905   0.967   3.223  0.2367 -3.7882  0.2116
  492MOL0     H66379  11.022   1.003   3.094  3.0153 -2.5317  1.6806
  492MOL0     H66380  11.070   0.640   3.248  0.6719  1.3333  1.4931
  492MOL0     H66381  11.297   0.552   3.222  1.0154  0.4433  0.3818
  492MOL0     H66382  11.575   0.282   3.241  1.0202  0.3204  1.2246
  492MOL0     H66383  11.767   0.157   3.205  0.4884  0.3563  0.6928
  492MOL0     H66384  12.127   0.335   3.006 -0.3810  1.5426  1.6218
  492MOL0     H66385  12.178   0.323   3.173  0.8049  2.5025 -1.2526
  492MOL0     H66386  12.216   0.079   3.153 -2.1764 -0.0880  0.1168
  492MOL0     H66387  12.144   0.088   2.993  1.4048 -1.1946 -1.0526
  492MOL0     H66388  12.332   0.243   2.917 -1.1818 -0.9658  0.1146
  492MOL0     H66389  12.398   0.252   3.082  1.0309 -1.9105  1.2629
  492MOL0     H66390  12.373   0.007   2.903  0.7957  1.0071 -2.3511
  492MOL0     H66391  12.412  -0.004   3.069 -2.6189  1.1085 -0.2949
  492MOL0     H66392  12.632   0.093   3.044  2.4734 -2.0284 -1.7721
  492MOL0     H66393  12.581   0.173   2.887  0.2772 -1.2616 -1.2383
  492MOL0     H66394  12.619  -0.125   2.945 -0.2128  0.0556  0.0620
  492MOL0     H66395  12.564  -0.049   2.787  0.9143  4.7325 -1.2372
  492MOL0     H66396  12.780   0.041   2.757 -2.8863  1.1034  0.9475
  492MOL0     H66397  12.802  -0.130   2.794 -1.4261  0.4645 -0.4042
  492MOL0     H66398  12.857   0.086   3.013 -0.4540 -0.0625 -0.5005
  492MOL0     H66399  12.856  -0.089   3.036 -1.8561  1.7703  3.0361
  492MOL0     H66400  11.973   0.478   3.009 -1.3297 -0.2567 -2.0775
  492MOL0     H66401  11.759   0.610   3.025 -2.0836  0.4330  0.5880
  492MOL0     H66402  11.395   0.817   2.917  1.4757  1.5595  2.5838
  492MOL0     H66403  11.132   0.890   2.916 -3.5257  0.2429  1.9420
  492MOL0     H66404   9.207   1.074   3.265  2.1437  1.8184  2.1414
  492MOL0     H66405   8.979   1.050   3.182 -2.1569 -2.1381  0.4732
  492MOL0     H66406   8.627   1.103   3.089 -0.7899  2.2264 -1.1173
  492MOL0     H66407   8.425   1.079   2.925  1.7814 -0.0468  0.4906
  492MOL0     H66408   8.028   1.057   3.056  2.0130  0.4986  0.9293
  492MOL0     H66409   8.078   0.882   3.079 -1.0645 -2.1742 -1.9158
  492MOL0     H66410   8.045   0.829   2.841 -0.1795 -0.9030  0.2150
  492MOL0     H66411   7.989   0.980   2.808  1.7301  0.7851  1.2672
  492MOL0     H66412   7.806   0.952   2.997 -0.3924  0.0313  1.4153
  492MOL0     H66413   7.874   0.798   3.028  0.2987  1.5509  0.0234
  492MOL0     H66414   7.751   0.882   2.754  2.3982  2.3239  1.2337
  492MOL0     H66415   7.834   0.724   2.788  2.9734  0.2153  0.8431
  492MOL0     H66416   7.467   0.631   2.941  0.6135 -1.2323  1.4984
  492MOL0     H66417   8.172   1.004   3.236  0.0202  0.1989 -0.2459
  492MOL0     H66418   8.278   0.950   3.483  0.8333 -0.0823  2.1443
  492MOL0     H66419   8.441   0.983   3.496  0.8338  0.0455 -2.4331
  492MOL0     H66420   8.314   1.118   3.509 -2.1251  0.5538 -3.3011
  493MOL0     O66421   1.569  10.762   6.159 -0.3162 -0.0619  0.2878
  493MOL0     C66422   1.562  10.802   6.040  0.0717  0.3525  0.2216
  493MOL0     O66423   1.669  10.838   5.965 -0.4934  0.3861  0.3561
  493MOL0     C66424   1.804  10.850   5.995 -0.8206 -0.6085  1.1812
  493MOL0     C66425   1.887  10.884   5.884 -0.0804  1.0482  0.5114
  493MOL0     C66426   2.027  10.894   5.904 -0.3241  0.1970 -0.9116
  493MOL0     C66427   2.077  10.880   6.033 -0.3723  0.3739  1.0837
  493MOL0     O66428   2.210  10.887   6.070  0.6315 -0.5962  0.3791
  493MOL0     C66429   2.304  10.893   5.967 -0.5239 -0.4899  0.1420
  493MOL0     C66430   2.449  10.915   6.022  0.2150  0.5960 -1.1764
  493MOL0     C66431   2.566  10.851   5.941  0.2052 -0.5676  0.6896
  493MOL0     C66432   2.561  10.901   5.793  0.4698  0.2595  0.1847
  493MOL0     C66433   2.686  10.863   5.700 -0.7606  0.0330 -0.9626
  493MOL0     C66434   2.663  10.925   5.562 -1.2907 -0.2511  0.1057
  493MOL0     C66435   2.790  10.899   5.477  0.1028 -0.1615 -1.0413
  493MOL0     C66436   2.931  10.910   5.531  0.7697 -0.8011 -0.5369
  493MOL0     N66437   2.966  11.048   5.563  0.0339 -1.1021  0.6330
  493MOL0     C66438   2.941  11.160   5.485 -0.5539 -0.3938 -0.9709
  493MOL0     C66439   3.012  11.256   5.545 -0.3546  0.2084 -0.2692
  493MOL0     C66440   3.033  11.394   5.495 -1.0500  0.3191  0.5780
  493MOL0     C66441   2.944  11.487   5.564  0.0048 -0.5328 -0.4104
  493MOL0     C66442   2.973  11.634   5.521  0.3096  0.0335  0.1877
  493MOL0     C66443   2.986  11.735   5.633  0.6227  0.3181  0.4097
  493MOL0     O66444   3.075  11.839   5.583  0.3981  0.5548 -0.1802
  493MOL0     C66445   3.215  11.827   5.590 -0.7570  0.2436  0.4891
  493MOL0     C66446   3.295  11.897   5.497 -0.5122 -0.0711 -0.3412
  493MOL0     C66447   3.436  11.887   5.492 -0.1580  0.2326 -0.0874
  493MOL0     C66448   3.500  11.785   5.565  0.0261 -0.1064  0.1170
  493MOL0     C66449   3.644  11.758   5.549 -0.1039  0.2943 -0.0351
  493MOL0     O66450   3.691  11.643   5.610  0.2676 -0.1132  0.8239
  493MOL0     C66451   3.828  11.628   5.600 -0.1218  0.2992 -1.0317
  493MOL0     C66452   3.881  11.506   5.555  0.1088  0.1796  0.5193
  493MOL0     C66453   4.016  11.478   5.557  0.9244 -0.5196  0.3870
  493MOL0     C66454   4.101  11.564   5.622  0.2933 -0.3961  0.1219
  493MOL0     O66455   4.238  11.534   5.634  0.1742 -0.1098  0.1820
  493MOL0     C66456   4.297  11.565   5.760  0.1742 -0.4168 -0.0758
  493MOL0     C66457   4.373  11.437   5.807  0.0864 -0.2855  0.3869
  493MOL0     C66458   4.469  11.473   5.927  0.3388 -0.3454  0.0538
  493MOL0     C66459   4.578  11.370   5.956  0.0615  0.2503 -0.6172
  493MOL0     C66460   4.633  11.359   6.104 -0.0298 -0.0123  0.3643
  493MOL0     C66461   4.742  11.245   6.107  0.2032 -0.1799 -0.2653
  493MOL0     C66462   4.787  11.217   6.244  0.3101  0.0085 -0.3534
  493MOL0     C66463   4.891  11.100   6.243 -0.3452 -0.5946 -0.2383
  493MOL0    Cl66464   5.051  11.130   6.157  0.2820 -0.0714 -0.0762
  493MOL0     C66465   4.051  11.689   5.658 -0.3074  0.8700  0.3701
  493MOL0     C66466   3.928  11.721   5.646  0.4321 -0.6017 -0.1327
  493MOL0     O66467   3.707  11.834   5.474  0.1875 -0.5502  0.1151
  493MOL0     C66468   3.426  11.715   5.665 -0.2219 -1.0455  0.1345
  493MOL0     C66469   3.293  11.751   5.680 -0.2540  0.2666  0.3675
  493MOL0     N66470   3.062  11.212   5.660  1.0105  0.1302 -0.1295
  493MOL0     N66471   3.042  11.081   5.674  0.5342 -0.8453  0.4414
  493MOL0     C66472   1.986  10.849   6.137 -0.0964 -0.5487  1.1243
  493MOL0     C66473   1.864  10.817   6.115  0.3376 -0.3426  0.1052
  493MOL0     C66474   1.438  10.819   5.965 -0.1993  0.1939 -0.6785
  493MOL0     C66475   1.419  10.941   5.905  0.1082 -0.4510 -0.1553
  493MOL0     C66476   1.297  10.959   5.826 -0.5417  0.1385  0.3779
  493MOL0     C66477   1.194  10.863   5.825 -0.1485 -1.0689 -0.3621
  493MOL0     O66478   1.077  10.896   5.765 -0.4986 -0.4505  0.5598
  493MOL0     C66479   0.962  10.808   5.765  0.1970 -0.2012 -0.3676
  493MOL0     C66480   0.960  10.698   5.665 -0.4537  0.7533 -0.3625
  493MOL0     C66481   1.028  10.736   5.540  0.2632 -0.2208  0.8801
  493MOL0     C66482   1.043  10.608   5.449  0.7235 -0.1351 -0.0009
  493MOL0     C66483   0.922  10.579   5.374 -0.8473  0.7201  0.0955
  493MOL0     C66484   0.826  10.559   5.304  0.0175 -0.1330 -0.4833
  493MOL0     C66485   1.218  10.744   5.890  0.2741  0.0637 -0.1504
  493MOL0     C66486   1.336  10.713   5.958  0.5125 -0.6777 -0.6086
  493MOL0     C66487   1.355  10.575   6.024 -1.0593  0.3458 -0.4398
  493MOL0     H66488   1.845  10.889   5.784 -1.0287  1.6223  0.9190
  493MOL0     H66489   2.090  10.916   5.818  2.6084 -0.4803  0.9173
  493MOL0     H66490   2.304  10.804   5.903 -1.3347  0.2123 -0.8880
  493MOL0     H66491   2.277  10.963   5.887 -0.9181 -1.5130 -0.6406
  493MOL0     H66492   2.448  10.886   6.127 -3.0889 -0.9646 -1.4960
  493MOL0     H66493   2.475  11.021   6.010  0.8659  0.2471 -3.3717
  493MOL0     H66494   2.555  10.743   5.947 -2.5740 -0.3631  0.4339
  493MOL0     H66495   2.667  10.870   5.981  1.2701 -3.9234 -0.0764
  493MOL0     H66496   2.469  10.866   5.745  1.0855 -2.6768  0.9722
  493MOL0     H66497   2.569  11.010   5.790  0.1592  0.2755 -1.6022
  493MOL0     H66498   2.774  10.893   5.758 -2.3044  2.5282  0.2306
  493MOL0     H66499   2.695  10.754   5.704 -0.1240  0.0889 -0.4740
  493MOL0     H66500   2.576  10.882   5.513 -0.2458 -1.1966 -0.9682
  493MOL0     H66501   2.658  11.035   5.557 -0.3851 -0.2093 -0.0760
  493MOL0     H66502   2.780  10.965   5.390 -0.1296  0.7864 -0.3098
  493MOL0     H66503   2.777  10.793   5.451  0.0079 -0.5530  0.5356
  493MOL0     H66504   2.946  10.834   5.608 -0.4706  1.8434  2.5821
  493MOL0     H66505   3.006  10.885   5.456  0.3602 -0.0087 -1.2348
  493MOL0     H66506   2.881  11.163   5.396 -2.8567 -0.2515  0.5085
  493MOL0     H66507   3.138  11.424   5.498 -0.8941 -0.1442  0.0524
  493MOL0     H66508   3.011  11.387   5.388  1.9928 -0.5083 -0.1048
  493MOL0     H66509   2.840  11.468   5.538 -0.5866  0.1085  1.3346
  493MOL0     H66510   2.970  11.477   5.670 -0.7686  1.5001  0.0297
  493MOL0     H66511   2.904  11.665   5.442  1.1682 -3.2629 -2.0982
  493MOL0     H66512   3.075  11.634   5.481  0.5310 -0.6965  0.7262
  493MOL0     H66513   3.023  11.693   5.727  1.9015  0.7911  0.1404
  493MOL0     H66514   2.886  11.779   5.645  1.9763  3.0600  2.9189
  493MOL0     H66515   3.240  11.961   5.430  0.5330 -0.3573 -1.5064
  493MOL0     H66516   3.488  11.946   5.417  0.3341 -1.5034 -1.1615
  493MOL0     H66517   3.824  11.422   5.517  0.4506 -0.7394  1.9577
  493MOL0     H66518   4.045  11.387   5.505 -0.3414 -0.9236  0.3632
  493MOL0     H66519   4.371  11.642   5.737  0.3496 -0.6637 -0.3390
  493MOL0     H66520   4.228  11.607   5.834 -1.0097 -2.0282 -0.1989
  493MOL0     H66521   4.297  11.361   5.825 -0.5813  0.2118 -0.2454
  493MOL0     H66522   4.430  11.398   5.722 -0.4195  0.9615 -0.5635
  493MOL0     H66523   4.515  11.569   5.902  1.8329 -0.1886  2.9813
  493MOL0     H66524   4.407  11.491   6.015 -0.4599  0.1392 -0.5958
  493MOL0     H66525   4.665  11.380   5.890  0.3637 -1.9458 -0.6131
  493MOL0     H66526   4.528  11.278   5.925 -0.6736  0.8716 -1.3233
  493MOL0     H66527   4.548  11.333   6.167  0.2274  0.7678  1.0368
  493MOL0     H66528   4.669  11.456   6.140 -1.9516 -0.2189  3.1759
  493MOL0     H66529   4.690  11.158   6.066 -0.2050 -0.5215  0.9344
  493MOL0     H66530   4.831  11.270   6.047  0.2836  0.3762  0.0782
  493MOL0     H66531   4.704  11.173   6.300  1.4036 -4.5321 -1.8423
  493MOL0     H66532   4.820  11.305   6.301  1.3478 -1.8041  2.0306
  493MOL0     H66533   4.915  11.083   6.348  0.9876 -0.1568 -0.4491
  493MOL0     H66534   4.845  11.008   6.208  0.7221 -1.4060  0.4414
  493MOL0     H66535   4.123  11.763   5.693  0.7773 -0.5334  1.1923
  493MOL0     H66536   3.902  11.823   5.671 -1.8843 -1.3473  0.7033
  493MOL0     H66537   3.460  11.635   5.730 -0.2588  0.4333  2.0654
  493MOL0     H66538   3.232  11.703   5.755  2.0216 -2.1140  0.8355
  493MOL0     H66539   2.029  10.836   6.235  1.7397 -3.2922  0.0787
  493MOL0     H66540   1.816  10.780   6.206 -1.4309  1.6494  0.0647
  493MOL0     H66541   1.501  11.011   5.894 -0.6160  0.4531 -0.0023
  493MOL0     H66542   1.284  11.053   5.775  1.6520 -0.2949 -1.0982
  493MOL0     H66543   0.871  10.867   5.746  0.1274 -1.1648 -3.6905
  493MOL0     H66544   0.945  10.764   5.864 -1.4493  1.3825  0.1241
  493MOL0     H66545   0.857  10.669   5.641 -0.7105  0.7042  0.7604
  493MOL0     H66546   1.010  10.611   5.709  0.4482  0.5648 -1.6987
  493MOL0     H66547   1.132  10.767   5.555  0.3787  1.8766 -3.0250
  493MOL0     H66548   0.971  10.816   5.492  0.9871  0.4827  1.1844
  493MOL0     H66549   1.124  10.619   5.377  1.6086  0.9108  1.1230
  493MOL0     H66550   1.060  10.521   5.512  2.2154 -1.4893 -2.1535
  493MOL0     H66551   0.740  10.540   5.243 -1.7749  1.3753  1.4116
  493MOL0     H66552   1.145  10.664   5.899 -0.3568  0.7749  1.4588
  493MOL0     H66553   1.387  10.588   6.128  0.6254 -0.7950 -0.7858
  493MOL0     H66554   1.262  10.517   6.017 -0.5255 -0.8012  1.2090
  493MOL0     H66555   1.426  10.518   5.964  0.9862  2.2970  0.0112
  494MOL0     O66556   7.074   1.595   4.412 -0.0355  0.1999  0.4631
  494MOL0     C66557   7.095   1.706   4.460 -0.2762 -0.4463  0.7638
  494MOL0     O66558   6.993   1.789   4.512 -0.3250 -0.2638 -0.0763
  494MOL0     C66559   6.869   1.752   4.538  0.5963  0.0909 -0.6296
  494MOL0     C66560   6.800   1.853   4.618 -0.6321  0.1062  0.1575
  494MOL0     C66561   6.668   1.834   4.665 -0.1756 -0.4326  0.7228
  494MOL0     C66562   6.595   1.714   4.617  0.3413  0.2452 -0.3362
  494MOL0     O66563   6.461   1.710   4.640 -0.2483  0.0670 -0.1202
  494MOL0     C66564   6.400   1.581   4.641  0.9961  0.9748 -0.3703
  494MOL0     C66565   6.245   1.589   4.652 -0.4319 -0.5232  0.7205
  494MOL0     C66566   6.177   1.444   4.636 -0.5049  0.2651  0.5614
  494MOL0     C66567   6.184   1.354   4.760 -0.5905 -0.5974 -0.1642
  494MOL0     C66568   6.158   1.215   4.739 -0.1658 -0.8437 -0.1227
  494MOL0     C66569   6.133   1.137   4.871  0.1752 -0.2465  0.6433
  494MOL0     C66570   6.099   0.992   4.858 -0.1369 -0.7307  0.4571
  494MOL0     C66571   5.956   0.970   4.805  0.0444  0.3905  0.1318
  494MOL0     N66572   5.854   1.011   4.898 -0.1009  0.2527 -0.4887
  494MOL0     C66573   5.802   0.920   4.989 -0.7636 -0.2718  0.3717
  494MOL0     C66574   5.732   0.992   5.081  0.4052 -0.1746  0.3661
  494MOL0     C66575   5.647   0.923   5.190 -0.3339  0.4298  0.3007
  494MOL0     C66576   5.558   0.819   5.119 -0.3767 -0.3001  0.2332
  494MOL0     C66577   5.441   0.769   5.201 -0.8404 -1.0431  0.8906
  494MOL0     C66578   5.377   0.640   5.156 -1.0618  0.0355 -0.3997
  494MOL0     O66579   5.317   0.657   5.028  0.1052  0.3339 -0.1918
  494MOL0     C66580   5.175   0.679   5.017 -0.3529  0.2735  0.8458
  494MOL0     C66581   5.097   0.581   4.952  0.3260 -0.0731 -0.2267
  494MOL0     C66582   4.959   0.601   4.945 -0.2969  0.1559  0.3973
  494MOL0     C66583   4.894   0.697   5.009  0.4557 -0.0434 -0.8011
  494MOL0     C66584   4.746   0.693   5.008  0.9395  0.4550  0.0417
  494MOL0     O66585   4.684   0.578   4.954  0.2369 -0.4337 -0.1342
  494MOL0     C66586   4.550   0.543   4.980 -0.6744 -0.5151 -0.1053
  494MOL0     C66587   4.523   0.412   4.952 -0.6873 -0.3234 -0.6652
  494MOL0     C66588   4.402   0.363   4.994 -0.3930 -0.2123 -0.5519
  494MOL0     C66589   4.297   0.442   5.044  0.5269 -0.9998  0.5084
  494MOL0     O66590   4.186   0.368   5.095 -0.1744 -0.5095  0.9524
  494MOL0     C66591   4.093   0.444   5.176  0.4029  0.2083  0.7605
  494MOL0     C66592   3.986   0.365   5.248  0.0580  0.1282 -0.0527
  494MOL0     C66593   3.883   0.305   5.139  0.1324 -0.0268 -0.3254
  494MOL0     C66594   3.741   0.305   5.183  0.5661 -0.0417  0.1848
  494MOL0     C66595   3.649   0.272   5.062  0.7062  0.2750 -0.0972
  494MOL0     C66596   3.499   0.285   5.093  0.5098  0.4452  1.0411
  494MOL0     C66597   3.406   0.206   4.986 -0.3587  1.3569 -0.2688
  494MOL0     C66598   3.260   0.214   5.035  0.3626 -0.3584 -0.2362
  494MOL0    Cl66599   3.229   0.147   5.206  0.1378  0.5844  0.3354
  494MOL0     C66600   4.316   0.580   5.058  0.5879  0.1590  0.3644
  494MOL0     C66601   4.439   0.624   5.029 -0.5232  0.2514  0.0728
  494MOL0     O66602   4.692   0.788   5.063 -0.3538 -0.1836  0.5937
  494MOL0     C66603   4.963   0.794   5.075  0.7703  0.5698  0.2618
  494MOL0     C66604   5.106   0.787   5.077  0.3240  0.0909  0.4899
  494MOL0     N66605   5.749   1.126   5.059  0.3316  0.5355 -0.6720
  494MOL0     N66606   5.826   1.131   4.954  0.0516 -0.5282 -0.1630
  494MOL0     C66607   6.667   1.632   4.531  0.6393 -0.3969  0.8632
  494MOL0     C66608   6.799   1.643   4.501  0.1295  0.5297 -0.0099
  494MOL0     C66609   7.235   1.756   4.449 -0.4059 -0.3225  0.3577
  494MOL0     C66610   7.336   1.671   4.405 -0.0215 -0.0882  0.7481
  494MOL0     C66611   7.467   1.697   4.442  0.2575  0.0821  0.5567
  494MOL0     C66612   7.504   1.812   4.513 -0.0442  0.4897  0.0447
  494MOL0     O66613   7.644   1.823   4.536  0.3008 -0.1838  0.0308
  494MOL0     C66614   7.715   1.947   4.546 -0.0165 -0.5440  0.1831
  494MOL0     C66615   7.837   1.935   4.624 -0.0713 -0.3828  0.5385
  494MOL0     C66616   7.935   1.834   4.559 -0.7539  1.0553 -0.4053
  494MOL0     C66617   8.022   1.886   4.445  0.0645  0.2950 -0.4634
  494MOL0     C66618   8.101   1.772   4.396  0.1835 -0.1052  0.4894
  494MOL0     C66619   8.165   1.681   4.347  0.6118  0.0366 -0.2752
  494MOL0     C66620   7.409   1.899   4.547 -0.1577  0.0947 -0.3377
  494MOL0     C66621   7.274   1.873   4.515  0.6666 -0.2509 -0.8215
  494MOL0     C66622   7.182   1.979   4.588 -0.3329 -0.0339  0.2194
  494MOL0     H66623   6.866   1.932   4.652 -0.8336  1.0444 -1.5348
  494MOL0     H66624   6.632   1.914   4.729 -1.7721 -1.7495  1.5198
  494MOL0     H66625   6.421   1.522   4.550  0.2749  0.0806  0.0316
  494MOL0     H66626   6.436   1.531   4.731  1.5238  1.1385 -0.4861
  494MOL0     H66627   6.216   1.642   4.561  2.1753 -3.9373 -2.4228
  494MOL0     H66628   6.217   1.635   4.747 -1.5060  1.1045 -0.3361
  494MOL0     H66629   6.232   1.390   4.558  1.5186 -1.9825  3.3638
  494MOL0     H66630   6.080   1.460   4.586 -0.7514 -1.3513  0.4610
  494MOL0     H66631   6.282   1.366   4.808 -1.1670 -1.0059  1.1944
  494MOL0     H66632   6.108   1.382   4.834  0.3289 -0.9835  0.9638
  494MOL0     H66633   6.071   1.203   4.674 -1.2994  3.4324  0.2734
  494MOL0     H66634   6.254   1.179   4.703  1.4811  1.3702  1.7763
  494MOL0     H66635   6.219   1.140   4.938 -0.4385 -0.9189  1.4770
  494MOL0     H66636   6.056   1.191   4.927  0.2975  0.6902 -0.0563
  494MOL0     H66637   6.114   0.943   4.955  2.4017 -4.1133 -1.4494
  494MOL0     H66638   6.172   0.951   4.788  2.0540  2.6461  0.5175
  494MOL0     H66639   5.949   1.027   4.712 -2.0781  1.5471  0.9382
  494MOL0     H66640   5.950   0.866   4.772 -0.0761  1.1086 -2.2756
  494MOL0     H66641   5.817   0.812   4.984 -0.7516 -0.2383 -0.4401
  494MOL0     H66642   5.710   0.870   5.262  1.0482  0.2624 -0.9777
  494MOL0     H66643   5.590   1.006   5.233 -1.1870  0.4151 -0.7453
  494MOL0     H66644   5.517   0.874   5.034 -0.2084  2.1753  1.6785
  494MOL0     H66645   5.624   0.738   5.087  1.0080  0.9006 -0.0258
  494MOL0     H66646   5.361   0.843   5.216 -1.9015 -1.9130 -0.2105
  494MOL0     H66647   5.483   0.749   5.300  4.4256  1.1492 -0.6009
  494MOL0     H66648   5.298   0.601   5.221 -0.9460 -0.9180 -0.8145
  494MOL0     H66649   5.454   0.566   5.135  0.5365  2.5232 -4.7890
  494MOL0     H66650   5.143   0.489   4.917  0.1190 -0.2073 -0.1469
  494MOL0     H66651   4.912   0.523   4.885  1.0563  0.6869 -1.4336
  494MOL0     H66652   4.605   0.353   4.914 -0.8995  1.7078 -4.8301
  494MOL0     H66653   4.380   0.257   4.984  1.8624 -0.7765 -0.0757
  494MOL0     H66654   4.138   0.496   5.261 -0.4151 -1.4663  2.2894
  494MOL0     H66655   4.043   0.513   5.108 -0.0059 -1.6647 -0.9280
  494MOL0     H66656   4.023   0.273   5.294 -1.3894 -1.0115 -1.0552
  494MOL0     H66657   3.942   0.428   5.326  1.2832  1.8288 -0.6778
  494MOL0     H66658   3.890   0.370   5.051  1.4608  0.9594  0.4660
  494MOL0     H66659   3.918   0.211   5.095 -0.8743 -1.3270  1.5582
  494MOL0     H66660   3.731   0.403   5.231  2.1281  0.5107 -0.5270
  494MOL0     H66661   3.716   0.244   5.270  0.9469 -0.1694  0.2085
  494MOL0     H66662   3.673   0.171   5.028  1.3609 -0.6598  2.8007
  494MOL0     H66663   3.663   0.342   4.980 -0.8227  1.6628  0.7729
  494MOL0     H66664   3.480   0.246   5.193  1.6339  1.5427  1.7060
  494MOL0     H66665   3.475   0.392   5.091  2.9633  1.1530 -3.0309
  494MOL0     H66666   3.443   0.103   4.991 -0.4749  1.3558  0.8837
  494MOL0     H66667   3.410   0.248   4.885  4.2147 -2.6526 -2.1584
  494MOL0     H66668   3.217   0.315   5.035 -0.5646 -0.7419 -0.0198
  494MOL0     H66669   3.199   0.153   4.967  1.7311 -1.7142 -0.2926
  494MOL0     H66670   4.239   0.647   5.093  1.2611  1.6082 -0.8262
  494MOL0     H66671   4.466   0.727   5.050 -3.0160  1.3847 -1.8199
  494MOL0     H66672   4.901   0.863   5.131 -0.9444  0.5732 -1.5287
  494MOL0     H66673   5.166   0.869   5.115  0.0522  0.3685  0.3206
  494MOL0     H66674   6.612   1.548   4.489 -3.3472  2.0682  0.6144
  494MOL0     H66675   6.836   1.559   4.443 -1.2403 -0.3255  0.3058
  494MOL0     H66676   7.304   1.580   4.356  0.8254 -0.0170  0.0239
  494MOL0     H66677   7.553   1.635   4.422 -0.5673 -1.7262  2.2266
  494MOL0     H66678   7.648   2.020   4.591 -0.8268 -1.0616 -0.1655
  494MOL0     H66679   7.739   1.999   4.453 -2.8730  1.7718  0.6065
  494MOL0     H66680   7.802   1.916   4.726 -1.9841  0.4777  0.0918
  494MOL0     H66681   7.887   2.032   4.633 -0.1090 -0.0482 -2.0519
  494MOL0     H66682   7.876   1.749   4.523  0.0309  0.1248  0.4453
  494MOL0     H66683   8.006   1.798   4.635 -0.0748  0.3611 -1.3474
  494MOL0     H66684   7.955   1.904   4.361 -1.0382 -0.5571  0.2047
  494MOL0     H66685   8.081   1.971   4.480  0.3145  0.1916 -0.6305
  494MOL0     H66686   8.212   1.600   4.294 -2.9325 -1.1560 -1.9725
  494MOL0     H66687   7.446   1.991   4.590 -0.6058  0.1798 -0.1378
  494MOL0     H66688   7.135   1.944   4.681  0.8212 -0.8113  0.5272
  494MOL0     H66689   7.246   2.064   4.615  1.0348 -0.9493 -0.0431
  494MOL0     H66690   7.114   2.011   4.509  0.3099  0.5886 -0.0945
  495MOL0     O66691   3.666   4.072   1.339 -0.2705  0.1499  0.2730
  495MOL0     C66692   3.604   3.980   1.291  0.0520 -0.2031 -0.3246
  495MOL0     O66693   3.661   3.858   1.262  0.8600 -0.1378 -0.0962
  495MOL0     C66694   3.795   3.858   1.217  0.0827  0.4834 -0.3629
  495MOL0     C66695   3.874   3.973   1.166  0.4377 -0.0127  0.3330
  495MOL0     C66696   4.016   3.966   1.151  1.4037 -1.4862  0.1742
  495MOL0     C66697   4.088   3.847   1.171 -0.3382 -0.3578  0.0851
  495MOL0     O66698   4.224   3.828   1.162 -0.0479 -0.1174  0.0886
  495MOL0     C66699   4.309   3.931   1.206 -0.4520 -0.3580  0.5435
  495MOL0     C66700   4.359   3.993   1.080  0.2815 -0.2186 -0.5887
  495MOL0     C66701   4.467   4.100   1.108  0.7408 -0.5035 -0.7712
  495MOL0     C66702   4.531   4.143   0.970  0.2137  1.1644 -0.3900
  495MOL0     C66703   4.643   4.241   0.995 -0.0900 -0.4807 -0.2260
  495MOL0     C66704   4.753   4.261   0.894  0.0569  0.6519  0.1156
  495MOL0     C66705   4.706   4.289   0.755 -0.3081  0.6769  0.4502
  495MOL0     C66706   4.627   4.415   0.741  0.5702 -0.6336  0.1027
  495MOL0     N66707   4.623   4.458   0.599 -0.0686 -0.7118  0.5646
  495MOL0     C66708   4.517   4.443   0.504  0.6372  0.2620 -0.6588
  495MOL0     C66709   4.559   4.510   0.389 -0.2586  0.8726 -0.6347
  495MOL0     C66710   4.494   4.500   0.254  0.6150  0.9596  0.4237
  495MOL0     C66711   4.347   4.445   0.249  0.1032 -0.1340 -0.1815
  495MOL0     C66712   4.292   4.467   0.107  1.0732  0.2413 -0.2217
  495MOL0     C66713   4.165   4.396   0.082  0.7333 -0.8871  0.6910
  495MOL0     O66714   4.074   4.410   0.194 -0.0435 -0.3471 -0.4277
  495MOL0     C66715   3.968   4.325   0.203  0.0657 -0.1621 -0.0025
  495MOL0     C66716   3.920   4.229   0.117  0.3584 -0.5272  0.4406
  495MOL0     C66717   3.794   4.159   0.146  0.8141 -0.1112  0.6407
  495MOL0     C66718   3.723   4.196   0.266  0.3335  0.4640  0.3429
  495MOL0     C66719   3.608   4.123   0.321  0.7598 -0.1305  0.4181
  495MOL0     O66720   3.545   4.186   0.422  0.8426 -0.0445  0.3279
  495MOL0     C66721   3.426   4.133   0.472 -0.0011 -0.2221 -0.4772
  495MOL0     C66722   3.305   4.197   0.447 -0.2337 -0.0771 -0.0746
  495MOL0     C66723   3.180   4.159   0.495 -0.5915  0.1313  0.2614
  495MOL0     C66724   3.170   4.034   0.557  0.3923 -0.5452  0.6015
  495MOL0     O66725   3.044   4.000   0.601  0.1271  0.0731 -0.2690
  495MOL0     C66726   2.926   4.041   0.533 -0.0633 -0.3647  1.3603
  495MOL0     C66727   2.798   3.995   0.601  0.8726 -1.2312 -0.5149
  495MOL0     C66728   2.675   4.073   0.538  0.3201 -0.4614  0.4639
  495MOL0     C66729   2.539   4.036   0.603 -0.6459 -0.1501  0.3759
  495MOL0     C66730   2.426   4.082   0.510  0.5388  0.5068 -0.3533
  495MOL0     C66731   2.291   4.043   0.577  0.6268 -0.2851 -0.0056
  495MOL0     C66732   2.180   4.068   0.475 -0.1917 -1.1656 -0.3136
  495MOL0     C66733   2.042   4.023   0.527  0.2261  0.4927  0.1111
  495MOL0    Cl66734   1.923   4.050   0.383 -0.2333  0.2790 -0.0858
  495MOL0     C66735   3.287   3.964   0.589 -0.4977  0.1766 -0.4879
  495MOL0     C66736   3.413   4.014   0.537  0.2168  0.4517 -0.2939
  495MOL0     O66737   3.565   4.015   0.274  0.7137  0.5073 -0.3328
  495MOL0     C66738   3.782   4.290   0.347 -0.0032  0.9442  0.4514
  495MOL0     C66739   3.906   4.350   0.319 -0.1400  0.0775 -0.2035
  495MOL0     N66740   4.683   4.574   0.424 -0.2414  0.2581 -0.1903
  495MOL0     N66741   4.718   4.538   0.537 -0.1410  0.7568  0.0944
  495MOL0     C66742   4.007   3.733   1.192 -0.1038  0.5739  0.0858
  495MOL0     C66743   3.868   3.740   1.217 -1.2213 -0.8057  0.1150
  495MOL0     C66744   3.458   4.000   1.263  0.5671 -0.7752  0.5167
  495MOL0     C66745   3.366   3.888   1.245 -0.1379  0.1205  0.1876
  495MOL0     C66746   3.231   3.902   1.205  0.0101  0.0844  0.1958
  495MOL0     C66747   3.176   4.031   1.193 -0.6317  1.0671  0.5966
  495MOL0     O66748   3.038   4.041   1.163 -0.2132 -0.1147 -0.4574
  495MOL0     C66749   2.975   4.168   1.158 -0.8599 -0.0235 -0.3707
  495MOL0     C66750   2.832   4.145   1.134 -0.1109  0.3809 -1.8084
  495MOL0     C66751   2.740   4.264   1.179  0.5383 -0.1959 -0.1639
  495MOL0     C66752   2.595   4.220   1.170  0.7918 -0.0182  0.6684
  495MOL0     C66753   2.550   4.161   1.042  1.0544 -0.7912 -0.2719
  495MOL0     C66754   2.497   4.100   0.956 -0.3386  0.0954  0.0683
  495MOL0     C66755   3.262   4.141   1.222  0.3748  0.6610 -0.0965
  495MOL0     C66756   3.397   4.125   1.260  0.2372 -0.4482  0.2806
  495MOL0     C66757   3.460   4.255   1.307  0.3020 -0.1200  0.1932
  495MOL0     H66758   3.824   4.067   1.145  0.1824 -0.5347 -1.5764
  495MOL0     H66759   4.069   4.056   1.121  1.9193 -1.4478  1.1560
  495MOL0     H66760   4.247   4.007   1.254 -0.3361  1.1665 -1.5883
  495MOL0     H66761   4.389   3.891   1.268  0.8258  1.4612  0.1434
  495MOL0     H66762   4.278   4.041   1.025 -1.3938 -1.2330  0.9095
  495MOL0     H66763   4.412   3.915   1.024  0.7048 -1.2101  1.1347
  495MOL0     H66764   4.545   4.053   1.168 -0.4128  0.4512  1.6350
  495MOL0     H66765   4.431   4.187   1.165  0.5696  0.7384 -2.6764
  495MOL0     H66766   4.564   4.054   0.915  1.0354  2.5132 -2.1660
  495MOL0     H66767   4.447   4.181   0.910 -0.2303  1.6216  0.5120
  495MOL0     H66768   4.595   4.335   1.024 -4.4767 -2.7061  0.6563
  495MOL0     H66769   4.689   4.202   1.086 -0.6294  0.3836  0.4178
  495MOL0     H66770   4.808   4.346   0.934 -3.0906  3.1425 -0.4322
  495MOL0     H66771   4.816   4.172   0.890 -1.2353 -0.2645 -1.6483
  495MOL0     H66772   4.635   4.211   0.725 -0.6776  1.7023 -1.4894
  495MOL0     H66773   4.793   4.295   0.689 -0.7794  0.1510 -0.2385
  495MOL0     H66774   4.528   4.395   0.781  1.3360 -1.2990  1.7580
  495MOL0     H66775   4.659   4.494   0.809 -0.7860  1.1917 -1.2884
  495MOL0     H66776   4.432   4.378   0.520 -0.9882  2.5640  0.4893
  495MOL0     H66777   4.511   4.600   0.212  1.2562  0.8655  0.4538
  495MOL0     H66778   4.546   4.435   0.183  1.0453  0.1519  1.4503
  495MOL0     H66779   4.346   4.337   0.264 -1.2661 -0.0338  0.6868
  495MOL0     H66780   4.294   4.499   0.329  1.3228  0.3351  0.3337
  495MOL0     H66781   4.364   4.427   0.035 -0.7908 -4.8470  0.3350
  495MOL0     H66782   4.292   4.574   0.081  1.6471 -0.3930 -3.2898
  495MOL0     H66783   4.194   4.290   0.086  2.1401 -0.4804  2.1940
  495MOL0     H66784   4.124   4.425  -0.016  0.2150 -7.0470 -1.4063
  495MOL0     H66785   3.974   4.213   0.024 -1.3061 -0.4070 -0.5930
  495MOL0     H66786   3.760   4.071   0.093 -0.3475 -0.6004  2.1250
  495MOL0     H66787   3.306   4.281   0.378  0.5209 -0.0059  0.0218
  495MOL0     H66788   3.099   4.225   0.465 -0.8243 -0.7868 -1.2137
  495MOL0     H66789   2.916   4.149   0.546 -1.7602  0.0703 -2.2715
  495MOL0     H66790   2.931   4.032   0.424  1.3543 -0.1259  1.3916
  495MOL0     H66791   2.785   3.887   0.599  0.2733 -1.2148  1.2201
  495MOL0     H66792   2.812   4.021   0.706  0.4736  2.8436 -1.3099
  495MOL0     H66793   2.695   4.180   0.539  2.7160 -0.7278 -2.8582
  495MOL0     H66794   2.683   4.049   0.431 -1.5473 -3.2466  0.8354
  495MOL0     H66795   2.527   4.096   0.694  0.4582  0.0428  0.4092
  495MOL0     H66796   2.535   3.929   0.624 -3.3404  0.1499  1.8915
  495MOL0     H66797   2.445   4.024   0.420 -0.0535 -1.9165  1.0074
  495MOL0     H66798   2.442   4.189   0.491  0.3587  0.4583 -0.7846
  495MOL0     H66799   2.290   3.938   0.607  0.6369 -0.0691  0.7798
  495MOL0     H66800   2.271   4.099   0.669 -0.4958 -0.0726 -0.3636
  495MOL0     H66801   2.212   4.019   0.382 -3.3925 -1.6909 -1.2631
  495MOL0     H66802   2.184   4.175   0.455  0.2833 -1.2233 -0.5524
  495MOL0     H66803   2.040   3.918   0.555  1.7641  0.4232  0.0156
  495MOL0     H66804   2.022   4.071   0.623 -0.6972 -2.0384  1.2700
  495MOL0     H66805   3.274   3.871   0.643 -2.8954  1.9612  2.3250
  495MOL0     H66806   3.499   3.948   0.542 -0.8256 -1.2281 -2.7140
  495MOL0     H66807   3.739   4.323   0.442  0.5564  1.2677  0.6003
  495MOL0     H66808   3.941   4.422   0.391 -1.8617  1.3927 -0.6112
  495MOL0     H66809   4.043   3.630   1.191 -1.9141 -0.1022 -0.6514
  495MOL0     H66810   3.805   3.653   1.229 -1.6055 -0.4090  1.0522
  495MOL0     H66811   3.404   3.787   1.261  2.5566  1.3412  2.4307
  495MOL0     H66812   3.157   3.827   1.179  0.4423 -0.0332 -0.7362
  495MOL0     H66813   3.020   4.231   1.081  0.9525 -0.8976 -0.0790
  495MOL0     H66814   2.993   4.223   1.251  1.4344  0.9265 -1.2988
  495MOL0     H66815   2.814   4.057   1.196  1.9712  0.7537 -0.5614
  495MOL0     H66816   2.811   4.129   1.028  1.8507 -1.8702 -1.9373
  495MOL0     H66817   2.753   4.350   1.112 -0.7831 -0.0143 -0.2146
  495MOL0     H66818   2.762   4.284   1.284 -4.2512 -2.1809  1.5135
  495MOL0     H66819   2.586   4.150   1.254  0.1999 -2.0471 -1.0126
  495MOL0     H66820   2.531   4.306   1.193  1.5857  0.1709  2.3390
  495MOL0     H66821   2.441   4.043   0.884  1.9377 -1.0301 -0.9337
  495MOL0     H66822   3.218   4.240   1.222 -0.3185  0.3955 -1.6905
  495MOL0     H66823   3.389   4.337   1.296  0.0548  0.0572  2.4828
  495MOL0     H66824   3.488   4.245   1.413 -2.8481 -0.9363  1.0558
  495MOL0     H66825   3.550   4.275   1.249  0.1421  0.7125  0.2279
  496MOL0     O66826   0.464  10.882   9.492  0.3771  0.9469 -0.6426
  496MOL0     C66827   0.463  10.930   9.375  0.5796  0.7243 -0.4593
  496MOL0     O66828   0.347  10.943   9.298 -0.4342  0.1097 -0.3467
  496MOL0     C66829   0.231  10.935   9.377 -0.0235  0.5348  0.1584
  496MOL0     C66830   0.146  10.820   9.380 -1.0505  0.0968  0.8377
  496MOL0     C66831   0.038  10.820   9.462  0.3217 -0.2756 -0.1741
  496MOL0     C66832  -0.010  10.928   9.530  0.3990  0.0186 -0.4264
  496MOL0     O66833  -0.131  10.908   9.604 -0.2442  0.0164  0.4001
  496MOL0     C66834  -0.219  11.021   9.621  0.2760 -0.1215  0.8414
  496MOL0     C66835  -0.301  11.071   9.500 -0.5665 -0.0332  0.4692
  496MOL0     C66836  -0.447  11.097   9.529 -0.4415  0.0080 -0.0861
  496MOL0     C66837  -0.481  11.233   9.588 -0.0404 -0.6012 -0.1140
  496MOL0     C66838  -0.627  11.240   9.640  0.1128  0.0265 -0.5154
  496MOL0     C66839  -0.658  11.371   9.715  0.0464 -0.6782 -0.0868
  496MOL0     C66840  -0.690  11.486   9.612 -0.0768  0.3207  0.7880
  496MOL0     C66841  -0.676  11.623   9.671  0.1167 -0.6187  0.0290
  496MOL0     N66842  -0.540  11.644   9.724  0.6939  0.1164  0.3330
  496MOL0     C66843  -0.424  11.609   9.662 -0.1975 -0.8037  0.3248
  496MOL0     C66844  -0.330  11.610   9.762  0.0248  0.1191  0.4045
  496MOL0     C66845  -0.178  11.591   9.741  0.4070 -0.0886  0.1524
  496MOL0     C66846  -0.140  11.443   9.706 -0.2556  0.2019  0.1193
  496MOL0     C66847   0.001  11.398   9.744 -0.3817 -1.1022 -0.2977
  496MOL0     C66848   0.106  11.477   9.675  0.6104 -0.6613  0.1915
  496MOL0     O66849   0.112  11.421   9.544  0.0345  0.1928 -0.0727
  496MOL0     C66850   0.207  11.462   9.456  0.0276  0.0509 -0.9707
  496MOL0     C66851   0.211  11.397   9.333  0.3529  1.0916 -0.1967
  496MOL0     C66852   0.295  11.453   9.234 -0.0672 -0.0159 -0.2977
  496MOL0     C66853   0.383  11.555   9.262 -0.4079 -0.2398 -0.6927
  496MOL0     C66854   0.477  11.603   9.162 -0.0031 -0.1215  0.1332
  496MOL0     O66855   0.571  11.697   9.201 -1.1492  0.2096  0.0534
  496MOL0     C66856   0.647  11.750   9.098 -0.3439  0.6069  0.8985
  496MOL0     C66857   0.731  11.677   9.012  0.0870  0.8112 -0.2505
  496MOL0     C66858   0.830  11.743   8.940  0.5786  0.3490  0.1460
  496MOL0     C66859   0.822  11.881   8.923 -0.1328 -0.0519 -0.4535
  496MOL0     O66860   0.931  11.927   8.858 -0.1556 -0.2019 -0.1129
  496MOL0     C66861   0.949  12.067   8.832  0.1345 -0.1500  0.9110
  496MOL0     C66862   0.879  12.116   8.712  0.3587  0.4148 -0.0556
  496MOL0     C66863   0.945  12.071   8.585  0.7167 -0.3129  0.0411
  496MOL0     C66864   1.080  12.145   8.560  0.6450 -1.0966 -0.0879
  496MOL0     C66865   1.120  12.155   8.409  0.0591 -0.2664 -0.2139
  496MOL0     C66866   1.200  12.288   8.379 -0.1335 -0.4925 -0.4870
  496MOL0     C66867   1.209  12.316   8.230 -0.0739 -0.4950  0.8969
  496MOL0     C66868   1.337  12.382   8.186 -0.3811 -0.5303 -0.8218
  496MOL0    Cl66869   1.488  12.284   8.217 -0.1093 -0.5463  0.3080
  496MOL0     C66870   0.726  11.957   9.004 -0.5472 -0.4001  0.3010
  496MOL0     C66871   0.643  11.887   9.092  0.7953 -0.8055 -0.1709
  496MOL0     O66872   0.461  11.560   9.041  0.1988 -0.0313 -0.5048
  496MOL0     C66873   0.390  11.610   9.388  0.4944 -0.3200 -0.7739
  496MOL0     C66874   0.301  11.562   9.486 -0.6240 -0.0426  0.3573
  496MOL0     N66875  -0.393  11.640   9.887  0.2003 -0.1308  0.2290
  496MOL0     N66876  -0.518  11.655   9.861  0.7789 -0.2494 -0.3415
  496MOL0     C66877   0.055  11.049   9.508 -0.1256  0.1559  0.2950
  496MOL0     C66878   0.180  11.050   9.442  0.9002 -0.2133  0.1766
  496MOL0     C66879   0.599  10.963   9.313 -0.4206 -0.3263  0.0945
  496MOL0     C66880   0.709  10.889   9.360  0.2159  0.7148 -0.6562
  496MOL0     C66881   0.841  10.904   9.320  0.3546 -0.2321  0.5253
  496MOL0     C66882   0.866  11.006   9.229 -0.4436  0.5046 -0.4808
  496MOL0     O66883   0.993  11.035   9.190  0.2284  0.3653  0.1846
  496MOL0     C66884   1.044  10.948   9.087 -0.1550 -0.1129  0.1126
  496MOL0     C66885   1.173  11.008   9.028  2.1463 -0.5566  0.4252
  496MOL0     C66886   1.242  10.899   8.941  0.0469 -0.6455  0.4316
  496MOL0     C66887   1.301  10.783   9.022  0.4443 -0.1230  0.7029
  496MOL0     C66888   1.439  10.791   9.028 -0.7659  0.3912 -0.6253
  496MOL0     C66889   1.555  10.805   9.040 -0.1703  0.4209 -0.2771
  496MOL0     C66890   0.760  11.053   9.154  1.3307  0.6398  0.0116
  496MOL0     C66891   0.625  11.042   9.194  0.4324  0.1201  0.3598
  496MOL0     C66892   0.511  11.112   9.113 -0.3484  0.9974  0.1544
  496MOL0     H66893   0.169  10.742   9.307 -0.8737  1.7344 -0.9504
  496MOL0     H66894  -0.018  10.728   9.457 -0.3133  0.1519 -1.2407
  496MOL0     H66895  -0.292  10.985   9.693 -1.1107  0.3380 -0.2998
  496MOL0     H66896  -0.161  11.104   9.663  3.0181 -1.9518  0.9884
  496MOL0     H66897  -0.293  11.006   9.413  2.3175 -0.5984  1.0321
  496MOL0     H66898  -0.250  11.157   9.456 -1.4030 -0.9523 -2.5229
  496MOL0     H66899  -0.489  11.019   9.592  1.0152 -1.4125 -0.8025
  496MOL0     H66900  -0.501  11.100   9.434 -0.5245 -0.9380 -0.0714
  496MOL0     H66901  -0.407  11.258   9.665 -0.1368 -0.6817  0.0069
  496MOL0     H66902  -0.479  11.320   9.522  1.8392  0.2093  0.9195
  496MOL0     H66903  -0.699  11.228   9.558 -0.0214 -0.0014 -0.3954
  496MOL0     H66904  -0.651  11.162   9.713  0.1700  0.7923  0.3489
  496MOL0     H66905  -0.742  11.369   9.785 -0.0986  1.3077 -0.1500
  496MOL0     H66906  -0.574  11.408   9.773  1.2030  1.7253 -3.0546
  496MOL0     H66907  -0.789  11.457   9.576  1.7386 -0.4286 -4.5251
  496MOL0     H66908  -0.632  11.472   9.520 -0.4618 -0.6391  0.6878
  496MOL0     H66909  -0.700  11.702   9.599 -1.4988 -1.0461  0.0485
  496MOL0     H66910  -0.748  11.640   9.752 -1.9853 -2.5009 -1.3185
  496MOL0     H66911  -0.413  11.598   9.555  2.4333 -1.1096  0.5457
  496MOL0     H66912  -0.142  11.660   9.665  0.3320 -1.1497 -0.8689
  496MOL0     H66913  -0.130  11.617   9.836 -0.7783 -0.2112  0.8150
  496MOL0     H66914  -0.209  11.395   9.775 -1.0588  1.9225  0.5589
  496MOL0     H66915  -0.174  11.410   9.607 -2.4742 -0.2405  0.9857
  496MOL0     H66916   0.022  11.291   9.749 -0.5990 -1.1080  0.8821
  496MOL0     H66917   0.013  11.421   9.851  1.0250 -1.2873 -0.4071
  496MOL0     H66918   0.200  11.457   9.729  0.5196 -0.6377  0.3592
  496MOL0     H66919   0.101  11.586   9.675  0.6848 -0.5684  3.0753
  496MOL0     H66920   0.136  11.323   9.307  0.2068  0.4578  1.8875
  496MOL0     H66921   0.280  11.403   9.139 -1.5444 -0.2980  0.0610
  496MOL0     H66922   0.723  11.569   9.017 -0.9227  0.9292  1.6685
  496MOL0     H66923   0.901  11.689   8.878 -0.0190  2.1295 -2.2444
  496MOL0     H66924   0.917  12.136   8.911 -0.4567  2.0366 -1.1325
  496MOL0     H66925   1.055  12.093   8.821  0.4873 -1.8997 -0.1778
  496MOL0     H66926   0.776  12.079   8.722  0.0155  1.2841 -0.2770
  496MOL0     H66927   0.884  12.225   8.720  2.2330  0.2786  1.1651
  496MOL0     H66928   0.955  11.962   8.583  2.3384 -0.1918 -2.0017
  496MOL0     H66929   0.876  12.094   8.503  1.1943  0.2303 -0.2202
  496MOL0     H66930   1.159  12.108   8.626  2.9997  3.0291 -0.2806
  496MOL0     H66931   1.061  12.245   8.601  1.7961 -0.3279 -1.3397
  496MOL0     H66932   1.023  12.168   8.359 -0.7005 -2.5545  0.5233
  496MOL0     H66933   1.166  12.065   8.368 -0.2189  1.2394 -4.3109
  496MOL0     H66934   1.146  12.367   8.432  0.6500 -1.7921  2.4609
  496MOL0     H66935   1.299  12.278   8.424  0.2949 -1.8579 -1.6638
  496MOL0     H66936   1.125  12.375   8.192  0.9915 -0.9300 -2.5037
  496MOL0     H66937   1.200  12.213   8.195 -0.5768 -0.5772  1.2586
  496MOL0     H66938   1.337  12.401   8.078  1.8104 -0.9859 -0.9532
  496MOL0     H66939   1.350  12.480   8.233 -1.1227 -0.7166 -0.2247
  496MOL0     H66940   0.703  12.063   9.004 -0.8592 -0.4684 -0.0261
  496MOL0     H66941   0.569  11.942   9.149  2.1751  0.8048  0.1582
  496MOL0     H66942   0.468  11.682   9.410  2.3094 -1.8377 -1.9063
  496MOL0     H66943   0.311  11.617   9.579  0.0664  0.3593  0.0503
  496MOL0     H66944   0.023  11.144   9.551  0.4951  0.7649 -0.5702
  496MOL0     H66945   0.243  11.138   9.438 -3.1196  3.0579  1.7939
  496MOL0     H66946   0.686  10.808   9.429  3.5333  0.9850  0.9447
  496MOL0     H66947   0.919  10.840   9.360  0.4285 -1.0617 -0.8880
  496MOL0     H66948   0.973  10.934   9.005  3.5802 -2.1679 -3.1307
  496MOL0     H66949   1.062  10.843   9.113 -2.2628 -1.8476 -4.3045
  496MOL0     H66950   1.247  11.039   9.103  3.9434 -1.2572 -0.9792
  496MOL0     H66951   1.144  11.098   8.973  0.5133  0.0283  2.1235
  496MOL0     H66952   1.324  10.938   8.880 -0.0499 -1.5049 -0.2738
  496MOL0     H66953   1.176  10.856   8.865  1.4265 -4.0687  0.9774
  496MOL0     H66954   1.270  10.787   9.127  0.7146  2.6761  0.7270
  496MOL0     H66955   1.267  10.690   8.975  0.9871 -0.3472  0.7458
  496MOL0     H66956   1.657  10.833   9.054 -0.5442  1.8065 -0.1839
  496MOL0     H66957   0.795  11.124   9.080  0.3531  0.9245 -0.1982
  496MOL0     H66958   0.437  11.159   9.179 -0.7694 -0.0580  0.4623
  496MOL0     H66959   0.553  11.184   9.043 -0.6525  0.5516 -0.4916
  496MOL0     H66960   0.466  11.037   9.048  1.6330 -0.1746  0.0415
  497MOL0     O66961   1.263   9.262  10.700  0.9984  0.2469 -0.5332
  497MOL0     C66962   1.286   9.265  10.818 -0.3900  0.1668 -0.4110
  497MOL0     O66963   1.189   9.297  10.915 -0.3152  0.2645 -0.3679
  497MOL0     C66964   1.055   9.284  10.880 -1.3640 -0.0919 -0.3060
  497MOL0     C66965   0.997   9.175  10.810  0.0253  0.2786  0.6921
  497MOL0     C66966   0.857   9.168  10.801 -0.2239 -0.0051 -0.0791
  497MOL0     C66967   0.779   9.275  10.853  0.5140 -0.6112 -0.5108
  497MOL0     O66968   0.646   9.281  10.838  0.0504 -0.5181  0.4655
  497MOL0     C66969   0.581   9.195  10.931  0.2030 -0.9343 -0.4456
  497MOL0     C66970   0.434   9.167  10.883 -0.6348  0.3114  0.0912
  497MOL0     C66971   0.334   9.287  10.893  0.5412  0.6723  0.9014
  497MOL0     C66972   0.314   9.319  11.035  0.4278  0.8631  1.3222
  497MOL0     C66973   0.202   9.416  11.064  0.3091  0.4050  0.2780
  497MOL0     C66974   0.152   9.406  11.205  0.0468  0.4342  0.1294
  497MOL0     C66975   0.042   9.501  11.230  0.1676  0.2167  0.0549
  497MOL0     C66976   0.002   9.494  11.383 -0.9526 -0.2293 -0.0595
  497MOL0     N66977  -0.055   9.368  11.421 -0.5172  0.1362 -0.2768
  497MOL0     C66978  -0.011   9.285  11.524  0.2208  1.0665 -0.8439
  497MOL0     C66979  -0.098   9.183  11.524  0.4130  0.9271  0.0863
  497MOL0     C66980  -0.074   9.059  11.600  0.4637  1.1015  0.1924
  497MOL0     C66981  -0.017   8.951  11.506 -0.1693 -0.7697 -0.2528
  497MOL0     C66982  -0.047   8.808  11.556  0.7336 -0.0994 -0.7415
  497MOL0     C66983  -0.002   8.693  11.468  0.1059  0.0808  0.2583
  497MOL0     O66984   0.135   8.703  11.440  0.0626  0.0586  0.3685
  497MOL0     C66985   0.237   8.676  11.524 -0.6460  0.4844 -0.1551
  497MOL0     C66986   0.362   8.672  11.468  0.5677  0.7718 -0.4684
  497MOL0     C66987   0.468   8.631  11.551  0.2421 -0.9112 -0.2602
  497MOL0     C66988   0.448   8.570  11.674  0.3023  0.2345 -0.4525
  497MOL0     C66989   0.567   8.509  11.747  0.2782 -0.2479  0.1316
  497MOL0     O66990   0.682   8.488  11.674 -0.5848  0.7463  0.8247
  497MOL0     C66991   0.793   8.428  11.724 -0.3225 -0.1437  0.4938
  497MOL0     C66992   0.924   8.479  11.703  0.3241 -0.0353 -0.0868
  497MOL0     C66993   1.033   8.403  11.741  0.8128  0.3036 -0.2201
  497MOL0     C66994   1.016   8.276  11.792 -0.0269  0.6475  0.1113
  497MOL0     O66995   1.133   8.203  11.794  0.1501 -0.2072 -0.0755
  497MOL0     C66996   1.176   8.184  11.940 -0.0041  0.3562  0.3610
  497MOL0     C66997   1.330   8.168  11.936 -0.4936  0.1547 -0.0693
  497MOL0     C66998   1.401   8.306  11.913  0.1771 -0.2714  0.1552
  497MOL0     C66999   1.381   8.414  12.022  0.4567 -0.3420  0.0363
  497MOL0     C67000   1.445   8.551  11.989  0.6725  0.9606  0.2722
  497MOL0     C67001   1.391   8.663  12.077 -1.4807 -0.3537 -0.3037
  497MOL0     C67002   1.449   8.655  12.225  0.1776 -0.6635  0.2041
  497MOL0     C67003   1.413   8.786  12.298 -1.2792 -0.1651  0.1764
  497MOL0    Cl67004   1.246   8.775  12.359  0.3383 -0.0005  0.1655
  497MOL0     C67005   0.889   8.223  11.817 -0.3376  0.2060 -0.7115
  497MOL0     C67006   0.781   8.306  11.790  0.5638  0.6066 -0.8084
  497MOL0     O67007   0.553   8.478  11.862  0.5730 -0.3176 -0.1338
  497MOL0     C67008   0.316   8.577  11.737  0.1683 -0.2431  0.7517
  497MOL0     C67009   0.220   8.628  11.657  0.5873 -0.1060 -0.2099
  497MOL0     N67010  -0.188   9.201  11.425 -0.0102 -0.0309 -0.1811
  497MOL0     N67011  -0.164   9.313  11.363  0.8091  0.8521  0.0536
  497MOL0     C67012   0.841   9.391  10.902  0.8948 -0.0086 -0.0306
  497MOL0     C67013   0.975   9.390  10.930  1.0790  0.2486  0.5908
  497MOL0     C67014   1.431   9.266  10.861  0.0779  0.1697  0.7686
  497MOL0     C67015   1.485   9.368  10.944 -0.4382 -0.9919  0.0859
  497MOL0     C67016   1.620   9.370  10.989  0.3167  0.7750 -0.0063
  497MOL0     C67017   1.701   9.275  10.932 -0.4119 -0.2293  0.2261
  497MOL0     O67018   1.839   9.265  10.949 -0.0163  0.0357 -0.5843
  497MOL0     C67019   1.902   9.327  11.058  0.3283  0.2729 -0.3304
  497MOL0     C67020   2.035   9.261  11.079  0.1222 -0.4380  0.5272
  497MOL0     C67021   2.115   9.326  11.197  0.8403  0.6708 -1.2889
  497MOL0     C67022   2.176   9.454  11.140  0.1612  0.2970 -0.3223
  497MOL0     C67023   2.256   9.532  11.232 -0.1057  0.4139 -0.4629
  497MOL0     C67024   2.324   9.601  11.308 -0.1658 -0.1108 -0.5146
  497MOL0     C67025   1.655   9.172  10.851 -0.3511 -0.0007  1.1123
  497MOL0     C67026   1.516   9.164  10.820 -0.1620  0.7327  0.2157
  497MOL0     C67027   1.471   9.048  10.737  0.1151 -0.1352 -0.1142
  497MOL0     H67028   1.066   9.103  10.767 -1.4291  1.0477 -3.4413
  497MOL0     H67029   0.811   9.084  10.749  0.1824  0.5820 -1.4276
  497MOL0     H67030   0.637   9.106  10.959 -0.5046 -0.8605  1.3687
  497MOL0     H67031   0.575   9.243  11.029 -0.0685  0.3810 -1.0719
  497MOL0     H67032   0.395   9.081  10.939 -2.1961 -1.0149 -2.8005
  497MOL0     H67033   0.435   9.128  10.781 -0.4751 -0.4122  0.3575
  497MOL0     H67034   0.247   9.242  10.845  2.8029 -3.2586  0.1133
  497MOL0     H67035   0.356   9.376  10.833 -0.5964 -1.0641 -2.3291
  497MOL0     H67036   0.294   9.220  11.077  2.2341  0.2879  0.9399
  497MOL0     H67037   0.406   9.357  11.082  0.5564  0.9910  0.9665
  497MOL0     H67038   0.241   9.515  11.041  0.9723  0.9566  3.2600
  497MOL0     H67039   0.120   9.389  10.997 -1.5135  3.7008  0.9948
  497MOL0     H67040   0.106   9.311  11.230 -1.3232  0.8314 -0.7634
  497MOL0     H67041   0.232   9.422  11.278 -0.1312  4.1615 -0.2834
  497MOL0     H67042  -0.044   9.472  11.169  1.6202  0.9584 -2.4571
  497MOL0     H67043   0.071   9.605  11.212 -2.4158  1.1468  0.8090
  497MOL0     H67044   0.080   9.512  11.457 -2.2572  1.2281  1.0287
  497MOL0     H67045  -0.064   9.575  11.415  0.5438  1.0936 -0.2162
  497MOL0     H67046   0.072   9.300  11.592 -1.1356 -2.5915  1.9347
  497MOL0     H67047  -0.012   9.087  11.686  0.2955  2.1116 -0.0059
  497MOL0     H67048  -0.166   9.025  11.648  0.3331  0.7614 -0.3001
  497MOL0     H67049  -0.042   8.959  11.399  0.0743  1.0845 -0.2072
  497MOL0     H67050   0.092   8.961  11.498 -0.0352 -0.7076  1.4331
  497MOL0     H67051  -0.153   8.810  11.584  1.5528 -0.0659  2.8056
  497MOL0     H67052   0.002   8.802  11.654  0.2620 -4.2104 -0.5869
  497MOL0     H67053  -0.064   8.682  11.379  0.8689 -1.4407 -0.1309
  497MOL0     H67054  -0.015   8.602  11.528  1.5695  1.0017  2.0591
  497MOL0     H67055   0.385   8.700  11.365 -1.4824  1.9670 -0.6600
  497MOL0     H67056   0.566   8.631  11.504  2.3248 -2.7918  3.5716
  497MOL0     H67057   0.925   8.573  11.648  0.4009  1.8202  2.8698
  497MOL0     H67058   1.131   8.437  11.707  2.6629 -2.5081  1.8440
  497MOL0     H67059   1.139   8.270  11.997  0.8575 -0.9032  2.9637
  497MOL0     H67060   1.133   8.088  11.971 -1.1721  1.3323  1.8931
  497MOL0     H67061   1.355   8.110  12.025 -0.3904  1.6161  0.8941
  497MOL0     H67062   1.337   8.106  11.846 -0.4948  3.4197 -2.4873
  497MOL0     H67063   1.510   8.293  11.905  0.3413 -1.8429  3.3972
  497MOL0     H67064   1.370   8.340  11.814  2.7881 -3.0050 -1.7907
  497MOL0     H67065   1.440   8.377  12.107 -0.0148 -0.1379  0.4552
  497MOL0     H67066   1.275   8.429  12.042  0.2666 -0.5615 -0.7925
  497MOL0     H67067   1.411   8.569  11.887 -2.6964 -1.7100  0.7122
  497MOL0     H67068   1.554   8.543  11.996  0.8103  0.8479 -1.5216
  497MOL0     H67069   1.418   8.755  12.025 -0.8441 -2.6575 -4.4667
  497MOL0     H67070   1.283   8.653  12.090 -1.8002  2.4725 -0.2936
  497MOL0     H67071   1.559   8.655  12.221  0.4028 -3.7628  2.4853
  497MOL0     H67072   1.423   8.566  12.283 -0.1948  0.4093  1.7287
  497MOL0     H67073   1.483   8.790  12.383 -2.1761 -0.7430  0.9551
  497MOL0     H67074   1.436   8.868  12.230 -1.3528 -0.2145  0.0930
  497MOL0     H67075   0.875   8.123  11.856 -2.8994  1.0753  0.8578
  497MOL0     H67076   0.683   8.260  11.793  0.9859 -0.2490 -0.0092
  497MOL0     H67077   0.291   8.533  11.833 -0.6401  2.5584  1.9148
  497MOL0     H67078   0.123   8.621  11.707  1.3565  2.1319  1.8004
  497MOL0     H67079   0.781   9.475  10.935  2.9905  2.2864 -1.7477
  497MOL0     H67080   1.023   9.469  10.987  0.5869  1.1891 -0.2662
  497MOL0     H67081   1.426   9.459  10.957 -1.9585 -2.2741  3.0023
  497MOL0     H67082   1.640   9.451  11.058 -4.8201  1.6239  0.8540
  497MOL0     H67083   1.842   9.301  11.145  3.5331 -1.9122  1.4715
  497MOL0     H67084   1.917   9.435  11.050 -1.2639  0.5116 -0.4403
  497MOL0     H67085   2.093   9.275  10.988 -0.3233 -1.3304  0.0945
  497MOL0     H67086   2.022   9.153  11.087  0.0888 -0.8146 -3.1394
  497MOL0     H67087   2.189   9.257  11.239 -2.6350 -1.1505  2.5102
  497MOL0     H67088   2.042   9.340  11.277  1.1081  1.1305 -1.1166
  497MOL0     H67089   2.247   9.430  11.061  2.9293  2.6531  1.2684
  497MOL0     H67090   2.093   9.515  11.101 -0.5658 -1.6114 -1.9161
  497MOL0     H67091   2.396   9.641  11.377 -2.5196 -1.1400  2.7870
  497MOL0     H67092   1.714   9.084  10.829 -3.1221 -1.2199 -2.6921
  497MOL0     H67093   1.449   9.095  10.641  1.0075  0.7029  0.0709
  497MOL0     H67094   1.553   8.979  10.715  1.2438  0.2338  2.5682
  497MOL0     H67095   1.381   8.995  10.768 -0.0340 -0.1597 -0.5776
  498MOL0     O67096   4.252   6.201   6.172  0.7439 -0.1429 -0.4428
  498MOL0     C67097   4.265   6.232   6.050 -0.7732 -0.8523 -0.7287
  498MOL0     O67098   4.172   6.261   5.960  0.1975 -0.3560  0.7075
  498MOL0     C67099   4.044   6.263   6.012 -0.0687 -0.1734  0.9619
  498MOL0     C67100   3.956   6.158   5.988  0.5685  0.4436 -0.4844
  498MOL0     C67101   3.825   6.171   6.043 -0.1998 -0.5018  0.0698
  498MOL0     C67102   3.782   6.288   6.104 -0.7763 -0.6562 -0.3463
  498MOL0     O67103   3.656   6.288   6.149  0.4339  0.2596 -0.1403
  498MOL0     C67104   3.583   6.408   6.131 -0.0674 -0.1287  0.0912
  498MOL0     C67105   3.455   6.408   6.218  0.0236  1.5738  0.0233
  498MOL0     C67106   3.358   6.292   6.188  0.7793  0.4462 -0.3721
  498MOL0     C67107   3.217   6.320   6.260 -1.0413  0.9959 -0.5648
  498MOL0     C67108   3.113   6.230   6.204  0.0598 -0.1918  0.3495
  498MOL0     C67109   2.988   6.250   6.295 -0.2213  0.3337  0.5459
  498MOL0     C67110   2.870   6.149   6.268  0.1835 -0.0997  0.6032
  498MOL0     C67111   2.898   5.999   6.299 -0.1240  0.1969  0.0360
  498MOL0     N67112   2.874   5.917   6.185 -0.6430 -0.8657 -0.1545
  498MOL0     C67113   2.757   5.903   6.113 -0.5917 -0.1211  0.1298
  498MOL0     C67114   2.793   5.836   6.002 -0.7065  0.6952 -0.4386
  498MOL0     C67115   2.712   5.809   5.878 -0.2684  0.3273 -0.0547
  498MOL0     C67116   2.788   5.888   5.767  1.0520 -0.5061 -0.3703
  498MOL0     C67117   2.707   5.889   5.631 -0.1960  0.0558 -0.5635
  498MOL0     C67118   2.795   5.974   5.544 -0.0719  0.2805  0.0342
  498MOL0     O67119   2.744   5.981   5.413 -0.0977 -0.3201  0.0841
  498MOL0     C67120   2.646   6.058   5.380  0.8446 -1.0234 -0.7206
  498MOL0     C67121   2.639   6.195   5.377  1.0579 -0.5013 -0.4193
  498MOL0     C67122   2.518   6.271   5.355 -0.3070  0.2987  0.5801
  498MOL0     C67123   2.409   6.200   5.327  1.1282 -0.5555  0.6148
  498MOL0     C67124   2.272   6.262   5.328  0.6895  0.3393  0.5010
  498MOL0     O67125   2.160   6.202   5.275  0.2690  0.0736 -0.1043
  498MOL0     C67126   2.035   6.254   5.291  0.4941 -0.2762 -0.5320
  498MOL0     C67127   1.988   6.294   5.416  0.3461 -0.0029  0.3333
  498MOL0     C67128   1.861   6.355   5.428  0.8779 -0.4230  0.6243
  498MOL0     C67129   1.776   6.375   5.311 -0.8041  0.5119 -1.3114
  498MOL0     O67130   1.654   6.442   5.315 -0.4288 -0.6140 -0.0390
  498MOL0     C67131   1.575   6.456   5.437 -1.0882  0.7807  0.0511
  498MOL0     C67132   1.449   6.533   5.427 -0.0117 -0.7695  0.6404
  498MOL0     C67133   1.316   6.445   5.404 -0.3362 -0.4174 -0.0244
  498MOL0     C67134   1.195   6.539   5.405  0.7163 -0.6969  0.0080
  498MOL0     C67135   1.054   6.485   5.394  0.8173  0.6400  0.1323
  498MOL0     C67136   0.950   6.590   5.424  1.5788  0.3729 -0.7791
  498MOL0     C67137   0.798   6.530   5.428  0.4140 -0.2332 -0.2486
  498MOL0     C67138   0.701   6.642   5.383  0.5069 -0.5547 -0.4078
  498MOL0    Cl67139   0.544   6.598   5.447 -0.0756 -0.4453 -0.5609
  498MOL0     C67140   1.830   6.337   5.190 -0.8537  0.4616 -0.1021
  498MOL0     C67141   1.950   6.274   5.177 -0.3774 -0.1509  0.0206
  498MOL0     O67142   2.269   6.376   5.370  0.7349  0.2202  0.0172
  498MOL0     C67143   2.416   6.056   5.321  0.1337 -0.9123  0.5614
  498MOL0     C67144   2.528   5.988   5.351 -0.5712 -0.9121  0.2143
  498MOL0     N67145   2.930   5.797   6.018 -0.1306 -0.0017  0.6860
  498MOL0     N67146   2.977   5.851   6.129  0.3388 -0.0879  0.3183
  498MOL0     C67147   3.869   6.401   6.117  0.9566 -0.3471  0.2229
  498MOL0     C67148   4.003   6.381   6.073  1.2774 -0.3519 -0.2510
  498MOL0     C67149   4.403   6.244   5.997  1.1455  1.0568 -0.3075
  498MOL0     C67150   4.417   6.264   5.863 -0.1109 -0.3390  1.0442
  498MOL0     C67151   4.536   6.261   5.794  0.4695 -0.0285  0.5523
  498MOL0     C67152   4.659   6.263   5.864  1.0940  0.5496 -0.5352
  498MOL0     O67153   4.783   6.273   5.802  0.3601  0.2481  0.3074
  498MOL0     C67154   4.794   6.243   5.664  0.1240  0.4784 -0.4007
  498MOL0     C67155   4.779   6.094   5.644 -0.1575  0.3020 -0.4766
  498MOL0     C67156   4.894   6.003   5.704  0.2515 -0.0166  0.6430
  498MOL0     C67157   4.876   5.855   5.693  0.2077  0.1421  0.7170
  498MOL0     C67158   4.996   5.789   5.758 -0.8160 -0.1552 -0.2442
  498MOL0     C67159   5.102   5.743   5.806 -0.2815 -0.2250 -0.5908
  498MOL0     C67160   4.652   6.247   6.001  0.3799 -0.4966  0.0711
  498MOL0     C67161   4.523   6.237   6.071 -0.5198  0.1014 -0.7840
  498MOL0     C67162   4.534   6.200   6.220  0.1229 -1.7753 -0.1474
  498MOL0     H67163   3.991   6.069   5.936 -0.8757 -1.4420  1.5740
  498MOL0     H67164   3.749   6.095   6.029 -0.5984  0.0616 -1.0085
  498MOL0     H67165   3.645   6.496   6.145 -1.2230  1.5243 -3.8729
  498MOL0     H67166   3.566   6.416   6.023  1.5403 -0.6083 -0.2136
  498MOL0     H67167   3.414   6.508   6.205  0.4721  1.3110 -5.3821
  498MOL0     H67168   3.496   6.407   6.320  0.9609  1.9282 -0.3457
  498MOL0     H67169   3.405   6.195   6.212  0.8426 -0.2164 -2.9564
  498MOL0     H67170   3.349   6.305   6.080  1.6730 -0.9996 -0.6659
  498MOL0     H67171   3.220   6.301   6.367 -0.7079 -2.2554 -1.0631
  498MOL0     H67172   3.181   6.422   6.239  1.0489  1.4176 -2.4543
  498MOL0     H67173   3.101   6.253   6.098  5.0460 -0.1382 -0.4668
  498MOL0     H67174   3.144   6.125   6.204  1.1340  0.1069 -0.1643
  498MOL0     H67175   3.006   6.238   6.402 -3.0545 -4.5789  0.7829
  498MOL0     H67176   2.944   6.349   6.278  0.6202  0.8190  1.1565
  498MOL0     H67177   2.841   6.153   6.163 -0.3285 -1.1220  0.6926
  498MOL0     H67178   2.782   6.170   6.329  0.6684  1.2161  0.8803
  498MOL0     H67179   2.996   5.982   6.344  0.8955 -0.3535 -2.2860
  498MOL0     H67180   2.823   5.972   6.375 -1.3641  1.2564 -0.7811
  498MOL0     H67181   2.663   5.956   6.127 -1.7766 -2.4103  1.3945
  498MOL0     H67182   2.704   5.701   5.871  4.3484 -0.5344  3.1007
  498MOL0     H67183   2.611   5.850   5.891 -0.3111 -0.0608  0.9800
  498MOL0     H67184   2.794   5.990   5.809 -0.1836  0.0588 -1.5040
  498MOL0     H67185   2.887   5.842   5.764 -0.0320 -3.0894  0.5411
  498MOL0     H67186   2.610   5.934   5.654 -0.0403  0.0139  0.2148
  498MOL0     H67187   2.692   5.786   5.596 -1.1353 -0.3720  0.9740
  498MOL0     H67188   2.894   5.928   5.541  0.1362  0.4135  2.6828
  498MOL0     H67189   2.825   6.071   5.585  1.7120 -0.0019 -0.5126
  498MOL0     H67190   2.723   6.260   5.401  1.1458 -1.2104  1.3756
  498MOL0     H67191   2.509   6.379   5.359 -0.7080  0.4345 -2.1490
  498MOL0     H67192   2.054   6.281   5.501 -0.5079  1.4602  1.2653
  498MOL0     H67193   1.836   6.380   5.530  0.0819  0.3193  0.2526
  498MOL0     H67194   1.548   6.358   5.477  1.4809  0.4975  1.3309
  498MOL0     H67195   1.629   6.502   5.520 -1.9170 -0.0906  1.1105
  498MOL0     H67196   1.439   6.590   5.520  0.8456 -1.5238  1.2233
  498MOL0     H67197   1.466   6.604   5.346  1.7835 -1.7577  0.1082
  498MOL0     H67198   1.333   6.391   5.310  2.6544  0.7907 -0.2644
  498MOL0     H67199   1.305   6.376   5.488  2.6088  1.1269  1.7768
  498MOL0     H67200   1.200   6.611   5.323 -4.0766  1.8138  1.5326
  498MOL0     H67201   1.210   6.589   5.502  3.3169 -2.2691  0.5045
  498MOL0     H67202   1.039   6.405   5.466 -0.6651  0.6207 -0.1634
  498MOL0     H67203   1.029   6.442   5.296  0.1930 -0.5498  0.7999
  498MOL0     H67204   0.976   6.647   5.513  1.4474  3.3601 -2.5377
  498MOL0     H67205   0.947   6.665   5.345  1.1932  0.1193 -1.0070
  498MOL0     H67206   0.780   6.495   5.530  1.8647 -1.0019 -0.2243
  498MOL0     H67207   0.786   6.450   5.355  0.2711  0.6035 -1.1709
  498MOL0     H67208   0.732   6.739   5.422 -0.9816  0.5502 -1.8182
  498MOL0     H67209   0.701   6.647   5.274  1.7840  1.6793 -0.3538
  498MOL0     H67210   1.771   6.369   5.104  0.2457  0.9190 -0.7088
  498MOL0     H67211   1.968   6.237   5.076 -1.6050 -3.3363  0.8304
  498MOL0     H67212   2.336   5.996   5.278  1.1479 -0.1197 -2.7962
  498MOL0     H67213   2.535   5.880   5.354  1.6170 -0.8242  4.2851
  498MOL0     H67214   3.838   6.497   6.157 -0.2670 -0.4126 -0.5227
  498MOL0     H67215   4.078   6.452   6.109  2.4688 -1.6957 -0.0080
  498MOL0     H67216   4.340   6.271   5.787  1.4867 -2.1438 -0.8655
  498MOL0     H67217   4.519   6.266   5.687 -1.3393  0.9218  0.8513
  498MOL0     H67218   4.893   6.278   5.631  1.9182 -1.9547  1.9311
  498MOL0     H67219   4.723   6.295   5.600 -2.5261 -1.7882  0.5215
  498MOL0     H67220   4.760   6.078   5.537  0.7398 -2.2368 -0.3434
  498MOL0     H67221   4.687   6.064   5.694  0.6265 -3.3568 -0.8719
  498MOL0     H67222   4.902   6.013   5.812  1.6870 -1.0198  0.6596
  498MOL0     H67223   4.992   6.035   5.668 -0.2496  1.8539  0.8318
  498MOL0     H67224   4.780   5.838   5.741  1.4755 -0.5113  3.1886
  498MOL0     H67225   4.888   5.822   5.589 -1.8241 -0.7503  0.7254
  498MOL0     H67226   5.193   5.704   5.847 -0.5585 -2.0891 -1.6476
  498MOL0     H67227   4.744   6.245   6.059  0.2507 -1.6081  0.2600
  498MOL0     H67228   4.520   6.093   6.238 -0.4751 -1.5710  0.6548
  498MOL0     H67229   4.634   6.232   6.251  0.1813 -0.7632 -1.3328
  498MOL0     H67230   4.463   6.259   6.279 -0.0574  0.0933 -2.1212
  499MOL0     O67231   0.884   7.846   9.640  0.1307 -0.2090  0.1062
  499MOL0     C67232   0.834   7.760   9.564 -0.1135  0.1345 -1.0954
  499MOL0     O67233   0.843   7.758   9.427  0.5929  0.9323 -0.0826
  499MOL0     C67234   0.892   7.870   9.360  1.0735 -0.6880 -0.7310
  499MOL0     C67235   1.023   7.912   9.372 -0.2032 -0.2081 -0.2179
  499MOL0     C67236   1.068   8.016   9.291 -0.3012  1.0049  0.2029
  499MOL0     C67237   0.986   8.080   9.199  1.2366 -0.5867  1.0420
  499MOL0     O67238   1.026   8.176   9.108  0.3170 -0.2135 -0.3270
  499MOL0     C67239   1.142   8.246   9.143  0.2123  0.4061  0.5673
  499MOL0     C67240   1.147   8.369   9.055  1.1035  0.1102 -0.0627
  499MOL0     C67241   1.136   8.324   8.904  0.9465  0.4276  0.4803
  499MOL0     C67242   1.176   8.438   8.810 -0.4717 -0.2212  0.7011
  499MOL0     C67243   1.186   8.398   8.661  0.7087  1.0467 -0.1367
  499MOL0     C67244   1.301   8.296   8.630  0.2345 -1.0951  0.1885
  499MOL0     C67245   1.442   8.357   8.667 -0.4097  0.7521  0.6737
  499MOL0     C67246   1.569   8.269   8.631  0.8797  0.4366  0.3157
  499MOL0     N67247   1.554   8.132   8.667  0.2951 -0.1191 -0.2163
  499MOL0     C67248   1.503   8.088   8.789 -0.5437  0.1786  0.1161
  499MOL0     C67249   1.499   7.949   8.792  0.5202  0.1206  0.5650
  499MOL0     C67250   1.448   7.857   8.896 -0.3714  0.1525 -0.3570
  499MOL0     C67251   1.374   7.915   9.009  0.8426 -0.1191  0.0075
  499MOL0     C67252   1.325   7.802   9.094 -1.0272 -0.6783  0.8505
  499MOL0     C67253   1.431   7.738   9.193  0.4443  0.0890  1.1663
  499MOL0     O67254   1.381   7.634   9.270  0.4897  0.2579  0.0657
  499MOL0     C67255   1.476   7.571   9.352 -0.0378 -0.4119  0.3712
  499MOL0     C67256   1.445   7.459   9.429  0.2299 -0.8595 -0.0204
  499MOL0     C67257   1.538   7.402   9.524  0.5891  1.0703 -0.1384
  499MOL0     C67258   1.665   7.450   9.541  0.0860 -0.7904  0.7577
  499MOL0     C67259   1.764   7.384   9.624  1.0591  0.5171  0.0838
  499MOL0     O67260   1.733   7.260   9.677 -0.2431  0.2346  0.4284
  499MOL0     C67261   1.809   7.205   9.774  0.2227  0.2028 -1.0671
  499MOL0     C67262   1.920   7.126   9.748  0.4894 -0.2469  0.0592
  499MOL0     C67263   1.996   7.070   9.856  0.3663 -0.9230  0.6226
  499MOL0     C67264   1.957   7.096   9.988 -0.2277 -1.3032 -0.5377
  499MOL0     O67265   2.029   7.056  10.097  0.1483  0.7140  0.4260
  499MOL0     C67266   2.151   6.988  10.094  0.3895 -0.0448 -0.0186
  499MOL0     C67267   2.195   6.924  10.220 -0.1170 -0.3334 -0.2256
  499MOL0     C67268   2.098   6.814  10.252  0.8599  0.8113 -0.4490
  499MOL0     C67269   2.145   6.752  10.396  0.3260 -0.2741  0.5448
  499MOL0     C67270   2.097   6.828  10.513  0.6292 -0.1386 -0.6771
  499MOL0     C67271   1.944   6.835  10.535  0.4289 -0.0188  0.4563
  499MOL0     C67272   1.907   6.890  10.672  0.2386  0.4922  0.0253
  499MOL0     C67273   1.775   6.970  10.666 -0.5154  0.4865  0.0275
  499MOL0    Cl67274   1.626   6.878  10.668 -0.0941 -0.4862  0.2838
  499MOL0     C67275   1.845   7.165  10.012  0.5035  0.1691 -0.1259
  499MOL0     C67276   1.763   7.220   9.908  0.4151 -0.3977  0.5506
  499MOL0     O67277   1.871   7.438   9.641  0.3251  0.7207 -0.7177
  499MOL0     C67278   1.702   7.564   9.461  0.3925 -0.1169 -0.3846
  499MOL0     C67279   1.611   7.615   9.367  0.5083  0.7872 -0.2397
  499MOL0     N67280   1.558   7.906   8.666  0.6881  0.5939 -0.6322
  499MOL0     N67281   1.567   8.012   8.590  0.8037 -0.0883  0.3916
  499MOL0     C67282   0.854   8.041   9.196  0.0799 -0.3751 -0.4140
  499MOL0     C67283   0.808   7.934   9.279  0.7901  0.3438 -1.0484
  499MOL0     C67284   0.748   7.661   9.625  0.1713  0.9638 -0.8955
  499MOL0     C67285   0.698   7.550   9.545  0.7262 -0.0707 -0.1211
  499MOL0     C67286   0.626   7.444   9.600 -0.1285  0.0426 -0.0806
  499MOL0     C67287   0.587   7.448   9.735  0.1001  0.2921 -0.1901
  499MOL0     O67288   0.531   7.345   9.808 -0.3345 -1.2242  0.3017
  499MOL0     C67289   0.466   7.237   9.731  0.9378  0.3843  0.4112
  499MOL0     C67290   0.544   7.103   9.725  0.8689 -0.4470  0.2828
  499MOL0     C67291   0.679   7.120   9.654  0.4681 -0.4307 -0.9291
  499MOL0     C67292   0.768   6.999   9.673 -0.0482 -0.6710  0.5455
  499MOL0     C67293   0.699   6.872   9.635  0.1277 -0.1410  0.2296
  499MOL0     C67294   0.645   6.764   9.603 -0.3283 -0.1847  0.5588
  499MOL0     C67295   0.628   7.559   9.809  0.2752  0.1758  0.3453
  499MOL0     C67296   0.709   7.659   9.761  0.0075  0.0513 -0.1713
  499MOL0     C67297   0.765   7.748   9.867 -0.1227 -0.3218  0.7203
  499MOL0     H67298   1.083   7.853   9.441  0.0640  0.1035 -0.1803
  499MOL0     H67299   1.170   8.052   9.301 -0.8704  2.8232 -0.1718
  499MOL0     H67300   1.128   8.284   9.245  0.4301  1.0224  0.3699
  499MOL0     H67301   1.230   8.182   9.144 -1.6226 -2.3978  3.7613
  499MOL0     H67302   1.244   8.408   9.086  1.7754 -1.0306 -0.6253
  499MOL0     H67303   1.063   8.436   9.076  2.0181  1.3175 -0.1985
  499MOL0     H67304   1.035   8.298   8.871  1.0650  3.4323 -2.8629
  499MOL0     H67305   1.205   8.242   8.880  0.7643  0.6975 -1.1196
  499MOL0     H67306   1.097   8.514   8.821  0.6576  1.0719  0.1338
  499MOL0     H67307   1.271   8.487   8.833  0.2145 -1.6336  0.9846
  499MOL0     H67308   1.089   8.355   8.633 -0.9873  3.1373  2.1121
  499MOL0     H67309   1.203   8.491   8.606 -1.6231  1.2564 -0.6019
  499MOL0     H67310   1.298   8.206   8.692 -1.3595 -0.4902  1.0334
  499MOL0     H67311   1.293   8.264   8.526 -1.2457 -2.7841  0.7773
  499MOL0     H67312   1.451   8.382   8.773  0.9185 -0.9467  1.0105
  499MOL0     H67313   1.455   8.449   8.609  2.8037 -0.3456 -0.6165
  499MOL0     H67314   1.574   8.261   8.522 -1.1679 -2.7339  0.3132
  499MOL0     H67315   1.660   8.321   8.661  0.4533  2.7595 -2.0784
  499MOL0     H67316   1.455   8.148   8.866  1.2868  0.9036  0.7442
  499MOL0     H67317   1.392   7.778   8.846  0.2425  0.2370 -1.1945
  499MOL0     H67318   1.536   7.810   8.940 -1.3923 -0.3357  1.2679
  499MOL0     H67319   1.436   7.977   9.075 -0.2355 -0.7457  1.6700
  499MOL0     H67320   1.305   7.978   8.953  1.2221  2.6074  2.3585
  499MOL0     H67321   1.280   7.725   9.031  3.9672 -0.2716 -3.9593
  499MOL0     H67322   1.243   7.846   9.151 -2.0443 -1.1508 -0.2030
  499MOL0     H67323   1.465   7.821   9.256  2.2026  2.7485 -2.8951
  499MOL0     H67324   1.517   7.705   9.133 -1.4858 -0.1876 -1.6550
  499MOL0     H67325   1.345   7.417   9.417 -0.7935  1.2515  0.6032
  499MOL0     H67326   1.505   7.316   9.581  0.5973  0.1681 -1.4671
  499MOL0     H67327   1.957   7.105   9.648  1.1197 -0.3303  0.3060
  499MOL0     H67328   2.088   7.026   9.818 -1.1764 -2.2719 -1.8071
  499MOL0     H67329   2.147   6.916  10.012 -1.1343 -2.2352  1.8293
  499MOL0     H67330   2.223   7.067  10.072  0.9176 -0.3799  0.4697
  499MOL0     H67331   2.298   6.888  10.210 -0.2593 -0.7054 -0.3450
  499MOL0     H67332   2.193   6.996  10.303 -1.4239 -1.3962  0.6932
  499MOL0     H67333   1.994   6.842  10.271  0.5697 -1.8173  2.7044
  499MOL0     H67334   2.098   6.731  10.181 -2.7689 -0.6942  1.0908
  499MOL0     H67335   2.254   6.738  10.393  0.1879 -1.3873 -0.9552
  499MOL0     H67336   2.109   6.649  10.409  2.1359 -0.9982  0.2649
  499MOL0     H67337   2.138   6.929  10.519 -0.1153  0.2064 -1.1958
  499MOL0     H67338   2.147   6.776  10.596  4.2682 -0.7003 -3.0057
  499MOL0     H67339   1.896   6.896  10.458 -2.4180  1.1300  2.9309
  499MOL0     H67340   1.898   6.736  10.526 -0.9667  0.7500 -1.6062
  499MOL0     H67341   1.994   6.950  10.697 -0.9225  0.7828  4.0111
  499MOL0     H67342   1.896   6.814  10.750 -1.7748 -1.2351 -1.7798
  499MOL0     H67343   1.774   7.023  10.762 -0.6819  0.7151 -0.1018
  499MOL0     H67344   1.781   7.039  10.582  3.0850  0.3125  0.0056
  499MOL0     H67345   1.801   7.165  10.112  2.8993 -2.2673  1.0604
  499MOL0     H67346   1.672   7.271   9.936 -0.4221 -1.2940 -0.4530
  499MOL0     H67347   1.802   7.606   9.462  0.7437 -0.2100 -5.4349
  499MOL0     H67348   1.637   7.716   9.338  0.3118  1.3825  1.5785
  499MOL0     H67349   0.788   8.083   9.121 -0.1806 -0.6346 -0.3304
  499MOL0     H67350   0.704   7.904   9.282  0.8222  0.2897 -0.0413
  499MOL0     H67351   0.731   7.549   9.442 -1.0873  1.4909 -0.7748
  499MOL0     H67352   0.608   7.351   9.547  1.1220 -0.7071  0.7353
  499MOL0     H67353   0.445   7.267   9.628  1.3284 -0.7172 -0.0002
  499MOL0     H67354   0.368   7.227   9.779 -0.7825  1.8772 -2.5206
  499MOL0     H67355   0.481   7.029   9.675 -1.2407  2.5830 -1.9203
  499MOL0     H67356   0.560   7.056   9.822  0.4465 -0.8649  0.1530
  499MOL0     H67357   0.722   7.205   9.707 -1.7776 -0.0443  0.3968
  499MOL0     H67358   0.670   7.141   9.547  0.7692  1.8129 -0.5487
  499MOL0     H67359   0.859   7.020   9.615 -0.8769  2.8161  0.2918
  499MOL0     H67360   0.793   6.992   9.779 -3.8132 -0.7066  1.5702
  499MOL0     H67361   0.610   6.668   9.571  1.2424 -0.4364 -0.5374
  499MOL0     H67362   0.589   7.563   9.911 -0.0658  1.7103  0.1692
  499MOL0     H67363   0.763   7.853   9.838  2.3710 -0.7882 -1.5791
  499MOL0     H67364   0.712   7.736   9.962  1.5022 -0.7718  1.6228
  499MOL0     H67365   0.871   7.731   9.891  0.4332  2.3700  0.4947
  500MOL0     O67366   8.884   5.832   3.590 -0.8256 -0.7866 -0.5429
  500MOL0     C67367   8.961   5.753   3.537  0.8592  0.1519 -0.0653
  500MOL0     O67368   9.054   5.781   3.447  1.2814  0.0545 -0.4293
  500MOL0     C67369   9.078   5.910   3.406  0.2900  0.3219 -0.1536
  500MOL0     C67370   8.981   6.008   3.384 -0.2572 -0.3081  0.6933
  500MOL0     C67371   9.026   6.132   3.334 -0.3118  0.9672 -0.0035
  500MOL0     C67372   9.159   6.160   3.304  0.9332 -0.1838 -0.3382
  500MOL0     O67373   9.193   6.287   3.276  0.4376 -0.9400  0.2001
  500MOL0     C67374   9.327   6.330   3.234 -0.1902  0.4892  0.2055
  500MOL0     C67375   9.348   6.293   3.075 -0.2922 -0.4558 -0.4661
  500MOL0     C67376   9.493   6.309   3.039  0.0362 -0.1979  0.7128
  500MOL0     C67377   9.544   6.457   3.076 -0.2827 -0.1872  0.6153
  500MOL0     C67378   9.685   6.505   3.011  0.5976 -0.2578  0.5132
  500MOL0     C67379   9.790   6.487   3.123  0.0309  0.0301  0.3685
  500MOL0     C67380   9.929   6.550   3.073  0.2091  1.1709  0.1163
  500MOL0     C67381   9.986   6.483   2.942  0.1498  0.4175  0.3412
  500MOL0     N67382  10.001   6.346   2.975  0.4370  0.2645  0.3142
  500MOL0     C67383  10.081   6.308   3.080  0.2767  0.1807  0.8507
  500MOL0     C67384  10.065   6.171   3.090  0.9838 -0.5120 -1.1867
  500MOL0     C67385  10.130   6.070   3.185  0.3175  0.2007 -0.0985
  500MOL0     C67386  10.268   6.038   3.128  0.1333  0.0071 -0.1884
  500MOL0     C67387  10.333   5.934   3.210 -0.4889  0.6794 -0.1124
  500MOL0     C67388  10.478   5.903   3.170 -0.2089  0.6437  0.1609
  500MOL0     O67389  10.568   6.013   3.149 -0.5599 -0.4796  0.5618
  500MOL0     C67390  10.687   6.000   3.081 -0.8400 -0.6744  0.3911
  500MOL0     C67391  10.761   6.119   3.065 -0.6475  0.4733  0.1578
  500MOL0     C67392  10.886   6.124   3.005  0.4644  0.9470  0.3960
  500MOL0     C67393  10.948   6.003   2.962  0.6227  0.0432  0.0762
  500MOL0     C67394  11.082   6.014   2.875  0.3794  0.1389  0.6338
  500MOL0     O67395  11.131   5.904   2.829 -0.6386  0.5796 -0.4879
  500MOL0     C67396  11.220   5.904   2.734 -0.4025  0.2303 -0.2147
  500MOL0     C67397  11.207   5.828   2.619 -0.5848  0.5121 -0.2135
  500MOL0     C67398  11.310   5.826   2.523  0.3503 -0.3566 -1.0554
  500MOL0     C67399  11.440   5.869   2.550  0.0256 -0.7256 -0.2557
  500MOL0     O67400  11.546   5.866   2.464  0.5558  0.4206  0.1913
  500MOL0     C67401  11.542   5.761   2.363 -0.3152 -0.0623  1.2085
  500MOL0     C67402  11.682   5.756   2.294  0.9059 -0.2090  0.7939
  500MOL0     C67403  11.706   5.631   2.206 -0.1616 -1.1418  0.6808
  500MOL0     C67404  11.850   5.626   2.157 -0.9249 -0.2545 -0.9418
  500MOL0     C67405  11.872   5.518   2.058 -0.0342 -0.4212  1.1564
  500MOL0     C67406  11.817   5.566   1.928 -0.0237  0.2573 -0.7860
  500MOL0     C67407  11.843   5.464   1.821  1.4253 -0.2451  0.6743
  500MOL0     C67408  11.746   5.485   1.703  0.2392  0.3352  0.0220
  500MOL0    Cl67409  11.712   5.661   1.665 -0.3866  0.2376 -0.1430
  500MOL0     C67410  11.461   5.933   2.672  0.3259 -0.1190  0.2679
  500MOL0     C67411  11.351   5.963   2.756 -0.0431  0.6976  0.1201
  500MOL0     O67412  11.120   6.129   2.843  0.6650 -0.1626  0.0428
  500MOL0     C67413  10.871   5.883   2.979  0.1467 -0.5850 -0.1073
  500MOL0     C67414  10.748   5.883   3.037 -0.1024  0.1095 -0.3382
  500MOL0     N67415   9.968   6.129   2.998 -0.5137 -1.1493  0.6495
  500MOL0     N67416   9.938   6.235   2.922 -0.0705  0.0351 -0.1450
  500MOL0     C67417   9.255   6.061   3.317 -0.4698  1.2325 -0.0781
  500MOL0     C67418   9.210   5.937   3.372  0.0104  0.1065 -0.9147
  500MOL0     C67419   8.963   5.610   3.586  0.6129  0.6204  0.2545
  500MOL0     C67420   9.065   5.526   3.539  0.8932  1.0313 -0.3693
  500MOL0     C67421   9.046   5.391   3.570 -0.3565 -0.5548  0.4211
  500MOL0     C67422   8.948   5.323   3.646 -0.3029 -0.0583  0.6784
  500MOL0     O67423   8.957   5.187   3.678 -0.1508  0.5136 -0.2449
  500MOL0     C67424   8.856   5.133   3.772  0.0832  0.3482  0.8232
  500MOL0     C67425   8.916   5.002   3.840  0.7526 -0.4573 -0.0026
  500MOL0     C67426   9.024   5.024   3.939 -0.9879 -0.5064 -0.0980
  500MOL0     C67427   9.000   5.127   4.043 -0.1921 -0.3605 -0.2809
  500MOL0     C67428   9.114   5.125   4.135 -0.0758  0.0162  0.1866
  500MOL0     C67429   9.208   5.136   4.204 -0.0334  1.1324  0.2983
  500MOL0     C67430   8.853   5.418   3.690  0.4879  0.0129  0.3717
  500MOL0     C67431   8.864   5.555   3.665  0.7315  0.1017 -0.0655
  500MOL0     C67432   8.777   5.642   3.755  0.3186 -1.4904  0.4474
  500MOL0     H67433   8.873   6.005   3.399 -1.0372  2.5687 -2.9685
  500MOL0     H67434   8.958   6.213   3.308 -0.7712 -0.0903 -2.4071
  500MOL0     H67435   9.325   6.439   3.233 -2.0332  0.4891  0.0809
  500MOL0     H67436   9.412   6.296   3.293  0.1095 -1.2279 -1.1210
  500MOL0     H67437   9.289   6.362   3.013 -0.2730  0.4435  0.4784
  500MOL0     H67438   9.316   6.194   3.043  1.4463 -1.0763 -0.3623
  500MOL0     H67439   9.501   6.299   2.930 -1.4395 -0.3630  0.5955
  500MOL0     H67440   9.557   6.244   3.099 -0.1617  0.1174  1.2797
  500MOL0     H67441   9.477   6.519   3.016  0.3570 -0.1842 -0.1024
  500MOL0     H67442   9.545   6.477   3.184  1.8347 -2.3314  1.0805
  500MOL0     H67443   9.701   6.453   2.916  0.7095  2.1932 -0.8982
  500MOL0     H67444   9.676   6.611   2.985  0.9937 -0.0603  1.1877
  500MOL0     H67445   9.763   6.544   3.212  0.1767  0.5627  0.0755
  500MOL0     H67446   9.793   6.379   3.140 -0.6517  0.2408  1.9803
  500MOL0     H67447  10.004   6.550   3.153 -0.0856  1.1704  0.3906
  500MOL0     H67448   9.919   6.657   3.051  1.7845  1.6492  1.4806
  500MOL0     H67449   9.920   6.507   2.858  0.8006 -1.7513 -0.8694
  500MOL0     H67450  10.082   6.534   2.929 -1.1508  2.8329 -0.4703
  500MOL0     H67451  10.150   6.361   3.144  1.4483 -0.4510  0.1584
  500MOL0     H67452  10.132   6.100   3.291  0.7826 -3.3329  1.0435
  500MOL0     H67453  10.077   5.975   3.186 -0.6125  0.7062  0.5754
  500MOL0     H67454  10.258   6.025   3.020 -2.7643  2.5969 -0.4067
  500MOL0     H67455  10.321   6.133   3.145 -1.3921  0.5203  2.2338
  500MOL0     H67456  10.273   5.843   3.200 -0.0462  0.0794  2.2580
  500MOL0     H67457  10.343   5.959   3.316  1.2121 -1.9021  0.4266
  500MOL0     H67458  10.481   5.850   3.075  0.5602 -0.4268  0.7645
  500MOL0     H67459  10.514   5.839   3.251  0.9067  1.4670  0.3375
  500MOL0     H67460  10.721   6.207   3.115  0.6316  0.6369  0.9048
  500MOL0     H67461  10.939   6.219   3.003  1.8416  0.2239 -2.0205
  500MOL0     H67462  11.120   5.768   2.597 -0.1520  1.1233 -4.4407
  500MOL0     H67463  11.288   5.773   2.431 -0.0603 -0.8439 -0.6778
  500MOL0     H67464  11.517   5.664   2.405 -0.5072 -0.1307  0.9359
  500MOL0     H67465  11.469   5.787   2.286  0.2154  0.4159  0.8503
  500MOL0     H67466  11.708   5.846   2.237  1.6962  0.6077  2.3975
  500MOL0     H67467  11.755   5.751   2.376 -1.0796  1.0821  2.7416
  500MOL0     H67468  11.690   5.539   2.263  2.0123 -1.4328  0.8925
  500MOL0     H67469  11.631   5.623   2.126 -0.9181 -0.2225  1.2686
  500MOL0     H67470  11.921   5.607   2.238 -1.4805  2.2201  0.2123
  500MOL0     H67471  11.878   5.719   2.106  1.0346 -0.1208  0.2811
  500MOL0     H67472  11.817   5.429   2.090  1.9755 -2.3191 -0.4118
  500MOL0     H67473  11.980   5.507   2.046 -0.2544 -0.4786 -1.1284
  500MOL0     H67474  11.710   5.584   1.940 -0.3410 -1.9008  0.1470
  500MOL0     H67475  11.871   5.654   1.892  1.0672  0.1343  0.4897
  500MOL0     H67476  11.818   5.363   1.856  1.3856 -0.2853  0.5305
  500MOL0     H67477  11.947   5.460   1.789  1.1509 -2.4833 -0.0735
  500MOL0     H67478  11.798   5.436   1.620  2.2197  0.7967  0.9162
  500MOL0     H67479  11.656   5.430   1.730 -0.0280  0.4343 -0.6424
  500MOL0     H67480  11.564   5.966   2.671  0.4883 -0.4304 -2.4195
  500MOL0     H67481  11.367   6.010   2.853 -1.4733  1.3905  0.0333
  500MOL0     H67482  10.911   5.795   2.930  1.1090 -0.4352  0.3790
  500MOL0     H67483  10.696   5.790   3.057 -0.7837  0.4163 -0.6475
  500MOL0     H67484   9.361   6.078   3.300 -0.6582 -0.5044 -3.9021
  500MOL0     H67485   9.278   5.853   3.382 -0.1324  0.0330 -0.5205
  500MOL0     H67486   9.155   5.563   3.492  1.7256 -0.8893 -0.3860
  500MOL0     H67487   9.133   5.330   3.548  2.2474  1.7238  3.4698
  500MOL0     H67488   8.764   5.120   3.714  1.4704  3.3543 -2.4431
  500MOL0     H67489   8.827   5.199   3.854 -0.0945 -0.9438  1.8180
  500MOL0     H67490   8.950   4.931   3.764  1.3838  1.0962 -1.2367
  500MOL0     H67491   8.828   4.959   3.888  1.7260 -2.3294  0.1789
  500MOL0     H67492   9.113   5.062   3.887  0.0425 -0.9270  1.2960
  500MOL0     H67493   9.062   4.935   3.990 -1.0760 -0.3716  0.2059
  500MOL0     H67494   8.990   5.222   3.990 -3.3809  0.3870  1.4170
  500MOL0     H67495   8.910   5.111   4.103  0.9232  1.2795  2.0120
  500MOL0     H67496   9.303   5.146   4.252  1.3701  0.5325 -2.1591
  500MOL0     H67497   8.781   5.381   3.763  3.0598  0.3951  3.2784
  500MOL0     H67498   8.850   5.707   3.805 -1.4047 -0.6735  2.0450
  500MOL0     H67499   8.707   5.698   3.692  2.7755 -1.0504 -2.1031
  500MOL0     H67500   8.727   5.581   3.831  0.8992 -1.0544  1.1962
  501MOL0     O67501   0.075   0.424   7.826  0.2441 -0.1931 -0.1379
  501MOL0     C67502   0.062   0.547   7.815 -0.0852 -0.0422 -0.3267
  501MOL0     O67503  -0.016   0.630   7.894 -0.3546  0.3939 -0.8890
  501MOL0     C67504  -0.123   0.590   7.969 -0.1078  0.1151 -0.2396
  501MOL0     C67505  -0.187   0.461   7.970  0.2766 -0.6986 -0.0825
  501MOL0     C67506  -0.306   0.438   8.053 -0.6334  0.2586 -0.1186
  501MOL0     C67507  -0.350   0.531   8.145 -0.4931 -1.4645  0.4298
  501MOL0     O67508  -0.454   0.494   8.227 -0.7971 -0.3295  0.3917
  501MOL0     C67509  -0.530   0.595   8.298 -0.4680 -0.1652 -0.7371
  501MOL0     C67510  -0.666   0.609   8.229 -0.5379 -0.2372  0.2758
  501MOL0     C67511  -0.760   0.705   8.291  0.3653 -0.6239  0.4216
  501MOL0     C67512  -0.889   0.736   8.212 -1.1118  1.1372 -0.6966
  501MOL0     C67513  -1.001   0.806   8.280  0.3219  0.7475  0.1590
  501MOL0     C67514  -1.116   0.799   8.173 -0.8702  0.4059 -0.1072
  501MOL0     C67515  -1.244   0.873   8.218  0.1528  0.3626 -0.0300
  501MOL0     C67516  -1.348   0.878   8.103 -0.4933  0.0792  0.0041
  501MOL0     N67517  -1.428   0.763   8.087 -0.2573 -0.6284 -0.1972
  501MOL0     C67518  -1.403   0.643   8.020 -0.8030 -0.2089 -0.7669
  501MOL0     C67519  -1.505   0.558   8.047  0.0150 -0.0546  0.1034
  501MOL0     C67520  -1.531   0.420   7.991 -0.2328 -0.0048  0.2765
  501MOL0     C67521  -1.446   0.308   8.055 -0.3599  0.1611  0.2514
  501MOL0     C67522  -1.451   0.177   7.983  0.0993  0.6108 -0.0844
  501MOL0     C67523  -1.370   0.078   8.073  0.5003  0.0608  0.4317
  501MOL0     O67524  -1.227   0.097   8.046  0.7499  0.8804 -0.2953
  501MOL0     C67525  -1.175   0.055   7.920 -0.3676 -0.5717  0.3804
  501MOL0     C67526  -1.246  -0.002   7.812  0.6616 -0.4004  0.0937
  501MOL0     C67527  -1.181  -0.052   7.697  0.1151 -0.1574 -0.1533
  501MOL0     C67528  -1.040  -0.028   7.682 -0.2911  0.0664  0.0178
  501MOL0     C67529  -0.977  -0.067   7.555  0.1243  1.1036  0.7347
  501MOL0     O67530  -1.058  -0.118   7.458  0.0424 -0.2230  0.2890
  501MOL0     C67531  -1.004  -0.150   7.337  1.0753 -0.1620 -0.5265
  501MOL0     C67532  -0.977  -0.282   7.313  0.7136  0.1706  0.3872
  501MOL0     C67533  -0.921  -0.311   7.188 -0.3755  0.2048 -0.1382
  501MOL0     C67534  -0.894  -0.211   7.096 -0.2375  0.4379 -0.9662
  501MOL0     O67535  -0.820  -0.254   6.995 -0.8042  0.1230  0.3939
  501MOL0     C67536  -0.698  -0.178   6.991 -0.2920  0.4841  0.0337
  501MOL0     C67537  -0.607  -0.243   6.891 -0.1838  0.3741 -0.3870
  501MOL0     C67538  -0.569  -0.390   6.927  0.8252  0.3422  0.4445
  501MOL0     C67539  -0.421  -0.426   6.917  1.0260  0.2327 -0.0714
  501MOL0     C67540  -0.389  -0.573   6.931  0.7371  0.3417 -0.0711
  501MOL0     C67541  -0.239  -0.588   6.906 -0.7597 -0.1599 -0.5326
  501MOL0     C67542  -0.161  -0.506   7.016  0.3954 -0.2634 -0.0477
  501MOL0     C67543  -0.011  -0.544   7.013  0.3398  0.0295  0.2574
  501MOL0    Cl67544   0.071  -0.473   6.865  0.1413  0.4847 -0.0726
  501MOL0     C67545  -0.932  -0.080   7.123 -0.0219  0.1067  0.0730
  501MOL0     C67546  -0.983  -0.047   7.240 -0.3966  0.8006  0.2743
  501MOL0     O67547  -0.854  -0.047   7.545 -0.3723  0.0485  0.3969
  501MOL0     C67548  -0.974   0.039   7.781  0.3086  0.4200  0.3040
  501MOL0     C67549  -1.039   0.067   7.907  0.0071 -0.2369  0.6979
  501MOL0     N67550  -1.597   0.623   8.132 -0.5836  0.4573  0.2241
  501MOL0     N67551  -1.546   0.743   8.153  0.1841  0.6775  0.6109
  501MOL0     C67552  -0.284   0.655   8.141 -0.7502 -0.3990  0.4677
  501MOL0     C67553  -0.174   0.680   8.057 -0.7905 -0.5389 -0.4502
  501MOL0     C67554   0.136   0.612   7.700  0.6065 -0.2828 -0.2664
  501MOL0     C67555   0.089   0.741   7.665 -0.7291  0.4748  0.1358
  501MOL0     C67556   0.132   0.801   7.541 -0.4914  0.9301 -0.2670
  501MOL0     C67557   0.243   0.739   7.474 -0.1675  0.4666  0.1852
  501MOL0     O67558   0.297   0.805   7.362 -0.2590 -0.1416 -0.3896
  501MOL0     C67559   0.250   0.758   7.242  0.0032  0.0251 -0.1150
  501MOL0     C67560   0.354   0.676   7.166  0.5819 -0.6370 -0.8215
  501MOL0     C67561   0.465   0.768   7.130 -0.6667  0.7808  0.3665
  501MOL0     C67562   0.576   0.699   7.039 -0.1716 -0.6270 -0.9434
  501MOL0     C67563   0.644   0.801   6.968 -1.0001 -0.2981 -0.7910
  501MOL0     C67564   0.675   0.906   6.905  0.0255  0.3825 -0.5669
  501MOL0     C67565   0.294   0.617   7.523  0.5315  0.1718 -0.4544
  501MOL0     C67566   0.251   0.558   7.642  0.7686 -0.1996  0.6791
  501MOL0     C67567   0.334   0.452   7.705 -0.6630 -0.5685 -0.5628
  501MOL0     H67568  -0.155   0.388   7.896  2.9637 -1.3967  1.5999
  501MOL0     H67569  -0.354   0.341   8.050  2.9205 -1.6616 -1.6942
  501MOL0     H67570  -0.545   0.574   8.405 -1.0885 -0.1543 -0.8166
  501MOL0     H67571  -0.486   0.695   8.299 -1.6905  0.4252  1.4647
  501MOL0     H67572  -0.711   0.509   8.229  0.8015 -0.8828  1.8432
  501MOL0     H67573  -0.658   0.650   8.128 -1.2828  0.0975  0.3482
  501MOL0     H67574  -0.708   0.797   8.318  2.3819 -0.5670 -3.0994
  501MOL0     H67575  -0.795   0.652   8.381  1.8765 -1.6362  0.4419
  501MOL0     H67576  -0.856   0.787   8.122  0.3604  0.4400 -0.5833
  501MOL0     H67577  -0.927   0.637   8.184  0.5954  1.3662 -4.4003
  501MOL0     H67578  -1.037   0.753   8.368  1.4327  0.2332  0.3116
  501MOL0     H67579  -0.970   0.905   8.314  2.5990 -0.1920  1.0001
  501MOL0     H67580  -1.082   0.836   8.075  1.7537  2.4838  1.4573
  501MOL0     H67581  -1.140   0.692   8.163  1.0102  0.1274 -2.9483
  501MOL0     H67582  -1.215   0.970   8.259 -0.7315  0.1249  1.2393
  501MOL0     H67583  -1.299   0.822   8.298 -0.0565  1.2417  0.4003
  501MOL0     H67584  -1.412   0.964   8.122 -1.0484 -0.4101  0.3908
  501MOL0     H67585  -1.300   0.880   8.005  0.3946 -0.5403  0.4110
  501MOL0     H67586  -1.325   0.630   7.945 -2.4258  2.4265 -3.1479
  501MOL0     H67587  -1.638   0.398   8.000 -0.3811  0.5208 -0.1453
  501MOL0     H67588  -1.505   0.429   7.885  2.1105  0.9948  0.8801
  501MOL0     H67589  -1.344   0.340   8.076 -0.3348 -0.9126  1.9567
  501MOL0     H67590  -1.488   0.286   8.153 -1.4952  2.2916  0.2977
  501MOL0     H67591  -1.402   0.183   7.886  1.7562  1.0101  0.7272
  501MOL0     H67592  -1.554   0.144   7.972  0.4570  0.2444 -3.2090
  501MOL0     H67593  -1.398  -0.028   8.069  1.6762 -0.5225  4.1280
  501MOL0     H67594  -1.387   0.106   8.177  2.1472  1.0675  0.4721
  501MOL0     H67595  -1.351  -0.025   7.831  0.6199  0.8428  1.6499
  501MOL0     H67596  -1.245  -0.099   7.624 -0.4841  0.2375  0.1047
  501MOL0     H67597  -0.995  -0.356   7.390  3.4494  0.4313  1.3844
  501MOL0     H67598  -0.872  -0.406   7.169 -1.4789 -1.2387  3.3194
  501MOL0     H67599  -0.715  -0.075   6.959 -0.1541  0.2499 -0.8108
  501MOL0     H67600  -0.651  -0.178   7.090 -0.0015 -1.8828 -0.0466
  501MOL0     H67601  -0.652  -0.231   6.793  0.4174  0.3433 -0.6716
  501MOL0     H67602  -0.518  -0.180   6.892 -0.1232  0.3482  2.0778
  501MOL0     H67603  -0.610  -0.420   7.024 -0.3495 -0.2412 -0.2105
  501MOL0     H67604  -0.617  -0.453   6.852  0.4325  0.3692  0.6744
  501MOL0     H67605  -0.383  -0.367   7.000 -1.9349  2.8347 -0.4091
  501MOL0     H67606  -0.370  -0.390   6.827 -1.1297  4.7070  0.2573
  501MOL0     H67607  -0.439  -0.627   6.850  1.0995 -0.5320  0.2668
  501MOL0     H67608  -0.424  -0.626   7.021  0.3928  0.6030 -0.0518
  501MOL0     H67609  -0.212  -0.694   6.903  1.2159  0.2460  0.9232
  501MOL0     H67610  -0.219  -0.552   6.805 -0.1274 -3.3250 -1.6394
  501MOL0     H67611  -0.205  -0.543   7.109 -1.5379  0.5214 -0.6047
  501MOL0     H67612  -0.166  -0.397   7.010 -0.5194 -0.2887  0.1466
  501MOL0     H67613   0.045  -0.501   7.096  1.1176 -0.0444 -0.2168
  501MOL0     H67614   0.004  -0.652   7.013 -0.7962 -0.1614  1.9917
  501MOL0     H67615  -0.912  -0.004   7.049 -2.2769  0.6082 -0.0842
  501MOL0     H67616  -1.010   0.055   7.265 -1.4601  0.1811  1.7901
  501MOL0     H67617  -0.871   0.075   7.777  1.2340 -1.8317  2.1590
  501MOL0     H67618  -0.989   0.119   7.988 -2.6868  0.4154  2.0691
  501MOL0     H67619  -0.323   0.735   8.204  1.0913 -0.3647  1.6486
  501MOL0     H67620  -0.119   0.773   8.053 -3.2651  1.0538  0.2887
  501MOL0     H67621   0.012   0.785   7.729 -1.7812  0.3140 -0.9844
  501MOL0     H67622   0.093   0.897   7.510  0.5562  1.5281  0.2164
  501MOL0     H67623   0.214   0.845   7.186 -0.4491  0.5004  0.8916
  501MOL0     H67624   0.170   0.684   7.254 -0.0400 -0.5204 -3.0083
  501MOL0     H67625   0.312   0.638   7.073  2.2394 -2.9550 -0.7313
  501MOL0     H67626   0.389   0.595   7.230  3.0020  2.4647  2.1871
  501MOL0     H67627   0.512   0.812   7.218  2.2119 -2.8841  0.9318
  501MOL0     H67628   0.419   0.849   7.073  1.5394  0.9521 -1.3239
  501MOL0     H67629   0.649   0.642   7.097 -0.5470  0.8911  1.1541
  501MOL0     H67630   0.530   0.616   6.985  0.1663 -1.3609 -0.1230
  501MOL0     H67631   0.693   0.994   6.847 -2.4313  2.3550  1.3852
  501MOL0     H67632   0.379   0.572   7.474 -0.4512 -3.1393  0.6292
  501MOL0     H67633   0.288   0.352   7.702  0.7753 -1.3156  0.7829
  501MOL0     H67634   0.432   0.447   7.657  0.0628  0.4615  0.7350
  501MOL0     H67635   0.334   0.478   7.812 -0.9777 -0.0743 -0.6807
  502MOL0     O67636   7.089   8.300   9.451  0.5023 -0.3363 -0.5752
  502MOL0     C67637   7.088   8.366   9.349  0.5184  0.4107  0.4133
  502MOL0     O67638   7.200   8.423   9.285  0.2069  0.7779 -0.9351
  502MOL0     C67639   7.321   8.367   9.327 -0.2113  0.4445 -0.7608
  502MOL0     C67640   7.431   8.450   9.366  0.3973 -0.3371  0.8998
  502MOL0     C67641   7.556   8.395   9.396  0.7983 -0.3395  0.2334
  502MOL0     C67642   7.579   8.259   9.403  0.8034 -0.0247  0.0261
  502MOL0     O67643   7.696   8.196   9.447 -0.3231 -0.9634  0.2443
  502MOL0     C67644   7.790   8.277   9.512 -0.2046  0.1914 -0.6830
  502MOL0     C67645   7.886   8.194   9.591  0.1734  0.4243 -0.6493
  502MOL0     C67646   7.993   8.116   9.502 -0.0843 -0.5690  0.3530
  502MOL0     C67647   8.129   8.079   9.581 -0.7563  0.6047  0.3979
  502MOL0     C67648   8.225   8.014   9.490 -0.5135  0.2530 -0.0266
  502MOL0     C67649   8.368   8.007   9.542 -0.4917 -0.2224 -0.8729
  502MOL0     C67650   8.464   8.126   9.524 -0.7517  0.9450  0.2758
  502MOL0     C67651   8.609   8.096   9.552 -0.7384 -1.2173 -1.0983
  502MOL0     N67652   8.668   8.229   9.540 -0.6681  0.0868  0.4164
  502MOL0     C67653   8.678   8.287   9.418 -0.3373 -0.9403 -0.4618
  502MOL0     C67654   8.741   8.406   9.437 -0.3879 -0.5731  0.3084
  502MOL0     C67655   8.784   8.504   9.334 -0.9519  0.5620  1.3786
  502MOL0     C67656   8.916   8.472   9.265  0.9095  0.3256 -0.0712
  502MOL0     C67657   8.962   8.584   9.171 -0.0783  0.7756  0.4134
  502MOL0     C67658   9.096   8.538   9.120 -0.5714 -0.7780  0.3363
  502MOL0     O67659   9.156   8.649   9.050  0.1367  0.0241 -1.1471
  502MOL0     C67660   9.256   8.631   8.972  1.0115  0.2778  0.8996
  502MOL0     C67661   9.331   8.516   8.954  0.3430  0.1119  0.1744
  502MOL0     C67662   9.442   8.522   8.871 -0.2624  0.0793  0.0912
  502MOL0     C67663   9.482   8.649   8.815  0.3646 -0.1621 -0.3825
  502MOL0     C67664   9.594   8.666   8.718 -0.1357 -0.4313  0.2767
  502MOL0     O67665   9.693   8.602   8.773 -0.1524 -0.1072 -0.4461
  502MOL0     C67666   9.795   8.585   8.689 -0.5886  0.1901  0.6822
  502MOL0     C67667   9.774   8.514   8.569  0.4453  0.5219  0.1257
  502MOL0     C67668   9.884   8.487   8.487 -0.2034 -0.2534  0.1018
  502MOL0     C67669  10.016   8.521   8.516  0.7759 -0.5322  0.1763
  502MOL0     O67670  10.130   8.493   8.435 -0.4027 -0.6067  0.2756
  502MOL0     C67671  10.101   8.482   8.290  0.7341  0.3412  0.2473
  502MOL0     C67672  10.222   8.467   8.203 -0.2190  0.5435  1.1393
  502MOL0     C67673  10.188   8.473   8.051 -0.8477  0.4190 -0.3159
  502MOL0     C67674  10.195   8.626   8.005  0.5258  0.8027 -0.6748
  502MOL0     C67675  10.163   8.626   7.852 -0.5564 -0.1947  0.1726
  502MOL0     C67676  10.280   8.574   7.751  0.0026  0.2873  0.1561
  502MOL0     C67677  10.263   8.621   7.607  1.0019 -0.2380 -0.1433
  502MOL0     C67678  10.145   8.559   7.532  0.1610 -0.7414  0.3955
  502MOL0    Cl67679  10.162   8.372   7.525  0.3309 -0.4976  0.0173
  502MOL0     C67680  10.035   8.586   8.638  0.1192  0.5897 -0.1234
  502MOL0     C67681   9.923   8.625   8.719 -0.2821  1.0146 -0.3456
  502MOL0     O67682   9.600   8.742   8.624  0.5207 -0.9460  0.4142
  502MOL0     C67683   9.408   8.767   8.835 -0.3644 -0.0341 -0.2242
  502MOL0     C67684   9.291   8.758   8.904  0.7867  0.4324 -0.2142
  502MOL0     N67685   8.743   8.429   9.571 -0.6531  0.3306 -0.2837
  502MOL0     N67686   8.705   8.319   9.635  1.1115  0.1624 -0.3171
  502MOL0     C67687   7.473   8.174   9.369 -0.1389  0.2931  0.0500
  502MOL0     C67688   7.344   8.229   9.332 -0.2427 -0.6814  0.1038
  502MOL0     C67689   6.961   8.378   9.271 -0.0437 -0.7758 -0.9237
  502MOL0     C67690   6.969   8.383   9.134 -1.0406 -0.0994 -0.1951
  502MOL0     C67691   6.859   8.384   9.052  0.3871 -1.1664  0.2047
  502MOL0     C67692   6.729   8.388   9.102 -0.1885  1.1207  0.0898
  502MOL0     O67693   6.619   8.384   9.016  0.0397 -0.0479 -0.6877
  502MOL0     C67694   6.482   8.382   9.069  0.1427  0.2881 -0.4413
  502MOL0     C67695   6.420   8.517   9.051  0.1847 -0.4014  0.0963
  502MOL0     C67696   6.313   8.550   9.163 -0.6511  0.0219  0.3068
  502MOL0     C67697   6.302   8.698   9.202 -0.8398  0.3419  0.0927
  502MOL0     C67698   6.430   8.731   9.269  0.1563  1.2462  0.7043
  502MOL0     C67699   6.525   8.777   9.330  0.0351 -0.8034 -0.4620
  502MOL0     C67700   6.723   8.388   9.247 -0.3570  0.9870  0.7903
  502MOL0     C67701   6.834   8.387   9.334 -0.6515 -0.2463 -0.0234
  502MOL0     C67702   6.819   8.379   9.485  0.7245  0.1867 -0.5071
  502MOL0     H67703   7.420   8.558   9.371  0.5105 -0.1270 -1.7656
  502MOL0     H67704   7.628   8.475   9.414  1.4848 -0.4154 -1.8720
  502MOL0     H67705   7.851   8.319   9.432  0.3536 -0.2869 -0.5196
  502MOL0     H67706   7.755   8.358   9.576 -0.4946 -1.0421  0.7517
  502MOL0     H67707   7.831   8.124   9.654 -1.0592 -0.4708 -2.6355
  502MOL0     H67708   7.946   8.256   9.658 -0.6110 -1.5171  1.9981
  502MOL0     H67709   8.035   8.168   9.416  0.2026  1.8171  1.8220
  502MOL0     H67710   7.937   8.028   9.469 -0.9284  1.0826 -3.0318
  502MOL0     H67711   8.176   8.165   9.629 -2.0928  1.8739 -0.4751
  502MOL0     H67712   8.106   7.999   9.652 -0.4348 -0.0625 -0.2279
  502MOL0     H67713   8.188   7.914   9.466 -1.0806  0.5256 -0.2988
  502MOL0     H67714   8.229   8.068   9.396  0.4724 -2.5733 -1.7509
  502MOL0     H67715   8.365   7.984   9.649 -0.2133 -0.5335 -0.9281
  502MOL0     H67716   8.409   7.920   9.490  0.0218 -1.7124  1.8422
  502MOL0     H67717   8.423   8.203   9.591 -1.8583 -0.3438  1.1140
  502MOL0     H67718   8.450   8.165   9.423  0.7057  1.2497  0.1598
  502MOL0     H67719   8.617   8.065   9.656  2.3599  1.2965 -0.4360
  502MOL0     H67720   8.655   8.015   9.494 -1.3192 -1.5342 -1.1197
  502MOL0     H67721   8.641   8.240   9.328  0.0874 -1.2222 -0.4926
  502MOL0     H67722   8.703   8.517   9.261 -0.8693  0.0616  1.1911
  502MOL0     H67723   8.794   8.599   9.386 -0.7436 -0.0362  2.4467
  502MOL0     H67724   8.991   8.460   9.344  1.3870  1.6562 -0.2944
  502MOL0     H67725   8.906   8.373   9.220  1.6261 -0.2731  1.0442
  502MOL0     H67726   8.969   8.674   9.232 -2.3193  1.2719  0.0335
  502MOL0     H67727   8.881   8.597   9.098 -2.0351  1.2473  2.5496
  502MOL0     H67728   9.075   8.445   9.066  1.3846 -1.5176  0.7568
  502MOL0     H67729   9.163   8.505   9.200 -1.5934  0.5686  1.8163
  502MOL0     H67730   9.309   8.418   8.995  2.7032 -0.4177  0.2914
  502MOL0     H67731   9.508   8.441   8.844 -1.2612 -0.0712 -2.1915
  502MOL0     H67732   9.676   8.477   8.539  0.9210  1.5155 -3.0285
  502MOL0     H67733   9.843   8.442   8.397 -5.9854  2.5210  0.8948
  502MOL0     H67734  10.027   8.404   8.270 -1.4046  1.3296  3.5688
  502MOL0     H67735  10.043   8.567   8.251 -1.1499 -1.1501 -0.3655
  502MOL0     H67736  10.294   8.543   8.233  2.0917 -1.7516  1.8378
  502MOL0     H67737  10.260   8.364   8.211  0.3148  0.5470 -0.8415
  502MOL0     H67738  10.252   8.410   7.989 -1.1015  0.4307 -0.5887
  502MOL0     H67739  10.086   8.433   8.054  0.6492 -3.7901  1.0086
  502MOL0     H67740  10.292   8.672   8.026  1.0750  0.5291 -2.4343
  502MOL0     H67741  10.120   8.687   8.055 -0.6652 -1.7556  0.8751
  502MOL0     H67742  10.153   8.734   7.838  2.1326  0.3551  1.6842
  502MOL0     H67743  10.065   8.579   7.845 -1.4770  1.3253  1.8977
  502MOL0     H67744  10.379   8.609   7.784  0.7402 -0.2003 -1.4321
  502MOL0     H67745  10.285   8.466   7.738  2.1766  0.2480  0.9102
  502MOL0     H67746  10.351   8.594   7.547  1.8123 -0.0216  0.9173
  502MOL0     H67747  10.248   8.730   7.612 -2.1592 -0.6043  0.2203
  502MOL0     H67748  10.051   8.590   7.580  0.2123 -0.6078  0.4111
  502MOL0     H67749  10.132   8.610   7.436 -0.2089  0.5734  1.1191
  502MOL0     H67750  10.138   8.599   8.670 -0.2337  1.5716  0.6827
  502MOL0     H67751   9.941   8.668   8.817  0.3011  0.3862 -0.1695
  502MOL0     H67752   9.434   8.857   8.780 -0.0714 -0.0780 -0.1601
  502MOL0     H67753   9.234   8.849   8.921  1.2722  0.3404  2.2261
  502MOL0     H67754   7.486   8.066   9.360  2.4152  0.6917 -2.5272
  502MOL0     H67755   7.269   8.156   9.303  1.0822 -1.3878 -1.6670
  502MOL0     H67756   7.068   8.371   9.091  0.3344  0.1316  2.6640
  502MOL0     H67757   6.865   8.383   8.944  1.5791 -1.4099  0.2601
  502MOL0     H67758   6.477   8.354   9.174  1.7151 -0.9528 -0.6595
  502MOL0     H67759   6.420   8.306   9.022 -0.5695 -0.5067  1.6828
  502MOL0     H67760   6.381   8.507   8.950  3.3475 -1.0696 -1.1651
  502MOL0     H67761   6.501   8.590   9.052 -1.3645  1.4010  0.9604
  502MOL0     H67762   6.337   8.502   9.259 -1.4280 -0.6502  0.1671
  502MOL0     H67763   6.213   8.522   9.130 -1.3713  2.6394  0.0314
  502MOL0     H67764   6.270   8.768   9.124 -1.8778  0.8311  0.9278
  502MOL0     H67765   6.228   8.708   9.282  0.0447  0.6022  0.9079
  502MOL0     H67766   6.616   8.811   9.376 -0.9757  0.8275  0.4368
  502MOL0     H67767   6.627   8.406   9.295 -1.5784 -0.6550 -0.9135
  502MOL0     H67768   6.821   8.279   9.530 -0.2668 -0.1704 -1.2086
  502MOL0     H67769   6.890   8.444   9.537 -0.1407 -0.5300  1.7052
  502MOL0     H67770   6.718   8.418   9.505  1.0469  1.2778 -0.9783
  503MOL0     O67771   3.832   3.833   2.343 -0.0339 -0.1857 -0.4531
  503MOL0     C67772   3.736   3.796   2.402  0.1845  0.3394  0.6449
  503MOL0     O67773   3.690   3.850   2.518 -0.5418  0.8355 -0.1710
  503MOL0     C67774   3.767   3.933   2.594  0.2724 -0.8694  1.1198
  503MOL0     C67775   3.707   4.044   2.655  0.0682 -0.8441 -0.6903
  503MOL0     C67776   3.774   4.121   2.740 -0.7198 -0.3107 -0.1020
  503MOL0     C67777   3.909   4.107   2.769  0.1590 -0.5248  0.1600
  503MOL0     O67778   3.978   4.202   2.842  0.6600 -0.1368  0.4831
  503MOL0     C67779   4.119   4.200   2.840  0.7087 -0.5020 -0.1654
  503MOL0     C67780   4.162   4.345   2.882 -0.1040  0.1502  0.1094
  503MOL0     C67781   4.319   4.357   2.856  0.4115 -0.3441 -0.6784
  503MOL0     C67782   4.369   4.500   2.895  0.2704  0.3772 -0.5506
  503MOL0     C67783   4.528   4.502   2.873  0.1273 -0.3140 -0.6673
  503MOL0     C67784   4.592   4.633   2.890 -0.2554 -0.3883  0.2290
  503MOL0     C67785   4.748   4.640   2.860 -0.0469 -0.6069  0.4665
  503MOL0     C67786   4.831   4.567   2.955  0.1160  0.3801  0.9127
  503MOL0     N67787   4.971   4.604   2.989  0.1030 -0.6003 -0.6653
  503MOL0     C67788   5.013   4.698   3.074 -0.5938 -0.3524 -0.2672
  503MOL0     C67789   5.145   4.691   3.064 -0.7657 -0.5706 -0.2277
  503MOL0     C67790   5.240   4.806   3.104  0.1207  0.2643 -0.3340
  503MOL0     C67791   5.232   4.804   3.252  0.0787 -0.5786 -0.2087
  503MOL0     C67792   5.318   4.932   3.301 -0.3859  0.3450  0.0511
  503MOL0     C67793   5.474   4.921   3.277 -0.3537 -0.3690  0.3758
  503MOL0     O67794   5.519   4.786   3.307 -0.3967  0.1127 -0.7642
  503MOL0     C67795   5.657   4.765   3.323  0.4497 -0.4016  0.5431
  503MOL0     C67796   5.748   4.864   3.338 -0.7696 -0.0090 -0.1654
  503MOL0     C67797   5.887   4.840   3.344 -0.5194 -1.1829 -0.2033
  503MOL0     C67798   5.932   4.709   3.345 -0.1092 -0.1612 -0.4544
  503MOL0     C67799   6.075   4.689   3.345  0.0508  1.1421 -0.3181
  503MOL0     O67800   6.150   4.796   3.384  0.2679 -0.9963 -0.0486
  503MOL0     C67801   6.281   4.785   3.419 -0.0531 -0.0554  0.2567
  503MOL0     C67802   6.331   4.724   3.536 -0.1531 -0.3270 -0.7824
  503MOL0     C67803   6.470   4.747   3.573 -0.2643 -0.0973  0.2664
  503MOL0     C67804   6.552   4.824   3.495 -0.0734  1.0023 -0.1858
  503MOL0     O67805   6.689   4.850   3.529  0.5688  0.1429  0.2625
  503MOL0     C67806   6.762   4.727   3.561 -0.0675  0.1343 -0.0267
  503MOL0     C67807   6.908   4.767   3.591  0.0831  1.2973  0.3032
  503MOL0     C67808   6.916   4.834   3.735 -0.2693 -0.3574  0.2025
  503MOL0     C67809   7.056   4.887   3.756 -0.1915 -0.2195 -0.6202
  503MOL0     C67810   7.061   4.995   3.874  0.7021  0.4334  0.5073
  503MOL0     C67811   7.208   5.009   3.927  0.4117  0.1915  0.9008
  503MOL0     C67812   7.210   5.103   4.049  0.5548 -0.2299 -0.2542
  503MOL0     C67813   7.348   5.091   4.109  0.5524 -0.1898 -0.1870
  503MOL0    Cl67814   7.358   4.922   4.194 -0.5157 -0.2348 -0.0089
  503MOL0     C67815   6.498   4.884   3.382 -0.3309 -0.6338  0.5564
  503MOL0     C67816   6.368   4.866   3.344  0.8406  0.5292 -0.8235
  503MOL0     O67817   6.119   4.573   3.328 -0.5531 -0.1128  0.8260
  503MOL0     C67818   5.845   4.607   3.344  0.8891 -0.1507  0.3469
  503MOL0     C67819   5.702   4.633   3.333 -0.5331 -0.1595 -0.2218
  503MOL0     N67820   5.175   4.605   2.959  0.3163  0.0125  0.1772
  503MOL0     N67821   5.067   4.551   2.918 -1.0150 -0.3858 -0.0336
  503MOL0     C67822   3.973   3.998   2.705  1.1844  0.0401 -0.0345
  503MOL0     C67823   3.905   3.915   2.615  0.1553  1.2363  0.8822
  503MOL0     C67824   3.650   3.695   2.344  0.3057 -0.2793  0.3039
  503MOL0     C67825   3.545   3.644   2.425  0.0753  0.3367  0.4069
  503MOL0     C67826   3.459   3.548   2.370 -0.4060  0.0313 -0.3033
  503MOL0     C67827   3.469   3.508   2.235 -0.0097 -0.8878  0.5949
  503MOL0     O67828   3.379   3.416   2.193 -0.2940  0.2133 -0.0971
  503MOL0     C67829   3.417   3.332   2.085 -0.5317  0.5476 -0.0824
  503MOL0     C67830   3.345   3.200   2.047 -0.1935 -0.5190  0.0017
  503MOL0     C67831   3.202   3.237   2.011 -0.7784  0.8272 -0.0681
  503MOL0     C67832   3.107   3.266   2.138  0.0225  0.4194 -0.0483
  503MOL0     C67833   2.997   3.168   2.145 -0.1025  0.2198 -0.2975
  503MOL0     C67834   2.904   3.096   2.137 -0.1630 -0.9684 -0.6078
  503MOL0     C67835   3.578   3.560   2.158 -0.1808  0.0694  0.4080
  503MOL0     C67836   3.673   3.643   2.216  0.2743 -0.3595 -0.5011
  503MOL0     C67837   3.783   3.691   2.124  0.8776 -0.4424 -1.2056
  503MOL0     H67838   3.601   4.061   2.636  0.2753  2.8370  0.6213
  503MOL0     H67839   3.718   4.191   2.801 -1.0894  1.2971 -2.1917
  503MOL0     H67840   4.165   4.131   2.911  1.9160  0.4410 -0.0036
  503MOL0     H67841   4.159   4.174   2.742 -0.1186 -0.4447 -0.5266
  503MOL0     H67842   4.135   4.358   2.987  2.5000  0.7837  0.7687
  503MOL0     H67843   4.101   4.415   2.824 -1.2568 -1.1683 -0.3503
  503MOL0     H67844   4.335   4.346   2.748  1.0732  0.1112 -0.6320
  503MOL0     H67845   4.381   4.282   2.905  3.2000  2.7720  0.9842
  503MOL0     H67846   4.315   4.561   2.822  1.8555 -0.3079 -2.4060
  503MOL0     H67847   4.343   4.522   2.999  1.1851  1.0439 -0.4467
  503MOL0     H67848   4.576   4.447   2.954 -0.8298  1.5113  1.2580
  503MOL0     H67849   4.557   4.464   2.775 -0.4617 -2.4880 -0.0605
  503MOL0     H67850   4.552   4.707   2.819 -2.5790 -1.0236  0.8004
  503MOL0     H67851   4.574   4.669   2.992  0.6156 -0.0641  0.2781
  503MOL0     H67852   4.774   4.747   2.857  0.2799 -0.7105 -1.5343
  503MOL0     H67853   4.771   4.599   2.762 -1.0706 -0.0219 -0.0335
  503MOL0     H67854   4.781   4.571   3.052 -1.3023  1.0793  0.1974
  503MOL0     H67855   4.825   4.462   2.926  1.9413 -0.2375  2.6246
  503MOL0     H67856   4.952   4.764   3.135  0.2080 -1.4798  1.8831
  503MOL0     H67857   5.341   4.796   3.064  0.0436 -0.1017 -0.4436
  503MOL0     H67858   5.199   4.900   3.067 -1.8213 -1.5913 -3.3033
  503MOL0     H67859   5.131   4.825   3.289  0.5345  0.0443  0.7179
  503MOL0     H67860   5.272   4.712   3.295  0.8283 -0.3232 -0.3363
  503MOL0     H67861   5.294   4.954   3.406 -0.7984  0.6917 -0.1153
  503MOL0     H67862   5.282   5.020   3.247  1.5260  1.5166  0.6020
  503MOL0     H67863   5.529   5.000   3.330  3.6573 -1.1399 -2.1798
  503MOL0     H67864   5.481   4.931   3.168 -1.2165 -2.6387  0.0657
  503MOL0     H67865   5.718   4.967   3.321 -0.8975  0.2247  1.3914
  503MOL0     H67866   5.953   4.926   3.339 -2.3799  0.4983  2.0336
  503MOL0     H67867   6.268   4.657   3.593  2.2821 -1.5294  0.7118
  503MOL0     H67868   6.501   4.683   3.654 -1.3541  0.8721  1.4868
  503MOL0     H67869   6.716   4.669   3.641 -1.9851  0.2605 -0.9790
  503MOL0     H67870   6.747   4.657   3.478  0.9617  3.4274 -3.2688
  503MOL0     H67871   6.980   4.684   3.591  0.0712  1.2603 -1.1972
  503MOL0     H67872   6.944   4.830   3.510  0.9955 -1.0167 -1.2119
  503MOL0     H67873   6.847   4.919   3.729 -0.1246 -0.2461  0.0958
  503MOL0     H67874   6.877   4.765   3.810 -1.5878 -0.4680 -0.5514
  503MOL0     H67875   7.095   4.929   3.663 -0.0061  1.1515  0.0454
  503MOL0     H67876   7.129   4.811   3.786 -1.1268 -0.2901  1.7689
  503MOL0     H67877   6.990   4.958   3.948  0.5579 -1.9287 -0.7321
  503MOL0     H67878   7.017   5.087   3.833 -0.3179 -0.7915 -1.3249
  503MOL0     H67879   7.242   4.909   3.955  1.8664 -0.1520 -1.7279
  503MOL0     H67880   7.282   5.033   3.849 -0.3998 -1.7641 -0.5473
  503MOL0     H67881   7.139   5.078   4.128  1.4912  2.0968  1.4554
  503MOL0     H67882   7.198   5.204   4.007  0.8445  0.3736  1.0687
  503MOL0     H67883   7.423   5.087   4.030  1.3125  1.2685  0.4047
  503MOL0     H67884   7.360   5.172   4.183 -1.6916 -0.4617  0.5674
  503MOL0     H67885   6.565   4.942   3.319  1.3414 -1.3185  1.6447
  503MOL0     H67886   6.328   4.916   3.256 -0.2956 -0.3591 -0.8341
  503MOL0     H67887   5.885   4.506   3.336 -0.3771 -0.6062 -0.7513
  503MOL0     H67888   5.628   4.554   3.330 -1.7234  0.6584  3.0404
  503MOL0     H67889   4.077   3.978   2.728  1.0218 -0.3870  0.3461
  503MOL0     H67890   3.955   3.831   2.567 -2.3823  0.1701 -0.0163
  503MOL0     H67891   3.518   3.688   2.521 -1.2867 -2.7272  1.5364
  503MOL0     H67892   3.366   3.522   2.421 -0.5563  2.0079  0.5173
  503MOL0     H67893   3.520   3.301   2.099 -0.2420  0.7170 -1.6791
  503MOL0     H67894   3.404   3.402   2.002  1.3827  0.5514 -0.4182
  503MOL0     H67895   3.353   3.129   2.130  1.5032 -1.6022 -1.0325
  503MOL0     H67896   3.394   3.151   1.962  1.0491 -0.7490  0.8324
  503MOL0     H67897   3.153   3.153   1.962 -1.6016  2.2523 -1.7964
  503MOL0     H67898   3.196   3.316   1.936 -2.6332 -1.1866 -2.1874
  503MOL0     H67899   3.158   3.264   2.234 -1.7743 -0.1754  0.9369
  503MOL0     H67900   3.065   3.367   2.123 -2.5784 -0.8781 -2.5221
  503MOL0     H67901   2.809   3.046   2.144  0.6203 -2.3009  1.3539
  503MOL0     H67902   3.593   3.536   2.053  1.4277 -1.0274  0.8439
  503MOL0     H67903   3.878   3.664   2.171  1.1852  1.9920 -0.2845
  503MOL0     H67904   3.779   3.643   2.025 -0.5564 -1.1725 -0.8125
  503MOL0     H67905   3.777   3.798   2.106 -0.6635 -0.0044  1.4248
  504MOL0     O67906   5.262   5.569  10.712  0.5837 -0.9823 -0.1149
  504MOL0     C67907   5.192   5.552  10.616 -0.7948  0.3344  0.0825
  504MOL0     O67908   5.223   5.566  10.488  0.1403  0.1792  0.4274
  504MOL0     C67909   5.349   5.618  10.454  0.2507  0.3306  0.4932
  504MOL0     C67910   5.461   5.538  10.428  0.1509 -0.5385  0.0327
  504MOL0     C67911   5.585   5.587  10.378  0.3755  0.7189  0.5368
  504MOL0     C67912   5.600   5.725  10.367  0.2383 -0.6760  0.1439
  504MOL0     O67913   5.721   5.773  10.325  0.2107  0.1551 -0.3327
  504MOL0     C67914   5.756   5.911  10.326 -0.2525  0.5743  0.5549
  504MOL0     C67915   5.853   5.946  10.208 -1.2908  0.1014  0.0669
  504MOL0     C67916   5.788   5.983  10.069  0.5006 -0.0986 -0.3112
  504MOL0     C67917   5.892   6.007   9.961 -0.4507  0.2457  0.2337
  504MOL0     C67918   5.985   5.885   9.935 -0.1267 -0.2038  0.0841
  504MOL0     C67919   6.020   5.876   9.788  0.4603 -0.2657  0.0026
  504MOL0     C67920   6.101   5.986   9.732  0.3028  0.3808  0.5438
  504MOL0     C67921   6.117   5.963   9.584  0.1303  0.2150 -0.2501
  504MOL0     N67922   6.224   6.048   9.530 -0.8124  0.3344 -0.0469
  504MOL0     C67923   6.326   6.003   9.446 -0.2090 -0.9668  0.3571
  504MOL0     C67924   6.413   6.102   9.432 -0.3255  0.5564  0.8407
  504MOL0     C67925   6.527   6.106   9.334  0.0088  0.0651 -0.4189
  504MOL0     C67926   6.660   6.100   9.415  0.5998 -0.3933 -0.4759
  504MOL0     C67927   6.779   6.054   9.327 -1.2461  0.0768 -0.7942
  504MOL0     C67928   6.799   6.157   9.223 -0.1893 -0.6638  1.0456
  504MOL0     O67929   6.895   6.109   9.124 -0.4810 -0.2432 -0.6561
  504MOL0     C67930   7.021   6.117   9.162  0.0904  0.3990 -0.9641
  504MOL0     C67931   7.086   5.996   9.199 -0.2709 -0.5428 -0.0743
  504MOL0     C67932   7.219   5.992   9.251 -0.2124 -0.4566 -0.7837
  504MOL0     C67933   7.291   6.111   9.263 -0.2262  0.2203 -0.4021
  504MOL0     C67934   7.426   6.103   9.314 -0.5851  1.0019 -0.6510
  504MOL0     O67935   7.496   6.215   9.310 -0.2101 -0.1288 -0.2255
  504MOL0     C67936   7.620   6.241   9.358  0.5230 -0.7237 -0.1295
  504MOL0     C67937   7.712   6.146   9.397 -0.2137  0.1596  0.3663
  504MOL0     C67938   7.842   6.186   9.453  0.7330 -0.0748 -0.8614
  504MOL0     C67939   7.879   6.322   9.471  0.1344 -0.3086  0.2191
  504MOL0     O67940   8.002   6.368   9.516  0.1344  0.2891 -0.6247
  504MOL0     C67941   8.117   6.279   9.525  0.3230 -0.2143 -0.5798
  504MOL0     C67942   8.233   6.360   9.580  0.0369 -0.1699 -0.5157
  504MOL0     C67943   8.364   6.288   9.597 -1.0490  0.7050 -0.5101
  504MOL0     C67944   8.453   6.372   9.688  1.1964  0.5988  0.5157
  504MOL0     C67945   8.578   6.306   9.738 -0.1711  0.9537 -0.2873
  504MOL0     C67946   8.672   6.414   9.791  0.0980  0.0748  0.0961
  504MOL0     C67947   8.789   6.426   9.695 -0.3152  0.6126 -0.1939
  504MOL0     C67948   8.873   6.542   9.735 -0.3721 -0.5297  0.2259
  504MOL0    Cl67949   8.959   6.510   9.875 -0.3132  0.0633 -0.5619
  504MOL0     C67950   7.776   6.410   9.442 -0.1617  1.1625  0.3022
  504MOL0     C67951   7.654   6.373   9.389 -0.4895  0.4951 -0.2195
  504MOL0     O67952   7.457   6.002   9.378 -0.3437  0.4118  0.8276
  504MOL0     C67953   7.223   6.232   9.242 -0.2908 -0.2885 -0.3112
  504MOL0     C67954   7.091   6.232   9.199  0.4711 -0.6906 -0.5503
  504MOL0     N67955   6.366   6.212   9.503  0.0225 -0.4374 -0.1642
  504MOL0     N67956   6.254   6.179   9.556  0.1475  0.1247 -0.2372
  504MOL0     C67957   5.484   5.804  10.398  0.1015  0.1410  0.3554
  504MOL0     C67958   5.365   5.749  10.431  1.0300 -1.2453  0.6981
  504MOL0     C67959   5.068   5.492  10.656 -0.3111  0.6318  0.8155
  504MOL0     C67960   5.013   5.384  10.576 -0.0894 -0.7108 -0.1849
  504MOL0     C67961   4.892   5.332  10.615  0.3020 -0.4044  0.2256
  504MOL0     C67962   4.826   5.366  10.725  0.3795 -0.3749  0.1527
  504MOL0     O67963   4.708   5.293  10.742 -0.3505 -0.1446  0.3290
  504MOL0     C67964   4.632   5.319  10.860 -1.2134 -0.3084 -1.0642
  504MOL0     C67965   4.502   5.233  10.871  0.4417  0.2787 -0.0677
  504MOL0     C67966   4.406   5.287  10.985 -0.5205 -0.1902  0.1021
  504MOL0     C67967   4.275   5.213  10.985 -1.0577  0.6971 -0.6968
  504MOL0     C67968   4.267   5.079  11.034 -0.8876  0.2288 -1.1974
  504MOL0     C67969   4.269   4.968  11.076 -0.2474  0.4829  0.4419
  504MOL0     C67970   4.869   5.473  10.799  0.6529  0.5219  0.9298
  504MOL0     C67971   4.987   5.542  10.762 -0.1705  0.6046  0.9381
  504MOL0     C67972   5.014   5.668  10.847  0.9975  0.1378 -0.2085
  504MOL0     H67973   5.464   5.431  10.447  0.4769 -0.7720 -1.2743
  504MOL0     H67974   5.674   5.526  10.365 -0.2811 -0.0382 -0.6119
  504MOL0     H67975   5.669   5.977  10.320  0.2237  1.2440  0.9805
  504MOL0     H67976   5.808   5.913  10.422  1.1387  3.4186 -0.1604
  504MOL0     H67977   5.919   5.859  10.197 -2.0553 -0.3219 -1.6080
  504MOL0     H67978   5.907   6.039  10.226 -2.4339  0.9858 -0.8518
  504MOL0     H67979   5.714   6.063  10.082 -1.1351 -0.6164 -4.6531
  504MOL0     H67980   5.731   5.897  10.032  0.0495 -1.6194  3.4811
  504MOL0     H67981   5.826   6.028   9.876 -2.3891  1.5072  1.9460
  504MOL0     H67982   5.951   6.098   9.975 -0.9889  0.6582 -0.1078
  504MOL0     H67983   6.078   5.896   9.992 -0.0022 -0.0230 -0.1492
  504MOL0     H67984   5.951   5.791   9.979  1.4868  0.1105  2.1708
  504MOL0     H67985   6.068   5.779   9.772 -2.4728 -1.4207 -2.7958
  504MOL0     H67986   5.927   5.866   9.731  0.6219 -0.4266 -0.2367
  504MOL0     H67987   6.194   6.003   9.788 -0.3712  2.0259  1.2439
  504MOL0     H67988   6.051   6.083   9.738 -1.2970 -0.3504 -0.3397
  504MOL0     H67989   6.148   5.859   9.570  1.4636  0.5947 -0.2517
  504MOL0     H67990   6.015   5.982   9.551  0.0034 -2.9714 -2.1223
  504MOL0     H67991   6.333   5.906   9.397  3.1580  0.6493 -2.8055
  504MOL0     H67992   6.513   6.021   9.267  0.2350 -0.2920 -0.0167
  504MOL0     H67993   6.508   6.201   9.283  1.1718  1.1444  1.0798
  504MOL0     H67994   6.676   6.197   9.461  1.3999  0.3565 -2.2348
  504MOL0     H67995   6.642   6.034   9.501  0.2950  0.4313  0.0959
  504MOL0     H67996   6.771   5.956   9.279 -1.0877  0.4871 -1.6736
  504MOL0     H67997   6.870   6.057   9.388 -0.1292  2.9252 -2.4028
  504MOL0     H67998   6.832   6.251   9.268  2.3266 -1.4102  0.8733
  504MOL0     H67999   6.706   6.172   9.168  0.4348  2.4489  0.6574
  504MOL0     H68000   7.025   5.912   9.169 -3.3552  1.4803  0.0787
  504MOL0     H68001   7.268   5.897   9.264 -0.0345 -0.4842 -1.5966
  504MOL0     H68002   7.683   6.042   9.398  0.8915 -0.1655  0.4574
  504MOL0     H68003   7.917   6.111   9.477 -1.0930 -1.0654  2.4799
  504MOL0     H68004   8.105   6.202   9.602  4.7244  1.9260  2.7341
  504MOL0     H68005   8.141   6.242   9.425 -1.8069 -0.5462 -1.0153
  504MOL0     H68006   8.246   6.444   9.511  0.6975  0.6303  0.5576
  504MOL0     H68007   8.199   6.407   9.672  1.4540  1.1905 -0.6560
  504MOL0     H68008   8.355   6.188   9.642 -1.2930  0.8438 -0.2450
  504MOL0     H68009   8.409   6.281   9.498  0.3179 -0.0725  0.1318
  504MOL0     H68010   8.398   6.392   9.780 -2.1688 -0.3902 -1.1282
  504MOL0     H68011   8.475   6.467   9.637  0.5649  0.8888  0.7773
  504MOL0     H68012   8.624   6.239   9.665 -0.5857  0.0718  0.2482
  504MOL0     H68013   8.539   6.245   9.819 -2.1873  3.5543  0.8570
  504MOL0     H68014   8.618   6.508   9.801  1.0883  0.6239  0.5121
  504MOL0     H68015   8.710   6.383   9.889 -2.2228 -2.6706  0.2481
  504MOL0     H68016   8.753   6.452   9.595  1.6966 -0.2806 -1.1931
  504MOL0     H68017   8.853   6.338   9.691 -0.6816  0.3475 -0.1823
  504MOL0     H68018   8.937   6.556   9.647 -0.3716  1.9060  0.5497
  504MOL0     H68019   8.822   6.639   9.745 -1.5043 -0.9719 -0.9106
  504MOL0     H68020   7.793   6.513   9.470  0.4285  1.3509 -0.7108
  504MOL0     H68021   7.580   6.451   9.372  0.3994  1.9621  2.1560
  504MOL0     H68022   7.280   6.324   9.254  0.2627 -0.7714  0.9460
  504MOL0     H68023   7.062   6.333   9.173  2.6151  0.7326  2.0348
  504MOL0     H68024   5.487   5.911  10.384 -1.0467  0.1432  0.0509
  504MOL0     H68025   5.283   5.818  10.451 -0.4590 -3.3647  2.2906
  504MOL0     H68026   5.067   5.348  10.488 -0.0331 -0.5156 -0.2322
  504MOL0     H68027   4.850   5.260  10.546  3.4140 -2.2147  0.0576
  504MOL0     H68028   4.595   5.421  10.859  0.8015  0.4737 -1.3206
  504MOL0     H68029   4.702   5.296  10.942  1.5025 -3.1120 -3.9036
  504MOL0     H68030   4.534   5.132  10.899  0.2884  0.1371 -0.4022
  504MOL0     H68031   4.462   5.214  10.771  2.5243  0.5021 -1.0152
  504MOL0     H68032   4.388   5.394  10.978  1.7537  0.1196 -2.5942
  504MOL0     H68033   4.456   5.273  11.082 -1.6492 -0.2826  0.6846
  504MOL0     H68034   4.207   5.270  11.049  0.2006  2.3544 -0.7648
  504MOL0     H68035   4.234   5.211  10.883  1.2430 -1.2270 -1.6742
  504MOL0     H68036   4.259   4.871  11.122 -1.6322  1.1494  1.6080
  504MOL0     H68037   4.815   5.507  10.886  1.9348 -0.4908  2.1752
  504MOL0     H68038   5.042   5.760  10.794  1.9997  0.8195  1.4508
  504MOL0     H68039   4.930   5.698  10.909  0.9282  0.0230 -0.2476
  504MOL0     H68040   5.091   5.651  10.923 -0.9708  1.5384  2.2500
  505MOL0     O68041   3.512   8.557   2.371  0.2585  0.1748  0.2761
  505MOL0     C68042   3.420   8.487   2.416 -0.8989 -0.5599  0.3488
  505MOL0     O68043   3.433   8.403   2.526 -0.3590 -0.0956 -0.5516
  505MOL0     C68044   3.538   8.406   2.613  0.3711  0.1337 -0.1509
  505MOL0     C68045   3.594   8.520   2.672  0.7925  0.5004 -0.3567
  505MOL0     C68046   3.699   8.503   2.753 -0.6850 -0.3173 -0.7502
  505MOL0     C68047   3.752   8.373   2.784 -0.2270 -0.6538 -0.2395
  505MOL0     O68048   3.864   8.360   2.858  0.2013  0.4811 -0.3098
  505MOL0     C68049   3.932   8.474   2.904  0.1925 -0.1350 -0.1564
  505MOL0     C68050   4.078   8.426   2.950  0.3006  0.8682  0.4183
  505MOL0     C68051   4.155   8.542   3.014  0.4587  0.0877 -0.3275
  505MOL0     C68052   4.293   8.514   3.085 -0.9336 -0.8132 -0.4382
  505MOL0     C68053   4.358   8.657   3.095  0.2071 -0.2514  0.4551
  505MOL0     C68054   4.499   8.666   3.164  0.8728 -0.3617  0.2238
  505MOL0     C68055   4.550   8.811   3.155  0.6409  0.7643 -0.1520
  505MOL0     C68056   4.625   8.860   3.031 -0.9088  0.0218  0.3031
  505MOL0     N68057   4.568   8.816   2.907  0.8123 -0.0349  0.0280
  505MOL0     C68058   4.621   8.714   2.838  1.0025  0.2019  0.4288
  505MOL0     C68059   4.556   8.719   2.721 -0.1795  0.3054  0.8001
  505MOL0     C68060   4.582   8.613   2.616 -0.0388 -0.6009  0.3664
  505MOL0     C68061   4.456   8.596   2.528 -0.1927 -0.5116 -0.8308
  505MOL0     C68062   4.334   8.535   2.599 -1.3705  0.2131 -0.2373
  505MOL0     C68063   4.221   8.526   2.507  0.0716 -0.0134 -1.3168
  505MOL0     O68064   4.113   8.462   2.564  0.7064  0.1523 -0.2454
  505MOL0     C68065   4.036   8.402   2.468 -0.3843 -0.5618  0.1750
  505MOL0     C68066   4.088   8.297   2.397  0.3121 -0.4165 -0.2978
  505MOL0     C68067   4.002   8.236   2.301  0.3040 -0.5784  0.3265
  505MOL0     C68068   3.871   8.284   2.268 -0.3628 -0.2312  0.2047
  505MOL0     C68069   3.790   8.232   2.158 -0.4077 -0.3870 -0.2928
  505MOL0     O68070   3.672   8.296   2.141 -0.4537 -0.0462  0.9026
  505MOL0     C68071   3.579   8.256   2.042  0.1456 -0.2093  0.1456
  505MOL0     C68072   3.480   8.348   2.012 -0.7310 -0.6761 -0.8177
  505MOL0     C68073   3.376   8.309   1.937  0.7809 -0.2420 -0.3494
  505MOL0     C68074   3.354   8.181   1.885 -0.2470  0.4739  0.0222
  505MOL0     O68075   3.243   8.157   1.806  0.1396  0.1017 -0.1334
  505MOL0     C68076   3.277   8.129   1.671 -0.5674  0.9787 -0.9243
  505MOL0     C68077   3.166   8.137   1.567 -0.4083  0.1782 -0.3966
  505MOL0     C68078   3.038   8.090   1.614  0.0943  0.0460 -0.2938
  505MOL0     C68079   2.924   8.095   1.513  0.0551  0.7786 -0.0876
  505MOL0     C68080   2.891   8.238   1.453 -0.0065 -0.0320 -1.0692
  505MOL0     C68081   2.764   8.239   1.373 -0.9851  0.5937 -0.7187
  505MOL0     C68082   2.742   8.377   1.316 -0.9124 -0.4176 -0.2286
  505MOL0     C68083   2.597   8.388   1.258  1.0016  0.1586 -0.3383
  505MOL0    Cl68084   2.577   8.284   1.104  0.2651 -0.3335 -0.2298
  505MOL0     C68085   3.453   8.089   1.924 -0.1712  0.2759  0.3863
  505MOL0     C68086   3.565   8.125   2.001 -0.3468  0.3514 -0.9450
  505MOL0     O68087   3.849   8.150   2.093  0.4330 -0.8202  0.4625
  505MOL0     C68088   3.820   8.381   2.353  0.8652  0.4287 -0.0225
  505MOL0     C68089   3.902   8.432   2.456 -0.1274  0.2646  0.9041
  505MOL0     N68090   4.474   8.829   2.719 -0.9888  0.7097 -0.5943
  505MOL0     N68091   4.479   8.884   2.831  0.3113  0.3969 -0.5661
  505MOL0     C68092   3.694   8.257   2.735  0.5819 -0.3679 -0.5467
  505MOL0     C68093   3.583   8.278   2.649  0.1508  0.1717  0.1371
  505MOL0     C68094   3.303   8.488   2.335  1.4136 -0.6996 -0.4010
  505MOL0     C68095   3.256   8.370   2.280 -0.1423  0.4194 -0.1677
  505MOL0     C68096   3.138   8.372   2.216  1.4043  0.7864  0.6434
  505MOL0     C68097   3.060   8.488   2.203 -0.6821 -0.8994  0.1502
  505MOL0     O68098   2.929   8.494   2.161  0.2005  0.2464  0.3567
  505MOL0     C68099   2.835   8.402   2.219  0.4554  0.4835  0.4239
  505MOL0     C68100   2.700   8.425   2.166  0.1398 -0.4569 -0.7428
  505MOL0     C68101   2.641   8.567   2.197 -0.4456  0.0812  0.4928
  505MOL0     C68102   2.553   8.584   2.317 -0.0826  0.1561  0.3957
  505MOL0     C68103   2.436   8.493   2.315 -0.5059 -0.6870  0.3998
  505MOL0     C68104   2.336   8.425   2.302 -0.9906  0.0092  1.0744
  505MOL0     C68105   3.109   8.608   2.256 -0.4897  0.4719  0.5328
  505MOL0     C68106   3.235   8.613   2.312 -0.1194  0.2519 -0.3211
  505MOL0     C68107   3.286   8.752   2.339  0.5431 -0.1094  0.2550
  505MOL0     H68108   3.550   8.618   2.658 -0.6557 -0.1968 -0.8431
  505MOL0     H68109   3.744   8.596   2.786  2.2564 -1.7217 -0.4522
  505MOL0     H68110   3.955   8.543   2.823  1.9003 -0.5859 -0.0943
  505MOL0     H68111   3.876   8.521   2.986 -2.0927  1.2048 -2.3445
  505MOL0     H68112   4.128   8.405   2.855 -0.2250  2.6133 -0.3005
  505MOL0     H68113   4.076   8.338   3.014  1.6027 -0.7200 -1.5997
  505MOL0     H68114   4.100   8.587   3.097  0.6599  1.9934 -1.2004
  505MOL0     H68115   4.159   8.613   2.931  0.1951  0.2328 -0.2177
  505MOL0     H68116   4.280   8.466   3.183 -0.3076  0.5363  0.3319
  505MOL0     H68117   4.367   8.455   3.032  2.5260 -0.3509  3.3748
  505MOL0     H68118   4.356   8.702   2.996  0.6830 -0.2021  0.4634
  505MOL0     H68119   4.294   8.716   3.160 -0.2694 -1.4221  1.0818
  505MOL0     H68120   4.497   8.631   3.267  1.6617 -0.9382  0.0583
  505MOL0     H68121   4.572   8.608   3.106  1.8538  0.9325  0.1276
  505MOL0     H68122   4.627   8.823   3.231  2.0514 -1.2421 -1.1848
  505MOL0     H68123   4.461   8.870   3.182 -1.2368  0.3064 -4.5179
  505MOL0     H68124   4.619   8.969   3.035 -1.6626  0.0206 -0.4344
  505MOL0     H68125   4.730   8.831   3.029 -0.8298  0.1764  1.7058
  505MOL0     H68126   4.698   8.650   2.880 -1.1775 -2.2353  0.9928
  505MOL0     H68127   4.665   8.648   2.554 -0.8282 -1.2725 -1.1441
  505MOL0     H68128   4.609   8.515   2.658 -2.8465 -1.9451 -0.6964
  505MOL0     H68129   4.429   8.688   2.475 -0.8171  0.9065  1.7987
  505MOL0     H68130   4.487   8.529   2.448 -0.8237 -1.1797 -0.5288
  505MOL0     H68131   4.316   8.596   2.689 -1.5975 -0.0616 -0.0946
  505MOL0     H68132   4.357   8.433   2.630  0.4323  0.5230 -0.4627
  505MOL0     H68133   4.263   8.487   2.414 -0.1258 -1.0118 -0.9994
  505MOL0     H68134   4.183   8.626   2.480 -0.6875 -0.1316 -0.7281
  505MOL0     H68135   4.190   8.269   2.421  0.2577  1.8270  3.2080
  505MOL0     H68136   4.032   8.149   2.243  1.2967 -2.0679  2.9110
  505MOL0     H68137   3.469   8.440   2.068 -0.9032 -2.5424  2.4929
  505MOL0     H68138   3.294   8.378   1.919  1.6929  1.5765  1.9919
  505MOL0     H68139   3.360   8.188   1.631 -1.1831  2.0155 -0.7119
  505MOL0     H68140   3.322   8.029   1.670 -0.3837  1.0585 -2.0657
  505MOL0     H68141   3.169   8.241   1.534  0.3717 -0.0587 -1.1037
  505MOL0     H68142   3.191   8.078   1.479 -2.5133 -1.8428  0.2713
  505MOL0     H68143   3.044   7.989   1.654  2.0313  1.2640  2.7925
  505MOL0     H68144   3.003   8.146   1.701 -0.3517 -0.5736 -0.0643
  505MOL0     H68145   2.833   8.053   1.558  0.0850  0.2619 -0.5023
  505MOL0     H68146   2.966   8.035   1.432  0.5231 -0.4810  1.0463
  505MOL0     H68147   2.976   8.261   1.389  0.3586  0.6048 -0.3620
  505MOL0     H68148   2.900   8.308   1.537  0.7931  0.1701 -1.3166
  505MOL0     H68149   2.769   8.155   1.302 -0.1659 -0.7800  0.8786
  505MOL0     H68150   2.681   8.220   1.441  1.7783 -1.1944  2.4581
  505MOL0     H68151   2.810   8.396   1.232 -3.8559  2.5307 -2.1970
  505MOL0     H68152   2.753   8.451   1.396 -0.3911 -1.1051  0.3483
  505MOL0     H68153   2.534   8.341   1.334 -1.5795  1.4703 -1.5526
  505MOL0     H68154   2.561   8.490   1.241  2.5886  0.5509 -1.5508
  505MOL0     H68155   3.459   7.985   1.894  0.1433  0.3630  0.1349
  505MOL0     H68156   3.620   8.046   2.051 -1.8261  1.3794  2.6597
  505MOL0     H68157   3.717   8.413   2.349  0.6172 -0.3319  0.0627
  505MOL0     H68158   3.880   8.520   2.516  3.5390  4.3449 -3.0252
  505MOL0     H68159   3.722   8.159   2.774 -0.2671  0.3277  2.0007
  505MOL0     H68160   3.541   8.186   2.608 -1.8679  0.2164  1.9406
  505MOL0     H68161   3.301   8.274   2.303 -0.9411 -0.1930 -1.1200
  505MOL0     H68162   3.092   8.285   2.168  0.8020  0.9909  0.8424
  505MOL0     H68163   2.842   8.393   2.328  0.2637  1.5723  0.5323
  505MOL0     H68164   2.871   8.307   2.179 -2.6972 -0.9579  0.7012
  505MOL0     H68165   2.636   8.349   2.214 -0.2029 -1.1006 -2.1661
  505MOL0     H68166   2.689   8.407   2.059 -0.8402 -0.2821 -0.6851
  505MOL0     H68167   2.576   8.582   2.111  1.2058  1.6502 -0.5442
  505MOL0     H68168   2.719   8.643   2.206 -0.2228  0.0901 -1.2035
  505MOL0     H68169   2.606   8.553   2.408  2.4175  1.1834 -0.6263
  505MOL0     H68170   2.532   8.692   2.322 -1.3543 -0.0952  0.9793
  505MOL0     H68171   2.244   8.374   2.284 -0.0307 -0.9992 -1.4028
  505MOL0     H68172   3.045   8.692   2.232  0.7899  1.5229  0.7261
  505MOL0     H68173   3.369   8.793   2.282 -0.7430  3.5304  0.7272
  505MOL0     H68174   3.211   8.830   2.323 -0.7179 -1.0730  1.2381
  505MOL0     H68175   3.315   8.759   2.444  1.2564  0.9651 -0.0059
  506MOL0     O68176   5.611   5.657   7.903 -0.0055 -0.2125  0.6008
  506MOL0     C68177   5.537   5.561   7.892 -0.1954  0.1890  0.7068
  506MOL0     O68178   5.575   5.435   7.862  0.3609  0.3150 -0.5319
  506MOL0     C68179   5.704   5.404   7.868  0.0408 -1.3920 -0.1340
  506MOL0     C68180   5.751   5.330   7.976  0.1139 -0.0217 -0.3282
  506MOL0     C68181   5.887   5.312   7.989  0.3423 -0.3473 -0.4370
  506MOL0     C68182   5.981   5.352   7.893 -0.0474 -0.2467 -0.6930
  506MOL0     O68183   6.113   5.328   7.928  0.0453 -0.3006  0.2666
  506MOL0     C68184   6.215   5.380   7.839  0.7245  0.8258 -0.5436
  506MOL0     C68185   6.342   5.320   7.904 -0.3056  0.0344  0.0427
  506MOL0     C68186   6.470   5.361   7.828  0.2815 -0.2768 -0.0599
  506MOL0     C68187   6.598   5.336   7.899  0.9198 -0.0721  0.1092
  506MOL0     C68188   6.725   5.349   7.815  0.1523  0.5864 -0.0473
  506MOL0     C68189   6.834   5.273   7.879 -0.2919 -0.5803  0.0583
  506MOL0     C68190   6.980   5.333   7.859 -0.1971 -0.1039  0.3586
  506MOL0     C68191   7.054   5.288   7.727  0.7398  0.4805  0.9595
  506MOL0     N68192   7.194   5.326   7.705  0.0015 -0.1011 -0.7744
  506MOL0     C68193   7.263   5.309   7.588 -0.4646 -0.8129  0.2593
  506MOL0     C68194   7.395   5.334   7.617 -0.4294  0.7149  0.2968
  506MOL0     C68195   7.512   5.323   7.524  0.0520  0.7509  0.0856
  506MOL0     C68196   7.589   5.193   7.534 -0.4919 -0.2697  0.6329
  506MOL0     C68197   7.670   5.165   7.416 -0.8004  0.4468  0.8421
  506MOL0     C68198   7.763   5.286   7.374  0.0810  0.3922  0.0615
  506MOL0     O68199   7.688   5.389   7.295 -0.4737  0.4491 -0.3441
  506MOL0     C68200   7.779   5.461   7.230  0.3168  0.2139  0.7973
  506MOL0     C68201   7.875   5.541   7.297  0.9954  0.4348  0.4645
  506MOL0     C68202   7.973   5.619   7.233  0.1767  0.1587 -0.4713
  506MOL0     C68203   7.989   5.617   7.094  0.1982  0.1635 -0.1537
  506MOL0     C68204   8.101   5.680   7.031  0.9762  0.0811 -0.8265
  506MOL0     O68205   8.081   5.708   6.901 -0.0081  0.3072  1.0098
  506MOL0     C68206   8.155   5.805   6.826 -0.3355  0.2114  0.4545
  506MOL0     C68207   8.231   5.907   6.883  0.4878  0.3228  0.2472
  506MOL0     C68208   8.297   6.006   6.813  0.0307 -0.5560 -0.2655
  506MOL0     C68209   8.298   6.001   6.676 -0.2405  0.0031 -0.8915
  506MOL0     O68210   8.365   6.101   6.607  0.1882  0.0647 -0.0249
  506MOL0     C68211   8.417   6.074   6.472 -0.1569 -0.2048  0.4193
  506MOL0     C68212   8.508   6.189   6.437  0.0022 -0.1576 -1.3457
  506MOL0     C68213   8.519   6.229   6.291 -0.4420  0.5833  0.6663
  506MOL0     C68214   8.593   6.368   6.255  0.2184 -0.1714  0.2073
  506MOL0     C68215   8.629   6.375   6.105  0.1765  0.6825  0.4494
  506MOL0     C68216   8.766   6.305   6.075  0.4702 -0.3175 -0.0517
  506MOL0     C68217   8.828   6.367   5.954  0.6840 -0.8200 -0.8430
  506MOL0     C68218   8.952   6.298   5.892 -0.1604 -0.8437  0.2277
  506MOL0    Cl68219   9.011   6.365   5.736  0.4199  0.7153  0.2585
  506MOL0     C68220   8.229   5.903   6.612  0.5309 -0.0114  0.4371
  506MOL0     C68221   8.156   5.805   6.687  0.1635 -0.6130  0.7855
  506MOL0     O68222   8.201   5.710   7.094  0.4119 -0.2331 -0.2383
  506MOL0     C68223   7.885   5.539   7.019 -0.0647 -0.3772 -0.4465
  506MOL0     C68224   7.790   5.458   7.090 -0.6446  0.0773  0.2665
  506MOL0     N68225   7.397   5.374   7.750  0.8647 -0.0546 -0.5801
  506MOL0     N68226   7.278   5.368   7.806  0.2829 -0.3095  1.0381
  506MOL0     C68227   5.931   5.426   7.780 -0.0262 -0.1107  0.4070
  506MOL0     C68228   5.793   5.445   7.767 -0.1136 -0.1946  0.3358
  506MOL0     C68229   5.402   5.590   7.932 -0.0391  0.0454 -0.8116
  506MOL0     C68230   5.310   5.637   7.840  0.3614  0.2843  0.8975
  506MOL0     C68231   5.180   5.665   7.865 -0.0639  0.2614  0.1952
  506MOL0     C68232   5.133   5.667   7.997  0.5223  0.1518 -0.2147
  506MOL0     O68233   5.000   5.702   8.006 -0.4256 -0.3166 -0.2468
  506MOL0     C68234   4.931   5.703   8.133  0.2601  0.4079  0.8445
  506MOL0     C68235   4.779   5.702   8.092 -0.6020 -0.1443 -0.6820
  506MOL0     C68236   4.722   5.561   8.067 -0.0063 -0.7753  0.4872
  506MOL0     C68237   4.618   5.562   7.951  0.0069  0.2324 -0.1366
  506MOL0     C68238   4.474   5.582   7.995 -0.0300  0.2174  0.0042
  506MOL0     C68239   4.362   5.600   8.044 -0.3928 -0.9237 -0.1485
  506MOL0     C68240   5.220   5.631   8.099  0.6358  0.7430  0.1325
  506MOL0     C68241   5.356   5.594   8.064 -0.0925 -0.2260  0.1955
  506MOL0     C68242   5.449   5.560   8.173 -0.7260 -0.0690  0.4278
  506MOL0     H68243   5.683   5.288   8.050  0.2644 -2.0332 -1.2642
  506MOL0     H68244   5.917   5.269   8.084  0.1828  0.7540  0.1319
  506MOL0     H68245   6.195   5.346   7.737 -1.1752 -1.1996  0.4312
  506MOL0     H68246   6.216   5.489   7.846 -1.0359  0.8669 -0.4765
  506MOL0     H68247   6.343   5.210   7.906  0.3397  0.0418  0.1177
  506MOL0     H68248   6.347   5.367   8.002 -1.4516  1.9641 -0.7682
  506MOL0     H68249   6.468   5.470   7.813 -1.1042 -0.3481 -0.5219
  506MOL0     H68250   6.473   5.318   7.728  0.8198  2.6929 -1.4276
  506MOL0     H68251   6.604   5.416   7.973 -0.1489  0.2044 -0.0758
  506MOL0     H68252   6.581   5.241   7.951 -1.1897  0.2606  0.1373
  506MOL0     H68253   6.713   5.303   7.716  1.9874 -0.6038  0.2233
  506MOL0     H68254   6.767   5.449   7.805  3.7820 -0.8236 -0.7596
  506MOL0     H68255   6.811   5.267   7.986  2.5066 -4.9720  0.6643
  506MOL0     H68256   6.839   5.165   7.860 -1.8213 -1.0333  1.9119
  506MOL0     H68257   7.045   5.299   7.941  2.1797  0.3704 -1.2156
  506MOL0     H68258   6.974   5.442   7.862  1.4813  0.0314  0.0373
  506MOL0     H68259   7.069   5.180   7.718  1.8829  0.6790  0.3192
  506MOL0     H68260   6.990   5.322   7.645  0.3597 -0.3202  0.9099
  506MOL0     H68261   7.229   5.278   7.490  1.0017  1.5210 -1.0807
  506MOL0     H68262   7.481   5.336   7.420  1.6674  0.7237 -0.4306
  506MOL0     H68263   7.573   5.410   7.550  0.7539  0.2187  0.2553
  506MOL0     H68264   7.650   5.211   7.623  0.3702  0.2851 -0.0602
  506MOL0     H68265   7.532   5.103   7.557 -0.7026  0.0840  1.5340
  506MOL0     H68266   7.608   5.130   7.332 -0.6080  2.1512 -0.0496
  506MOL0     H68267   7.732   5.076   7.431 -1.1370 -0.2445 -1.4248
  506MOL0     H68268   7.848   5.241   7.321 -1.2659 -0.9026 -1.0922
  506MOL0     H68269   7.817   5.336   7.454 -0.4066  1.0792 -0.0357
  506MOL0     H68270   7.858   5.542   7.404  2.0384 -3.0468  0.7842
  506MOL0     H68271   8.050   5.666   7.293 -0.0292 -1.5144  1.1818
  506MOL0     H68272   8.217   5.921   6.990 -1.2924  1.3264 -0.0967
  506MOL0     H68273   8.346   6.092   6.859 -2.0415  1.4262 -1.5494
  506MOL0     H68274   8.463   5.977   6.453  0.7721  0.1443  0.7926
  506MOL0     H68275   8.330   6.085   6.408  0.2848  0.6121 -0.0573
  506MOL0     H68276   8.489   6.274   6.503  1.4703 -0.1855 -0.8620
  506MOL0     H68277   8.609   6.160   6.466 -0.5041 -1.5401 -0.8723
  506MOL0     H68278   8.584   6.153   6.248  0.8845  3.4041 -2.7007
  506MOL0     H68279   8.420   6.223   6.244 -0.7581  1.5818  1.1860
  506MOL0     H68280   8.681   6.385   6.317  0.6978  0.1890 -0.5577
  506MOL0     H68281   8.525   6.450   6.278  3.2075  2.3398  0.7445
  506MOL0     H68282   8.644   6.477   6.069 -0.1816  1.7163  2.9916
  506MOL0     H68283   8.543   6.335   6.051  0.5432 -0.0534  0.4011
  506MOL0     H68284   8.835   6.327   6.157 -0.6646  1.5955  0.4557
  506MOL0     H68285   8.748   6.198   6.059 -0.9640  0.2694 -3.2733
  506MOL0     H68286   8.874   6.461   5.985 -0.6860 -0.8341  1.4611
  506MOL0     H68287   8.750   6.373   5.877  0.2945  0.5440 -0.3593
  506MOL0     H68288   9.024   6.303   5.974  0.3198  1.7978 -0.2742
  506MOL0     H68289   8.926   6.194   5.869  0.1979 -0.9376  0.2457
  506MOL0     H68290   8.224   5.901   6.504 -2.0093  2.8353  0.3539
  506MOL0     H68291   8.110   5.738   6.615 -0.4894 -1.2778  1.7893
  506MOL0     H68292   7.885   5.539   6.910 -1.2175 -0.2513 -0.4544
  506MOL0     H68293   7.735   5.393   7.022 -1.0011  0.8408 -0.1849
  506MOL0     H68294   5.994   5.467   7.702  0.2450 -0.2485  0.5545
  506MOL0     H68295   5.750   5.498   7.683 -3.5380 -2.5751  0.3907
  506MOL0     H68296   5.326   5.634   7.732  0.1634  1.2448  0.8268
  506MOL0     H68297   5.107   5.691   7.789 -1.2284 -0.9165  0.8739
  506MOL0     H68298   4.947   5.800   8.180 -3.3922  1.3761  0.3592
  506MOL0     H68299   4.948   5.622   8.205  1.9212 -0.6116 -0.5921
  506MOL0     H68300   4.765   5.767   8.005 -0.3430 -0.0918 -0.6852
  506MOL0     H68301   4.727   5.751   8.176 -0.0889 -1.3609  0.3806
  506MOL0     H68302   4.683   5.526   8.163  1.8102  3.7934  3.2424
  506MOL0     H68303   4.798   5.486   8.044  0.2392 -0.1934 -0.6744
  506MOL0     H68304   4.646   5.635   7.874 -0.9341 -0.3264 -1.0288
  506MOL0     H68305   4.632   5.467   7.899 -1.3221  0.4254 -0.8985
  506MOL0     H68306   4.263   5.622   8.077  0.1460 -0.8267  1.4971
  506MOL0     H68307   5.185   5.646   8.201  0.2504  0.8595 -0.0195
  506MOL0     H68308   5.403   5.555   8.272 -1.9259 -2.4323 -0.1623
  506MOL0     H68309   5.487   5.459   8.153 -0.2008 -0.1058  1.5578
  506MOL0     H68310   5.531   5.631   8.172  1.2674 -2.2353  1.6304
  507MOL0     O68311   1.605   4.658   6.241  0.3402 -0.4510  0.4721
  507MOL0     C68312   1.557   4.742   6.321 -0.1814 -0.1658 -0.7653
  507MOL0     O68313   1.629   4.839   6.393  0.9016  0.5237  0.0852
  507MOL0     C68314   1.753   4.845   6.362 -0.3084  0.1082 -0.5786
  507MOL0     C68315   1.803   4.950   6.286 -0.3369  0.5511  0.2328
  507MOL0     C68316   1.939   4.937   6.253  0.1368 -0.7485 -0.6880
  507MOL0     C68317   2.024   4.829   6.285  0.5534 -0.0049 -0.0745
  507MOL0     O68318   2.155   4.830   6.264 -0.0378  0.3793  0.0916
  507MOL0     C68319   2.211   4.915   6.166  0.1054 -0.4098  0.2121
  507MOL0     C68320   2.353   4.870   6.125  0.4433 -0.1325 -0.5182
  507MOL0     C68321   2.360   4.750   6.053 -0.2756  0.0636  0.3861
  507MOL0     C68322   2.502   4.704   6.031 -0.1050 -0.4081  0.3266
  507MOL0     C68323   2.533   4.617   5.908 -0.1317  0.6622  0.5711
  507MOL0     C68324   2.436   4.496   5.903 -0.4581  1.0381  0.4725
  507MOL0     C68325   2.458   4.414   5.773  0.1202  0.6589  0.1032
  507MOL0     C68326   2.603   4.393   5.718  0.6092  0.5540  0.0585
  507MOL0     N68327   2.639   4.249   5.692  0.0697  0.0136 -0.0274
  507MOL0     C68328   2.710   4.208   5.583 -0.4861 -0.5612 -1.2384
  507MOL0     C68329   2.690   4.084   5.574  0.1107  0.6546 -0.6331
  507MOL0     C68330   2.746   3.994   5.468  0.0353  0.9910  0.2970
  507MOL0     C68331   2.897   3.954   5.508 -0.2530  0.3846 -0.9129
  507MOL0     C68332   2.995   4.042   5.437 -0.2961  0.4284  0.2062
  507MOL0     C68333   3.139   3.997   5.476  0.6740 -0.1641  0.2511
  507MOL0     O68334   3.174   3.889   5.391  0.1356  0.1012  0.3656
  507MOL0     C68335   3.295   3.823   5.398  0.5894  0.0922  0.2285
  507MOL0     C68336   3.297   3.690   5.358  0.5278  0.2077  0.5577
  507MOL0     C68337   3.414   3.614   5.370 -0.1605 -0.0340 -0.5538
  507MOL0     C68338   3.527   3.675   5.425 -0.6600  0.3426  0.3588
  507MOL0     C68339   3.658   3.594   5.434 -0.1246  0.3738  0.2352
  507MOL0     O68340   3.754   3.657   5.509  0.4966  0.0766  0.4704
  507MOL0     C68341   3.877   3.591   5.529  0.0836 -0.5770 -0.2372
  507MOL0     C68342   3.983   3.605   5.440  0.2809 -0.0612  0.1337
  507MOL0     C68343   4.100   3.538   5.459  0.1089 -0.0407 -0.1350
  507MOL0     C68344   4.113   3.447   5.568 -0.0582  0.7828 -0.6302
  507MOL0     O68345   4.241   3.397   5.596  0.1443  0.1866 -0.4233
  507MOL0     C68346   4.247   3.262   5.640  0.1805  0.1250  0.1750
  507MOL0     C68347   4.389   3.201   5.589  0.4677 -0.2213  0.4235
  507MOL0     C68348   4.406   3.216   5.438  0.0846 -0.2839 -1.5125
  507MOL0     C68349   4.553   3.174   5.404  0.5377  0.6632  0.1622
  507MOL0     C68350   4.575   3.179   5.253  0.0966  0.0394 -0.0999
  507MOL0     C68351   4.718   3.132   5.231  0.1806  0.3373  0.5033
  507MOL0     C68352   4.776   3.167   5.090 -0.6320  0.1529 -1.0437
  507MOL0     C68353   4.896   3.276   5.081 -0.8586 -0.4575 -0.2730
  507MOL0    Cl68354   4.951   3.306   4.913 -0.2842 -0.3392  0.7156
  507MOL0     C68355   4.008   3.427   5.663 -0.5829  0.1836  0.6994
  507MOL0     C68356   3.892   3.497   5.640  0.7545 -0.1563 -0.0707
  507MOL0     O68357   3.670   3.491   5.364 -0.1193 -0.0806  0.0975
  507MOL0     C68358   3.518   3.807   5.467  0.6493  0.0558 -0.2884
  507MOL0     C68359   3.402   3.875   5.462 -0.4686 -0.9622  0.9909
  507MOL0     N68360   2.622   4.032   5.685  0.5623  0.5581  0.4854
  507MOL0     N68361   2.586   4.140   5.756  0.0485  0.0377 -0.6531
  507MOL0     C68362   1.972   4.735   6.373  0.1106  0.3328 -0.2414
  507MOL0     C68363   1.840   4.738   6.411 -0.4694  0.3267 -0.4024
  507MOL0     C68364   1.414   4.741   6.347 -0.6744  0.1506 -0.0837
  507MOL0     C68365   1.357   4.847   6.426 -0.2733 -0.7108  0.4637
  507MOL0     C68366   1.229   4.869   6.447 -0.0172  0.8491 -0.9291
  507MOL0     C68367   1.138   4.769   6.409 -0.1536 -0.5467 -0.3797
  507MOL0     O68368   1.005   4.788   6.439  0.7581  0.8044  0.1537
  507MOL0     C68369   0.912   4.720   6.348  0.2413  0.1228 -0.5911
  507MOL0     C68370   0.871   4.580   6.409  0.6969 -0.5775  0.3304
  507MOL0     C68371   0.763   4.532   6.307 -0.6779  0.1662 -0.0498
  507MOL0     C68372   0.701   4.394   6.341  0.6832  0.1528  0.1518
  507MOL0     C68373   0.791   4.290   6.294  0.2934  0.2289 -1.5008
  507MOL0     C68374   0.871   4.206   6.250 -0.0512 -0.9360  0.2646
  507MOL0     C68375   1.187   4.661   6.331 -0.5205 -0.0890  0.1460
  507MOL0     C68376   1.320   4.655   6.295  0.1195  0.2573 -0.6274
  507MOL0     C68377   1.366   4.526   6.216 -0.4075 -0.3219  0.5330
  507MOL0     H68378   1.738   5.034   6.263 -0.3136  1.1671  2.2346
  507MOL0     H68379   1.983   5.019   6.197  0.6238  0.1797  0.9996
  507MOL0     H68380   2.152   4.916   6.074  0.2679 -1.8052  0.0692
  507MOL0     H68381   2.229   5.014   6.209 -1.4148  0.0760 -0.2275
  507MOL0     H68382   2.427   4.873   6.205  3.0050  1.8654 -2.7487
  507MOL0     H68383   2.386   4.946   6.053  0.4159 -0.7706 -1.2220
  507MOL0     H68384   2.312   4.763   5.956 -1.5179 -0.6688  0.8906
  507MOL0     H68385   2.305   4.668   6.099 -0.4934 -0.8582 -1.4153
  507MOL0     H68386   2.560   4.792   6.000 -2.7092  1.9335  1.6153
  507MOL0     H68387   2.549   4.659   6.118 -0.2935  0.0588  0.6725
  507MOL0     H68388   2.510   4.679   5.821 -3.7250  0.5723  1.2986
  507MOL0     H68389   2.638   4.592   5.926 -0.1831  1.6509  2.5980
  507MOL0     H68390   2.460   4.431   5.988 -1.5505 -0.8807 -0.6225
  507MOL0     H68391   2.333   4.531   5.900 -0.6456  0.7670 -4.5177
  507MOL0     H68392   2.403   4.465   5.694 -0.1223  0.5139  0.1778
  507MOL0     H68393   2.401   4.323   5.795  0.5701  0.1683 -0.7055
  507MOL0     H68394   2.602   4.443   5.621  3.5377 -1.3433 -1.0710
  507MOL0     H68395   2.682   4.426   5.786 -0.1076 -2.9370  2.8573
  507MOL0     H68396   2.743   4.265   5.496  2.5668 -2.1845 -1.2602
  507MOL0     H68397   2.699   3.896   5.451 -0.0704  1.5605 -3.6550
  507MOL0     H68398   2.744   4.039   5.368 -0.7319  0.4025  0.0355
  507MOL0     H68399   2.916   3.960   5.615 -0.4912 -1.0139 -0.7689
  507MOL0     H68400   2.923   3.851   5.482  0.2427 -0.6086  2.9829
  507MOL0     H68401   2.987   4.149   5.458 -0.0333  0.5747 -0.4310
  507MOL0     H68402   2.983   4.032   5.329  1.0682  0.0330  0.0852
  507MOL0     H68403   3.153   3.965   5.580 -2.4707  1.1825  1.2132
  507MOL0     H68404   3.213   4.077   5.464 -0.5315  1.0524  0.6574
  507MOL0     H68405   3.202   3.642   5.333 -0.4126  0.1362  3.7882
  507MOL0     H68406   3.405   3.510   5.338 -1.7393  0.4008 -1.6185
  507MOL0     H68407   3.972   3.654   5.344 -0.6185 -0.6602 -0.0744
  507MOL0     H68408   4.182   3.561   5.392 -0.6432  1.0338 -0.7245
  507MOL0     H68409   4.241   3.260   5.749 -2.5673 -1.1555  0.0619
  507MOL0     H68410   4.173   3.210   5.579  0.5632 -0.9762  0.6411
  507MOL0     H68411   4.465   3.238   5.658 -0.6274  0.6061  1.2385
  507MOL0     H68412   4.391   3.096   5.621 -1.3572  0.1227  1.8563
  507MOL0     H68413   4.336   3.156   5.379  0.5525 -0.3820 -1.9670
  507MOL0     H68414   4.397   3.321   5.408 -0.0804  0.4994  1.0512
  507MOL0     H68415   4.562   3.066   5.424 -0.0109  0.4367 -0.7814
  507MOL0     H68416   4.628   3.232   5.459  1.2684 -1.9877  2.1879
  507MOL0     H68417   4.555   3.281   5.217 -1.5899 -0.8943 -2.0285
  507MOL0     H68418   4.509   3.118   5.190  3.3859 -2.0631 -1.7746
  507MOL0     H68419   4.779   3.183   5.306  2.0197 -2.0620  0.7921
  507MOL0     H68420   4.718   3.023   5.243  0.4358  0.1577 -0.9429
  507MOL0     H68421   4.693   3.197   5.026 -0.0631 -0.6392 -2.1842
  507MOL0     H68422   4.813   3.076   5.042  1.2789 -0.6600  1.6891
  507MOL0     H68423   4.863   3.367   5.131  0.6303 -1.1172  2.0478
  507MOL0     H68424   4.986   3.253   5.139 -1.4179  1.9544  1.7060
  507MOL0     H68425   4.024   3.363   5.749  0.1575  0.4754  0.7870
  507MOL0     H68426   3.816   3.487   5.716 -0.2857 -0.0979 -1.0886
  507MOL0     H68427   3.603   3.857   5.513  0.7064  1.3973 -1.7696
  507MOL0     H68428   3.388   3.974   5.505 -0.0074  0.9319 -2.7604
  507MOL0     H68429   2.039   4.658   6.411  0.1294 -0.9298 -2.6171
  507MOL0     H68430   1.793   4.664   6.475 -2.3561  2.2564  0.6023
  507MOL0     H68431   1.415   4.937   6.442 -1.5020 -0.0294  1.2614
  507MOL0     H68432   1.207   4.962   6.498 -0.2696 -0.3506  1.2669
  507MOL0     H68433   0.962   4.704   6.252  0.6582 -3.0964  0.0273
  507MOL0     H68434   0.823   4.778   6.324 -1.1400 -2.8008 -3.3851
  507MOL0     H68435   0.820   4.587   6.505 -2.2662 -0.1067 -1.1409
  507MOL0     H68436   0.959   4.516   6.420 -0.3934 -2.2971 -0.6215
  507MOL0     H68437   0.802   4.541   6.205 -2.8046  2.7583 -0.7173
  507MOL0     H68438   0.676   4.597   6.297  0.4831  1.4599 -2.8789
  507MOL0     H68439   0.690   4.399   6.450  0.1538  4.4912  0.1053
  507MOL0     H68440   0.610   4.368   6.288  2.6907 -1.9529 -2.5769
  507MOL0     H68441   0.936   4.129   6.214  0.7146  1.1771 -3.4672
  507MOL0     H68442   1.129   4.575   6.299 -0.4601 -0.1386  0.1709
  507MOL0     H68443   1.401   4.556   6.117  0.5157 -0.1706  0.8906
  507MOL0     H68444   1.444   4.475   6.273  1.8693  1.4477 -0.8461
  507MOL0     H68445   1.286   4.456   6.191 -0.3890 -0.3054  0.4304
  508MOL0     O68446   0.047   3.283   3.193 -0.4037  0.1642  0.4205
  508MOL0     C68447  -0.001   3.358   3.275  0.4006  0.2203  0.3690
  508MOL0     O68448  -0.019   3.320   3.404  0.3216 -0.4122  0.0558
  508MOL0     C68449   0.036   3.206   3.457 -0.0433  0.4289  0.1884
  508MOL0     C68450  -0.018   3.173   3.586 -0.2086  0.7320  0.6952
  508MOL0     C68451   0.024   3.054   3.651 -0.5351 -0.4437 -0.1107
  508MOL0     C68452   0.122   2.968   3.589 -0.3423 -0.0342 -0.0577
  508MOL0     O68453   0.160   2.863   3.667 -0.1334 -0.3121  0.2298
  508MOL0     C68454   0.252   2.769   3.596  1.5594 -0.5282  0.0876
  508MOL0     C68455   0.280   2.637   3.676  0.2748 -0.8197 -0.3175
  508MOL0     C68456   0.141   2.569   3.723  0.6928 -0.4844  0.5971
  508MOL0     C68457   0.157   2.472   3.848  0.0502 -0.2878 -0.3808
  508MOL0     C68458   0.256   2.348   3.830 -0.0070  0.0149 -0.5486
  508MOL0     C68459   0.278   2.279   3.962  0.0833 -0.6227 -0.3944
  508MOL0     C68460   0.367   2.147   3.943 -0.7475  0.2126  0.2433
  508MOL0     C68461   0.437   2.109   4.077 -0.7279 -1.4732 -0.6976
  508MOL0     N68462   0.342   2.069   4.185  0.1082 -0.4215 -0.3930
  508MOL0     C68463   0.285   2.166   4.263 -0.2235 -0.3227  0.3074
  508MOL0     C68464   0.253   2.098   4.376  0.5048  0.0105  0.5458
  508MOL0     C68465   0.192   2.150   4.504  0.6440 -0.6336 -0.0743
  508MOL0     C68466   0.302   2.132   4.607 -0.4922  0.4451 -0.4391
  508MOL0     C68467   0.252   2.190   4.737 -0.1299  0.9508 -0.0163
  508MOL0     C68468   0.365   2.166   4.838 -0.1180  0.1714  0.0553
  508MOL0     O68469   0.482   2.242   4.792  0.0488  0.1721 -0.6003
  508MOL0     C68470   0.595   2.224   4.872 -0.2290 -0.8683 -0.0234
  508MOL0     C68471   0.717   2.272   4.821  0.5622  0.8110 -1.3127
  508MOL0     C68472   0.836   2.252   4.893  0.5393  0.9306  0.8912
  508MOL0     C68473   0.838   2.190   5.021  0.6611 -0.4838 -0.2546
  508MOL0     C68474   0.961   2.166   5.091 -0.5797  0.8806  0.7513
  508MOL0     O68475   0.956   2.095   5.212 -0.2952  0.0901  0.2215
  508MOL0     C68476   1.060   2.124   5.301 -0.3399 -0.1707  0.8927
  508MOL0     C68477   1.111   2.025   5.381 -0.7453 -0.2187 -0.6139
  508MOL0     C68478   1.208   2.048   5.473 -0.3826  0.3705  0.1268
  508MOL0     C68479   1.251   2.172   5.502  0.6270  1.0131 -0.7770
  508MOL0     O68480   1.336   2.208   5.605 -0.4146 -0.2290  0.4094
  508MOL0     C68481   1.351   2.100   5.700  1.2452 -0.6287 -0.3883
  508MOL0     C68482   1.430   2.131   5.821  0.7360  0.3286 -0.5280
  508MOL0     C68483   1.578   2.160   5.803  1.0609 -0.6620  0.4288
  508MOL0     C68484   1.664   2.053   5.728 -0.5504 -0.0125  0.2133
  508MOL0     C68485   1.795   2.031   5.795 -0.2468 -1.3497  0.1397
  508MOL0     C68486   1.803   1.923   5.902 -0.1279  0.2336  0.2670
  508MOL0     C68487   1.922   1.949   6.005  0.2631  0.0509  0.3092
  508MOL0     C68488   2.060   1.934   5.964 -0.5603  1.1241  0.0043
  508MOL0    Cl68489   2.173   1.876   6.096  0.0612  0.6159 -0.2996
  508MOL0     C68490   1.209   2.278   5.416  0.0766 -0.7479 -0.2666
  508MOL0     C68491   1.122   2.249   5.312  0.0280 -0.4016  0.2790
  508MOL0     O68492   1.063   2.207   5.039  0.2164  0.5032  0.0302
  508MOL0     C68493   0.714   2.142   5.073  0.1689  0.4461  0.0882
  508MOL0     C68494   0.594   2.156   4.998 -0.0792 -0.4220 -0.4968
  508MOL0     N68495   0.286   1.966   4.366  0.0996 -0.2550  0.5999
  508MOL0     N68496   0.340   1.947   4.248 -0.5589 -0.5223 -0.1261
  508MOL0     C68497   0.173   3.008   3.463  0.5027  0.5092 -0.2557
  508MOL0     C68498   0.141   3.124   3.399 -0.5292 -0.4600 -0.1706
  508MOL0     C68499  -0.015   3.502   3.250  0.5029  0.2992 -0.1934
  508MOL0     C68500   0.024   3.541   3.116  0.9326 -0.8021  0.2104
  508MOL0     C68501   0.026   3.675   3.087  1.1619 -0.3490 -0.0530
  508MOL0     C68502  -0.013   3.782   3.169  0.1790  0.4993 -0.3563
  508MOL0     O68503  -0.012   3.915   3.133  0.1283  0.4373 -0.2554
  508MOL0     C68504   0.023   3.961   3.006  0.5115  0.5030  0.0551
  508MOL0     C68505  -0.101   3.938   2.914 -0.6959  0.5915 -0.6659
  508MOL0     C68506  -0.230   4.017   2.963 -0.1420  0.1117  0.0473
  508MOL0     C68507  -0.206   4.170   2.984 -0.3246  0.1760 -0.1688
  508MOL0     C68508  -0.321   4.257   2.984  0.1188 -0.3628  0.5561
  508MOL0     C68509  -0.416   4.332   2.976  0.0925 -0.6282  0.1434
  508MOL0     C68510  -0.052   3.739   3.297 -0.0131  0.1123 -0.4178
  508MOL0     C68511  -0.045   3.604   3.339  0.0679 -0.3921 -0.1467
  508MOL0     C68512  -0.078   3.592   3.489  0.3382  0.2474 -0.1982
  508MOL0     H68513  -0.097   3.230   3.634  1.6050  1.2992  3.2318
  508MOL0     H68514  -0.014   3.031   3.750  0.1086 -0.3930  0.1566
  508MOL0     H68515   0.206   2.734   3.503  1.0661 -0.5312  0.3314
  508MOL0     H68516   0.357   2.799   3.584  2.0535 -0.9907  2.5637
  508MOL0     H68517   0.343   2.663   3.761 -0.3330 -2.6073  0.7429
  508MOL0     H68518   0.329   2.564   3.611 -0.9425 -0.9314 -1.1591
  508MOL0     H68519   0.106   2.513   3.635 -1.0050  0.2471  0.7659
  508MOL0     H68520   0.060   2.641   3.738 -0.5158 -1.5046 -0.6882
  508MOL0     H68521   0.194   2.533   3.931 -2.8124 -0.5503  1.2240
  508MOL0     H68522   0.061   2.432   3.882  0.0653 -0.1362 -0.1570
  508MOL0     H68523   0.232   2.275   3.752 -3.4270 -1.2158  1.4761
  508MOL0     H68524   0.354   2.391   3.805  0.9142 -1.9664 -0.5321
  508MOL0     H68525   0.339   2.353   4.016 -0.1095 -0.1278 -0.8490
  508MOL0     H68526   0.182   2.256   4.009  0.2325  0.3763  0.4445
  508MOL0     H68527   0.447   2.146   3.869 -1.7097 -2.6436 -0.9203
  508MOL0     H68528   0.302   2.069   3.903  0.7135 -1.1125  0.3176
  508MOL0     H68529   0.513   2.031   4.065  1.7537  0.7286 -0.0349
  508MOL0     H68530   0.500   2.189   4.117 -2.0648 -2.0862  2.9905
  508MOL0     H68531   0.282   2.272   4.239 -2.7512 -0.4693 -0.3154
  508MOL0     H68532   0.172   2.257   4.513  0.6011 -0.7971  2.8266
  508MOL0     H68533   0.107   2.085   4.526 -0.5405  0.1613 -2.0170
  508MOL0     H68534   0.325   2.026   4.615 -1.6085  0.3032  1.5808
  508MOL0     H68535   0.384   2.196   4.574 -0.7913  0.7517 -0.5933
  508MOL0     H68536   0.156   2.152   4.773 -0.1898  1.8040  0.7695
  508MOL0     H68537   0.238   2.296   4.718  0.2309  0.8293 -1.0483
  508MOL0     H68538   0.382   2.058   4.846 -0.9103  0.0136 -0.2219
  508MOL0     H68539   0.330   2.185   4.940 -2.4792  0.0630 -0.6768
  508MOL0     H68540   0.726   2.303   4.718  2.7201 -1.9340 -2.0581
  508MOL0     H68541   0.933   2.274   4.849  1.7468  0.9204  3.3719
  508MOL0     H68542   1.055   1.932   5.381  0.1616 -0.7757  0.1723
  508MOL0     H68543   1.232   1.957   5.528 -3.7683 -0.0008  1.2385
  508MOL0     H68544   1.257   2.057   5.737  0.4930  1.6340  0.5196
  508MOL0     H68545   1.399   2.017   5.648 -4.2761 -2.8768 -2.5418
  508MOL0     H68546   1.381   2.213   5.875  0.4081 -0.1002 -0.1677
  508MOL0     H68547   1.429   2.053   5.898  0.1717 -1.7293 -2.5065
  508MOL0     H68548   1.589   2.256   5.751 -1.3751 -0.2145  0.6233
  508MOL0     H68549   1.616   2.168   5.905  0.6263 -1.3144  0.6455
  508MOL0     H68550   1.687   2.094   5.629 -2.2974 -0.0102 -0.2218
  508MOL0     H68551   1.618   1.954   5.724 -0.2592 -0.1773  0.8829
  508MOL0     H68552   1.829   2.124   5.841  1.3722 -1.1289 -1.3788
  508MOL0     H68553   1.871   2.001   5.722  0.3356  1.1718 -0.4189
  508MOL0     H68554   1.712   1.934   5.963 -0.8448  0.9315 -0.8904
  508MOL0     H68555   1.808   1.828   5.848 -0.2838  0.1452  0.4068
  508MOL0     H68556   1.896   1.887   6.092 -1.4563  0.3007  0.0038
  508MOL0     H68557   1.903   2.051   6.037 -0.4816  0.3025 -0.8870
  508MOL0     H68558   2.060   1.850   5.893 -0.2621  0.7709  0.4207
  508MOL0     H68559   2.091   2.020   5.904 -2.5806  0.9177 -1.4932
  508MOL0     H68560   1.254   2.373   5.442  1.5156 -1.2854 -0.7029
  508MOL0     H68561   1.097   2.333   5.248  0.5309  1.5214  2.5042
  508MOL0     H68562   0.707   2.098   5.172 -3.2042 -0.8720 -0.6094
  508MOL0     H68563   0.515   2.088   5.028  1.3817 -2.3258 -0.7732
  508MOL0     H68564   0.255   2.953   3.418 -1.4372 -0.6556 -2.5933
  508MOL0     H68565   0.188   3.136   3.302 -0.6474 -1.3704 -0.3438
  508MOL0     H68566   0.062   3.467   3.046  1.0256  0.6634 -1.3315
  508MOL0     H68567   0.063   3.689   2.986 -0.5731  0.9991 -0.5438
  508MOL0     H68568   0.102   3.903   2.956 -1.2116 -1.7522 -0.2218
  508MOL0     H68569   0.055   4.065   3.015  1.3896  0.1552  1.2232
  508MOL0     H68570  -0.130   3.833   2.903 -3.0474  1.0870  0.1727
  508MOL0     H68571  -0.069   3.966   2.813  1.8204  3.1519  0.6908
  508MOL0     H68572  -0.265   3.986   3.062 -0.1135 -1.1233 -0.3142
  508MOL0     H68573  -0.318   4.002   2.899  0.0634  0.1520 -0.2432
  508MOL0     H68574  -0.167   4.182   3.085 -1.7559  1.0138  0.3101
  508MOL0     H68575  -0.139   4.199   2.901 -0.9514 -0.7794 -1.0276
  508MOL0     H68576  -0.508   4.381   2.952  0.2506  0.2107  1.1774
  508MOL0     H68577  -0.073   3.817   3.370  1.4969  0.9315 -0.8194
  508MOL0     H68578  -0.151   3.511   3.498  0.8601 -0.3805 -1.4122
  508MOL0     H68579   0.008   3.568   3.552 -0.7415 -1.3843  0.7325
  508MOL0     H68580  -0.125   3.686   3.521 -2.3932 -0.0303 -2.9119
  509MOL0     O68581   6.840  10.797   2.623 -0.6463  0.2083  0.8659
  509MOL0     C68582   6.963  10.814   2.615  0.6902 -0.1938 -0.7654
  509MOL0     O68583   7.041  10.898   2.684  0.6956  0.1287 -0.9216
  509MOL0     C68584   6.997  10.981   2.785 -0.6562  0.0985 -0.1609
  509MOL0     C68585   7.090  11.080   2.823 -0.8428  0.0953  0.4980
  509MOL0     C68586   7.066  11.167   2.928  1.1464 -0.3607 -0.6146
  509MOL0     C68587   6.940  11.184   2.980  0.0563  0.6014  0.0426
  509MOL0     O68588   6.894  11.280   3.063  0.1323 -0.5720 -0.2637
  509MOL0     C68589   6.982  11.379   3.114  0.6547 -0.8232 -0.0994
  509MOL0     C68590   7.048  11.475   3.011  0.1342  0.3852 -0.0936
  509MOL0     C68591   7.156  11.573   3.071  0.1622 -0.1714 -0.2227
  509MOL0     C68592   7.280  11.485   3.106 -1.2490 -0.0047 -0.3762
  509MOL0     C68593   7.393  11.573   3.164  0.3789 -0.6542  0.5054
  509MOL0     C68594   7.435  11.687   3.073 -0.1130  0.4522 -0.6938
  509MOL0     C68595   7.575  11.738   3.102  0.0174 -1.3659  0.0434
  509MOL0     C68596   7.572  11.812   3.243 -0.4765  0.3222 -0.8848
  509MOL0     N68597   7.696  11.874   3.281 -0.7884  0.5071 -0.9998
  509MOL0     C68598   7.780  11.946   3.201  0.7197 -0.5524  0.1103
  509MOL0     C68599   7.890  11.981   3.278  0.2487 -0.0430 -0.1945
  509MOL0     C68600   8.005  12.045   3.227 -0.9505  0.4553 -0.3763
  509MOL0     C68601   8.118  12.057   3.324 -0.5800  0.4409 -0.6991
  509MOL0     C68602   8.219  11.943   3.313  0.8936  0.5538  0.4194
  509MOL0     C68603   8.306  11.948   3.437  0.1031  0.6499 -0.3242
  509MOL0     O68604   8.370  12.076   3.470  0.3796  0.2981  0.3343
  509MOL0     C68605   8.502  12.075   3.448 -0.2351 -0.7728  0.6292
  509MOL0     C68606   8.567  12.150   3.348 -0.2569  0.0779  0.0561
  509MOL0     C68607   8.707  12.147   3.346  0.6451 -0.2406  0.4764
  509MOL0     C68608   8.781  12.082   3.439 -0.4014 -0.3560 -0.6364
  509MOL0     C68609   8.924  12.096   3.444 -0.2140  0.8410 -0.3304
  509MOL0     O68610   8.973  12.039   3.564 -0.4780  0.6476 -0.5260
  509MOL0     C68611   9.101  12.072   3.603 -0.6397  0.0313 -1.2279
  509MOL0     C68612   9.139  12.207   3.612 -0.3423  0.4738 -0.0243
  509MOL0     C68613   9.266  12.252   3.660  0.7660 -0.2694 -0.1389
  509MOL0     C68614   9.356  12.161   3.711 -1.1486 -0.3358  0.0204
  509MOL0     O68615   9.478  12.206   3.755  0.0126 -0.1537 -0.0741
  509MOL0     C68616   9.594  12.139   3.686  0.1533 -0.3985  0.1046
  509MOL0     C68617   9.727  12.207   3.728 -0.2244  0.0415  0.2480
  509MOL0     C68618   9.850  12.147   3.655  0.5431 -0.3077  0.2588
  509MOL0     C68619   9.983  12.197   3.723 -0.1862 -0.0944  0.3665
  509MOL0     C68620  10.107  12.142   3.656 -0.1882 -0.5483  0.5331
  509MOL0     C68621  10.223  12.211   3.729 -0.3569 -0.8769 -0.4415
  509MOL0     C68622  10.270  12.343   3.677 -0.3891 -0.2889 -0.5729
  509MOL0     C68623  10.380  12.334   3.568 -0.0929  0.4467 -0.5259
  509MOL0    Cl68624  10.477  12.488   3.548  0.1883  0.1575 -0.2966
  509MOL0     C68625   9.316  12.022   3.703  0.0159  0.3178 -0.1268
  509MOL0     C68626   9.199  11.974   3.652  1.0863  0.4374 -0.5840
  509MOL0     O68627   8.988  12.143   3.350 -0.0248  0.4900  0.0974
  509MOL0     C68628   8.711  11.998   3.536 -1.1126  0.2754  0.5182
  509MOL0     C68629   8.579  11.990   3.539  1.4812 -0.1886  0.5379
  509MOL0     N68630   7.867  11.925   3.400 -0.6469  0.0403  0.4132
  509MOL0     N68631   7.756  11.860   3.404 -0.1477 -0.1867 -0.0234
  509MOL0     C68632   6.842  11.091   2.941  0.0789  0.4638 -0.7743
  509MOL0     C68633   6.869  10.993   2.846  0.1616 -0.1947  0.5959
  509MOL0     C68634   7.044  10.732   2.512  0.1769 -0.2179  0.1440
  509MOL0     C68635   7.163  10.783   2.460 -0.7786  0.0662 -0.3252
  509MOL0     C68636   7.241  10.711   2.371 -0.1812  0.0026 -0.8357
  509MOL0     C68637   7.207  10.583   2.336  0.3146 -0.8399 -0.1150
  509MOL0     O68638   7.295  10.515   2.260 -0.3387  0.7015 -0.0295
  509MOL0     C68639   7.401  10.440   2.320  0.8247  0.1783 -0.1623
  509MOL0     C68640   7.542  10.469   2.263  0.8545  0.2941  1.0326
  509MOL0     C68641   7.635  10.356   2.307 -0.6014  0.3870  0.4052
  509MOL0     C68642   7.737  10.344   2.198 -0.5852  0.2509 -0.7969
  509MOL0     C68643   7.834  10.243   2.234 -0.0640 -0.0138 -0.0790
  509MOL0     C68644   7.915  10.157   2.262 -0.5047 -0.8819  0.2166
  509MOL0     C68645   7.097  10.530   2.391 -0.4905 -0.2775  0.4795
  509MOL0     C68646   7.005  10.606   2.464 -0.7466  0.7676 -0.4136
  509MOL0     C68647   6.877  10.544   2.487 -0.2586 -1.1523  0.3235
  509MOL0     H68648   7.191  11.082   2.784 -0.8093  2.1606  0.5853
  509MOL0     H68649   7.149  11.224   2.969  0.4131 -0.5137  1.1858
  509MOL0     H68650   6.920  11.432   3.187 -0.0865 -2.1121  0.2324
  509MOL0     H68651   7.062  11.335   3.174  0.0256 -0.0709  1.3528
  509MOL0     H68652   6.964  11.538   2.981  1.4257  2.2295  0.0324
  509MOL0     H68653   7.090  11.440   2.917  1.1320 -0.0798  0.5122
  509MOL0     H68654   7.119  11.627   3.158  0.2412 -0.0348 -0.2745
  509MOL0     H68655   7.184  11.656   3.006  0.9236  0.5430  0.9728
  509MOL0     H68656   7.246  11.403   3.168 -0.5245 -1.5741 -1.9616
  509MOL0     H68657   7.317  11.446   3.010 -0.3731  1.6008 -0.7360
  509MOL0     H68658   7.350  11.607   3.259  1.5411 -3.2286  2.0526
  509MOL0     H68659   7.485  11.517   3.184  2.4508  0.1095 -5.2192
  509MOL0     H68660   7.445  11.657   2.968  4.7959  1.6060 -0.7866
  509MOL0     H68661   7.365  11.770   3.087  0.5346  0.8330  0.4312
  509MOL0     H68662   7.593  11.813   3.024  0.4852 -1.4855  0.0341
  509MOL0     H68663   7.647  11.656   3.107 -1.1009 -2.3497  0.5407
  509MOL0     H68664   7.497  11.891   3.245  0.3912  1.1535 -0.0163
  509MOL0     H68665   7.537  11.735   3.312  1.8521 -1.2071 -1.2659
  509MOL0     H68666   7.766  11.963   3.095 -0.6689 -1.8306  0.0489
  509MOL0     H68667   8.049  12.021   3.130 -0.1308 -0.8255  0.2825
  509MOL0     H68668   7.958  12.144   3.227 -1.0714  0.4117 -1.6772
  509MOL0     H68669   8.170  12.149   3.296  1.8415  0.6975  3.6667
  509MOL0     H68670   8.071  12.082   3.420 -1.2133  0.1376 -0.9303
  509MOL0     H68671   8.273  11.947   3.218 -0.2268 -0.6915 -0.2939
  509MOL0     H68672   8.167  11.847   3.317 -1.8787  1.8924 -0.9300
  509MOL0     H68673   8.373  11.861   3.431  0.2745  0.7788 -0.2700
  509MOL0     H68674   8.241  11.931   3.523 -0.0379 -0.8612 -0.6960
  509MOL0     H68675   8.500  12.211   3.288  0.9411  0.0779 -1.3245
  509MOL0     H68676   8.754  12.204   3.267  1.0494 -1.7097 -0.3751
  509MOL0     H68677   9.063  12.277   3.577 -0.3815  0.7993  0.6946
  509MOL0     H68678   9.294  12.357   3.664 -0.2915 -0.0120  1.0474
  509MOL0     H68679   9.606  12.031   3.704 -0.3415 -0.4120  0.3984
  509MOL0     H68680   9.582  12.150   3.578 -0.4429  0.8260  0.2818
  509MOL0     H68681   9.712  12.314   3.709 -3.2541 -0.4139 -0.5699
  509MOL0     H68682   9.748  12.182   3.832  4.5005 -0.5436 -0.6526
  509MOL0     H68683   9.846  12.037   3.659  2.0384 -0.3916  3.7070
  509MOL0     H68684   9.850  12.177   3.550  1.1338  2.0943  0.8814
  509MOL0     H68685   9.988  12.166   3.828  0.0583 -2.2747 -0.2364
  509MOL0     H68686   9.975  12.306   3.718 -0.4300 -0.1594 -0.7915
  509MOL0     H68687  10.111  12.171   3.551 -1.1640 -0.9036  0.3834
  509MOL0     H68688  10.089  12.034   3.655 -1.3690 -0.3759  0.8679
  509MOL0     H68689  10.201  12.229   3.835  2.2843  3.4399 -0.4026
  509MOL0     H68690  10.315  12.152   3.741  0.1947  0.1754  0.7017
  509MOL0     H68691  10.327  12.387   3.759  0.2381 -0.2900 -0.9966
  509MOL0     H68692  10.187  12.405   3.642  1.8302  2.7796 -0.8373
  509MOL0     H68693  10.449  12.253   3.592 -3.4263 -2.5644 -0.1879
  509MOL0     H68694  10.338  12.289   3.478 -0.4101 -0.6218  0.1408
  509MOL0     H68695   9.384  11.940   3.725  0.3718  0.8945  0.9935
  509MOL0     H68696   9.181  11.868   3.658  1.3407  0.2999 -1.9392
  509MOL0     H68697   8.757  11.949   3.621 -3.4944 -0.7934  1.2593
  509MOL0     H68698   8.530  11.942   3.623 -0.3967 -0.2125 -0.5113
  509MOL0     H68699   6.750  11.100   2.999  2.3563  1.0493  3.0794
  509MOL0     H68700   6.793  10.920   2.820  0.1546 -0.2065  0.6503
  509MOL0     H68701   7.188  10.885   2.488 -1.7094 -0.5900  3.3889
  509MOL0     H68702   7.335  10.749   2.333 -0.6570  0.9923 -1.0629
  509MOL0     H68703   7.380  10.335   2.297 -1.1736 -0.1532  2.6319
  509MOL0     H68704   7.395  10.453   2.429 -0.5631 -2.4805  0.1535
  509MOL0     H68705   7.584  10.565   2.293  3.8885  0.4629 -2.9687
  509MOL0     H68706   7.511  10.483   2.159 -2.7046  2.4062  2.1787
  509MOL0     H68707   7.587  10.258   2.319  2.0684 -0.7533  3.5777
  509MOL0     H68708   7.667  10.378   2.409 -1.0592  1.8902  0.2439
  509MOL0     H68709   7.681  10.315   2.108 -2.2552 -2.1104  0.8948
  509MOL0     H68710   7.786  10.441   2.188  1.4333 -0.7059 -0.5921
  509MOL0     H68711   7.987  10.085   2.295 -0.8945 -1.1212  0.5554
  509MOL0     H68712   7.075  10.428   2.364  1.2205 -0.9350  1.3967
  509MOL0     H68713   6.796  10.600   2.438  0.6446  0.4191  0.5556
  509MOL0     H68714   6.875  10.444   2.444  0.2682 -0.4945 -1.3055
  509MOL0     H68715   6.851  10.533   2.593 -1.2206 -2.3336 -0.0159
  510MOL0     O68716   4.583   2.277   6.580  0.2478 -0.0181  0.6539
  510MOL0     C68717   4.551   2.249   6.696 -0.7855 -0.7963 -1.3077
  510MOL0     O68718   4.631   2.234   6.804  0.2014  0.7756  0.8410
  510MOL0     C68719   4.739   2.163   6.806 -0.1482  0.5010  0.9821
  510MOL0     C68720   4.817   2.177   6.921 -0.2672 -0.4969  0.6449
  510MOL0     C68721   4.942   2.114   6.925  0.0998 -0.8605 -0.1521
  510MOL0     C68722   4.980   2.030   6.819  0.2960  0.3095 -0.0644
  510MOL0     O68723   5.085   1.953   6.841 -0.0513 -0.2354 -0.3541
  510MOL0     C68724   5.091   1.812   6.810 -0.1527 -0.2290 -1.4926
  510MOL0     C68725   5.205   1.747   6.731 -0.5738 -0.0165  0.3228
  510MOL0     C68726   5.345   1.736   6.806  0.5755 -0.0667  0.6342
  510MOL0     C68727   5.349   1.601   6.887 -0.0121 -0.1292 -1.3900
  510MOL0     C68728   5.484   1.578   6.944  0.5703  0.1938 -0.4676
  510MOL0     C68729   5.589   1.557   6.835  0.2974 -0.2328 -0.3462
  510MOL0     C68730   5.718   1.503   6.899 -1.1943  0.1434  0.2122
  510MOL0     C68731   5.821   1.603   6.947 -0.7358 -0.2917 -0.4887
  510MOL0     N68732   5.935   1.550   7.038 -0.5609 -0.5733 -0.0441
  510MOL0     C68733   5.965   1.423   7.064  0.8154  0.2166  0.2613
  510MOL0     C68734   6.063   1.428   7.161  0.6534  0.7457  0.2680
  510MOL0     C68735   6.143   1.316   7.242  0.2586 -0.2227  0.5318
  510MOL0     C68736   6.055   1.271   7.360 -0.2254 -0.3289 -0.6582
  510MOL0     C68737   6.095   1.139   7.431  0.3102 -0.4330  0.1677
  510MOL0     C68738   6.230   1.161   7.504 -0.1340  0.1552  0.3523
  510MOL0     O68739   6.343   1.133   7.417  0.1065  0.1602 -0.0152
  510MOL0     C68740   6.468   1.168   7.457 -0.9555  0.5904 -0.0730
  510MOL0     C68741   6.504   1.204   7.583 -0.1288 -0.3650 -0.9668
  510MOL0     C68742   6.636   1.211   7.631 -0.0553 -0.1810  0.6076
  510MOL0     C68743   6.739   1.195   7.543 -0.7748  0.5263  0.6222
  510MOL0     C68744   6.883   1.197   7.586  0.5802  0.0314  0.1284
  510MOL0     O68745   6.902   1.260   7.698 -0.1448 -0.2857  0.0871
  510MOL0     C68746   7.031   1.290   7.750 -0.5605  0.1732  0.2436
  510MOL0     C68747   7.039   1.397   7.840  0.2004  0.8641 -0.4094
  510MOL0     C68748   7.165   1.437   7.898  0.5171  0.7849 -0.1569
  510MOL0     C68749   7.274   1.353   7.887  0.1163  0.7774  0.7049
  510MOL0     O68750   7.380   1.409   7.949 -0.0282  0.0216 -0.4344
  510MOL0     C68751   7.504   1.344   7.931  0.5810 -0.5976  0.6781
  510MOL0     C68752   7.612   1.428   7.986  0.1163 -0.0876  0.5504
  510MOL0     C68753   7.757   1.389   7.944  0.2128 -0.7206  0.7275
  510MOL0     C68754   7.852   1.495   8.000  0.1151 -0.0260 -0.5549
  510MOL0     C68755   7.997   1.464   7.972  0.4148  0.2013  0.2256
  510MOL0     C68756   8.081   1.551   8.069 -0.1582  0.1980 -0.0908
  510MOL0     C68757   8.233   1.542   8.035  0.2521  0.0591  0.7884
  510MOL0     C68758   8.278   1.633   7.922  0.4462  0.1797  0.9377
  510MOL0    Cl68759   8.446   1.663   7.962 -0.1157 -0.2085 -0.2458
  510MOL0     C68760   7.276   1.236   7.805  0.2834  0.0719  0.6083
  510MOL0     C68761   7.156   1.216   7.737  0.1685  0.0682 -0.1019
  510MOL0     O68762   6.972   1.149   7.515 -0.2336  0.6877 -0.2549
  510MOL0     C68763   6.704   1.153   7.409 -0.0825  0.5917  0.0040
  510MOL0     C68764   6.571   1.139   7.372  0.1993 -0.4504 -0.3584
  510MOL0     N68765   6.089   1.564   7.179 -0.3244  0.3367 -0.2140
  510MOL0     N68766   6.025   1.640   7.097  0.0423  0.2066 -0.6349
  510MOL0     C68767   4.901   2.011   6.701  0.1545  0.9897  0.6593
  510MOL0     C68768   4.786   2.092   6.696 -0.2296 -0.9462  0.7826
  510MOL0     C68769   4.408   2.256   6.735  0.0424 -0.1532  0.1719
  510MOL0     C68770   4.367   2.265   6.869  0.4631  0.1514 -0.3980
  510MOL0     C68771   4.232   2.262   6.908  0.4051 -0.3314 -0.4335
  510MOL0     C68772   4.131   2.251   6.816 -0.6154  0.2829  0.2799
  510MOL0     O68773   4.007   2.249   6.853  0.7164  0.5106 -1.1220
  510MOL0     C68774   3.958   2.381   6.883  1.1951 -0.0934  0.1263
  510MOL0     C68775   3.873   2.422   6.762  1.0453  0.2162  1.8844
  510MOL0     C68776   3.832   2.571   6.772 -0.4367  0.3121 -0.4825
  510MOL0     C68777   3.710   2.605   6.685 -0.0109  0.1575 -0.5495
  510MOL0     C68778   3.691   2.749   6.671  0.7270 -0.6243  0.8523
  510MOL0     C68779   3.647   2.865   6.654  0.1399  0.7570  0.0679
  510MOL0     C68780   4.166   2.244   6.681 -1.0183 -0.1302  0.1539
  510MOL0     C68781   4.301   2.238   6.640 -0.4418 -0.3214  0.1262
  510MOL0     C68782   4.330   2.234   6.499  0.4304  0.3584  0.2771
  510MOL0     H68783   4.773   2.221   7.010 -2.3829 -2.3308  0.5844
  510MOL0     H68784   5.006   2.127   7.011  0.8016  1.5988 -0.9633
  510MOL0     H68785   5.083   1.762   6.907  0.8161 -0.2145 -1.3941
  510MOL0     H68786   4.999   1.773   6.765 -0.7559 -0.3337 -0.2083
  510MOL0     H68787   5.218   1.813   6.645  2.8909 -2.1893 -1.0695
  510MOL0     H68788   5.173   1.647   6.701  0.3968 -0.3683  0.4326
  510MOL0     H68789   5.366   1.821   6.872 -1.3389 -1.8669  3.8256
  510MOL0     H68790   5.424   1.746   6.730  0.7560  0.6909  0.9157
  510MOL0     H68791   5.268   1.611   6.960 -1.1820 -1.3490 -2.4815
  510MOL0     H68792   5.327   1.515   6.823  0.8898 -0.9089 -0.6822
  510MOL0     H68793   5.501   1.650   7.024 -1.8422 -0.0869  0.4080
  510MOL0     H68794   5.473   1.486   7.001 -2.4023 -1.0764 -2.7578
  510MOL0     H68795   5.552   1.484   6.763 -4.0520  0.3297  0.9842
  510MOL0     H68796   5.604   1.655   6.788  0.4067 -0.7783 -1.4840
  510MOL0     H68797   5.766   1.438   6.825 -3.6800  0.5813 -1.9024
  510MOL0     H68798   5.688   1.427   6.972 -1.0679 -0.6495 -0.5433
  510MOL0     H68799   5.869   1.644   6.858  2.0987 -1.0193  0.5888
  510MOL0     H68800   5.765   1.680   6.999 -2.2742 -0.7329 -1.4416
  510MOL0     H68801   5.921   1.330   7.030  0.0371  0.5275  0.4092
  510MOL0     H68802   6.175   1.232   7.180  0.8147  0.2363  0.1870
  510MOL0     H68803   6.236   1.357   7.283  0.6182 -0.1693 -0.3035
  510MOL0     H68804   6.041   1.346   7.438 -1.2030 -2.4066  1.2527
  510MOL0     H68805   5.952   1.248   7.331 -1.7042  0.2951  3.4394
  510MOL0     H68806   6.097   1.049   7.369 -3.4990  0.0080 -0.8162
  510MOL0     H68807   6.014   1.124   7.504  0.4631  1.5244  0.7828
  510MOL0     H68808   6.237   1.107   7.599  2.5454  1.3216  0.9149
  510MOL0     H68809   6.227   1.268   7.526 -2.3764  0.1959  0.0548
  510MOL0     H68810   6.431   1.213   7.662  0.8289 -1.7409  0.1315
  510MOL0     H68811   6.652   1.231   7.737 -0.6155 -2.4132  1.1673
  510MOL0     H68812   6.946   1.447   7.866  1.1436  0.4837  4.9160
  510MOL0     H68813   7.170   1.531   7.951 -3.1409  0.5840  0.8343
  510MOL0     H68814   7.502   1.245   7.978  3.9539 -0.0503  2.2589
  510MOL0     H68815   7.530   1.334   7.825 -1.9548 -1.4316  0.0676
  510MOL0     H68816   7.594   1.534   7.966 -3.2648 -0.5034  0.7814
  510MOL0     H68817   7.614   1.412   8.094  0.7795  0.6027  0.6433
  510MOL0     H68818   7.778   1.290   7.985  2.2017 -0.7479 -0.2389
  510MOL0     H68819   7.767   1.399   7.836 -2.6186  0.4160  0.4902
  510MOL0     H68820   7.839   1.517   8.106 -0.6274  0.3718 -0.7264
  510MOL0     H68821   7.835   1.595   7.958  0.2697  1.3901  2.4862
  510MOL0     H68822   8.018   1.488   7.867 -2.7666 -0.6377 -0.7093
  510MOL0     H68823   8.010   1.361   8.005 -2.2125 -0.7645 -1.4596
  510MOL0     H68824   8.046   1.654   8.061 -4.4351 -1.1591 -0.9591
  510MOL0     H68825   8.074   1.522   8.174  1.9306 -0.5649 -0.0967
  510MOL0     H68826   8.265   1.442   8.002  0.5532 -0.0345  1.3557
  510MOL0     H68827   8.290   1.555   8.127  1.4021 -0.1662  0.1297
  510MOL0     H68828   8.277   1.571   7.832  0.9467 -0.6450  1.4906
  510MOL0     H68829   8.228   1.730   7.924 -2.2633 -1.1023  4.4249
  510MOL0     H68830   7.362   1.174   7.782 -1.0321 -0.7689 -2.6174
  510MOL0     H68831   7.152   1.136   7.663  1.5923 -0.2100  0.0963
  510MOL0     H68832   6.772   1.134   7.327 -1.3940 -0.4969 -0.8538
  510MOL0     H68833   6.554   1.081   7.281  1.4409 -1.3203 -0.0682
  510MOL0     H68834   4.930   1.949   6.617 -1.5539  0.5372  0.3595
  510MOL0     H68835   4.734   2.091   6.600 -0.2563 -1.3796  0.8023
  510MOL0     H68836   4.431   2.287   6.954 -0.7056  0.9729  0.3155
  510MOL0     H68837   4.207   2.275   7.013 -4.3030 -3.2274 -0.8848
  510MOL0     H68838   4.032   2.457   6.911 -0.1561  0.6960  1.7120
  510MOL0     H68839   3.891   2.377   6.970  1.4838  3.3314  0.6737
  510MOL0     H68840   3.785   2.358   6.768  1.9875 -1.2478  0.6924
  510MOL0     H68841   3.924   2.415   6.666  1.3158  1.7434  1.8832
  510MOL0     H68842   3.915   2.640   6.752 -0.4518 -0.0989 -2.0850
  510MOL0     H68843   3.803   2.589   6.876 -3.6861 -0.8945 -1.0765
  510MOL0     H68844   3.726   2.563   6.586  0.7420 -1.6344  0.2882
  510MOL0     H68845   3.622   2.549   6.719  1.3178 -0.6044  1.9135
  510MOL0     H68846   3.630   2.965   6.622 -0.8338  0.5303 -0.1551
  510MOL0     H68847   4.090   2.228   6.605 -0.0245 -1.0361 -0.6741
  510MOL0     H68848   4.364   2.332   6.463  1.9702 -0.3600 -0.2961
  510MOL0     H68849   4.402   2.153   6.487  1.1036  0.9928 -0.0180
  510MOL0     H68850   4.249   2.196   6.436 -2.8151  2.3524  2.8807
  511MOL0     O68851   7.544   7.876   8.685 -0.1177  0.5649  0.2077
  511MOL0     C68852   7.597   7.852   8.578  0.2694 -0.5932 -0.4198
  511MOL0     O68853   7.543   7.891   8.458  0.3358 -0.7019  0.9445
  511MOL0     C68854   7.409   7.944   8.462 -0.4500  0.1619  0.0960
  511MOL0     C68855   7.299   7.883   8.518 -0.2038  0.2363 -0.5030
  511MOL0     C68856   7.171   7.943   8.513 -0.2590  0.1745 -0.5756
  511MOL0     C68857   7.154   8.074   8.477  0.3283  0.3046 -0.4456
  511MOL0     O68858   7.033   8.125   8.470 -0.0557 -0.4619 -0.0846
  511MOL0     C68859   6.965   8.071   8.358  0.5264  0.1872  0.2434
  511MOL0     C68860   6.820   8.088   8.393  0.5018 -0.9780 -0.5142
  511MOL0     C68861   6.791   8.033   8.530 -0.1675  0.5044  0.1952
  511MOL0     C68862   6.738   8.150   8.624 -1.5510 -0.4802  0.5689
  511MOL0     C68863   6.695   8.117   8.776  0.0048 -0.0215 -0.2484
  511MOL0     C68864   6.805   8.069   8.873  0.2772 -0.0324 -0.2126
  511MOL0     C68865   6.811   7.920   8.884  0.6315 -0.5934 -0.4758
  511MOL0     C68866   6.879   7.893   9.016  0.0813 -0.0283  0.3395
  511MOL0     N68867   7.018   7.945   9.025  0.3414 -0.0216 -0.0722
  511MOL0     C68868   7.124   7.905   8.940 -0.9265 -0.2927 -0.1436
  511MOL0     C68869   7.223   7.996   8.973  0.1847  0.6713  0.0678
  511MOL0     C68870   7.356   7.985   8.912  0.0757 -0.1561  0.6727
  511MOL0     C68871   7.462   8.001   9.029 -0.3001 -0.4858  0.1408
  511MOL0     C68872   7.487   7.862   9.101  0.5131 -0.0669  0.5163
  511MOL0     C68873   7.622   7.853   9.182  0.2883 -0.2714 -0.7086
  511MOL0     O68874   7.642   7.707   9.206 -0.3634  0.2394 -0.4380
  511MOL0     C68875   7.771   7.670   9.242  0.2039  0.1776  0.4809
  511MOL0     C68876   7.879   7.758   9.266 -1.5192 -0.9579 -0.6994
  511MOL0     C68877   8.007   7.708   9.284 -0.8090 -0.3699  0.9971
  511MOL0     C68878   8.028   7.562   9.281 -0.0708 -0.1725 -0.3848
  511MOL0     C68879   8.165   7.500   9.302  0.3215  0.5403  0.1212
  511MOL0     O68880   8.169   7.366   9.346  0.2513  0.3412  0.9693
  511MOL0     C68881   8.285   7.288   9.355 -0.5100 -0.4370 -0.4978
  511MOL0     C68882   8.262   7.156   9.371  0.4797  0.1574  0.5593
  511MOL0     C68883   8.368   7.064   9.362  0.3627  0.2405 -0.5802
  511MOL0     C68884   8.499   7.101   9.362 -0.5262  0.0963 -0.5651
  511MOL0     O68885   8.598   7.010   9.360  0.3602 -0.1153  0.8596
  511MOL0     C68886   8.700   7.030   9.256  0.2515  0.3730  0.2502
  511MOL0     C68887   8.773   6.899   9.225  0.5200 -0.0911  1.1891
  511MOL0     C68888   8.729   6.816   9.103 -0.6137  0.2638 -0.4196
  511MOL0     C68889   8.583   6.775   9.120 -0.0299  0.1995 -0.3609
  511MOL0     C68890   8.521   6.672   9.024 -1.0166 -0.1209 -1.3648
  511MOL0     C68891   8.399   6.606   9.079  0.3047  0.7404 -0.4120
  511MOL0     C68892   8.426   6.502   9.191 -0.1657 -0.2511  0.2723
  511MOL0     C68893   8.310   6.400   9.222 -0.6508  0.1423  0.4309
  511MOL0    Cl68894   8.154   6.479   9.225  0.0759  0.2456  0.2359
  511MOL0     C68895   8.522   7.241   9.358 -0.4441  0.5581  0.1633
  511MOL0     C68896   8.419   7.336   9.347  0.0892  0.3317  0.1047
  511MOL0     O68897   8.264   7.570   9.278 -0.7033 -0.8219  0.0859
  511MOL0     C68898   7.912   7.483   9.263  0.6269 -0.7463 -0.5060
  511MOL0     C68899   7.788   7.535   9.240  0.0172 -0.1844 -0.6026
  511MOL0     N68900   7.175   8.081   9.069 -0.0578  0.3907 -0.1612
  511MOL0     N68901   7.056   8.056   9.098 -0.7046  0.3156  0.7302
  511MOL0     C68902   7.257   8.140   8.414 -0.6559  1.3315  0.6654
  511MOL0     C68903   7.384   8.074   8.397  0.9349 -0.5168 -0.1344
  511MOL0     C68904   7.733   7.788   8.571 -0.8681  1.0999 -0.0307
  511MOL0     C68905   7.796   7.763   8.441 -0.5401 -0.0641 -0.4193
  511MOL0     C68906   7.925   7.707   8.431 -0.1342  0.0036 -0.4205
  511MOL0     C68907   7.994   7.659   8.533 -0.0778 -0.2295  0.6423
  511MOL0     O68908   8.116   7.606   8.512  0.7134  0.1270  0.0321
  511MOL0     C68909   8.187   7.552   8.624 -0.5077  0.4873 -0.3757
  511MOL0     C68910   8.328   7.514   8.577  0.4437  0.4463 -0.4051
  511MOL0     C68911   8.296   7.377   8.508  0.1465 -0.3592 -0.0909
  511MOL0     C68912   8.399   7.319   8.400 -0.2007 -0.6007  0.5678
  511MOL0     C68913   8.447   7.407   8.296  0.2272 -0.4864  1.5200
  511MOL0     C68914   8.485   7.471   8.199 -0.0261 -0.8914  0.3700
  511MOL0     C68915   7.930   7.663   8.662  0.2884 -0.8386  0.1680
  511MOL0     C68916   7.809   7.739   8.685 -0.2482 -0.2927  0.0238
  511MOL0     C68917   7.759   7.749   8.832 -0.4382 -0.7052 -0.1621
  511MOL0     H68918   7.310   7.785   8.564  3.0061  0.3357 -0.8046
  511MOL0     H68919   7.093   7.876   8.549  1.7046 -2.1331 -0.3646
  511MOL0     H68920   6.999   8.117   8.264 -1.3375 -0.1592 -0.6465
  511MOL0     H68921   6.976   7.962   8.352  0.1873  0.1928 -0.5972
  511MOL0     H68922   6.752   8.043   8.320 -1.8779 -0.5684  1.3261
  511MOL0     H68923   6.787   8.192   8.382 -3.5260 -1.6532  2.5665
  511MOL0     H68924   6.877   7.984   8.576  0.4915 -0.0552 -1.5294
  511MOL0     H68925   6.710   7.960   8.534 -0.0600  0.3782  0.0949
  511MOL0     H68926   6.811   8.231   8.627 -1.8983 -0.1172 -0.4652
  511MOL0     H68927   6.656   8.196   8.567 -0.9235 -0.7315 -0.5490
  511MOL0     H68928   6.663   8.209   8.826 -2.0514 -0.1728 -1.1759
  511MOL0     H68929   6.604   8.056   8.772  0.0982 -0.0970 -2.7707
  511MOL0     H68930   6.903   8.111   8.846 -0.9164  1.1769 -3.1132
  511MOL0     H68931   6.779   8.107   8.972 -0.1006 -2.3636  0.6427
  511MOL0     H68932   6.867   7.870   8.804 -1.1198 -4.0081  0.2133
  511MOL0     H68933   6.711   7.877   8.892  0.0732  0.7542  0.0390
  511MOL0     H68934   6.820   7.937   9.097 -2.0638  0.7153 -1.5109
  511MOL0     H68935   6.878   7.784   9.024  2.6401 -0.1501 -0.1675
  511MOL0     H68936   7.123   7.836   8.856 -2.1985 -0.1183 -0.2842
  511MOL0     H68937   7.372   7.890   8.860 -1.6004 -0.7077  1.0762
  511MOL0     H68938   7.379   8.057   8.834 -0.4894  2.7760  3.0186
  511MOL0     H68939   7.553   8.045   8.985  0.3145  0.9727  2.6665
  511MOL0     H68940   7.430   8.078   9.099  0.3595 -0.5178  0.4843
  511MOL0     H68941   7.503   7.797   9.015  1.8884  1.4853 -0.4424
  511MOL0     H68942   7.397   7.843   9.161 -0.7482 -1.1584 -1.6358
  511MOL0     H68943   7.622   7.915   9.272  0.3753 -4.0378  2.1282
  511MOL0     H68944   7.692   7.890   9.106 -1.3268 -0.1931 -2.2194
  511MOL0     H68945   7.867   7.866   9.269  0.8267 -0.6760  2.0071
  511MOL0     H68946   8.091   7.769   9.314 -0.5680 -1.1621  2.0004
  511MOL0     H68947   8.164   7.114   9.392  1.6670 -1.3526  3.6006
  511MOL0     H68948   8.331   6.962   9.364  0.9034  0.0476  0.2286
  511MOL0     H68949   8.671   7.064   9.156 -0.2308  2.8714  1.1583
  511MOL0     H68950   8.778   7.096   9.295 -0.6812  0.4349  2.1159
  511MOL0     H68951   8.872   6.936   9.196 -1.5924  2.7445 -3.5000
  511MOL0     H68952   8.785   6.843   9.318  0.2663  0.2581  1.4363
  511MOL0     H68953   8.749   6.873   9.012  1.5091  0.4257  0.0861
  511MOL0     H68954   8.788   6.724   9.110 -2.1820 -0.6927  4.0724
  511MOL0     H68955   8.522   6.863   9.099 -0.6495  0.0717  0.7880
  511MOL0     H68956   8.565   6.748   9.225  2.1542 -0.5182 -0.1222
  511MOL0     H68957   8.596   6.592   9.013  0.4653  1.0360 -0.1306
  511MOL0     H68958   8.496   6.710   8.924  2.5928 -0.7300 -2.6614
  511MOL0     H68959   8.334   6.683   9.122  1.1181 -1.0391  4.6984
  511MOL0     H68960   8.348   6.547   9.003 -0.4294  0.1364  0.5188
  511MOL0     H68961   8.448   6.558   9.281  3.5749 -0.2115 -0.4958
  511MOL0     H68962   8.519   6.448   9.168 -0.0787  0.5928 -1.5996
  511MOL0     H68963   8.303   6.314   9.153 -0.4115 -1.1893  2.0044
  511MOL0     H68964   8.340   6.361   9.319 -0.3506  0.7658  0.5905
  511MOL0     H68965   8.627   7.266   9.361 -0.2574  0.2970 -2.2921
  511MOL0     H68966   8.437   7.443   9.351 -2.5828  0.8228  0.5749
  511MOL0     H68967   7.923   7.377   9.283  2.4681 -0.4203  0.3990
  511MOL0     H68968   7.696   7.479   9.228 -0.8164  0.2182  2.7596
  511MOL0     H68969   7.233   8.233   8.364 -2.4798  1.3133  1.4610
  511MOL0     H68970   7.465   8.131   8.352  1.2446 -0.3601  0.6091
  511MOL0     H68971   7.746   7.790   8.349 -1.3600 -0.6011 -0.1384
  511MOL0     H68972   7.971   7.685   8.335 -1.8933 -2.4405 -0.8132
  511MOL0     H68973   8.129   7.466   8.659 -0.0940 -0.7767 -2.5884
  511MOL0     H68974   8.196   7.638   8.690  0.5935  2.7282 -3.2416
  511MOL0     H68975   8.394   7.499   8.663 -1.2957  0.2677  0.9437
  511MOL0     H68976   8.367   7.595   8.514 -2.1943  0.1575 -2.6259
  511MOL0     H68977   8.202   7.389   8.453  1.1017  0.8799 -1.5552
  511MOL0     H68978   8.279   7.301   8.584  1.6871  0.7497  1.4425
  511MOL0     H68979   8.478   7.273   8.460  1.0395  0.7585  0.0201
  511MOL0     H68980   8.354   7.238   8.342 -0.7033  0.9065 -1.2239
  511MOL0     H68981   8.511   7.544   8.124 -1.2966 -0.8055 -0.0180
  511MOL0     H68982   7.984   7.632   8.751  4.7639 -0.5832 -2.2099
  511MOL0     H68983   7.714   7.657   8.871  1.3301 -1.4909  0.1437
  511MOL0     H68984   7.845   7.761   8.898 -2.0349 -1.5449  2.2035
  511MOL0     H68985   7.689   7.830   8.853  0.0210 -0.6512  1.2793
  512MOL0     O68986   9.319   2.850   0.623 -0.2800  0.1357  0.0197
  512MOL0     C68987   9.220   2.881   0.566  0.5636 -0.0512  0.0070
  512MOL0     O68988   9.204   2.957   0.456  0.2242 -0.5437  0.2272
  512MOL0     C68989   9.323   3.000   0.397 -0.0207 -0.1171  0.6791
  512MOL0     C68990   9.407   2.915   0.321  0.9587  0.7856 -0.6802
  512MOL0     C68991   9.512   2.976   0.250 -0.2512 -1.0165 -0.5936
  512MOL0     C68992   9.534   3.114   0.244  0.3865 -0.0160  0.1626
  512MOL0     O68993   9.636   3.166   0.170  0.8995  0.5835  0.0331
  512MOL0     C68994   9.683   3.305   0.179 -0.5607  0.0491 -0.4038
  512MOL0     C68995   9.813   3.311   0.084  0.4805 -0.6629  0.4805
  512MOL0     C68996   9.878   3.449   0.101  0.5131 -0.1469  0.7566
  512MOL0     C68997  10.018   3.440   0.045 -0.5210  0.4502  0.5543
  512MOL0     C68998  10.090   3.575   0.060  0.5258 -0.2216 -0.4106
  512MOL0     C68999  10.239   3.551   0.048 -1.6074  1.5454  1.7587
  512MOL0     C69000  10.313   3.652   0.128 -0.1511  1.0921  0.1285
  512MOL0     C69001  10.458   3.679   0.079 -0.2648  0.2963 -0.2097
  512MOL0     N69002  10.532   3.771   0.171 -0.6418  0.3048  0.9529
  512MOL0     C69003  10.647   3.734   0.251 -0.5017  0.5205  0.7316
  512MOL0     C69004  10.668   3.846   0.311  0.5127  0.2287 -0.2020
  512MOL0     C69005  10.789   3.874   0.402 -0.2846  0.4632  0.3914
  512MOL0     C69006  10.897   3.760   0.413 -0.3834 -0.6472 -0.6023
  512MOL0     C69007  11.014   3.779   0.514 -0.7124  0.6036  0.3830
  512MOL0     C69008  11.125   3.858   0.449 -0.0503  0.9510  0.5046
  512MOL0     O69009  11.214   3.772   0.374  0.7408 -0.2373 -0.4686
  512MOL0     C69010  11.297   3.841   0.291  0.1063 -0.1558 -0.9044
  512MOL0     C69011  11.259   3.902   0.169  0.2549  0.3923 -0.2516
  512MOL0     C69012  11.362   3.931   0.074 -0.0393  1.4110 -0.1913
  512MOL0     C69013  11.501   3.906   0.104 -0.5595  0.0770  0.3496
  512MOL0     C69014  11.600   3.895  -0.005 -0.1775  0.1134  0.2092
  512MOL0     O69015  11.719   3.826   0.024  0.8043  0.6321 -0.4397
  512MOL0     C69016  11.821   3.808  -0.056 -0.4529 -0.7243  1.1201
  512MOL0     C69017  11.797   3.710  -0.158 -0.5224 -0.7812 -0.0216
  512MOL0     C69018  11.914   3.675  -0.226  0.2968 -0.2629 -0.3968
  512MOL0     C69019  12.044   3.732  -0.204  0.3895 -0.1668  0.4981
  512MOL0     O69020  12.157   3.694  -0.277  0.3806  0.1908  0.0292
  512MOL0     C69021  12.151   3.598  -0.392  0.9415  0.0027 -0.2482
  512MOL0     C69022  12.237   3.664  -0.502 -0.2731  0.1595 -0.5844
  512MOL0     C69023  12.161   3.765  -0.580  0.7415  0.0790 -0.5689
  512MOL0     C69024  12.099   3.703  -0.707  0.5227  0.0656 -0.6423
  512MOL0     C69025  12.062   3.802  -0.820 -0.1574  0.6273 -0.3897
  512MOL0     C69026  11.938   3.883  -0.782  0.6371 -0.4765  0.8302
  512MOL0     C69027  11.809   3.803  -0.792  0.4415  0.0010  0.6631
  512MOL0     C69028  11.692   3.877  -0.732 -0.5771  0.5223  0.6612
  512MOL0    Cl69029  11.663   4.036  -0.809 -0.2320 -0.0695 -0.2196
  512MOL0     C69030  12.060   3.820  -0.096  0.8401  0.0913 -0.2503
  512MOL0     C69031  11.946   3.862  -0.021  0.3634 -0.0861  0.8869
  512MOL0     O69032  11.575   3.948  -0.115  0.3185  0.3906 -0.3329
  512MOL0     C69033  11.535   3.878   0.234 -0.2820  0.1842  0.5214
  512MOL0     C69034  11.435   3.836   0.325  0.8275 -0.4662  0.1409
  512MOL0     N69035  10.567   3.936   0.295 -0.1732  0.0757  0.5796
  512MOL0     N69036  10.484   3.892   0.214  1.1160 -0.5264 -0.1303
  512MOL0     C69037   9.441   3.195   0.307  0.0408 -0.5018 -0.5377
  512MOL0     C69038   9.337   3.141   0.388 -0.2007  0.0274 -0.2938
  512MOL0     C69039   9.096   2.836   0.644  0.5754 -0.3261  0.4151
  512MOL0     C69040   9.106   2.728   0.734 -0.5127  0.2366  0.6156
  512MOL0     C69041   9.012   2.699   0.827  0.6531  0.2718  0.3864
  512MOL0     C69042   8.894   2.775   0.843 -0.5761 -0.2351 -0.6109
  512MOL0     O69043   8.794   2.751   0.938  0.6713  0.0018 -0.1536
  512MOL0     C69044   8.734   2.625   0.928 -0.9384  0.2103  0.3498
  512MOL0     C69045   8.618   2.627   1.033 -0.6681 -0.6002  0.1080
  512MOL0     C69046   8.515   2.740   1.035 -0.6079 -0.8765  0.4345
  512MOL0     C69047   8.454   2.767   0.892  0.4638 -0.0053 -0.1142
  512MOL0     C69048   8.372   2.654   0.856  0.3344  0.3607  0.0131
  512MOL0     C69049   8.304   2.564   0.823 -0.0646  0.7757 -0.5778
  512MOL0     C69050   8.878   2.881   0.752 -0.1122  0.0027  0.6584
  512MOL0     C69051   8.982   2.912   0.651  1.2107  0.4991  1.3755
  512MOL0     C69052   8.962   3.037   0.563 -0.4764  0.8910  0.3664
  512MOL0     H69053   9.386   2.810   0.305 -1.8583  0.9786  1.1194
  512MOL0     H69054   9.588   2.924   0.192  0.9781  1.1552 -1.0096
  512MOL0     H69055   9.605   3.375   0.148  1.3668  2.9714  0.9934
  512MOL0     H69056   9.709   3.324   0.283  0.8911  1.0196 -0.9140
  512MOL0     H69057   9.762   3.297  -0.011 -0.1039 -1.7565  0.9446
  512MOL0     H69058   9.891   3.236   0.100  3.4291  1.9287 -0.6258
  512MOL0     H69059   9.884   3.475   0.207 -0.3017 -0.3259  0.8541
  512MOL0     H69060   9.826   3.530   0.048 -1.1229  1.1992  4.1161
  512MOL0     H69061  10.078   3.374   0.108 -0.1726 -0.1625 -0.3971
  512MOL0     H69062  10.023   3.410  -0.060  1.1225  0.6083  0.5557
  512MOL0     H69063  10.073   3.658  -0.009 -1.5314  1.5246  2.0303
  512MOL0     H69064  10.058   3.620   0.155  0.6875  0.8031 -0.8319
  512MOL0     H69065  10.265   3.451   0.084  0.9053  1.4617 -0.0494
  512MOL0     H69066  10.270   3.558  -0.057  1.5581  2.3830  2.6531
  512MOL0     H69067  10.302   3.621   0.232 -4.0973  0.5031 -0.3204
  512MOL0     H69068  10.260   3.747   0.116  1.4283  1.7917 -2.0983
  512MOL0     H69069  10.514   3.584   0.073  0.1684  0.4318  1.2019
  512MOL0     H69070  10.466   3.721  -0.021 -0.4264  1.5876  0.3030
  512MOL0     H69071  10.709   3.645   0.247 -2.3263 -0.8628  1.3868
  512MOL0     H69072  10.832   3.961   0.351 -2.4567 -1.6183 -6.0499
  512MOL0     H69073  10.757   3.909   0.500  2.3815 -0.6554  1.7739
  512MOL0     H69074  10.854   3.668   0.455 -0.2769 -1.3147 -1.8749
  512MOL0     H69075  10.938   3.740   0.313  0.2657 -2.7819  0.0282
  512MOL0     H69076  11.035   3.675   0.540 -1.7653 -0.2336 -1.8194
  512MOL0     H69077  10.978   3.827   0.605 -3.6985  3.2936 -1.9720
  512MOL0     H69078  11.171   3.910   0.533  1.4797 -1.2392  1.1227
  512MOL0     H69079  11.087   3.932   0.379 -0.7118  1.1333  1.0544
  512MOL0     H69080  11.157   3.913   0.133 -0.8489 -0.8016  2.2258
  512MOL0     H69081  11.337   3.949  -0.030  4.1751  0.4581 -1.5725
  512MOL0     H69082  11.695   3.680  -0.177 -1.2506  0.7424  1.3096
  512MOL0     H69083  11.915   3.588  -0.290  1.7149 -0.9534  0.5043
  512MOL0     H69084  12.200   3.505  -0.361  1.0164  0.1978  0.2256
  512MOL0     H69085  12.053   3.578  -0.437 -1.5744  3.1298  3.1774
  512MOL0     H69086  12.321   3.710  -0.449  0.0209 -0.2407 -0.7045
  512MOL0     H69087  12.285   3.590  -0.566 -0.8775  1.3937 -2.5513
  512MOL0     H69088  12.086   3.818  -0.521  1.0491  2.5751 -2.2444
  512MOL0     H69089  12.231   3.844  -0.610 -0.4354  1.0851 -0.7557
  512MOL0     H69090  12.011   3.643  -0.684  2.9242 -2.6670  2.3709
  512MOL0     H69091  12.172   3.629  -0.743  0.6503 -0.6227  0.9623
  512MOL0     H69092  12.059   3.746  -0.914 -1.8466  0.2777 -0.1501
  512MOL0     H69093  12.137   3.881  -0.830  0.6000  0.1409  1.1443
  512MOL0     H69094  11.958   3.933  -0.687  1.6247 -2.6753  1.8404
  512MOL0     H69095  11.921   3.964  -0.854  0.3417 -2.0476 -0.9656
  512MOL0     H69096  11.819   3.711  -0.734 -3.6463 -0.1942  1.3295
  512MOL0     H69097  11.799   3.771  -0.896  2.5224  0.8160  0.1726
  512MOL0     H69098  11.604   3.816  -0.753  1.3819 -1.2739 -3.7269
  512MOL0     H69099  11.700   3.898  -0.625  0.2765  1.8087  0.3741
  512MOL0     H69100  12.158   3.858  -0.070  0.4987  1.4151 -0.8252
  512MOL0     H69101  11.961   3.933   0.059  1.3745  0.3132  0.3504
  512MOL0     H69102  11.640   3.881   0.259 -0.4504  0.3894  1.2304
  512MOL0     H69103  11.462   3.801   0.424 -0.7549  2.1583  1.5941
  512MOL0     H69104   9.452   3.303   0.306 -0.5725 -0.4320 -0.2705
  512MOL0     H69105   9.264   3.208   0.433  0.0240 -1.6024  2.7744
  512MOL0     H69106   9.189   2.657   0.732 -0.9763 -0.3833 -2.3804
  512MOL0     H69107   9.030   2.608   0.884  2.0569  1.5799  2.1557
  512MOL0     H69108   8.807   2.554   0.968  0.1491  2.4167  2.6377
  512MOL0     H69109   8.687   2.597   0.833 -3.0244 -1.7497  1.8348
  512MOL0     H69110   8.670   2.627   1.130  1.5176 -0.1078 -1.0100
  512MOL0     H69111   8.561   2.535   1.021 -3.1471  1.0249 -1.6197
  512MOL0     H69112   8.573   2.831   1.057 -1.9971  0.5822 -1.6004
  512MOL0     H69113   8.442   2.719   1.114 -1.1253  0.8165  0.4440
  512MOL0     H69114   8.396   2.859   0.895  1.5998  0.7215  0.2352
  512MOL0     H69115   8.529   2.783   0.814 -0.0653 -2.3988 -1.2121
  512MOL0     H69116   8.250   2.477   0.792 -2.0551  1.2327  1.3462
  512MOL0     H69117   8.800   2.954   0.771  1.1953  0.5330  5.5978
  512MOL0     H69118   8.941   3.006   0.460 -1.3113 -1.4281  1.1750
  512MOL0     H69119   8.890   3.112   0.599  0.3087  0.8192  2.1608
  512MOL0     H69120   9.053   3.098   0.562  1.8642 -2.3868 -0.5997
  513MOL0     O69121   9.665   3.476   9.431  0.4569  0.4231  0.0498
  513MOL0     C69122   9.613   3.369   9.456 -0.8463  0.8857  0.7336
  513MOL0     O69123   9.665   3.249   9.409 -0.4622 -0.1253 -0.6979
  513MOL0     C69124   9.738   3.247   9.303  0.7651  0.0417 -0.0469
  513MOL0     C69125   9.862   3.187   9.311 -0.7224  0.9542  0.0845
  513MOL0     C69126   9.957   3.208   9.204 -0.4997  0.5450 -0.6939
  513MOL0     C69127   9.907   3.277   9.092 -1.2933  0.4830 -0.1752
  513MOL0     O69128   9.990   3.300   8.988  0.2616 -0.6076  0.3282
  513MOL0     C69129  10.111   3.371   9.029  0.6500 -0.3904  0.3366
  513MOL0     C69130  10.183   3.415   8.903  0.4164 -0.7465  0.0790
  513MOL0     C69131  10.332   3.445   8.940  0.0445 -0.2799  0.3182
  513MOL0     C69132  10.345   3.593   8.995  0.7603 -1.0532 -0.8812
  513MOL0     C69133  10.479   3.647   9.028  0.0434 -0.0854  0.0342
  513MOL0     C69134  10.555   3.684   8.894  0.1836  0.7559 -0.2122
  513MOL0     C69135  10.708   3.680   8.921 -0.8064 -0.8298 -0.2360
  513MOL0     C69136  10.751   3.808   8.995 -1.0545 -0.6702  0.4314
  513MOL0     N69137  10.887   3.848   8.964 -1.3500  0.9676 -0.2991
  513MOL0     C69138  10.992   3.761   8.961  0.5119  0.0764 -0.1915
  513MOL0     C69139  11.089   3.831   8.883 -0.4582  1.0673 -0.6186
  513MOL0     C69140  11.224   3.781   8.834  0.0458 -0.4620  0.1027
  513MOL0     C69141  11.321   3.789   8.947 -0.7032  0.0670  0.3726
  513MOL0     C69142  11.443   3.715   8.919 -0.2643  0.2989  0.2171
  513MOL0     C69143  11.521   3.693   9.041 -0.0829 -0.0197 -1.1932
  513MOL0     O69144  11.586   3.823   9.078  0.7544 -1.1232 -0.4805
  513MOL0     C69145  11.713   3.818   9.141 -0.3039  0.2810 -0.1911
  513MOL0     C69146  11.801   3.914   9.121  1.1316 -0.6174  0.0972
  513MOL0     C69147  11.926   3.923   9.193 -0.7627  0.2819  1.2449
  513MOL0     C69148  11.956   3.819   9.289 -0.4855 -0.0082  0.1200
  513MOL0     C69149  12.073   3.819   9.375 -0.4635 -0.4212 -0.6731
  513MOL0     O69150  12.087   3.716   9.474 -0.0838  0.4140  0.0829
  513MOL0     C69151  12.197   3.720   9.556  0.0488 -0.6431 -0.1576
  513MOL0     C69152  12.268   3.599   9.582  0.3917  0.1970  0.6892
  513MOL0     C69153  12.357   3.594   9.690  0.3270 -0.3558  0.3571
  513MOL0     C69154  12.400   3.712   9.758 -0.4253  0.5028  0.9197
  513MOL0     O69155  12.505   3.705   9.848 -0.0381  0.3057 -0.2871
  513MOL0     C69156  12.525   3.821   9.923  0.3629 -0.3283  0.6753
  513MOL0     C69157  12.619   3.808  10.034 -0.1656  0.3701  0.1102
  513MOL0     C69158  12.609   3.935  10.120  0.1824 -1.1744 -0.5364
  513MOL0     C69159  12.734   3.963  10.199  0.8777 -0.3581 -0.8659
  513MOL0     C69160  12.784   3.848  10.288  0.5064 -0.4561 -0.9015
  513MOL0     C69161  12.688   3.830  10.407  0.5943  0.2722 -1.0932
  513MOL0     C69162  12.703   3.702  10.488  0.3487  0.1734 -0.5671
  513MOL0     C69163  12.647   3.707  10.629 -1.1236 -0.3588  0.2691
  513MOL0    Cl69164  12.507   3.828  10.648 -0.1032 -0.4272 -0.0951
  513MOL0     C69165  12.338   3.833   9.723  0.0723 -0.1626  1.0761
  513MOL0     C69166  12.233   3.837   9.627  0.2755 -0.5261 -0.1537
  513MOL0     O69167  12.158   3.905   9.347 -0.6644  0.0307 -0.1503
  513MOL0     C69168  11.857   3.722   9.302  0.0157 -0.6109  0.3653
  513MOL0     C69169  11.740   3.726   9.235  0.6300  0.3435 -0.1476
  513MOL0     N69170  11.036   3.956   8.848 -0.1571 -0.2167  0.0180
  513MOL0     N69171  10.915   3.954   8.891 -0.3980 -1.1650  0.2234
  513MOL0     C69172   9.777   3.321   9.073  0.0662  0.1503 -1.0189
  513MOL0     C69173   9.696   3.317   9.188 -0.3056 -0.3311  0.6189
  513MOL0     C69174   9.508   3.383   9.558 -0.3027 -0.6434 -0.6569
  513MOL0     C69175   9.433   3.498   9.545  0.3020  0.4321 -0.2035
  513MOL0     C69176   9.326   3.514   9.641  0.9789  0.4369 -0.4228
  513MOL0     C69177   9.291   3.411   9.727  0.0801 -0.1662 -0.7712
  513MOL0     O69178   9.176   3.399   9.800 -0.2968  0.3163 -0.6186
  513MOL0     C69179   9.083   3.503   9.798  0.8124  0.2903  0.1382
  513MOL0     C69180   8.958   3.477   9.888 -0.3464  0.3295  0.0808
  513MOL0     C69181   8.874   3.611   9.910  0.6803 -0.4126 -0.4809
  513MOL0     C69182   8.740   3.585  10.000 -0.6458  0.4987  0.0372
  513MOL0     C69183   8.773   3.568  10.150  0.6806  0.2427 -0.6957
  513MOL0     C69184   8.802   3.551  10.271  0.7812  0.9143  0.2446
  513MOL0     C69185   9.391   3.319   9.752  0.1787  0.8379 -0.4075
  513MOL0     C69186   9.502   3.304   9.671 -0.0089 -0.2081  0.4833
  513MOL0     C69187   9.603   3.197   9.699 -0.5053 -0.1683 -0.1338
  513MOL0     H69188   9.883   3.135   9.404 -2.7644 -0.3440 -0.1132
  513MOL0     H69189  10.059   3.172   9.209  0.3729  2.5554 -2.2682
  513MOL0     H69190  10.074   3.454   9.089  2.7894  0.0142  1.1605
  513MOL0     H69191  10.176   3.307   9.089 -1.5886 -0.6516  2.6537
  513MOL0     H69192  10.135   3.508   8.870  0.6811  0.3748  2.6147
  513MOL0     H69193  10.167   3.333   8.833 -0.3955  0.7323 -1.5537
  513MOL0     H69194  10.386   3.440   8.845 -1.4836 -0.3151 -0.5824
  513MOL0     H69195  10.376   3.368   9.004 -0.9851 -0.9306  0.2656
  513MOL0     H69196  10.301   3.667   8.927 -0.6288 -0.4339  0.6328
  513MOL0     H69197  10.279   3.593   9.082 -1.0716 -2.1744 -2.1767
  513MOL0     H69198  10.473   3.740   9.084  0.5202  1.5735 -2.5163
  513MOL0     H69199  10.538   3.579   9.090 -0.4278 -2.5454 -2.0133
  513MOL0     H69200  10.526   3.623   8.808 -1.2633  1.4646 -0.2495
  513MOL0     H69201  10.523   3.785   8.869 -1.5287  0.4400  0.5967
  513MOL0     H69202  10.751   3.681   8.821 -0.4519  2.8985 -0.1907
  513MOL0     H69203  10.746   3.591   8.973  0.6304  0.7542  1.6162
  513MOL0     H69204  10.689   3.897   8.977  0.5758  0.1151 -1.5491
  513MOL0     H69205  10.739   3.784   9.101  0.4442 -1.2045  0.5035
  513MOL0     H69206  10.981   3.660   9.000  1.4178 -0.4721 -1.2645
  513MOL0     H69207  11.217   3.680   8.794 -0.0794  0.2663 -1.8301
  513MOL0     H69208  11.261   3.847   8.755  0.0108 -0.5689 -0.0034
  513MOL0     H69209  11.338   3.895   8.969  1.7527 -0.4837  1.4371
  513MOL0     H69210  11.278   3.758   9.043  1.2371 -2.0109  0.6617
  513MOL0     H69211  11.512   3.754   8.843  0.1105 -4.2914 -2.1739
  513MOL0     H69212  11.415   3.615   8.884  0.5804  0.1480 -0.0730
  513MOL0     H69213  11.585   3.606   9.025 -0.3912  0.0307 -2.9348
  513MOL0     H69214  11.454   3.669   9.124  1.8722 -3.3326 -0.4169
  513MOL0     H69215  11.776   4.000   9.059  3.2902  0.4416  0.6136
  513MOL0     H69216  11.993   4.005   9.170 -0.2633 -0.1484  1.1397
  513MOL0     H69217  12.236   3.497   9.560  1.7528 -0.7577  2.8336
  513MOL0     H69218  12.405   3.507   9.734 -2.0805 -0.2234  3.5420
  513MOL0     H69219  12.569   3.900   9.862 -0.0568 -1.8660 -1.7262
  513MOL0     H69220  12.433   3.852   9.973  0.6285  1.2467  0.2330
  513MOL0     H69221  12.610   3.719  10.096  0.6813 -1.5322 -2.3395
  513MOL0     H69222  12.721   3.809   9.996  1.0321  1.4120  3.0366
  513MOL0     H69223  12.584   4.019  10.055 -0.8805 -0.4767  0.7190
  513MOL0     H69224  12.525   3.919  10.189 -1.5051  1.0217 -1.9369
  513MOL0     H69225  12.719   4.055  10.255  0.8173 -1.2118  0.5735
  513MOL0     H69226  12.816   3.972  10.128  0.6484 -1.9059 -1.3666
  513MOL0     H69227  12.887   3.871  10.318 -0.4033  2.8346  0.2004
  513MOL0     H69228  12.783   3.762  10.221 -2.0636 -2.1095  1.0585
  513MOL0     H69229  12.700   3.914  10.475 -0.3033  0.1715 -0.7978
  513MOL0     H69230  12.586   3.838  10.369  0.5003  0.1613 -0.8662
  513MOL0     H69231  12.807   3.679  10.512  0.7678  2.8537  0.5403
  513MOL0     H69232  12.665   3.617  10.430  1.8498 -0.1504 -1.1291
  513MOL0     H69233  12.620   3.605  10.660  3.3414 -1.3481  1.5982
  513MOL0     H69234  12.716   3.748  10.702 -3.1788  0.1037  2.0395
  513MOL0     H69235  12.367   3.929   9.766  1.1379 -0.6381  1.4643
  513MOL0     H69236  12.175   3.926   9.608 -1.5902 -1.8940 -1.2967
  513MOL0     H69237  11.883   3.646   9.375  2.4276  0.3681  0.6202
  513MOL0     H69238  11.663   3.651   9.252  0.5072  1.2291  4.1133
  513MOL0     H69239   9.740   3.372   8.984  1.6033  1.5378 -0.9292
  513MOL0     H69240   9.597   3.360   9.175  0.8013  1.5187 -2.8296
  513MOL0     H69241   9.456   3.562   9.460 -0.9392 -0.8742 -1.6005
  513MOL0     H69242   9.261   3.601   9.631 -0.2057 -0.0936  1.8001
  513MOL0     H69243   9.053   3.524   9.695  1.0148 -3.0646 -0.7179
  513MOL0     H69244   9.127   3.597   9.832  0.4855  0.8036 -0.8375
  513MOL0     H69245   8.999   3.443   9.984  1.3209  0.7140 -0.4590
  513MOL0     H69246   8.901   3.394   9.845  1.0647 -2.1068  2.5624
  513MOL0     H69247   8.846   3.650   9.811 -0.3935  0.5455  0.1725
  513MOL0     H69248   8.933   3.694   9.951 -1.7279  1.7162 -1.0666
  513MOL0     H69249   8.668   3.666  10.005  0.9628  1.9272  2.1074
  513MOL0     H69250   8.692   3.495   9.960  2.9598 -1.3433 -0.5757
  513MOL0     H69251   8.804   3.556  10.378  0.4682  2.5578  0.1999
  513MOL0     H69252   9.384   3.257   9.841 -0.8279  1.9557  0.3171
  513MOL0     H69253   9.587   3.167   9.803 -2.5756 -3.1403 -1.1768
  513MOL0     H69254   9.596   3.109   9.634  0.7445  1.1724 -2.1825
  513MOL0     H69255   9.700   3.242   9.676  0.2469 -1.7802 -0.2161
  514MOL0     O69256   6.729   4.551   1.441  0.6987  0.5118  0.2085
  514MOL0     C69257   6.613   4.591   1.477  0.1791  0.0788  0.5560
  514MOL0     O69258   6.579   4.636   1.606 -1.0686  0.1860  0.6330
  514MOL0     C69259   6.682   4.643   1.692  0.0475  0.5214 -0.0007
  514MOL0     C69260   6.697   4.538   1.782 -0.9419  0.5106  0.4542
  514MOL0     C69261   6.801   4.553   1.886  0.3676  0.7711  0.0474
  514MOL0     C69262   6.879   4.674   1.888 -0.7121  0.1266 -0.4657
  514MOL0     O69263   6.971   4.705   1.984  0.0658  0.3498 -0.2419
  514MOL0     C69264   6.999   4.628   2.094 -0.3603 -0.2015  0.3874
  514MOL0     C69265   7.080   4.707   2.199  0.9732  0.4602 -0.0196
  514MOL0     C69266   7.194   4.784   2.139  0.0860  0.0115  0.4290
  514MOL0     C69267   7.305   4.704   2.065 -0.5982  0.4056  0.4311
  514MOL0     C69268   7.429   4.781   2.082 -1.0452 -0.3230  1.1555
  514MOL0     C69269   7.558   4.723   2.016  0.4211  0.1785 -0.5868
  514MOL0     C69270   7.534   4.653   1.875  0.6163 -0.0262 -0.2318
  514MOL0     C69271   7.668   4.596   1.821 -0.7265  0.3702  0.2142
  514MOL0     N69272   7.761   4.704   1.752  0.0125  1.2001 -0.3344
  514MOL0     C69273   7.847   4.795   1.813 -0.2931 -0.2814 -0.7997
  514MOL0     C69274   7.863   4.885   1.712  0.5852  0.3431 -0.0446
  514MOL0     C69275   7.947   5.009   1.711 -0.6262  0.6447  0.3786
  514MOL0     C69276   8.091   4.978   1.751  0.3162 -0.4345 -0.0638
  514MOL0     C69277   8.178   5.109   1.776 -0.3696 -0.0889 -0.8411
  514MOL0     C69278   8.316   5.058   1.818 -0.2235 -0.7110  0.6724
  514MOL0     O69279   8.385   5.169   1.863  0.4002 -1.0065 -0.3939
  514MOL0     C69280   8.496   5.134   1.934  0.1071 -0.0040  0.3635
  514MOL0     C69281   8.511   5.191   2.055  0.3150  0.6144  0.1322
  514MOL0     C69282   8.628   5.182   2.135  1.2556  0.4722 -0.0032
  514MOL0     C69283   8.729   5.095   2.091  0.4691 -0.0088 -0.7979
  514MOL0     C69284   8.848   5.065   2.177  0.6334  0.3909  0.4591
  514MOL0     O69285   8.934   4.978   2.123 -0.0035  0.4946 -0.4411
  514MOL0     C69286   9.060   4.967   2.182 -0.1760 -0.0923 -0.1565
  514MOL0     C69287   9.162   5.067   2.162  0.2565  0.3718 -0.1062
  514MOL0     C69288   9.294   5.038   2.212  0.4417 -0.2650  0.4415
  514MOL0     C69289   9.321   4.928   2.292  0.5276 -0.0326  1.1390
  514MOL0     O69290   9.441   4.912   2.354 -0.0133 -0.0342  0.0404
  514MOL0     C69291   9.419   4.954   2.491  0.2925 -1.2587  0.6536
  514MOL0     C69292   9.550   4.913   2.556 -0.5787  0.3295 -1.6620
  514MOL0     C69293   9.538   4.769   2.606  0.2668 -0.5669  0.7062
  514MOL0     C69294   9.671   4.704   2.622  0.2266  0.3120 -0.1834
  514MOL0     C69295   9.656   4.565   2.681  0.1086  0.6356 -0.3988
  514MOL0     C69296   9.703   4.548   2.824 -0.4423 -0.4254  0.0722
  514MOL0     C69297   9.857   4.551   2.840  0.3172  0.3317  0.2544
  514MOL0     C69298   9.924   4.614   2.960  1.0375  0.7739 -0.1663
  514MOL0    Cl69299   9.932   4.507   3.096  0.0199  0.2252 -0.0861
  514MOL0     C69300   9.218   4.841   2.321 -0.3363  0.1852 -0.3211
  514MOL0     C69301   9.092   4.855   2.261  0.8533  0.2557  0.3609
  514MOL0     O69302   8.869   5.134   2.275  0.5318 -0.6900  0.5983
  514MOL0     C69303   8.718   5.041   1.954 -0.3989 -0.2780  0.1810
  514MOL0     C69304   8.601   5.054   1.877 -0.1007  0.0982  0.2170
  514MOL0     N69305   7.784   4.855   1.600  0.2151 -0.2195 -0.3723
  514MOL0     N69306   7.723   4.747   1.632 -0.0699 -0.0604  0.6972
  514MOL0     C69307   6.864   4.768   1.790  0.1797  0.0494 -0.5080
  514MOL0     C69308   6.766   4.758   1.699 -1.4800  0.0659  0.2244
  514MOL0     C69309   6.500   4.582   1.374 -0.1853 -0.2168  0.5921
  514MOL0     C69310   6.388   4.674   1.383 -0.0350  0.8406  1.3190
  514MOL0     C69311   6.287   4.668   1.298  1.4367 -0.5083  1.2339
  514MOL0     C69312   6.291   4.588   1.185 -0.0505  0.0552  0.7497
  514MOL0     O69313   6.205   4.581   1.077  0.8523 -0.0915  0.0642
  514MOL0     C69314   6.117   4.687   1.045  0.4567  0.1276 -0.0330
  514MOL0     C69315   5.971   4.639   1.073  0.5025  0.2916  0.2492
  514MOL0     C69316   5.929   4.605   1.213  0.4777 -0.0757 -0.2506
  514MOL0     C69317   5.875   4.457   1.215 -0.7908 -0.6309 -0.6982
  514MOL0     C69318   5.835   4.418   1.350 -0.1837  0.4749  0.8760
  514MOL0     C69319   5.800   4.383   1.459 -0.9283 -0.4131 -0.4374
  514MOL0     C69320   6.397   4.491   1.171  0.3928 -0.9487 -0.3210
  514MOL0     C69321   6.500   4.491   1.271  0.1229  0.0655 -0.7449
  514MOL0     C69322   6.600   4.388   1.254  0.9038 -0.6905 -0.5527
  514MOL0     H69323   6.637   4.448   1.778  2.1792 -1.7403  1.0996
  514MOL0     H69324   6.816   4.483   1.968  0.7898  0.1521 -0.5504
  514MOL0     H69325   6.912   4.606   2.157 -0.3632  2.3325  1.3945
  514MOL0     H69326   7.057   4.541   2.065  4.9459  3.0574 -0.1207
  514MOL0     H69327   7.112   4.630   2.270  1.0379 -0.1032 -0.6553
  514MOL0     H69328   7.015   4.780   2.248  0.4046 -0.3894  0.5410
  514MOL0     H69329   7.240   4.849   2.215 -0.3218 -1.9928  2.4880
  514MOL0     H69330   7.155   4.854   2.065 -0.5612  1.3686  1.9894
  514MOL0     H69331   7.310   4.605   2.111 -1.3870 -0.3182 -0.9474
  514MOL0     H69332   7.271   4.697   1.961  2.0911  0.1572 -0.4978
  514MOL0     H69333   7.410   4.876   2.031 -2.0598 -0.0027  2.0823
  514MOL0     H69334   7.455   4.801   2.187  2.9150 -0.0239  0.2753
  514MOL0     H69335   7.626   4.808   2.008 -1.9224  2.2094 -0.2086
  514MOL0     H69336   7.611   4.656   2.084 -1.7148  0.4808  1.5399
  514MOL0     H69337   7.502   4.732   1.806 -1.7794 -0.9941 -0.3065
  514MOL0     H69338   7.458   4.576   1.888 -1.6459  2.2592  1.0208
  514MOL0     H69339   7.725   4.544   1.899  2.5782  1.1600 -1.4714
  514MOL0     H69340   7.646   4.520   1.745  1.1034  2.1048 -2.1901
  514MOL0     H69341   7.892   4.792   1.912 -2.4428 -1.1789  0.2159
  514MOL0     H69342   7.939   5.056   1.612 -4.0152  1.0878  0.7532
  514MOL0     H69343   7.901   5.080   1.780  2.3745  3.2102 -0.0028
  514MOL0     H69344   8.098   4.902   1.830 -1.3536 -2.4157 -1.7029
  514MOL0     H69345   8.143   4.928   1.669 -0.6420 -0.1061 -0.8941
  514MOL0     H69346   8.134   5.184   1.842  1.2847  0.3808 -0.2400
  514MOL0     H69347   8.181   5.160   1.680  0.3394 -0.8759 -1.2465
  514MOL0     H69348   8.371   5.013   1.734  0.0931 -0.3098  0.6579
  514MOL0     H69349   8.303   4.977   1.890 -0.7075 -0.7862  0.5004
  514MOL0     H69350   8.429   5.254   2.090 -2.0251 -0.8058 -2.3685
  514MOL0     H69351   8.633   5.240   2.226  2.5189  1.9066 -0.9285
  514MOL0     H69352   9.138   5.155   2.102  0.7830 -0.8193 -2.1713
  514MOL0     H69353   9.364   5.121   2.211 -0.2874  0.3805 -1.1651
  514MOL0     H69354   9.425   5.063   2.489  1.2132 -1.2970 -1.4338
  514MOL0     H69355   9.328   4.923   2.544 -0.4933  1.4424  1.0612
  514MOL0     H69356   9.632   4.925   2.486 -1.7792 -0.0808 -3.1909
  514MOL0     H69357   9.568   4.982   2.640 -1.4613 -0.2674 -0.9665
  514MOL0     H69358   9.479   4.782   2.697 -2.1043  2.6501 -1.0991
  514MOL0     H69359   9.475   4.714   2.536 -2.6245  1.8445  1.1777
  514MOL0     H69360   9.728   4.767   2.691  0.5540 -0.8823  0.6751
  514MOL0     H69361   9.722   4.700   2.525  0.0163  0.8525 -0.3155
  514MOL0     H69362   9.717   4.494   2.624  0.0410 -2.0188  2.5794
  514MOL0     H69363   9.554   4.527   2.679  0.3382 -0.7576  3.8894
  514MOL0     H69364   9.666   4.636   2.877  0.2583 -0.4622  0.6304
  514MOL0     H69365   9.673   4.454   2.872 -0.2289 -1.3632 -1.5615
  514MOL0     H69366   9.902   4.594   2.751 -0.6260  3.9804  1.3743
  514MOL0     H69367   9.877   4.443   2.841  0.7860  0.4168  0.0395
  514MOL0     H69368  10.021   4.663   2.942 -0.5955  3.8890 -1.3274
  514MOL0     H69369   9.858   4.695   2.992 -0.0081  0.8919 -2.4152
  514MOL0     H69370   9.241   4.763   2.393 -0.9676 -0.5956 -0.9594
  514MOL0     H69371   9.016   4.777   2.266 -0.3212  1.2423 -1.1629
  514MOL0     H69372   8.804   4.985   1.922 -0.6098  0.1092 -1.1065
  514MOL0     H69373   8.602   5.006   1.779 -1.7520 -0.2241  0.3161
  514MOL0     H69374   6.936   4.849   1.789 -0.3367  0.5305  0.1451
  514MOL0     H69375   6.757   4.843   1.632 -0.7665 -1.1955 -1.5635
  514MOL0     H69376   6.380   4.726   1.478 -3.0432  0.5617  1.3076
  514MOL0     H69377   6.201   4.735   1.300  0.7633 -1.1357 -1.7049
  514MOL0     H69378   6.116   4.703   0.937  0.5535  0.8243  0.0679
  514MOL0     H69379   6.143   4.781   1.093 -1.5838  1.3491 -1.1257
  514MOL0     H69380   5.960   4.556   1.003 -0.2900  2.5104 -2.4292
  514MOL0     H69381   5.908   4.720   1.033  0.7019  1.3449  1.9600
  514MOL0     H69382   5.844   4.666   1.243 -0.6063 -1.9107  0.6032
  514MOL0     H69383   6.004   4.615   1.291  2.3793 -0.4453 -1.9474
  514MOL0     H69384   5.787   4.443   1.152 -1.7526 -1.4872  0.7614
  514MOL0     H69385   5.947   4.381   1.185  1.4001  1.2811 -0.5840
  514MOL0     H69386   5.780   4.349   1.559  3.1162 -1.9739  0.0196
  514MOL0     H69387   6.402   4.433   1.079  0.2421  0.7098 -1.4218
  514MOL0     H69388   6.559   4.313   1.185 -1.6659  0.4677 -0.3956
  514MOL0     H69389   6.682   4.439   1.202 -0.2109  1.5289 -0.2370
  514MOL0     H69390   6.627   4.345   1.351 -0.5002 -3.6390 -1.3608
  515MOL0     O69391   9.119  11.212   7.200  0.1156 -0.1473  0.2510
  515MOL0     C69392   9.110  11.328   7.238  0.8672  0.2284 -0.0686
  515MOL0     O69393   9.207  11.400   7.301  0.5581 -0.3116 -0.0697
  515MOL0     C69394   9.333  11.350   7.310  0.0796  0.4711  1.0721
  515MOL0     C69395   9.382  11.323   7.436  0.6546  0.7549  0.1395
  515MOL0     C69396   9.511  11.282   7.453 -0.4346  0.8005  0.7632
  515MOL0     C69397   9.599  11.266   7.335  0.6242  0.1099  0.1444
  515MOL0     O69398   9.729  11.240   7.342  0.3692  0.3462 -0.1033
  515MOL0     C69399   9.792  11.208   7.470  0.1220  0.3079  0.8641
  515MOL0     C69400   9.933  11.150   7.454  0.2337  0.7888 -0.2740
  515MOL0     C69401   9.925  10.997   7.419  0.2043  0.6446 -0.3657
  515MOL0     C69402  10.061  10.919   7.446 -0.1156 -0.7266 -0.0416
  515MOL0     C69403  10.041  10.769   7.427  0.3318  0.1285  0.3900
  515MOL0     C69404   9.977  10.700   7.543 -0.0021 -0.1144  0.2733
  515MOL0     C69405  10.076  10.700   7.669 -0.5964 -0.1480  0.4813
  515MOL0     C69406  10.180  10.597   7.652 -0.4310 -0.7965  0.0116
  515MOL0     N69407  10.268  10.598   7.772 -0.2450 -0.6242  0.6118
  515MOL0     C69408  10.404  10.587   7.757  0.0686 -0.4467  1.3002
  515MOL0     C69409  10.462  10.590   7.878 -0.0464  0.0482 -0.3552
  515MOL0     C69410  10.609  10.605   7.915 -1.1805  0.0780  0.2452
  515MOL0     C69411  10.688  10.482   7.866 -0.1936  0.3138  0.0682
  515MOL0     C69412  10.836  10.507   7.824 -0.0176 -0.3406 -0.5656
  515MOL0     C69413  10.868  10.617   7.720 -0.0622  0.2025 -0.6366
  515MOL0     O69414  10.878  10.744   7.796  0.3439  0.1404 -0.7514
  515MOL0     C69415  10.996  10.786   7.838 -0.9037 -0.3924  0.3559
  515MOL0     C69416  11.116  10.710   7.829 -0.6496 -0.2855 -0.2958
  515MOL0     C69417  11.241  10.769   7.850 -0.2527  0.1847 -0.3453
  515MOL0     C69418  11.263  10.905   7.873 -0.8711 -0.4651 -0.7910
  515MOL0     C69419  11.396  10.956   7.872 -0.0344 -0.9002  0.1393
  515MOL0     O69420  11.407  11.095   7.901  0.1991 -0.1571 -0.5152
  515MOL0     C69421  11.527  11.176   7.873 -0.4568  0.7516 -0.6091
  515MOL0     C69422  11.635  11.126   7.789 -0.2067  0.5655  0.0650
  515MOL0     C69423  11.744  11.216   7.785 -1.0505 -0.2373  0.7691
  515MOL0     C69424  11.764  11.338   7.854  0.7579 -0.3950  1.3218
  515MOL0     O69425  11.875  11.423   7.832 -0.4285 -0.1522 -0.1589
  515MOL0     C69426  11.871  11.554   7.886 -0.3295  0.3416 -0.1377
  515MOL0     C69427  11.894  11.555   8.038 -1.5854  0.0829 -0.2235
  515MOL0     C69428  11.883  11.702   8.091  0.2499  0.9441 -0.3633
  515MOL0     C69429  11.745  11.725   8.129 -0.0228 -0.1685 -0.0868
  515MOL0     C69430  11.724  11.877   8.151  0.5918 -0.3018 -1.2195
  515MOL0     C69431  11.596  11.919   8.232 -0.5730 -0.4834  0.7068
  515MOL0     C69432  11.572  12.067   8.239  0.2872  0.0001 -0.0464
  515MOL0     C69433  11.446  12.115   8.317 -0.1714  0.7388 -0.4141
  515MOL0    Cl69434  11.441  12.296   8.341 -0.0919 -0.1868  0.1487
  515MOL0     C69435  11.645  11.383   7.917 -0.2224  0.6509 -0.8295
  515MOL0     C69436  11.527  11.303   7.931 -0.9258  0.3575  0.4216
  515MOL0     O69437  11.490  10.877   7.840  0.2624 -0.2876  0.0872
  515MOL0     C69438  11.147  10.980   7.891 -0.8191 -0.3772 -0.5427
  515MOL0     C69439  11.020  10.920   7.879 -0.4315 -0.4296 -0.7389
  515MOL0     N69440  10.352  10.602   7.970 -0.0070  0.2330  0.2168
  515MOL0     N69441  10.241  10.611   7.899  0.2044  0.7214 -0.2439
  515MOL0     C69442   9.547  11.296   7.207  0.2060 -0.2200  1.5931
  515MOL0     C69443   9.410  11.334   7.189 -0.6379  0.4103 -0.1056
  515MOL0     C69444   8.985  11.402   7.198 -0.5247 -0.3248 -0.2672
  515MOL0     C69445   8.863  11.330   7.199 -0.1886 -0.2075  0.3500
  515MOL0     C69446   8.743  11.375   7.136  0.2542  0.5550  1.1661
  515MOL0     C69447   8.758  11.497   7.068 -0.1945 -0.2336 -0.7766
  515MOL0     O69448   8.650  11.546   6.998  0.5241 -0.1700 -0.4853
  515MOL0     C69449   8.617  11.483   6.871 -0.0828  0.1671 -0.5639
  515MOL0     C69450   8.469  11.517   6.813 -0.3286 -1.0512  0.4987
  515MOL0     C69451   8.356  11.498   6.923 -0.7021  0.3034 -0.2128
  515MOL0     C69452   8.222  11.516   6.860 -0.3701  1.4364  0.2426
  515MOL0     C69453   8.183  11.390   6.795 -0.0707 -0.7814  0.4393
  515MOL0     C69454   8.159  11.284   6.741  0.0504 -0.1991 -0.2208
  515MOL0     C69455   8.875  11.568   7.070  0.2857  0.5971  0.0329
  515MOL0     C69456   8.989  11.517   7.129  0.4766  0.5912 -0.2679
  515MOL0     C69457   9.118  11.600   7.106  1.0503 -0.2984  0.3214
  515MOL0     H69458   9.320  11.343   7.523  0.0744  1.0930 -0.3482
  515MOL0     H69459   9.562  11.258   7.547  2.0240  2.1737 -0.1192
  515MOL0     H69460   9.801  11.301   7.527 -0.0990  0.9610 -0.1409
  515MOL0     H69461   9.735  11.125   7.513  1.3726 -1.8317 -1.3748
  515MOL0     H69462   9.972  11.163   7.555  1.0020 -2.9490  0.0536
  515MOL0     H69463   9.981  11.213   7.379 -0.4067  1.0529 -0.4708
  515MOL0     H69464   9.900  10.982   7.313  0.0581  0.0949 -0.2560
  515MOL0     H69465   9.846  10.953   7.480  1.1343  2.1280  2.0632
  515MOL0     H69466  10.131  10.965   7.376 -0.7201  0.1647 -0.0815
  515MOL0     H69467  10.086  10.942   7.550 -2.3078  1.7674  0.0413
  515MOL0     H69468   9.986  10.755   7.334  2.1664  2.1391 -1.1041
  515MOL0     H69469  10.140  10.723   7.418  0.3550  0.2843 -0.1657
  515MOL0     H69470   9.889  10.758   7.573  0.3578  0.7984 -0.4125
  515MOL0     H69471   9.943  10.597   7.527 -1.5560  0.0583  1.9972
  515MOL0     H69472  10.025  10.679   7.764 -1.2059 -2.7468 -0.3318
  515MOL0     H69473  10.134  10.792   7.670  2.4313 -1.8420 -2.0629
  515MOL0     H69474  10.141  10.498   7.628 -1.4839 -0.2234 -0.7101
  515MOL0     H69475  10.242  10.640   7.572 -0.3593  1.2131  1.0895
  515MOL0     H69476  10.451  10.566   7.661 -1.5488 -1.3669  0.6821
  515MOL0     H69477  10.643  10.707   7.895  0.5442 -0.7683 -1.3236
  515MOL0     H69478  10.617  10.598   8.024 -0.2068  1.2260  0.2678
  515MOL0     H69479  10.702  10.405   7.943 -0.0507 -1.6929 -1.8476
  515MOL0     H69480  10.629  10.430   7.790 -0.6064  0.2587  0.4244
  515MOL0     H69481  10.868  10.409   7.785  2.5428  1.1174 -2.4117
  515MOL0     H69482  10.899  10.534   7.909 -0.1471  3.3149 -1.4899
  515MOL0     H69483  10.786  10.618   7.647  1.0747 -0.3365 -1.9594
  515MOL0     H69484  10.962  10.602   7.667  0.3795 -1.3555  0.5123
  515MOL0     H69485  11.120  10.612   7.783 -1.3720  0.3936 -1.8967
  515MOL0     H69486  11.326  10.706   7.827  0.8818  1.5599 -0.0696
  515MOL0     H69487  11.653  11.045   7.720  0.4335  1.0177 -0.3145
  515MOL0     H69488  11.822  11.176   7.721 -0.2539 -1.0065  2.1981
  515MOL0     H69489  11.944  11.622   7.842 -1.0240 -0.4839 -2.6931
  515MOL0     H69490  11.774  11.597   7.858 -1.6232 -3.3878 -2.0162
  515MOL0     H69491  11.837  11.478   8.091  2.9496 -2.1781  1.9844
  515MOL0     H69492  12.000  11.530   8.047 -1.0982  2.6194  2.5812
  515MOL0     H69493  11.955  11.711   8.173  0.6636  1.2021 -0.7482
  515MOL0     H69494  11.917  11.766   8.009  0.5602  1.5142  0.2059
  515MOL0     H69495  11.717  11.679   8.224 -1.5017  2.2298  0.7384
  515MOL0     H69496  11.668  11.699   8.056  0.2228 -1.2875  0.0369
  515MOL0     H69497  11.712  11.925   8.054  1.0861  5.0899  1.0106
  515MOL0     H69498  11.809  11.919   8.206 -2.1012  1.8487  1.6382
  515MOL0     H69499  11.510  11.872   8.183 -1.0869 -1.3644  2.3961
  515MOL0     H69500  11.604  11.887   8.336  1.8468  0.9225  1.0083
  515MOL0     H69501  11.561  12.114   8.141  1.3203  0.0602 -0.1455
  515MOL0     H69502  11.662  12.107   8.287 -1.1295  1.3273  1.6513
  515MOL0     H69503  11.347  12.100   8.274 -0.9682  1.7406  0.9907
  515MOL0     H69504  11.442  12.066   8.416 -0.9048 -2.4979 -1.8963
  515MOL0     H69505  11.633  11.484   7.954  0.5608  0.5431 -0.2667
  515MOL0     H69506  11.441  11.333   7.989 -0.0316  1.6499  1.1409
  515MOL0     H69507  11.155  11.086   7.911 -1.3124 -0.2332 -1.0762
  515MOL0     H69508  10.935  10.987   7.884 -3.8885 -4.4108 -0.5458
  515MOL0     H69509   9.617  11.280   7.126  0.4144  0.7922  1.5723
  515MOL0     H69510   9.368  11.357   7.092  0.9675 -1.5240 -1.3456
  515MOL0     H69511   8.865  11.237   7.254 -2.5996  1.1724  3.0324
  515MOL0     H69512   8.645  11.330   7.147  1.8966 -3.2073  2.0599
  515MOL0     H69513   8.612  11.375   6.881 -1.3875  0.3584  1.3350
  515MOL0     H69514   8.689  11.503   6.790  0.5335 -0.3118 -0.1471
  515MOL0     H69515   8.453  11.450   6.728 -0.4631  1.1852 -1.3274
  515MOL0     H69516   8.463  11.620   6.777 -2.4943 -1.0508  0.7786
  515MOL0     H69517   8.383  11.583   6.985  2.5330 -1.3688  0.8889
  515MOL0     H69518   8.369  11.407   6.982 -0.6049  1.2385  1.2367
  515MOL0     H69519   8.141  11.548   6.925 -0.7068  1.7294 -0.3110
  515MOL0     H69520   8.220  11.597   6.786  1.4476  0.1555 -1.3271
  515MOL0     H69521   8.128  11.197   6.688 -1.4193  0.5343 -0.6004
  515MOL0     H69522   8.868  11.667   7.025 -2.3909  0.5977  0.3266
  515MOL0     H69523   9.204  11.536   7.082 -0.6278 -2.0673 -1.3637
  515MOL0     H69524   9.101  11.679   7.032  0.1967 -2.4527 -1.9395
  515MOL0     H69525   9.144  11.644   7.202  0.6297  1.3884 -0.3105
  516MOL0     O69526   5.671   6.136   6.594 -1.1981 -0.4184  0.3160
  516MOL0     C69527   5.659   6.230   6.674 -0.0576  0.2150  0.0456
  516MOL0     O69528   5.753   6.272   6.765  0.1586 -0.9276 -0.0374
  516MOL0     C69529   5.892   6.229   6.758  0.4366  0.1583  0.1080
  516MOL0     C69530   5.950   6.161   6.645  0.1937  0.3098 -0.3761
  516MOL0     C69531   6.083   6.119   6.651  0.1819  0.4818 -0.8942
  516MOL0     C69532   6.160   6.149   6.770 -0.1917  0.5115 -0.4275
  516MOL0     O69533   6.296   6.124   6.773 -0.1685 -0.0830  0.0406
  516MOL0     C69534   6.387   6.232   6.785 -0.6368  0.0763 -0.5412
  516MOL0     C69535   6.442   6.267   6.641  0.5714  0.0799 -0.7866
  516MOL0     C69536   6.510   6.146   6.565 -0.4700 -0.0232  0.3074
  516MOL0     C69537   6.650   6.108   6.621 -0.2632  0.6814 -0.1033
  516MOL0     C69538   6.727   6.012   6.530 -0.3722 -0.1002 -0.2014
  516MOL0     C69539   6.846   5.954   6.607 -0.5720  0.2260 -0.1703
  516MOL0     C69540   6.921   5.860   6.519  0.3778 -0.4538 -1.0370
  516MOL0     C69541   7.023   5.764   6.594  0.1027  0.5509 -1.4802
  516MOL0     N69542   6.964   5.638   6.640 -0.1300  0.7668 -0.2230
  516MOL0     C69543   6.878   5.615   6.745 -0.9639 -0.0519  1.0320
  516MOL0     C69544   6.877   5.479   6.756 -0.3248 -0.6898  0.4066
  516MOL0     C69545   6.783   5.396   6.835 -0.2114 -0.2915 -0.5832
  516MOL0     C69546   6.639   5.425   6.795  1.0881  0.2096 -0.0238
  516MOL0     C69547   6.598   5.444   6.648 -0.0524 -0.6886  1.1132
  516MOL0     C69548   6.596   5.310   6.565 -0.1310 -0.5453  0.0465
  516MOL0     O69549   6.539   5.319   6.433  0.2623  0.3194 -0.0908
  516MOL0     C69550   6.404   5.341   6.423 -0.3744  0.0628 -0.0047
  516MOL0     C69551   6.353   5.470   6.410 -1.2657  0.7402  0.0875
  516MOL0     C69552   6.220   5.486   6.406 -0.3910  0.0820 -0.8864
  516MOL0     C69553   6.122   5.386   6.426 -0.2319 -1.1194 -0.3347
  516MOL0     C69554   5.978   5.422   6.421  0.3653  0.4094  0.0769
  516MOL0     O69555   5.899   5.312   6.431  0.1600 -0.2020  0.1089
  516MOL0     C69556   5.763   5.348   6.439 -0.2989 -0.1086 -0.6027
  516MOL0     C69557   5.680   5.320   6.332  0.4040  0.4619  0.0696
  516MOL0     C69558   5.540   5.355   6.335  0.3333  0.5944  0.1145
  516MOL0     C69559   5.480   5.417   6.446 -0.1197 -0.2880 -0.2645
  516MOL0     O69560   5.345   5.431   6.452  0.1317 -0.4586 -0.3712
  516MOL0     C69561   5.295   5.541   6.535 -0.2675 -0.0943 -0.7303
  516MOL0     C69562   5.163   5.577   6.477 -0.3739  0.2297 -0.0243
  516MOL0     C69563   5.142   5.716   6.535  0.9963  0.6216  0.2644
  516MOL0     C69564   5.196   5.833   6.449  0.3844 -0.2152 -0.4920
  516MOL0     C69565   5.129   5.850   6.313 -0.3803 -0.3575 -0.1445
  516MOL0     C69566   5.160   5.990   6.261  0.3916 -0.1562  1.2616
  516MOL0     C69567   5.108   6.014   6.119  0.4781 -0.8926  0.2528
  516MOL0     C69568   4.956   5.968   6.099  0.1518  0.1224  0.0942
  516MOL0    Cl69569   4.867   6.039   6.243 -0.0510  0.5157  0.5801
  516MOL0     C69570   5.570   5.451   6.554  0.2759  0.4069  0.2824
  516MOL0     C69571   5.708   5.417   6.548 -0.5618  0.0076  0.5644
  516MOL0     O69572   5.936   5.535   6.378  0.2655 -0.5857 -0.5481
  516MOL0     C69573   6.172   5.255   6.458 -1.0126 -0.5275 -0.2413
  516MOL0     C69574   6.317   5.238   6.456  0.4123 -0.0123  0.4864
  516MOL0     N69575   6.968   5.427   6.663  0.5796  0.1758 -0.3723
  516MOL0     N69576   7.013   5.517   6.593 -0.1079  0.0359 -0.7223
  516MOL0     C69577   6.096   6.203   6.880  0.2663  0.3975  0.0758
  516MOL0     C69578   5.969   6.252   6.874  0.5950 -0.1554  0.0024
  516MOL0     C69579   5.524   6.288   6.668  0.0079 -0.2068 -0.2904
  516MOL0     C69580   5.434   6.261   6.564  0.5160  0.3586  0.2010
  516MOL0     C69581   5.303   6.316   6.564 -0.6150 -1.0824  0.2023
  516MOL0     C69582   5.257   6.399   6.673 -0.4151  0.0027  0.0472
  516MOL0     O69583   5.131   6.455   6.697  0.2300  0.7793  0.1746
  516MOL0     C69584   5.013   6.486   6.610 -0.4453 -0.6012 -0.1696
  516MOL0     C69585   4.919   6.371   6.588 -0.0712  0.0116 -0.0595
  516MOL0     C69586   4.811   6.401   6.484 -0.4012  0.9869 -0.5183
  516MOL0     C69587   4.740   6.538   6.510  0.1878  0.8815 -0.6508
  516MOL0     C69588   4.623   6.549   6.426  1.5166 -0.1124  0.7133
  516MOL0     C69589   4.524   6.570   6.354 -0.7035  0.6031  0.3625
  516MOL0     C69590   5.342   6.415   6.774 -0.0379  0.5834  0.0580
  516MOL0     C69591   5.473   6.365   6.783  0.1375  0.0484  0.4799
  516MOL0     C69592   5.542   6.380   6.918  0.0261  0.1790  0.4113
  516MOL0     H69593   5.895   6.137   6.554 -1.7008 -2.5313  1.3685
  516MOL0     H69594   6.119   6.059   6.568  0.0281 -0.2845 -0.4162
  516MOL0     H69595   6.348   6.305   6.857  3.0887  0.8769  0.9186
  516MOL0     H69596   6.472   6.202   6.846 -0.6913 -0.8455 -0.9016
  516MOL0     H69597   6.516   6.346   6.654  1.6792 -1.0932  0.3978
  516MOL0     H69598   6.357   6.300   6.581  0.4699  0.9635 -0.1772
  516MOL0     H69599   6.516   6.167   6.458  0.6147 -1.4101  0.0676
  516MOL0     H69600   6.434   6.068   6.568  0.2019 -0.8428 -1.9028
  516MOL0     H69601   6.703   6.203   6.630 -2.1768  1.6290  2.2360
  516MOL0     H69602   6.643   6.061   6.719  1.0901  0.9289  0.1317
  516MOL0     H69603   6.656   5.934   6.501 -2.2796  1.7172 -0.6411
  516MOL0     H69604   6.757   6.045   6.431 -1.0740  1.2331  0.0046
  516MOL0     H69605   6.911   6.033   6.647 -0.1991 -0.4888  0.6559
  516MOL0     H69606   6.809   5.899   6.694 -0.2338 -0.6182 -0.5488
  516MOL0     H69607   6.991   5.917   6.456  3.4326 -2.1785  0.5431
  516MOL0     H69608   6.857   5.786   6.472 -0.3316 -3.4256  3.8705
  516MOL0     H69609   7.089   5.721   6.519 -1.9803 -3.4291 -1.2803
  516MOL0     H69610   7.076   5.829   6.664 -1.1820  0.3655 -0.2990
  516MOL0     H69611   6.821   5.687   6.802  0.6135  1.8113  0.3588
  516MOL0     H69612   6.807   5.290   6.826  0.5044 -0.1810 -0.0353
  516MOL0     H69613   6.797   5.419   6.941  2.4865 -1.4033 -0.6416
  516MOL0     H69614   6.578   5.343   6.834  2.6615 -0.8440  0.2889
  516MOL0     H69615   6.614   5.521   6.843  0.0390  0.8321 -1.7303
  516MOL0     H69616   6.662   5.517   6.596 -2.1765 -0.1594 -0.9556
  516MOL0     H69617   6.498   5.488   6.647  0.8634  1.7754 -2.3743
  516MOL0     H69618   6.559   5.224   6.621 -0.5254 -0.5561 -0.2229
  516MOL0     H69619   6.698   5.285   6.536 -0.5346  0.1281 -2.1558
  516MOL0     H69620   6.433   5.541   6.393  2.0481 -2.5799  0.6004
  516MOL0     H69621   6.167   5.575   6.373 -3.5364 -2.0766 -2.1029
  516MOL0     H69622   5.706   5.243   6.261 -1.3325 -1.4363  1.3569
  516MOL0     H69623   5.467   5.310   6.268 -0.6333 -4.0561  3.7554
  516MOL0     H69624   5.281   5.494   6.633  1.7315  1.2032  0.2504
  516MOL0     H69625   5.353   5.632   6.556 -2.2431  1.0472  0.0473
  516MOL0     H69626   5.166   5.576   6.367 -2.5788  2.8299 -0.2164
  516MOL0     H69627   5.086   5.507   6.510  1.0077 -1.4468 -0.2595
  516MOL0     H69628   5.034   5.729   6.531  0.7757 -1.1992 -1.9281
  516MOL0     H69629   5.162   5.721   6.642 -1.5437 -1.0391  0.9048
  516MOL0     H69630   5.302   5.826   6.425  1.3643  3.3280  2.0222
  516MOL0     H69631   5.185   5.924   6.508  0.1815  0.1146 -1.0333
  516MOL0     H69632   5.021   5.842   6.331 -0.7148  2.1917 -0.5829
  516MOL0     H69633   5.159   5.769   6.246  1.2576  0.0493  0.0388
  516MOL0     H69634   5.130   6.063   6.336  0.7905  1.1844  0.1453
  516MOL0     H69635   5.268   5.997   6.250  0.4213 -2.4872 -0.9461
  516MOL0     H69636   5.164   5.948   6.052  1.8841  0.2230  0.2889
  516MOL0     H69637   5.134   6.111   6.075  2.0997 -0.1352  2.7069
  516MOL0     H69638   4.928   5.999   5.998  3.0921 -0.1653 -0.9145
  516MOL0     H69639   4.936   5.861   6.113  1.5794 -0.0019  1.4958
  516MOL0     H69640   5.534   5.508   6.639  1.1264  0.0679  0.8808
  516MOL0     H69641   5.772   5.430   6.634  1.2515  1.1435 -0.8856
  516MOL0     H69642   6.098   5.179   6.479 -0.3726 -1.1122 -0.0724
  516MOL0     H69643   6.358   5.140   6.477 -0.2491  0.0494  2.2538
  516MOL0     H69644   6.162   6.223   6.963 -1.3531 -2.6313  2.3141
  516MOL0     H69645   5.932   6.292   6.968 -1.0852  0.7887 -0.9999
  516MOL0     H69646   5.459   6.197   6.480 -2.3208 -0.5964 -0.0147
  516MOL0     H69647   5.249   6.301   6.472  0.2898 -0.1380 -0.5101
  516MOL0     H69648   5.040   6.520   6.509 -0.3506 -0.3503 -0.0595
  516MOL0     H69649   4.953   6.557   6.666 -1.3141 -0.6017 -1.0720
  516MOL0     H69650   4.863   6.357   6.682  2.0010 -0.5934  1.1481
  516MOL0     H69651   4.957   6.271   6.566  0.2962  0.0601  0.3319
  516MOL0     H69652   4.730   6.329   6.495 -0.9081  1.7298  0.8734
  516MOL0     H69653   4.857   6.404   6.384  0.2724 -0.7906 -0.2844
  516MOL0     H69654   4.702   6.545   6.612  1.2210 -6.0520  0.6701
  516MOL0     H69655   4.820   6.612   6.511  4.1250 -2.8637  2.5530
  516MOL0     H69656   4.450   6.572   6.277  1.4396  1.4432 -1.7994
  516MOL0     H69657   5.297   6.460   6.862  3.4165 -2.5128  3.8411
  516MOL0     H69658   5.644   6.420   6.924  2.1301 -4.3615 -1.0350
  516MOL0     H69659   5.479   6.450   6.975  1.9484  1.2201  1.3688
  516MOL0     H69660   5.544   6.289   6.978  0.2399 -0.2939 -0.3042
  517MOL0     O69661   8.742   4.906   9.930  0.3107 -0.2243 -0.3712
  517MOL0     C69662   8.714   4.999   9.852 -0.2484 -0.5221  0.0759
  517MOL0     O69663   8.676   5.123   9.891 -0.0912  0.1539  0.7051
  517MOL0     C69664   8.697   5.156  10.020  0.1524  0.0834  0.8278
  517MOL0     C69665   8.596   5.221  10.092 -0.2405 -0.6162  0.0934
  517MOL0     C69666   8.617   5.270  10.220  0.1771  0.1949 -0.4507
  517MOL0     C69667   8.743   5.249  10.285 -0.1120  0.5316  0.4044
  517MOL0     O69668   8.786   5.295  10.405 -0.5425 -0.2839  0.6024
  517MOL0     C69669   8.711   5.392  10.483 -0.0676  0.3598  0.1825
  517MOL0     C69670   8.716   5.531  10.439 -0.1940  0.4438  0.1576
  517MOL0     C69671   8.614   5.618  10.510  0.9586 -0.3370 -0.0003
  517MOL0     C69672   8.606   5.759  10.443 -1.0392 -0.5669 -0.3975
  517MOL0     C69673   8.501   5.847  10.508 -0.4029 -0.6435 -0.5650
  517MOL0     C69674   8.516   5.992  10.458 -0.5498  0.4229  0.4864
  517MOL0     C69675   8.428   6.089  10.528 -0.6088 -0.3320 -1.1085
  517MOL0     C69676   8.451   6.237  10.479 -0.0234  0.3412 -0.3759
  517MOL0     N69677   8.402   6.253  10.347 -1.0384  0.1379  0.6013
  517MOL0     C69678   8.270   6.255  10.318  0.2942 -0.0350  0.0698
  517MOL0     C69679   8.261   6.234  10.186 -0.2320  0.7436  0.2552
  517MOL0     C69680   8.129   6.225  10.111  0.2798  0.4931  1.2988
  517MOL0     C69681   8.057   6.096  10.146 -0.4187  0.5132  0.7740
  517MOL0     C69682   7.939   6.075  10.058  1.1616  0.1955 -0.1039
  517MOL0     C69683   7.808   6.149  10.095 -0.7761  0.2659 -0.2991
  517MOL0     O69684   7.712   6.053  10.144  0.2523 -0.4689 -0.1076
  517MOL0     C69685   7.575   6.072  10.142  0.2010  1.0300 -0.8505
  517MOL0     C69686   7.492   5.970  10.200 -0.5196  0.0053  0.0381
  517MOL0     C69687   7.349   5.970  10.195  0.0037 -0.7944  0.2365
  517MOL0     C69688   7.286   6.074  10.122 -0.0817 -0.1599  0.4132
  517MOL0     C69689   7.138   6.083  10.107 -0.0329 -0.8942  0.3501
  517MOL0     O69690   7.071   6.007  10.190 -0.2740 -0.1289  0.3264
  517MOL0     C69691   6.935   6.006  10.171 -0.7308  0.2733  0.0073
  517MOL0     C69692   6.888   5.896  10.095  0.3867  0.1487  0.4248
  517MOL0     C69693   6.756   5.889  10.043  0.2106 -0.3701 -0.0929
  517MOL0     C69694   6.661   5.984  10.082 -0.3523  0.5242 -0.3519
  517MOL0     O69695   6.533   5.971  10.031  0.3177  0.2705 -0.9446
  517MOL0     C69696   6.421   6.052  10.077 -0.5915  1.0387  0.2378
  517MOL0     C69697   6.433   6.204  10.037  0.6002  1.1531  0.2035
  517MOL0     C69698   6.355   6.229   9.912  0.1618 -0.4051  0.1618
  517MOL0     C69699   6.373   6.369   9.855  0.3517  0.4908  0.3765
  517MOL0     C69700   6.511   6.388   9.797 -0.0069  1.0749  0.4993
  517MOL0     C69701   6.518   6.529   9.735  0.0698 -0.4214 -0.1666
  517MOL0     C69702   6.469   6.550   9.590 -0.4378 -0.2498  0.2679
  517MOL0     C69703   6.556   6.495   9.475  0.1620  0.2181  0.8863
  517MOL0    Cl69704   6.498   6.516   9.310  0.0964  0.3460  0.0245
  517MOL0     C69705   6.704   6.093  10.162  0.4312  0.2063 -0.6048
  517MOL0     C69706   6.837   6.106  10.204 -0.6509 -0.2818  0.2696
  517MOL0     O69707   7.094   6.173  10.036 -1.0679  0.3459  0.5437
  517MOL0     C69708   7.376   6.176  10.067  0.9586 -0.5088 -0.1145
  517MOL0     C69709   7.512   6.177  10.080 -0.1778 -0.7413  0.0687
  517MOL0     N69710   8.385   6.239  10.136 -0.6108 -0.8479  0.3314
  517MOL0     N69711   8.470   6.233  10.230 -0.3174 -0.7397 -0.2333
  517MOL0     C69712   8.845   5.173  10.218 -0.7620  0.9911  0.3942
  517MOL0     C69713   8.818   5.127  10.086 -0.0485  0.4406  0.5919
  517MOL0     C69714   8.679   4.951   9.715 -0.7541  0.2108 -0.8219
  517MOL0     C69715   8.720   4.822   9.671 -0.3104  0.2831  0.4641
  517MOL0     C69716   8.679   4.764   9.552 -0.0272 -0.2974  0.2716
  517MOL0     C69717   8.592   4.846   9.470  0.3777  0.1687 -0.2981
  517MOL0     O69718   8.540   4.807   9.350 -0.0761 -0.0686  0.0917
  517MOL0     C69719   8.555   4.672   9.302 -0.3070 -0.0970  0.6445
  517MOL0     C69720   8.454   4.585   9.387 -0.9699  0.4970  0.6363
  517MOL0     C69721   8.316   4.651   9.383 -0.1709  0.9059  0.8813
  517MOL0     C69722   8.197   4.563   9.387  0.0754 -0.6919 -0.0363
  517MOL0     C69723   8.080   4.657   9.371 -0.6695 -0.3524  0.3505
  517MOL0     C69724   7.980   4.731   9.353  0.3373  0.7752  0.0188
  517MOL0     C69725   8.549   4.970   9.513 -0.0572 -0.5537  0.1608
  517MOL0     C69726   8.581   5.028   9.632 -0.8144  0.4801 -0.4703
  517MOL0     C69727   8.517   5.164   9.672 -0.1483 -1.0473 -0.6058
  517MOL0     H69728   8.499   5.245  10.050 -0.5909 -0.0935  1.1586
  517MOL0     H69729   8.548   5.339  10.269  1.0080  0.4529  0.3777
  517MOL0     H69730   8.609   5.354  10.483  0.0360 -0.0671  2.3887
  517MOL0     H69731   8.745   5.386  10.587  0.1005  3.2150  0.3643
  517MOL0     H69732   8.695   5.519  10.333 -3.9952 -4.9748  1.0963
  517MOL0     H69733   8.816   5.570  10.462  0.1165  0.0796 -0.5460
  517MOL0     H69734   8.621   5.621  10.619 -2.3819 -0.0579  0.3085
  517MOL0     H69735   8.512   5.579  10.499 -0.6214  3.0924  1.1423
  517MOL0     H69736   8.703   5.807  10.464 -4.0415  5.0593  3.1786
  517MOL0     H69737   8.584   5.755  10.336 -1.0736 -0.4277 -0.3955
  517MOL0     H69738   8.403   5.817  10.468 -1.8460  0.7348  1.6890
  517MOL0     H69739   8.498   5.838  10.617  0.6978 -2.1681 -0.6482
  517MOL0     H69740   8.617   6.034  10.461 -0.2091 -0.1311 -1.6180
  517MOL0     H69741   8.506   5.993  10.349 -1.1603  2.5119  0.5195
  517MOL0     H69742   8.450   6.093  10.635  1.2112 -0.3530 -1.4492
  517MOL0     H69743   8.321   6.064  10.525 -1.4129  2.1261  1.7838
  517MOL0     H69744   8.417   6.305  10.558 -0.8099 -0.5548  0.0861
  517MOL0     H69745   8.558   6.258  10.470 -0.1560  1.6745  0.7999
  517MOL0     H69746   8.178   6.262  10.375 -2.6422 -2.0377 -3.9132
  517MOL0     H69747   8.059   6.305  10.137 -2.7416 -1.0593 -1.3303
  517MOL0     H69748   8.141   6.231  10.003 -0.7600  3.1502  1.2537
  517MOL0     H69749   8.126   6.013  10.126 -0.9037 -0.3672  2.5273
  517MOL0     H69750   8.030   6.085  10.252  2.9633 -1.4707  1.5820
  517MOL0     H69751   7.912   5.969  10.067  3.9064 -0.4761  1.3800
  517MOL0     H69752   7.963   6.090   9.952 -1.9445 -0.7777 -1.0559
  517MOL0     H69753   7.775   6.207  10.009 -0.7694 -0.2369 -0.6433
  517MOL0     H69754   7.829   6.225  10.171 -1.6575  0.8018 -0.5806
  517MOL0     H69755   7.540   5.888  10.252  0.2197  0.6951  0.4562
  517MOL0     H69756   7.283   5.892  10.232 -2.0277 -0.8722 -3.1513
  517MOL0     H69757   6.958   5.819  10.065  0.2102  1.2254 -3.1666
  517MOL0     H69758   6.716   5.802   9.992 -0.1815 -1.7928  2.5141
  517MOL0     H69759   6.331   6.017  10.026 -2.2797  2.7214  1.8922
  517MOL0     H69760   6.391   6.034  10.181 -0.9795 -0.1386 -0.0670
  517MOL0     H69761   6.402   6.270  10.119 -1.2645 -1.6479  1.9413
  517MOL0     H69762   6.538   6.223  10.015  1.0083  1.2249  2.0398
  517MOL0     H69763   6.379   6.162   9.828 -0.1291  0.0672 -0.3081
  517MOL0     H69764   6.248   6.212   9.928  0.0591 -1.4616 -1.3547
  517MOL0     H69765   6.346   6.434   9.939 -1.1710 -0.2327  0.4796
  517MOL0     H69766   6.310   6.392   9.769  1.3875 -1.6636 -1.0472
  517MOL0     H69767   6.524   6.313   9.719 -0.5536  2.3872 -0.9008
  517MOL0     H69768   6.591   6.395   9.872 -0.4239 -0.4555  1.1144
  517MOL0     H69769   6.458   6.592   9.802 -2.1963 -1.2365 -1.3114
  517MOL0     H69770   6.620   6.569   9.738  0.1980 -0.6103 -1.4332
  517MOL0     H69771   6.457   6.657   9.573 -2.0165 -0.3982  0.2966
  517MOL0     H69772   6.370   6.510   9.567 -0.8460  2.6967 -4.3637
  517MOL0     H69773   6.645   6.558   9.478 -0.4903  1.3785 -1.4581
  517MOL0     H69774   6.595   6.394   9.495  0.2278  0.3586  1.4741
  517MOL0     H69775   6.636   6.169  10.200 -3.1218 -3.7857  2.0271
  517MOL0     H69776   6.868   6.181  10.275 -1.4625 -0.1304  0.4809
  517MOL0     H69777   7.336   6.262  10.014 -0.8156 -1.9137 -1.1706
  517MOL0     H69778   7.562   6.264  10.039 -1.7934  1.4105  2.3346
  517MOL0     H69779   8.941   5.162  10.267  1.0931  2.0311 -2.6541
  517MOL0     H69780   8.896   5.085  10.023 -1.9928  0.5832 -2.0864
  517MOL0     H69781   8.776   4.759   9.739  2.9016 -1.5215 -3.4368
  517MOL0     H69782   8.719   4.672   9.513  2.1846  0.4119  0.7268
  517MOL0     H69783   8.657   4.633   9.305  0.5006  1.9305  3.6251
  517MOL0     H69784   8.535   4.666   9.195  1.1907  0.2493  0.3166
  517MOL0     H69785   8.496   4.577   9.488 -0.4979  3.3234  0.7557
  517MOL0     H69786   8.453   4.488   9.338  1.5210 -0.0024  1.3939
  517MOL0     H69787   8.302   4.678   9.278 -0.0505 -2.7025 -0.1970
  517MOL0     H69788   8.305   4.726   9.462 -2.1622  0.9019  0.6573
  517MOL0     H69789   8.208   4.492   9.304  0.4571 -3.1977  2.0305
  517MOL0     H69790   8.197   4.502   9.478 -2.2315  0.2355  0.6498
  517MOL0     H69791   7.897   4.797   9.336 -3.3353 -3.2635  0.3231
  517MOL0     H69792   8.501   5.033   9.438  2.0621 -1.4256 -2.0893
  517MOL0     H69793   8.457   5.151   9.763  2.4881  2.6891  1.9592
  517MOL0     H69794   8.597   5.236   9.691 -2.0653  0.8068  0.7924
  517MOL0     H69795   8.448   5.197   9.595 -2.7259  0.0930  2.0223
  518MOL0     O69796   6.036   4.764   0.325 -0.2976  0.1893 -0.4003
  518MOL0     C69797   5.932   4.769   0.384 -0.2335 -0.0188  0.0625
  518MOL0     O69798   5.881   4.676   0.472  0.0633 -0.2332 -0.6928
  518MOL0     C69799   5.965   4.573   0.511 -0.0991 -0.5161  0.5600
  518MOL0     C69800   5.982   4.543   0.644 -0.5366 -1.7886  0.2128
  518MOL0     C69801   6.059   4.442   0.683  0.6521  0.2627 -0.0780
  518MOL0     C69802   6.125   4.362   0.589 -0.5199  0.1728  0.3398
  518MOL0     O69803   6.210   4.268   0.645  0.2621  0.9028  0.4434
  518MOL0     C69804   6.343   4.245   0.579 -1.1487 -0.5100 -0.4295
  518MOL0     C69805   6.426   4.135   0.657 -0.4451  0.2050  0.2365
  518MOL0     C69806   6.561   4.092   0.589 -0.5791  0.2761 -0.1995
  518MOL0     C69807   6.670   4.196   0.604 -0.0236  0.3437  0.3937
  518MOL0     C69808   6.813   4.139   0.556  0.5583  0.5464 -0.0903
  518MOL0     C69809   6.800   4.079   0.416 -0.0395 -0.1113  0.2751
  518MOL0     C69810   6.936   4.100   0.358  0.2603  0.7077 -0.4363
  518MOL0     C69811   6.966   4.016   0.236  0.6046  0.0687 -0.2101
  518MOL0     N69812   7.073   4.076   0.156 -0.6421 -0.0273 -0.3070
  518MOL0     C69813   7.086   4.101   0.020 -0.0089  0.4692 -0.2383
  518MOL0     C69814   7.208   4.161   0.010  0.1407  0.2897  0.5483
  518MOL0     C69815   7.255   4.213  -0.118 -0.4470  0.3741  0.0454
  518MOL0     C69816   7.261   4.359  -0.122  0.6092 -0.0042  0.2960
  518MOL0     C69817   7.133   4.438  -0.091  0.3935  0.3190  0.1825
  518MOL0     C69818   7.012   4.418  -0.179  1.2322  0.7368  0.4045
  518MOL0     O69819   6.958   4.283  -0.165  0.5224 -0.7981  0.2446
  518MOL0     C69820   6.854   4.263  -0.083  0.0502  1.1894 -0.6689
  518MOL0     C69821   6.756   4.176  -0.126 -0.1455 -0.5688 -0.6587
  518MOL0     C69822   6.653   4.146  -0.032  0.8214  0.1981 -0.6703
  518MOL0     C69823   6.646   4.204   0.093  0.2488  1.0667 -0.8880
  518MOL0     C69824   6.532   4.166   0.190  0.3119 -0.5434 -0.4524
  518MOL0     O69825   6.465   4.055   0.156 -0.4130  0.0156 -0.4587
  518MOL0     C69826   6.353   4.029   0.232  0.3967 -0.3613 -0.7754
  518MOL0     C69827   6.225   4.092   0.218 -0.8333  0.5534  0.0917
  518MOL0     C69828   6.126   4.062   0.309  0.4824 -0.0989  0.3251
  518MOL0     C69829   6.144   3.951   0.391 -0.5322 -0.9830 -0.5244
  518MOL0     O69830   6.033   3.918   0.471 -0.4116 -0.1943  0.4199
  518MOL0     C69831   6.062   3.942   0.610  0.6219 -0.2897  0.0676
  518MOL0     C69832   5.952   3.887   0.701  0.8364  1.1296 -0.4809
  518MOL0     C69833   5.804   3.900   0.650 -0.4709 -0.6529  0.1631
  518MOL0     C69834   5.697   3.869   0.749  0.3401  0.9049 -0.3745
  518MOL0     C69835   5.671   3.719   0.769  0.1911  0.5360 -0.6880
  518MOL0     C69836   5.581   3.684   0.893  0.3757 -0.6754 -0.1418
  518MOL0     C69837   5.639   3.739   1.030 -0.6778  0.1556  0.3746
  518MOL0     C69838   5.577   3.671   1.145 -0.0846 -0.5287  0.0497
  518MOL0    Cl69839   5.401   3.716   1.151 -0.2441  0.1422  0.1262
  518MOL0     C69840   6.263   3.880   0.394  0.9634 -1.2558  0.1972
  518MOL0     C69841   6.373   3.924   0.318  0.9072  0.3392  0.7930
  518MOL0     O69842   6.501   4.244   0.276 -0.3035  0.5382  0.7555
  518MOL0     C69843   6.744   4.298   0.132  0.5473  0.4617 -1.3872
  518MOL0     C69844   6.848   4.323   0.050 -0.1329 -0.5843  0.3818
  518MOL0     N69845   7.278   4.166   0.132  0.6661  0.3554  0.0732
  518MOL0     N69846   7.186   4.124   0.217 -1.2187 -0.1309 -0.9121
  518MOL0     C69847   6.107   4.387   0.459  0.6185  0.1963  0.7526
  518MOL0     C69848   6.026   4.486   0.411  0.0522 -0.6704  0.2862
  518MOL0     C69849   5.826   4.876   0.351  0.0112  0.2341  0.3317
  518MOL0     C69850   5.691   4.858   0.377 -0.4344 -0.3206 -0.3330
  518MOL0     C69851   5.581   4.945   0.344  0.0723  1.0286  0.7522
  518MOL0     C69852   5.614   5.059   0.263 -0.0369  1.0174  0.4460
  518MOL0     O69853   5.525   5.158   0.234  0.1838  0.2416  0.5624
  518MOL0     C69854   5.386   5.130   0.254 -0.1130  0.0433 -0.2046
  518MOL0     C69855   5.307   5.245   0.195  0.6450  0.7019  0.0255
  518MOL0     C69856   5.286   5.230   0.048 -0.1033 -0.1100  0.5249
  518MOL0     C69857   5.263   5.357  -0.037  0.4818 -0.1959 -1.3313
  518MOL0     C69858   5.119   5.386  -0.032 -0.4153  1.1962  0.4397
  518MOL0     C69859   5.007   5.422  -0.020  0.3396 -0.4816 -0.2910
  518MOL0     C69860   5.753   5.072   0.236 -0.1159  0.3025 -0.1791
  518MOL0     C69861   5.860   4.988   0.276  0.8442  0.2021  0.2393
  518MOL0     C69862   5.995   5.025   0.233 -0.3169 -0.2381  1.1701
  518MOL0     H69863   5.945   4.613   0.719 -0.5715  0.9266 -2.1648
  518MOL0     H69864   6.072   4.422   0.789 -2.6717  3.6330  1.1715
  518MOL0     H69865   6.333   4.209   0.476 -0.4860 -0.7216 -0.4250
  518MOL0     H69866   6.401   4.338   0.575  0.8495 -1.7295 -1.8541
  518MOL0     H69867   6.368   4.043   0.669 -0.4879  0.0658 -0.8799
  518MOL0     H69868   6.447   4.175   0.757  1.2434 -1.2680  0.5343
  518MOL0     H69869   6.537   4.065   0.486 -2.2995 -0.4584  0.3573
  518MOL0     H69870   6.584   3.995   0.634 -3.4368 -1.6615 -2.5323
  518MOL0     H69871   6.643   4.281   0.541  0.6280  2.1613  2.4262
  518MOL0     H69872   6.675   4.234   0.707  3.4571  1.5398 -0.0669
  518MOL0     H69873   6.880   4.225   0.572 -1.3886  1.5023  4.3976
  518MOL0     H69874   6.845   4.067   0.632 -3.2636 -1.8992 -0.5557
  518MOL0     H69875   6.769   3.974   0.416 -1.7954  0.3688 -0.7541
  518MOL0     H69876   6.739   4.148   0.357  1.8946  1.5296  0.0839
  518MOL0     H69877   7.016   4.081   0.430 -0.5530 -0.2692  0.2325
  518MOL0     H69878   6.951   4.206   0.337 -0.5536  0.8021 -0.5911
  518MOL0     H69879   6.995   3.916   0.269  1.7134  1.4180  3.3975
  518MOL0     H69880   6.875   4.011   0.176 -0.9839  2.3247  1.8187
  518MOL0     H69881   7.011   4.068  -0.051 -1.7725 -1.7715  2.4947
  518MOL0     H69882   7.352   4.168  -0.140 -0.5781  0.6697 -1.2181
  518MOL0     H69883   7.186   4.179  -0.195 -0.1979  1.3969 -0.6559
  518MOL0     H69884   7.333   4.400  -0.050  1.1249 -0.9079  0.3043
  518MOL0     H69885   7.310   4.384  -0.217 -1.9160  1.1742 -0.7986
  518MOL0     H69886   7.156   4.545  -0.093 -4.3931  1.6255  1.7601
  518MOL0     H69887   7.113   4.415   0.014 -0.0128  1.9582  0.4887
  518MOL0     H69888   7.044   4.432  -0.282 -1.1888 -0.5150 -0.5940
  518MOL0     H69889   6.939   4.492  -0.144  0.8581  0.1283  0.9355
  518MOL0     H69890   6.735   4.138  -0.226 -1.6107 -1.0910 -0.1800
  518MOL0     H69891   6.579   4.073  -0.063  0.9886 -1.1989  1.9657
  518MOL0     H69892   6.214   4.176   0.151 -2.8888  1.8538  1.9013
  518MOL0     H69893   6.033   4.116   0.325 -0.0717 -0.0390 -2.6424
  518MOL0     H69894   6.160   3.906   0.640  0.3222  0.9545  2.8063
  518MOL0     H69895   6.067   4.051   0.624 -0.1069 -0.1550 -0.6218
  518MOL0     H69896   5.966   3.779   0.718 -1.1466  1.1910  2.2947
  518MOL0     H69897   5.969   3.932   0.799  0.4110  0.3839 -0.0490
  518MOL0     H69898   5.788   4.004   0.621  3.3108 -0.4767 -1.9989
  518MOL0     H69899   5.792   3.844   0.557 -2.5908 -0.4894  0.2890
  518MOL0     H69900   5.609   3.924   0.715  1.2979  4.4353  2.2311
  518MOL0     H69901   5.729   3.909   0.846 -0.3462 -1.4143  0.8817
  518MOL0     H69902   5.759   3.654   0.777 -2.4573 -3.2409  1.0570
  518MOL0     H69903   5.611   3.690   0.682 -1.8128 -0.4004  0.9056
  518MOL0     H69904   5.480   3.720   0.874 -0.0093 -2.4674 -1.8399
  518MOL0     H69905   5.578   3.575   0.886  1.0246 -0.6179 -2.1135
  518MOL0     H69906   5.614   3.845   1.042 -2.0169 -0.3183  1.9796
  518MOL0     H69907   5.745   3.714   1.041 -0.8648 -2.5800 -2.4967
  518MOL0     H69908   5.582   3.562   1.149 -1.4764 -0.5695  2.4362
  518MOL0     H69909   5.632   3.703   1.234 -0.5194 -3.2505  1.3994
  518MOL0     H69910   6.266   3.793   0.459 -0.6803 -1.6461 -0.1913
  518MOL0     H69911   6.469   3.873   0.326  0.9034  0.3442  0.8737
  518MOL0     H69912   6.732   4.347   0.228 -1.7152  1.3875 -2.0787
  518MOL0     H69913   6.918   4.404   0.070 -0.4987  0.5939 -2.6853
  518MOL0     H69914   6.163   4.325   0.390  1.8786  1.0836  0.9390
  518MOL0     H69915   6.015   4.520   0.309 -0.7125 -0.1320  0.5308
  518MOL0     H69916   5.658   4.767   0.425  1.7011 -1.8620 -1.6450
  518MOL0     H69917   5.480   4.912   0.362  0.1532 -1.8128 -2.9517
  518MOL0     H69918   5.374   5.124   0.362  3.3147 -2.4484  0.2155
  518MOL0     H69919   5.362   5.036   0.203 -0.0100 -0.5624  0.8518
  518MOL0     H69920   5.357   5.341   0.213  2.0679 -0.0914  0.4352
  518MOL0     H69921   5.206   5.243   0.237  0.4188  0.5204 -0.5079
  518MOL0     H69922   5.211   5.155   0.023 -0.2836  0.3335 -0.2795
  518MOL0     H69923   5.379   5.192   0.004 -0.8955  0.1983 -1.5201
  518MOL0     H69924   5.330   5.431   0.008  3.0273 -3.4979  0.8173
  518MOL0     H69925   5.298   5.341  -0.139  0.1874 -0.6541 -1.3643
  518MOL0     H69926   4.906   5.456  -0.029 -0.5052 -3.1699 -2.4009
  518MOL0     H69927   5.768   5.159   0.173 -0.1268 -2.1481 -3.9189
  518MOL0     H69928   6.060   5.015   0.321  0.7577  0.9095  0.5480
  518MOL0     H69929   6.028   4.961   0.151  0.5186  2.8835 -1.1114
  518MOL0     H69930   5.990   5.127   0.193 -0.4180 -0.9809 -0.8251
  519MOL0     O69931   4.403   3.235   8.330 -0.6993 -0.4776  0.1068
  519MOL0     C69932   4.411   3.221   8.209  1.0589 -0.0609 -0.6174
  519MOL0     O69933   4.501   3.272   8.121 -0.6515  0.2629  0.5646
  519MOL0     C69934   4.612   3.322   8.187 -0.8062  0.3766  0.1689
  519MOL0     C69935   4.673   3.259   8.302 -0.3141 -0.0012 -0.3305
  519MOL0     C69936   4.791   3.313   8.353  0.5640 -0.3452 -0.1083
  519MOL0     C69937   4.850   3.428   8.293  0.1872 -0.2258  0.2756
  519MOL0     O69938   4.963   3.474   8.354 -0.2916  0.3380 -0.2221
  519MOL0     C69939   5.084   3.516   8.281  1.2977  0.4201 -0.0546
  519MOL0     C69940   5.199   3.548   8.367  0.1751 -0.8772 -0.1403
  519MOL0     C69941   5.280   3.671   8.299  0.4703  0.2225 -0.6168
  519MOL0     C69942   5.332   3.650   8.163 -0.0072  0.5745  0.3079
  519MOL0     C69943   5.440   3.535   8.164  0.3774 -0.3177 -0.6292
  519MOL0     C69944   5.573   3.577   8.224 -0.5380 -1.4276  0.1511
  519MOL0     C69945   5.669   3.454   8.219  0.0764  0.5154 -0.7130
  519MOL0     C69946   5.705   3.410   8.084 -0.2560 -0.0680  1.7615
  519MOL0     N69947   5.784   3.287   8.093 -0.9040  0.9586 -0.6515
  519MOL0     C69948   5.915   3.292   8.149  0.2572 -0.3783  0.8213
  519MOL0     C69949   5.954   3.162   8.144  0.4276  0.0000  1.0406
  519MOL0     C69950   6.090   3.125   8.198 -0.3071  1.2902  0.0128
  519MOL0     C69951   6.132   2.976   8.174  0.2360 -0.6387 -0.4474
  519MOL0     C69952   6.268   2.934   8.230  1.2176  0.2546  0.3039
  519MOL0     C69953   6.381   3.012   8.168 -0.1863 -0.2003 -1.0630
  519MOL0     O69954   6.412   2.980   8.036  0.1579 -0.4507 -0.3438
  519MOL0     C69955   6.541   3.002   7.989  0.9083  0.1480  1.1115
  519MOL0     C69956   6.550   3.001   7.848  0.4660 -0.2615 -0.8672
  519MOL0     C69957   6.680   3.019   7.799 -0.2223 -0.2920  0.5641
  519MOL0     C69958   6.793   3.038   7.876 -0.4461  0.0100  0.7931
  519MOL0     C69959   6.929   3.057   7.817  0.3157  0.7104 -0.0655
  519MOL0     O69960   6.922   3.063   7.683  0.4699 -0.7593  0.1197
  519MOL0     C69961   7.038   3.099   7.617  0.2994  0.0343  0.4018
  519MOL0     C69962   7.094   3.225   7.629 -0.9772  0.0844 -0.1752
  519MOL0     C69963   7.214   3.248   7.565  0.0975  0.1348 -0.2293
  519MOL0     C69964   7.272   3.155   7.480 -0.1370 -0.0677  0.0776
  519MOL0     O69965   7.383   3.185   7.403  0.3799  0.0156 -0.2663
  519MOL0     C69966   7.490   3.259   7.462  0.5705 -0.2451  0.0397
  519MOL0     C69967   7.610   3.217   7.376 -0.1978 -0.0434  0.0427
  519MOL0     C69968   7.634   3.296   7.240  0.1219  0.7882 -0.1578
  519MOL0     C69969   7.643   3.446   7.264  0.2299 -0.1946 -0.8931
  519MOL0     C69970   7.720   3.511   7.154  0.2287 -1.0234  0.0902
  519MOL0     C69971   7.730   3.658   7.189 -0.4417  0.5301  0.2386
  519MOL0     C69972   7.752   3.750   7.061 -0.7177 -0.0185  0.4920
  519MOL0     C69973   7.835   3.881   7.100  1.0882  0.5410 -0.0204
  519MOL0    Cl69974   7.878   3.983   6.963 -0.3465 -0.1073 -0.0953
  519MOL0     C69975   7.217   3.031   7.465  0.6436  0.5914 -0.9193
  519MOL0     C69976   7.103   3.001   7.540  0.3054  0.1996  0.1335
  519MOL0     O69977   7.024   3.080   7.889 -0.2748  0.4860  0.0798
  519MOL0     C69978   6.781   3.031   8.011 -0.0403 -0.4410  0.2030
  519MOL0     C69979   6.661   3.010   8.068  0.6540 -0.5800  0.3573
  519MOL0     N69980   5.844   3.092   8.092  0.0593  0.5015 -0.2438
  519MOL0     N69981   5.749   3.165   8.060 -0.2004  0.4112  0.7102
  519MOL0     C69982   4.793   3.481   8.180  0.2661  0.8058  0.2948
  519MOL0     C69983   4.670   3.432   8.126 -0.2826  0.5065  0.9899
  519MOL0     C69984   4.306   3.134   8.146  1.0490  0.0118  0.4484
  519MOL0     C69985   4.319   3.104   8.007 -0.0287  0.6137 -0.4175
  519MOL0     C69986   4.229   3.018   7.937 -0.6157  0.1255 -0.5385
  519MOL0     C69987   4.132   2.945   8.011 -1.1829 -0.7890 -0.2332
  519MOL0     O69988   4.061   2.854   7.938 -0.1076  0.0663 -0.4459
  519MOL0     C69989   3.943   2.795   7.985 -0.2151 -0.1027 -0.1324
  519MOL0     C69990   3.865   2.741   7.865 -0.2051 -0.2558 -0.6558
  519MOL0     C69991   3.782   2.843   7.795 -0.3943 -0.6784  0.2740
  519MOL0     C69992   3.705   2.788   7.675  1.3015 -0.1120 -0.0472
  519MOL0     C69993   3.798   2.762   7.565  0.4509  0.5069  1.1952
  519MOL0     C69994   3.883   2.756   7.480  0.5528 -0.2138  0.0762
  519MOL0     C69995   4.119   2.982   8.144  0.7948 -0.2282  0.3498
  519MOL0     C69996   4.197   3.075   8.211  0.3988  0.5778  0.3169
  519MOL0     C69997   4.153   3.108   8.353  0.3561 -1.1431 -0.0487
  519MOL0     H69998   4.634   3.167   8.345  2.7255  0.0110  2.9619
  519MOL0     H69999   4.844   3.273   8.439  4.1074  1.3111 -1.3215
  519MOL0     H70000   5.116   3.432   8.220 -0.7904 -1.4602  1.2660
  519MOL0     H70001   5.059   3.605   8.222  0.2760 -0.5165 -1.0674
  519MOL0     H70002   5.266   3.463   8.381 -0.4649 -1.2505  0.7809
  519MOL0     H70003   5.159   3.581   8.463 -0.2464 -1.0754 -0.2462
  519MOL0     H70004   5.365   3.695   8.364 -0.4552  1.9403  0.0423
  519MOL0     H70005   5.209   3.754   8.299  1.3108  0.9952 -2.3951
  519MOL0     H70006   5.255   3.628   8.087 -0.1061 -0.2387  0.6320
  519MOL0     H70007   5.377   3.746   8.137 -0.6238  1.4764  2.4337
  519MOL0     H70008   5.402   3.445   8.214 -0.1542 -0.0783 -0.5950
  519MOL0     H70009   5.458   3.518   8.058 -0.3552  0.2629 -0.8636
  519MOL0     H70010   5.617   3.656   8.162 -0.9947 -1.3879 -0.1328
  519MOL0     H70011   5.567   3.612   8.328 -1.5293 -0.1067 -0.3140
  519MOL0     H70012   5.626   3.369   8.272 -0.3959  0.7958 -0.6421
  519MOL0     H70013   5.760   3.483   8.271 -0.6563  0.7997  0.4381
  519MOL0     H70014   5.610   3.385   8.036  0.3371 -0.6238  0.8376
  519MOL0     H70015   5.770   3.480   8.029  0.7354 -2.2325  0.0166
  519MOL0     H70016   5.957   3.385   8.186 -2.1913  0.8871  0.6255
  519MOL0     H70017   6.169   3.185   8.151 -0.8728  2.7347  0.8311
  519MOL0     H70018   6.095   3.151   8.304 -1.0422 -0.8860  0.6409
  519MOL0     H70019   6.066   2.905   8.225  1.7601  0.7202  3.7370
  519MOL0     H70020   6.136   2.959   8.065 -0.1339 -0.0893 -0.5505
  519MOL0     H70021   6.279   2.828   8.205  1.6124  0.7789 -1.9557
  519MOL0     H70022   6.267   2.934   8.339 -1.7687  0.1451  0.3563
  519MOL0     H70023   6.456   2.985   8.242 -0.7975 -0.1736 -0.4261
  519MOL0     H70024   6.376   3.121   8.174  1.0824 -0.1231 -1.2250
  519MOL0     H70025   6.454   2.998   7.797 -0.3576 -2.2002  0.6779
  519MOL0     H70026   6.686   3.009   7.691  0.3715  0.3232  0.5353
  519MOL0     H70027   7.040   3.297   7.690 -1.1197 -1.5040  1.6754
  519MOL0     H70028   7.259   3.347   7.562  2.5780 -0.9087 -0.7216
  519MOL0     H70029   7.468   3.365   7.454 -0.2876 -0.4057  0.2134
  519MOL0     H70030   7.501   3.230   7.567 -0.7509  2.0463  0.8747
  519MOL0     H70031   7.703   3.225   7.432 -0.5377 -3.1626  1.2744
  519MOL0     H70032   7.600   3.109   7.365 -2.0517  0.0883  0.0327
  519MOL0     H70033   7.715   3.242   7.191 -0.1427 -1.2823  1.5209
  519MOL0     H70034   7.541   3.284   7.184  1.0063  2.4823 -2.1427
  519MOL0     H70035   7.695   3.450   7.360  1.0865  2.6720 -1.3534
  519MOL0     H70036   7.543   3.491   7.266 -0.2647 -1.1459 -2.5042
  519MOL0     H70037   7.666   3.504   7.059 -1.7999 -0.7034  1.1672
  519MOL0     H70038   7.817   3.464   7.140 -0.4670 -2.0940 -1.3906
  519MOL0     H70039   7.637   3.687   7.240 -1.3219  0.5933 -1.3563
  519MOL0     H70040   7.813   3.678   7.257 -1.0269  3.1687  0.2944
  519MOL0     H70041   7.661   3.775   7.007 -0.0584 -0.2383 -0.7551
  519MOL0     H70042   7.817   3.696   6.992 -0.0476 -0.5896  1.5333
  519MOL0     H70043   7.772   3.942   7.165  2.6630  1.5196  0.6592
  519MOL0     H70044   7.922   3.841   7.152  0.3477 -3.8898 -1.8047
  519MOL0     H70045   7.269   2.956   7.405  0.8307  0.4992 -0.6433
  519MOL0     H70046   7.054   2.904   7.532 -0.7714  0.8072 -1.0448
  519MOL0     H70047   6.868   3.032   8.076 -0.3836 -0.1407  0.6647
  519MOL0     H70048   6.655   3.008   8.176  0.7807  1.4092  0.4495
  519MOL0     H70049   4.853   3.559   8.134  1.1043 -0.1409 -0.2879
  519MOL0     H70050   4.620   3.469   8.036 -0.5823  3.2380  2.1755
  519MOL0     H70051   4.396   3.150   7.947  1.5748 -0.0544  1.0407
  519MOL0     H70052   4.249   2.990   7.835  2.7654 -1.1599  0.3466
  519MOL0     H70053   3.874   2.856   8.044 -1.5875  1.4512 -3.1297
  519MOL0     H70054   3.972   2.707   8.042 -2.0268 -0.1980  0.7296
  519MOL0     H70055   3.804   2.655   7.895  0.8985 -1.7854 -2.5576
  519MOL0     H70056   3.944   2.701   7.802  0.5547  2.4162 -1.5329
  519MOL0     H70057   3.849   2.929   7.779 -0.2662  0.3531  4.9423
  519MOL0     H70058   3.703   2.876   7.863 -0.3390  1.1354 -0.4676
  519MOL0     H70059   3.657   2.692   7.696 -1.4026  0.9900 -0.7389
  519MOL0     H70060   3.632   2.867   7.656  1.6467  0.1212 -0.4151
  519MOL0     H70061   3.956   2.768   7.402 -1.3846  3.5839 -1.3983
  519MOL0     H70062   4.044   2.923   8.196  0.7666 -0.9271 -0.4611
  519MOL0     H70063   4.182   3.210   8.382 -0.1973 -1.2577  0.9778
  519MOL0     H70064   4.045   3.126   8.364  0.5942 -0.2946  1.0658
  519MOL0     H70065   4.200   3.031   8.415  0.7122 -0.6214  0.3350
  520MOL0     O70066   1.619   1.806   8.273  0.1709 -0.1117  0.1062
  520MOL0     C70067   1.521   1.834   8.340  0.1436  0.8255  0.2746
  520MOL0     O70068   1.516   1.833   8.478 -0.0161 -0.5255 -0.3543
  520MOL0     C70069   1.637   1.833   8.549 -0.0758 -0.3073 -1.0608
  520MOL0     C70070   1.715   1.945   8.564  0.0066 -0.3419  0.1494
  520MOL0     C70071   1.819   1.944   8.662 -0.1358  0.0179 -0.0979
  520MOL0     C70072   1.845   1.830   8.737  0.9100  0.0910 -0.6306
  520MOL0     O70073   1.949   1.824   8.827 -0.0622 -0.7334  0.0942
  520MOL0     C70074   1.976   1.709   8.898  1.0461 -0.1029 -0.3121
  520MOL0     C70075   2.093   1.750   8.987 -0.5313 -0.6645 -0.2894
  520MOL0     C70076   2.227   1.773   8.917  0.5162 -0.0101 -0.2939
  520MOL0     C70077   2.314   1.859   9.005 -0.4234  1.7042 -0.5756
  520MOL0     C70078   2.422   1.942   8.932  0.0160  0.7904 -0.1414
  520MOL0     C70079   2.507   2.031   9.024  0.3896  0.0150  0.6885
  520MOL0     C70080   2.588   2.148   8.949 -0.4962  0.1298 -0.7538
  520MOL0     C70081   2.710   2.092   8.876  0.6333  0.0383  0.8041
  520MOL0     N70082   2.779   2.192   8.793 -0.0144  0.3041 -0.2484
  520MOL0     C70083   2.886   2.273   8.830  0.7409  0.5664  0.5119
  520MOL0     C70084   2.905   2.355   8.723 -0.4804 -1.0175 -0.7242
  520MOL0     C70085   3.013   2.460   8.716 -0.3161 -0.1984  1.1811
  520MOL0     C70086   2.946   2.592   8.769  0.2390 -0.0443 -0.4739
  520MOL0     C70087   2.982   2.718   8.696 -0.6104  0.0099 -0.1048
  520MOL0     C70088   3.139   2.750   8.706  0.3076 -0.0570 -0.3250
  520MOL0     O70089   3.184   2.851   8.618 -0.2715 -0.8884 -0.0693
  520MOL0     C70090   3.307   2.899   8.645 -0.4325  0.6007 -0.2073
  520MOL0     C70091   3.359   2.996   8.561  0.4462  0.5674 -0.5103
  520MOL0     C70092   3.493   3.041   8.570 -0.6923 -0.3086  0.4556
  520MOL0     C70093   3.581   2.982   8.655 -0.5890  0.8801 -1.3409
  520MOL0     C70094   3.724   3.020   8.671  0.6728  0.1548 -0.0126
  520MOL0     O70095   3.767   3.051   8.801  0.4756  0.3141  0.3184
  520MOL0     C70096   3.902   3.084   8.810  0.4822 -0.2424  0.3124
  520MOL0     C70097   3.993   2.984   8.787 -0.1739  0.3215  0.3804
  520MOL0     C70098   4.133   3.017   8.815  0.0263 -0.3666 -0.0299
  520MOL0     C70099   4.169   3.131   8.874  0.5366 -0.5646  0.4952
  520MOL0     O70100   4.295   3.126   8.917  0.4926 -0.4756  0.7823
  520MOL0     C70101   4.385   3.210   8.852 -0.5355  0.3900  0.0828
  520MOL0     C70102   4.514   3.194   8.925  0.0354  0.0397  0.3295
  520MOL0     C70103   4.547   3.252   9.060  0.2262 -0.8692  0.0894
  520MOL0     C70104   4.662   3.171   9.127 -0.2527 -0.5186  0.5806
  520MOL0     C70105   4.797   3.154   9.043  0.6384  0.2034  0.1449
  520MOL0     C70106   4.898   3.056   9.102  0.3442 -0.1386 -0.8912
  520MOL0     C70107   4.929   3.098   9.247 -0.0614  0.4686 -0.3438
  520MOL0     C70108   5.036   2.998   9.309 -0.1232 -0.1726  1.0445
  520MOL0    Cl70109   5.170   2.983   9.176  0.4311 -0.1767  0.0304
  520MOL0     C70110   4.075   3.225   8.921  0.0690 -0.1064  0.5864
  520MOL0     C70111   3.939   3.202   8.883 -0.5015 -0.4319 -0.6170
  520MOL0     O70112   3.782   3.048   8.570 -0.1377 -0.4191 -0.8067
  520MOL0     C70113   3.528   2.886   8.744 -0.1451  0.5405 -0.2268
  520MOL0     C70114   3.395   2.847   8.740 -0.6015 -0.1752  0.5212
  520MOL0     N70115   2.818   2.325   8.623 -0.0610 -0.0030 -0.6932
  520MOL0     N70116   2.743   2.230   8.668 -0.7584 -0.0174 -0.1153
  520MOL0     C70117   1.767   1.718   8.711  0.0796 -0.4397  0.9219
  520MOL0     C70118   1.664   1.723   8.621  0.6110  0.2776  0.6884
  520MOL0     C70119   1.395   1.814   8.255 -0.5645  0.6480 -0.1832
  520MOL0     C70120   1.407   1.795   8.118 -0.5735  0.4665  0.1170
  520MOL0     C70121   1.299   1.768   8.036  0.4766 -0.0576  0.7843
  520MOL0     C70122   1.166   1.769   8.089  0.6987 -0.1835 -0.3143
  520MOL0     O70123   1.073   1.753   7.999  0.1470  0.3131  0.7767
  520MOL0     C70124   0.957   1.830   8.012 -0.4723 -0.5383  0.1974
  520MOL0     C70125   0.878   1.807   7.885 -0.7151 -0.7571 -0.5038
  520MOL0     C70126   0.790   1.682   7.881  0.3913 -0.2401 -0.2503
  520MOL0     C70127   0.846   1.565   7.805  0.1834 -0.3934 -0.0517
  520MOL0     C70128   0.764   1.443   7.821 -0.3924  0.7093 -0.1707
  520MOL0     C70129   0.697   1.343   7.821 -0.1075  0.7419 -0.0458
  520MOL0     C70130   1.147   1.796   8.225  0.5066 -0.4307 -1.0869
  520MOL0     C70131   1.259   1.807   8.307 -1.4772 -0.2180 -0.7481
  520MOL0     C70132   1.227   1.853   8.442 -0.1178  0.0455 -0.3977
  520MOL0     H70133   1.686   2.025   8.496 -2.2182 -0.9525  0.3216
  520MOL0     H70134   1.885   2.029   8.668  0.0364 -0.0765 -0.5902
  520MOL0     H70135   1.883   1.685   8.950 -0.2771  0.8038 -2.1818
  520MOL0     H70136   2.003   1.622   8.838 -0.5085 -0.6736 -0.2346
  520MOL0     H70137   2.104   1.665   9.054 -0.8420 -0.1485  0.4251
  520MOL0     H70138   2.053   1.837   9.040  1.5764 -0.7482  1.5831
  520MOL0     H70139   2.205   1.825   8.824 -1.6554  3.0411  1.7242
  520MOL0     H70140   2.283   1.680   8.901 -0.5276 -0.8667  0.8773
  520MOL0     H70141   2.257   1.930   9.065 -0.1171  2.4037 -1.0959
  520MOL0     H70142   2.362   1.797   9.081 -1.8858  1.2671  0.0184
  520MOL0     H70143   2.487   1.885   8.864  1.4772 -0.4983  2.2052
  520MOL0     H70144   2.365   2.012   8.870  0.1385  0.1710 -0.9735
  520MOL0     H70145   2.436   2.077   9.093  2.1317 -0.9474  3.2247
  520MOL0     H70146   2.574   1.965   9.079  0.7923 -1.2884 -1.2696
  520MOL0     H70147   2.617   2.225   9.021  1.6603 -1.0466 -0.3023
  520MOL0     H70148   2.523   2.203   8.880  0.1635  2.7971  0.6130
  520MOL0     H70149   2.780   2.054   8.952 -0.0131 -1.9450  0.4829
  520MOL0     H70150   2.670   2.005   8.823 -2.2647  2.0914 -0.6206
  520MOL0     H70151   2.935   2.278   8.927  0.6227 -4.3562  1.1134
  520MOL0     H70152   3.103   2.430   8.771  0.3997 -1.2509 -0.4663
  520MOL0     H70153   3.054   2.470   8.615 -0.8094 -1.1451  0.8782
  520MOL0     H70154   2.839   2.580   8.748  0.6153 -3.9294 -0.8241
  520MOL0     H70155   2.962   2.614   8.875 -1.3831  4.1385 -0.8769
  520MOL0     H70156   2.929   2.807   8.732  1.4356  0.1383  3.0089
  520MOL0     H70157   2.968   2.702   8.589  2.4481 -0.6116 -0.4994
  520MOL0     H70158   3.193   2.657   8.688  1.6431  0.8624 -1.2596
  520MOL0     H70159   3.154   2.770   8.812 -1.4071 -3.2828  0.6617
  520MOL0     H70160   3.296   3.051   8.491  0.4823  2.3236  0.7669
  520MOL0     H70161   3.533   3.118   8.507  1.2257 -3.8516 -3.0779
  520MOL0     H70162   3.963   2.891   8.741  0.1755  0.2928  0.2121
  520MOL0     H70163   4.208   2.944   8.787  0.3467  0.3822 -1.1811
  520MOL0     H70164   4.397   3.171   8.750  0.0717 -0.8524  0.6008
  520MOL0     H70165   4.346   3.312   8.848  0.4314  0.7918  0.5783
  520MOL0     H70166   4.517   3.084   8.917  0.4839  0.1646 -5.2155
  520MOL0     H70167   4.595   3.230   8.861  0.3975 -2.4555 -0.7353
  520MOL0     H70168   4.570   3.359   9.068 -0.0248 -0.9336  2.8772
  520MOL0     H70169   4.455   3.238   9.119  2.0689 -2.0773  2.9141
  520MOL0     H70170   4.630   3.070   9.155  3.5874 -2.0429  0.0996
  520MOL0     H70171   4.682   3.227   9.219  0.5258  4.1225 -2.1183
  520MOL0     H70172   4.845   3.251   9.024  0.4218  0.6992  1.9962
  520MOL0     H70173   4.778   3.117   8.942  1.8813  0.0914 -0.0644
  520MOL0     H70174   4.863   2.952   9.106  1.3040 -0.4321  0.4045
  520MOL0     H70175   4.991   3.075   9.047  0.2580  1.3137 -0.5848
  520MOL0     H70176   4.839   3.106   9.309 -0.5267  2.7991 -1.2140
  520MOL0     H70177   4.967   3.200   9.250  2.3989 -0.3492 -0.6434
  520MOL0     H70178   5.083   3.041   9.398  0.7255  2.1886 -0.4353
  520MOL0     H70179   4.983   2.905   9.330  0.7730 -0.9315  0.0249
  520MOL0     H70180   4.093   3.315   8.980 -0.3558 -0.3124  1.0351
  520MOL0     H70181   3.852   3.263   8.907  0.1603 -0.7081  3.1151
  520MOL0     H70182   3.584   2.834   8.822 -0.8808 -1.5314 -1.0028
  520MOL0     H70183   3.360   2.774   8.812 -2.4675  0.8386  0.6831
  520MOL0     H70184   1.778   1.622   8.761 -0.1691 -1.5965 -1.1427
  520MOL0     H70185   1.596   1.638   8.615  1.7595 -0.5551 -2.9727
  520MOL0     H70186   1.501   1.817   8.068  0.5800 -1.1979  1.4156
  520MOL0     H70187   1.308   1.759   7.928 -4.4346 -1.3646  0.2479
  520MOL0     H70188   1.006   1.926   7.995  1.3518 -1.3181  0.8152
  520MOL0     H70189   0.890   1.831   8.098 -0.6513 -0.9121  0.0666
  520MOL0     H70190   0.942   1.787   7.798  0.3756  0.7294 -0.0753
  520MOL0     H70191   0.825   1.901   7.868  1.7810  1.0233  0.9606
  520MOL0     H70192   0.701   1.702   7.821 -0.1129  0.2438  0.6290
  520MOL0     H70193   0.755   1.660   7.982  1.2908  1.1689  0.4083
  520MOL0     H70194   0.848   1.600   7.701 -0.8577  3.3058  1.0296
  520MOL0     H70195   0.948   1.548   7.837 -0.3613  0.3464  2.2319
  520MOL0     H70196   0.637   1.255   7.824 -2.3330  2.2276  1.6104
  520MOL0     H70197   1.046   1.809   8.264  1.5538 -0.1786  1.7505
  520MOL0     H70198   1.128   1.896   8.454  1.0829  3.7115 -2.0589
  520MOL0     H70199   1.251   1.767   8.506 -2.7347  0.5842  1.4844
  520MOL0     H70200   1.293   1.939   8.460 -1.4566  0.9311  0.4239
  521MOL0     O70201   7.292   7.587   7.687 -0.1980  0.0900 -0.3119
  521MOL0     C70202   7.268   7.580   7.566 -0.1993 -1.1009 -0.1290
  521MOL0     O70203   7.351   7.632   7.467 -0.7045 -0.4261 -0.0398
  521MOL0     C70204   7.480   7.659   7.483 -0.0976  0.1126  0.0152
  521MOL0     C70205   7.510   7.765   7.572  0.2008  0.2738  0.8701
  521MOL0     C70206   7.641   7.808   7.587  0.4903  0.3425 -0.2814
  521MOL0     C70207   7.743   7.752   7.514 -0.3805  0.1130 -0.3320
  521MOL0     O70208   7.871   7.793   7.542 -0.3528 -0.0836 -1.1014
  521MOL0     C70209   7.972   7.701   7.505 -0.1083 -0.3775 -0.4965
  521MOL0     C70210   8.108   7.765   7.553 -0.3291 -0.1768  0.0573
  521MOL0     C70211   8.218   7.669   7.589  0.3301 -0.1192 -0.7682
  521MOL0     C70212   8.343   7.750   7.623 -0.4418 -1.2032  0.1297
  521MOL0     C70213   8.404   7.690   7.744 -0.1090 -0.1309  0.0870
  521MOL0     C70214   8.544   7.748   7.763 -0.6160 -0.4447  0.1238
  521MOL0     C70215   8.610   7.715   7.901  0.2746  0.9037 -1.0461
  521MOL0     C70216   8.745   7.785   7.922  0.6012  0.5538 -0.2786
  521MOL0     N70217   8.848   7.700   7.870 -0.0212  0.2969 -0.3332
  521MOL0     C70218   8.962   7.657   7.943  0.4007 -0.2395  0.3721
  521MOL0     C70219   9.011   7.562   7.863 -0.1788  0.5146  0.0890
  521MOL0     C70220   9.121   7.481   7.889 -0.5145  0.3105 -0.0324
  521MOL0     C70221   9.247   7.565   7.897  0.3394  0.1214 -0.3348
  521MOL0     C70222   9.366   7.484   7.950  0.2829 -0.1320 -0.7776
  521MOL0     C70223   9.489   7.575   7.962  0.6933 -0.2226  0.1504
  521MOL0     O70224   9.522   7.633   7.833  0.3122 -0.1844  0.4502
  521MOL0     C70225   9.642   7.697   7.827  0.0644 -0.3306 -0.1628
  521MOL0     C70226   9.719   7.737   7.932  0.6951  0.2980  0.2683
  521MOL0     C70227   9.849   7.780   7.916 -0.0459 -0.1881  0.5810
  521MOL0     C70228   9.903   7.788   7.787  0.2477  0.3550 -0.2701
  521MOL0     C70229  10.040   7.835   7.771  0.9885  0.2169  0.2231
  521MOL0     O70230  10.071   7.854   7.641 -0.1804 -0.0399 -0.0125
  521MOL0     C70231  10.201   7.893   7.612 -0.4999  0.3790 -0.1970
  521MOL0     C70232  10.232   8.025   7.582 -0.4299 -0.0786  0.5560
  521MOL0     C70233  10.362   8.067   7.555  0.3737  0.2867 -0.5599
  521MOL0     C70234  10.473   7.976   7.561  0.6182 -0.0881 -0.4283
  521MOL0     O70235  10.598   8.025   7.530 -0.3975  0.0401 -0.8027
  521MOL0     C70236  10.689   7.946   7.445 -0.6384 -0.0583  1.4066
  521MOL0     C70237  10.804   8.026   7.397 -0.5092 -0.2226  0.2148
  521MOL0     C70238  10.911   8.058   7.503  0.0248 -0.9974 -0.4694
  521MOL0     C70239  11.024   8.124   7.431 -0.8863 -0.3654 -0.2137
  521MOL0     C70240  11.123   8.207   7.523 -0.1313 -0.3388 -0.5286
  521MOL0     C70241  11.251   8.151   7.572  1.0953 -0.0898  0.4481
  521MOL0     C70242  11.347   8.261   7.633  0.0520  0.3550  0.0101
  521MOL0     C70243  11.471   8.189   7.683 -0.6572 -0.1356  0.2548
  521MOL0    Cl70244  11.606   8.318   7.668  0.0236  0.0783 -0.1977
  521MOL0     C70245  10.442   7.845   7.586  0.9950  0.8550 -0.1498
  521MOL0     C70246  10.305   7.805   7.615 -0.0089 -0.2643  0.5286
  521MOL0     O70247  10.106   7.872   7.865  0.5388 -0.7103 -0.0006
  521MOL0     C70248   9.819   7.759   7.678 -0.1227 -0.6923  0.6284
  521MOL0     C70249   9.687   7.732   7.701  0.3187  0.6922 -0.1897
  521MOL0     N70250   8.942   7.558   7.745 -0.7215 -0.3139 -0.4125
  521MOL0     N70251   8.842   7.641   7.753 -0.7824  0.7508  0.6291
  521MOL0     C70252   7.717   7.653   7.418  0.2019 -0.9582 -0.2344
  521MOL0     C70253   7.583   7.611   7.403 -0.1676 -0.1011 -0.5254
  521MOL0     C70254   7.147   7.495   7.527  0.1642 -1.0269 -0.0246
  521MOL0     C70255   7.155   7.424   7.404 -0.5615  0.1014  0.2112
  521MOL0     C70256   7.050   7.337   7.371  0.0119  0.2348  0.2516
  521MOL0     C70257   6.928   7.332   7.448 -0.1833 -0.0154 -0.2088
  521MOL0     O70258   6.819   7.254   7.434 -0.1369  0.0177  0.3151
  521MOL0     C70259   6.817   7.174   7.313  0.3403  0.2502  0.9908
  521MOL0     C70260   6.666   7.139   7.269  0.0706 -0.2115 -0.5374
  521MOL0     C70261   6.674   7.072   7.130  0.2628 -0.8363 -0.6213
  521MOL0     C70262   6.693   7.161   7.003 -0.8986  0.0331  0.4780
  521MOL0     C70263   6.606   7.273   6.985 -0.2620 -0.6354 -0.7124
  521MOL0     C70264   6.533   7.365   6.992  1.1896 -0.2114 -0.8647
  521MOL0     C70265   6.919   7.414   7.562 -0.6915 -0.2868 -0.0038
  521MOL0     C70266   7.028   7.492   7.607 -0.2318  0.4758 -0.6336
  521MOL0     C70267   7.006   7.581   7.722 -0.2057  0.0478 -0.0188
  521MOL0     H70268   7.432   7.805   7.637  0.2241  0.4507  0.7901
  521MOL0     H70269   7.673   7.874   7.667 -1.2667  0.5523  0.3057
  521MOL0     H70270   7.952   7.600   7.539 -1.9066 -1.0672 -3.2238
  521MOL0     H70271   7.969   7.707   7.395 -1.5954  2.6610 -0.3962
  521MOL0     H70272   8.087   7.817   7.646 -0.4031 -1.8689  1.0315
  521MOL0     H70273   8.127   7.843   7.479  0.0276  0.7920  1.1448
  521MOL0     H70274   8.237   7.615   7.496 -1.5011  1.4435 -2.1408
  521MOL0     H70275   8.194   7.605   7.674  1.6996 -1.8618 -1.6183
  521MOL0     H70276   8.409   7.744   7.536 -2.1803 -0.2586 -1.3415
  521MOL0     H70277   8.323   7.856   7.643 -4.1346 -1.7537  0.1996
  521MOL0     H70278   8.338   7.715   7.828 -1.3107 -1.4945 -0.4122
  521MOL0     H70279   8.405   7.581   7.731  0.9360  0.1999 -3.8518
  521MOL0     H70280   8.605   7.711   7.680 -1.8192 -2.0875 -0.0631
  521MOL0     H70281   8.534   7.856   7.751 -0.7076 -0.6823 -2.5041
  521MOL0     H70282   8.614   7.606   7.913  0.4561  0.8164 -1.8710
  521MOL0     H70283   8.543   7.740   7.983  1.5469 -0.1196  0.3718
  521MOL0     H70284   8.738   7.873   7.857 -6.8633 -0.8670 -2.3287
  521MOL0     H70285   8.764   7.806   8.028  3.7107 -2.6149 -0.0181
  521MOL0     H70286   8.995   7.683   8.043  0.4149 -2.0029  0.8684
  521MOL0     H70287   9.114   7.425   7.983  1.2711  0.5735  0.2977
  521MOL0     H70288   9.134   7.409   7.807  0.4035  2.6060 -2.0165
  521MOL0     H70289   9.270   7.622   7.807 -3.0580  3.3494  0.6312
  521MOL0     H70290   9.231   7.637   7.977 -1.2506 -0.8609  0.2883
  521MOL0     H70291   9.375   7.395   7.887 -1.0771  0.7450 -2.3216
  521MOL0     H70292   9.349   7.460   8.055  3.4496  3.0932  0.6967
  521MOL0     H70293   9.563   7.502   7.997  0.1187  0.5074  3.2585
  521MOL0     H70294   9.467   7.651   8.038 -3.0734 -0.4979 -0.4455
  521MOL0     H70295   9.678   7.746   8.032  1.2500  0.0377  0.5276
  521MOL0     H70296   9.913   7.808   7.999 -0.9244  3.3003  0.2343
  521MOL0     H70297  10.147   8.093   7.580 -0.7472 -0.4058 -2.6975
  521MOL0     H70298  10.378   8.171   7.531  1.0560 -0.1085 -1.9595
  521MOL0     H70299  10.716   7.847   7.482 -0.2519 -0.5196 -0.0465
  521MOL0     H70300  10.638   7.935   7.349  0.0564  0.8735  0.9065
  521MOL0     H70301  10.843   7.966   7.314 -1.5322 -1.1580  0.3764
  521MOL0     H70302  10.765   8.119   7.357  0.6036  0.7901  1.3960
  521MOL0     H70303  10.867   8.112   7.587 -0.1834 -1.6266 -0.1621
  521MOL0     H70304  10.956   7.967   7.544 -0.6458 -1.0887  0.0785
  521MOL0     H70305  10.981   8.201   7.367  0.1708  0.8187  0.4630
  521MOL0     H70306  11.082   8.065   7.359  1.7843  1.9529 -0.1014
  521MOL0     H70307  11.071   8.243   7.612  1.2749  0.1304  0.1312
  521MOL0     H70308  11.147   8.292   7.458 -1.6347  2.8685  2.7241
  521MOL0     H70309  11.225   8.074   7.645 -1.5796  2.1879  2.1031
  521MOL0     H70310  11.307   8.110   7.487 -0.3429 -0.7257 -0.2214
  521MOL0     H70311  11.295   8.316   7.712 -0.8490  1.4380 -1.3074
  521MOL0     H70312  11.371   8.337   7.558 -0.2005  0.3303 -0.0962
  521MOL0     H70313  11.453   8.166   7.789  0.3179 -0.2304  0.4087
  521MOL0     H70314  11.488   8.099   7.623  1.2607  1.6003 -1.9690
  521MOL0     H70315  10.513   7.765   7.601 -0.8823 -0.4761  2.6670
  521MOL0     H70316  10.287   7.702   7.643  0.4225 -0.6721 -0.6120
  521MOL0     H70317   9.849   7.793   7.580 -0.3601 -1.3624  0.3155
  521MOL0     H70318   9.618   7.699   7.623 -0.6794 -0.2769  1.0704
  521MOL0     H70319   7.786   7.613   7.345  1.1048 -0.7883  0.5118
  521MOL0     H70320   7.561   7.546   7.319 -1.5574 -0.4184  0.0601
  521MOL0     H70321   7.247   7.431   7.346 -0.5658  1.1619  0.3214
  521MOL0     H70322   7.059   7.276   7.282 -3.3390 -1.1499  0.7250
  521MOL0     H70323   6.865   7.076   7.327 -2.7819 -1.3926  1.3178
  521MOL0     H70324   6.869   7.216   7.227 -1.0257 -3.1895 -1.8030
  521MOL0     H70325   6.601   7.227   7.269 -1.2292 -1.0812  1.3976
  521MOL0     H70326   6.622   7.067   7.340  1.6503 -2.7181 -1.9656
  521MOL0     H70327   6.575   7.028   7.115 -0.2726  0.0164  0.3470
  521MOL0     H70328   6.744   6.988   7.129 -1.5220 -2.3913 -0.5098
  521MOL0     H70329   6.797   7.192   6.987 -0.4991 -1.6291 -0.3056
  521MOL0     H70330   6.662   7.086   6.930  2.0984 -2.3311  1.4136
  521MOL0     H70331   6.473   7.454   6.989  1.6716  0.2806  1.7527
  521MOL0     H70332   6.836   7.399   7.629  0.1667 -0.9141  0.9500
  521MOL0     H70333   7.085   7.571   7.797  2.6038 -0.0291 -2.7743
  521MOL0     H70334   7.023   7.685   7.694  1.4099 -0.1392  0.1292
  521MOL0     H70335   6.907   7.561   7.764 -1.7762  3.9739 -1.3540
  522MOL0     O70336  10.685   1.729   9.358  0.7552 -0.1827 -0.8119
  522MOL0     C70337  10.663   1.691   9.245  0.0742  0.0462 -0.5240
  522MOL0     O70338  10.755   1.696   9.138 -0.7767 -0.1444 -0.4216
  522MOL0     C70339  10.886   1.706   9.178 -0.8020 -0.0428  1.0748
  522MOL0     C70340  10.960   1.824   9.162 -0.3644  1.1386 -0.2273
  522MOL0     C70341  11.097   1.831   9.195  1.0788 -0.9659  0.1934
  522MOL0     C70342  11.167   1.730   9.262  0.5626  0.8303  0.1187
  522MOL0     O70343  11.300   1.743   9.300 -0.4645  0.2712  0.4097
  522MOL0     C70344  11.370   1.625   9.344  0.5417  0.7400 -0.5790
  522MOL0     C70345  11.512   1.672   9.382  0.1410  0.5772 -0.0502
  522MOL0     C70346  11.609   1.559   9.424  0.8521 -0.7833  0.3281
  522MOL0     C70347  11.646   1.484   9.295 -0.5686  0.0989  0.3498
  522MOL0     C70348  11.783   1.408   9.301  0.3228  0.5173  0.3030
  522MOL0     C70349  11.782   1.312   9.417 -0.3384  0.0637 -0.3177
  522MOL0     C70350  11.928   1.263   9.428  0.3964  0.2182 -0.2503
  522MOL0     C70351  11.949   1.136   9.510 -0.1074  0.2210  0.3965
  522MOL0     N70352  12.089   1.095   9.500  0.0315 -0.0548 -0.2598
  522MOL0     C70353  12.197   1.159   9.450  0.6445  0.6112  0.6852
  522MOL0     C70354  12.304   1.078   9.458  0.0719 -0.1121  0.6155
  522MOL0     C70355  12.451   1.130   9.434  0.0584 -0.6693 -0.4382
  522MOL0     C70356  12.544   1.013   9.435  0.2814 -0.3625  0.4148
  522MOL0     C70357  12.689   1.068   9.445  1.5865  0.0587 -0.3792
  522MOL0     C70358  12.795   0.962   9.428 -0.1226  0.7248  0.2991
  522MOL0     O70359  12.916   1.030   9.426  0.0948 -0.3236 -0.0599
  522MOL0     C70360  13.028   0.949   9.437  0.8226  0.5853  0.1766
  522MOL0     C70361  13.142   1.022   9.437  0.4507 -0.2718 -1.0511
  522MOL0     C70362  13.270   0.961   9.450 -0.1374  0.0311  0.1350
  522MOL0     C70363  13.272   0.822   9.447  0.1664  0.3198  0.0831
  522MOL0     C70364  13.404   0.754   9.459  0.2775 -0.3016 -0.3890
  522MOL0     O70365  13.507   0.827   9.509 -0.3014 -0.2605  0.2871
  522MOL0     C70366  13.627   0.760   9.542  0.8591 -0.1232 -0.5445
  522MOL0     C70367  13.754   0.804   9.492  0.6301  0.2658  0.8534
  522MOL0     C70368  13.866   0.732   9.526  0.2840 -0.6198  0.1957
  522MOL0     C70369  13.867   0.629   9.614  0.7286 -0.0420 -1.0280
  522MOL0     O70370  13.975   0.552   9.659 -0.0870 -0.2725  0.4444
  522MOL0     C70371  14.104   0.563   9.598 -0.0827 -0.0696  0.0718
  522MOL0     C70372  14.171   0.672   9.679 -0.1549  0.0148  0.0284
  522MOL0     C70373  14.313   0.703   9.659 -0.2152 -0.9475 -0.3336
  522MOL0     C70374  14.384   0.779   9.777 -0.7890  1.0124  0.5678
  522MOL0     C70375  14.538   0.815   9.737  0.1115  0.8341  0.3652
  522MOL0     C70376  14.619   0.897   9.839 -0.0755  0.0158  0.7102
  522MOL0     C70377  14.645   0.830   9.977 -0.5184  0.0079 -0.7553
  522MOL0     C70378  14.766   0.906  10.048 -0.5306  0.1857  0.4998
  522MOL0    Cl70379  14.911   0.906   9.945 -0.2472  0.1617 -0.3373
  522MOL0     C70380  13.741   0.597   9.684  0.2015 -0.2095  0.3374
  522MOL0     C70381  13.623   0.664   9.647 -1.2629 -0.1861  0.3043
  522MOL0     O70382  13.411   0.637   9.424 -0.2442  0.2702  0.5795
  522MOL0     C70383  13.152   0.747   9.431 -0.1311  0.0495 -0.0987
  522MOL0     C70384  13.027   0.806   9.432 -0.7410 -0.8886  0.0602
  522MOL0     N70385  12.262   0.955   9.488 -0.4670  0.4507 -0.5322
  522MOL0     N70386  12.133   0.962   9.502  0.0477  0.3934  0.5859
  522MOL0     C70387  11.092   1.612   9.292  1.0243 -0.7201  0.7261
  522MOL0     C70388  10.957   1.600   9.236 -1.3340 -0.9827 -0.2192
  522MOL0     C70389  10.513   1.668   9.219  0.3035  0.0607 -0.4788
  522MOL0     C70390  10.482   1.665   9.083 -0.0750 -1.2850  0.6989
  522MOL0     C70391  10.358   1.648   9.038  0.2059 -0.1070  0.2094
  522MOL0     C70392  10.257   1.614   9.130  1.1323  0.1877  0.2437
  522MOL0     O70393  10.137   1.585   9.061 -0.5165  0.1295 -0.7361
  522MOL0     C70394  10.019   1.529   9.123  0.6258  1.1570  0.1170
  522MOL0     C70395   9.887   1.579   9.049  0.1157 -0.2817 -0.0269
  522MOL0     C70396   9.770   1.594   9.142  0.3951  0.4926 -0.6844
  522MOL0     C70397   9.638   1.650   9.083 -0.4745 -0.3143 -0.1640
  522MOL0     C70398   9.651   1.784   9.031 -0.4183  0.0968  0.6076
  522MOL0     C70399   9.667   1.899   8.987 -0.6090 -0.0894 -0.6378
  522MOL0     C70400  10.284   1.595   9.265 -0.8801  0.3561 -0.8669
  522MOL0     C70401  10.414   1.625   9.311 -0.2610  0.0071  0.1206
  522MOL0     C70402  10.447   1.605   9.449 -0.3227 -0.6842 -0.1574
  522MOL0     H70403  10.925   1.923   9.136  1.7129  2.8499  2.9054
  522MOL0     H70404  11.145   1.915   9.147  3.0897 -2.1594  0.0034
  522MOL0     H70405  11.305   1.584   9.422  0.4339  2.4877  0.3128
  522MOL0     H70406  11.376   1.549   9.266  1.4135  0.1328  0.0645
  522MOL0     H70407  11.520   1.738   9.468 -0.6404  0.9040 -0.2208
  522MOL0     H70408  11.558   1.723   9.297 -3.0334  2.4319 -0.8314
  522MOL0     H70409  11.570   1.489   9.499 -0.2888 -2.2968 -1.5827
  522MOL0     H70410  11.705   1.603   9.452  1.2147 -1.9332  0.9518
  522MOL0     H70411  11.566   1.410   9.287  0.8168 -1.3644 -0.4403
  522MOL0     H70412  11.654   1.557   9.213  1.4469  2.8906  2.7980
  522MOL0     H70413  11.804   1.350   9.211 -3.4804  1.0605 -1.1187
  522MOL0     H70414  11.873   1.468   9.320  1.0657 -0.8045  1.0620
  522MOL0     H70415  11.755   1.364   9.509  1.1365  0.8466 -0.3047
  522MOL0     H70416  11.717   1.228   9.392  2.5498 -1.5673 -3.0374
  522MOL0     H70417  11.977   1.352   9.467 -1.3228  0.6343  1.1312
  522MOL0     H70418  11.972   1.237   9.331  1.1488 -0.4164  0.2524
  522MOL0     H70419  11.940   1.132   9.619  1.1307 -3.4443  0.5033
  522MOL0     H70420  11.887   1.057   9.467  1.8296 -0.3503 -1.4709
  522MOL0     H70421  12.219   1.264   9.436  4.3224 -0.1370 -0.1301
  522MOL0     H70422  12.444   1.172   9.333  4.6126 -1.3955 -1.2630
  522MOL0     H70423  12.484   1.198   9.513 -0.3546 -3.2095  2.1097
  522MOL0     H70424  12.522   0.966   9.532 -1.7085  0.2422  0.3005
  522MOL0     H70425  12.520   0.950   9.349 -2.7388  1.6394 -0.3946
  522MOL0     H70426  12.699   1.102   9.548 -0.8715 -0.0723 -0.0557
  522MOL0     H70427  12.708   1.154   9.380  4.5306  0.8283  1.3356
  522MOL0     H70428  12.782   0.909   9.333  1.6546  3.6454 -1.7814
  522MOL0     H70429  12.799   0.898   9.516  0.8133  3.2506  2.2193
  522MOL0     H70430  13.132   1.129   9.427 -2.3278 -0.4636 -1.0828
  522MOL0     H70431  13.354   1.027   9.467  2.0386 -2.4365 -0.4454
  522MOL0     H70432  13.756   0.879   9.414 -0.8819 -1.7008 -1.2383
  522MOL0     H70433  13.956   0.769   9.477 -1.7721  4.4621 -0.4286
  522MOL0     H70434  14.155   0.468   9.614 -4.2134 -2.4560  0.5176
  522MOL0     H70435  14.098   0.594   9.493 -2.4027  0.6742  0.3645
  522MOL0     H70436  14.120   0.766   9.656 -1.8191 -0.5560  1.1184
  522MOL0     H70437  14.152   0.647   9.784 -1.3356 -0.4705 -0.2823
  522MOL0     H70438  14.360   0.604   9.657 -2.3764 -2.0737  0.6018
  522MOL0     H70439  14.321   0.750   9.561 -0.4772 -0.1310  0.0234
  522MOL0     H70440  14.382   0.738   9.878 -1.6175  1.1529  0.6187
  522MOL0     H70441  14.331   0.875   9.787 -0.3194  1.4935 -1.2051
  522MOL0     H70442  14.522   0.880   9.650 -3.1874  0.8697  0.8599
  522MOL0     H70443  14.599   0.728   9.713 -0.9463  0.5054 -1.2340
  522MOL0     H70444  14.710   0.929   9.788  2.6258 -5.1547  1.6206
  522MOL0     H70445  14.555   0.983   9.865 -2.1823 -1.7053  1.5179
  522MOL0     H70446  14.681   0.730   9.950  0.8490  0.5440 -1.0046
  522MOL0     H70447  14.565   0.825  10.052  0.0287 -1.5378 -0.2225
  522MOL0     H70448  14.721   1.002  10.077 -1.4967 -0.9181  2.8867
  522MOL0     H70449  14.781   0.845  10.137  0.6869 -1.6336 -0.8769
  522MOL0     H70450  13.735   0.516   9.757 -3.4992  1.6006  2.3327
  522MOL0     H70451  13.542   0.621   9.705  1.3856 -3.3531  2.0236
  522MOL0     H70452  13.164   0.639   9.425  2.2043  0.3175 -2.1939
  522MOL0     H70453  12.936   0.747   9.427 -0.5157 -1.1327 -2.7917
  522MOL0     H70454  11.134   1.527   9.345 -2.4842 -1.9718  1.7217
  522MOL0     H70455  10.904   1.506   9.244 -2.2614 -0.2758  4.0229
  522MOL0     H70456  10.545   1.720   9.014 -1.6528 -0.2325  0.0228
  522MOL0     H70457  10.338   1.661   8.932 -0.7292 -0.7046  0.3026
  522MOL0     H70458  10.023   1.563   9.227  2.4216  2.5007 -0.3396
  522MOL0     H70459  10.023   1.421   9.136  0.2677  1.1554  0.2184
  522MOL0     H70460   9.865   1.503   8.974 -0.0787 -0.9929  0.7408
  522MOL0     H70461   9.913   1.674   9.001 -0.2277 -0.1051  0.1293
  522MOL0     H70462   9.802   1.660   9.224  2.7830 -3.4759  1.9422
  522MOL0     H70463   9.753   1.499   9.194  2.4086 -0.0075 -0.8371
  522MOL0     H70464   9.601   1.589   9.000 -0.6357 -0.0361 -0.3022
  522MOL0     H70465   9.563   1.649   9.163 -0.9592  2.0765 -0.4986
  522MOL0     H70466   9.668   2.000   8.952  3.1796  0.7096  1.2156
  522MOL0     H70467  10.212   1.550   9.334  0.7463 -0.5485  0.3116
  522MOL0     H70468  10.354   1.563   9.489 -1.7389  0.8269 -1.6737
  522MOL0     H70469  10.533   1.539   9.459  0.5858  0.1977 -1.7992
  522MOL0     H70470  10.474   1.696   9.502  0.1991 -1.1979  0.4807
  523MOL0     O70471   2.010   2.268   6.136 -0.1962  0.2071 -0.0216
  523MOL0     C70472   1.988   2.338   6.041  0.4106 -1.1699  0.8152
  523MOL0     O70473   2.075   2.370   5.941 -0.3965  0.1302  0.3287
  523MOL0     C70474   2.202   2.322   5.942  0.1658 -0.4593 -0.6323
  523MOL0     C70475   2.266   2.306   5.818  0.2071  0.0281  0.4665
  523MOL0     C70476   2.392   2.248   5.815  0.3669 -0.4416  0.5394
  523MOL0     C70477   2.451   2.204   5.935 -0.4892 -0.7236  0.1817
  523MOL0     O70478   2.565   2.122   5.918  1.1154 -0.1233 -0.2012
  523MOL0     C70479   2.645   2.098   6.037 -0.6335  0.6584  0.3807
  523MOL0     C70480   2.770   2.017   5.997 -0.0738  0.7940  0.0399
  523MOL0     C70481   2.837   2.060   5.866  0.0454 -0.3355  0.4830
  523MOL0     C70482   2.943   1.955   5.843  0.0527  0.0743  0.9457
  523MOL0     C70483   3.070   2.021   5.777 -0.0842  0.0519  0.8041
  523MOL0     C70484   3.195   1.936   5.780  0.6485  0.3727  0.2197
  523MOL0     C70485   3.325   2.019   5.769  0.5237  0.6587  0.5411
  523MOL0     C70486   3.393   2.056   5.905 -0.2770  0.5056 -0.9981
  523MOL0     N70487   3.528   2.010   5.890  0.6760 -0.2371 -0.7237
  523MOL0     C70488   3.576   1.891   5.948 -0.1207  1.1048 -0.8961
  523MOL0     C70489   3.717   1.893   5.943 -0.0213  0.2446 -0.5456
  523MOL0     C70490   3.810   1.794   6.013  0.1306 -0.9465  0.4879
  523MOL0     C70491   3.935   1.853   6.073 -0.4984  0.7458 -0.1506
  523MOL0     C70492   4.021   1.763   6.158 -0.2078 -0.8556  0.5143
  523MOL0     C70493   3.956   1.729   6.280  0.1301  0.4012  0.9251
  523MOL0     O70494   4.041   1.672   6.379  0.3577 -1.0217 -0.7709
  523MOL0     C70495   3.983   1.616   6.493 -0.3966  0.0610  0.5438
  523MOL0     C70496   4.061   1.604   6.601  0.3708  0.2307 -0.5992
  523MOL0     C70497   4.021   1.526   6.713 -0.6608  0.4077  0.0414
  523MOL0     C70498   3.896   1.455   6.710  0.0963  1.0959  0.4119
  523MOL0     C70499   3.863   1.380   6.830  0.7156  0.3610 -0.8186
  523MOL0     O70500   3.944   1.392   6.945  0.2615  0.4840  0.5399
  523MOL0     C70501   3.889   1.382   7.070 -0.4779  0.7689 -0.4448
  523MOL0     C70502   3.866   1.266   7.131  0.1765  0.5442 -0.0457
  523MOL0     C70503   3.826   1.265   7.267 -0.5043  0.3540  0.0616
  523MOL0     C70504   3.817   1.381   7.344 -0.9499 -0.1789  0.1419
  523MOL0     O70505   3.775   1.403   7.471 -0.1312  0.1761 -0.0629
  523MOL0     C70506   3.760   1.280   7.549 -0.2762  0.1138 -0.4981
  523MOL0     C70507   3.698   1.306   7.682  0.9999  0.2773 -0.7221
  523MOL0     C70508   3.583   1.401   7.669 -0.5994  0.5981  0.6613
  523MOL0     C70509   3.517   1.435   7.804  0.4660 -0.4836  0.2582
  523MOL0     C70510   3.390   1.522   7.770 -0.0552 -0.9496  0.1634
  523MOL0     C70511   3.332   1.586   7.902  0.5315  0.3735  0.6582
  523MOL0     C70512   3.196   1.660   7.885  0.6385  0.1035  0.5095
  523MOL0     C70513   3.180   1.775   7.784  0.2817  0.4272  0.5248
  523MOL0    Cl70514   3.170   1.718   7.610 -0.3046  0.5545  0.5440
  523MOL0     C70515   3.837   1.499   7.277  0.1013  0.3665  1.6429
  523MOL0     C70516   3.876   1.495   7.143 -1.1792  0.9507 -0.0498
  523MOL0     O70517   3.760   1.315   6.826  0.4081  1.0027  0.2063
  523MOL0     C70518   3.809   1.474   6.600 -0.2886 -0.0635 -0.8992
  523MOL0     C70519   3.853   1.551   6.495 -1.2416 -0.1118  0.2631
  523MOL0     N70520   3.753   2.012   5.880 -0.2471  0.1251 -0.2857
  523MOL0     N70521   3.639   2.083   5.858  0.0232 -0.4226  0.0117
  523MOL0     C70522   2.397   2.244   6.051 -0.0428 -0.6383  0.3514
  523MOL0     C70523   2.268   2.302   6.060  0.3084  0.0300 -0.3769
  523MOL0     C70524   1.849   2.396   6.022  0.2941  0.3393 -0.6435
  523MOL0     C70525   1.817   2.461   5.906 -0.1587  0.1000  0.3447
  523MOL0     C70526   1.692   2.521   5.883  1.2345 -0.3346  0.3945
  523MOL0     C70527   1.591   2.523   5.982  0.4597  0.3803 -1.6249
  523MOL0     O70528   1.477   2.595   5.943 -0.4446 -0.0018 -0.2469
  523MOL0     C70529   1.374   2.606   6.039 -0.7253  0.5597  0.7353
  523MOL0     C70530   1.262   2.703   5.986 -0.3506 -0.3826 -0.1626
  523MOL0     C70531   1.185   2.671   5.853  0.4593  0.9171 -0.1543
  523MOL0     C70532   1.237   2.757   5.740  1.7874 -0.8240 -0.3188
  523MOL0     C70533   1.174   2.892   5.739 -0.6384  0.1349  0.4386
  523MOL0     C70534   1.131   3.010   5.725 -0.2177  0.9776  0.1582
  523MOL0     C70535   1.628   2.463   6.101  0.6968 -0.7175  0.0803
  523MOL0     C70536   1.751   2.397   6.119 -0.2630 -0.0220  0.0370
  523MOL0     C70537   1.768   2.328   6.251 -0.2392  0.6753  0.3183
  523MOL0     H70538   2.213   2.333   5.727  1.2090  0.4580 -0.0019
  523MOL0     H70539   2.437   2.243   5.716 -2.8134  1.4762 -1.1629
  523MOL0     H70540   2.679   2.192   6.081  1.2694 -0.8508  2.3349
  523MOL0     H70541   2.603   2.033   6.114  0.3754 -0.3098  0.1363
  523MOL0     H70542   2.741   1.912   5.990 -1.3811  1.2741 -4.2952
  523MOL0     H70543   2.843   2.033   6.078 -0.0019  2.5328 -0.3244
  523MOL0     H70544   2.876   2.162   5.876 -0.1414  0.0373 -1.9385
  523MOL0     H70545   2.771   2.047   5.780  2.4745 -1.5968 -1.2798
  523MOL0     H70546   2.960   1.894   5.932 -1.5087 -2.1150 -0.1555
  523MOL0     H70547   2.909   1.893   5.759 -1.6979  2.7571 -0.4833
  523MOL0     H70548   3.046   2.055   5.676 -1.2036 -0.0203  1.0319
  523MOL0     H70549   3.080   2.117   5.829 -1.5644  0.7939 -0.1971
  523MOL0     H70550   3.194   1.873   5.870  1.2767 -2.9611 -1.9287
  523MOL0     H70551   3.189   1.871   5.692 -1.7534  0.6738  0.0829
  523MOL0     H70552   3.310   2.109   5.710 -1.1368 -0.6868 -1.1824
  523MOL0     H70553   3.399   1.965   5.710  2.1827  0.6242  2.5269
  523MOL0     H70554   3.392   2.163   5.927 -1.6819  0.3990 -0.4558
  523MOL0     H70555   3.348   2.003   5.989  1.8981 -0.0931 -0.1318
  523MOL0     H70556   3.517   1.812   5.994  2.2228  0.4311  1.1555
  523MOL0     H70557   3.751   1.738   6.087  0.8953 -0.2689  1.6507
  523MOL0     H70558   3.831   1.717   5.938 -2.0522 -1.5979  0.4665
  523MOL0     H70559   3.999   1.887   5.991 -2.0327  0.1072 -1.6892
  523MOL0     H70560   3.913   1.940   6.135  1.0693  0.1639  1.2912
  523MOL0     H70561   4.110   1.821   6.187 -0.1689 -1.7488  2.2927
  523MOL0     H70562   4.074   1.685   6.103  1.6014  1.8046 -1.7795
  523MOL0     H70563   3.867   1.673   6.249  0.4381 -0.8025  2.0821
  523MOL0     H70564   3.901   1.816   6.317 -3.7011 -2.3071  2.2418
  523MOL0     H70565   4.160   1.648   6.592  0.1851  0.8900  0.4825
  523MOL0     H70566   4.090   1.505   6.794 -1.1236 -1.1235  0.0594
  523MOL0     H70567   3.884   1.171   7.081  1.8638  0.5367  0.5140
  523MOL0     H70568   3.810   1.167   7.311 -0.9509  0.1808 -0.4624
  523MOL0     H70569   3.695   1.220   7.484  0.2364  0.9906 -1.8844
  523MOL0     H70570   3.854   1.224   7.551 -1.0244 -1.1529  0.2262
  523MOL0     H70571   3.658   1.213   7.722  1.1689  1.5865  2.8002
  523MOL0     H70572   3.772   1.339   7.754  0.6654  1.5970 -0.9514
  523MOL0     H70573   3.610   1.494   7.618 -0.8744  0.5703  0.4611
  523MOL0     H70574   3.503   1.349   7.616  0.0610 -1.3262  1.4474
  523MOL0     H70575   3.583   1.486   7.874  1.3187 -3.2608  1.6385
  523MOL0     H70576   3.489   1.341   7.854 -0.3612 -0.1775  0.3918
  523MOL0     H70577   3.313   1.467   7.716  1.5500 -1.5528 -1.6141
  523MOL0     H70578   3.429   1.601   7.705  0.3761 -0.6634  0.7554
  523MOL0     H70579   3.318   1.502   7.971  1.9629 -0.7320 -0.3407
  523MOL0     H70580   3.408   1.654   7.942 -0.0452  0.7988  1.0487
  523MOL0     H70581   3.159   1.710   7.975 -2.2417 -0.8753 -0.0281
  523MOL0     H70582   3.120   1.585   7.862  0.2657  1.1512 -2.1063
  523MOL0     H70583   3.097   1.842   7.809  2.9726  4.2314  0.1137
  523MOL0     H70584   3.263   1.846   7.796 -1.1314  1.8676  2.3103
  523MOL0     H70585   3.813   1.592   7.327  1.5744  1.8109 -0.1733
  523MOL0     H70586   3.907   1.585   7.090  1.3776 -0.6554 -1.4865
  523MOL0     H70587   3.712   1.426   6.603 -0.9829  1.3294 -0.3697
  523MOL0     H70588   3.785   1.555   6.411 -0.9765 -2.7060 -0.1507
  523MOL0     H70589   2.455   2.221   6.139 -1.8369  1.1434  2.1266
  523MOL0     H70590   2.220   2.332   6.153 -2.2638 -4.5303  0.0480
  523MOL0     H70591   1.894   2.472   5.831  2.5202 -1.6658  2.5984
  523MOL0     H70592   1.672   2.579   5.794  1.6778  0.8621  1.0455
  523MOL0     H70593   1.425   2.652   6.124  2.2400 -1.1447  0.0409
  523MOL0     H70594   1.336   2.506   6.061  2.2780 -0.5844  1.2264
  523MOL0     H70595   1.303   2.802   5.967 -1.9293  0.6572  1.5599
  523MOL0     H70596   1.175   2.716   6.052 -0.2921  1.4265 -0.3961
  523MOL0     H70597   1.078   2.691   5.860  1.1058  6.0817 -1.4121
  523MOL0     H70598   1.210   2.566   5.834  0.6156  0.6028  1.6528
  523MOL0     H70599   1.344   2.783   5.740  0.8461  4.1331  1.2934
  523MOL0     H70600   1.217   2.722   5.638  1.9107  2.1317 -1.4618
  523MOL0     H70601   1.094   3.111   5.722  1.7875  1.7678  0.7366
  523MOL0     H70602   1.554   2.458   6.180  1.9971 -3.6748  1.2731
  523MOL0     H70603   1.795   2.223   6.235  2.0559  1.5728 -2.6567
  523MOL0     H70604   1.839   2.375   6.319 -1.4224  2.2363  0.5281
  523MOL0     H70605   1.676   2.323   6.310  0.0412 -4.0503  0.7620
  524MOL0     O70606   9.704   0.004   4.042  0.8316 -0.2345  0.1742
  524MOL0     C70607   9.622   0.092   4.081 -0.7207  0.2262  0.4216
  524MOL0     O70608   9.635   0.156   4.202  1.1176 -0.1253  0.3098
  524MOL0     C70609   9.714   0.092   4.297  0.2326  0.3457  0.6604
  524MOL0     C70610   9.824   0.153   4.354  0.0773 -0.1617 -0.5074
  524MOL0     C70611   9.890   0.075   4.458 -0.2478  0.6627 -0.2640
  524MOL0     C70612   9.852  -0.046   4.507 -0.0735  0.7165 -0.5180
  524MOL0     O70613   9.922  -0.123   4.605 -0.4504  0.5717  0.4358
  524MOL0     C70614  10.066  -0.118   4.610  0.2369 -0.6221  0.2013
  524MOL0     C70615  10.122  -0.246   4.686  0.5016  0.0111 -0.5325
  524MOL0     C70616  10.236  -0.306   4.615  0.2747 -0.2313  0.6425
  524MOL0     C70617  10.361  -0.208   4.637  0.7293  0.5177  0.5314
  524MOL0     C70618  10.441  -0.204   4.507 -0.6272  0.6417 -0.1982
  524MOL0     C70619  10.566  -0.125   4.514  0.2479 -0.3236 -0.5902
  524MOL0     C70620  10.547   0.012   4.584  0.5578  0.5140 -0.5713
  524MOL0     C70621  10.667   0.106   4.574 -0.5902  0.7776 -1.0102
  524MOL0     N70622  10.799   0.048   4.616  0.0011 -0.0897  0.4257
  524MOL0     C70623  10.831   0.006   4.745  0.7771 -0.3115  0.8606
  524MOL0     C70624  10.963  -0.027   4.737  0.2659 -0.3597 -1.0357
  524MOL0     C70625  11.043  -0.103   4.840  0.6216 -0.8020  0.3626
  524MOL0     C70626  11.190  -0.114   4.809  0.1963  0.4435 -0.1737
  524MOL0     C70627  11.268  -0.170   4.930 -0.6894  0.8285  0.1335
  524MOL0     C70628  11.393  -0.253   4.884 -0.4660  0.4688  0.7880
  524MOL0     O70629  11.496  -0.164   4.829  0.3991 -0.4925 -0.7621
  524MOL0     C70630  11.625  -0.210   4.827 -0.0588 -0.1364  0.4914
  524MOL0     C70631  11.684  -0.321   4.880  1.0289 -0.1045 -0.1716
  524MOL0     C70632  11.812  -0.356   4.868 -0.8874 -0.2982  0.3361
  524MOL0     C70633  11.909  -0.276   4.804 -1.1969 -0.0289  0.2815
  524MOL0     C70634  12.059  -0.315   4.796 -0.0451 -0.1169  0.2209
  524MOL0     O70635  12.132  -0.203   4.760  0.2161 -0.4601 -0.2639
  524MOL0     C70636  12.261  -0.235   4.736 -0.7391  0.2531 -0.0832
  524MOL0     C70637  12.300  -0.261   4.603 -0.8514 -0.0486 -0.3271
  524MOL0     C70638  12.436  -0.298   4.576 -0.4230 -0.1344 -0.2974
  524MOL0     C70639  12.531  -0.319   4.672  0.2848 -0.3256  0.4481
  524MOL0     O70640  12.663  -0.352   4.636  0.1630  0.3415 -0.4661
  524MOL0     C70641  12.765  -0.338   4.738  0.1388 -0.4149  0.1597
  524MOL0     C70642  12.892  -0.331   4.664  0.2009  0.2441  0.0334
  524MOL0     C70643  13.013  -0.292   4.743  1.4539 -0.5357  0.0231
  524MOL0     C70644  13.145  -0.315   4.662 -0.6340 -0.5064 -0.2490
  524MOL0     C70645  13.260  -0.269   4.756  0.0119 -0.1362 -0.5434
  524MOL0     C70646  13.391  -0.290   4.680  0.0889 -0.3767  0.2541
  524MOL0     C70647  13.518  -0.292   4.769  0.3532  0.1903  0.2973
  524MOL0     C70648  13.652  -0.303   4.688  0.4417 -0.3841 -0.2315
  524MOL0    Cl70649  13.789  -0.332   4.799  0.2825  0.0366 -0.3153
  524MOL0     C70650  12.490  -0.287   4.801  0.8376  0.2413  0.7013
  524MOL0     C70651  12.359  -0.255   4.836  0.3055  0.1406 -0.1220
  524MOL0     O70652  12.098  -0.433   4.814 -0.2919 -0.1576 -0.5390
  524MOL0     C70653  11.852  -0.164   4.742 -1.0929  0.0018 -0.2414
  524MOL0     C70654  11.716  -0.124   4.767  0.0423 -0.1882 -0.7243
  524MOL0     N70655  10.998  -0.016   4.606  0.2819 -0.6057 -0.7181
  524MOL0     N70656  10.905   0.039   4.538  0.4148  0.2324  0.3757
  524MOL0     C70657   9.728  -0.096   4.459  0.6000 -1.1778  0.2185
  524MOL0     C70658   9.660  -0.026   4.354  0.3472 -0.1528 -0.0205
  524MOL0     C70659   9.511   0.129   3.996  0.6103 -0.3062  0.3084
  524MOL0     C70660   9.401   0.198   4.051 -0.7135 -0.7123  0.3677
  524MOL0     C70661   9.286   0.218   3.975  0.6716 -0.8310  0.5587
  524MOL0     C70662   9.266   0.171   3.845  0.0771 -0.1928 -0.2940
  524MOL0     O70663   9.135   0.184   3.799 -0.1505  0.0823  0.7873
  524MOL0     C70664   9.112   0.160   3.663  0.2930  0.7142  0.4058
  524MOL0     C70665   9.052   0.020   3.642 -0.5152  0.4841 -0.2403
  524MOL0     C70666   9.134  -0.060   3.540  0.1281 -0.2602  0.2600
  524MOL0     C70667   9.072  -0.202   3.517  0.6058 -0.0701 -0.7267
  524MOL0     C70668   8.940  -0.190   3.464 -0.4181  0.3392 -0.2927
  524MOL0     C70669   8.828  -0.197   3.417  0.4437  0.5367  0.7767
  524MOL0     C70670   9.389   0.117   3.790  0.1720 -0.7332  0.0011
  524MOL0     C70671   9.507   0.106   3.853 -0.4803 -0.2905 -0.8596
  524MOL0     C70672   9.612   0.037   3.776  0.5509 -0.6247  0.1077
  524MOL0     H70673   9.844   0.259   4.345 -3.2065  0.6025 -0.1789
  524MOL0     H70674   9.987   0.110   4.493  0.2007 -0.9755  0.2033
  524MOL0     H70675  10.096  -0.110   4.506 -1.7091  0.8360 -0.3072
  524MOL0     H70676  10.095  -0.026   4.661 -1.6601  0.7696 -1.1264
  524MOL0     H70677  10.043  -0.322   4.689  0.3784  0.1125 -1.0314
  524MOL0     H70678  10.158  -0.218   4.785  1.2494 -0.8553 -0.5467
  524MOL0     H70679  10.208  -0.315   4.510  0.4303 -1.5944  0.7017
  524MOL0     H70680  10.248  -0.405   4.660 -1.3916 -0.0711  1.4931
  524MOL0     H70681  10.320  -0.110   4.666 -2.4894 -0.6605  0.4301
  524MOL0     H70682  10.426  -0.245   4.717  2.1684  1.3012 -0.2415
  524MOL0     H70683  10.465  -0.306   4.477 -1.6376  0.3976 -0.2386
  524MOL0     H70684  10.382  -0.152   4.430  0.9009 -0.9298 -2.5807
  524MOL0     H70685  10.634  -0.176   4.582  1.3575 -0.7942 -1.9963
  524MOL0     H70686  10.617  -0.104   4.419  1.0868  0.7774  0.0828
  524MOL0     H70687  10.529  -0.001   4.691  4.1273 -0.4315  0.0484
  524MOL0     H70688  10.460   0.066   4.545 -1.5831 -1.7450  0.7875
  524MOL0     H70689  10.681   0.137   4.471  0.3300  1.0843 -0.8004
  524MOL0     H70690  10.643   0.196   4.632 -1.2800  1.8657 -2.9081
  524MOL0     H70691  10.763   0.002   4.830  2.4842 -0.2404  2.2968
  524MOL0     H70692  11.028  -0.033   4.923  3.1988  0.2760  0.0125
  524MOL0     H70693  10.998  -0.201   4.862  1.3233 -0.8368  1.7811
  524MOL0     H70694  11.210  -0.168   4.716 -1.5472  1.5197 -1.2378
  524MOL0     H70695  11.226  -0.012   4.797 -0.5498  0.8198  0.6881
  524MOL0     H70696  11.196  -0.227   4.989 -0.2692  2.2351  2.1212
  524MOL0     H70697  11.307  -0.096   5.000  3.3973  0.1731 -1.1540
  524MOL0     H70698  11.363  -0.330   4.812  3.0838  0.0526 -0.4385
  524MOL0     H70699  11.436  -0.301   4.973  1.3984 -0.2157 -0.4100
  524MOL0     H70700  11.622  -0.389   4.938  0.4042 -0.7710 -1.5764
  524MOL0     H70701  11.842  -0.447   4.918  2.7284  1.4294  1.6758
  524MOL0     H70702  12.222  -0.243   4.530  0.7023  2.0703 -1.6191
  524MOL0     H70703  12.472  -0.303   4.474  0.4359 -0.9353  0.0358
  524MOL0     H70704  12.754  -0.252   4.806  0.4683  0.3067 -0.6846
  524MOL0     H70705  12.777  -0.429   4.797  3.6652  0.4754  1.0226
  524MOL0     H70706  12.915  -0.421   4.605  0.1517  1.9008 -2.7024
  524MOL0     H70707  12.880  -0.255   4.586 -0.6189  0.4973  0.4011
  524MOL0     H70708  13.001  -0.185   4.762 -0.9725 -1.3279  4.1515
  524MOL0     H70709  13.018  -0.337   4.842 -0.8618 -0.2213  0.3577
  524MOL0     H70710  13.144  -0.271   4.562 -4.0872 -1.6003 -0.8340
  524MOL0     H70711  13.154  -0.422   4.640 -0.3146 -0.2933 -1.2017
  524MOL0     H70712  13.251  -0.331   4.846  1.7736 -2.1885 -1.6921
  524MOL0     H70713  13.266  -0.162   4.780 -0.3941 -0.4387  1.0389
  524MOL0     H70714  13.386  -0.381   4.619 -0.5594  1.1531 -2.1267
  524MOL0     H70715  13.397  -0.210   4.605  1.0132  2.9928  3.6445
  524MOL0     H70716  13.522  -0.378   4.837 -0.3398 -1.4002 -1.5966
  524MOL0     H70717  13.510  -0.200   4.829  0.3113  0.2864  0.1442
  524MOL0     H70718  13.644  -0.385   4.617 -0.6352  0.3375 -0.9953
  524MOL0     H70719  13.651  -0.211   4.629 -0.7328  1.1906  2.0680
  524MOL0     H70720  12.542  -0.284   4.896 -0.7622  2.1282  1.5916
  524MOL0     H70721  12.319  -0.238   4.935 -2.2678  1.6863 -1.3006
  524MOL0     H70722  11.919  -0.112   4.675 -0.1464 -1.0781 -0.1636
  524MOL0     H70723  11.672  -0.038   4.718  0.7243  0.2798 -0.5408
  524MOL0     H70724   9.686  -0.193   4.485 -0.4822 -1.1735 -1.3272
  524MOL0     H70725   9.562  -0.061   4.321  1.3419 -0.2751 -3.0793
  524MOL0     H70726   9.397   0.234   4.153 -1.1179  2.7459 -0.7307
  524MOL0     H70727   9.206   0.270   4.027 -1.2714 -2.7470 -0.3540
  524MOL0     H70728   9.193   0.171   3.591  0.3808  3.6617  0.8155
  524MOL0     H70729   9.039   0.233   3.625  0.4620  0.8156  0.2756
  524MOL0     H70730   8.946   0.031   3.618 -0.6059 -0.3275 -0.2326
  524MOL0     H70731   9.039  -0.029   3.739 -1.7025 -2.8616 -1.9159
  524MOL0     H70732   9.240  -0.074   3.562  0.3642  0.2878 -0.4722
  524MOL0     H70733   9.139  -0.006   3.444  3.6361  0.3836  0.6463
  524MOL0     H70734   9.128  -0.266   3.448  0.0005 -1.1877 -0.2014
  524MOL0     H70735   9.060  -0.249   3.615  0.5528  3.5212  1.1678
  524MOL0     H70736   8.726  -0.196   3.383  0.4604 -1.1301  0.6105
  524MOL0     H70737   9.393   0.104   3.682  0.3572  0.1995 -0.1126
  524MOL0     H70738   9.584   0.040   3.670  0.2012 -1.4554  0.1671
  524MOL0     H70739   9.712   0.075   3.799  1.0250 -0.9375 -1.3289
  524MOL0     H70740   9.611  -0.067   3.811 -0.7695 -1.4080 -2.0556
  525MOL0     O70741   1.356   4.941   0.503 -0.6386  0.1861  0.0435
  525MOL0     C70742   1.265   4.907   0.429  0.3812 -0.3165  0.6229
  525MOL0     O70743   1.279   4.832   0.318  0.9615  0.0415  0.3158
  525MOL0     C70744   1.389   4.758   0.283 -0.4870  0.1334 -0.0557
  525MOL0     C70745   1.413   4.707   0.149 -0.4018 -0.8553 -0.2401
  525MOL0     C70746   1.519   4.629   0.119  0.1226 -0.0340 -0.2843
  525MOL0     C70747   1.606   4.573   0.216 -0.8304 -0.6292 -0.3102
  525MOL0     O70748   1.712   4.484   0.191  0.8098 -0.3977 -0.0472
  525MOL0     C70749   1.735   4.426   0.067  0.3326  0.0396  0.3099
  525MOL0     C70750   1.820   4.299   0.069 -0.0282 -0.8104 -0.2120
  525MOL0     C70751   1.965   4.352   0.082 -0.2777 -0.4352  0.5655
  525MOL0     C70752   2.056   4.232   0.079 -0.8044 -0.3467  0.8767
  525MOL0     C70753   2.202   4.270   0.079 -0.1899  0.5958  0.0209
  525MOL0     C70754   2.300   4.157   0.108 -0.0467 -0.9945  0.3156
  525MOL0     C70755   2.442   4.210   0.096  0.7222  0.5196  0.0664
  525MOL0     C70756   2.540   4.090   0.091 -0.1080  0.6698  0.0468
  525MOL0     N70757   2.678   4.141   0.110  0.0154 -0.0021 -0.3552
  525MOL0     C70758   2.783   4.093   0.047  0.4704 -0.9267 -0.0580
  525MOL0     C70759   2.893   4.102   0.125  0.3516 -0.9282 -0.1593
  525MOL0     C70760   3.031   4.046   0.093  0.0092  0.4332  0.9922
  525MOL0     C70761   3.088   4.136  -0.024 -1.1525 -0.3244  0.3900
  525MOL0     C70762   3.216   4.081  -0.093 -0.0809 -0.8452  0.2687
  525MOL0     C70763   3.309   4.194  -0.157 -0.0740  0.4840 -0.2548
  525MOL0     O70764   3.394   4.244  -0.049  0.1905  0.2374 -0.2021
  525MOL0     C70765   3.491   4.341  -0.069 -0.2768  0.0981 -1.4660
  525MOL0     C70766   3.538   4.384   0.056  0.6382  0.2720  0.7354
  525MOL0     C70767   3.638   4.474   0.060 -1.0812 -0.0845  0.2539
  525MOL0     C70768   3.695   4.524  -0.056 -0.1144  0.3730 -0.8767
  525MOL0     C70769   3.803   4.628  -0.046 -0.9851  0.7099 -0.1075
  525MOL0     O70770   3.836   4.663   0.081 -0.2222 -0.2830 -0.8506
  525MOL0     C70771   3.925   4.756   0.103  0.2558  0.1703 -0.0904
  525MOL0     C70772   4.005   4.742   0.214  0.7895  0.3516 -0.6260
  525MOL0     C70773   4.094   4.841   0.247 -0.2177 -0.4556 -0.3283
  525MOL0     C70774   4.109   4.954   0.159 -0.0049 -0.5571  0.0431
  525MOL0     O70775   4.197   5.049   0.211  0.7433  0.1834  0.2084
  525MOL0     C70776   4.236   5.155   0.127 -0.1681 -0.3854  0.8779
  525MOL0     C70777   4.133   5.275   0.155 -0.0135 -0.0547 -0.0669
  525MOL0     C70778   4.157   5.394   0.055 -0.1418 -0.1449  0.0687
  525MOL0     C70779   4.298   5.402  -0.006 -0.4972 -0.2313  0.9502
  525MOL0     C70780   4.321   5.523  -0.081  0.8658 -0.2951 -0.1687
  525MOL0     C70781   4.475   5.546  -0.095  0.2022 -0.5612  0.4996
  525MOL0     C70782   4.493   5.665  -0.175  0.2418 -0.0897  0.7294
  525MOL0     C70783   4.638   5.672  -0.221  0.1221 -0.1243  0.0106
  525MOL0    Cl70784   4.672   5.847  -0.253  0.5717  0.1200 -0.3167
  525MOL0     C70785   4.024   4.973   0.052  0.5898  0.2977  1.0271
  525MOL0     C70786   3.936   4.869   0.019 -0.4220 -0.2055 -0.3440
  525MOL0     O70787   3.850   4.663  -0.150 -0.4826 -0.1351  0.5652
  525MOL0     C70788   3.650   4.480  -0.180  0.1559 -0.4022  0.0232
  525MOL0     C70789   3.552   4.381  -0.191 -0.3150 -0.2756 -0.6883
  525MOL0     N70790   2.852   4.174   0.237 -0.3894 -0.0961  0.9302
  525MOL0     N70791   2.726   4.197   0.227 -0.0139  0.0409  0.1173
  525MOL0     C70792   1.573   4.604   0.350 -0.3053 -0.6378 -0.5694
  525MOL0     C70793   1.477   4.702   0.377 -0.1143  0.3990  0.8440
  525MOL0     C70794   1.123   4.961   0.459 -0.4830  0.0839 -0.5408
  525MOL0     C70795   1.043   5.014   0.351 -0.2416  0.2364 -0.6490
  525MOL0     C70796   0.908   5.042   0.375 -1.0643 -1.1958 -0.1669
  525MOL0     C70797   0.853   5.013   0.496  0.8771 -0.5636 -0.9231
  525MOL0     O70798   0.717   5.034   0.503 -0.9298  0.0124 -0.5162
  525MOL0     C70799   0.646   4.944   0.586 -0.3000 -0.3035 -0.4667
  525MOL0     C70800   0.524   5.012   0.645  0.4009 -0.1404  0.7219
  525MOL0     C70801   0.437   4.912   0.720  1.7384 -0.0589 -0.3278
  525MOL0     C70802   0.321   4.963   0.796  0.5653 -0.1222  0.3179
  525MOL0     C70803   0.242   5.052   0.698 -0.9358  0.4007  0.5696
  525MOL0     C70804   0.170   5.089   0.606 -0.3807 -0.3673 -0.7580
  525MOL0     C70805   0.933   4.976   0.607  0.6218 -0.1204 -0.0570
  525MOL0     C70806   1.068   4.952   0.585 -0.5101  0.0383  0.7206
  525MOL0     C70807   1.140   4.904   0.709 -0.4179 -0.7177 -0.9115
  525MOL0     H70808   1.337   4.722   0.074 -0.1671  0.3897 -0.2496
  525MOL0     H70809   1.538   4.600   0.016 -1.2970 -0.4421 -0.4563
  525MOL0     H70810   1.631   4.408   0.036  0.0929 -2.5588  2.3199
  525MOL0     H70811   1.781   4.502   0.003 -0.2263  0.3329  0.2456
  525MOL0     H70812   1.822   4.243  -0.025  0.4698  1.0058 -1.3443
  525MOL0     H70813   1.786   4.235   0.150  0.8842 -2.9026 -1.3976
  525MOL0     H70814   1.989   4.388   0.183  0.8792  0.9022 -0.1576
  525MOL0     H70815   1.991   4.423   0.003  0.9488 -3.5179 -1.9731
  525MOL0     H70816   2.039   4.168   0.167  2.7358  0.0159  1.9764
  525MOL0     H70817   2.028   4.179  -0.012 -2.0435  2.3664 -0.4394
  525MOL0     H70818   2.217   4.325  -0.014  0.3179 -0.1398 -0.3388
  525MOL0     H70819   2.213   4.339   0.163 -1.7520 -1.4477  2.0342
  525MOL0     H70820   2.282   4.123   0.210 -1.6022 -2.4955 -0.4157
  525MOL0     H70821   2.291   4.080   0.032  1.4075  0.5911 -1.5651
  525MOL0     H70822   2.462   4.274   0.182  0.9661 -0.6472  0.9175
  525MOL0     H70823   2.457   4.263   0.002 -0.6243 -1.7928 -1.5786
  525MOL0     H70824   2.528   4.025   0.179  2.7463  0.7733  0.5991
  525MOL0     H70825   2.533   4.024   0.004  1.2559  1.2576 -0.5221
  525MOL0     H70826   2.780   4.045  -0.050 -1.0062 -1.4943  0.2491
  525MOL0     H70827   3.100   4.023   0.174 -0.3505 -3.9387  0.3031
  525MOL0     H70828   3.021   3.945   0.053  2.4797 -0.1287  1.6378
  525MOL0     H70829   3.022   4.148  -0.111  2.2974 -3.2348 -2.9816
  525MOL0     H70830   3.111   4.232   0.023  1.8462 -1.2487  1.0239
  525MOL0     H70831   3.186   4.016  -0.176 -1.9633 -0.2871  0.4654
  525MOL0     H70832   3.275   4.021  -0.024  1.3144  0.7118  0.4834
  525MOL0     H70833   3.236   4.266  -0.195 -3.1822 -1.0388  2.2941
  525MOL0     H70834   3.379   4.158  -0.233 -1.0892  0.0372 -0.9955
  525MOL0     H70835   3.494   4.346   0.148 -1.3069  0.0317 -0.2232
  525MOL0     H70836   3.691   4.504   0.150  0.3600 -0.5040 -0.4262
  525MOL0     H70837   3.979   4.653   0.268 -0.0965  0.6763 -0.5079
  525MOL0     H70838   4.137   4.851   0.346  0.1047  3.8913 -0.7260
  525MOL0     H70839   4.339   5.185   0.150 -0.2604  0.3788  0.3227
  525MOL0     H70840   4.231   5.114   0.026  0.3023  0.2982  0.5673
  525MOL0     H70841   4.040   5.219   0.148 -0.6423  0.8553  0.7431
  525MOL0     H70842   4.164   5.308   0.255  1.5200 -2.8488  0.4993
  525MOL0     H70843   4.088   5.392  -0.030 -1.2225  2.2776  0.8061
  525MOL0     H70844   4.144   5.489   0.106  2.0808  1.1349 -1.5929
  525MOL0     H70845   4.309   5.321  -0.077  0.8949  2.2100 -1.8289
  525MOL0     H70846   4.371   5.375   0.071 -0.0231  2.4566  1.5643
  525MOL0     H70847   4.279   5.606  -0.024  1.0240  0.9632 -1.8179
  525MOL0     H70848   4.275   5.524  -0.180  2.7672  3.9936 -1.2368
  525MOL0     H70849   4.513   5.560   0.007 -2.0317  1.9503  1.0891
  525MOL0     H70850   4.523   5.457  -0.138 -1.0956 -2.4817  2.7727
  525MOL0     H70851   4.459   5.747  -0.111 -5.7680 -1.7926  0.3286
  525MOL0     H70852   4.439   5.651  -0.269  2.0227  0.1922 -0.3888
  525MOL0     H70853   4.704   5.625  -0.148 -0.7448  1.6372  2.0532
  525MOL0     H70854   4.647   5.610  -0.310  0.8240  0.9763 -0.6961
  525MOL0     H70855   4.022   5.070   0.004  0.6141 -0.8936 -1.5463
  525MOL0     H70856   3.864   4.890  -0.059 -2.5160  0.4943  1.6756
  525MOL0     H70857   3.694   4.510  -0.274 -0.5638 -0.5524 -0.3681
  525MOL0     H70858   3.505   4.339  -0.279 -0.7123 -1.7614  0.1922
  525MOL0     H70859   1.616   4.551   0.434 -2.3131  0.9321  1.6343
  525MOL0     H70860   1.466   4.712   0.485  0.7669 -0.4746  1.0300
  525MOL0     H70861   1.088   5.034   0.255  1.0196  0.9375  0.0629
  525MOL0     H70862   0.843   5.091   0.302 -1.7138 -2.5325 -0.5208
  525MOL0     H70863   0.711   4.898   0.660 -1.3383 -1.2172 -0.0986
  525MOL0     H70864   0.619   4.864   0.516 -1.3658  0.8654 -1.4451
  525MOL0     H70865   0.468   5.055   0.562 -1.6625 -1.4452  1.3756
  525MOL0     H70866   0.547   5.093   0.716 -0.0615  0.4557  0.2002
  525MOL0     H70867   0.498   4.856   0.792  1.5452 -0.8689 -0.7802
  525MOL0     H70868   0.388   4.840   0.654  3.4487 -1.1412 -0.4560
  525MOL0     H70869   0.244   4.889   0.819 -1.1330  1.8762  1.4566
  525MOL0     H70870   0.346   5.016   0.888 -0.7722  1.6090 -0.2411
  525MOL0     H70871   0.097   5.122   0.534 -0.9062 -0.8269 -0.4331
  525MOL0     H70872   0.900   4.967   0.710 -2.3799 -0.8316 -0.9790
  525MOL0     H70873   1.141   4.795   0.714 -0.0940 -0.6951 -0.4603
  525MOL0     H70874   1.244   4.936   0.715 -0.4851 -0.5256 -0.7340
  525MOL0     H70875   1.099   4.946   0.802  0.9410  0.3995 -0.7864
  526MOL0     O70876   6.877   8.550  10.262 -0.1756  0.1664  0.8098
  526MOL0     C70877   6.914   8.573  10.379 -0.1546 -0.1715  0.1084
  526MOL0     O70878   7.054   8.564  10.424  0.1013 -0.5854  0.5016
  526MOL0     C70879   7.124   8.475  10.348  0.2301 -0.3407  0.6264
  526MOL0     C70880   7.249   8.523  10.308  0.3010  0.4582  0.0915
  526MOL0     C70881   7.343   8.444  10.242  0.2083  0.3405  0.3512
  526MOL0     C70882   7.313   8.312  10.207  0.0267 -0.6590  0.8482
  526MOL0     O70883   7.409   8.250  10.130 -0.3975 -0.7702 -0.2960
  526MOL0     C70884   7.388   8.112  10.101  0.7080  0.1591  0.9093
  526MOL0     C70885   7.477   8.060   9.981 -0.7531 -0.2792  0.0650
  526MOL0     C70886   7.623   8.082  10.010 -0.8091 -0.9613 -0.2635
  526MOL0     C70887   7.700   8.052   9.894  0.0584  0.2931 -0.9997
  526MOL0     C70888   7.831   7.989   9.932 -0.4365 -0.2532  0.1407
  526MOL0     C70889   7.935   8.070  10.023  0.6864 -0.2912  0.1468
  526MOL0     C70890   8.082   8.022  10.004  0.6541 -0.5890  0.0702
  526MOL0     C70891   8.160   8.077  10.127 -0.1180  0.1413 -0.2030
  526MOL0     N70892   8.307   8.056  10.100  0.0333  0.6287 -0.4953
  526MOL0     C70893   8.391   8.138  10.040 -0.5978 -0.2206  0.3625
  526MOL0     C70894   8.515   8.096  10.058 -0.0783  1.1031 -0.4024
  526MOL0     C70895   8.643   8.166  10.024 -0.6323  0.8120  0.0462
  526MOL0     C70896   8.745   8.188  10.144 -0.4382 -0.3076 -0.2197
  526MOL0     C70897   8.888   8.214  10.085 -0.6439  0.4238  0.1064
  526MOL0     C70898   8.989   8.269  10.180  0.1407  0.2974 -0.0081
  526MOL0     O70899   8.991   8.180  10.296 -0.0956 -0.3286  0.6373
  526MOL0     C70900   9.088   8.195  10.389 -0.2184  0.0776  0.0503
  526MOL0     C70901   9.214   8.256  10.382  0.6490  0.1594  0.1668
  526MOL0     C70902   9.307   8.257  10.485  0.7930 -0.8440 -0.1569
  526MOL0     C70903   9.277   8.189  10.603  0.2141 -0.8547  0.6346
  526MOL0     C70904   9.370   8.190  10.711 -0.7425 -0.3781 -0.7915
  526MOL0     O70905   9.453   8.297  10.734 -0.4108  0.1485  0.1985
  526MOL0     C70906   9.561   8.284  10.821  0.7583  0.0717 -0.1188
  526MOL0     C70907   9.562   8.340  10.947  0.3555  0.2820  0.0596
  526MOL0     C70908   9.667   8.315  11.033 -0.3087  0.0658  0.0587
  526MOL0     C70909   9.779   8.227  10.990  0.0975  0.0819 -0.5387
  526MOL0     O70910   9.887   8.186  11.062  0.6764  0.3245  0.3151
  526MOL0     C70911   9.903   8.247  11.189 -0.0153  0.5594 -0.1922
  526MOL0     C70912  10.001   8.162  11.265  0.3753 -0.1716 -0.4034
  526MOL0     C70913   9.956   8.017  11.298 -0.7781 -0.4932 -0.8542
  526MOL0     C70914  10.085   7.936  11.342  0.7616  0.1866  0.0098
  526MOL0     C70915  10.061   7.800  11.387  0.3529  0.8120  0.3940
  526MOL0     C70916  10.146   7.687  11.313 -0.0921 -0.6893 -0.2336
  526MOL0     C70917  10.295   7.708  11.340  0.1992 -0.4233  0.3930
  526MOL0     C70918  10.372   7.603  11.265 -0.1155  0.2892  0.1283
  526MOL0    Cl70919  10.365   7.449  11.351  0.0342 -0.0052 -0.3911
  526MOL0     C70920   9.780   8.193  10.851  0.3516  0.8286 -0.2038
  526MOL0     C70921   9.678   8.225  10.768  0.0136 -0.3143 -0.6804
  526MOL0     O70922   9.386   8.087  10.773 -0.4918 -0.4833  0.4154
  526MOL0     C70923   9.153   8.123  10.601 -0.5475 -0.4839 -0.9594
  526MOL0     C70924   9.060   8.136  10.507 -0.5332 -1.1746 -0.6494
  526MOL0     N70925   8.515   7.974  10.130 -0.7839 -0.6529 -0.2059
  526MOL0     N70926   8.385   7.958  10.152  0.1812 -0.2078 -0.1532
  526MOL0     C70927   7.187   8.264  10.242  0.4593 -0.1542  1.1850
  526MOL0     C70928   7.090   8.345  10.307  0.9458  0.2341 -0.4356
  526MOL0     C70929   6.813   8.629  10.473  0.1283  0.2776 -0.0791
  526MOL0     C70930   6.862   8.666  10.598 -1.6215  0.2856  0.8756
  526MOL0     C70931   6.779   8.699  10.706  0.0669 -0.6905 -1.0765
  526MOL0     C70932   6.646   8.706  10.686  0.6749  0.3951 -0.3303
  526MOL0     O70933   6.584   8.747  10.798  0.3690  0.5180 -0.0336
  526MOL0     C70934   6.448   8.704  10.827  0.1542  0.0402 -0.4896
  526MOL0     C70935   6.338   8.769  10.742 -0.1696 -0.4349 -0.7692
  526MOL0     C70936   6.203   8.757  10.810  0.7502 -0.4925  0.8143
  526MOL0     C70937   6.093   8.815  10.728 -0.2647 -0.4272  0.1034
  526MOL0     C70938   5.969   8.790  10.800  0.5134  1.0012 -0.6177
  526MOL0     C70939   5.859   8.759  10.852  0.5989  0.5663  0.2825
  526MOL0     C70940   6.591   8.669  10.563  0.5960  0.2231  0.1741
  526MOL0     C70941   6.669   8.630  10.454 -0.5114 -0.0781 -0.4544
  526MOL0     C70942   6.599   8.582  10.341  0.9746  0.6823  0.5590
  526MOL0     H70943   7.285   8.620  10.342  2.1921 -0.8660  2.1068
  526MOL0     H70944   7.442   8.484  10.222  0.1124  0.1645 -0.4825
  526MOL0     H70945   7.404   8.043  10.185  1.8340 -2.2872 -1.1812
  526MOL0     H70946   7.284   8.094  10.070  0.1473  2.7343  1.0966
  526MOL0     H70947   7.459   8.112   9.886 -1.0747 -3.3240 -1.6981
  526MOL0     H70948   7.466   7.954   9.956  1.2468 -0.1879 -1.4674
  526MOL0     H70949   7.654   8.020  10.096 -1.5619  0.6440  1.2337
  526MOL0     H70950   7.645   8.183  10.046 -0.4995 -2.0990  3.1495
  526MOL0     H70951   7.643   7.974   9.842 -0.7106  0.0942  0.0945
  526MOL0     H70952   7.715   8.141   9.833 -1.9300  1.3838 -0.0226
  526MOL0     H70953   7.820   7.886   9.967  2.0752 -0.4992  0.3819
  526MOL0     H70954   7.890   7.976   9.840  0.4554 -1.5505  0.8519
  526MOL0     H70955   7.915   8.177  10.008 -3.2492 -0.9817 -0.6401
  526MOL0     H70956   7.901   8.049  10.125 -1.5571 -0.0654 -0.5039
  526MOL0     H70957   8.120   8.055   9.907 -4.3690 -0.7162 -2.2663
  526MOL0     H70958   8.084   7.914  10.021  0.6418 -0.5358  0.4269
  526MOL0     H70959   8.143   8.183  10.145 -3.1727 -0.5826  1.8539
  526MOL0     H70960   8.130   8.022  10.217 -3.0160  0.9450 -0.5749
  526MOL0     H70961   8.366   8.230   9.987 -2.3648 -1.6076 -1.3509
  526MOL0     H70962   8.689   8.099   9.951 -0.7123 -1.3812  1.8773
  526MOL0     H70963   8.627   8.261   9.972  0.6562  1.2905  0.4785
  526MOL0     H70964   8.708   8.263  10.213  0.6230  2.3188 -2.2973
  526MOL0     H70965   8.760   8.096  10.202 -0.0684 -0.4213 -0.4911
  526MOL0     H70966   8.876   8.282  10.000 -0.3703 -1.7028 -1.7195
  526MOL0     H70967   8.930   8.120  10.047 -1.8858 -0.5965  1.1483
  526MOL0     H70968   8.953   8.371  10.194  0.4689  0.6170 -1.3337
  526MOL0     H70969   9.087   8.275  10.132 -0.9831 -0.3136 -2.5288
  526MOL0     H70970   9.226   8.313  10.291  0.3348 -3.0064 -2.0285
  526MOL0     H70971   9.402   8.310  10.477  0.4341  0.3166  2.3185
  526MOL0     H70972   9.476   8.385  10.996 -1.8244 -3.5955  0.1925
  526MOL0     H70973   9.661   8.356  11.133 -1.9925  1.6751 -0.6299
  526MOL0     H70974   9.943   8.349  11.191  1.2804  0.2365 -3.4933
  526MOL0     H70975   9.815   8.250  11.254  2.6926  0.7835  3.8194
  526MOL0     H70976  10.090   8.156  11.201 -1.5126  0.5864 -3.2903
  526MOL0     H70977  10.017   8.222  11.354 -3.7973 -2.4782  2.2128
  526MOL0     H70978   9.879   8.016  11.376 -0.8399 -2.3769 -0.8844
  526MOL0     H70979   9.914   7.965  11.211 -1.0269 -2.7086  0.4990
  526MOL0     H70980  10.127   7.999  11.421 -1.7476  3.1290 -0.7931
  526MOL0     H70981  10.154   7.943  11.258 -1.3704  0.3978 -1.8193
  526MOL0     H70982   9.957   7.772  11.367  0.0390  2.2872 -0.2220
  526MOL0     H70983  10.073   7.796  11.495 -2.3097 -0.2420  0.7203
  526MOL0     H70984  10.119   7.591  11.359 -0.6540 -1.4739 -2.1102
  526MOL0     H70985  10.129   7.687  11.205  0.4985 -1.5211 -0.3415
  526MOL0     H70986  10.325   7.727  11.444  1.1248  1.4103 -0.1591
  526MOL0     H70987  10.316   7.804  11.290  0.6586  0.0293  1.4238
  526MOL0     H70988  10.344   7.599  11.159 -0.9631  1.3487  0.2984
  526MOL0     H70989  10.477   7.634  11.263 -0.8588  3.1551  0.3598
  526MOL0     H70990   9.848   8.122  10.805 -1.0108  0.2730 -1.4429
  526MOL0     H70991   9.666   8.181  10.669 -1.0408  0.1294 -0.7624
  526MOL0     H70992   9.134   8.070  10.694 -1.4589  2.3118  0.5522
  526MOL0     H70993   8.971   8.075  10.517  0.0336 -1.6912  2.1541
  526MOL0     H70994   7.157   8.163  10.216 -2.1236  0.5620  1.1395
  526MOL0     H70995   6.997   8.298  10.336  1.6991 -0.0055  1.8172
  526MOL0     H70996   6.968   8.666  10.622 -0.8777  0.7002 -2.0754
  526MOL0     H70997   6.809   8.715  10.810 -1.2210  2.7419 -1.1104
  526MOL0     H70998   6.433   8.725  10.933  1.1932  1.6222 -0.6333
  526MOL0     H70999   6.438   8.595  10.816  1.3681  0.0526 -1.9088
  526MOL0     H71000   6.332   8.733  10.639  2.9630 -1.0943 -0.8127
  526MOL0     H71001   6.358   8.877  10.743 -0.7400 -0.3058  1.0969
  526MOL0     H71002   6.207   8.798  10.912 -1.8213 -2.1728  1.6772
  526MOL0     H71003   6.185   8.650  10.823  0.6628 -0.8792 -1.9488
  526MOL0     H71004   6.106   8.923  10.722 -1.7998 -0.2365 -0.5920
  526MOL0     H71005   6.087   8.774  10.626 -1.9006  2.2393 -0.9750
  526MOL0     H71006   5.769   8.721  10.896  0.4956  3.1091  2.4977
  526MOL0     H71007   6.486   8.651  10.547  0.8669 -1.0242 -0.2987
  526MOL0     H71008   6.561   8.655  10.268 -1.0722  0.2112  1.0901
  526MOL0     H71009   6.657   8.501  10.296 -1.1200  0.4045 -1.8824
  526MOL0     H71010   6.509   8.531  10.377 -0.1409  2.4573  0.4145
  527MOL0     O71011   9.774  11.190   3.462 -0.1435  0.0988 -0.8741
  527MOL0     C71012   9.789  11.148   3.579  0.6089 -0.7968  0.3756
  527MOL0     O71013   9.910  11.135   3.649  0.2792  0.5849 -0.9263
  527MOL0     C71014  10.036  11.177   3.623 -0.2781  0.7112  0.0173
  527MOL0     C71015  10.126  11.125   3.710 -0.6161 -0.6570  0.0363
  527MOL0     C71016  10.264  11.159   3.693  0.8404 -1.2497  0.0158
  527MOL0     C71017  10.299  11.248   3.587  0.6196 -0.0157 -0.6244
  527MOL0     O71018  10.419  11.291   3.562 -0.0846 -0.1823 -0.6732
  527MOL0     C71019  10.521  11.228   3.639  0.0538 -0.2629  0.3496
  527MOL0     C71020  10.656  11.282   3.614 -1.0513 -0.1371 -0.0893
  527MOL0     C71021  10.751  11.227   3.715  0.1173  0.4395  0.7486
  527MOL0     C71022  10.884  11.287   3.695  0.4675 -1.1472 -0.4754
  527MOL0     C71023  11.000  11.196   3.746  0.5380  0.3278 -0.5305
  527MOL0     C71024  11.123  11.274   3.731 -0.2681  0.5604 -0.2375
  527MOL0     C71025  11.237  11.188   3.792 -0.8156 -0.4555  0.4504
  527MOL0     C71026  11.362  11.276   3.819 -0.1082 -0.4912 -0.2267
  527MOL0     N71027  11.477  11.194   3.850 -0.1561  0.1079  0.1545
  527MOL0     C71028  11.500  11.136   3.967 -0.1273  0.7702 -0.2329
  527MOL0     C71029  11.620  11.076   3.949 -0.6201  0.8609 -0.2099
  527MOL0     C71030  11.695  11.009   4.067 -0.4483  0.1927  0.3671
  527MOL0     C71031  11.811  11.083   4.132  0.2801 -0.1416  1.0080
  527MOL0     C71032  11.937  11.114   4.049  0.3356 -0.5262  1.6857
  527MOL0     C71033  12.005  10.999   3.974 -0.5584 -0.0078  0.2637
  527MOL0     O71034  12.108  11.038   3.877 -0.2852 -0.0210  0.1960
  527MOL0     C71035  12.234  11.069   3.926  0.3252  0.6562 -0.4141
  527MOL0     C71036  12.277  11.050   4.057 -0.2139 -0.3682  0.0501
  527MOL0     C71037  12.412  11.080   4.088 -0.0314  1.2118 -0.3960
  527MOL0     C71038  12.507  11.114   3.994  0.8637 -0.6469  0.6513
  527MOL0     C71039  12.650  11.148   4.020  0.0345  0.5713  0.1807
  527MOL0     O71040  12.679  11.186   4.147 -0.0111 -0.3191  0.3163
  527MOL0     C71041  12.800  11.251   4.168  0.1973  0.3311  0.2474
  527MOL0     C71042  12.826  11.373   4.114 -0.2721  0.4177  0.1249
  527MOL0     C71043  12.947  11.438   4.147  0.5530  0.0456 -0.0773
  527MOL0     C71044  13.023  11.401   4.259 -0.5628  0.4745 -0.7448
  527MOL0     O71045  13.138  11.471   4.291  0.6864  0.2987 -0.7023
  527MOL0     C71046  13.121  11.610   4.334  0.3386 -1.0890 -0.1579
  527MOL0     C71047  13.232  11.645   4.436 -0.2174 -0.3188 -0.1438
  527MOL0     C71048  13.216  11.553   4.558  0.3137 -0.0301 -0.6360
  527MOL0     C71049  13.342  11.590   4.643  0.3568 -0.6700 -0.2205
  527MOL0     C71050  13.314  11.652   4.781 -0.8656  0.0958  0.2948
  527MOL0     C71051  13.211  11.574   4.875 -0.1210 -0.4844  0.2235
  527MOL0     C71052  13.251  11.581   5.024  0.6922 -0.6328 -0.3915
  527MOL0     C71053  13.163  11.487   5.101  0.9521 -0.1884  0.5783
  527MOL0    Cl71054  13.200  11.324   5.062  0.2015 -0.0349 -0.0752
  527MOL0     C71055  12.992  11.276   4.320  0.6438 -0.0716  0.2905
  527MOL0     C71056  12.877  11.208   4.277  0.0605  0.7180  0.7627
  527MOL0     O71057  12.716  11.166   3.920  0.0642 -0.3388  0.9476
  527MOL0     C71058  12.465  11.123   3.863  0.8769 -0.0744 -0.1106
  527MOL0     C71059  12.324  11.117   3.830  0.4024 -0.1744  0.4056
  527MOL0     N71060  11.661  11.082   3.813  0.5169  0.0620  0.1256
  527MOL0     N71061  11.576  11.165   3.758  0.5318 -0.9302 -0.0522
  527MOL0     C71062  10.202  11.296   3.500  0.1120  0.3454 -0.0640
  527MOL0     C71063  10.071  11.264   3.520  0.0573  0.0807 -0.0362
  527MOL0     C71064   9.664  11.087   3.631 -0.4871 -0.4610 -0.4358
  527MOL0     C71065   9.544  11.099   3.560  0.8220  0.2678 -0.1011
  527MOL0     C71066   9.441  11.013   3.582 -0.0081 -0.3263  0.3427
  527MOL0     C71067   9.440  10.927   3.698  0.8277  0.6409 -0.8628
  527MOL0     O71068   9.331  10.849   3.725 -0.5271  1.1835 -0.7747
  527MOL0     C71069   9.310  10.809   3.869  0.0869 -1.0201  0.5350
  527MOL0     C71070   9.295  10.666   3.884  0.1869  0.8155  0.2886
  527MOL0     C71071   9.168  10.613   3.794 -0.0772  0.3475 -0.4519
  527MOL0     C71072   9.129  10.469   3.813  0.9029  0.3135  0.6297
  527MOL0     C71073   9.243  10.386   3.784 -0.9174  0.0891 -0.5335
  527MOL0     C71074   9.336  10.309   3.756 -0.7627 -0.0920 -0.4959
  527MOL0     C71075   9.555  10.931   3.778  0.4666  0.0792 -0.1650
  527MOL0     C71076   9.665  11.006   3.748 -0.1930 -0.3698  0.1997
  527MOL0     C71077   9.784  10.993   3.842 -0.5564  0.0277  0.9147
  527MOL0     H71078  10.101  11.042   3.776  0.1680 -2.4499 -1.8328
  527MOL0     H71079  10.340  11.113   3.755  0.8427  1.6905  2.4625
  527MOL0     H71080  10.501  11.252   3.744  0.5049  1.6046  0.0444
  527MOL0     H71081  10.521  11.120   3.621  2.1773 -0.5855  1.8575
  527MOL0     H71082  10.655  11.391   3.625 -2.0486 -0.1157 -0.3633
  527MOL0     H71083  10.689  11.260   3.512  2.8012  0.2946  0.8882
  527MOL0     H71084  10.749  11.118   3.710 -1.4137  0.1295  4.5747
  527MOL0     H71085  10.719  11.262   3.814  0.4552 -0.3963  1.1655
  527MOL0     H71086  10.903  11.299   3.588  0.1530 -4.5207 -1.0233
  527MOL0     H71087  10.895  11.380   3.751 -1.3449 -0.6802 -0.8313
  527MOL0     H71088  10.976  11.178   3.851 -1.2725  4.7523  0.0122
  527MOL0     H71089  11.005  11.100   3.692 -1.9504  1.1848 -2.4730
  527MOL0     H71090  11.135  11.284   3.623 -2.0800  0.7577 -0.4468
  527MOL0     H71091  11.124  11.373   3.778  0.4379  0.5267 -0.1652
  527MOL0     H71092  11.259  11.107   3.722 -1.2947  1.7476 -2.4699
  527MOL0     H71093  11.204  11.142   3.885 -2.3892  2.0571  1.2541
  527MOL0     H71094  11.388  11.329   3.727 -2.4993 -0.3766 -0.8952
  527MOL0     H71095  11.338  11.346   3.899  4.1582  1.7803 -0.6706
  527MOL0     H71096  11.452  11.129   4.065  1.7983 -3.4101  0.6579
  527MOL0     H71097  11.624  10.995   4.149 -0.4008  0.0039  0.3747
  527MOL0     H71098  11.729  10.910   4.037 -0.1714  0.4113 -0.0612
  527MOL0     H71099  11.777  11.170   4.189  2.7486 -0.7661  3.6717
  527MOL0     H71100  11.830  11.012   4.213  0.1059  0.3397  1.4794
  527MOL0     H71101  12.013  11.163   4.110  0.7162 -1.1983  1.7609
  527MOL0     H71102  11.906  11.190   3.977 -0.4689 -2.4121 -0.0664
  527MOL0     H71103  11.935  10.943   3.911  2.1818 -2.2672 -0.9867
  527MOL0     H71104  12.034  10.920   4.043  0.6614 -0.8448 -1.1483
  527MOL0     H71105  12.219  11.019   4.144 -0.4109  3.2196  1.3768
  527MOL0     H71106  12.445  11.076   4.192  1.9840  1.3989 -0.9809
  527MOL0     H71107  12.778  11.418   4.028  1.4577  4.6224  1.0977
  527MOL0     H71108  12.977  11.527   4.093 -0.6172  0.5058 -0.0095
  527MOL0     H71109  13.131  11.679   4.250 -0.2418 -0.5781  0.1797
  527MOL0     H71110  13.027  11.626   4.389  1.9113 -1.6660  2.9026
  527MOL0     H71111  13.331  11.632   4.391  0.2310  0.7879  0.4996
  527MOL0     H71112  13.223  11.747   4.473  2.1435  0.6299 -1.9191
  527MOL0     H71113  13.121  11.570   4.610  1.3806  0.7804  1.1603
  527MOL0     H71114  13.226  11.446   4.535  3.1045  0.0078 -0.0495
  527MOL0     H71115  13.409  11.645   4.576 -1.3349  0.6921 -0.8583
  527MOL0     H71116  13.386  11.492   4.664 -0.9184 -1.0631  0.6931
  527MOL0     H71117  13.268  11.746   4.750  0.2949  0.3582 -0.7125
  527MOL0     H71118  13.408  11.682   4.829  0.2902  0.5017 -2.0899
  527MOL0     H71119  13.114  11.619   4.855 -0.3534 -0.9179  0.3486
  527MOL0     H71120  13.216  11.469   4.843  2.9714 -1.9040  4.5234
  527MOL0     H71121  13.231  11.682   5.061  3.6737 -0.6763  1.6366
  527MOL0     H71122  13.353  11.567   5.058 -0.3739  0.4132  3.8168
  527MOL0     H71123  13.176  11.498   5.209 -0.9172 -1.9812  1.0623
  527MOL0     H71124  13.059  11.509   5.073  1.4044 -0.2118 -1.2332
  527MOL0     H71125  13.056  11.230   4.394 -0.3960 -0.1987  1.1495
  527MOL0     H71126  12.841  11.111   4.311 -0.6740 -0.3636 -2.7437
  527MOL0     H71127  12.523  11.147   3.775  2.0327 -2.7995 -0.1866
  527MOL0     H71128  12.278  11.139   3.735 -2.9018  0.6301  2.0526
  527MOL0     H71129  10.237  11.362   3.422 -0.3891  0.2573 -0.3650
  527MOL0     H71130   9.993  11.303   3.455  0.9340 -0.4183 -1.4298
  527MOL0     H71131   9.531  11.167   3.477  3.5914  0.3111 -0.5759
  527MOL0     H71132   9.363  11.012   3.506  1.2937  0.1223 -1.0459
  527MOL0     H71133   9.217  10.865   3.885  0.3759  1.3058 -4.1134
  527MOL0     H71134   9.389  10.851   3.932  2.7877 -0.6040 -2.8383
  527MOL0     H71135   9.278  10.645   3.990 -1.1065 -1.8860 -0.3638
  527MOL0     H71136   9.382  10.610   3.849 -2.1262 -2.1870 -1.2103
  527MOL0     H71137   9.198  10.633   3.691  0.8135  1.4702  0.0032
  527MOL0     H71138   9.081  10.671   3.824  1.0092  1.2815  1.0069
  527MOL0     H71139   9.087  10.452   3.912 -3.7094 -0.3721 -1.1880
  527MOL0     H71140   9.044  10.451   3.746  1.2952  0.7551 -0.0015
  527MOL0     H71141   9.418  10.245   3.727 -0.3778  0.4774 -0.6718
  527MOL0     H71142   9.548  10.864   3.863 -0.8640  1.4410  0.8485
  527MOL0     H71143   9.860  10.933   3.792 -0.8925 -1.0506  1.6324
  527MOL0     H71144   9.820  11.091   3.873 -0.2936  0.1358  0.2864
  527MOL0     H71145   9.753  10.930   3.927  1.2980  0.3546  1.8648
  528MOL0     O71146   3.651   2.865   9.829  0.3846  0.0142 -0.2717
  528MOL0     C71147   3.577   2.934   9.761  0.1145 -0.3634 -1.0106
  528MOL0     O71148   3.617   3.014   9.658  0.5149 -0.0551  0.6419
  528MOL0     C71149   3.735   3.071   9.649  0.0420 -0.3661 -0.6812
  528MOL0     C71150   3.741   3.212   9.672  0.5235 -0.2984  0.2193
  528MOL0     C71151   3.868   3.280   9.671  0.6831  0.9132 -0.5838
  528MOL0     C71152   3.985   3.208   9.642 -0.1296  0.4689  0.3322
  528MOL0     O71153   4.104   3.276   9.628  0.0350 -0.7133  0.0798
  528MOL0     C71154   4.133   3.321   9.496  0.1851 -0.5203 -0.2961
  528MOL0     C71155   4.208   3.213   9.421  0.5766 -0.3696 -0.3775
  528MOL0     C71156   4.363   3.229   9.422 -0.0770  0.3398 -0.1820
  528MOL0     C71157   4.422   3.184   9.560  1.0594 -0.3087  0.1008
  528MOL0     C71158   4.574   3.215   9.556 -0.2023  0.0147  0.2601
  528MOL0     C71159   4.653   3.147   9.667  0.7238 -1.1869 -1.4653
  528MOL0     C71160   4.803   3.175   9.652 -0.0198  0.8310  0.9252
  528MOL0     C71161   4.844   3.329   9.655 -1.4613  0.3873 -0.4962
  528MOL0     N71162   4.991   3.344   9.646 -0.3899  0.0910  0.3099
  528MOL0     C71163   5.067   3.394   9.544 -0.7134 -0.8850  0.6614
  528MOL0     C71164   5.188   3.355   9.572 -0.7612 -0.1270  0.6768
  528MOL0     C71165   5.308   3.399   9.483  0.1306  0.4394  0.1793
  528MOL0     C71166   5.317   3.334   9.338  0.5845 -0.6323  0.7274
  528MOL0     C71167   5.457   3.360   9.269  0.2019  0.6612  0.4447
  528MOL0     C71168   5.474   3.265   9.147 -0.4256 -0.1657 -0.0456
  528MOL0     O71169   5.582   3.320   9.077 -0.7312 -0.3815  0.6757
  528MOL0     C71170   5.709   3.271   9.088 -0.3917 -1.2548  0.1401
  528MOL0     C71171   5.790   3.279   8.971  0.0639  0.9957  0.4934
  528MOL0     C71172   5.927   3.250   8.978 -1.3188  0.0626  0.3815
  528MOL0     C71173   5.991   3.231   9.108  0.0042 -0.3023  0.0092
  528MOL0     C71174   6.139   3.226   9.122 -0.1363 -0.7206 -0.0174
  528MOL0     O71175   6.210   3.203   9.011 -0.4741  0.2537 -0.2053
  528MOL0     C71176   6.347   3.172   9.014  0.4007  0.5829 -0.0552
  528MOL0     C71177   6.391   3.050   8.959  0.4078 -0.7008 -1.0183
  528MOL0     C71178   6.524   3.013   8.950  0.5849 -0.6445 -0.2169
  528MOL0     C71179   6.616   3.108   8.991 -0.5780  0.3970 -0.3226
  528MOL0     O71180   6.747   3.072   8.988  0.7610  0.1839  0.0088
  528MOL0     C71181   6.794   2.985   8.880 -0.5191 -0.1211 -0.6896
  528MOL0     C71182   6.937   3.028   8.854 -0.2904 -0.0408  0.3565
  528MOL0     C71183   6.968   2.953   8.717 -0.8142 -0.6586 -0.9037
  528MOL0     C71184   7.122   2.962   8.708  0.5622  0.0913 -0.4352
  528MOL0     C71185   7.201   2.859   8.781 -0.3581  0.4014 -0.2295
  528MOL0     C71186   7.347   2.872   8.738 -0.4744  0.0563 -0.9323
  528MOL0     C71187   7.426   2.980   8.803 -0.6945 -0.2401 -0.2586
  528MOL0     C71188   7.559   2.998   8.730  0.6654  0.1318  0.2970
  528MOL0    Cl71189   7.656   3.114   8.830  0.2066  0.3016  0.0951
  528MOL0     C71190   6.575   3.218   9.064  0.5504 -0.2965 -0.1934
  528MOL0     C71191   6.438   3.255   9.079 -0.2075 -0.8420 -0.5893
  528MOL0     O71192   6.184   3.235   9.237 -0.0431  0.1310 -0.1016
  528MOL0     C71193   5.913   3.223   9.220  0.6294  0.7236 -0.3285
  528MOL0     C71194   5.771   3.236   9.203 -0.8092  0.4285 -0.2089
  528MOL0     N71195   5.189   3.280   9.692 -0.2614  0.2253 -0.2938
  528MOL0     N71196   5.073   3.282   9.738  0.2462  0.3960 -0.1530
  528MOL0     C71197   3.973   3.073   9.613 -0.5451 -0.7439 -0.2866
  528MOL0     C71198   3.850   3.008   9.623 -0.7664 -0.3489  0.5459
  528MOL0     C71199   3.430   2.917   9.780 -0.4030 -1.1209 -0.1367
  528MOL0     C71200   3.342   2.956   9.671  0.4279  0.1720 -0.0228
  528MOL0     C71201   3.201   2.934   9.679 -0.0496 -0.2582  0.0197
  528MOL0     C71202   3.151   2.877   9.800  0.5217 -0.0686 -0.3363
  528MOL0     O71203   3.015   2.848   9.817 -0.0298  0.1510  0.2096
  528MOL0     C71204   2.940   2.959   9.850  0.9732 -0.8628  0.6683
  528MOL0     C71205   2.814   2.960   9.766  0.5050 -0.0557  0.4858
  528MOL0     C71206   2.721   2.846   9.798 -0.3899 -0.8989  0.2270
  528MOL0     C71207   2.604   2.845   9.698  0.2556 -0.5454 -0.3690
  528MOL0     C71208   2.485   2.779   9.747 -1.0952 -0.1838 -0.0452
  528MOL0     C71209   2.396   2.738   9.806 -0.8036  0.8137 -0.6388
  528MOL0     C71210   3.240   2.833   9.900  0.3903  0.6833  0.5404
  528MOL0     C71211   3.374   2.858   9.888  0.7763  0.1651 -0.6393
  528MOL0     C71212   3.449   2.841  10.017  0.5224  0.1674 -0.4028
  528MOL0     H71213   3.656   3.273   9.700  1.3507  0.9354  0.0849
  528MOL0     H71214   3.882   3.386   9.688  3.2357  0.3954  1.0966
  528MOL0     H71215   4.043   3.347   9.439  2.0274  3.1554 -1.8249
  528MOL0     H71216   4.195   3.410   9.506  0.9462 -0.5391 -3.5845
  528MOL0     H71217   4.175   3.212   9.316 -1.9333 -0.2890  0.3454
  528MOL0     H71218   4.178   3.116   9.464  2.5969 -0.6604  0.4628
  528MOL0     H71219   4.389   3.333   9.401  0.2645  0.9695  2.8890
  528MOL0     H71220   4.415   3.164   9.351 -0.0421  0.6256 -0.4182
  528MOL0     H71221   4.382   3.239   9.645  1.8627  1.2350 -0.4860
  528MOL0     H71222   4.412   3.076   9.575 -0.2242 -0.3687 -1.0072
  528MOL0     H71223   4.617   3.177   9.463 -2.6139 -2.2963  0.0043
  528MOL0     H71224   4.591   3.324   9.557  0.9485 -0.1225 -1.1936
  528MOL0     H71225   4.619   3.191   9.761  2.7358  2.8954 -2.4356
  528MOL0     H71226   4.640   3.039   9.674  0.1245 -1.0364  0.0087
  528MOL0     H71227   4.830   3.125   9.559 -4.6735 -2.3622  0.9124
  528MOL0     H71228   4.846   3.127   9.740 -1.8887 -2.4584  0.1930
  528MOL0     H71229   4.794   3.389   9.578  0.2043  1.2452 -0.9424
  528MOL0     H71230   4.814   3.366   9.753  2.6584 -2.7276  2.2827
  528MOL0     H71231   5.027   3.457   9.465  2.0475  0.5293  0.2695
  528MOL0     H71232   5.303   3.509   9.476  0.3507  0.3487 -2.0012
  528MOL0     H71233   5.401   3.379   9.536 -0.2879 -0.4269  0.5908
  528MOL0     H71234   5.307   3.226   9.352 -1.4871 -0.6830 -0.7966
  528MOL0     H71235   5.235   3.367   9.274  1.6611 -2.6455 -1.9101
  528MOL0     H71236   5.536   3.349   9.344  0.0556  0.3773  0.5572
  528MOL0     H71237   5.456   3.463   9.231  1.1214  1.1951  1.7825
  528MOL0     H71238   5.378   3.267   9.094 -0.8600 -3.4496  0.3782
  528MOL0     H71239   5.487   3.161   9.178  0.2448 -0.4999 -1.3865
  528MOL0     H71240   5.738   3.304   8.879 -2.9287 -2.1258  1.1398
  528MOL0     H71241   5.994   3.243   8.892  1.5865 -1.3433  2.5947
  528MOL0     H71242   6.313   2.981   8.927 -0.3785  1.0409 -3.1325
  528MOL0     H71243   6.548   2.913   8.915 -0.5624 -0.5613 -1.3216
  528MOL0     H71244   6.783   2.879   8.903  1.8973 -0.8404 -2.4687
  528MOL0     H71245   6.728   2.995   8.794 -1.4136 -1.5107 -0.1949
  528MOL0     H71246   6.941   3.136   8.840  0.8273  0.4288  3.5795
  528MOL0     H71247   6.997   3.004   8.942 -1.3019 -1.9577  0.5753
  528MOL0     H71248   6.926   2.853   8.716 -0.9627 -0.8146 -6.2716
  528MOL0     H71249   6.920   3.015   8.641  0.2834 -0.0241 -1.1123
  528MOL0     H71250   7.151   3.065   8.731 -1.2271  0.6550 -0.4806
  528MOL0     H71251   7.141   2.950   8.601 -5.8814 -0.8338 -1.9547
  528MOL0     H71252   7.160   2.762   8.752 -2.2084  1.7460 -2.4558
  528MOL0     H71253   7.201   2.872   8.890 -0.5508 -1.3596  0.0096
  528MOL0     H71254   7.395   2.779   8.768  0.0754  1.3833  2.7801
  528MOL0     H71255   7.350   2.884   8.629  0.0763 -1.5711 -1.1144
  528MOL0     H71256   7.446   2.948   8.905 -5.2784 -2.4650  0.1633
  528MOL0     H71257   7.370   3.073   8.802  3.3456  2.4554  0.0118
  528MOL0     H71258   7.604   2.899   8.718  1.5823  0.4452  1.0571
  528MOL0     H71259   7.553   3.033   8.626  1.7989  0.3109  0.2851
  528MOL0     H71260   6.645   3.293   9.101 -2.5196  1.4519  2.6537
  528MOL0     H71261   6.423   3.347   9.136  0.4452  0.1237 -1.9104
  528MOL0     H71262   5.951   3.218   9.321  0.6940  3.8444 -0.0944
  528MOL0     H71263   5.715   3.228   9.296 -1.2774  0.9668 -0.4349
  528MOL0     H71264   4.051   3.002   9.589  1.5875  1.5044 -0.3797
  528MOL0     H71265   3.840   2.901   9.605  0.3125 -0.4909  0.7655
  528MOL0     H71266   3.386   2.998   9.581  1.1034  3.0034  1.5106
  528MOL0     H71267   3.140   2.962   9.593  0.4493 -1.0602 -0.6105
  528MOL0     H71268   2.997   3.045   9.814  0.4144 -0.8548 -0.2347
  528MOL0     H71269   2.913   2.973   9.955  2.0821 -0.8470  0.9622
  528MOL0     H71270   2.849   2.952   9.663  1.6030  0.7824  0.7771
  528MOL0     H71271   2.758   3.053   9.781 -0.1011 -0.4415  0.6434
  528MOL0     H71272   2.674   2.852   9.896 -2.7082 -0.1706 -0.8621
  528MOL0     H71273   2.769   2.748   9.783 -2.8860 -2.2286  0.2771
  528MOL0     H71274   2.584   2.950   9.674  0.8119  0.1640  1.9926
  528MOL0     H71275   2.648   2.791   9.613  2.1453 -0.6408  0.6079
  528MOL0     H71276   2.311   2.689   9.851  0.2153  0.2232  0.7429
  528MOL0     H71277   3.206   2.801   9.999  1.5430  0.7300  0.9644
  528MOL0     H71278   3.391   2.896  10.092 -0.9292  1.3363 -2.2694
  528MOL0     H71279   3.458   2.736  10.047 -0.5405  1.2713  4.8670
  528MOL0     H71280   3.551   2.879  10.025  1.6059 -2.2671 -1.5476
  529MOL0     O71281   7.376   4.269   4.793  0.7346 -0.4319  0.3448
  529MOL0     C71282   7.444   4.178   4.749  0.8960 -0.8331  0.0455
  529MOL0     O71283   7.578   4.175   4.759 -0.2109  0.7633  0.7873
  529MOL0     C71284   7.639   4.248   4.857 -0.1232  0.6446  0.2411
  529MOL0     C71285   7.646   4.203   4.998 -0.2667  0.5292  0.2951
  529MOL0     C71286   7.750   4.259   5.079  1.1805 -0.0769 -0.0592
  529MOL0     C71287   7.838   4.361   5.035  0.0965  0.2109 -0.8088
  529MOL0     O71288   7.907   4.429   5.132  0.9465  0.3925 -0.1245
  529MOL0     C71289   8.015   4.516   5.092 -0.2100  0.8182 -0.1131
  529MOL0     C71290   8.141   4.441   5.036  0.7201  0.7030  0.1184
  529MOL0     C71291   8.188   4.328   5.128  0.3942 -0.7178 -0.4515
  529MOL0     C71292   8.321   4.274   5.077  0.8074  0.8663  0.2627
  529MOL0     C71293   8.375   4.160   5.165  0.0801  0.7285  0.3088
  529MOL0     C71294   8.442   4.201   5.291  0.2254 -0.7715  0.1069
  529MOL0     C71295   8.459   4.089   5.398 -0.1255 -0.4425  0.4970
  529MOL0     C71296   8.549   3.981   5.367 -0.2408 -0.1472 -0.5129
  529MOL0     N71297   8.528   3.878   5.465  0.0492 -0.4029  0.8463
  529MOL0     C71298   8.612   3.861   5.577 -0.0821  0.2356 -0.4111
  529MOL0     C71299   8.570   3.740   5.628  0.2101  0.4951 -0.5825
  529MOL0     C71300   8.622   3.680   5.752 -0.2898 -0.4317 -0.2217
  529MOL0     C71301   8.716   3.567   5.704 -0.3103  0.6891  0.3381
  529MOL0     C71302   8.794   3.484   5.818 -0.3000  0.3725  0.7672
  529MOL0     C71303   8.877   3.373   5.762  0.4663 -0.1655 -0.1279
  529MOL0     O71304   8.967   3.407   5.655 -0.5500 -0.7399  0.1021
  529MOL0     C71305   9.095   3.433   5.697  0.7583  0.8193 -1.0589
  529MOL0     C71306   9.128   3.536   5.794  0.0848  0.1009  1.0343
  529MOL0     C71307   9.252   3.549   5.848 -0.4799 -0.0180  0.2579
  529MOL0     C71308   9.355   3.471   5.794 -0.1712 -0.3332  0.3926
  529MOL0     C71309   9.487   3.473   5.859  0.0826  0.9126  0.9120
  529MOL0     O71310   9.576   3.377   5.810 -0.7330  0.3941 -0.4738
  529MOL0     C71311   9.703   3.374   5.856 -0.1599  1.0850  0.0876
  529MOL0     C71312   9.781   3.484   5.895 -0.1027  0.0234 -0.5684
  529MOL0     C71313   9.910   3.469   5.956 -0.8109 -0.2362  1.4484
  529MOL0     C71314   9.965   3.340   5.963  0.4769 -0.0020  0.1943
  529MOL0     O71315  10.088   3.305   6.004 -0.0349  0.2306 -0.3022
  529MOL0     C71316  10.158   3.401   6.074 -0.9935  0.0044 -0.6077
  529MOL0     C71317  10.287   3.343   6.127 -0.2315  0.2602 -0.6105
  529MOL0     C71318  10.367   3.420   6.234  1.3368  0.0876 -0.5464
  529MOL0     C71319  10.513   3.395   6.223 -0.6451  0.3273 -0.0010
  529MOL0     C71320  10.589   3.447   6.353 -0.3185 -0.4735 -0.0240
  529MOL0     C71321  10.670   3.576   6.324 -0.2428 -0.6429  0.5377
  529MOL0     C71322  10.766   3.628   6.436 -0.7473  0.3955  0.2895
  529MOL0     C71323  10.853   3.749   6.394 -0.5330 -0.6127 -0.2814
  529MOL0    Cl71324  10.961   3.741   6.235  0.3840  0.4597 -0.3797
  529MOL0     C71325   9.887   3.229   5.920  0.3806  0.6516  0.4843
  529MOL0     C71326   9.755   3.243   5.875 -0.2115 -0.7342  0.7530
  529MOL0     O71327   9.498   3.549   5.960 -0.9658 -0.6592 -0.0359
  529MOL0     C71328   9.328   3.383   5.691 -0.5107  0.1458  0.9947
  529MOL0     C71329   9.197   3.350   5.651 -0.3392  0.3377 -0.3125
  529MOL0     N71330   8.471   3.687   5.546 -0.3015 -0.1276  0.1786
  529MOL0     N71331   8.453   3.765   5.445 -0.0346 -0.2988  0.1473
  529MOL0     C71332   7.828   4.395   4.905 -0.3660 -0.0035  0.0993
  529MOL0     C71333   7.744   4.336   4.807  1.1979  0.0643  0.5152
  529MOL0     C71334   7.381   4.065   4.672 -1.5202 -0.0611  0.1539
  529MOL0     C71335   7.444   4.030   4.550 -0.1098 -1.3228  0.2428
  529MOL0     C71336   7.408   3.919   4.477 -0.0884  0.3378  0.6355
  529MOL0     C71337   7.286   3.862   4.512  0.9393  0.0422 -0.1196
  529MOL0     O71338   7.255   3.751   4.427 -0.8707  0.3654  0.3574
  529MOL0     C71339   7.184   3.783   4.307 -0.1893  1.1270  0.5896
  529MOL0     C71340   7.078   3.671   4.270  0.3162 -0.7764 -0.5462
  529MOL0     C71341   6.951   3.665   4.346  1.0102 -0.2512  0.5824
  529MOL0     C71342   6.843   3.592   4.271  0.1304 -0.3027  0.7916
  529MOL0     C71343   6.792   3.656   4.149  0.7838 -0.0062 -0.0784
  529MOL0     C71344   6.750   3.725   4.060  0.0434  0.0968 -0.1586
  529MOL0     C71345   7.210   3.892   4.623 -0.3380  0.7030  0.2780
  529MOL0     C71346   7.258   3.997   4.703  0.1359  0.9305 -0.4747
  529MOL0     C71347   7.188   4.016   4.831  0.7513 -0.7895  0.1594
  529MOL0     H71348   7.581   4.141   5.060  0.8942  1.6241  2.7666
  529MOL0     H71349   7.783   4.233   5.179  3.4149 -0.8727 -0.9341
  529MOL0     H71350   7.974   4.577   5.011  0.1467 -1.9930 -2.6136
  529MOL0     H71351   8.045   4.595   5.161 -0.4477 -1.6099  2.9720
  529MOL0     H71352   8.231   4.500   5.014  0.3887  0.5253 -1.8970
  529MOL0     H71353   8.114   4.402   4.937  0.9118  3.9311 -1.3660
  529MOL0     H71354   8.114   4.250   5.143  0.6869 -0.3513  4.2624
  529MOL0     H71355   8.205   4.368   5.228 -1.1708 -0.9439 -0.0821
  529MOL0     H71356   8.310   4.246   4.972 -0.0814 -1.6818  0.9436
  529MOL0     H71357   8.403   4.346   5.079  0.9559  0.6927  1.0596
  529MOL0     H71358   8.294   4.092   5.195  1.2115  0.4234  2.9373
  529MOL0     H71359   8.440   4.098   5.102 -1.1123 -0.6066  0.3468
  529MOL0     H71360   8.541   4.247   5.284 -0.4680  0.9578  0.9882
  529MOL0     H71361   8.393   4.288   5.337  1.4119  0.2848 -0.5627
  529MOL0     H71362   8.361   4.049   5.425  0.3794 -1.5782  0.6959
  529MOL0     H71363   8.499   4.141   5.485 -1.9342  1.3724  0.3112
  529MOL0     H71364   8.535   3.943   5.265  1.8253  1.0530 -1.3373
  529MOL0     H71365   8.647   4.025   5.392 -1.0428  0.5268  1.6566
  529MOL0     H71366   8.690   3.929   5.611 -1.0133  1.8402 -1.3583
  529MOL0     H71367   8.687   3.753   5.800 -3.0646  1.3442  1.0578
  529MOL0     H71368   8.547   3.647   5.824 -1.2951  2.2253  0.0577
  529MOL0     H71369   8.662   3.498   5.639  1.1280  1.6157 -1.9243
  529MOL0     H71370   8.796   3.611   5.645 -0.2775  0.4443  0.1982
  529MOL0     H71371   8.713   3.434   5.871  0.8848 -0.6795  1.6332
  529MOL0     H71372   8.843   3.550   5.889 -0.1707  0.2027  0.8376
  529MOL0     H71373   8.796   3.308   5.728  0.1891 -1.1650  2.2762
  529MOL0     H71374   8.925   3.323   5.846 -1.0051 -0.0098  0.8375
  529MOL0     H71375   9.056   3.610   5.827  0.7546  2.5523 -2.4956
  529MOL0     H71376   9.255   3.615   5.934  0.1749 -1.0148  1.0162
  529MOL0     H71377   9.741   3.585   5.890  1.0344  0.6239  1.5612
  529MOL0     H71378   9.952   3.559   6.000 -2.6550  1.8966 -0.8341
  529MOL0     H71379  10.184   3.489   6.013  1.2998  1.6727  2.4737
  529MOL0     H71380  10.110   3.430   6.168 -1.2829 -0.8580 -0.4864
  529MOL0     H71381  10.269   3.237   6.147 -3.0747  0.7011 -0.3402
  529MOL0     H71382  10.352   3.334   6.039  0.2808  2.1777 -0.4707
  529MOL0     H71383  10.363   3.528   6.219  0.9755  0.1492 -0.0431
  529MOL0     H71384  10.329   3.393   6.333 -1.2316  0.2928 -1.3885
  529MOL0     H71385  10.534   3.447   6.129 -0.2681  1.2461  0.5811
  529MOL0     H71386  10.515   3.288   6.197 -2.5137 -0.8315  3.9422
  529MOL0     H71387  10.653   3.369   6.396  0.9553  0.1406 -0.7421
  529MOL0     H71388  10.511   3.471   6.426 -1.2603 -1.1099 -0.7948
  529MOL0     H71389  10.724   3.574   6.229  0.9992  0.9601  1.1604
  529MOL0     H71390  10.607   3.662   6.298 -0.1924 -0.7141  0.1708
  529MOL0     H71391  10.831   3.542   6.455 -0.6327  0.4177  0.0067
  529MOL0     H71392  10.709   3.641   6.528 -4.2204 -1.5157 -1.3711
  529MOL0     H71393  10.792   3.839   6.377  0.4581 -0.3629 -2.9702
  529MOL0     H71394  10.922   3.767   6.476 -0.0369  0.6850 -0.9581
  529MOL0     H71395   9.916   3.126   5.938 -3.6964 -0.5945  0.8553
  529MOL0     H71396   9.694   3.157   5.850 -2.7275  1.1556 -0.1031
  529MOL0     H71397   9.408   3.319   5.654  0.2474  0.7403  1.5571
  529MOL0     H71398   9.164   3.276   5.579 -0.7452  0.4441 -0.2377
  529MOL0     H71399   7.891   4.478   4.875  1.0907  0.5755  4.0911
  529MOL0     H71400   7.746   4.367   4.703  0.8407  2.7844  1.2391
  529MOL0     H71401   7.532   4.078   4.511 -0.0608 -1.6604 -0.0693
  529MOL0     H71402   7.469   3.885   4.394 -0.5058 -0.9287  0.8189
  529MOL0     H71403   7.259   3.780   4.228  0.3641 -1.3536  1.0972
  529MOL0     H71404   7.147   3.886   4.308  3.0537  2.4110  1.8649
  529MOL0     H71405   7.131   3.577   4.290  2.2556  0.3855  0.0313
  529MOL0     H71406   7.057   3.677   4.163 -0.4210 -1.7732 -0.4750
  529MOL0     H71407   6.916   3.762   4.382  2.2994  1.0939 -1.6030
  529MOL0     H71408   6.979   3.607   4.435  1.5133 -2.1685 -0.7537
  529MOL0     H71409   6.881   3.492   4.246  4.5845  1.2633  0.2658
  529MOL0     H71410   6.757   3.570   4.334 -0.3823 -1.9731 -0.4373
  529MOL0     H71411   6.719   3.800   3.991 -1.2064 -1.1683 -1.0352
  529MOL0     H71412   7.131   3.826   4.655  0.5613 -0.7173 -0.3404
  529MOL0     H71413   7.122   3.932   4.853 -0.7067 -0.4393 -2.4942
  529MOL0     H71414   7.263   4.034   4.909  1.1226  4.3110 -1.0033
  529MOL0     H71415   7.132   4.110   4.828  3.3465  0.8441 -0.5732
  530MOL0     O71416   0.967   7.778   2.848 -0.6446 -0.2039 -0.5316
  530MOL0     C71417   0.921   7.875   2.793 -0.4420  0.1396 -0.5756
  530MOL0     O71418   0.991   7.974   2.740  0.3614  0.2937 -0.3858
  530MOL0     C71419   1.115   8.002   2.793 -0.2528 -0.0150 -0.0102
  530MOL0     C71420   1.157   8.005   2.928  0.5607 -0.5534  0.3852
  530MOL0     C71421   1.290   8.024   2.963  0.3146 -0.0995  0.5203
  530MOL0     C71422   1.387   8.066   2.868 -1.0769  0.1058 -0.0438
  530MOL0     O71423   1.520   8.087   2.913  0.1151 -0.2173  0.4840
  530MOL0     C71424   1.621   8.060   2.820 -0.0840  0.6085  0.2084
  530MOL0     C71425   1.762   8.076   2.882  0.3584  0.1866  0.8938
  530MOL0     C71426   1.877   8.022   2.799  0.1397  1.0642 -0.5747
  530MOL0     C71427   1.919   8.102   2.676  0.1607  0.3582 -0.1413
  530MOL0     C71428   2.048   8.025   2.627 -0.1841 -0.3116 -0.0883
  530MOL0     C71429   2.095   8.080   2.487  0.3813 -0.4354  0.1294
  530MOL0     C71430   1.999   8.057   2.363  0.2585  0.4968  0.0374
  530MOL0     C71431   2.051   8.132   2.233  0.1197 -0.7844 -0.1512
  530MOL0     N71432   2.177   8.091   2.177  0.6708 -0.1444  0.5603
  530MOL0     C71433   2.246   8.147   2.070 -0.3022  0.0776 -0.5019
  530MOL0     C71434   2.359   8.076   2.053  0.3791  0.5799 -0.3193
  530MOL0     C71435   2.470   8.109   1.950  0.4040 -0.1093 -1.0296
  530MOL0     C71436   2.607   8.105   2.032  0.0645  0.4785  1.0127
  530MOL0     C71437   2.716   8.077   1.927  0.5617 -0.1447 -0.1100
  530MOL0     C71438   2.857   8.059   1.991 -0.8285 -0.1363  0.7070
  530MOL0     O71439   2.860   8.020   2.130  0.3782 -0.3093  0.7103
  530MOL0     C71440   2.984   8.003   2.190  0.2426  0.4002  0.2638
  530MOL0     C71441   3.101   7.979   2.111 -0.7495 -0.1419  0.0675
  530MOL0     C71442   3.219   7.953   2.180  0.0650  0.9930  0.8635
  530MOL0     C71443   3.229   7.975   2.321 -0.0397 -0.3179 -0.2442
  530MOL0     C71444   3.354   7.946   2.398 -0.4789  0.1296 -0.0498
  530MOL0     O71445   3.463   7.953   2.324 -0.7555  0.6341  0.8103
  530MOL0     C71446   3.580   7.912   2.394 -0.0580 -0.7607 -0.6380
  530MOL0     C71447   3.665   8.025   2.428  0.2198 -0.4474  0.1883
  530MOL0     C71448   3.788   8.004   2.493  0.2393 -0.1100  0.6358
  530MOL0     C71449   3.826   7.868   2.523 -0.1837  0.0909  0.1975
  530MOL0     O71450   3.948   7.851   2.586 -0.0302 -0.3369 -0.2667
  530MOL0     C71451   3.990   7.954   2.677 -0.7041  0.7019 -0.4961
  530MOL0     C71452   4.084   7.897   2.776 -0.2320  0.3063 -0.3635
  530MOL0     C71453   4.142   8.001   2.878  0.5259  0.2768  0.1562
  530MOL0     C71454   4.245   8.085   2.815  0.7547  0.8150  0.9674
  530MOL0     C71455   4.337   8.151   2.922  0.1766  0.4435 -0.0707
  530MOL0     C71456   4.440   8.055   2.980  0.1061 -0.2931 -0.8412
  530MOL0     C71457   4.525   8.118   3.091 -0.2474  0.4972  0.3807
  530MOL0     C71458   4.622   8.012   3.142  0.5208  0.5691 -1.0755
  530MOL0    Cl71459   4.545   7.873   3.243 -0.1593 -0.2370 -0.5015
  530MOL0     C71460   3.741   7.763   2.495 -0.0928 -0.8561  0.3884
  530MOL0     C71461   3.621   7.778   2.425 -0.9759 -0.4480  0.6503
  530MOL0     O71462   3.344   7.922   2.517 -0.1097 -0.5243 -0.4068
  530MOL0     C71463   3.116   7.990   2.396 -0.5056 -0.1823 -0.7144
  530MOL0     C71464   2.993   7.994   2.329  0.1193  0.0731 -0.0194
  530MOL0     N71465   2.357   7.976   2.156 -0.4205  0.6462 -0.1200
  530MOL0     N71466   2.254   7.992   2.227 -0.3917  0.2787  0.3248
  530MOL0     C71467   1.342   8.079   2.735 -0.1028 -0.0650  0.6489
  530MOL0     C71468   1.213   8.043   2.699  0.2058  0.2961  0.6274
  530MOL0     C71469   0.768   7.887   2.795 -0.3280 -0.1406  0.5462
  530MOL0     C71470   0.689   7.774   2.780 -0.1269  0.3099  0.2104
  530MOL0     C71471   0.554   7.782   2.769  0.1688 -0.5035 -0.5549
  530MOL0     C71472   0.487   7.902   2.786 -0.5635 -0.1183 -0.4935
  530MOL0     O71473   0.350   7.897   2.792 -0.3211 -0.5682 -0.4184
  530MOL0     C71474   0.287   8.009   2.860  0.0773 -0.1288 -0.1135
  530MOL0     C71475   0.138   7.980   2.880  0.1755 -0.8683 -0.0576
  530MOL0     C71476   0.111   7.862   2.966  0.3367 -0.0777 -0.5688
  530MOL0     C71477   0.189   7.871   3.102  0.3787 -0.7863  0.0232
  530MOL0     C71478   0.326   7.816   3.099 -0.1905 -1.2919  0.2085
  530MOL0     C71479   0.444   7.780   3.096  0.4053  0.7895  0.6890
  530MOL0     C71480   0.568   8.015   2.810  0.0470 -0.1590  0.7338
  530MOL0     C71481   0.708   8.011   2.810  0.3523  0.0477 -0.0580
  530MOL0     C71482   0.780   8.139   2.840 -0.3800  0.1955 -0.1366
  530MOL0     H71483   1.088   7.989   3.010  0.8603  0.1375  0.7820
  530MOL0     H71484   1.329   8.034   3.064  2.1294  3.7616 -0.3545
  530MOL0     H71485   1.600   7.960   2.783  0.0918  1.3147 -1.9401
  530MOL0     H71486   1.620   8.130   2.736  3.0131  0.1404 -0.3422
  530MOL0     H71487   1.753   8.015   2.973 -2.7695  1.2105  1.3791
  530MOL0     H71488   1.788   8.180   2.906  3.1450 -0.0425 -0.6726
  530MOL0     H71489   1.855   7.921   2.762 -1.0550  0.2764  2.0642
  530MOL0     H71490   1.954   8.000   2.873 -2.4968 -6.9331  0.7566
  530MOL0     H71491   1.848   8.101   2.593  0.1297 -1.0971 -0.1282
  530MOL0     H71492   1.948   8.202   2.709 -0.2672  0.6061 -0.5047
  530MOL0     H71493   2.129   8.026   2.700  0.5765 -1.7656 -0.8705
  530MOL0     H71494   2.020   7.920   2.610 -2.3431  0.4350 -1.6773
  530MOL0     H71495   2.114   8.188   2.487  1.2507 -0.5692 -1.4099
  530MOL0     H71496   2.189   8.026   2.474 -1.0623 -4.1217  3.1634
  530MOL0     H71497   1.902   8.097   2.392 -0.0230  0.2982 -0.6138
  530MOL0     H71498   1.989   7.951   2.339  2.7554  0.8042 -3.1036
  530MOL0     H71499   1.971   8.122   2.159 -0.8308  1.0537  0.5577
  530MOL0     H71500   2.052   8.239   2.256 -0.8065 -1.1706  1.9656
  530MOL0     H71501   2.225   8.238   2.015 -0.1920 -0.6090 -1.7195
  530MOL0     H71502   2.467   8.039   1.866 -2.9314  0.1292 -1.2443
  530MOL0     H71503   2.452   8.210   1.914 -0.1277 -0.0814 -0.6863
  530MOL0     H71504   2.621   8.205   2.074 -0.4438  1.5055 -1.1401
  530MOL0     H71505   2.607   8.027   2.109  1.2011 -0.8216 -0.2580
  530MOL0     H71506   2.732   8.164   1.862  0.5960  1.1888  1.6106
  530MOL0     H71507   2.687   7.998   1.857 -1.2762  2.9346 -3.1532
  530MOL0     H71508   2.914   8.150   1.972  1.8939 -1.4982  1.7774
  530MOL0     H71509   2.914   7.987   1.931  0.5816  0.3412  1.4224
  530MOL0     H71510   3.111   7.989   2.003 -0.0265  1.2886  0.2398
  530MOL0     H71511   3.310   7.930   2.125 -0.9654 -2.0565  0.2608
  530MOL0     H71512   3.614   8.117   2.403 -3.2645 -2.4841 -0.8625
  530MOL0     H71513   3.859   8.084   2.515  2.1171 -1.0603 -1.5799
  530MOL0     H71514   4.054   8.016   2.614  1.5975 -1.5465 -0.5678
  530MOL0     H71515   3.916   8.017   2.727 -0.9367  0.4181 -0.4793
  530MOL0     H71516   4.025   7.834   2.843  0.5670  0.1908  0.2465
  530MOL0     H71517   4.170   7.845   2.732 -1.0788 -1.0709 -0.4483
  530MOL0     H71518   4.061   8.061   2.922 -0.3532  0.6519 -1.8649
  530MOL0     H71519   4.190   7.937   2.953  1.3597  0.1987 -0.4263
  530MOL0     H71520   4.199   8.174   2.771  2.8890  2.1277  1.2406
  530MOL0     H71521   4.305   8.027   2.743 -1.1888  0.4803 -0.4755
  530MOL0     H71522   4.276   8.184   3.007  1.1608 -0.2974  0.9492
  530MOL0     H71523   4.384   8.236   2.872  2.7656 -1.3938 -0.9923
  530MOL0     H71524   4.396   7.967   3.029  0.7303 -0.8696 -1.2911
  530MOL0     H71525   4.505   8.007   2.906  2.0722 -0.5264  0.9378
  530MOL0     H71526   4.459   8.146   3.174  1.8132  1.1827  1.8563
  530MOL0     H71527   4.570   8.206   3.045 -0.5104  0.2535 -0.3423
  530MOL0     H71528   4.666   7.974   3.050 -0.8298 -3.0819 -0.3464
  530MOL0     H71529   4.692   8.072   3.201 -1.7006  0.2423  2.1610
  530MOL0     H71530   3.776   7.665   2.526  2.4640  0.6921  2.8982
  530MOL0     H71531   3.550   7.698   2.408 -0.3102 -0.4819 -2.3743
  530MOL0     H71532   3.125   7.985   2.504 -1.2214 -0.9435 -0.6827
  530MOL0     H71533   2.900   8.008   2.383 -0.6360  0.0292 -1.2621
  530MOL0     H71534   1.410   8.126   2.665  0.6513 -1.1045  0.6562
  530MOL0     H71535   1.182   8.036   2.595  0.8614 -3.2579  0.5627
  530MOL0     H71536   0.735   7.678   2.761  0.4796  0.5433  0.4710
  530MOL0     H71537   0.493   7.694   2.754  0.9087 -0.9417 -1.0227
  530MOL0     H71538   0.297   8.097   2.795 -2.1326  1.6749  1.8282
  530MOL0     H71539   0.340   8.024   2.954  0.5362 -1.6296 -0.1000
  530MOL0     H71540   0.090   7.968   2.782  1.8265  2.3584 -1.4304
  530MOL0     H71541   0.078   8.061   2.922 -0.6890 -1.3658 -0.3117
  530MOL0     H71542   0.127   7.769   2.909 -2.1594  0.6576 -2.7155
  530MOL0     H71543   0.005   7.867   2.993  0.8364  1.4860  1.2743
  530MOL0     H71544   0.202   7.971   3.146  0.6458 -1.2916  1.1079
  530MOL0     H71545   0.126   7.825   3.179 -1.4752  0.5594 -0.6170
  530MOL0     H71546   0.549   7.758   3.091 -0.0442 -1.7973  1.2981
  530MOL0     H71547   0.525   8.114   2.805  2.1878  0.8277  0.4530
  530MOL0     H71548   0.816   8.185   2.747 -0.6365 -3.0659 -1.9890
  530MOL0     H71549   0.704   8.209   2.875  0.3496  1.9514 -1.8569
  530MOL0     H71550   0.862   8.124   2.912 -2.9522 -3.9214  2.3383
  531MOL0     O71551   7.692   5.048   8.706 -0.4989 -0.2736 -0.1376
  531MOL0     C71552   7.727   4.932   8.679 -0.6192 -0.3549  0.5418
  531MOL0     O71553   7.853   4.877   8.694 -0.3903  0.1595 -0.0017
  531MOL0     C71554   7.915   4.932   8.800  0.3199 -0.8333 -0.1624
  531MOL0     C71555   7.956   5.069   8.810  0.5290 -0.1844 -0.7286
  531MOL0     C71556   8.009   5.117   8.933  0.3858  0.3374  0.4559
  531MOL0     C71557   8.024   5.027   9.044  0.3693 -0.5245  1.3827
  531MOL0     O71558   8.079   5.060   9.166 -0.5080  0.4587  0.1306
  531MOL0     C71559   8.157   5.179   9.173 -0.2581  0.0254  0.0635
  531MOL0     C71560   8.283   5.181   9.083 -0.4844 -0.6644  0.1178
  531MOL0     C71561   8.401   5.105   9.143  0.4492 -0.1350  0.0835
  531MOL0     C71562   8.526   5.169   9.086  0.3538 -0.2681 -0.8896
  531MOL0     C71563   8.646   5.097   9.152 -0.6466  0.1955 -0.9687
  531MOL0     C71564   8.782   5.159   9.123  0.7734  0.5027 -0.0460
  531MOL0     C71565   8.872   5.124   9.242 -0.4826 -0.6959 -1.3449
  531MOL0     C71566   9.007   5.186   9.224 -0.2147 -0.2480 -0.7584
  531MOL0     N71567   9.089   5.161   9.344 -0.2709 -0.9817 -0.1539
  531MOL0     C71568   9.138   5.270   9.413  0.0357 -0.3771 -0.0920
  531MOL0     C71569   9.217   5.222   9.519  0.1853 -0.6796  0.3071
  531MOL0     C71570   9.275   5.295   9.629  0.0781  0.4226 -0.9581
  531MOL0     C71571   9.418   5.332   9.608 -0.6624 -0.1281  0.5060
  531MOL0     C71572   9.507   5.208   9.580  0.4832 -0.5961  0.3653
  531MOL0     C71573   9.652   5.252   9.547  0.6147 -0.7187  0.0225
  531MOL0     O71574   9.699   5.317   9.673 -0.3210  0.9143  0.0949
  531MOL0     C71575   9.830   5.361   9.679  0.6205 -0.3036 -0.2717
  531MOL0     C71576   9.871   5.437   9.790 -0.3397 -0.4230  0.3116
  531MOL0     C71577   9.993   5.512   9.794  0.3051 -0.1442  0.3251
  531MOL0     C71578  10.089   5.484   9.696  0.8631  0.9241 -0.2902
  531MOL0     C71579  10.216   5.545   9.694 -0.2647  0.3792 -0.0222
  531MOL0     O71580  10.251   5.630   9.798 -0.6217  1.0184 -0.2047
  531MOL0     C71581  10.384   5.677   9.810  1.1430 -0.2385 -0.6198
  531MOL0     C71582  10.397   5.809   9.841  0.2830 -0.3693  0.7848
  531MOL0     C71583  10.523   5.863   9.855 -0.4468 -0.2169  0.8688
  531MOL0     C71584  10.634   5.794   9.844 -0.1162  0.2878  0.2909
  531MOL0     O71585  10.762   5.826   9.868  0.9120  0.1407 -0.1817
  531MOL0     C71586  10.785   5.947   9.949 -0.9294  0.3702 -1.0518
  531MOL0     C71587  10.772   6.076   9.864 -0.6564  0.5536 -0.1947
  531MOL0     C71588  10.719   6.197   9.938  0.1617  0.4040 -0.7614
  531MOL0     C71589  10.728   6.322   9.852 -0.2629  0.2077  0.2387
  531MOL0     C71590  10.646   6.453   9.899 -0.1426 -0.1447 -0.5008
  531MOL0     C71591  10.504   6.427   9.929  0.7159 -0.2774  0.2193
  531MOL0     C71592  10.416   6.551   9.904  0.0354  0.4414 -0.4441
  531MOL0     C71593  10.274   6.503   9.877  0.7829 -0.1761  0.3303
  531MOL0    Cl71594  10.187   6.439  10.006 -0.0959  0.4297  0.0866
  531MOL0     C71595  10.616   5.657   9.809  0.9077  0.1134 -0.5982
  531MOL0     C71596  10.488   5.598   9.787 -0.2915  0.3597 -0.6654
  531MOL0     O71597  10.288   5.525   9.597 -0.6748  0.5286  0.2464
  531MOL0     C71598  10.049   5.401   9.584 -0.1908  0.4907 -0.7372
  531MOL0     C71599   9.916   5.347   9.570 -1.2682 -0.6498 -0.1333
  531MOL0     N71600   9.202   5.080   9.502 -0.5439  0.5199 -0.6364
  531MOL0     N71601   9.135   5.049   9.399  0.3526  0.9557  0.1588
  531MOL0     C71602   7.995   4.896   9.026 -0.2072 -0.0480 -0.4148
  531MOL0     C71603   7.958   4.848   8.904 -0.0933  0.6114  0.8057
  531MOL0     C71604   7.626   4.866   8.596  0.1690 -0.0728  0.6469
  531MOL0     C71605   7.533   4.941   8.525 -0.3620  0.3291 -0.1410
  531MOL0     C71606   7.430   4.883   8.460  0.5789  0.6942  0.2563
  531MOL0     C71607   7.425   4.740   8.446  0.5026 -0.9091 -0.3081
  531MOL0     O71608   7.339   4.678   8.365 -0.2051  0.2452  0.4561
  531MOL0     C71609   7.211   4.741   8.352  0.4414 -0.0067  0.1832
  531MOL0     C71610   7.118   4.656   8.264 -0.6640 -0.1642  0.1495
  531MOL0     C71611   7.173   4.659   8.119 -0.0949 -0.4913  0.1114
  531MOL0     C71612   7.080   4.607   8.015 -0.5784  0.3434 -0.0060
  531MOL0     C71613   7.132   4.629   7.876 -0.2497 -0.0134  0.6537
  531MOL0     C71614   7.176   4.639   7.768 -0.5874 -0.0731  0.1530
  531MOL0     C71615   7.530   4.666   8.509  1.0245  0.9268  1.1512
  531MOL0     C71616   7.623   4.725   8.583 -0.4485  0.4513  0.6167
  531MOL0     C71617   7.735   4.641   8.637 -0.7601  0.3609 -0.6410
  531MOL0     H71618   7.917   5.147   8.745  1.9246  1.5389  0.4240
  531MOL0     H71619   8.033   5.222   8.948  0.4080  0.0326  3.0318
  531MOL0     H71620   8.085   5.258   9.150 -1.0089 -1.2609 -2.4503
  531MOL0     H71621   8.186   5.186   9.278 -2.6972 -3.3197  1.1695
  531MOL0     H71622   8.311   5.286   9.068  1.5753 -1.1592  0.2419
  531MOL0     H71623   8.265   5.131   8.988  0.9692 -0.1095 -0.4760
  531MOL0     H71624   8.397   5.000   9.114 -1.8450 -0.7695  2.3180
  531MOL0     H71625   8.380   5.113   9.250  0.2375 -0.5947  0.0761
  531MOL0     H71626   8.535   5.156   8.978  2.3125 -1.2813 -0.6561
  531MOL0     H71627   8.532   5.275   9.110  2.5009 -0.2668 -1.2212
  531MOL0     H71628   8.631   5.103   9.260  2.3672 -1.4319 -0.3352
  531MOL0     H71629   8.648   4.989   9.134  2.4653 -0.6419  2.8884
  531MOL0     H71630   8.821   5.122   9.027  0.2816  0.1562 -0.1175
  531MOL0     H71631   8.775   5.268   9.118 -1.2807  0.6031  2.6204
  531MOL0     H71632   8.880   5.015   9.247 -1.0553 -0.6923 -0.0499
  531MOL0     H71633   8.839   5.162   9.339  3.0908  0.4649 -0.3934
  531MOL0     H71634   9.055   5.145   9.135  0.1579  2.4771 -1.9151
  531MOL0     H71635   8.985   5.292   9.207 -2.2354 -0.7875 -1.8105
  531MOL0     H71636   9.114   5.372   9.385 -0.2369 -0.0610  1.2465
  531MOL0     H71637   9.215   5.385   9.649 -1.4086 -0.6456 -0.4447
  531MOL0     H71638   9.263   5.237   9.721 -0.3120  0.1382 -1.1849
  531MOL0     H71639   9.433   5.408   9.531  1.3371  0.8993  1.8366
  531MOL0     H71640   9.453   5.377   9.701 -0.1826 -0.0525  0.2930
  531MOL0     H71641   9.464   5.153   9.495 -1.4017 -4.0475  3.2700
  531MOL0     H71642   9.497   5.136   9.662 -2.2644 -0.0832  0.5793
  531MOL0     H71643   9.652   5.328   9.468  2.5315  0.4788  1.0589
  531MOL0     H71644   9.719   5.168   9.525  3.8631  1.8855 -1.0408
  531MOL0     H71645   9.794   5.449   9.865 -1.0875  2.0548 -0.7757
  531MOL0     H71646  10.006   5.576   9.880  1.1211 -2.7733  2.2666
  531MOL0     H71647  10.317   5.881   9.856  0.0721 -0.3455 -0.3167
  531MOL0     H71648  10.512   5.969   9.876 -2.5381 -0.6235  2.1002
  531MOL0     H71649  10.713   5.953  10.031 -1.2677 -2.4748 -1.0268
  531MOL0     H71650  10.889   5.937   9.981 -0.4481  0.0128 -2.5994
  531MOL0     H71651  10.864   6.115   9.821 -0.6268  0.2156 -0.4504
  531MOL0     H71652  10.706   6.050   9.781 -0.6688 -0.0889  0.0115
  531MOL0     H71653  10.618   6.175   9.975 -0.1104  0.3517 -1.5192
  531MOL0     H71654  10.776   6.218  10.029  0.3665  2.9750 -1.3851
  531MOL0     H71655  10.710   6.306   9.745 -1.2264  1.6470  0.1664
  531MOL0     H71656  10.834   6.349   9.859 -0.1859 -0.1766  0.5775
  531MOL0     H71657  10.653   6.524   9.815  6.3142 -0.2821 -0.6089
  531MOL0     H71658  10.700   6.505   9.979 -0.6792  1.6801 -1.2758
  531MOL0     H71659  10.469   6.344   9.866 -1.4799 -0.5723  1.7309
  531MOL0     H71660  10.484   6.401  10.034 -2.8118  1.0547  0.0137
  531MOL0     H71661  10.463   6.591   9.813  2.4828 -1.9754 -0.3896
  531MOL0     H71662  10.415   6.623   9.986 -2.5853 -0.0049 -0.0262
  531MOL0     H71663  10.209   6.589   9.859  0.9673 -0.5094 -2.3935
  531MOL0     H71664  10.278   6.434   9.791  1.5952 -0.2458  0.4194
  531MOL0     H71665  10.711   5.606   9.797  2.0829  1.8606  0.8331
  531MOL0     H71666  10.482   5.494   9.758  3.7567 -0.1713 -0.1784
  531MOL0     H71667  10.119   5.384   9.503  3.6397 -1.5042  2.6697
  531MOL0     H71668   9.900   5.296   9.476  0.6210 -1.1028 -0.2648
  531MOL0     H71669   8.024   4.821   9.099  0.4903  0.2095 -0.4169
  531MOL0     H71670   7.949   4.741   8.885 -0.0302  1.1463 -2.8281
  531MOL0     H71671   7.548   5.048   8.519 -2.0369  0.5567 -0.8042
  531MOL0     H71672   7.357   4.954   8.422 -1.0861 -0.3770  1.2691
  531MOL0     H71673   7.213   4.846   8.321 -1.1968  0.0729  0.2363
  531MOL0     H71674   7.160   4.744   8.449 -0.3308 -0.4971 -0.2001
  531MOL0     H71675   7.019   4.699   8.284 -0.2713  0.6440  0.3960
  531MOL0     H71676   7.104   4.554   8.300  0.5570 -0.8421 -1.2053
  531MOL0     H71677   7.270   4.610   8.114  0.8179  1.0912  1.2962
  531MOL0     H71678   7.204   4.760   8.090  2.2224 -1.4670 -1.1200
  531MOL0     H71679   7.064   4.500   8.028  0.2560 -0.0044 -1.5551
  531MOL0     H71680   6.980   4.652   8.014  0.2022  2.2044 -1.1652
  531MOL0     H71681   7.242   4.651   7.685  0.2934  2.6466  1.1348
  531MOL0     H71682   7.535   4.561   8.481  2.4382  1.6218 -1.5499
  531MOL0     H71683   7.723   4.537   8.604 -1.0572  0.3707 -0.5678
  531MOL0     H71684   7.835   4.666   8.600 -0.4075 -2.9685 -2.3320
  531MOL0     H71685   7.725   4.641   8.746 -0.4450  0.8954 -0.6088
  532MOL0     O71686   6.927   8.414   3.024  0.3867 -0.9370  0.5020
  532MOL0     C71687   6.872   8.313   3.071 -0.1068  0.0180  1.6068
  532MOL0     O71688   6.942   8.212   3.136  0.1923  0.9450  0.4211
  532MOL0     C71689   7.071   8.222   3.119 -0.4921  0.4190 -0.3986
  532MOL0     C71690   7.138   8.147   3.018 -1.1948  0.7904  1.0594
  532MOL0     C71691   7.276   8.157   3.005 -0.3143  0.1192 -0.4617
  532MOL0     C71692   7.359   8.236   3.098  0.3499  0.6418  1.2637
  532MOL0     O71693   7.496   8.238   3.114  0.5271  0.5426  0.6503
  532MOL0     C71694   7.576   8.171   3.008 -0.4873  0.0695  0.1013
  532MOL0     C71695   7.718   8.239   2.985  0.1044 -0.0489  0.0275
  532MOL0     C71696   7.808   8.237   3.113  0.4434  0.5300 -1.5426
  532MOL0     C71697   7.936   8.324   3.099 -0.5494  0.6452  0.4578
  532MOL0     C71698   8.041   8.309   3.212 -0.1510 -0.3905 -0.2449
  532MOL0     C71699   8.186   8.346   3.179  0.9352 -0.0799 -1.0278
  532MOL0     C71700   8.275   8.338   3.302  0.2651 -0.3717  0.9306
  532MOL0     C71701   8.407   8.419   3.289  0.2983 -0.7675  0.2541
  532MOL0     N71702   8.499   8.359   3.197  0.6461  0.3321 -0.4558
  532MOL0     C71703   8.623   8.343   3.254  0.2658 -0.1495  0.3167
  532MOL0     C71704   8.707   8.351   3.157 -1.2668  0.3774 -0.1261
  532MOL0     C71705   8.863   8.348   3.164 -0.5769 -0.0722 -0.0505
  532MOL0     C71706   8.914   8.490   3.166  0.1453 -0.1488 -0.5508
  532MOL0     C71707   9.043   8.498   3.242  0.1728 -0.2582  0.3609
  532MOL0     C71708   9.160   8.436   3.158 -0.2290  0.4549  0.1848
  532MOL0     O71709   9.267   8.415   3.238 -0.7203 -0.1643 -0.8973
  532MOL0     C71710   9.388   8.435   3.185  0.4608  0.3016  0.1120
  532MOL0     C71711   9.475   8.528   3.243  0.2618 -0.1488  0.6340
  532MOL0     C71712   9.598   8.542   3.179 -0.3430 -0.2711  0.6839
  532MOL0     C71713   9.642   8.474   3.069 -0.7067 -0.2133 -1.1736
  532MOL0     C71714   9.777   8.486   3.013 -0.1311 -0.3782 -0.2225
  532MOL0     O71715   9.793   8.531   2.889  0.6825 -0.2193  0.2481
  532MOL0     C71716   9.922   8.565   2.850 -1.2380  0.3025  0.2350
  532MOL0     C71717  10.024   8.462   2.822  0.5807  0.2639 -0.2679
  532MOL0     C71718  10.153   8.490   2.778 -0.1439  0.1593  0.5375
  532MOL0     C71719  10.200   8.620   2.778  0.2592  0.7166 -0.7453
  532MOL0     O71720  10.325   8.650   2.733 -0.0671 -0.7840  0.3478
  532MOL0     C71721  10.390   8.775   2.765  0.3767  0.0480  0.0889
  532MOL0     C71722  10.545   8.770   2.740  0.2597  0.0394 -0.1259
  532MOL0     C71723  10.627   8.743   2.867 -0.3187  0.6432  1.1149
  532MOL0     C71724  10.777   8.734   2.823  0.4782  0.3026  0.0822
  532MOL0     C71725  10.870   8.713   2.938 -0.3576  0.2739 -0.9608
  532MOL0     C71726  11.022   8.727   2.899  0.2260  0.4633  0.2621
  532MOL0     C71727  11.108   8.655   3.016 -0.3411 -1.1419 -0.2013
  532MOL0     C71728  11.252   8.626   2.967 -0.5949  0.6796 -0.0646
  532MOL0    Cl71729  11.312   8.755   2.868 -0.7422 -0.1891 -0.2980
  532MOL0     C71730  10.102   8.725   2.809 -0.9256 -0.7107  0.8917
  532MOL0     C71731   9.972   8.695   2.842 -0.0074  0.3353 -0.0141
  532MOL0     O71732   9.870   8.471   3.089 -0.1848  0.8041 -0.2377
  532MOL0     C71733   9.550   8.386   3.003  0.4740  0.9151 -0.1268
  532MOL0     C71734   9.427   8.360   3.076  0.5167 -0.1859  0.2571
  532MOL0     N71735   8.632   8.358   3.037 -0.3034  0.8676  0.3425
  532MOL0     N71736   8.506   8.367   3.059 -0.6762 -0.4329 -0.1822
  532MOL0     C71737   7.284   8.303   3.199 -0.4942  0.3639  0.0142
  532MOL0     C71738   7.142   8.298   3.212  0.2249 -0.7232 -0.2606
  532MOL0     C71739   6.727   8.295   3.061  0.7018 -1.4841 -0.7780
  532MOL0     C71740   6.672   8.177   3.119  0.4005  0.0219  0.6294
  532MOL0     C71741   6.548   8.129   3.083  0.1851 -0.5765 -0.6650
  532MOL0     C71742   6.474   8.203   2.996  0.4843 -0.9209  0.1994
  532MOL0     O71743   6.349   8.171   2.937  0.4670  0.9044 -0.3459
  532MOL0     C71744   6.278   8.067   3.002  0.7148  0.1500 -0.3540
  532MOL0     C71745   6.133   8.070   2.969 -0.3539  0.9220  0.1283
  532MOL0     C71746   6.065   8.184   3.034 -0.1161  0.1676 -0.3960
  532MOL0     C71747   5.910   8.174   3.030  0.1163  0.2941 -0.2506
  532MOL0     C71748   5.846   8.301   3.072 -0.1934  0.0231  0.5359
  532MOL0     C71749   5.782   8.399   3.091  0.3481  0.5014  1.5535
  532MOL0     C71750   6.521   8.329   2.953 -0.7317 -0.2815 -0.1711
  532MOL0     C71751   6.639   8.389   3.001 -0.7245 -0.4033  0.2527
  532MOL0     C71752   6.677   8.522   2.940 -0.2521  0.3434 -0.8783
  532MOL0     H71753   7.082   8.087   2.947 -0.0704  0.3288  0.5408
  532MOL0     H71754   7.324   8.098   2.928  1.2137 -0.9286  1.2016
  532MOL0     H71755   7.598   8.068   3.038  0.6282 -0.0878 -1.1834
  532MOL0     H71756   7.519   8.167   2.915 -2.0838 -4.9386  0.9807
  532MOL0     H71757   7.696   8.346   2.973 -0.4902  0.0021  1.4390
  532MOL0     H71758   7.769   8.189   2.902  3.2288 -0.6735  2.1502
  532MOL0     H71759   7.840   8.135   3.135  0.7021  0.6969 -1.1333
  532MOL0     H71760   7.759   8.282   3.200 -1.3610 -1.4181 -1.4997
  532MOL0     H71761   7.980   8.296   3.003  1.4585  0.2811  1.4393
  532MOL0     H71762   7.902   8.427   3.081 -0.0657  0.8801  0.8467
  532MOL0     H71763   8.013   8.374   3.295  0.0933  0.0967 -0.5404
  532MOL0     H71764   8.040   8.203   3.240  0.1035 -0.6082 -1.0192
  532MOL0     H71765   8.208   8.283   3.093 -1.5014 -0.5514 -1.3741
  532MOL0     H71766   8.183   8.453   3.154  2.5928 -0.0829 -1.3479
  532MOL0     H71767   8.287   8.234   3.335 -0.6237 -0.5909  0.5968
  532MOL0     H71768   8.211   8.382   3.380 -2.1544 -1.8441 -0.1078
  532MOL0     H71769   8.391   8.522   3.256  0.5936 -0.4141  1.1827
  532MOL0     H71770   8.455   8.431   3.386  0.8085 -2.5756  0.2602
  532MOL0     H71771   8.651   8.336   3.359 -1.3568 -1.2232  0.7207
  532MOL0     H71772   8.891   8.278   3.242 -2.2453 -1.2948 -0.4831
  532MOL0     H71773   8.897   8.291   3.077 -1.4605 -0.7589  0.0308
  532MOL0     H71774   8.919   8.524   3.062  0.8353 -4.3269 -2.0722
  532MOL0     H71775   8.846   8.552   3.225 -1.5653 -1.1144 -1.4305
  532MOL0     H71776   9.026   8.447   3.337 -0.6045 -0.8755 -0.0960
  532MOL0     H71777   9.074   8.602   3.251 -0.6269  0.0504 -0.2776
  532MOL0     H71778   9.186   8.502   3.075  0.1629  2.1789  1.6061
  532MOL0     H71779   9.134   8.335   3.124 -1.7792  1.8792 -3.2887
  532MOL0     H71780   9.452   8.570   3.340  1.1637 -0.5279  1.0234
  532MOL0     H71781   9.676   8.611   3.209 -2.7843  3.2680 -0.4770
  532MOL0     H71782   9.993   8.360   2.843 -1.7594  0.7792 -0.9273
  532MOL0     H71783  10.222   8.419   2.734 -1.7966  0.7111 -3.3669
  532MOL0     H71784  10.344   8.844   2.694  2.0757 -1.5297 -2.7501
  532MOL0     H71785  10.377   8.799   2.871  4.7047 -0.5919  0.9539
  532MOL0     H71786  10.554   8.685   2.672 -0.6172  2.4469 -3.4616
  532MOL0     H71787  10.582   8.860   2.690 -1.3089 -0.8068 -3.0487
  532MOL0     H71788  10.610   8.819   2.943  2.1633  0.2333  2.1861
  532MOL0     H71789  10.607   8.643   2.906 -0.1584  1.6172  3.9101
  532MOL0     H71790  10.799   8.830   2.776  2.3889  3.1960  5.9294
  532MOL0     H71791  10.793   8.653   2.750  0.3153  0.3177  0.0281
  532MOL0     H71792  10.858   8.610   2.972 -0.8461  0.6883  0.1793
  532MOL0     H71793  10.854   8.777   3.025  4.7787 -0.3175  0.7133
  532MOL0     H71794  11.047   8.695   2.798 -0.0752 -0.1302  0.3697
  532MOL0     H71795  11.041   8.834   2.902 -1.7366  0.8511  0.2832
  532MOL0     H71796  11.064   8.575   3.076  3.0134 -1.5832  1.9046
  532MOL0     H71797  11.120   8.733   3.091 -0.4676 -2.8079  1.6195
  532MOL0     H71798  11.323   8.624   3.049 -1.7976  0.1390  0.9963
  532MOL0     H71799  11.270   8.533   2.913  0.3588 -0.5177  2.1980
  532MOL0     H71800  10.123   8.831   2.801  0.4103 -0.7105  3.4573
  532MOL0     H71801   9.895   8.772   2.851 -1.0752 -0.5093 -1.4981
  532MOL0     H71802   9.578   8.340   2.908 -3.2619 -0.9419 -0.5229
  532MOL0     H71803   9.365   8.280   3.037  0.1955  0.3613 -0.3761
  532MOL0     H71804   7.350   8.355   3.268  1.1087  1.4913 -2.2607
  532MOL0     H71805   7.087   8.359   3.282 -3.4700 -0.0637 -3.4089
  532MOL0     H71806   6.737   8.113   3.178  0.7565 -0.4029 -0.2079
  532MOL0     H71807   6.525   8.032   3.127  0.2630 -0.8257 -1.1668
  532MOL0     H71808   6.285   8.071   3.111 -2.2661 -2.3125  0.0773
  532MOL0     H71809   6.320   7.973   2.964 -3.6436 -1.5528 -1.6086
  532MOL0     H71810   6.094   7.979   3.015  0.9445  0.1334 -0.2785
  532MOL0     H71811   6.112   8.065   2.862  0.9178 -1.0467 -0.0717
  532MOL0     H71812   6.094   8.281   2.992 -1.1779 -0.3099 -2.3698
  532MOL0     H71813   6.095   8.191   3.139 -2.3704  2.3330  0.2055
  532MOL0     H71814   5.880   8.156   2.927 -2.5234  0.7755  0.3470
  532MOL0     H71815   5.874   8.097   3.100  1.4405 -0.4512 -0.3658
  532MOL0     H71816   5.713   8.478   3.112 -0.5377 -0.2429  1.5168
  532MOL0     H71817   6.456   8.394   2.894 -2.7384  0.5197  2.6600
  532MOL0     H71818   6.730   8.515   2.844  1.4661  3.7377 -0.3405
  532MOL0     H71819   6.586   8.579   2.921 -1.5857 -1.9746 -1.8295
  532MOL0     H71820   6.739   8.577   3.011 -1.6665  0.4159  0.3490
  533MOL0     O71821   5.782   9.908  10.621  0.5953  0.1851 -0.3147
  533MOL0     C71822   5.873   9.976  10.597 -0.2611 -0.4031 -0.0837
  533MOL0     O71823   5.878  10.066  10.502 -0.2232 -0.3099 -0.9935
  533MOL0     C71824   5.771  10.059  10.423  0.8742  0.8868  0.3471
  533MOL0     C71825   5.784   9.977  10.308  0.6007  0.3090 -0.3187
  533MOL0     C71826   5.668   9.974  10.226 -0.8869 -0.0796  0.1968
  533MOL0     C71827   5.549  10.049  10.244 -0.7622  0.4274 -0.2719
  533MOL0     O71828   5.438  10.026  10.164 -0.3851 -0.1101 -0.0040
  533MOL0     C71829   5.316  10.092  10.192  0.1967  0.3623  0.3022
  533MOL0     C71830   5.315  10.232  10.123 -0.0015 -0.2139 -0.1549
  533MOL0     C71831   5.170  10.285  10.100  0.3074 -0.2003  0.9866
  533MOL0     C71832   5.067  10.184  10.061  0.5394  0.0967  0.2277
  533MOL0     C71833   5.087  10.122   9.927 -0.1515 -0.2672 -0.6356
  533MOL0     C71834   4.956  10.052   9.873 -0.4494 -0.3985  0.4952
  533MOL0     C71835   4.977   9.974   9.744 -0.1440 -1.5191  0.2339
  533MOL0     C71836   4.932  10.050   9.622  0.3336  0.0854  0.0941
  533MOL0     N71837   4.910   9.964   9.511 -0.0625  0.0615  0.2355
  533MOL0     C71838   4.991   9.859   9.474 -0.1233  0.2901 -0.4978
  533MOL0     C71839   4.940   9.810   9.363 -0.2190  0.3470  0.1794
  533MOL0     C71840   4.995   9.684   9.285  0.7588  0.4270 -0.0661
  533MOL0     C71841   4.901   9.648   9.162  0.2123  0.5892  0.4283
  533MOL0     C71842   4.908   9.760   9.060  0.6740  0.3647 -0.7385
  533MOL0     C71843   4.769   9.799   9.014 -0.4097  0.0086 -0.3360
  533MOL0     O71844   4.786   9.920   8.948  0.2763  0.7913  0.5328
  533MOL0     C71845   4.673   9.954   8.881  0.9320  0.5745  0.7521
  533MOL0     C71846   4.537   9.909   8.910  0.0750 -0.6448  0.0816
  533MOL0     C71847   4.434   9.959   8.831 -0.2632 -0.7754 -0.0646
  533MOL0     C71848   4.462  10.051   8.720  0.9740  0.1453 -0.3220
  533MOL0     C71849   4.347  10.089   8.632  0.0601  0.5053 -0.1601
  533MOL0     O71850   4.222  10.041   8.665 -0.3757  0.1760  0.4385
  533MOL0     C71851   4.101  10.098   8.620  0.6136  0.1969 -0.4806
  533MOL0     C71852   3.982  10.072   8.692 -0.6305  0.0335 -0.3557
  533MOL0     C71853   3.856  10.094   8.650  0.2197 -0.0679 -0.2943
  533MOL0     C71854   3.841  10.177   8.536  0.4316  0.0212 -0.2502
  533MOL0     O71855   3.710  10.211   8.505  0.0332 -0.5218 -0.2912
  533MOL0     C71856   3.682  10.302   8.399  0.4803 -0.6141  0.3302
  533MOL0     C71857   3.539  10.291   8.349  1.0582  0.1780 -0.3415
  533MOL0     C71858   3.523  10.177   8.245 -0.5081  0.0150  0.3706
  533MOL0     C71859   3.378  10.156   8.209  0.7783  0.4930  0.2232
  533MOL0     C71860   3.384  10.028   8.115  0.4593  1.0113 -0.1973
  533MOL0     C71861   3.241   9.988   8.065  0.7527 -0.3060  0.2678
  533MOL0     C71862   3.238   9.879   7.963 -1.0127  0.3356 -0.3040
  533MOL0     C71863   3.106   9.887   7.898  0.0359 -0.0091  0.1081
  533MOL0    Cl71864   2.975   9.869   8.009  0.2862 -0.4277  0.0822
  533MOL0     C71865   3.957  10.220   8.467 -0.7333 -0.2375 -0.0557
  533MOL0     C71866   4.082  10.185   8.513 -0.0055  0.5215  0.4798
  533MOL0     O71867   4.376  10.153   8.530  0.8744 -0.2759 -0.1467
  533MOL0     C71868   4.589  10.088   8.699  0.0328  0.3374  0.1759
  533MOL0     C71869   4.696  10.032   8.770  1.0428 -1.1535 -1.2494
  533MOL0     N71870   4.832   9.882   9.326  0.3097  0.4405  0.0624
  533MOL0     N71871   4.817   9.980   9.412  0.0307  0.6584 -0.3495
  533MOL0     C71872   5.550  10.138  10.353  0.2524 -0.3438 -0.1054
  533MOL0     C71873   5.655  10.139  10.442 -0.2136 -0.0715  0.2611
  533MOL0     C71874   5.998   9.958  10.673  0.2561 -0.5746 -0.1026
  533MOL0     C71875   6.113   9.952  10.593 -0.4780 -0.9207  0.0360
  533MOL0     C71876   6.242   9.954  10.652 -0.0573  0.4732  0.1565
  533MOL0     C71877   6.256   9.946  10.795  0.1785 -0.1712  0.2475
  533MOL0     O71878   6.377   9.934  10.866 -0.0464  0.2262  0.3150
  533MOL0     C71879   6.498   9.982  10.797  1.8414  0.9593  0.1303
  533MOL0     C71880   6.603   9.973  10.895 -0.6349  0.1871 -0.5353
  533MOL0     C71881   6.648   9.827  10.916  0.0141 -0.0996  0.3160
  533MOL0     C71882   6.751   9.830  11.028 -0.5213 -0.1788 -1.0161
  533MOL0     C71883   6.804   9.692  11.048 -0.1179 -0.1275  0.3791
  533MOL0     C71884   6.843   9.582  11.068 -0.5517  0.0205  0.0977
  533MOL0     C71885   6.143   9.946  10.866 -0.0941  0.1448 -0.6759
  533MOL0     C71886   6.014   9.948  10.809 -0.0667  0.0703 -0.2869
  533MOL0     C71887   5.907   9.927  10.906  0.1787 -0.2684  0.1496
  533MOL0     H71888   5.867   9.908  10.300 -1.0539 -1.9188  0.5460
  533MOL0     H71889   5.669   9.916  10.135  0.7510 -1.3356  0.9531
  533MOL0     H71890   5.228  10.033  10.165  0.0625  1.0706 -0.8936
  533MOL0     H71891   5.296  10.114  10.297  1.5352  1.8678  0.2786
  533MOL0     H71892   5.382  10.227  10.037  0.9574  1.5478  0.4643
  533MOL0     H71893   5.362  10.307  10.186  0.3948  1.2615 -2.0950
  533MOL0     H71894   5.173  10.374  10.037 -2.5763  0.0007  0.9842
  533MOL0     H71895   5.148  10.335  10.195  1.8795 -2.0477  2.4141
  533MOL0     H71896   5.048  10.114  10.143 -0.7305  1.5061  1.1784
  533MOL0     H71897   4.975  10.244  10.056  0.6846  0.2740 -0.3753
  533MOL0     H71898   5.122  10.197   9.856  0.5650  0.1071  0.0974
  533MOL0     H71899   5.175  10.057   9.933 -0.6872 -0.9473  0.1669
  533MOL0     H71900   4.917   9.975   9.941 -1.5846  0.9735  1.4600
  533MOL0     H71901   4.880  10.129   9.862 -0.7718 -0.9778 -1.6974
  533MOL0     H71902   4.907   9.890   9.746 -1.9494 -0.0732  1.8854
  533MOL0     H71903   5.080   9.944   9.724 -0.1445 -1.0052 -0.6082
  533MOL0     H71904   4.835  10.093   9.649 -0.7086 -2.6479  0.9720
  533MOL0     H71905   4.997  10.136   9.604 -0.5733  1.2305  1.9438
  533MOL0     H71906   5.071   9.809   9.528 -1.4021 -0.6565  0.6119
  533MOL0     H71907   5.098   9.695   9.252  0.0260  3.8995 -1.5944
  533MOL0     H71908   4.990   9.603   9.359  2.6317  0.3800  0.0507
  533MOL0     H71909   4.939   9.558   9.112 -4.8867 -1.7476  0.1682
  533MOL0     H71910   4.799   9.624   9.193  0.2796 -1.5255 -0.7363
  533MOL0     H71911   4.957   9.724   8.969 -1.5368 -0.8629 -1.5284
  533MOL0     H71912   4.959   9.848   9.098 -0.3074  1.3820 -1.7170
  533MOL0     H71913   4.712   9.829   9.102  0.0733  3.3933 -1.0269
  533MOL0     H71914   4.725   9.726   8.946  0.2341 -1.4951  0.8020
  533MOL0     H71915   4.515   9.834   8.986 -1.0237 -0.6223 -0.1994
  533MOL0     H71916   4.332   9.928   8.853  0.4657 -0.9538  3.6221
  533MOL0     H71917   3.990  10.025   8.790  0.6215  0.8758 -0.0345
  533MOL0     H71918   3.769  10.067   8.710 -0.3346  1.7698 -0.2234
  533MOL0     H71919   3.699  10.402   8.438 -1.6771 -0.4044  0.8205
  533MOL0     H71920   3.756  10.289   8.319 -0.8167 -3.4989 -0.5499
  533MOL0     H71921   3.473  10.279   8.435  0.2182  0.1897 -0.9770
  533MOL0     H71922   3.510  10.390   8.313 -0.4206  0.3648  1.2408
  533MOL0     H71923   3.588  10.191   8.158 -1.5183  3.3375 -0.0067
  533MOL0     H71924   3.553  10.087   8.299  3.6813  2.0331  1.8852
  533MOL0     H71925   3.324  10.240   8.163  0.2833 -0.5761 -1.2173
  533MOL0     H71926   3.322  10.139   8.302 -2.5938 -0.4545 -1.7925
  533MOL0     H71927   3.424   9.943   8.171  0.8695  1.2953 -0.0483
  533MOL0     H71928   3.450  10.041   8.029  1.4902 -2.4095 -0.0576
  533MOL0     H71929   3.184   9.967   8.156  0.7934  1.1928  0.6689
  533MOL0     H71930   3.196  10.077   8.019 -0.4599  0.3495  2.5907
  533MOL0     H71931   3.247   9.789   8.024  0.1866  1.7684  1.7572
  533MOL0     H71932   3.323   9.891   7.894  0.7442  0.0455  1.7009
  533MOL0     H71933   3.097   9.979   7.839  1.9438 -0.9402 -1.8121
  533MOL0     H71934   3.103   9.806   7.825  4.8046 -0.7621  0.4060
  533MOL0     H71935   3.948  10.284   8.379 -2.8972  1.3256  1.1892
  533MOL0     H71936   4.167  10.232   8.463  1.1066 -1.2892  0.5857
  533MOL0     H71937   4.599  10.155   8.614  0.3211  0.6902  0.4765
  533MOL0     H71938   4.803  10.051   8.762  0.7679  1.8214  0.5540
  533MOL0     H71939   5.463  10.201  10.368 -1.0267 -2.4054  1.6677
  533MOL0     H71940   5.651  10.190  10.538  1.1747  0.1340  0.2317
  533MOL0     H71941   6.099   9.966  10.487 -1.3055  0.1695  0.2721
  533MOL0     H71942   6.337   9.957  10.599 -0.2485  2.7628 -0.1623
  533MOL0     H71943   6.482  10.087  10.773 -2.5854  0.6852  1.0179
  533MOL0     H71944   6.522   9.911  10.717  0.0162  0.2786  0.1476
  533MOL0     H71945   6.571  10.019  10.988 -0.4139 -0.5586 -0.0828
  533MOL0     H71946   6.688  10.028  10.853  0.6381 -0.4313  1.1396
  533MOL0     H71947   6.690   9.787  10.824 -0.0095  3.2253 -1.2872
  533MOL0     H71948   6.564   9.770  10.957 -1.0818 -0.1282 -1.8325
  533MOL0     H71949   6.836   9.888  10.991 -0.4236 -0.4013 -1.1412
  533MOL0     H71950   6.705   9.865  11.121 -1.0628  0.9556 -1.6796
  533MOL0     H71951   6.897   9.490  11.054  0.5617  0.7305 -0.4182
  533MOL0     H71952   6.151   9.937  10.974 -3.6024 -2.2426 -0.4428
  533MOL0     H71953   5.937   9.851  10.978 -0.4487 -2.7613 -2.0558
  533MOL0     H71954   5.881  10.023  10.951  1.1515  1.8187 -3.3375
  533MOL0     H71955   5.815   9.886  10.862  0.7297  0.9236 -2.3198
  534MOL0     O71956   1.662   2.861   1.097 -0.6108  0.1025  0.2488
  534MOL0     C71957   1.627   2.806   0.990  0.5154 -0.1970  0.0752
  534MOL0     O71958   1.705   2.770   0.889 -0.5249 -0.3913  0.7040
  534MOL0     C71959   1.842   2.781   0.911  0.1195  0.0118 -0.3759
  534MOL0     C71960   1.919   2.883   0.849  0.5483 -0.2568 -0.5631
  534MOL0     C71961   2.054   2.888   0.885 -0.4479  1.0921  0.2839
  534MOL0     C71962   2.111   2.799   0.978  0.1307 -0.9430 -0.6342
  534MOL0     O71963   2.241   2.809   1.023  0.1901 -0.0386 -0.4908
  534MOL0     C71964   2.323   2.919   0.983 -0.4763 -0.7039  0.2792
  534MOL0     C71965   2.469   2.901   1.044 -0.6583  0.9008  0.3973
  534MOL0     C71966   2.569   2.988   0.958  0.2210 -0.0320 -0.7977
  534MOL0     C71967   2.708   2.980   1.012 -0.4211  0.0336 -0.4106
  534MOL0     C71968   2.709   3.032   1.150  0.5826 -0.5371 -0.2990
  534MOL0     C71969   2.844   3.102   1.194  0.8478  0.4649 -0.4000
  534MOL0     C71970   2.844   3.137   1.336 -0.5212 -0.7952 -0.0143
  534MOL0     C71971   2.762   3.264   1.367 -0.6158  0.3632  0.0045
  534MOL0     N71972   2.804   3.405   1.324 -0.2180  0.1855  0.4030
  534MOL0     C71973   2.823   3.453   1.198 -0.2512  0.0580  0.3063
  534MOL0     C71974   2.829   3.587   1.214  0.0948 -0.3625  0.1030
  534MOL0     C71975   2.839   3.680   1.099  0.2889  0.0577  0.1007
  534MOL0     C71976   2.944   3.644   1.003  0.4911 -1.0301 -0.0894
  534MOL0     C71977   2.936   3.719   0.870  0.8507 -0.1702  0.9022
  534MOL0     C71978   3.055   3.688   0.774 -0.7243  0.4821 -0.3223
  534MOL0     O71979   3.172   3.737   0.845  0.8353 -0.2309  0.4343
  534MOL0     C71980   3.289   3.672   0.814 -0.3068 -1.1069  0.3690
  534MOL0     C71981   3.411   3.711   0.875  0.2700 -0.0101 -0.3760
  534MOL0     C71982   3.525   3.645   0.850 -1.0250 -0.5082  0.0723
  534MOL0     C71983   3.539   3.546   0.751  0.1737 -0.4100 -0.8298
  534MOL0     C71984   3.672   3.480   0.723  0.0557  0.8734 -0.5253
  534MOL0     O71985   3.775   3.507   0.809 -0.3955  0.4792  0.2243
  534MOL0     C71986   3.891   3.436   0.808  0.6329 -0.3693  0.4699
  534MOL0     C71987   3.960   3.385   0.699  0.0038 -0.5325 -0.2340
  534MOL0     C71988   4.083   3.318   0.710  0.3529  0.5213 -0.0965
  534MOL0     C71989   4.135   3.289   0.841  0.1496  1.2641  0.3870
  534MOL0     O71990   4.249   3.210   0.873  0.6259  0.6510 -0.1734
  534MOL0     C71991   4.335   3.173   0.774 -0.3570  0.2729 -0.2058
  534MOL0     C71992   4.450   3.280   0.764  0.2063 -0.0528  0.1029
  534MOL0     C71993   4.402   3.410   0.714  0.0986  0.3939 -0.3156
  534MOL0     C71994   4.497   3.525   0.693 -0.4694  0.3686  0.4614
  534MOL0     C71995   4.430   3.646   0.623  0.4529  0.1841 -0.6176
  534MOL0     C71996   4.388   3.629   0.479 -0.1338 -0.4843 -0.7760
  534MOL0     C71997   4.504   3.602   0.377  0.2907 -0.5186  0.0385
  534MOL0     C71998   4.568   3.736   0.330 -0.3717 -0.0556 -0.1886
  534MOL0    Cl71999   4.671   3.705   0.191 -0.0669 -0.2457  0.2378
  534MOL0     C72000   4.056   3.329   0.958 -0.2346 -0.2932 -0.3032
  534MOL0     C72001   3.942   3.404   0.938 -0.3012 -0.6056  0.2545
  534MOL0     O72002   3.672   3.389   0.640  1.6688  0.3393 -0.4607
  534MOL0     C72003   3.418   3.513   0.683 -0.0612 -0.3498 -0.1739
  534MOL0     C72004   3.296   3.581   0.711 -0.4573  0.2379 -0.0508
  534MOL0     N72005   2.839   3.620   1.349  0.4319  0.0789  0.1834
  534MOL0     N72006   2.820   3.510   1.415 -0.0702  0.0122 -1.0978
  534MOL0     C72007   2.034   2.699   1.038  0.1564 -0.2006 -0.9256
  534MOL0     C72008   1.901   2.685   0.996 -0.4163 -0.3010 -0.0010
  534MOL0     C72009   1.478   2.802   0.962  0.4208  0.3120 -0.0190
  534MOL0     C72010   1.385   2.743   1.057  0.4803  0.1582  0.3609
  534MOL0     C72011   1.249   2.736   1.052  0.4601 -0.5247  0.1686
  534MOL0     C72012   1.191   2.790   0.936  0.0484  0.4543 -0.5150
  534MOL0     O72013   1.055   2.783   0.914  0.0898  0.7413 -0.7261
  534MOL0     C72014   0.985   2.687   0.993 -0.1134  0.0221  0.0333
  534MOL0     C72015   0.839   2.671   0.967  0.2263  0.4108  0.6069
  534MOL0     C72016   0.787   2.742   0.838  0.0576 -0.7821 -0.6615
  534MOL0     C72017   0.633   2.769   0.857 -0.0272 -0.0765 -0.4003
  534MOL0     C72018   0.560   2.644   0.876 -0.3416  0.6282  0.1386
  534MOL0     C72019   0.475   2.557   0.887  0.3285 -0.1015 -0.5319
  534MOL0     C72020   1.265   2.859   0.839  0.4247  0.5154 -0.0183
  534MOL0     C72021   1.409   2.864   0.847 -0.3021 -0.4697  0.1322
  534MOL0     C72022   1.489   2.929   0.732  0.4393  0.1441  0.2122
  534MOL0     H72023   1.880   2.936   0.763 -1.2371 -2.9481 -1.5502
  534MOL0     H72024   2.117   2.959   0.833  0.4042  2.5668  3.1295
  534MOL0     H72025   2.341   2.929   0.875  0.7066 -1.4442  0.3842
  534MOL0     H72026   2.284   3.014   1.019  3.6787  0.9149  1.0785
  534MOL0     H72027   2.493   2.795   1.030  0.8317  0.5530  4.4293
  534MOL0     H72028   2.474   2.929   1.149  1.5806  2.7406 -0.1097
  534MOL0     H72029   2.532   3.091   0.964 -0.6338 -0.2734 -1.6911
  534MOL0     H72030   2.564   2.961   0.852 -0.0067 -2.9706 -0.1063
  534MOL0     H72031   2.756   2.882   1.003  1.2531  0.8093 -0.3249
  534MOL0     H72032   2.772   3.050   0.958  1.6070 -1.1236  0.3685
  534MOL0     H72033   2.633   3.105   1.180  2.8499  0.7532  2.9121
  534MOL0     H72034   2.697   2.951   1.222  0.0686 -0.1362  0.0815
  534MOL0     H72035   2.920   3.024   1.178 -1.9022 -2.8124  1.2770
  534MOL0     H72036   2.873   3.186   1.130  4.0655 -0.4445 -0.3546
  534MOL0     H72037   2.948   3.151   1.368 -1.3097  4.3578  1.1589
  534MOL0     H72038   2.808   3.053   1.397 -0.6348  1.0264  2.5616
  534MOL0     H72039   2.663   3.250   1.323  0.1931  0.7286 -2.0624
  534MOL0     H72040   2.740   3.269   1.474 -0.7219  2.4122 -0.0569
  534MOL0     H72041   2.842   3.392   1.111 -1.1769 -2.1655  1.5669
  534MOL0     H72042   2.743   3.705   1.052  1.0359  0.0948 -1.4820
  534MOL0     H72043   2.862   3.778   1.143 -0.2926 -1.4086  4.0425
  534MOL0     H72044   3.036   3.658   1.058 -1.2084  1.7808  2.2900
  534MOL0     H72045   2.940   3.536   0.982 -0.1097 -0.9689 -0.3374
  534MOL0     H72046   2.934   3.829   0.875  2.3474 -0.0591 -0.1211
  534MOL0     H72047   2.846   3.697   0.812  1.6941  0.4896 -0.7200
  534MOL0     H72048   3.045   3.748   0.683  0.6676  1.1835 -0.0399
  534MOL0     H72049   3.043   3.580   0.765 -3.3914  0.5862  0.9492
  534MOL0     H72050   3.404   3.791   0.948  2.8396  1.5431 -1.7087
  534MOL0     H72051   3.611   3.672   0.911 -1.7843  2.0247  0.1481
  534MOL0     H72052   3.922   3.403   0.599 -0.1583 -1.1890 -0.2967
  534MOL0     H72053   4.147   3.297   0.625  1.5379 -1.9958  1.2784
  534MOL0     H72054   4.376   3.081   0.816 -0.8673  0.4549  0.7052
  534MOL0     H72055   4.301   3.142   0.674  0.5724  0.9873 -0.7510
  534MOL0     H72056   4.495   3.297   0.862 -0.9416 -3.9313  1.4955
  534MOL0     H72057   4.529   3.244   0.698 -0.2145 -0.2672 -0.2884
  534MOL0     H72058   4.349   3.389   0.621 -0.0057 -2.0377  0.2137
  534MOL0     H72059   4.332   3.452   0.787  0.5891  1.4588 -0.4371
  534MOL0     H72060   4.587   3.491   0.642 -1.9118 -1.5799 -0.9482
  534MOL0     H72061   4.520   3.566   0.791  1.4150 -0.5571  0.4441
  534MOL0     H72062   4.504   3.725   0.636  2.1039 -1.5152  0.9158
  534MOL0     H72063   4.338   3.665   0.680  1.8162 -2.4047  2.8150
  534MOL0     H72064   4.313   3.549   0.482 -0.4235 -0.2762 -2.0482
  534MOL0     H72065   4.325   3.710   0.444  0.2008 -1.0724 -2.9028
  534MOL0     H72066   4.465   3.553   0.287  2.2041 -0.9055 -0.6302
  534MOL0     H72067   4.581   3.538   0.421  1.4337  1.4481  1.0135
  534MOL0     H72068   4.493   3.810   0.302  2.4202  4.2117  2.4693
  534MOL0     H72069   4.622   3.786   0.411  0.5051  3.1947 -2.5835
  534MOL0     H72070   4.088   3.298   1.057  0.5353 -0.2350 -0.5265
  534MOL0     H72071   3.877   3.434   1.020 -0.4769  0.8978 -0.4100
  534MOL0     H72072   3.413   3.445   0.599 -3.3901  0.2278 -0.5871
  534MOL0     H72073   3.217   3.541   0.649  0.0925 -0.2635 -0.4476
  534MOL0     H72074   2.074   2.626   1.107  2.0799  1.9940  0.4223
  534MOL0     H72075   1.841   2.604   1.037  1.0747 -1.0069  0.8681
  534MOL0     H72076   1.426   2.712   1.153 -1.7499 -2.7031  0.5096
  534MOL0     H72077   1.192   2.705   1.139 -1.6679  1.0764 -0.5804
  534MOL0     H72078   0.998   2.701   1.101 -0.8195 -0.1612  0.1463
  534MOL0     H72079   1.034   2.593   0.969  0.9017  0.9746 -1.8088
  534MOL0     H72080   0.781   2.710   1.051  0.2826  0.2785  0.7081
  534MOL0     H72081   0.805   2.567   0.959 -3.9666  1.4156  2.6035
  534MOL0     H72082   0.789   2.673   0.754  3.1678 -1.4808 -0.1294
  534MOL0     H72083   0.836   2.840   0.829  0.7630 -0.9520  1.0348
  534MOL0     H72084   0.611   2.835   0.941  1.2647  1.2421 -1.0649
  534MOL0     H72085   0.588   2.823   0.774 -0.6316 -1.6984 -1.1728
  534MOL0     H72086   0.402   2.479   0.893  1.4058 -1.1845 -1.1257
  534MOL0     H72087   1.198   2.885   0.758  1.7929  2.0790 -0.7030
  534MOL0     H72088   1.553   3.012   0.764  0.2554 -0.7434  3.2088
  534MOL0     H72089   1.548   2.841   0.704 -0.3866 -1.5740  3.3744
  534MOL0     H72090   1.419   2.960   0.653  1.4667 -0.3532 -0.9295
  535MOL0     O72091   7.835   8.370  11.161  0.1261  0.0995 -0.0947
  535MOL0     C72092   7.770   8.423  11.248  0.0962 -0.0108 -0.4391
  535MOL0     O72093   7.817   8.427  11.375 -0.6571 -0.6181  0.0985
  535MOL0     C72094   7.944   8.396  11.400 -0.8399  0.5982  0.7999
  535MOL0     C72095   7.971   8.285  11.481 -0.1947  0.5122  0.8923
  535MOL0     C72096   8.100   8.251  11.521  0.1372  0.1044 -0.7693
  535MOL0     C72097   8.203   8.340  11.485 -0.4787  0.2605  0.8181
  535MOL0     O72098   8.335   8.336  11.521  0.1046 -0.0993  0.0960
  535MOL0     C72099   8.394   8.208  11.533  0.3650 -0.3336 -0.6972
  535MOL0     C72100   8.549   8.220  11.550  1.2038  0.5036 -0.2794
  535MOL0     C72101   8.625   8.085  11.570  0.3939  0.9928  1.3070
  535MOL0     C72102   8.776   8.112  11.564  0.1257 -0.3442  0.6248
  535MOL0     C72103   8.863   7.982  11.578 -0.0912 -0.9301  0.1176
  535MOL0     C72104   8.826   7.898  11.703  0.0848  0.2884  0.8627
  535MOL0     C72105   8.914   7.773  11.725  0.4175  0.0732  0.0478
  535MOL0     C72106   8.907   7.676  11.607  0.1743 -0.0465 -0.2126
  535MOL0     N72107   8.780   7.633  11.573 -0.8458 -0.4267 -0.6107
  535MOL0     C72108   8.731   7.616  11.438  0.1825  0.4885  0.6544
  535MOL0     C72109   8.616   7.549  11.448 -0.7288  0.6646 -0.6864
  535MOL0     C72110   8.524   7.494  11.348 -0.0175  0.1227 -0.4006
  535MOL0     C72111   8.453   7.597  11.255  0.1657 -0.1350 -0.7772
  535MOL0     C72112   8.372   7.705  11.329 -0.1675  0.6182  0.5494
  535MOL0     C72113   8.262   7.658  11.422  0.5123 -0.1356 -0.8070
  535MOL0     O72114   8.193   7.771  11.483  0.3516 -0.3141  0.2392
  535MOL0     C72115   8.218   7.815  11.611 -0.4135  0.8771 -0.2553
  535MOL0     C72116   8.130   7.883  11.697 -0.1143  0.7797 -0.2335
  535MOL0     C72117   8.168   7.928  11.823  0.4204 -0.4028  0.8021
  535MOL0     C72118   8.302   7.931  11.863  0.1904  0.9279 -0.1664
  535MOL0     C72119   8.342   7.985  11.997 -1.2884  0.3445 -0.4912
  535MOL0     O72120   8.238   8.008  12.080  0.6097 -0.1805 -0.8421
  535MOL0     C72121   8.254   8.050  12.208 -0.4981  0.5816  0.2296
  535MOL0     C72122   8.176   7.988  12.301  1.0904  0.3424 -0.3153
  535MOL0     C72123   8.185   8.013  12.440 -0.4861 -0.2756 -0.4750
  535MOL0     C72124   8.271   8.114  12.485  0.0232 -0.5338 -0.0491
  535MOL0     O72125   8.272   8.148  12.619 -0.2007 -0.0627  0.6105
  535MOL0     C72126   8.367   8.067  12.680 -0.2259 -0.2143  0.2797
  535MOL0     C72127   8.405   8.107  12.819  0.0027  0.6643  0.6564
  535MOL0     C72128   8.492   8.000  12.882  0.3147 -0.3741 -0.1199
  535MOL0     C72129   8.639   8.010  12.841 -0.2111 -0.6298  0.2710
  535MOL0     C72130   8.716   8.078  12.952  0.1468 -0.0882 -0.0574
  535MOL0     C72131   8.849   8.129  12.906 -0.1130 -0.1057  0.9936
  535MOL0     C72132   8.951   8.016  12.865 -0.0075  0.1853 -1.1217
  535MOL0     C72133   8.985   7.931  12.988 -0.0972 -0.8632 -0.2687
  535MOL0    Cl72134   9.109   8.022  13.089 -0.2252  0.2175  0.0102
  535MOL0     C72135   8.348   8.186  12.397 -0.1278  0.3936  0.0354
  535MOL0     C72136   8.348   8.153  12.257  0.9188 -0.0349  0.0473
  535MOL0     O72137   8.460   7.992  12.024  0.0887 -0.2148  0.5926
  535MOL0     C72138   8.388   7.880  11.771 -0.9936 -0.7218  0.2814
  535MOL0     C72139   8.353   7.821  11.651  0.3836  0.3020 -0.3808
  535MOL0     N72140   8.586   7.541  11.585  0.6442  0.3085  0.1568
  535MOL0     N72141   8.678   7.596  11.658  0.3906  1.4896  0.1717
  535MOL0     C72142   8.172   8.452  11.409 -0.5099 -0.4919  0.3351
  535MOL0     C72143   8.048   8.482  11.374  1.1240  0.3054 -0.9858
  535MOL0     C72144   7.662   8.520  11.220  0.6354  0.4403 -0.2291
  535MOL0     C72145   7.621   8.604  11.321 -0.1073 -0.1505 -0.1849
  535MOL0     C72146   7.519   8.704  11.294  0.1836  0.8581  0.3535
  535MOL0     C72147   7.454   8.702  11.173  0.0569 -0.7569 -0.5013
  535MOL0     O72148   7.341   8.777  11.160 -0.6010 -0.2544 -0.3259
  535MOL0     C72149   7.279   8.809  11.030 -0.4001  0.3301  0.8752
  535MOL0     C72150   7.207   8.944  11.040 -0.3382  0.8884 -0.0402
  535MOL0     C72151   7.077   8.956  11.122 -0.7308 -0.7687  0.8352
  535MOL0     C72152   7.026   9.103  11.116 -0.2941  0.9833 -1.7211
  535MOL0     C72153   6.992   9.159  10.990 -0.8200 -1.1131  0.5138
  535MOL0     C72154   6.946   9.217  10.891  1.0391  0.2464 -0.6471
  535MOL0     C72155   7.486   8.606  11.079 -0.5366  0.2280  0.4086
  535MOL0     C72156   7.592   8.520  11.098 -0.7402 -0.8113  0.2652
  535MOL0     C72157   7.615   8.420  10.987  0.6268  0.0767  0.7145
  535MOL0     H72158   7.880   8.229  11.503  0.2044 -1.4241 -1.7692
  535MOL0     H72159   8.117   8.161  11.580  0.8565  1.0513  0.4989
  535MOL0     H72160   8.352   8.154  11.618 -0.7015 -0.8295 -1.5146
  535MOL0     H72161   8.393   8.146  11.443  2.8892 -1.0176 -0.3211
  535MOL0     H72162   8.567   8.275  11.643  0.7618  1.4138 -0.7220
  535MOL0     H72163   8.588   8.269  11.460 -1.7132 -0.0344 -1.9695
  535MOL0     H72164   8.589   8.004  11.506  0.7443 -2.3917  4.9895
  535MOL0     H72165   8.606   8.046  11.670  1.2899 -2.1184  0.3539
  535MOL0     H72166   8.806   8.160  11.470  2.2219  0.3107  1.5579
  535MOL0     H72167   8.805   8.188  11.637 -0.5207 -3.3299  4.2847
  535MOL0     H72168   8.842   7.923  11.488  1.7142  2.4818 -2.7900
  535MOL0     H72169   8.970   8.003  11.587 -0.6612  1.6107  1.9728
  535MOL0     H72170   8.828   7.965  11.789  2.0624 -0.7526  1.6759
  535MOL0     H72171   8.720   7.875  11.688 -0.3290  3.2800 -1.9707
  535MOL0     H72172   8.880   7.719  11.813 -0.3262  0.4090 -0.0221
  535MOL0     H72173   9.018   7.801  11.743 -0.3721  3.7056 -0.1666
  535MOL0     H72174   8.964   7.717  11.523  1.9961 -1.3251  0.3301
  535MOL0     H72175   8.956   7.583  11.640  2.5846  0.3114 -2.4434
  535MOL0     H72176   8.782   7.634  11.344  1.2031  1.0948  1.3019
  535MOL0     H72177   8.577   7.433  11.275 -1.5008  0.8260 -2.1405
  535MOL0     H72178   8.442   7.437  11.393 -0.2441  1.2947  0.7580
  535MOL0     H72179   8.527   7.639  11.187 -0.7715  2.5381 -0.2625
  535MOL0     H72180   8.376   7.552  11.192 -1.1335  3.6020 -2.1156
  535MOL0     H72181   8.327   7.776  11.259 -0.3291  2.1239  2.0962
  535MOL0     H72182   8.447   7.754  11.393  0.6633 -1.0774  0.9479
  535MOL0     H72183   8.294   7.586  11.498  1.2455 -0.3545 -1.3110
  535MOL0     H72184   8.179   7.610  11.368 -1.6703  1.7412  0.6757
  535MOL0     H72185   8.026   7.874  11.668  0.3944 -0.6577 -1.8025
  535MOL0     H72186   8.089   7.971  11.884 -1.4607 -0.9915 -1.0629
  535MOL0     H72187   8.115   7.908  12.262  3.7315 -2.6137  1.1901
  535MOL0     H72188   8.128   7.956  12.512  1.3522 -0.1935  1.1081
  535MOL0     H72189   8.327   7.965  12.683 -0.4916 -0.2369 -2.0462
  535MOL0     H72190   8.454   8.065  12.613 -1.6239 -1.4349 -1.6238
  535MOL0     H72191   8.462   8.200  12.828  2.7450 -1.0933  3.0852
  535MOL0     H72192   8.314   8.111  12.879  0.1180 -0.5719  0.9414
  535MOL0     H72193   8.481   8.000  12.991 -1.7144  0.7145 -0.2791
  535MOL0     H72194   8.449   7.909  12.840 -3.4649  1.6189 -1.0424
  535MOL0     H72195   8.647   8.048  12.739 -1.1386 -1.4386 -0.1305
  535MOL0     H72196   8.668   7.905  12.845 -1.5317 -1.0321 -0.0500
  535MOL0     H72197   8.737   8.011  13.037 -0.6201 -0.6001 -0.2593
  535MOL0     H72198   8.658   8.163  12.987  0.5595  1.6754 -3.3240
  535MOL0     H72199   8.834   8.207  12.831  1.3235 -0.3374  0.4416
  535MOL0     H72200   8.892   8.186  12.989 -1.3917 -1.0298  2.3441
  535MOL0     H72201   9.041   8.055  12.817  0.2419  1.0848  0.0299
  535MOL0     H72202   8.894   7.949  12.800 -2.3006  0.8988  0.0160
  535MOL0     H72203   8.901   7.892  13.046 -1.1341  1.1767 -0.3490
  535MOL0     H72204   9.038   7.838  12.964 -0.8022 -2.0323  2.2603
  535MOL0     H72205   8.413   8.263  12.437 -0.0958  0.5372 -0.2910
  535MOL0     H72206   8.416   8.206  12.191  0.6138  0.2297 -0.0546
  535MOL0     H72207   8.494   7.870  11.790 -1.4579 -3.0991  2.0203
  535MOL0     H72208   8.433   7.766  11.602  0.4017  0.6435 -0.7396
  535MOL0     H72209   8.250   8.521  11.378 -1.7867  1.2888  0.9240
  535MOL0     H72210   8.027   8.579  11.331  0.2818  0.8286  0.5159
  535MOL0     H72211   7.674   8.618  11.414  0.0369 -0.6328 -0.1933
  535MOL0     H72212   7.483   8.781  11.362 -3.4878 -0.0797 -0.3076
  535MOL0     H72213   7.215   8.723  11.008 -0.6107  1.2111 -2.5152
  535MOL0     H72214   7.355   8.800  10.952 -1.0678 -1.1097  0.3607
  535MOL0     H72215   7.186   8.955  10.933 -0.8560 -0.7995 -0.1420
  535MOL0     H72216   7.276   9.022  11.072 -0.6991  1.1481  0.1094
  535MOL0     H72217   7.097   8.922  11.224  3.7361  2.3154  1.2734
  535MOL0     H72218   6.990   8.906  11.076  1.0490  0.3597 -4.4092
  535MOL0     H72219   6.935   9.099  11.177 -0.5285 -0.7611 -2.1448
  535MOL0     H72220   7.093   9.169  11.172  0.5423 -0.7824 -0.5552
  535MOL0     H72221   6.912   9.261  10.800  0.6232  1.1673 -0.0646
  535MOL0     H72222   7.423   8.588  10.993  0.4881  0.7558 -0.4825
  535MOL0     H72223   7.701   8.450  10.927 -1.0175  1.7754 -0.9221
  535MOL0     H72224   7.616   8.319  11.028  2.1318  0.5652  1.9963
  535MOL0     H72225   7.530   8.424  10.919  0.1995 -0.7774  1.1710
  536MOL0     O72226  10.511   4.962   6.035  0.6136  0.4310 -0.0048
  536MOL0     C72227  10.521   4.864   6.115  0.2592 -0.3737 -0.4283
  536MOL0     O72228  10.634   4.778   6.129 -0.6662 -0.0182 -0.6733
  536MOL0     C72229  10.758   4.821   6.096 -0.4449 -0.0097 -0.1735
  536MOL0     C72230  10.846   4.715   6.052  0.8508  0.4051  0.1464
  536MOL0     C72231  10.987   4.735   6.030  0.9836 -0.1283 -0.5733
  536MOL0     C72232  11.028   4.870   6.034  0.3598  0.7896  0.0397
  536MOL0     O72233  11.152   4.920   6.003 -0.5038  0.2642  0.6387
  536MOL0     C72234  11.275   4.842   6.020  0.2283 -0.3343  0.0806
  536MOL0     C72235  11.393   4.899   5.946  0.0717  0.1758  1.0509
  536MOL0     C72236  11.422   5.035   5.988  0.1160  0.8284  0.2956
  536MOL0     C72237  11.537   5.091   5.900 -0.4556 -0.1479 -0.2791
  536MOL0     C72238  11.553   5.238   5.932  0.1400  0.1305 -0.3162
  536MOL0     C72239  11.682   5.311   5.874  0.2479 -0.3014  0.0640
  536MOL0     C72240  11.711   5.288   5.724  0.8068 -0.4565 -0.3408
  536MOL0     C72241  11.609   5.351   5.627 -0.0513 -0.1451 -0.5080
  536MOL0     N72242  11.672   5.370   5.499  0.5587 -0.1091  0.6224
  536MOL0     C72243  11.780   5.438   5.463  0.2141  0.4791 -0.1925
  536MOL0     C72244  11.796   5.419   5.336 -0.3500  0.0228  0.6640
  536MOL0     C72245  11.920   5.456   5.265 -0.1689  0.0142  0.0254
  536MOL0     C72246  12.046   5.382   5.313 -0.4102 -0.1827 -0.1207
  536MOL0     C72247  12.179   5.444   5.285 -1.1798  0.5009  0.4656
  536MOL0     C72248  12.217   5.480   5.138 -0.4111 -0.2480  0.3023
  536MOL0     O72249  12.140   5.603   5.109 -0.4578  0.6334 -0.1880
  536MOL0     C72250  12.217   5.711   5.074 -0.3212 -0.1719  0.8298
  536MOL0     C72251  12.325   5.753   5.143 -0.5230 -1.0068  0.2431
  536MOL0     C72252  12.421   5.848   5.089  0.6423  0.4783  0.2323
  536MOL0     C72253  12.387   5.918   4.976 -0.0137 -0.3316 -0.6062
  536MOL0     C72254  12.482   6.023   4.928 -0.1128  0.6978  0.3154
  536MOL0     O72255  12.607   6.030   4.991 -0.0917  0.3482  0.3008
  536MOL0     C72256  12.690   6.135   4.968 -0.4536  0.2433 -0.3577
  536MOL0     C72257  12.745   6.205   5.077  0.4372 -0.4185  0.2551
  536MOL0     C72258  12.831   6.311   5.061  0.5911  0.0112  0.5411
  536MOL0     C72259  12.873   6.351   4.936  0.0592  0.1388  0.5384
  536MOL0     O72260  12.973   6.444   4.936 -0.1890  0.1073  0.7623
  536MOL0     C72261  13.074   6.430   4.829  1.1408 -0.1976  0.1295
  536MOL0     C72262  13.176   6.548   4.845  0.7313 -0.5663 -0.0227
  536MOL0     C72263  13.282   6.535   4.738  0.6521  0.7449  0.2388
  536MOL0     C72264  13.380   6.644   4.746 -0.4513  0.3910 -0.6884
  536MOL0     C72265  13.453   6.650   4.612  0.3872 -0.7751  0.2897
  536MOL0     C72266  13.544   6.535   4.593 -0.0984 -0.2567  0.9554
  536MOL0     C72267  13.599   6.546   4.455  0.0408  0.1568  0.1559
  536MOL0     C72268  13.678   6.423   4.410 -0.5431 -0.7192  1.0037
  536MOL0    Cl72269  13.833   6.423   4.494 -0.0425  0.3889  0.0484
  536MOL0     C72270  12.826   6.275   4.826  0.6829  0.1815  0.6880
  536MOL0     C72271  12.741   6.166   4.851  0.1765  0.1341  0.8291
  536MOL0     O72272  12.440   6.101   4.838 -0.7771  0.2189  0.5489
  536MOL0     C72273  12.284   5.869   4.896  0.7971 -0.9618  0.4258
  536MOL0     C72274  12.196   5.768   4.942  0.1450 -0.4392  0.6257
  536MOL0     N72275  11.686   5.344   5.282 -0.2972 -1.0155 -0.5492
  536MOL0     N72276  11.608   5.320   5.384  0.6995  0.4193  0.1375
  536MOL0     C72277  10.938   4.972   6.067  0.5388 -0.1852 -0.2636
  536MOL0     C72278  10.803   4.949   6.100  0.3040 -0.0353 -1.0108
  536MOL0     C72279  10.400   4.822   6.189 -0.2419 -0.1188 -0.4587
  536MOL0     C72280  10.367   4.686   6.206 -0.3346  0.6676 -0.4329
  536MOL0     C72281  10.258   4.652   6.277  0.1175  0.0278  0.0209
  536MOL0     C72282  10.169   4.750   6.332  0.0089 -0.1705  1.0502
  536MOL0     O72283  10.040   4.743   6.366  0.0060 -0.0228 -0.6107
  536MOL0     C72284   9.966   4.644   6.298  0.2956 -0.6424 -0.0718
  536MOL0     C72285   9.817   4.643   6.336  0.4073 -0.6297  0.2502
  536MOL0     C72286   9.799   4.602   6.475 -0.3091 -1.0298 -0.1496
  536MOL0     C72287   9.654   4.616   6.526 -0.2073 -0.2661  0.5552
  536MOL0     C72288   9.644   4.590   6.666 -0.4794  0.0239 -0.2186
  536MOL0     C72289   9.629   4.589   6.788 -0.1747  0.6015  0.1976
  536MOL0     C72290  10.206   4.882   6.319 -0.2486  0.0192 -0.4714
  536MOL0     C72291  10.322   4.915   6.254  0.5000 -0.3980  0.3890
  536MOL0     C72292  10.355   5.065   6.258  0.7883  0.1483  0.4490
  536MOL0     H72293  10.808   4.614   6.046 -0.5252  0.9062 -0.1312
  536MOL0     H72294  11.057   4.653   6.019  3.7294  2.2219 -1.9366
  536MOL0     H72295  11.290   4.845   6.129  2.6928  1.3672 -0.2194
  536MOL0     H72296  11.267   4.737   5.991 -0.2352  0.3341 -2.4090
  536MOL0     H72297  11.379   4.902   5.838 -0.4004  0.2879  1.1158
  536MOL0     H72298  11.478   4.832   5.967 -0.2062 -0.8712 -0.9465
  536MOL0     H72299  11.452   5.033   6.093  0.4095  0.9731  0.2155
  536MOL0     H72300  11.330   5.093   5.975 -0.3858 -0.4461 -2.8577
  536MOL0     H72301  11.625   5.031   5.926  2.7246  4.7606  1.7937
  536MOL0     H72302  11.525   5.071   5.794  2.4297 -0.9213 -0.5385
  536MOL0     H72303  11.462   5.294   5.908 -0.3947  0.7404  2.7255
  536MOL0     H72304  11.567   5.248   6.040  1.2867 -0.8892 -0.3444
  536MOL0     H72305  11.684   5.419   5.888 -2.9945  0.2414 -2.4590
  536MOL0     H72306  11.770   5.265   5.922  0.3221 -1.6763 -1.3046
  536MOL0     H72307  11.701   5.180   5.710 -3.1012 -0.5311  1.6964
  536MOL0     H72308  11.809   5.331   5.703  1.3615 -0.9302  1.1449
  536MOL0     H72309  11.520   5.288   5.614 -0.4587  0.1448  0.7018
  536MOL0     H72310  11.593   5.454   5.662  2.8696  0.8910 -1.9313
  536MOL0     H72311  11.840   5.499   5.530 -0.3393  0.8993 -0.0697
  536MOL0     H72312  11.905   5.424   5.161 -1.6751  1.9304 -0.4050
  536MOL0     H72313  11.927   5.564   5.255 -0.4757 -0.1177 -2.1330
  536MOL0     H72314  12.028   5.387   5.421 -3.3795  2.0042 -0.5866
  536MOL0     H72315  12.041   5.279   5.279 -2.7110  0.2185 -1.1727
  536MOL0     H72316  12.256   5.383   5.333 -0.3191  1.7098  0.6810
  536MOL0     H72317  12.172   5.538   5.340 -2.2058  1.1750 -0.7420
  536MOL0     H72318  12.190   5.399   5.070 -0.8900  1.2647 -1.3763
  536MOL0     H72319  12.325   5.489   5.128 -0.2036 -0.5599  1.8917
  536MOL0     H72320  12.357   5.704   5.235 -1.3994 -0.6827  0.7322
  536MOL0     H72321  12.516   5.859   5.142  0.5642  0.0323  0.4761
  536MOL0     H72322  12.722   6.172   5.177  0.2969  0.8605  0.6724
  536MOL0     H72323  12.881   6.361   5.143  1.9966  4.9051 -2.9154
  536MOL0     H72324  13.120   6.331   4.832 -0.1866 -0.9100 -1.5914
  536MOL0     H72325  13.021   6.437   4.733  1.9878 -1.0069 -0.4073
  536MOL0     H72326  13.133   6.648   4.834 -1.4254 -1.2553  1.3635
  536MOL0     H72327  13.212   6.535   4.948  1.2921  1.3505  0.0693
  536MOL0     H72328  13.333   6.440   4.755 -1.2789 -0.0754  1.8785
  536MOL0     H72329  13.244   6.539   4.635  1.4633  0.6307 -0.0731
  536MOL0     H72330  13.444   6.631   4.833  0.0470  0.3707 -1.0568
  536MOL0     H72331  13.322   6.735   4.763 -0.2980  1.0578 -3.2346
  536MOL0     H72332  13.513   6.741   4.605 -2.2791  0.9898 -2.8585
  536MOL0     H72333  13.383   6.668   4.529 -1.1704  2.3663  2.0777
  536MOL0     H72334  13.623   6.542   4.669 -0.3540 -0.7558  1.2755
  536MOL0     H72335  13.487   6.443   4.608  0.0310 -0.1048  2.5839
  536MOL0     H72336  13.663   6.632   4.436  1.1733 -0.6168  0.3834
  536MOL0     H72337  13.507   6.545   4.396 -1.7450 -2.7304  2.6647
  536MOL0     H72338  13.621   6.332   4.427 -1.9212  0.1175  1.0117
  536MOL0     H72339  13.708   6.440   4.306  2.2568  2.5259  2.1383
  536MOL0     H72340  12.861   6.294   4.725 -0.1929 -2.5896 -0.2298
  536MOL0     H72341  12.709   6.126   4.755 -0.0217  1.2711  0.4123
  536MOL0     H72342  12.252   5.925   4.808 -3.2596  0.5466  2.6116
  536MOL0     H72343  12.110   5.745   4.879  1.5157 -2.2463 -0.7021
  536MOL0     H72344  10.984   5.070   6.070  2.0295 -0.8157 -1.2090
  536MOL0     H72345  10.755   5.031   6.152  1.3236 -0.8865  1.4310
  536MOL0     H72346  10.437   4.608   6.177 -1.1541 -0.8011  1.3283
  536MOL0     H72347  10.221   4.549   6.282 -3.8896  1.1703 -1.7393
  536MOL0     H72348  10.003   4.542   6.313  0.9801 -0.3676  0.1588
  536MOL0     H72349   9.969   4.666   6.191  0.6121  2.7610  0.5329
  536MOL0     H72350   9.757   4.573   6.278 -0.8939 -0.8029  1.7363
  536MOL0     H72351   9.782   4.747   6.327 -1.3580 -1.0435  1.7037
  536MOL0     H72352   9.870   4.663   6.531  1.4210 -1.9083 -1.2754
  536MOL0     H72353   9.825   4.496   6.472 -3.3744 -1.8551 -1.6955
  536MOL0     H72354   9.618   4.716   6.501  3.8849  1.2113 -0.1967
  536MOL0     H72355   9.592   4.541   6.475 -1.1034  1.4862 -1.0176
  536MOL0     H72356   9.609   4.592   6.894  0.4637 -1.0178  0.3929
  536MOL0     H72357  10.146   4.953   6.376  0.3917 -1.5454  2.3618
  536MOL0     H72358  10.443   5.080   6.322 -0.3475 -0.7948  2.3530
  536MOL0     H72359  10.365   5.116   6.162 -0.1957 -0.0219  0.2511
  536MOL0     H72360  10.277   5.124   6.308  0.5808  0.5178 -0.2920
  537MOL0     O72361  10.427   7.186   6.823  0.7952  0.0725 -0.3919
  537MOL0     C72362  10.417   7.222   6.941 -1.2640  0.7064  0.5696
  537MOL0     O72363  10.486   7.328   6.992  0.3089  0.3287  0.0413
  537MOL0     C72364  10.555   7.415   6.911  0.4611 -0.3405 -0.6249
  537MOL0     C72365  10.505   7.548   6.902 -0.4996  0.7546  0.0526
  537MOL0     C72366  10.581   7.652   6.833  0.1219  0.2867 -0.2606
  537MOL0     C72367  10.705   7.616   6.772  0.8109 -0.5848 -0.0217
  537MOL0     O72368  10.773   7.711   6.703 -0.5228  0.1894 -0.1882
  537MOL0     C72369  10.765   7.846   6.744  0.0216 -0.3873 -1.0462
  537MOL0     C72370  10.894   7.922   6.699  0.3910  0.9829  0.1201
  537MOL0     C72371  11.033   7.860   6.729  0.3709  0.0560 -0.4440
  537MOL0     C72372  11.094   7.787   6.607  0.6196 -0.7149  0.8087
  537MOL0     C72373  11.237   7.747   6.633  0.0271 -0.3800  0.6615
  537MOL0     C72374  11.283   7.631   6.547  0.3928 -0.2975  0.2008
  537MOL0     C72375  11.434   7.633   6.534  0.2650 -1.1713 -1.0206
  537MOL0     C72376  11.514   7.591   6.660 -0.1720  0.0612 -0.2741
  537MOL0     N72377  11.506   7.442   6.694  0.4757  0.5042 -0.9360
  537MOL0     C72378  11.604   7.348   6.706 -0.2006 -0.3438  0.8272
  537MOL0     C72379  11.549   7.238   6.753 -0.6894  0.2907  0.5083
  537MOL0     C72380  11.617   7.101   6.778 -0.1803  0.0164  0.1078
  537MOL0     C72381  11.603   7.012   6.653  0.1308  0.8166  0.1301
  537MOL0     C72382  11.638   6.862   6.685  0.0548 -0.7807  0.1205
  537MOL0     C72383  11.661   6.778   6.566  0.8200  0.3178  0.5170
  537MOL0     O72384  11.547   6.803   6.483  0.0605 -0.3982  0.6685
  537MOL0     C72385  11.445   6.729   6.514 -0.3214 -0.3143 -0.0371
  537MOL0     C72386  11.332   6.801   6.556 -0.2785 -0.4136  1.2201
  537MOL0     C72387  11.214   6.732   6.569 -0.0689  0.1909  0.5341
  537MOL0     C72388  11.203   6.594   6.548  0.4709 -0.1965 -0.6459
  537MOL0     C72389  11.083   6.514   6.580 -0.5221 -0.2863  0.2050
  537MOL0     O72390  11.065   6.400   6.506  0.1669  0.1998  0.1104
  537MOL0     C72391  10.951   6.330   6.517  0.7095 -0.1700 -0.0671
  537MOL0     C72392  10.871   6.282   6.408  0.1860  0.2746  0.7193
  537MOL0     C72393  10.751   6.223   6.426 -0.0143  0.2079 -0.1168
  537MOL0     C72394  10.702   6.200   6.555  0.4160 -0.0530 -0.5715
  537MOL0     O72395  10.580   6.148   6.565  0.3771 -0.5201 -0.3371
  537MOL0     C72396  10.497   6.196   6.672  0.3424  0.8527  0.3741
  537MOL0     C72397  10.353   6.140   6.649 -0.9153 -0.0658 -0.5225
  537MOL0     C72398  10.271   6.171   6.782 -0.1400 -0.1911  0.6594
  537MOL0     C72399  10.139   6.093   6.792  0.0539 -0.2370 -0.0859
  537MOL0     C72400  10.033   6.137   6.690 -0.2692  0.6556 -0.2554
  537MOL0     C72401   9.910   6.042   6.693  0.3241 -0.5255 -0.8790
  537MOL0     C72402   9.804   6.068   6.585  0.0425  0.8201  0.0683
  537MOL0     C72403   9.673   5.992   6.621 -0.4224  1.0043 -0.1141
  537MOL0    Cl72404   9.554   5.995   6.481  0.0325  0.0487 -0.1941
  537MOL0     C72405  10.779   6.231   6.661 -0.3863  0.5118 -1.3586
  537MOL0     C72406  10.902   6.307   6.650 -0.6297 -0.0755 -0.4495
  537MOL0     O72407  11.010   6.570   6.659 -0.0722  0.7131 -0.1288
  537MOL0     C72408  11.323   6.531   6.502  0.0388  0.0011 -0.9619
  537MOL0     C72409  11.441   6.591   6.488  0.1430 -0.6758  0.8302
  537MOL0     N72410  11.411   7.259   6.765 -1.0241 -0.3929 -0.4057
  537MOL0     N72411  11.391   7.382   6.729 -0.6450 -0.4221 -0.9777
  537MOL0     C72412  10.743   7.481   6.781 -0.2796  0.8350 -0.7437
  537MOL0     C72413  10.671   7.381   6.844  0.4646 -0.4278 -0.1572
  537MOL0     C72414  10.318   7.151   7.017 -0.4546 -0.8456 -0.9643
  537MOL0     C72415  10.187   7.189   7.009  0.3370  0.1654  0.1548
  537MOL0     C72416  10.099   7.135   7.103 -0.0969  0.4320  0.2839
  537MOL0     C72417  10.140   7.044   7.204 -0.1904  0.2435  0.7473
  537MOL0     O72418  10.061   6.986   7.297  0.6242  0.4577 -0.3797
  537MOL0     C72419   9.911   6.999   7.287 -0.2193  0.1193 -0.4321
  537MOL0     C72420   9.853   6.890   7.193 -0.2278 -0.0413 -0.2573
  537MOL0     C72421   9.863   6.894   7.044 -0.1775  0.2105  0.4600
  537MOL0     C72422   9.994   6.824   6.995  0.0604 -0.4560  0.0292
  537MOL0     C72423  10.034   6.881   6.863 -0.3287  0.3256 -0.4143
  537MOL0     C72424  10.062   6.912   6.751 -0.1394 -0.7270 -0.5620
  537MOL0     C72425  10.270   7.014   7.210 -0.6876 -0.5946  0.0609
  537MOL0     C72426  10.361   7.063   7.116  0.7851 -0.2594  0.1393
  537MOL0     C72427  10.503   7.038   7.140 -0.5386  0.0329 -0.6141
  537MOL0     H72428  10.409   7.572   6.948  0.3993  3.4329  0.7461
  537MOL0     H72429  10.537   7.751   6.820  0.9216  0.6247 -0.4381
  537MOL0     H72430  10.678   7.896   6.701  0.4871  3.4392  1.9815
  537MOL0     H72431  10.753   7.856   6.852 -2.7286 -3.8977 -0.8192
  537MOL0     H72432  10.888   8.025   6.734 -0.6029  0.7992  0.5378
  537MOL0     H72433  10.885   7.928   6.590  3.0731  0.3657 -0.2018
  537MOL0     H72434  11.035   7.792   6.815  2.6575  1.3007  0.5804
  537MOL0     H72435  11.101   7.940   6.758  0.9694 -0.4188 -0.5163
  537MOL0     H72436  11.036   7.704   6.565 -1.7516  2.0848 -2.0173
  537MOL0     H72437  11.101   7.855   6.521  1.4096 -2.5619 -0.6609
  537MOL0     H72438  11.297   7.835   6.610 -0.7140  0.3441  1.4443
  537MOL0     H72439  11.253   7.720   6.738 -2.7704 -0.6834  1.0815
  537MOL0     H72440  11.234   7.545   6.594 -0.2436  0.3975  0.8298
  537MOL0     H72441  11.247   7.644   6.445  2.1933 -0.0899 -0.4505
  537MOL0     H72442  11.466   7.734   6.505  2.5227 -1.0955  1.3358
  537MOL0     H72443  11.456   7.565   6.452 -1.1422 -1.9328 -0.7849
  537MOL0     H72444  11.617   7.614   6.632  0.3517 -2.4755 -0.7172
  537MOL0     H72445  11.483   7.648   6.748 -1.4946 -2.2840  0.8829
  537MOL0     H72446  11.705   7.378   6.680 -1.0040  2.1236  0.3043
  537MOL0     H72447  11.721   7.112   6.812 -0.2440  0.0894  0.2825
  537MOL0     H72448  11.571   7.068   6.871 -0.3923  0.7165  0.2563
  537MOL0     H72449  11.502   7.023   6.612 -0.1421  0.0316  0.5840
  537MOL0     H72450  11.677   7.047   6.580 -0.2227 -0.4873 -0.8758
  537MOL0     H72451  11.555   6.831   6.750  0.0329 -3.1617 -0.9455
  537MOL0     H72452  11.732   6.860   6.740  0.4644 -1.9830 -0.5902
  537MOL0     H72453  11.672   6.676   6.602  1.8770 -0.1340 -0.9658
  537MOL0     H72454  11.750   6.806   6.508 -0.5220  2.1075 -0.7917
  537MOL0     H72455  11.337   6.909   6.562 -4.3704  0.2921 -2.7864
  537MOL0     H72456  11.118   6.777   6.592 -2.9672 -3.6691 -2.5203
  537MOL0     H72457  10.910   6.304   6.309  1.3732  0.0606  1.1319
  537MOL0     H72458  10.695   6.190   6.340  1.8998  0.1895 -1.4056
  537MOL0     H72459  10.524   6.161   6.772 -1.8494  0.7001  0.9517
  537MOL0     H72460  10.483   6.304   6.671 -0.9576  0.7001  0.6074
  537MOL0     H72461  10.321   6.198   6.562  2.1494  4.0776  0.7488
  537MOL0     H72462  10.352   6.032   6.637 -2.1806 -0.2396  0.8552
  537MOL0     H72463  10.323   6.152   6.877  1.8015 -1.7628 -0.6267
  537MOL0     H72464  10.251   6.278   6.770 -1.2443 -0.4653 -0.0686
  537MOL0     H72465  10.104   6.102   6.896  0.7267  0.7181  0.0678
  537MOL0     H72466  10.162   5.986   6.782  5.0736  0.6012 -0.0023
  537MOL0     H72467  10.071   6.148   6.588 -2.7708  1.6178 -1.1712
  537MOL0     H72468   9.996   6.236   6.720 -2.1262  0.6818 -2.3753
  537MOL0     H72469   9.949   5.940   6.680 -0.2825 -0.9263  0.3319
  537MOL0     H72470   9.869   6.071   6.790 -1.1348  0.1182 -1.6557
  537MOL0     H72471   9.836   6.043   6.484  0.2499  2.2567 -0.2301
  537MOL0     H72472   9.792   6.176   6.580  0.3229  0.8560  0.1231
  537MOL0     H72473   9.682   5.888   6.652 -0.8380 -0.3684 -3.9680
  537MOL0     H72474   9.635   6.046   6.708  3.3262  3.4500  0.2608
  537MOL0     H72475  10.736   6.213   6.759 -0.8121  3.8702 -0.8036
  537MOL0     H72476  10.947   6.353   6.737 -1.8794 -0.4604  0.4237
  537MOL0     H72477  11.325   6.428   6.469  2.5652  0.0164 -1.0631
  537MOL0     H72478  11.530   6.533   6.464  0.3078  0.0294 -0.3494
  537MOL0     H72479  10.821   7.443   6.715 -1.0888  0.1047 -1.2993
  537MOL0     H72480  10.716   7.285   6.863  3.4841  1.2356  2.0439
  537MOL0     H72481  10.157   7.264   6.937  2.4536  1.9556  1.0391
  537MOL0     H72482   9.995   7.163   7.091 -0.9599 -2.1669  1.1209
  537MOL0     H72483   9.888   7.102   7.262 -3.0374 -1.2511 -4.4887
  537MOL0     H72484   9.860   6.978   7.381  0.3560  1.7658  0.2886
  537MOL0     H72485   9.749   6.874   7.225  0.5900 -3.4789  1.1977
  537MOL0     H72486   9.898   6.796   7.227  0.0127  0.9476  2.4937
  537MOL0     H72487   9.857   6.999   7.014 -1.7029 -0.3873 -1.5207
  537MOL0     H72488   9.777   6.846   6.996  1.7362 -2.2604 -0.7577
  537MOL0     H72489  10.079   6.843   7.062 -0.0783 -1.1623  0.4005
  537MOL0     H72490   9.972   6.717   6.997  0.9423 -0.8252 -3.5245
  537MOL0     H72491  10.085   6.937   6.650  0.4590  0.8642 -0.0569
  537MOL0     H72492  10.310   6.955   7.292  2.6550  0.1985 -0.8399
  537MOL0     H72493  10.515   6.948   7.200  1.3803 -1.0828 -2.5151
  537MOL0     H72494  10.571   7.040   7.054  0.4581 -0.6865  0.1414
  537MOL0     H72495  10.526   7.123   7.205  0.0184 -0.3896 -0.2532
  538MOL0     O72496   0.187   2.686   8.379  0.4536 -0.0532  0.2491
  538MOL0     C72497   0.124   2.745   8.460 -0.0618 -0.9908  0.1585
  538MOL0     O72498  -0.004   2.789   8.441  0.4358 -0.4656 -0.4191
  538MOL0     C72499  -0.069   2.774   8.318 -0.5762 -0.4146 -0.4287
  538MOL0     C72500  -0.018   2.822   8.186 -0.1530 -0.0306  0.0271
  538MOL0     C72501  -0.087   2.781   8.071  0.2442 -1.0929 -0.9319
  538MOL0     C72502  -0.202   2.703   8.078 -0.3843  0.1322  0.9509
  538MOL0     O72503  -0.277   2.684   7.960 -0.6023  0.1840 -0.1020
  538MOL0     C72504  -0.374   2.575   7.961 -0.2187  0.1939 -0.0667
  538MOL0     C72505  -0.377   2.524   7.819 -0.5122  0.4343  0.3552
  538MOL0     C72506  -0.301   2.389   7.800  0.5856  0.4639  0.1142
  538MOL0     C72507  -0.149   2.398   7.846  1.1488  0.0490  0.0167
  538MOL0     C72508  -0.085   2.270   7.815 -0.7880 -0.4249  1.3940
  538MOL0     C72509  -0.043   2.274   7.667 -0.3654  0.1211 -0.3079
  538MOL0     C72510   0.034   2.145   7.624 -1.3285 -0.0310  0.9512
  538MOL0     C72511  -0.031   2.014   7.630  0.0263  0.5001  0.2287
  538MOL0     N72512  -0.166   2.024   7.584  0.6214  0.8013  0.2924
  538MOL0     C72513  -0.208   2.053   7.460 -0.7760  0.2252  0.2086
  538MOL0     C72514  -0.346   2.042   7.473  0.0297 -0.4735  0.3737
  538MOL0     C72515  -0.446   2.084   7.370 -0.0128 -0.3530 -0.6770
  538MOL0     C72516  -0.476   2.232   7.390  0.2416  0.0214 -0.2719
  538MOL0     C72517  -0.554   2.277   7.509 -0.7181 -0.5554 -0.6991
  538MOL0     C72518  -0.622   2.418   7.510 -0.2803 -0.5969 -0.4210
  538MOL0     O72519  -0.764   2.406   7.514  0.4973 -0.2879  0.2173
  538MOL0     C72520  -0.838   2.521   7.510  0.4504  0.3938 -0.6811
  538MOL0     C72521  -0.796   2.650   7.517 -0.5325 -0.4623  0.4302
  538MOL0     C72522  -0.890   2.752   7.515 -0.2566  0.6304 -0.0143
  538MOL0     C72523  -1.032   2.734   7.512 -0.7414  0.2210  1.0305
  538MOL0     C72524  -1.126   2.843   7.522  0.4924 -0.3453  0.9719
  538MOL0     O72525  -1.074   2.974   7.496 -0.6821 -0.2070  0.4730
  538MOL0     C72526  -1.159   3.085   7.493  0.5469 -0.8301  0.5068
  538MOL0     C72527  -1.137   3.191   7.584 -0.4174 -0.6973  0.5428
  538MOL0     C72528  -1.196   3.314   7.558 -0.3774 -0.8727 -0.7493
  538MOL0     C72529  -1.299   3.329   7.459 -1.0121  0.8368 -0.5927
  538MOL0     O72530  -1.368   3.441   7.432 -0.7709 -0.4224 -0.4813
  538MOL0     C72531  -1.318   3.569   7.465 -0.6628 -0.8832  0.9606
  538MOL0     C72532  -1.403   3.676   7.400 -0.0780 -0.0732 -0.8732
  538MOL0     C72533  -1.350   3.823   7.426  0.0594  0.4977 -0.1119
  538MOL0     C72534  -1.447   3.933   7.369  0.0469  1.4372  0.1562
  538MOL0     C72535  -1.424   3.964   7.229 -0.5581 -0.3439  0.3730
  538MOL0     C72536  -1.497   4.092   7.196 -0.5175 -0.2505  0.1302
  538MOL0     C72537  -1.489   4.127   7.046  0.3684  0.5430 -0.0603
  538MOL0     C72538  -1.577   4.234   7.004 -0.0188  0.8371  0.0556
  538MOL0    Cl72539  -1.549   4.386   7.093 -0.4058  0.5267  0.3961
  538MOL0     C72540  -1.331   3.211   7.383 -0.8600 -0.6060  0.9355
  538MOL0     C72541  -1.261   3.091   7.400  0.0996 -0.7174  0.7589
  538MOL0     O72542  -1.244   2.816   7.538 -0.2978 -0.1036 -0.1897
  538MOL0     C72543  -1.068   2.602   7.526  0.3861 -0.1768 -0.6890
  538MOL0     C72544  -0.976   2.502   7.515  0.1780 -0.9001  0.4449
  538MOL0     N72545  -0.385   2.011   7.603 -0.4963  0.6356  1.0304
  538MOL0     N72546  -0.273   2.009   7.670 -0.0704  0.8089  0.7125
  538MOL0     C72547  -0.244   2.658   8.204 -0.8852  0.1979  0.3822
  538MOL0     C72548  -0.186   2.697   8.320 -0.3107  0.5422 -0.3565
  538MOL0     C72549   0.194   2.772   8.587 -0.1296 -0.2265  0.0128
  538MOL0     C72550   0.198   2.912   8.620 -0.3808 -0.0184  0.3889
  538MOL0     C72551   0.268   2.961   8.728 -1.2578 -0.1400  0.3947
  538MOL0     C72552   0.342   2.872   8.804 -1.0444 -0.2571 -0.5387
  538MOL0     O72553   0.414   2.931   8.904  0.2119 -0.2086  0.7386
  538MOL0     C72554   0.501   2.841   8.980 -0.2721  0.0185 -0.2053
  538MOL0     C72555   0.556   2.933   9.080 -0.0596 -0.1169 -0.2569
  538MOL0     C72556   0.676   2.884   9.157 -0.0240 -0.8865 -0.3111
  538MOL0     C72557   0.664   2.764   9.238 -0.0942  0.4350 -0.4047
  538MOL0     C72558   0.695   2.643   9.163 -0.5288 -0.7407  0.5887
  538MOL0     C72559   0.707   2.545   9.090 -0.6080  0.7458 -0.6476
  538MOL0     C72560   0.349   2.733   8.766  0.7252  0.1311 -0.4415
  538MOL0     C72561   0.268   2.675   8.663  0.9542 -0.4492 -0.1891
  538MOL0     C72562   0.285   2.520   8.639  0.1758  0.5546 -0.1288
  538MOL0     H72563   0.077   2.876   8.188  0.3323 -0.9054  1.1716
  538MOL0     H72564  -0.051   2.805   7.972  1.1369 -0.1091 -0.3853
  538MOL0     H72565  -0.357   2.487   8.024  0.9372  0.4971  0.0714
  538MOL0     H72566  -0.465   2.632   7.980  0.2347  0.7437  0.4790
  538MOL0     H72567  -0.333   2.592   7.745 -2.8451  2.2233  0.5032
  538MOL0     H72568  -0.481   2.523   7.785 -1.3026  2.5330  2.4608
  538MOL0     H72569  -0.317   2.362   7.695  2.1897  0.5599 -0.1868
  538MOL0     H72570  -0.353   2.302   7.842  1.3967 -1.3822 -2.4285
  538MOL0     H72571  -0.099   2.483   7.798  1.0591  0.4073  0.5449
  538MOL0     H72572  -0.153   2.419   7.954  1.1486  0.6259 -0.0904
  538MOL0     H72573   0.014   2.267   7.861 -0.1120 -3.2075 -0.0376
  538MOL0     H72574  -0.127   2.174   7.845 -0.7151 -1.3069 -1.0810
  538MOL0     H72575  -0.131   2.294   7.604  0.1665 -1.1554 -1.5307
  538MOL0     H72576   0.028   2.356   7.657  0.2798 -0.3774  0.1196
  538MOL0     H72577   0.127   2.146   7.682 -1.6890  1.7032  1.5563
  538MOL0     H72578   0.068   2.165   7.522 -0.7467 -2.0811  0.6875
  538MOL0     H72579   0.019   1.942   7.565  1.0917  0.8045  0.6782
  538MOL0     H72580  -0.032   1.978   7.733 -3.4877  0.7268  0.3950
  538MOL0     H72581  -0.149   2.091   7.377 -0.7751  0.2466  0.2190
  538MOL0     H72582  -0.419   2.067   7.265 -2.5428  3.3242 -2.1345
  538MOL0     H72583  -0.534   2.021   7.382 -0.7543  0.8679  0.6188
  538MOL0     H72584  -0.378   2.276   7.411 -0.0840  0.1365  1.1091
  538MOL0     H72585  -0.534   2.262   7.301 -0.9104  0.0441  0.4650
  538MOL0     H72586  -0.480   2.270   7.590  0.3150 -2.8766 -1.7434
  538MOL0     H72587  -0.634   2.204   7.526 -0.2053 -0.6929  1.5752
  538MOL0     H72588  -0.600   2.464   7.413 -1.2099 -0.5936 -0.6436
  538MOL0     H72589  -0.580   2.475   7.593 -2.9778  0.0082  0.6270
  538MOL0     H72590  -0.690   2.672   7.510 -0.7185  0.6245  0.9727
  538MOL0     H72591  -0.852   2.853   7.512  2.0899 -0.2022 -0.8848
  538MOL0     H72592  -1.061   3.180   7.661  0.5623 -1.0702 -0.4446
  538MOL0     H72593  -1.173   3.393   7.629  0.5264 -0.7095 -1.2085
  538MOL0     H72594  -1.318   3.581   7.574 -1.2656  1.6421  0.7394
  538MOL0     H72595  -1.217   3.584   7.425 -0.2543  0.9809  2.5567
  538MOL0     H72596  -1.426   3.649   7.297 -2.2627  0.5433 -0.6036
  538MOL0     H72597  -1.504   3.683   7.442 -1.3098 -0.3777 -3.5575
  538MOL0     H72598  -1.340   3.835   7.534 -1.6349  0.3026  0.0830
  538MOL0     H72599  -1.247   3.824   7.387 -0.1155 -1.1942 -0.7029
  538MOL0     H72600  -1.443   4.026   7.426  0.1123  3.5956 -3.1453
  538MOL0     H72601  -1.550   3.902   7.391 -0.7436  0.9185 -3.5456
  538MOL0     H72602  -1.469   3.879   7.177 -1.7425  1.5856 -1.9451
  538MOL0     H72603  -1.316   3.977   7.216 -0.6873  0.3945 -0.0308
  538MOL0     H72604  -1.603   4.080   7.220 -0.2655 -0.6349  1.0818
  538MOL0     H72605  -1.464   4.174   7.261 -3.8022  0.5207  0.9950
  538MOL0     H72606  -1.523   4.042   6.986  0.3919  0.4174  0.1032
  538MOL0     H72607  -1.390   4.156   7.011  2.2851 -2.9203  1.9917
  538MOL0     H72608  -1.562   4.237   6.896 -3.1451 -2.6676 -0.6644
  538MOL0     H72609  -1.684   4.212   7.008 -0.2567  1.6872 -1.2018
  538MOL0     H72610  -1.418   3.210   7.319 -0.0460 -2.8803 -0.2216
  538MOL0     H72611  -1.286   3.018   7.324 -1.0435  0.9722 -0.5965
  538MOL0     H72612  -1.171   2.567   7.523 -0.4935  2.2506 -1.9045
  538MOL0     H72613  -1.013   2.399   7.517 -2.1447 -0.1640  3.3732
  538MOL0     H72614  -0.334   2.596   8.212  0.0162 -0.9666  2.1537
  538MOL0     H72615  -0.231   2.671   8.415  1.9270 -4.9022 -0.4197
  538MOL0     H72616   0.148   2.988   8.562  0.6715  0.2409 -0.2002
  538MOL0     H72617   0.280   3.067   8.742 -0.1668 -0.0790 -0.7395
  538MOL0     H72618   0.576   2.796   8.915  1.0658  1.5054  0.2261
  538MOL0     H72619   0.447   2.763   9.035 -1.4487 -0.8604 -2.4929
  538MOL0     H72620   0.483   2.963   9.156  1.7800  1.4641  0.9694
  538MOL0     H72621   0.589   3.021   9.024 -2.9157  1.2040 -0.0538
  538MOL0     H72622   0.703   2.963   9.227  1.8654 -0.3922 -1.5180
  538MOL0     H72623   0.755   2.870   9.082 -2.0241 -0.3520 -2.6258
  538MOL0     H72624   0.729   2.770   9.326  0.2528 -0.6173 -0.5866
  538MOL0     H72625   0.560   2.750   9.268  0.6915 -1.6491  1.6364
  538MOL0     H72626   0.727   2.458   9.031  0.2984  0.9849 -0.7070
  538MOL0     H72627   0.401   2.658   8.824  0.4789  1.6165  1.8438
  538MOL0     H72628   0.203   2.477   8.697  0.5683 -0.4965 -0.3199
  538MOL0     H72629   0.260   2.492   8.536  0.3838 -0.6149  0.1214
  538MOL0     H72630   0.381   2.474   8.665  0.4229  0.6290 -0.8847
  539MOL0     O72631   3.834   2.558   0.405 -0.1218  0.0945 -0.5838
  539MOL0     C72632   3.781   2.628   0.319  0.0915  0.4825 -0.7921
  539MOL0     O72633   3.849   2.688   0.216  0.0218 -0.1485  0.1957
  539MOL0     C72634   3.983   2.690   0.199 -0.9731 -0.3902  0.1648
  539MOL0     C72635   4.052   2.679   0.078  0.2852  0.4346 -0.2552
  539MOL0     C72636   4.191   2.680   0.075  0.2516 -0.3406  0.1796
  539MOL0     C72637   4.266   2.675   0.191  0.0026 -0.1874  0.6263
  539MOL0     O72638   4.399   2.679   0.166 -0.0467  0.9613  0.1054
  539MOL0     C72639   4.486   2.717   0.282 -0.4443  0.2413 -0.4125
  539MOL0     C72640   4.635   2.734   0.248 -0.4125  0.4951 -0.6441
  539MOL0     C72641   4.691   2.616   0.159  0.4631  0.3042 -0.4980
  539MOL0     C72642   4.821   2.544   0.217  0.5647  0.4182 -0.6583
  539MOL0     C72643   4.872   2.450   0.103 -0.0395  0.2084 -0.3204
  539MOL0     C72644   4.809   2.307   0.101  0.2801 -0.5556 -0.2170
  539MOL0     C72645   4.885   2.211   0.011  0.4258  0.1335 -0.3193
  539MOL0     C72646   4.861   2.242  -0.143  0.3582  0.0630  1.1664
  539MOL0     N72647   4.970   2.205  -0.236 -0.5552  0.9462 -0.1527
  539MOL0     C72648   5.033   2.082  -0.243  0.5860 -0.3501  0.4678
  539MOL0     C72649   5.124   2.093  -0.330  0.4633  1.1134 -0.4146
  539MOL0     C72650   5.216   1.994  -0.387 -0.6119  0.4180 -0.6972
  539MOL0     C72651   5.307   2.045  -0.505  0.6585  0.1895 -0.2003
  539MOL0     C72652   5.402   1.940  -0.562  0.0680 -0.3610 -0.2540
  539MOL0     C72653   5.547   1.964  -0.525  1.1962 -0.5089  0.1181
  539MOL0     O72654   5.648   1.912  -0.612 -0.1017 -0.1219 -0.0309
  539MOL0     C72655   5.666   1.781  -0.612  0.0782 -1.2622  0.4364
  539MOL0     C72656   5.633   1.692  -0.506  0.4065  0.6452  0.1799
  539MOL0     C72657   5.643   1.551  -0.512  0.7061  0.9472  0.2348
  539MOL0     C72658   5.691   1.498  -0.637 -0.0679 -0.9400 -0.8137
  539MOL0     C72659   5.690   1.359  -0.650  0.7571 -0.0037 -0.6052
  539MOL0     O72660   5.617   1.288  -0.562  0.5733 -0.1211  0.3527
  539MOL0     C72661   5.578   1.154  -0.584 -0.2568  0.0092  1.0909
  539MOL0     C72662   5.546   1.071  -0.479  0.1483 -0.9178  0.3394
  539MOL0     C72663   5.499   0.940  -0.485  0.1440 -0.7781  0.1459
  539MOL0     C72664   5.478   0.887  -0.613 -0.0343 -0.0434 -0.3472
  539MOL0     O72665   5.428   0.757  -0.649  0.4691 -0.4980 -0.1858
  539MOL0     C72666   5.407   0.678  -0.527  0.5863  1.0611 -0.0912
  539MOL0     C72667   5.330   0.544  -0.567  0.4395  0.6351  1.0139
  539MOL0     C72668   5.196   0.583  -0.622  0.5580 -0.0860 -0.0110
  539MOL0     C72669   5.109   0.470  -0.678  0.1245  0.3085 -0.4114
  539MOL0     C72670   4.991   0.507  -0.771  0.2637  0.6124 -0.0077
  539MOL0     C72671   4.888   0.389  -0.774  0.6956  0.9907  0.4355
  539MOL0     C72672   4.785   0.413  -0.888  0.5999 -0.2492 -0.3557
  539MOL0     C72673   4.679   0.312  -0.877  0.1143  0.7290 -0.2803
  539MOL0    Cl72674   4.514   0.346  -0.940  0.0884 -0.2284  0.3135
  539MOL0     C72675   5.521   0.960  -0.733  0.4211  0.5396  0.0963
  539MOL0     C72676   5.567   1.090  -0.716  0.4752 -0.9004 -0.4791
  539MOL0     O72677   5.762   1.315  -0.738  0.6195  0.0207  0.0042
  539MOL0     C72678   5.736   1.589  -0.736 -0.1696  0.4540 -0.4621
  539MOL0     C72679   5.730   1.721  -0.722 -0.5179  0.7631 -0.9704
  539MOL0     N72680   5.127   2.221  -0.386  0.1444  0.3081 -0.0367
  539MOL0     N72681   5.029   2.289  -0.325 -0.4668 -0.5545 -0.5663
  539MOL0     C72682   4.199   2.683   0.315  0.2074  0.2968  0.6660
  539MOL0     C72683   4.060   2.696   0.316 -0.2424 -0.1349 -0.7970
  539MOL0     C72684   3.633   2.642   0.324  0.4404  0.1260 -1.0896
  539MOL0     C72685   3.571   2.693   0.210 -0.7221 -0.7402  0.2360
  539MOL0     C72686   3.431   2.703   0.206 -0.5638 -0.0139  0.1325
  539MOL0     C72687   3.350   2.660   0.307  0.4161  0.2113 -0.2022
  539MOL0     O72688   3.212   2.664   0.305  1.2172 -0.3322 -1.1812
  539MOL0     C72689   3.144   2.687   0.184  0.1234  0.1819 -0.2122
  539MOL0     C72690   2.996   2.688   0.218  0.6588 -0.0307 -0.3948
  539MOL0     C72691   2.912   2.672   0.085 -0.3109  0.4287  0.6124
  539MOL0     C72692   2.759   2.677   0.103 -0.7775 -0.9382 -0.1486
  539MOL0     C72693   2.718   2.803   0.170 -0.2460  0.7445 -0.1405
  539MOL0     C72694   2.679   2.905   0.226 -0.0997 -0.6654  0.9921
  539MOL0     C72695   3.396   2.609   0.420 -0.2536 -0.0909  0.2560
  539MOL0     C72696   3.542   2.601   0.438  0.0752 -0.8753  0.6957
  539MOL0     C72697   3.592   2.545   0.570 -0.5038 -0.3127 -0.3469
  539MOL0     H72698   4.003   2.635  -0.008  1.3230 -0.9042 -0.1854
  539MOL0     H72699   4.239   2.660  -0.020 -1.1679 -0.6846 -0.5016
  539MOL0     H72700   4.443   2.813   0.311  0.6633  1.2739 -2.0109
  539MOL0     H72701   4.487   2.646   0.365  0.4176  1.0655  0.3070
  539MOL0     H72702   4.688   2.754   0.342  2.7094 -0.1106 -2.1221
  539MOL0     H72703   4.647   2.826   0.190 -1.3074  1.7262  1.0480
  539MOL0     H72704   4.694   2.642   0.053 -2.6704  0.9611 -0.5021
  539MOL0     H72705   4.614   2.538   0.154  0.1513  0.5482  0.3694
  539MOL0     H72706   4.897   2.622   0.225 -0.3890  1.3578 -0.6394
  539MOL0     H72707   4.804   2.485   0.308  0.3569 -0.0077 -0.9686
  539MOL0     H72708   4.860   2.504   0.008  1.1952  0.7882 -0.1675
  539MOL0     H72709   4.979   2.441   0.124 -0.4259  1.8063  3.0166
  539MOL0     H72710   4.797   2.276   0.205 -2.9083 -2.2662 -0.9690
  539MOL0     H72711   4.711   2.329   0.058  1.2311  1.1663 -1.6810
  539MOL0     H72712   4.854   2.109   0.036  0.5520  0.0826 -0.3708
  539MOL0     H72713   4.993   2.225   0.023  0.5894 -0.9683 -0.4098
  539MOL0     H72714   4.768   2.200  -0.181 -0.6508  2.9918  0.1033
  539MOL0     H72715   4.857   2.352  -0.149  0.1466  0.1197  2.2605
  539MOL0     H72716   5.029   1.995  -0.179  0.7723 -0.0171  0.9416
  539MOL0     H72717   5.274   1.958  -0.301 -1.9585  2.1466  1.0071
  539MOL0     H72718   5.159   1.906  -0.420 -1.3691  1.0420 -1.0618
  539MOL0     H72719   5.251   2.092  -0.587 -0.0428 -0.0973  0.1065
  539MOL0     H72720   5.360   2.125  -0.452 -1.9120  0.0495  2.8417
  539MOL0     H72721   5.396   1.927  -0.670 -0.2033 -2.8191 -0.0181
  539MOL0     H72722   5.363   1.845  -0.525 -1.5258  0.5210  0.4034
  539MOL0     H72723   5.567   1.927  -0.425  0.2027 -1.4899 -0.0305
  539MOL0     H72724   5.552   2.073  -0.534  0.6762 -0.4486  0.5454
  539MOL0     H72725   5.586   1.715  -0.410  0.6675 -2.7690  1.3001
  539MOL0     H72726   5.607   1.476  -0.443 -0.6448  1.5524  0.2311
  539MOL0     H72727   5.560   1.120  -0.383 -1.6101 -1.5503  0.9641
  539MOL0     H72728   5.490   0.885  -0.391  1.1172 -0.4456  0.4403
  539MOL0     H72729   5.505   0.646  -0.490  0.1493 -0.0149  0.1841
  539MOL0     H72730   5.353   0.739  -0.455  1.6076  2.5421 -0.5509
  539MOL0     H72731   5.389   0.487  -0.640  0.0933  1.7868 -0.2125
  539MOL0     H72732   5.301   0.488  -0.478  5.1145 -1.2330  1.6486
  539MOL0     H72733   5.146   0.636  -0.541  4.0621  2.4062  0.7627
  539MOL0     H72734   5.204   0.670  -0.688  4.7193  0.5967  1.0760
  539MOL0     H72735   5.071   0.425  -0.585  0.1866  1.6809  0.3031
  539MOL0     H72736   5.170   0.400  -0.735 -0.2172  0.0446 -0.4558
  539MOL0     H72737   5.046   0.522  -0.864  0.9885  0.4402  0.3818
  539MOL0     H72738   4.938   0.598  -0.742 -2.3710 -0.3021 -1.5708
  539MOL0     H72739   4.938   0.294  -0.795  1.1750  1.4911 -0.7828
  539MOL0     H72740   4.829   0.386  -0.682 -1.7252  0.4348 -1.0444
  539MOL0     H72741   4.830   0.390  -0.985 -2.5414  0.6713 -2.1847
  539MOL0     H72742   4.749   0.516  -0.882 -0.5853 -0.6725  0.1221
  539MOL0     H72743   4.718   0.218  -0.917  1.0062  1.0665 -0.2236
  539MOL0     H72744   4.664   0.300  -0.769  1.3232  2.8409  0.1787
  539MOL0     H72745   5.507   0.908  -0.827 -2.1864 -1.9372  1.6871
  539MOL0     H72746   5.584   1.144  -0.808 -2.9900 -3.7176 -3.0862
  539MOL0     H72747   5.762   1.542  -0.830 -1.1436  3.7701 -2.5518
  539MOL0     H72748   5.784   1.790  -0.786 -0.9906 -0.3346 -2.6307
  539MOL0     H72749   4.260   2.684   0.405  2.6801  2.4023 -0.8531
  539MOL0     H72750   4.015   2.718   0.413  0.1558  1.9471 -1.0242
  539MOL0     H72751   3.630   2.718   0.123 -0.6652 -1.8285 -0.0507
  539MOL0     H72752   3.394   2.745   0.113  1.2393 -0.5673 -0.8839
  539MOL0     H72753   3.164   2.601   0.120 -1.6334 -0.3368 -0.1194
  539MOL0     H72754   3.174   2.779   0.133 -0.2064  1.0494  1.1069
  539MOL0     H72755   2.976   2.785   0.263 -0.0666 -0.2099 -0.3192
  539MOL0     H72756   2.971   2.609   0.289  0.8349  0.1165 -0.1713
  539MOL0     H72757   2.937   2.580   0.031 -0.5821  1.5008 -1.4595
  539MOL0     H72758   2.954   2.748   0.018  2.1326  1.4912  3.1380
  539MOL0     H72759   2.710   2.681   0.006  2.1985 -0.6880 -1.7859
  539MOL0     H72760   2.721   2.595   0.164 -3.0413  1.4226  1.8240
  539MOL0     H72761   2.655   2.997   0.276  1.3817 -0.3164  1.1144
  539MOL0     H72762   3.338   2.602   0.512  1.0033 -2.6278  0.9471
  539MOL0     H72763   3.519   2.532   0.650 -1.1033 -1.4645 -1.0372
  539MOL0     H72764   3.643   2.450   0.553  0.0558 -0.1331  0.3253
  539MOL0     H72765   3.661   2.619   0.609 -0.2263 -0.8709  0.2344
  540MOL0     O72766   6.348   2.221  10.854  0.2281 -0.4126  0.8454
  540MOL0     C72767   6.244   2.226  10.919  0.7222 -0.0113  0.6547
  540MOL0     O72768   6.140   2.145  10.887 -0.0567 -0.1718  0.4214
  540MOL0     C72769   6.140   2.023  10.825 -0.5923  0.4450 -0.9666
  540MOL0     C72770   6.080   2.010  10.701 -0.3851  0.4915  0.4552
  540MOL0     C72771   6.084   1.887  10.626  0.5222 -0.0822  0.0011
  540MOL0     C72772   6.129   1.770  10.689  0.5053  0.2505 -0.4657
  540MOL0     O72773   6.107   1.652  10.623 -0.0317 -0.4178 -0.0831
  540MOL0     C72774   6.187   1.546  10.672  0.3293 -0.5851 -0.5820
  540MOL0     C72775   6.177   1.415  10.589  0.2590  0.7496  0.3585
  540MOL0     C72776   6.209   1.290  10.673  0.1463  0.3175 -0.1913
  540MOL0     C72777   6.167   1.152  10.605 -0.0906 -0.1903  0.2852
  540MOL0     C72778   6.269   1.085  10.509  0.8219 -1.1877 -0.5526
  540MOL0     C72779   6.206   0.975  10.424 -0.4748 -0.2203  0.3519
  540MOL0     C72780   6.308   0.926  10.326 -0.1759  0.4464 -0.0440
  540MOL0     C72781   6.269   0.808  10.240 -0.1836 -0.6127 -0.5172
  540MOL0     N72782   6.376   0.780  10.145  0.3027 -0.2875  0.9567
  540MOL0     C72783   6.441   0.852  10.047  0.6506  0.0671 -0.0472
  540MOL0     C72784   6.514   0.776   9.963  0.4280 -0.2275 -0.6289
  540MOL0     C72785   6.591   0.847   9.858 -0.1437  0.2784  0.0092
  540MOL0     C72786   6.657   0.747   9.767  0.0993 -0.4978  0.8227
  540MOL0     C72787   6.765   0.647   9.813 -0.0647  0.1116  0.6052
  540MOL0     C72788   6.871   0.714   9.888 -0.0134  0.7740 -0.0050
  540MOL0     O72789   6.911   0.831   9.818  0.0559 -0.5643  0.0713
  540MOL0     C72790   7.026   0.823   9.735 -0.1060 -1.3263 -0.6895
  540MOL0     C72791   7.101   0.712   9.693  0.2919  1.0303 -0.2611
  540MOL0     C72792   7.199   0.723   9.593  0.0415 -0.7212 -0.0377
  540MOL0     C72793   7.229   0.858   9.546 -0.1077 -0.3819 -0.0996
  540MOL0     C72794   7.348   0.882   9.455 -0.0367  0.2504 -0.0020
  540MOL0     O72795   7.395   1.009   9.463  0.3403  0.0598  0.6037
  540MOL0     C72796   7.508   1.029   9.380  0.0635  0.6751  0.2817
  540MOL0     C72797   7.494   1.020   9.245 -0.8411 -0.1331  0.7430
  540MOL0     C72798   7.601   1.063   9.157 -0.4375 -0.8075  0.4158
  540MOL0     C72799   7.715   1.114   9.214 -0.7530 -0.1075 -0.7742
  540MOL0     O72800   7.823   1.133   9.130 -0.5729 -0.0272 -0.2462
  540MOL0     C72801   7.841   1.051   9.013  0.0016  0.0029  0.2402
  540MOL0     C72802   7.982   1.073   8.947 -0.2992  0.1420 -0.5170
  540MOL0     C72803   8.096   0.975   8.992  0.5666 -0.6158  0.5957
  540MOL0     C72804   8.180   0.922   8.870 -0.2026  0.3568 -0.5553
  540MOL0     C72805   8.333   0.917   8.901 -0.1696 -0.4415  0.6181
  540MOL0     C72806   8.345   0.824   9.028 -0.2583  0.1917 -0.1566
  540MOL0     C72807   8.490   0.794   9.047 -0.0886 -0.3522  0.0391
  540MOL0     C72808   8.559   0.699   8.945  0.7233 -0.3602 -0.3813
  540MOL0    Cl72809   8.444   0.567   8.910 -0.2393  0.2925  0.0380
  540MOL0     C72810   7.722   1.130   9.356 -0.0456  0.2901 -0.9200
  540MOL0     C72811   7.620   1.078   9.437 -0.6795  0.5690  0.8462
  540MOL0     O72812   7.398   0.787   9.393  0.3586 -0.7360  0.2559
  540MOL0     C72813   7.157   0.969   9.595  0.7911 -0.0940  0.3793
  540MOL0     C72814   7.055   0.954   9.688 -0.2369  1.1521 -0.8900
  540MOL0     N72815   6.484   0.649  10.007  0.2281 -0.3703 -0.2713
  540MOL0     N72816   6.405   0.651  10.114  0.3970 -0.4644 -0.7061
  540MOL0     C72817   6.186   1.777  10.822  0.3070  0.5115 -0.1162
  540MOL0     C72818   6.185   1.904  10.887 -0.3116  0.0289  0.4456
  540MOL0     C72819   6.227   2.335  11.013  0.1516 -0.0278 -0.1787
  540MOL0     C72820   6.094   2.371  11.046  0.4874  0.4472 -0.2648
  540MOL0     C72821   6.055   2.475  11.129 -0.1759  0.1603  0.3848
  540MOL0     C72822   6.165   2.547  11.185  0.1448 -0.0888  0.0407
  540MOL0     O72823   6.152   2.655  11.275 -0.7638 -0.1383 -0.3491
  540MOL0     C72824   6.071   2.756  11.209 -0.2775 -0.4407 -0.6288
  540MOL0     C72825   6.088   2.898  11.280 -0.3374  1.0260 -1.4685
  540MOL0     C72826   6.016   2.889  11.414 -0.0827  0.5477 -0.1837
  540MOL0     C72827   6.002   3.035  11.484  0.7247  0.3620  0.5475
  540MOL0     C72828   5.945   3.012  11.613  0.9043  0.3189 -0.3821
  540MOL0     C72829   5.879   2.965  11.711 -0.3101 -0.4981  0.0949
  540MOL0     C72830   6.298   2.523  11.156  0.4662 -1.4427 -0.0899
  540MOL0     C72831   6.333   2.409  11.071 -0.5199  0.1220  0.4201
  540MOL0     C72832   6.477   2.392  11.057  0.2555  0.4371 -0.4772
  540MOL0     H72833   6.036   2.096  10.650 -0.9769  0.0340  0.1834
  540MOL0     H72834   6.045   1.867  10.526  3.7867 -2.1057 -1.0422
  540MOL0     H72835   6.294   1.559  10.691  1.0581 -1.4883 -3.5453
  540MOL0     H72836   6.142   1.515  10.767  2.1443 -0.5235  0.3405
  540MOL0     H72837   6.238   1.420  10.498  3.0251 -2.1187  1.8691
  540MOL0     H72838   6.073   1.413  10.556  0.0727  0.3965  0.9558
  540MOL0     H72839   6.150   1.291  10.765 -0.0223  0.2510 -0.2987
  540MOL0     H72840   6.316   1.288  10.696  1.3375 -2.7394 -4.7920
  540MOL0     H72841   6.144   1.083  10.687 -2.5843 -1.1911 -1.1625
  540MOL0     H72842   6.079   1.175  10.543  0.4651  1.4062  0.0308
  540MOL0     H72843   6.290   1.172  10.446 -1.1863  0.2133  0.6022
  540MOL0     H72844   6.356   1.042  10.559  0.6340 -2.4305 -1.2397
  540MOL0     H72845   6.178   0.893  10.491 -4.2985 -1.2601 -2.2215
  540MOL0     H72846   6.113   1.008  10.375 -0.1672  1.8720  1.0587
  540MOL0     H72847   6.399   0.898  10.380  1.0027  0.5081 -1.8831
  540MOL0     H72848   6.331   1.010  10.260  1.0506  1.2642  1.3444
  540MOL0     H72849   6.251   0.720  10.302  1.1669  0.9028  2.2124
  540MOL0     H72850   6.177   0.825  10.184 -0.3821 -1.9821 -0.6290
  540MOL0     H72851   6.433   0.960  10.040  2.1048  0.3134  1.4929
  540MOL0     H72852   6.535   0.921   9.800  0.9706  2.5095  1.6294
  540MOL0     H72853   6.654   0.917   9.914 -1.9629 -0.3925  3.1235
  540MOL0     H72854   6.582   0.679   9.726  0.6082 -0.9165  0.5724
  540MOL0     H72855   6.704   0.799   9.683  0.4361  0.6717  1.7073
  540MOL0     H72856   6.798   0.587   9.728  0.5445  2.4775 -0.9304
  540MOL0     H72857   6.729   0.576   9.888  0.7952 -0.8132  0.1792
  540MOL0     H72858   6.952   0.646   9.917  0.9010  2.1974  0.9252
  540MOL0     H72859   6.831   0.748   9.984 -3.1421  1.5197 -1.4525
  540MOL0     H72860   7.071   0.615   9.731  1.9493  0.5509 -0.1037
  540MOL0     H72861   7.261   0.636   9.574  2.3086  0.9304 -0.5911
  540MOL0     H72862   7.410   0.973   9.195 -0.6799 -0.1268  0.4644
  540MOL0     H72863   7.598   1.039   9.051  4.5175 -0.4513 -0.0344
  540MOL0     H72864   7.831   0.943   9.027  0.7153 -0.0283  0.5310
  540MOL0     H72865   7.775   1.083   8.932  0.1311 -0.6396 -0.1264
  540MOL0     H72866   7.964   1.076   8.840  1.1909 -1.1969 -0.8394
  540MOL0     H72867   8.014   1.173   8.976  0.6980  0.1617 -1.6125
  540MOL0     H72868   8.168   1.022   9.059  3.8884 -3.8556 -0.3518
  540MOL0     H72869   8.057   0.887   9.043  2.3323 -2.3854 -0.9530
  540MOL0     H72870   8.155   0.973   8.777  0.0544 -2.8212 -2.5255
  540MOL0     H72871   8.142   0.820   8.858 -0.7379  0.9102 -5.0534
  540MOL0     H72872   8.372   1.018   8.919 -2.0071  0.3177  0.4984
  540MOL0     H72873   8.375   0.870   8.812 -2.0066  1.0922 -1.1566
  540MOL0     H72874   8.321   0.868   9.125  2.9054 -1.2037  1.4204
  540MOL0     H72875   8.290   0.732   9.008 -0.5680  0.3632 -0.0912
  540MOL0     H72876   8.484   0.751   9.147 -0.7179 -0.6095 -0.1032
  540MOL0     H72877   8.547   0.887   9.045  2.0201 -1.5514 -2.5421
  540MOL0     H72878   8.571   0.764   8.858 -3.7429 -0.4088 -1.2958
  540MOL0     H72879   8.654   0.667   8.988  0.2695  0.8362  1.5959
  540MOL0     H72880   7.817   1.158   9.400 -0.0875  0.3637 -0.8768
  540MOL0     H72881   7.610   1.093   9.544 -2.2121  2.2220  0.5092
  540MOL0     H72882   7.169   1.067   9.550 -2.1666 -0.1511 -0.7156
  540MOL0     H72883   7.008   1.043   9.728 -0.5236  1.0319 -0.9536
  540MOL0     H72884   6.240   1.706  10.884 -0.5114  3.4359  4.4635
  540MOL0     H72885   6.234   1.922  10.982 -0.2887  0.4129  0.3626
  540MOL0     H72886   6.008   2.317  11.006  0.2371  0.0802  0.7361
  540MOL0     H72887   5.957   2.506  11.164 -0.0898  0.7078  0.1428
  540MOL0     H72888   5.966   2.728  11.214  0.4550 -4.3732 -3.1647
  540MOL0     H72889   6.096   2.765  11.103 -0.2350  1.2773 -0.5144
  540MOL0     H72890   6.050   2.978  11.216  1.2431  2.7248 -0.3893
  540MOL0     H72891   6.193   2.916  11.304 -0.3340 -0.3105 -0.3543
  540MOL0     H72892   6.082   2.829  11.477 -0.8579  0.7542  0.8750
  540MOL0     H72893   5.913   2.851  11.406  0.0420 -0.4965  2.1366
  540MOL0     H72894   6.101   3.079  11.492  0.1576  2.2332 -1.5695
  540MOL0     H72895   5.932   3.097  11.426 -1.6636 -2.8294 -0.2548
  540MOL0     H72896   5.824   2.945  11.801 -1.6817 -2.0957 -1.0261
  540MOL0     H72897   6.374   2.592  11.192  0.0843  0.2654 -2.3340
  540MOL0     H72898   6.538   2.477  11.090 -0.4682  0.6810  0.2713
  540MOL0     H72899   6.517   2.311  11.118  1.3489  0.7053 -0.8135
  540MOL0     H72900   6.513   2.384  10.954  3.5476  1.1073  0.5005
  541MOL0     O72901   8.823   9.029   0.396  1.3484  0.0452  0.5893
  541MOL0     C72902   8.743   8.936   0.410 -0.4108 -0.2614 -0.1993
  541MOL0     O72903   8.744   8.849   0.517  0.9947 -0.2481  0.1799
  541MOL0     C72904   8.856   8.836   0.599 -0.1877  0.0340  0.1243
  541MOL0     C72905   8.823   8.801   0.731 -0.3571  0.7720 -0.3507
  541MOL0     C72906   8.933   8.771   0.822 -0.9568 -0.0449 -0.2222
  541MOL0     C72907   9.074   8.786   0.790 -0.2272  0.0837 -0.2595
  541MOL0     O72908   9.171   8.770   0.879  0.0611  0.0962  0.0789
  541MOL0     C72909   9.167   8.663   0.981 -0.1141  0.6418  0.9271
  541MOL0     C72910   9.310   8.633   1.028  0.3351 -0.5961  0.8790
  541MOL0     C72911   9.404   8.592   0.913 -0.2288 -0.5072 -0.9726
  541MOL0     C72912   9.543   8.533   0.964 -0.2062 -0.7525 -0.3239
  541MOL0     C72913   9.638   8.518   0.837  0.6552 -0.2059 -0.5558
  541MOL0     C72914   9.798   8.495   0.867  0.0078 -0.4569 -0.1298
  541MOL0     C72915   9.812   8.375   0.968 -0.1943 -0.7248  0.6661
  541MOL0     C72916   9.959   8.356   1.013 -0.4271  0.5733  0.5191
  541MOL0     N72917  10.042   8.361   0.894 -0.4134  0.1092  0.1576
  541MOL0     C72918  10.124   8.465   0.850  0.1934  0.4616  0.1149
  541MOL0     C72919  10.200   8.418   0.752 -0.0017 -0.1396  0.7289
  541MOL0     C72920  10.292   8.514   0.667  1.0450 -0.6338 -0.1898
  541MOL0     C72921  10.362   8.418   0.568 -0.3455 -0.4231 -0.1867
  541MOL0     C72922  10.433   8.485   0.459 -0.1455 -0.4591  0.0828
  541MOL0     C72923  10.346   8.571   0.375  0.1328  0.2879  0.8454
  541MOL0     O72924  10.430   8.622   0.269  0.0099 -0.2153  0.3917
  541MOL0     C72925  10.379   8.596   0.146 -0.0179 -0.0373  0.3363
  541MOL0     C72926  10.475   8.590   0.044  1.1140  0.1159 -0.0878
  541MOL0     C72927  10.445   8.558  -0.082  0.0162  0.6828  0.1334
  541MOL0     C72928  10.310   8.529  -0.121 -0.7002 -0.7527  0.4693
  541MOL0     C72929  10.280   8.490  -0.261  1.1006  0.4685 -1.0814
  541MOL0     O72930  10.169   8.411  -0.286  1.0193 -0.3492 -0.5591
  541MOL0     C72931  10.132   8.387  -0.415 -0.1750 -0.3644  0.2165
  541MOL0     C72932  10.038   8.463  -0.483 -0.3706 -0.6478  0.2866
  541MOL0     C72933   9.999   8.427  -0.611 -0.6861  0.3964  0.2548
  541MOL0     C72934  10.060   8.320  -0.679 -0.5180 -0.9336  0.6657
  541MOL0     O72935  10.032   8.281  -0.815 -0.4025 -0.5957 -1.1503
  541MOL0     C72936   9.905   8.335  -0.868 -0.1537 -0.1704  0.3023
  541MOL0     C72937   9.863   8.237  -0.979  0.5624 -0.3054 -0.1630
  541MOL0     C72938   9.745   8.294  -1.053  0.3519  0.2917  0.2860
  541MOL0     C72939   9.692   8.189  -1.152 -0.0154  0.3931 -0.3500
  541MOL0     C72940   9.577   8.236  -1.238  0.4553 -0.3722 -0.3175
  541MOL0     C72941   9.537   8.146  -1.353 -0.4109 -0.6869 -0.3886
  541MOL0     C72942   9.441   8.225  -1.446  0.2456  0.3228  0.8958
  541MOL0     C72943   9.305   8.270  -1.395 -0.2079 -0.2409  0.9244
  541MOL0    Cl72944   9.193   8.333  -1.521  0.4228 -0.1481 -0.0950
  541MOL0     C72945  10.174   8.259  -0.618  0.4639  0.2073  0.2792
  541MOL0     C72946  10.200   8.287  -0.482  1.4301  0.6312 -0.0760
  541MOL0     O72947  10.356   8.531  -0.349 -0.1752  0.0738 -0.1590
  541MOL0     C72948  10.212   8.539  -0.028 -0.3333 -0.1861  0.2411
  541MOL0     C72949  10.246   8.576   0.097  0.2882 -0.0876  0.0208
  541MOL0     N72950  10.162   8.284   0.732  0.4793 -1.2800  0.5119
  541MOL0     N72951  10.064   8.252   0.822 -0.1271 -1.3383 -0.2796
  541MOL0     C72952   9.098   8.820   0.656 -0.2344  0.0708 -0.6322
  541MOL0     C72953   8.998   8.842   0.567  0.5576  0.4792 -0.3460
  541MOL0     C72954   8.636   8.915   0.312 -0.2484  0.1502  0.5566
  541MOL0     C72955   8.567   8.796   0.321  0.6124  0.4474  0.0124
  541MOL0     C72956   8.463   8.757   0.232  0.3303  0.0004  0.8662
  541MOL0     C72957   8.446   8.836   0.119  0.1652 -0.3347  0.8963
  541MOL0     O72958   8.346   8.802   0.040  0.3591  0.0219  0.4777
  541MOL0     C72959   8.212   8.790   0.099 -0.3374  0.4052  0.5956
  541MOL0     C72960   8.134   8.913   0.050 -0.2620  0.1435 -0.1002
  541MOL0     C72961   7.991   8.891   0.100  0.3738  0.1911  0.1434
  541MOL0     C72962   7.889   8.998   0.049 -0.1210  1.2750  0.1303
  541MOL0     C72963   7.754   8.976   0.097 -0.3493 -0.7329 -0.5593
  541MOL0     C72964   7.651   8.962   0.156  0.2052  0.9340  0.2236
  541MOL0     C72965   8.511   8.952   0.098 -0.0076  0.7874  0.1498
  541MOL0     C72966   8.610   8.991   0.196  1.0814 -0.6264  0.3262
  541MOL0     C72967   8.678   9.124   0.165 -0.6309  0.5501 -0.1381
  541MOL0     H72968   8.721   8.811   0.767  0.0504  0.6528  0.8864
  541MOL0     H72969   8.901   8.746   0.923 -2.6240 -0.9491 -0.9292
  541MOL0     H72970   9.112   8.699   1.069 -1.3467 -0.7567  0.7649
  541MOL0     H72971   9.112   8.574   0.951 -0.9187  1.0179  1.2580
  541MOL0     H72972   9.308   8.565   1.113 -2.9647 -0.6470  0.8913
  541MOL0     H72973   9.344   8.725   1.076  1.8263 -0.7456  0.1391
  541MOL0     H72974   9.420   8.687   0.862 -1.1531  0.5773  0.6618
  541MOL0     H72975   9.351   8.518   0.852 -1.2860  0.6219 -1.4740
  541MOL0     H72976   9.599   8.591   1.039 -0.6218 -2.0597  1.0381
  541MOL0     H72977   9.520   8.436   1.007 -2.2235  0.0141  0.4562
  541MOL0     H72978   9.604   8.436   0.773  3.7782 -0.1256 -2.5684
  541MOL0     H72979   9.624   8.610   0.781 -3.1235  0.1030  0.6399
  541MOL0     H72980   9.830   8.469   0.766 -1.6941  1.5829 -1.2823
  541MOL0     H72981   9.844   8.585   0.908  1.2155 -1.9673  2.0504
  541MOL0     H72982   9.763   8.284   0.935 -2.9965  0.9406 -0.1176
  541MOL0     H72983   9.768   8.414   1.061 -1.9122 -2.2420  0.5265
  541MOL0     H72984   9.988   8.435   1.083  0.4196  1.1465 -0.4524
  541MOL0     H72985   9.973   8.257   1.058  1.1772  0.4752 -0.1493
  541MOL0     H72986  10.132   8.563   0.895  4.2829  2.6649 -4.4716
  541MOL0     H72987  10.224   8.588   0.624  0.2933  0.3882  2.5150
  541MOL0     H72988  10.364   8.564   0.733  0.1659  1.1831 -0.5442
  541MOL0     H72989  10.430   8.352   0.622  1.2852  0.9250 -0.5001
  541MOL0     H72990  10.282   8.360   0.521 -0.1548  0.4788 -1.6999
  541MOL0     H72991  10.476   8.400   0.406 -0.6594 -1.7734  1.6844
  541MOL0     H72992  10.518   8.546   0.490 -1.7350  2.2657 -0.6205
  541MOL0     H72993  10.324   8.660   0.435 -0.5802 -0.0559  1.1047
  541MOL0     H72994  10.257   8.514   0.344  2.3174 -1.4499 -2.9094
  541MOL0     H72995  10.574   8.621   0.073  1.2860 -1.5548  1.2321
  541MOL0     H72996  10.529   8.564  -0.151  0.5192  4.0278  0.8881
  541MOL0     H72997   9.984   8.550  -0.448  1.7048  1.7308 -2.0093
  541MOL0     H72998   9.918   8.478  -0.662 -0.8956 -1.4671 -1.4111
  541MOL0     H72999   9.823   8.347  -0.797  1.0859  0.0487  1.7569
  541MOL0     H73000   9.930   8.436  -0.905 -0.4057  1.3230  3.8051
  541MOL0     H73001   9.946   8.218  -1.046  0.1819  0.9741 -1.0239
  541MOL0     H73002   9.838   8.139  -0.937 -1.3547 -0.2709 -1.1081
  541MOL0     H73003   9.664   8.332  -0.990  2.1823  1.9067  1.7650
  541MOL0     H73004   9.774   8.376  -1.120  1.8747 -2.0372 -2.1064
  541MOL0     H73005   9.667   8.099  -1.096 -2.4811  0.9683 -0.4027
  541MOL0     H73006   9.773   8.158  -1.219  1.6288  1.2923  1.1700
  541MOL0     H73007   9.610   8.331  -1.280  3.1123 -0.5988  1.0734
  541MOL0     H73008   9.492   8.264  -1.174  1.6170 -0.5977  1.3702
  541MOL0     H73009   9.626   8.115  -1.409  1.9473  1.2884  1.9404
  541MOL0     H73010   9.480   8.056  -1.329  0.2519 -1.9694 -3.1750
  541MOL0     H73011   9.411   8.158  -1.527 -0.6696 -1.0270  2.2940
  541MOL0     H73012   9.486   8.322  -1.468 -2.2556  0.8773 -2.6232
  541MOL0     H73013   9.265   8.179  -1.350  0.8102 -2.9622 -3.1584
  541MOL0     H73014   9.314   8.339  -1.311 -1.7242  3.2975 -1.5486
  541MOL0     H73015  10.237   8.187  -0.669 -0.3076 -1.5076  1.6735
  541MOL0     H73016  10.285   8.235  -0.439 -0.0772 -1.9469 -0.0170
  541MOL0     H73017  10.111   8.503  -0.044  0.3594 -2.7610  1.2799
  541MOL0     H73018  10.163   8.586   0.167  1.1474 -0.2288  1.0796
  541MOL0     H73019   9.199   8.814   0.618  0.9079 -0.3023  2.1925
  541MOL0     H73020   9.033   8.882   0.473 -1.6365  1.4729 -0.8017
  541MOL0     H73021   8.579   8.736   0.410 -0.0086 -1.3996 -1.0810
  541MOL0     H73022   8.413   8.661   0.241  1.6953 -0.6920  1.5284
  541MOL0     H73023   8.216   8.796   0.208  1.2406 -0.0757  0.5859
  541MOL0     H73024   8.168   8.698   0.061 -0.4418  1.2574 -1.4777
  541MOL0     H73025   8.166   8.914  -0.054  1.2621  2.3005  0.3168
  541MOL0     H73026   8.164   9.011   0.089 -0.9327  0.6983 -0.9467
  541MOL0     H73027   7.991   8.892   0.210  3.4866 -0.2000  0.2485
  541MOL0     H73028   7.962   8.789   0.073  1.9956 -0.9335  2.2409
  541MOL0     H73029   7.912   9.100   0.080 -0.6602  1.5858 -0.4769
  541MOL0     H73030   7.894   8.996  -0.060  1.6435  3.0185  0.1360
  541MOL0     H73031   7.560   8.941   0.209 -0.4902 -1.9001 -1.8176
  541MOL0     H73032   8.486   9.022   0.019 -0.4031  0.7626  0.2470
  541MOL0     H73033   8.784   9.115   0.140 -0.9490  1.8377 -2.1565
  541MOL0     H73034   8.649   9.176   0.074 -0.4434  0.8846 -0.0099
  541MOL0     H73035   8.678   9.193   0.250  1.3727  1.2684 -0.6708
  542MOL0     O73036   9.227  10.797   7.159  0.1362  0.2471  0.3816
  542MOL0     C73037   9.207  10.878   7.068 -0.8557 -0.4786 -0.5043
  542MOL0     O73038   9.301  10.909   6.979 -0.1749  0.2804  0.0615
  542MOL0     C73039   9.433  10.892   7.009  0.2478 -0.2338 -0.4251
  542MOL0     C73040   9.504  11.000   7.068  0.3502  0.3742  0.5440
  542MOL0     C73041   9.641  10.991   7.086  0.0339 -0.8078 -0.2500
  542MOL0     C73042   9.709  10.886   7.030  0.6845  0.5115 -0.5178
  542MOL0     O73043   9.842  10.881   7.053 -0.1774 -0.1115  0.2650
  542MOL0     C73044   9.917  10.988   7.012  0.0308  0.5422  0.1141
  542MOL0     C73045   9.903  11.024   6.868 -0.7073  0.0058  0.6849
  542MOL0     C73046   9.968  11.164   6.840 -0.5432 -0.1360 -0.1106
  542MOL0     C73047  10.123  11.148   6.864  0.0824 -0.3031  0.2603
  542MOL0     C73048  10.202  11.260   6.791  0.5431 -0.2048  0.8301
  542MOL0     C73049  10.181  11.408   6.820 -0.5950 -0.0832 -1.0551
  542MOL0     C73050  10.061  11.487   6.770 -0.2343  0.1584  0.3173
  542MOL0     C73051  10.034  11.472   6.621 -0.8256  0.6612 -0.8139
  542MOL0     N73052   9.959  11.590   6.573  0.2167  0.0286  0.2520
  542MOL0     C73053   9.831  11.613   6.611  0.4640  0.1948  0.5589
  542MOL0     C73054   9.793  11.706   6.528 -0.2535  0.1772  0.3416
  542MOL0     C73055   9.650  11.762   6.531 -0.3970 -0.2668 -0.5365
  542MOL0     C73056   9.634  11.857   6.415 -0.7947  0.5214  0.0427
  542MOL0     C73057   9.505  11.935   6.410 -0.5971 -0.0037  0.5429
  542MOL0     C73058   9.382  11.861   6.381  1.0068  0.2560 -0.0624
  542MOL0     O73059   9.283  11.954   6.357 -0.4590  0.0864  0.5326
  542MOL0     C73060   9.157  11.934   6.305  0.4328 -0.1665 -0.2259
  542MOL0     C73061   9.117  11.805   6.267  0.0215 -0.0454 -0.1068
  542MOL0     C73062   8.991  11.795   6.215  1.0148  0.1281  0.7783
  542MOL0     C73063   8.912  11.904   6.190 -0.0415  0.7695  1.1283
  542MOL0     C73064   8.784  11.884   6.113  0.1334  0.8239  0.8365
  542MOL0     O73065   8.704  11.992   6.095  0.1698 -0.4761 -0.0246
  542MOL0     C73066   8.582  11.977   6.027  0.5643 -0.4799 -0.2471
  542MOL0     C73067   8.556  12.010   5.898  0.3414 -0.6434  1.2691
  542MOL0     C73068   8.421  11.998   5.847  0.1402  1.0718 -0.6112
  542MOL0     C73069   8.324  11.945   5.933  0.9694  0.4695 -0.1079
  542MOL0     O73070   8.192  11.942   5.887  0.4171 -0.5511  0.3638
  542MOL0     C73071   8.090  11.872   5.952  0.5487  1.0567 -0.5467
  542MOL0     C73072   7.968  11.873   5.864 -0.0793 -0.1110  0.4875
  542MOL0     C73073   7.842  11.842   5.941  0.3114  0.5680 -0.2931
  542MOL0     C73074   7.714  11.845   5.858 -0.5364  0.7251 -0.1649
  542MOL0     C73075   7.594  11.827   5.942 -0.4874  0.1201  0.0885
  542MOL0     C73076   7.473  11.776   5.865  0.8556  0.1886 -0.9403
  542MOL0     C73077   7.428  11.889   5.772 -0.7726  0.7882  0.0122
  542MOL0     C73078   7.479  11.860   5.631 -0.5552  0.9709 -0.2590
  542MOL0    Cl73079   7.395  11.983   5.532 -0.2315  0.2599 -0.0328
  542MOL0     C73080   8.354  11.896   6.062  0.0312 -0.2622  0.0519
  542MOL0     C73081   8.485  11.915   6.109 -0.3297  0.7932  0.1922
  542MOL0     O73082   8.759  11.767   6.073  0.1723 -0.5488 -0.1491
  542MOL0     C73083   8.950  12.028   6.229  0.8096  0.6257  0.0560
  542MOL0     C73084   9.073  12.047   6.297  0.3681  0.6904  0.1998
  542MOL0     N73085   9.903  11.756   6.452 -0.1720 -0.1603  0.3678
  542MOL0     N73086   9.999  11.673   6.482 -0.1109 -1.1359  1.0602
  542MOL0     C73087   9.640  10.783   6.963 -0.7020  0.5083  1.2415
  542MOL0     C73088   9.504  10.791   6.949 -0.0698  0.5258 -0.0721
  542MOL0     C73089   9.062  10.924   7.058  0.0978  0.9460 -1.1841
  542MOL0     C73090   8.970  10.880   7.156  0.3105 -0.0705  0.2481
  542MOL0     C73091   8.833  10.908   7.155 -0.1542 -0.8587  0.1670
  542MOL0     C73092   8.787  11.008   7.058 -0.0306 -0.9622 -0.8798
  542MOL0     O73093   8.662  11.071   7.074  0.5309 -0.3889 -0.1067
  542MOL0     C73094   8.567  11.025   7.171  0.2691  0.4575 -0.3069
  542MOL0     C73095   8.438  11.106   7.156 -0.0989  0.1392  0.6493
  542MOL0     C73096   8.377  11.103   7.013  0.6094  0.0612  0.1521
  542MOL0     C73097   8.374  10.959   6.948 -0.1865 -0.7580 -0.0633
  542MOL0     C73098   8.342  10.971   6.804 -0.3716 -0.1922 -0.3246
  542MOL0     C73099   8.325  11.003   6.686 -0.5931  0.1904 -0.3949
  542MOL0     C73100   8.876  11.062   6.972  0.5703 -1.1186 -0.6133
  542MOL0     C73101   9.010  11.021   6.968  0.5157  0.5155  0.5868
  542MOL0     C73102   9.102  11.066   6.854  0.3459 -0.6549 -0.1864
  542MOL0     H73103   9.449  11.074   7.127 -0.6937 -1.8310  2.5105
  542MOL0     H73104   9.687  11.046   7.167 -1.4716 -3.1639  2.3844
  542MOL0     H73105   9.889  11.077   7.070 -2.9583 -0.1988 -0.0111
  542MOL0     H73106  10.019  10.956   7.034 -0.4757 -1.1396  0.1410
  542MOL0     H73107   9.798  11.034   6.838 -0.9444  0.5994  1.6791
  542MOL0     H73108   9.947  10.948   6.802  1.0856  2.0658 -0.6289
  542MOL0     H73109   9.922  11.231   6.913 -0.5814 -0.9482  0.6129
  542MOL0     H73110   9.946  11.199   6.738 -2.6726 -0.3183  0.2408
  542MOL0     H73111  10.152  11.152   6.969 -1.0196  0.1102  0.5541
  542MOL0     H73112  10.160  11.052   6.827  2.3872  1.4949 -2.6670
  542MOL0     H73113  10.309  11.251   6.813  0.8771  0.7588 -0.2916
  542MOL0     H73114  10.180  11.245   6.685 -0.3593 -2.0555  1.2269
  542MOL0     H73115  10.163  11.424   6.926 -1.4816  3.0202 -1.5891
  542MOL0     H73116  10.275  11.462   6.805  0.5389 -1.2646  1.2432
  542MOL0     H73117  10.072  11.595   6.786 -0.3667 -0.0264  1.8049
  542MOL0     H73118   9.978  11.440   6.824  1.8381 -0.7433  2.9227
  542MOL0     H73119  10.133  11.472   6.573 -1.4551 -0.8194 -2.2402
  542MOL0     H73120   9.987  11.378   6.590 -5.2935  1.9135  1.3560
  542MOL0     H73121   9.771  11.558   6.684  0.5129  2.0136  2.0426
  542MOL0     H73122   9.581  11.678   6.523  1.0049 -1.3105 -2.4210
  542MOL0     H73123   9.638  11.810   6.629 -0.5201 -1.8198  0.2491
  542MOL0     H73124   9.714  11.932   6.424  0.7327 -1.0029 -0.3293
  542MOL0     H73125   9.660  11.805   6.323 -0.8166 -0.1655  0.4207
  542MOL0     H73126   9.518  12.005   6.327 -2.5150  0.4821  0.6165
  542MOL0     H73127   9.483  12.003   6.494 -6.8207  2.4989 -2.4770
  542MOL0     H73128   9.342  11.807   6.468 -0.9465  2.5201  0.5522
  542MOL0     H73129   9.389  11.788   6.300 -1.4158  0.1547 -0.2694
  542MOL0     H73130   9.177  11.715   6.274  0.5793  0.0978 -2.2519
  542MOL0     H73131   8.952  11.699   6.181  0.5016  0.4187  0.5404
  542MOL0     H73132   8.632  12.058   5.837 -1.2311  0.4130  0.0512
  542MOL0     H73133   8.402  12.041   5.749  0.2183  1.7890 -0.3164
  542MOL0     H73134   8.120  11.774   5.992  4.0976  2.3092  0.2328
  542MOL0     H73135   8.066  11.917   6.049 -0.9816 -2.9790  1.1764
  542MOL0     H73136   7.958  11.974   5.823  2.1046  0.5736  1.4364
  542MOL0     H73137   7.984  11.804   5.781 -0.2969 -2.1224  2.0431
  542MOL0     H73138   7.854  11.747   5.994 -0.8641  1.1492  1.0824
  542MOL0     H73139   7.832  11.921   6.017  0.1323  2.3090 -2.0605
  542MOL0     H73140   7.723  11.756   5.794 -0.2428 -0.0392  0.9180
  542MOL0     H73141   7.712  11.929   5.787  0.5262  1.7520  0.9817
  542MOL0     H73142   7.572  11.920   5.996  0.0817 -0.7847  1.9883
  542MOL0     H73143   7.623  11.749   6.013  3.2224  1.2621 -0.0044
  542MOL0     H73144   7.511  11.688   5.813  0.6366 -0.1906 -0.4712
  542MOL0     H73145   7.388  11.747   5.928  0.8354  0.0147 -1.0473
  542MOL0     H73146   7.456  11.989   5.807  3.2612  1.1452 -3.4679
  542MOL0     H73147   7.319  11.881   5.777 -0.6796  0.1547  3.7525
  542MOL0     H73148   7.586  11.881   5.624 -0.4242  0.7357  0.8640
  542MOL0     H73149   7.461  11.758   5.594  3.6029 -0.2725  0.6005
  542MOL0     H73150   8.278  11.854   6.127  1.2916 -2.2007  0.3630
  542MOL0     H73151   8.511  11.889   6.211 -5.2905 -0.0299  1.5427
  542MOL0     H73152   8.878  12.108   6.213 -0.1167 -0.1214  0.4103
  542MOL0     H73153   9.096  12.145   6.337 -0.5122  0.3245  1.6859
  542MOL0     H73154   9.700  10.704   6.918  1.1885  2.3364  0.3964
  542MOL0     H73155   9.449  10.711   6.901  2.2343 -1.0333 -0.2706
  542MOL0     H73156   9.004  10.810   7.231 -1.3700 -1.7716 -0.4835
  542MOL0     H73157   8.759  10.869   7.224 -0.3599 -2.4272 -0.8739
  542MOL0     H73158   8.612  11.037   7.269 -2.0711  1.7467  0.7080
  542MOL0     H73159   8.548  10.918   7.156  0.1329  0.3927  0.3266
  542MOL0     H73160   8.453  11.210   7.188 -3.3809  0.6444  0.9405
  542MOL0     H73161   8.361  11.070   7.225 -1.3750 -0.6832 -1.1471
  542MOL0     H73162   8.430  11.168   6.943 -1.7276 -0.5395 -2.3078
  542MOL0     H73163   8.277  11.147   7.008  0.4401 -0.4856 -3.0213
  542MOL0     H73164   8.467  10.903   6.962  0.5317  0.1682 -0.9185
  542MOL0     H73165   8.296  10.897   6.993  0.8047 -0.4983  2.1378
  542MOL0     H73166   8.295  11.065   6.604 -2.0873  1.2276  0.8966
  542MOL0     H73167   8.847  11.132   6.894  1.3639 -0.7694 -0.6101
  542MOL0     H73168   9.174  11.133   6.903 -2.2759  1.6084  0.8080
  542MOL0     H73169   9.164  10.989   6.807  2.8336  0.9939  0.1817
  542MOL0     H73170   9.038  11.112   6.779 -1.7886 -2.9835  0.0744
  543MOL0     O73171   2.476   3.812   3.987  0.5134  0.0528  0.4244
  543MOL0     C73172   2.383   3.758   4.051 -0.3355  0.5967  0.1205
  543MOL0     O73173   2.400   3.703   4.176 -0.0446 -1.2152  0.2378
  543MOL0     C73174   2.525   3.668   4.214  0.1901 -0.1346 -0.3746
  543MOL0     C73175   2.564   3.707   4.345 -0.1796  0.5006 -0.0049
  543MOL0     C73176   2.688   3.671   4.396  0.1882  0.0928 -0.4176
  543MOL0     C73177   2.780   3.601   4.312  0.7822  0.8161 -0.5729
  543MOL0     O73178   2.909   3.558   4.348  0.3697 -0.0984  0.6839
  543MOL0     C73179   2.923   3.510   4.482 -0.6219  0.6503  0.5551
  543MOL0     C73180   3.040   3.412   4.497 -0.9244  0.1119 -0.3692
  543MOL0     C73181   3.177   3.461   4.460  0.9029 -0.5538  0.6739
  543MOL0     C73182   3.213   3.599   4.511 -0.4748 -0.1775  0.0748
  543MOL0     C73183   3.363   3.624   4.509  0.0208  0.3059  0.1962
  543MOL0     C73184   3.411   3.755   4.567  0.6071  0.3144  0.5513
  543MOL0     C73185   3.565   3.782   4.552 -0.3357 -0.5844 -0.0223
  543MOL0     C73186   3.594   3.907   4.641  1.1380  0.5086  0.8476
  543MOL0     N73187   3.731   3.956   4.636 -0.7421  0.2616  0.8807
  543MOL0     C73188   3.844   3.881   4.663  0.8280 -0.5227 -0.8942
  543MOL0     C73189   3.950   3.950   4.617  0.0437 -0.3295  0.1290
  543MOL0     C73190   4.087   3.884   4.618  0.0344 -0.0518 -0.3796
  543MOL0     C73191   4.188   3.983   4.663  0.1031 -0.9225 -0.3307
  543MOL0     C73192   4.188   4.005   4.814 -0.7969 -0.9680 -0.7430
  543MOL0     C73193   4.306   4.092   4.865 -0.1169 -0.3225  0.3275
  543MOL0     O73194   4.434   4.028   4.847  0.1248 -0.1841  0.7827
  543MOL0     C73195   4.549   4.104   4.876  0.6313 -0.4711  0.9167
  543MOL0     C73196   4.565   4.167   5.001  0.3604 -0.2129  0.1216
  543MOL0     C73197   4.678   4.246   5.040 -0.0698  0.7075  0.9288
  543MOL0     C73198   4.777   4.265   4.935  0.2923  0.0305  0.2720
  543MOL0     C73199   4.894   4.354   4.964 -0.3726  1.0258 -0.5421
  543MOL0     O73200   4.923   4.364   5.095 -0.5595 -0.2685 -0.0577
  543MOL0     C73201   5.038   4.444   5.116 -0.6515 -0.1615  0.2785
  543MOL0     C73202   5.165   4.383   5.096  0.0821  0.0443  0.1845
  543MOL0     C73203   5.276   4.468   5.111  0.0060  0.8480  0.4376
  543MOL0     C73204   5.272   4.599   5.138 -0.2584 -0.7753  0.6365
  543MOL0     O73205   5.392   4.665   5.134 -0.5804  0.5981  0.7989
  543MOL0     C73206   5.394   4.803   5.162 -0.3122  0.0632 -0.6006
  543MOL0     C73207   5.544   4.853   5.158  0.3975 -0.3385  0.1136
  543MOL0     C73208   5.609   4.856   5.012  0.2249 -0.2302 -0.4878
  543MOL0     C73209   5.757   4.839   4.992  0.5512  0.5967 -0.5501
  543MOL0     C73210   5.802   4.811   4.851  0.9358 -0.2872 -0.7550
  543MOL0     C73211   5.946   4.756   4.839  0.3105 -0.4355  0.0997
  543MOL0     C73212   6.058   4.835   4.913 -0.8605 -0.3977  0.3838
  543MOL0     C73213   6.195   4.792   4.878  0.5433  0.3253 -0.3291
  543MOL0    Cl73214   6.316   4.874   4.983  0.0589 -0.0497  0.0071
  543MOL0     C73215   5.152   4.659   5.156  0.9694  0.0444  0.7549
  543MOL0     C73216   5.036   4.581   5.143  0.4066 -1.1424 -1.0102
  543MOL0     O73217   4.952   4.408   4.863  0.0847  0.0623 -0.6479
  543MOL0     C73218   4.761   4.192   4.813  0.5106 -0.8740  0.4594
  543MOL0     C73219   4.651   4.118   4.776 -0.2722  0.7573 -0.0778
  543MOL0     N73220   3.903   4.056   4.553 -0.0174 -0.0235  0.0908
  543MOL0     N73221   3.775   4.068   4.575  0.1882 -0.2673  0.5835
  543MOL0     C73222   2.739   3.554   4.192 -0.3309 -0.8091 -0.2514
  543MOL0     C73223   2.614   3.588   4.138  1.0977  0.9706  0.1512
  543MOL0     C73224   2.236   3.769   4.015 -0.5869 -0.9596 -0.4515
  543MOL0     C73225   2.139   3.749   4.107  0.0926 -0.5919  0.0035
  543MOL0     C73226   2.002   3.744   4.075 -0.3571  0.7141  1.1791
  543MOL0     C73227   1.954   3.767   3.946  0.2985 -0.7579 -0.3454
  543MOL0     O73228   1.826   3.767   3.900 -0.7611 -0.2639 -0.1715
  543MOL0     C73229   1.734   3.673   3.960 -0.8719 -0.0075 -0.2511
  543MOL0     C73230   1.598   3.696   3.901  0.5982  0.4750  0.9079
  543MOL0     C73231   1.588   3.677   3.745 -0.5801 -0.8413  0.4663
  543MOL0     C73232   1.464   3.735   3.678 -0.3686  0.0975 -0.0432
  543MOL0     C73233   1.377   3.621   3.652 -0.3252  0.4479  0.4902
  543MOL0     C73234   1.300   3.534   3.605  0.2140  0.0053  0.4810
  543MOL0     C73235   2.062   3.788   3.850 -0.1301 -0.2184 -0.3778
  543MOL0     C73236   2.200   3.800   3.888  0.5334  0.1969  0.3776
  543MOL0     C73237   2.299   3.812   3.773 -1.2825 -0.0682 -0.7762
  543MOL0     H73238   2.503   3.783   4.392 -0.2447  0.6460 -0.3206
  543MOL0     H73239   2.714   3.708   4.494 -0.9052  0.4044 -0.2294
  543MOL0     H73240   2.940   3.596   4.548 -0.9075  1.3274 -0.2248
  543MOL0     H73241   2.832   3.461   4.517 -0.0760  1.1211  2.7747
  543MOL0     H73242   3.022   3.315   4.450 -1.0096  0.5403 -1.2465
  543MOL0     H73243   3.065   3.391   4.601  0.1809  2.3671 -0.1283
  543MOL0     H73244   3.173   3.470   4.351 -1.9192  1.9387  0.8467
  543MOL0     H73245   3.249   3.383   4.485 -2.2021 -3.4132  1.3939
  543MOL0     H73246   3.169   3.689   4.465  1.1673  1.1934  1.0883
  543MOL0     H73247   3.179   3.596   4.615  0.9041 -4.0859  0.5775
  543MOL0     H73248   3.408   3.545   4.570  0.4697 -0.2390 -0.8237
  543MOL0     H73249   3.404   3.614   4.408  1.1637 -0.7700  0.7406
  543MOL0     H73250   3.352   3.835   4.521 -0.5423 -0.1764  1.1412
  543MOL0     H73251   3.401   3.757   4.676  1.3509 -0.9850  0.6667
  543MOL0     H73252   3.581   3.818   4.450 -1.3351 -0.8697 -0.2913
  543MOL0     H73253   3.629   3.696   4.572  1.4186  0.5135 -0.6904
  543MOL0     H73254   3.530   3.991   4.611 -1.1292 -1.1676  0.7514
  543MOL0     H73255   3.563   3.877   4.741 -2.7663 -2.7195 -1.0648
  543MOL0     H73256   3.844   3.779   4.702 -1.1715 -0.3750 -0.3998
  543MOL0     H73257   4.087   3.792   4.676  1.3551  0.4871  0.5269
  543MOL0     H73258   4.126   3.845   4.523 -0.6926  1.2198 -1.2386
  543MOL0     H73259   4.289   3.943   4.646  1.0313  1.2693 -0.2997
  543MOL0     H73260   4.181   4.073   4.601  0.3480 -1.4957 -1.2068
  543MOL0     H73261   4.187   3.912   4.872  0.2037 -0.8975 -0.5963
  543MOL0     H73262   4.099   4.057   4.850  0.0672  1.6165 -2.0823
  543MOL0     H73263   4.284   4.099   4.972 -3.0167  0.4442 -0.2203
  543MOL0     H73264   4.311   4.197   4.836  1.0923  0.6028  3.4535
  543MOL0     H73265   4.485   4.172   5.074 -0.7284  2.6993 -1.0869
  543MOL0     H73266   4.687   4.281   5.142 -3.1753  1.2664  1.1105
  543MOL0     H73267   5.185   4.282   5.063  2.4549  0.5907 -0.2443
  543MOL0     H73268   5.373   4.426   5.089  0.0750  2.1503 -2.2774
  543MOL0     H73269   5.333   4.859   5.091  2.3494 -0.0245 -3.1887
  543MOL0     H73270   5.361   4.810   5.266  0.4785 -1.3235 -0.2281
  543MOL0     H73271   5.535   4.954   5.201 -1.6502 -0.1052 -0.7502
  543MOL0     H73272   5.595   4.791   5.233 -0.5221 -1.0310  0.1876
  543MOL0     H73273   5.570   4.765   4.966  1.7844 -1.7282  1.0429
  543MOL0     H73274   5.570   4.942   4.956  0.6084 -1.0882 -2.1092
  543MOL0     H73275   5.787   4.754   5.055  1.3060  2.0270  1.0937
  543MOL0     H73276   5.797   4.927   5.042 -0.1617 -0.1240  1.4017
  543MOL0     H73277   5.791   4.905   4.796  0.3166  0.6089  0.8232
  543MOL0     H73278   5.729   4.739   4.814  0.7685 -0.3852 -0.2359
  543MOL0     H73279   5.956   4.653   4.874  0.1554 -1.3078 -2.2195
  543MOL0     H73280   5.971   4.761   4.732  0.2507  0.1706  0.1100
  543MOL0     H73281   6.037   4.830   5.020 -1.7541  2.8215  0.4482
  543MOL0     H73282   6.056   4.938   4.876  0.8930 -0.7340 -0.7858
  543MOL0     H73283   6.196   4.684   4.896  2.4967 -0.0707 -2.2911
  543MOL0     H73284   6.223   4.810   4.774  0.3672  0.3733 -0.3672
  543MOL0     H73285   5.138   4.760   5.191  3.0526 -0.4799  3.3735
  543MOL0     H73286   4.937   4.623   5.162 -0.5749 -2.2271 -3.3367
  543MOL0     H73287   4.838   4.198   4.737 -1.0506 -2.2378 -1.3201
  543MOL0     H73288   4.635   4.075   4.678  2.1777  0.5682 -0.4593
  543MOL0     H73289   2.812   3.499   4.133  1.8166 -0.0134  1.5170
  543MOL0     H73290   2.582   3.556   4.040  1.5194 -2.5854  1.0374
  543MOL0     H73291   2.162   3.719   4.209 -0.0975 -3.6528 -0.7450
  543MOL0     H73292   1.946   3.716   4.163  0.3485  0.4699  1.5587
  543MOL0     H73293   1.730   3.685   4.069 -0.5856 -3.0175  0.1686
  543MOL0     H73294   1.777   3.573   3.945 -0.0351  0.2661  0.2087
  543MOL0     H73295   1.575   3.800   3.926  0.3223  0.6292  0.0813
  543MOL0     H73296   1.526   3.627   3.946 -0.9007  1.3027 -0.1218
  543MOL0     H73297   1.586   3.569   3.723  0.0503 -0.3162 -2.5738
  543MOL0     H73298   1.674   3.727   3.701 -2.4691  2.6806  0.3865
  543MOL0     H73299   1.416   3.813   3.738  0.9746  1.2090 -0.3478
  543MOL0     H73300   1.493   3.783   3.584 -0.3512  0.7389  0.2784
  543MOL0     H73301   1.224   3.464   3.577  0.5868  0.7321 -2.7191
  543MOL0     H73302   2.034   3.792   3.745  0.1015  0.4367 -0.4213
  543MOL0     H73303   2.260   3.820   3.671 -0.9182  2.4488 -0.8038
  543MOL0     H73304   2.343   3.910   3.798 -0.8921 -0.8351  1.7991
  543MOL0     H73305   2.367   3.729   3.793 -2.3558 -0.2977  2.4847
  544MOL0     O73306   6.943   5.111   5.027  0.0801 -0.6087  0.5546
  544MOL0     C73307   6.968   5.056   4.917  0.1804  0.5833  0.0978
  544MOL0     O73308   7.090   5.065   4.839  0.0049 -0.5398 -0.2789
  544MOL0     C73309   7.192   5.137   4.894  0.6875  0.0926 -0.3718
  544MOL0     C73310   7.261   5.234   4.823  0.0088  0.2282  0.1887
  544MOL0     C73311   7.366   5.307   4.879  0.1380  0.5612 -0.3296
  544MOL0     C73312   7.406   5.280   5.011 -0.1611  0.1756  0.4897
  544MOL0     O73313   7.521   5.339   5.054 -0.4290  1.0315  0.0780
  544MOL0     C73314   7.612   5.259   5.139  0.1786 -0.1032  0.8401
  544MOL0     C73315   7.755   5.298   5.094  0.5890  0.2830 -0.3013
  544MOL0     C73316   7.823   5.349   5.223 -0.0201  0.1319  0.3198
  544MOL0     C73317   7.966   5.371   5.199 -0.1272 -0.2817  0.1133
  544MOL0     C73318   8.030   5.440   5.311 -0.1597 -0.8309 -1.1350
  544MOL0     C73319   7.979   5.588   5.346  0.0521  0.8415  0.5744
  544MOL0     C73320   8.088   5.672   5.397  0.0672  0.1449  0.0161
  544MOL0     C73321   8.065   5.813   5.425  0.1119 -1.3721 -0.5064
  544MOL0     N73322   8.181   5.893   5.465 -0.2092  0.2047  1.1724
  544MOL0     C73323   8.178   6.012   5.521 -0.0190  0.0831 -0.6912
  544MOL0     C73324   8.305   6.051   5.543 -1.7592 -1.1132  0.0568
  544MOL0     C73325   8.344   6.185   5.597  0.5597 -0.4444  0.5484
  544MOL0     C73326   8.466   6.241   5.520  0.7421  1.4989 -0.2954
  544MOL0     C73327   8.527   6.362   5.593 -0.3353  0.2981  0.0628
  544MOL0     C73328   8.666   6.412   5.549  0.7382 -0.1398  0.9226
  544MOL0     O73329   8.677   6.435   5.407  0.2746  0.4967 -0.2551
  544MOL0     C73330   8.802   6.466   5.360  0.2885 -1.6887 -0.1657
  544MOL0     C73331   8.813   6.489   5.228  0.2439  0.1424 -0.1172
  544MOL0     C73332   8.945   6.514   5.172  0.4820  0.8119  0.4106
  544MOL0     C73333   9.055   6.540   5.250  0.0353 -0.0512 -0.4403
  544MOL0     C73334   9.191   6.542   5.193  0.8461  0.9347  0.1206
  544MOL0     O73335   9.207   6.557   5.055  0.4643 -0.8523 -0.1116
  544MOL0     C73336   9.337   6.579   5.017  0.3724  0.8546  0.1162
  544MOL0     C73337   9.413   6.467   4.963  0.4066 -0.2825 -0.2981
  544MOL0     C73338   9.547   6.493   4.936 -0.8082 -0.5789 -0.1347
  544MOL0     C73339   9.603   6.620   4.957  0.2708 -0.2485 -0.5299
  544MOL0     O73340   9.736   6.641   4.931  0.1476  1.0347  0.3057
  544MOL0     C73341   9.823   6.531   4.983 -1.5573 -0.2672  0.0329
  544MOL0     C73342   9.969   6.586   5.011 -0.1147  0.3461 -0.3044
  544MOL0     C73343  10.040   6.514   5.126 -0.4421  0.5066  0.0866
  544MOL0     C73344  10.184   6.545   5.124  0.0144  0.3767 -0.3864
  544MOL0     C73345  10.206   6.697   5.139 -0.4284 -0.9422 -0.3606
  544MOL0     C73346  10.346   6.750   5.174  0.3842 -0.0651 -0.9828
  544MOL0     C73347  10.359   6.899   5.157 -0.1324 -0.4684  0.2770
  544MOL0     C73348  10.335   6.973   5.293  0.1214 -0.2373 -0.5312
  544MOL0    Cl73349  10.453   6.920   5.412 -0.0997  0.3465 -0.4331
  544MOL0     C73350   9.528   6.732   4.995 -0.1842  0.4875 -0.2078
  544MOL0     C73351   9.390   6.710   5.023  0.5763 -0.4763  0.7951
  544MOL0     O73352   9.282   6.531   5.278 -0.6368 -0.0285 -0.2096
  544MOL0     C73353   9.033   6.547   5.389  0.4437 -0.0017  0.0828
  544MOL0     C73354   8.906   6.512   5.438  0.0280 -0.0532 -0.2519
  544MOL0     N73355   8.387   5.955   5.493  0.2135  0.8616 -1.1045
  544MOL0     N73356   8.310   5.853   5.453  0.3302  0.7783 -0.2595
  544MOL0     C73357   7.343   5.184   5.085 -0.0078 -0.0669 -0.0311
  544MOL0     C73358   7.234   5.115   5.023 -0.7183  0.5368  0.2050
  544MOL0     C73359   6.874   4.949   4.866 -0.6903 -0.0707 -0.4512
  544MOL0     C73360   6.919   4.825   4.813 -0.7307 -0.2152 -0.0682
  544MOL0     C73361   6.832   4.730   4.762  1.4146  0.7996  0.1092
  544MOL0     C73362   6.695   4.755   4.773  0.8886  0.2692 -1.1939
  544MOL0     O73363   6.601   4.665   4.734 -0.5445  0.3242 -0.1319
  544MOL0     C73364   6.625   4.524   4.757  0.0742  0.0540  1.1107
  544MOL0     C73365   6.496   4.454   4.725  1.2517  0.1514  0.3035
  544MOL0     C73366   6.435   4.488   4.584 -0.2333 -0.1427 -0.4388
  544MOL0     C73367   6.307   4.420   4.551 -0.1707 -0.5694 -0.3497
  544MOL0     C73368   6.339   4.281   4.518  0.7108  1.1661 -0.7434
  544MOL0     C73369   6.369   4.167   4.505 -0.6395 -0.1987 -0.2215
  544MOL0     C73370   6.649   4.881   4.820  0.0916  0.1339  0.5832
  544MOL0     C73371   6.739   4.985   4.860 -0.0207  0.6162  0.6985
  544MOL0     C73372   6.666   5.111   4.901 -0.3188 -0.4727 -0.7349
  544MOL0     H73373   7.247   5.243   4.716 -0.1738 -1.9785 -0.0204
  544MOL0     H73374   7.416   5.396   4.840  1.4506 -0.2236 -0.5085
  544MOL0     H73375   7.600   5.285   5.245  5.0375 -1.4995  1.9901
  544MOL0     H73376   7.594   5.151   5.146 -0.1771  0.0352  2.6745
  544MOL0     H73377   7.759   5.368   5.010 -3.0630 -0.7142 -1.4851
  544MOL0     H73378   7.795   5.203   5.057 -1.1610  0.1149 -1.9308
  544MOL0     H73379   7.808   5.278   5.305 -2.2022  0.9940  0.7646
  544MOL0     H73380   7.777   5.448   5.234 -0.3157  0.2833 -1.8557
  544MOL0     H73381   8.023   5.278   5.185  1.4199  0.5612  0.5674
  544MOL0     H73382   7.984   5.433   5.111  1.5940 -1.3674 -0.3462
  544MOL0     H73383   8.014   5.383   5.403  2.8498  1.3214  0.9254
  544MOL0     H73384   8.136   5.441   5.287  0.4987  0.9070  1.3742
  544MOL0     H73385   7.939   5.626   5.252  2.8059 -1.0419 -1.5553
  544MOL0     H73386   7.903   5.594   5.424 -0.3562  3.5160  0.0402
  544MOL0     H73387   8.164   5.671   5.318 -1.3248 -0.3534 -1.3663
  544MOL0     H73388   8.130   5.632   5.489  0.3791 -0.1783 -0.2632
  544MOL0     H73389   8.025   5.861   5.335 -0.6883  2.2185  1.5769
  544MOL0     H73390   7.982   5.814   5.495 -1.9630  0.1221 -2.8378
  544MOL0     H73391   8.086   6.067   5.538 -1.1949 -2.3793  1.4892
  544MOL0     H73392   8.264   6.259   5.598 -0.3135 -1.3689  1.0776
  544MOL0     H73393   8.368   6.173   5.703  2.7524 -1.0240  0.0376
  544MOL0     H73394   8.542   6.162   5.514 -2.9446 -2.2736 -2.9728
  544MOL0     H73395   8.437   6.261   5.417 -2.2630 -0.7078 -0.0174
  544MOL0     H73396   8.545   6.338   5.699 -0.2280  0.8869  0.1771
  544MOL0     H73397   8.454   6.441   5.575 -0.4788 -0.3346 -2.4447
  544MOL0     H73398   8.739   6.339   5.584  0.5805  0.4441  2.5675
  544MOL0     H73399   8.680   6.503   5.609  0.8083  0.6981 -0.3339
  544MOL0     H73400   8.731   6.473   5.158  0.1779  0.8174 -0.1918
  544MOL0     H73401   8.944   6.509   5.063  1.8639  1.3624  0.3502
  544MOL0     H73402   9.374   6.366   4.961 -1.6972  0.4982 -0.5759
  544MOL0     H73403   9.611   6.414   4.897  1.7930  2.0181 -1.4655
  544MOL0     H73404   9.789   6.488   5.078  0.8652 -0.8952  0.6774
  544MOL0     H73405   9.838   6.456   4.905  0.9266 -0.5065  0.6573
  544MOL0     H73406  10.011   6.577   4.910 -2.6948  0.2361 -1.4500
  544MOL0     H73407   9.971   6.692   5.036  3.1802  0.4264 -0.4918
  544MOL0     H73408   9.998   6.527   5.226 -0.5836 -0.7181  0.1978
  544MOL0     H73409  10.031   6.408   5.105  2.6946 -0.2198  1.8412
  544MOL0     H73410  10.226   6.506   5.031  2.2369  1.8612 -0.0808
  544MOL0     H73411  10.245   6.500   5.202 -1.6868  1.2927  1.5613
  544MOL0     H73412  10.143   6.730   5.222 -0.1839 -3.0124  0.7054
  544MOL0     H73413  10.177   6.758   5.053 -1.9225  1.8096  1.9208
  544MOL0     H73414  10.367   6.719   5.277  1.6526  0.0950 -1.1724
  544MOL0     H73415  10.420   6.707   5.105 -3.0929 -1.6656 -4.0140
  544MOL0     H73416  10.290   6.937   5.081  1.6094 -2.1481 -2.3292
  544MOL0     H73417  10.461   6.921   5.124 -0.2194 -0.6309 -0.1034
  544MOL0     H73418  10.353   7.077   5.265  0.4996 -0.5682 -1.5768
  544MOL0     H73419  10.231   6.964   5.324  0.2829  1.6650  0.7141
  544MOL0     H73420   9.580   6.827   5.002  1.8198 -0.5529 -0.3553
  544MOL0     H73421   9.323   6.792   5.048 -1.4119 -1.5776 -0.6861
  544MOL0     H73422   9.110   6.564   5.463 -0.3571 -0.5190  1.0547
  544MOL0     H73423   8.899   6.500   5.546 -0.6865 -2.3299 -0.5171
  544MOL0     H73424   7.372   5.155   5.185  3.0734 -1.6015 -1.2279
  544MOL0     H73425   7.184   5.043   5.087 -0.5102  0.2257  0.0233
  544MOL0     H73426   7.025   4.799   4.808 -1.1497 -1.9832 -0.4231
  544MOL0     H73427   6.856   4.634   4.717  0.6753  1.7389 -2.5082
  544MOL0     H73428   6.655   4.510   4.861  0.4416  2.1174  1.3230
  544MOL0     H73429   6.702   4.486   4.689 -1.1401 -1.0784  0.3215
  544MOL0     H73430   6.423   4.483   4.801 -0.5575  0.0713 -1.3102
  544MOL0     H73431   6.494   4.345   4.731 -3.7476  0.0271  1.1510
  544MOL0     H73432   6.493   4.464   4.494 -0.6495  0.1422 -0.7837
  544MOL0     H73433   6.420   4.596   4.583 -3.3643 -0.4390  1.1343
  544MOL0     H73434   6.244   4.429   4.640  1.1383 -3.5557  1.0298
  544MOL0     H73435   6.252   4.461   4.466  1.8821  0.1558 -1.3843
  544MOL0     H73436   6.395   4.063   4.510 -1.7828 -0.4542  0.7156
  544MOL0     H73437   6.542   4.893   4.809  0.3152  0.1650 -2.3009
  544MOL0     H73438   6.716   5.204   4.875 -1.9984  0.8836  0.6230
  544MOL0     H73439   6.561   5.113   4.869 -0.9944  2.3801  1.2508
  544MOL0     H73440   6.654   5.112   5.009 -1.1965  2.4419 -0.7885
  545MOL0     O73441   1.535   1.992   0.559 -0.3725  1.0964 -0.6680
  545MOL0     C73442   1.546   2.079   0.474  0.2068  0.3986  0.3733
  545MOL0     O73443   1.659   2.118   0.414 -0.2333  0.3543 -0.6220
  545MOL0     C73444   1.783   2.070   0.453 -0.1072 -0.2865  1.2431
  545MOL0     C73445   1.864   2.048   0.340  0.0530  0.4922 -0.2983
  545MOL0     C73446   1.999   2.024   0.378  0.4012  0.1243 -0.5207
  545MOL0     C73447   2.045   2.022   0.512 -0.6225  0.6267  0.3993
  545MOL0     O73448   2.180   2.005   0.536 -0.4826 -0.2242 -0.4492
  545MOL0     C73449   2.239   2.096   0.635 -0.0428 -0.9495  0.2065
  545MOL0     C73450   2.386   2.132   0.604  0.5533 -1.0109  0.2423
  545MOL0     C73451   2.478   2.028   0.669  0.2756 -0.6180 -0.6253
  545MOL0     C73452   2.609   2.044   0.596 -0.6060 -0.9129  0.1853
  545MOL0     C73453   2.670   2.175   0.638  1.6488 -0.3413  0.0298
  545MOL0     C73454   2.819   2.191   0.614 -0.4703  0.3939 -0.5303
  545MOL0     C73455   2.860   2.342   0.637 -0.0747  0.4837  0.1214
  545MOL0     C73456   3.008   2.362   0.702  0.2250 -0.4303 -0.5574
  545MOL0     N73457   3.102   2.279   0.631 -0.2875  0.1592  0.4219
  545MOL0     C73458   3.165   2.317   0.515 -0.4086  0.8045  0.3518
  545MOL0     C73459   3.239   2.207   0.483  0.2098  0.1262  0.3690
  545MOL0     C73460   3.327   2.195   0.362 -0.2921 -0.1419 -0.3713
  545MOL0     C73461   3.470   2.239   0.376  0.0977  0.1269  0.1058
  545MOL0     C73462   3.568   2.180   0.270  0.3136 -0.4232 -1.3224
  545MOL0     C73463   3.715   2.210   0.290 -0.0177  0.1742 -0.1606
  545MOL0     O73464   3.778   2.138   0.181 -0.3066 -0.1806 -0.5450
  545MOL0     C73465   3.894   2.182   0.126  0.1906  0.0244 -0.0767
  545MOL0     C73466   3.935   2.106   0.015 -0.2022 -0.6223  0.1742
  545MOL0     C73467   4.061   2.125  -0.052  1.5368 -0.8602 -0.2387
  545MOL0     C73468   4.135   2.237  -0.015  0.6580 -0.7854 -0.4393
  545MOL0     C73469   4.254   2.276  -0.099  0.7679  0.1142  0.4767
  545MOL0     O73470   4.304   2.181  -0.176 -1.0725  0.4473 -0.3525
  545MOL0     C73471   4.413   2.187  -0.262  0.2119 -0.5726  0.3236
  545MOL0     C73472   4.477   2.300  -0.311  0.1527  0.7374  0.6369
  545MOL0     C73473   4.586   2.281  -0.403 -0.3622  0.1226 -0.3105
  545MOL0     C73474   4.637   2.161  -0.440 -0.9370  0.2031 -0.4553
  545MOL0     O73475   4.746   2.157  -0.532 -0.1070 -0.0098 -0.7988
  545MOL0     C73476   4.830   2.037  -0.540  0.6532  0.5338  0.3091
  545MOL0     C73477   4.787   1.945  -0.656 -1.4549  0.6717 -0.0411
  545MOL0     C73478   4.842   1.803  -0.669 -0.1641  0.2567  0.2524
  545MOL0     C73479   4.774   1.738  -0.790 -0.5309 -0.1295  0.5930
  545MOL0     C73480   4.874   1.631  -0.847  0.3804  0.4866 -0.9217
  545MOL0     C73481   4.822   1.607  -0.995  0.7309 -0.2343 -0.8400
  545MOL0     C73482   4.851   1.725  -1.087  0.1281  0.4571  0.1452
  545MOL0     C73483   4.868   1.677  -1.233  0.4273 -0.3814 -0.2620
  545MOL0    Cl73484   5.009   1.591  -1.258  0.0753  0.2293  0.5845
  545MOL0     C73485   4.571   2.045  -0.382  0.7380  0.1883  0.5184
  545MOL0     C73486   4.459   2.056  -0.298 -0.8035 -0.2728 -0.8677
  545MOL0     O73487   4.304   2.386  -0.085  0.3104 -0.1750 -0.6162
  545MOL0     C73488   4.095   2.310   0.096  0.1645 -0.9111  0.6448
  545MOL0     C73489   3.981   2.286   0.176  1.3854  0.1280 -0.9154
  545MOL0     N73490   3.229   2.107   0.588 -0.3793 -0.7610  0.3711
  545MOL0     N73491   3.142   2.156   0.664 -0.3393  0.3828 -0.3811
  545MOL0     C73492   1.951   2.037   0.615  0.4461  0.1480 -0.1590
  545MOL0     C73493   1.822   2.064   0.581 -0.3298  0.1914 -0.1170
  545MOL0     C73494   1.415   2.141   0.436  0.0127  0.1522 -0.4214
  545MOL0     C73495   1.294   2.081   0.467 -0.6022  0.4178  0.1474
  545MOL0     C73496   1.170   2.138   0.440  0.3692  0.0730 -0.8389
  545MOL0     C73497   1.164   2.272   0.392 -0.5420 -0.6979  0.3929
  545MOL0     O73498   1.056   2.354   0.359  0.0987 -0.0902 -0.2533
  545MOL0     C73499   0.916   2.296   0.367  0.5233  0.0197  0.0044
  545MOL0     C73500   0.854   2.277   0.230 -0.0110 -0.0418  0.6573
  545MOL0     C73501   0.746   2.166   0.231  0.2068  0.8121 -0.2044
  545MOL0     C73502   0.666   2.149   0.098  0.0570  0.3766  0.4230
  545MOL0     C73503   0.745   2.091  -0.013 -0.6904 -0.7107 -0.1747
  545MOL0     C73504   0.808   2.054  -0.112 -1.1484 -0.0509  0.0607
  545MOL0     C73505   1.286   2.333   0.361 -0.4147  0.3076  0.5926
  545MOL0     C73506   1.410   2.271   0.382  0.1421 -0.0919  0.2495
  545MOL0     C73507   1.531   2.355   0.345 -0.3055  0.0075 -0.0695
  545MOL0     H73508   1.834   2.056   0.236 -0.2910  0.5005 -0.1994
  545MOL0     H73509   2.074   2.022   0.300  1.5280 -0.5912  0.5351
  545MOL0     H73510   2.189   2.192   0.621  2.9165  1.2073  2.9017
  545MOL0     H73511   2.225   2.055   0.736  0.3108  0.6548  0.9315
  545MOL0     H73512   2.406   2.234   0.638 -1.0327 -0.0752 -1.4827
  545MOL0     H73513   2.402   2.145   0.497  0.5764  0.5836  0.4127
  545MOL0     H73514   2.433   1.930   0.654 -0.6498 -0.1818 -0.8285
  545MOL0     H73515   2.497   2.040   0.776 -0.6660  2.0416 -0.6693
  545MOL0     H73516   2.684   1.970   0.624 -1.8803 -1.8583  1.2393
  545MOL0     H73517   2.611   2.022   0.488  2.6382 -0.4062  0.0297
  545MOL0     H73518   2.622   2.254   0.579 -1.6854 -1.9067  0.4202
  545MOL0     H73519   2.647   2.185   0.745 -0.2520 -0.9286 -0.2822
  545MOL0     H73520   2.875   2.136   0.690 -3.4002 -1.7712  0.2239
  545MOL0     H73521   2.842   2.157   0.513 -0.8476  1.3614 -0.9576
  545MOL0     H73522   2.775   2.380   0.696  0.1786 -1.0723  1.5807
  545MOL0     H73523   2.853   2.403   0.547  0.2989  0.6326  0.1913
  545MOL0     H73524   3.041   2.466   0.706  0.0544 -0.1750 -3.6175
  545MOL0     H73525   2.998   2.334   0.807 -0.4219  0.4633 -0.3589
  545MOL0     H73526   3.173   2.412   0.462 -1.8160 -0.0967 -1.5974
  545MOL0     H73527   3.339   2.089   0.338  2.9039  0.1992 -0.7319
  545MOL0     H73528   3.283   2.249   0.278  0.4112  1.1290  0.0420
  545MOL0     H73529   3.470   2.348   0.384 -3.7555  0.3099 -0.8108
  545MOL0     H73530   3.504   2.205   0.474 -1.2712  0.7714  0.8288
  545MOL0     H73531   3.549   2.196   0.164 -1.4007 -1.4039 -1.1942
  545MOL0     H73532   3.559   2.072   0.282 -1.7111 -0.1678 -0.1441
  545MOL0     H73533   3.743   2.176   0.390  2.5819  1.1749 -0.4553
  545MOL0     H73534   3.723   2.319   0.292 -2.2089  0.4091 -1.2826
  545MOL0     H73535   3.876   2.025  -0.027 -2.6358  0.0041  2.1514
  545MOL0     H73536   4.101   2.065  -0.134  2.0531  0.4929 -1.0134
  545MOL0     H73537   4.449   2.404  -0.298 -1.9384  0.4298 -0.8879
  545MOL0     H73538   4.638   2.369  -0.438  0.2606  1.6338  3.8075
  545MOL0     H73539   4.932   2.065  -0.567  1.2466 -3.0264 -1.8649
  545MOL0     H73540   4.835   1.987  -0.443  1.5632 -1.6526 -0.7890
  545MOL0     H73541   4.678   1.949  -0.666 -1.4429  0.1110 -0.4438
  545MOL0     H73542   4.838   1.986  -0.744  0.1942  1.2354  1.1138
  545MOL0     H73543   4.950   1.811  -0.685  0.4628 -0.3317  3.6077
  545MOL0     H73544   4.815   1.733  -0.590  0.5883  0.9641  1.1543
  545MOL0     H73545   4.756   1.818  -0.863 -0.4430  0.7511  1.5161
  545MOL0     H73546   4.676   1.699  -0.761 -0.6109  0.6243  1.3694
  545MOL0     H73547   4.871   1.541  -0.784 -0.6666  1.0574 -0.1158
  545MOL0     H73548   4.975   1.673  -0.850  0.9216 -0.6521  0.4201
  545MOL0     H73549   4.861   1.509  -1.024 -0.0542 -0.4059 -1.3227
  545MOL0     H73550   4.714   1.595  -0.994  0.3869  2.2035 -1.2794
  545MOL0     H73551   4.945   1.771  -1.054  1.1705 -0.8605 -0.8760
  545MOL0     H73552   4.775   1.803  -1.080 -0.9692 -0.6996  1.9330
  545MOL0     H73553   4.780   1.624  -1.269  0.6758 -0.5323 -0.6535
  545MOL0     H73554   4.884   1.764  -1.296  0.9546 -0.2407  0.0558
  545MOL0     H73555   4.601   1.946  -0.413 -1.4002 -1.1854  2.4914
  545MOL0     H73556   4.406   1.971  -0.256 -1.5965  1.8464  2.9095
  545MOL0     H73557   4.148   2.399   0.129 -2.1605  0.0588  2.0140
  545MOL0     H73558   3.967   2.340   0.269  5.8569 -1.2949  0.8426
  545MOL0     H73559   1.973   2.045   0.721  1.1532 -0.0235 -0.2853
  545MOL0     H73560   1.752   2.083   0.662 -0.8605 -3.1857  0.3598
  545MOL0     H73561   1.292   1.977   0.498 -1.1599  0.7140  1.1590
  545MOL0     H73562   1.086   2.071   0.455 -0.8386  1.5388 -0.8159
  545MOL0     H73563   0.853   2.368   0.420  0.8965  0.6151 -0.3405
  545MOL0     H73564   0.920   2.204   0.425  1.6275  1.3886  2.2276
  545MOL0     H73565   0.938   2.252   0.165  2.0209  0.5414  2.9145
  545MOL0     H73566   0.817   2.378   0.206  2.0077  1.5118  3.4303
  545MOL0     H73567   0.678   2.189   0.313  0.5956  1.9041 -0.1746
  545MOL0     H73568   0.793   2.072   0.259  1.2982  1.7138  1.1297
  545MOL0     H73569   0.580   2.082   0.109  1.3540 -1.6527 -1.0039
  545MOL0     H73570   0.634   2.246   0.061  5.9096  2.7019  0.3229
  545MOL0     H73571   0.857   2.036  -0.206  0.9234 -1.8786  1.3849
  545MOL0     H73572   1.292   2.435   0.324  0.0695 -0.0858 -0.4498
  545MOL0     H73573   1.507   2.449   0.296  1.3080 -0.2989 -1.5781
  545MOL0     H73574   1.583   2.377   0.439 -0.2047  1.3315 -0.4185
  545MOL0     H73575   1.591   2.297   0.273  1.5226 -0.1833  1.5244
  546MOL0     O73576   6.411   7.829   1.116 -0.6665  1.6778  0.2820
  546MOL0     C73577   6.363   7.806   1.231  1.0170 -1.0188  0.3630
  546MOL0     O73578   6.402   7.706   1.316 -0.1979  0.5445  0.5868
  546MOL0     C73579   6.495   7.621   1.268  1.2605  0.3378 -0.1905
  546MOL0     C73580   6.453   7.500   1.216 -0.6125 -0.1926  0.2128
  546MOL0     C73581   6.538   7.406   1.160 -0.0431  0.1616 -0.1446
  546MOL0     C73582   6.673   7.433   1.170  0.0984 -0.2398 -0.2634
  546MOL0     O73583   6.751   7.348   1.108 -0.1587 -0.3556 -0.2276
  546MOL0     C73584   6.868   7.311   1.191 -0.2182  0.4555 -0.4148
  546MOL0     C73585   7.012   7.339   1.128 -0.6135  0.2023 -0.3442
  546MOL0     C73586   7.131   7.328   1.221 -0.5113 -0.0141 -0.0646
  546MOL0     C73587   7.251   7.311   1.127 -0.3838 -0.5663 -0.6033
  546MOL0     C73588   7.376   7.294   1.209 -0.5529  0.1461  0.5027
  546MOL0     C73589   7.490   7.319   1.119  0.3739  0.0497 -0.1682
  546MOL0     C73590   7.626   7.260   1.167 -0.0156 -1.4425  0.3561
  546MOL0     C73591   7.744   7.334   1.093 -0.8683  0.7767  0.9768
  546MOL0     N73592   7.878   7.258   1.100  0.0341 -0.2182 -0.8270
  546MOL0     C73593   7.977   7.285   1.189  0.8774 -0.6098 -0.6979
  546MOL0     C73594   8.087   7.237   1.133 -0.2112  0.4691 -0.6811
  546MOL0     C73595   8.223   7.245   1.194  0.3585 -0.1863  0.1729
  546MOL0     C73596   8.254   7.125   1.293 -0.2212  0.0991  0.3372
  546MOL0     C73597   8.407   7.107   1.329 -0.0324  0.7214 -0.5987
  546MOL0     C73598   8.440   6.981   1.415  0.9052  0.6286 -0.0469
  546MOL0     O73599   8.577   6.960   1.443 -0.2348  0.2031  0.6594
  546MOL0     C73600   8.664   6.922   1.338 -0.3874 -0.0049 -0.5350
  546MOL0     C73601   8.798   6.960   1.356  0.4751 -0.0865  0.1938
  546MOL0     C73602   8.897   6.934   1.264 -0.6405  0.1105  0.0335
  546MOL0     C73603   8.863   6.873   1.142 -0.2698  0.1021  1.5815
  546MOL0     C73604   8.966   6.862   1.035  0.4826 -0.7728 -0.0692
  546MOL0     O73605   9.085   6.917   1.069 -0.3293  0.6198 -0.8946
  546MOL0     C73606   9.194   6.947   0.988  0.3024  0.6272  0.0351
  546MOL0     C73607   9.244   6.848   0.906 -0.4201  1.1657  0.3287
  546MOL0     C73608   9.345   6.881   0.823  0.6976  0.2776 -0.0472
  546MOL0     C73609   9.427   6.992   0.821  0.9870  1.0219 -0.2388
  546MOL0     O73610   9.534   6.993   0.739 -0.1294 -0.3321  0.3353
  546MOL0     C73611   9.655   7.028   0.804  0.8523 -0.5617 -0.0843
  546MOL0     C73612   9.763   7.029   0.700 -0.1570 -0.4291 -0.7236
  546MOL0     C73613   9.894   7.064   0.778 -1.1609  0.9710  0.0346
  546MOL0     C73614  10.007   7.106   0.678  0.2368 -0.4766 -1.1499
  546MOL0     C73615  10.048   7.002   0.575 -0.1354 -0.3533  0.1600
  546MOL0     C73616  10.117   6.875   0.630  0.6821  0.1232 -0.2462
  546MOL0     C73617  10.076   6.759   0.546 -0.2087 -0.3264  0.2824
  546MOL0     C73618  10.128   6.769   0.398  0.3213  0.2065  0.2694
  546MOL0    Cl73619  10.297   6.757   0.395 -0.0367 -0.1773 -0.2304
  546MOL0     C73620   9.390   7.088   0.915 -1.1916  0.8181 -0.6660
  546MOL0     C73621   9.274   7.065   1.000 -0.2579  0.5624  0.0630
  546MOL0     O73622   8.946   6.799   0.930 -0.2692 -0.0986 -0.3993
  546MOL0     C73623   8.730   6.847   1.116  0.2377 -0.0861  0.2115
  546MOL0     C73624   8.632   6.865   1.214 -0.2611 -0.2916  0.4183
  546MOL0     N73625   8.053   7.156   1.032 -0.3185  0.1298  0.1813
  546MOL0     N73626   7.927   7.167   1.015  0.1425  0.7014  0.0999
  546MOL0     C73627   6.723   7.552   1.226 -0.0416  0.0000  0.3963
  546MOL0     C73628   6.632   7.647   1.275 -0.7404  0.1232 -0.0779
  546MOL0     C73629   6.263   7.907   1.271  0.0780 -0.5765  0.6651
  546MOL0     C73630   6.184   7.972   1.171  0.9526  0.2125  0.1265
  546MOL0     C73631   6.082   8.051   1.210  0.6912  0.3913  1.0790
  546MOL0     C73632   6.043   8.073   1.340 -0.4999  0.5445  0.2068
  546MOL0     O73633   5.949   8.164   1.374 -0.3653 -0.2448 -0.2821
  546MOL0     C73634   5.822   8.110   1.329 -0.2366  1.4216  0.5321
  546MOL0     C73635   5.714   8.187   1.400 -0.0330 -0.4859  0.2410
  546MOL0     C73636   5.595   8.222   1.306  0.5365 -0.5766  0.0189
  546MOL0     C73637   5.484   8.302   1.371  0.1155  0.3916 -0.3276
  546MOL0     C73638   5.368   8.329   1.292  0.3221  0.3975 -0.2465
  546MOL0     C73639   5.272   8.336   1.222  0.1460 -0.2407  0.7175
  546MOL0     C73640   6.123   8.027   1.438  0.2876  0.2650  0.2246
  546MOL0     C73641   6.230   7.933   1.410 -0.4894 -0.2252 -0.4619
  546MOL0     C73642   6.321   7.887   1.522  0.6912 -0.2162 -0.0703
  546MOL0     H73643   6.348   7.472   1.223 -0.1626 -1.4714  4.4803
  546MOL0     H73644   6.504   7.311   1.121 -0.2998 -0.3806  1.3587
  546MOL0     H73645   6.851   7.356   1.290 -0.2399  0.5245 -0.4497
  546MOL0     H73646   6.864   7.203   1.207  0.3279  0.5674  0.5346
  546MOL0     H73647   7.011   7.443   1.097 -0.1614  0.0379 -0.9317
  546MOL0     H73648   7.026   7.270   1.044  1.1076 -0.3754  0.3494
  546MOL0     H73649   7.118   7.237   1.281 -0.4460  0.7823  1.1940
  546MOL0     H73650   7.148   7.414   1.287 -1.1052 -1.0095  1.4416
  546MOL0     H73651   7.229   7.224   1.064 -1.0251  0.8434 -2.3863
  546MOL0     H73652   7.249   7.389   1.050 -1.1959 -0.3955 -0.4158
  546MOL0     H73653   7.391   7.372   1.284 -2.3911  0.6366  0.4173
  546MOL0     H73654   7.375   7.199   1.264 -3.3569  1.5107  3.0915
  546MOL0     H73655   7.468   7.259   1.030  1.1129  0.6367 -0.7522
  546MOL0     H73656   7.494   7.426   1.100 -1.9023  0.0507 -0.8890
  546MOL0     H73657   7.627   7.156   1.133 -2.5928 -0.2100 -4.5976
  546MOL0     H73658   7.639   7.276   1.274 -0.9591  1.7359  0.0856
  546MOL0     H73659   7.715   7.332   0.988  1.7189 -2.9130  0.1391
  546MOL0     H73660   7.763   7.437   1.126 -1.3646  1.3337 -0.3918
  546MOL0     H73661   7.980   7.339   1.283 -0.0448  1.5836 -1.8385
  546MOL0     H73662   8.287   7.250   1.105  0.0164  2.1131  0.0041
  546MOL0     H73663   8.236   7.342   1.243 -0.5620 -0.4946  1.0619
  546MOL0     H73664   8.184   7.137   1.376  0.1514 -1.0055  0.8338
  546MOL0     H73665   8.232   7.027   1.250  0.3228  0.5256 -0.9383
  546MOL0     H73666   8.442   7.193   1.387  0.6393 -0.2060  0.4212
  546MOL0     H73667   8.461   7.088   1.236 -0.3857 -5.2598  0.0111
  546MOL0     H73668   8.394   6.893   1.370  0.5493  0.7835  0.0087
  546MOL0     H73669   8.401   6.992   1.517  2.6786  1.0298  0.6307
  546MOL0     H73670   8.831   7.005   1.449 -1.9866 -1.1312  1.6486
  546MOL0     H73671   8.996   6.972   1.288  0.4312 -0.6971 -2.7625
  546MOL0     H73672   9.203   6.747   0.899  0.6371  0.7359  0.1376
  546MOL0     H73673   9.374   6.801   0.755  0.5198  1.2339 -1.2991
  546MOL0     H73674   9.654   7.124   0.855 -0.7848  0.4609 -1.9175
  546MOL0     H73675   9.694   6.954   0.875  0.3649 -1.9179 -1.1739
  546MOL0     H73676   9.777   6.932   0.651  0.8739  0.0159 -1.3429
  546MOL0     H73677   9.739   7.104   0.624  0.0507  0.8459  0.4329
  546MOL0     H73678   9.873   7.144   0.849  4.1719  2.1633  0.6728
  546MOL0     H73679   9.925   6.986   0.848  0.3546  2.1239  0.6971
  546MOL0     H73680  10.091   7.141   0.738  0.0050 -2.1876  0.2553
  546MOL0     H73681   9.974   7.194   0.621  2.2100  1.7383  0.9244
  546MOL0     H73682  10.116   7.051   0.505 -0.8690  2.2802  1.1816
  546MOL0     H73683   9.956   6.966   0.530 -0.0244 -2.9880  1.7656
  546MOL0     H73684  10.225   6.884   0.617  0.5020 -0.6925 -3.0293
  546MOL0     H73685  10.094   6.852   0.735  5.3020 -1.5317  0.6422
  546MOL0     H73686   9.967   6.751   0.537 -0.2677  0.4162  0.2940
  546MOL0     H73687  10.100   6.657   0.578 -2.6735 -1.0672  0.0214
  546MOL0     H73688  10.083   6.688   0.339 -0.2483 -1.5514  2.9002
  546MOL0     H73689  10.097   6.864   0.354 -0.3894 -0.0456  0.2125
  546MOL0     H73690   9.447   7.180   0.922 -0.1570  0.0547  2.5980
  546MOL0     H73691   9.258   7.145   1.072  0.2437 -0.4100  1.2848
  546MOL0     H73692   8.696   6.812   1.020 -1.1872 -0.0489  0.6728
  546MOL0     H73693   8.530   6.844   1.183  0.5306 -2.1596 -1.0968
  546MOL0     H73694   6.830   7.565   1.221  0.2794 -2.5511 -0.8345
  546MOL0     H73695   6.669   7.736   1.326  2.3350 -1.3738  0.4870
  546MOL0     H73696   6.194   7.944   1.067  1.5189 -3.4409  1.0182
  546MOL0     H73697   6.016   8.093   1.135  1.6767  1.5940  0.8364
  546MOL0     H73698   5.829   8.008   1.367 -1.4732  0.9762 -0.3372
  546MOL0     H73699   5.814   8.115   1.219 -0.1319 -1.5401  0.3102
  546MOL0     H73700   5.743   8.282   1.447  0.2099 -0.9226  0.9902
  546MOL0     H73701   5.677   8.132   1.488  0.0176  0.6772  1.0207
  546MOL0     H73702   5.549   8.130   1.269 -1.7731  0.8926 -1.0940
  546MOL0     H73703   5.642   8.271   1.220  1.5920 -0.7968  0.4650
  546MOL0     H73704   5.458   8.240   1.457 -0.6979 -3.1894 -2.9307
  546MOL0     H73705   5.521   8.392   1.420 -1.2877  0.2132  1.1439
  546MOL0     H73706   5.202   8.342   1.142  1.9207  0.0943 -0.8688
  546MOL0     H73707   6.121   8.078   1.533  1.0138  2.0778 -0.6756
  546MOL0     H73708   6.425   7.891   1.486  0.0370  0.2310 -2.0672
  546MOL0     H73709   6.312   7.956   1.606 -0.0308 -1.3806  0.8380
  546MOL0     H73710   6.294   7.784   1.545  1.2830 -0.0287  1.6057
  547MOL0     O73711  10.827   2.478   2.352 -0.0731 -0.5071 -0.6118
  547MOL0     C73712  10.915   2.400   2.347  0.3699  0.6120 -0.4760
  547MOL0     O73713  11.036   2.419   2.295 -0.0182  0.3901  0.1679
  547MOL0     C73714  11.085   2.541   2.238  0.2938  0.2471  0.5626
  547MOL0     C73715  11.095   2.660   2.314 -0.2037  0.3205  0.2179
  547MOL0     C73716  11.142   2.779   2.247 -0.4994 -0.2727  0.1084
  547MOL0     C73717  11.209   2.773   2.120 -0.3639 -0.7727 -0.1271
  547MOL0     O73718  11.272   2.882   2.063  0.4410 -0.0480 -0.6362
  547MOL0     C73719  11.350   2.977   2.137  0.1251  0.1082  0.0405
  547MOL0     C73720  11.490   2.942   2.166  0.1596 -0.7160  0.8041
  547MOL0     C73721  11.553   2.869   2.050 -0.1632  0.4547  0.0985
  547MOL0     C73722  11.704   2.875   2.066 -0.4570  0.3048 -0.1216
  547MOL0     C73723  11.751   2.775   2.165  0.8664  0.1632 -0.2931
  547MOL0     C73724  11.904   2.802   2.191 -0.3397 -0.5795 -0.1050
  547MOL0     C73725  11.956   2.700   2.301 -0.7506 -0.0275 -1.0255
  547MOL0     C73726  11.943   2.551   2.258 -0.6078  0.0468 -0.0525
  547MOL0     N73727  12.051   2.467   2.313  1.1296 -0.4620 -0.7835
  547MOL0     C73728  12.083   2.464   2.446 -0.2165  0.0423  0.3764
  547MOL0     C73729  12.199   2.396   2.456 -0.0659  0.0367 -0.4421
  547MOL0     C73730  12.267   2.356   2.581  0.7184  0.4653  1.5638
  547MOL0     C73731  12.360   2.469   2.640 -0.5468 -0.8090  0.6034
  547MOL0     C73732  12.482   2.509   2.542  0.0595  0.7694 -0.3091
  547MOL0     C73733  12.586   2.391   2.546 -0.9426 -0.2903 -0.0997
  547MOL0     O73734  12.709   2.438   2.496 -0.2957 -0.9826  0.1617
  547MOL0     C73735  12.814   2.345   2.479 -0.0996 -0.0817 -0.4999
  547MOL0     C73736  12.818   2.215   2.533  0.2458  0.1284  0.0015
  547MOL0     C73737  12.918   2.125   2.511 -0.4258 -0.1769  1.0735
  547MOL0     C73738  13.033   2.162   2.438 -0.1577 -0.8747 -0.5193
  547MOL0     C73739  13.146   2.068   2.440 -1.0479  0.0605  0.1161
  547MOL0     O73740  13.126   1.942   2.497  0.9558 -0.2378  0.8329
  547MOL0     C73741  13.227   1.853   2.502  1.3062 -0.0573  0.7129
  547MOL0     C73742  13.318   1.827   2.398 -0.9255  0.3396  0.2679
  547MOL0     C73743  13.410   1.724   2.407  0.1494  0.5810 -1.0164
  547MOL0     C73744  13.400   1.632   2.520  0.2037 -0.0530  0.2511
  547MOL0     O73745  13.477   1.518   2.517 -0.2873  0.4020  0.0861
  547MOL0     C73746  13.444   1.401   2.600 -0.1217  0.3073  0.2734
  547MOL0     C73747  13.552   1.293   2.585  0.5155 -0.3752  0.2407
  547MOL0     C73748  13.555   1.223   2.455 -1.0773  0.8586 -0.2788
  547MOL0     C73749  13.678   1.116   2.440  0.0022 -0.2378  0.1400
  547MOL0     C73750  13.667   1.015   2.328 -0.2822  0.2602  0.3007
  547MOL0     C73751  13.646   1.092   2.200  0.4520 -0.1995  0.2972
  547MOL0     C73752  13.669   0.996   2.077 -0.1391  0.0204  0.4852
  547MOL0     C73753  13.693   1.080   1.956 -0.0607 -0.1975 -0.1180
  547MOL0    Cl73754  13.703   0.980   1.811 -0.1261 -0.5760 -0.3952
  547MOL0     C73755  13.313   1.661   2.617 -0.4176 -0.3219 -0.3181
  547MOL0     C73756  13.226   1.768   2.614  0.8730  0.0874  0.2621
  547MOL0     O73757  13.246   2.110   2.388 -0.8534 -0.2924 -0.0369
  547MOL0     C73758  13.040   2.298   2.393 -1.1094  0.2950 -0.9084
  547MOL0     C73759  12.928   2.381   2.403  0.1782  0.2278 -0.1027
  547MOL0     N73760  12.234   2.360   2.323  0.1678 -0.0922 -0.7263
  547MOL0     N73761  12.147   2.409   2.242 -0.5413  0.2124  0.5877
  547MOL0     C73762  11.218   2.654   2.059  1.3794  0.2749  0.2282
  547MOL0     C73763  11.154   2.543   2.111 -0.1337 -0.6408 -0.0202
  547MOL0     C73764  10.871   2.257   2.373 -0.5203  0.8368 -0.0864
  547MOL0     C73765  10.916   2.167   2.277 -0.2950 -0.0521  0.2053
  547MOL0     C73766  10.884   2.031   2.296 -0.3132 -0.3495  1.1478
  547MOL0     C73767  10.803   1.981   2.404 -0.1132 -0.0887 -0.2643
  547MOL0     O73768  10.764   1.856   2.433  0.3519 -0.1502 -0.1142
  547MOL0     C73769  10.822   1.742   2.354  0.0330 -0.5520 -0.0006
  547MOL0     C73770  10.779   1.607   2.410 -0.1104  0.2846 -0.8498
  547MOL0     C73771  10.824   1.566   2.548 -0.1803 -0.2235 -0.7412
  547MOL0     C73772  10.795   1.410   2.563 -0.4330 -0.8194  0.4111
  547MOL0     C73773  10.819   1.361   2.698  1.5251 -0.3037  0.2730
  547MOL0     C73774  10.843   1.330   2.819 -0.6132 -0.0970  0.3999
  547MOL0     C73775  10.761   2.072   2.500  0.7877 -0.2225 -0.3138
  547MOL0     C73776  10.791   2.212   2.478  0.0003  0.0409 -0.0369
  547MOL0     C73777  10.724   2.306   2.577 -0.3532 -0.1427 -1.0873
  547MOL0     H73778  11.062   2.670   2.417  1.2900  2.2459  0.5827
  547MOL0     H73779  11.148   2.863   2.315  0.9444  0.1274 -0.4612
  547MOL0     H73780  11.347   3.061   2.067  0.2223  0.7516  0.7983
  547MOL0     H73781  11.303   3.012   2.229  1.0276 -1.2594  1.0602
  547MOL0     H73782  11.489   2.888   2.261  1.0252  0.9506  1.8064
  547MOL0     H73783  11.543   3.036   2.183 -0.5396 -0.1750  0.1082
  547MOL0     H73784  11.523   2.911   1.954  1.3736  2.3453  0.3886
  547MOL0     H73785  11.520   2.766   2.033 -1.3424  1.2739 -3.4250
  547MOL0     H73786  11.756   2.844   1.975  0.7578 -1.0435  0.9753
  547MOL0     H73787  11.732   2.978   2.088 -2.0555  0.2640  2.4173
  547MOL0     H73788  11.700   2.784   2.262  3.2373 -0.2139  1.0758
  547MOL0     H73789  11.739   2.670   2.139  2.3171 -0.0301 -0.2565
  547MOL0     H73790  11.960   2.802   2.097  1.5672  1.3619  0.9373
  547MOL0     H73791  11.928   2.896   2.243 -0.1181 -0.1274 -1.0175
  547MOL0     H73792  11.914   2.717   2.400  1.9674  0.4680  0.1439
  547MOL0     H73793  12.060   2.731   2.312 -0.6051 -0.0321 -2.2447
  547MOL0     H73794  11.845   2.512   2.288 -1.0818  2.1565  1.4229
  547MOL0     H73795  11.946   2.543   2.149 -1.9790  1.1904 -0.2174
  547MOL0     H73796  12.017   2.500   2.524 -2.0216  1.7018 -1.7904
  547MOL0     H73797  12.191   2.330   2.656  1.7809 -1.4932  2.0219
  547MOL0     H73798  12.309   2.259   2.556 -3.3382 -1.3508  0.8883
  547MOL0     H73799  12.306   2.561   2.661 -1.7642 -1.9658  2.9657
  547MOL0     H73800  12.397   2.434   2.737 -0.9366 -5.6915 -0.7265
  547MOL0     H73801  12.517   2.608   2.575  2.8870  1.0716 -3.6356
  547MOL0     H73802  12.441   2.536   2.444  2.2264  1.2433 -1.1394
  547MOL0     H73803  12.556   2.312   2.476 -1.9995 -0.1646  0.1940
  547MOL0     H73804  12.595   2.357   2.649  2.8137  1.1360  0.1837
  547MOL0     H73805  12.728   2.183   2.585 -0.2334 -0.8279 -1.3757
  547MOL0     H73806  12.906   2.025   2.552  0.4249 -0.2074  1.2658
  547MOL0     H73807  13.309   1.880   2.303  2.0604 -0.5205 -0.5895
  547MOL0     H73808  13.484   1.710   2.329  2.4217  0.8053  0.9562
  547MOL0     H73809  13.446   1.441   2.702 -1.2368  2.0137 -0.3354
  547MOL0     H73810  13.343   1.362   2.581 -0.1460  0.7261 -0.4860
  547MOL0     H73811  13.646   1.347   2.602 -0.4184  1.0544  1.1142
  547MOL0     H73812  13.541   1.221   2.666  3.5662 -2.3844 -0.9253
  547MOL0     H73813  13.463   1.165   2.440  0.4664 -1.4794 -1.2001
  547MOL0     H73814  13.567   1.296   2.374 -0.5519  1.4905  0.3662
  547MOL0     H73815  13.695   1.060   2.532 -0.3667  0.3938  0.5992
  547MOL0     H73816  13.775   1.166   2.431 -0.3409  0.7477  1.6089
  547MOL0     H73817  13.585   0.942   2.335 -1.5869  1.7843  1.5011
  547MOL0     H73818  13.765   0.968   2.319  1.2826  2.9058  2.2079
  547MOL0     H73819  13.545   1.134   2.195 -0.4894 -2.3705  0.2823
  547MOL0     H73820  13.718   1.175   2.195  0.6217 -0.3632 -0.0411
  547MOL0     H73821  13.587   0.929   2.052 -0.2155  0.8564 -1.7562
  547MOL0     H73822  13.753   0.928   2.099 -3.0088 -3.2019  2.5734
  547MOL0     H73823  13.623   1.164   1.943  1.8287  1.5795  0.6870
  547MOL0     H73824  13.792   1.124   1.970  0.3817 -1.9797  3.5694
  547MOL0     H73825  13.310   1.591   2.700 -0.7025 -0.6827 -0.6276
  547MOL0     H73826  13.148   1.781   2.688  0.6548  1.8202 -0.2388
  547MOL0     H73827  13.127   2.326   2.335 -1.6221  0.5087 -1.5857
  547MOL0     H73828  12.940   2.483   2.367  3.6505  0.2125  0.6403
  547MOL0     H73829  11.251   2.649   1.956 -2.3065  2.0777 -1.2140
  547MOL0     H73830  11.153   2.459   2.042 -0.3100  0.3325 -1.2475
  547MOL0     H73831  10.974   2.192   2.188 -0.7646  1.8375  0.3772
  547MOL0     H73832  10.904   1.956   2.220 -2.3437 -0.2959  0.4759
  547MOL0     H73833  10.929   1.748   2.333  0.0346 -0.6002 -0.0100
  547MOL0     H73834  10.775   1.760   2.257  2.5698 -0.8626 -1.3757
  547MOL0     H73835  10.824   1.535   2.342 -1.4365 -3.3912  1.8499
  547MOL0     H73836  10.669   1.604   2.412 -0.2714  2.8807  1.7350
  547MOL0     H73837  10.765   1.616   2.625  1.5733 -1.0645  1.2458
  547MOL0     H73838  10.930   1.581   2.570 -0.1419 -0.5161 -0.7313
  547MOL0     H73839  10.690   1.397   2.537 -0.3064  0.3760 -0.7850
  547MOL0     H73840  10.861   1.350   2.499 -0.9387 -0.6511 -0.2790
  547MOL0     H73841  10.867   1.309   2.921 -1.2887 -1.7663  0.2510
  547MOL0     H73842  10.709   2.051   2.593  2.3223  1.5194  1.0329
  547MOL0     H73843  10.698   2.259   2.672  1.7737  0.6429 -0.0460
  547MOL0     H73844  10.783   2.394   2.606 -2.0604  1.5076 -2.3459
  547MOL0     H73845  10.634   2.346   2.529  1.5780  2.9991 -2.4378
  548MOL0     O73846   9.762  11.302   1.095 -0.4152 -0.1292 -0.1165
  548MOL0     C73847   9.761  11.178   1.104  0.3647 -0.0145  0.1570
  548MOL0     O73848   9.869  11.095   1.127 -0.0494  0.1107  0.2018
  548MOL0     C73849   9.986  11.162   1.157  0.4359 -0.5051 -0.3694
  548MOL0     C73850  10.062  11.215   1.046  0.0150  0.2209  0.6371
  548MOL0     C73851  10.168  11.315   1.058  0.4602 -1.3736 -0.2529
  548MOL0     C73852  10.201  11.363   1.187  0.4358  0.5510  0.1075
  548MOL0     O73853  10.292  11.470   1.196  0.6591 -0.4992 -0.1224
  548MOL0     C73854  10.309  11.550   1.315  0.1132 -0.1298 -0.0443
  548MOL0     C73855  10.412  11.650   1.272  0.8366  0.9722 -0.4609
  548MOL0     C73856  10.425  11.744   1.390 -0.3555 -0.0717  0.8429
  548MOL0     C73857  10.560  11.821   1.381  0.0611  0.4386  0.6876
  548MOL0     C73858  10.613  11.873   1.521  1.1506 -0.5474 -0.0617
  548MOL0     C73859  10.518  11.975   1.585 -0.6223  0.0696  0.3750
  548MOL0     C73860  10.547  12.031   1.728  0.6896  0.0664  1.3701
  548MOL0     C73861  10.686  12.089   1.733  0.0897 -1.2755  1.2273
  548MOL0     N73862  10.715  12.120   1.878  0.9100  0.0904  1.2037
  548MOL0     C73863  10.787  12.036   1.953  0.1712 -0.0510  0.1626
  548MOL0     C73864  10.837  12.120   2.055 -0.7135  1.0535 -0.5904
  548MOL0     C73865  10.935  12.072   2.158  0.2228 -1.3440 -0.9202
  548MOL0     C73866  11.073  12.037   2.100 -0.3868  0.1516  0.3535
  548MOL0     C73867  11.180  12.048   2.203  0.1440 -0.3378 -0.3702
  548MOL0     C73868  11.320  12.021   2.144  0.2439 -0.0380  0.5663
  548MOL0     O73869  11.406  11.969   2.238 -0.0128 -0.9416  0.0935
  548MOL0     C73870  11.544  11.942   2.219 -0.7135 -1.0733 -0.3740
  548MOL0     C73871  11.599  11.872   2.325 -0.4060  0.6944 -0.4415
  548MOL0     C73872  11.737  11.820   2.306  0.0185  0.1246 -0.2268
  548MOL0     C73873  11.814  11.860   2.193 -1.7168 -0.5997 -0.7757
  548MOL0     C73874  11.961  11.830   2.188 -0.2968 -0.6702  0.6140
  548MOL0     O73875  12.006  11.758   2.291 -0.2039  0.2228 -0.4758
  548MOL0     C73876  12.138  11.713   2.290  1.2909 -0.4314  0.3980
  548MOL0     C73877  12.249  11.792   2.251 -0.1896  0.3788  0.7646
  548MOL0     C73878  12.375  11.731   2.243  0.6425  0.5773 -1.3717
  548MOL0     C73879  12.392  11.593   2.281  0.0524 -0.1338  0.6082
  548MOL0     O73880  12.511  11.528   2.277 -0.5632 -0.2239 -0.0713
  548MOL0     C73881  12.609  11.580   2.193 -0.4732 -0.0578 -0.0145
  548MOL0     C73882  12.722  11.629   2.291  0.4077  0.3791  0.1084
  548MOL0     C73883  12.825  11.517   2.303  0.9159 -1.1043 -0.2912
  548MOL0     C73884  12.912  11.528   2.429 -0.2166 -0.5804  0.0953
  548MOL0     C73885  13.015  11.419   2.423  0.5261  0.0332  0.1011
  548MOL0     C73886  13.091  11.408   2.554  0.2986  0.2211  1.1537
  548MOL0     C73887  13.224  11.326   2.544 -0.2608 -0.3925 -0.3752
  548MOL0     C73888  13.330  11.394   2.632  0.7418  0.4225 -0.2218
  548MOL0    Cl73889  13.471  11.288   2.614  0.2391 -0.1031 -0.0730
  548MOL0     C73890  12.281  11.518   2.316 -0.2161  0.0889  0.0074
  548MOL0     C73891  12.163  11.577   2.316 -0.6106  0.3608  0.1934
  548MOL0     O73892  12.032  11.883   2.097  0.1882  0.3840 -0.4067
  548MOL0     C73893  11.760  11.939   2.091  0.1203 -1.0135 -0.2980
  548MOL0     C73894  11.621  11.971   2.106 -0.5696  0.1740 -0.0916
  548MOL0     N73895  10.788  12.250   2.033  0.2223 -0.3719  0.0061
  548MOL0     N73896  10.705  12.242   1.935 -0.2249  0.0560  0.5303
  548MOL0     C73897  10.129  11.316   1.294  0.7138  0.2225  0.1771
  548MOL0     C73898  10.029  11.213   1.285  0.3277 -0.8609  0.9961
  548MOL0     C73899   9.630  11.116   1.077  0.6464  0.7902 -0.1885
  548MOL0     C73900   9.519  11.200   1.086 -0.1280 -0.0421  0.5377
  548MOL0     C73901   9.389  11.148   1.069  1.5887  1.1190  0.8275
  548MOL0     C73902   9.360  11.011   1.046 -0.7007  0.1364 -0.2765
  548MOL0     O73903   9.249  10.938   1.037  0.0861  0.4657  0.5027
  548MOL0     C73904   9.140  10.981   1.114 -0.4892 -0.3795  0.3492
  548MOL0     C73905   9.018  10.894   1.088  0.2777 -0.2442  0.5490
  548MOL0     C73906   8.882  10.970   1.121 -0.3834 -0.2287 -0.3149
  548MOL0     C73907   8.776  10.856   1.138  0.3873 -0.4770 -0.2059
  548MOL0     C73908   8.644  10.912   1.153 -0.4490  0.0035 -0.8126
  548MOL0     C73909   8.536  10.966   1.157  0.6911  1.0000 -0.6149
  548MOL0     C73910   9.475  10.936   1.032  0.5951  0.7137  0.0554
  548MOL0     C73911   9.607  10.976   1.040  0.1751 -0.0235  0.8537
  548MOL0     C73912   9.719  10.874   1.027  0.1054  0.4445 -0.3127
  548MOL0     H73913  10.038  11.187   0.944  1.1526  2.5885 -0.3532
  548MOL0     H73914  10.208  11.360   0.968 -3.7178  3.1808 -0.2067
  548MOL0     H73915  10.207  11.582   1.339 -1.0811 -1.4764 -2.8191
  548MOL0     H73916  10.349  11.489   1.397  0.1680 -0.2710 -0.1772
  548MOL0     H73917  10.383  11.720   1.193 -2.2107  1.9026  1.2877
  548MOL0     H73918  10.505  11.597   1.252  1.8177  2.4922 -0.0923
  548MOL0     H73919  10.415  11.695   1.487  1.2068 -2.2439  0.0041
  548MOL0     H73920  10.359  11.831   1.385  0.3097  0.3912 -0.7963
  548MOL0     H73921  10.643  11.769   1.332  0.5974  1.1974  0.7816
  548MOL0     H73922  10.538  11.908   1.318 -4.2498 -0.8279  0.0820
  548MOL0     H73923  10.632  11.793   1.593  1.7965 -0.2459  0.1059
  548MOL0     H73924  10.711  11.920   1.509  0.9762  0.3229  1.5885
  548MOL0     H73925  10.510  12.060   1.516  1.2780 -1.4118 -1.8251
  548MOL0     H73926  10.418  11.931   1.591 -0.3724 -0.5249  0.2159
  548MOL0     H73927  10.524  11.952   1.799 -1.1921 -0.8759 -0.1685
  548MOL0     H73928  10.481  12.112   1.763 -1.3292 -1.5614  1.5273
  548MOL0     H73929  10.761  12.012   1.714  0.0371 -1.8364  3.0630
  548MOL0     H73930  10.696  12.169   1.660  0.9761 -4.0368 -1.8948
  548MOL0     H73931  10.808  11.930   1.940 -1.9248 -0.7813  2.1392
  548MOL0     H73932  10.945  12.157   2.225 -1.3270 -0.4124 -1.8099
  548MOL0     H73933  10.882  11.986   2.199 -0.3703 -0.2749  0.6385
  548MOL0     H73934  11.066  11.939   2.053 -1.6009  1.4229 -2.3212
  548MOL0     H73935  11.094  12.113   2.024 -1.6454  0.4746  0.3052
  548MOL0     H73936  11.167  11.962   2.269 -0.6877 -0.0402 -0.1334
  548MOL0     H73937  11.171  12.136   2.266  1.3564  0.0330 -0.6945
  548MOL0     H73938  11.366  12.112   2.105 -1.8375  1.6071  1.7170
  548MOL0     H73939  11.314  11.945   2.066 -0.3034 -1.2728  1.7591
  548MOL0     H73940  11.539  11.839   2.410  1.5266 -0.9466  0.3883
  548MOL0     H73941  11.785  11.770   2.390  1.2003 -1.6277 -1.8560
  548MOL0     H73942  12.234  11.899   2.247 -0.9856  0.2812  1.1068
  548MOL0     H73943  12.461  11.796   2.229  0.3397  0.8258 -2.1231
  548MOL0     H73944  12.643  11.504   2.122  1.1939  2.3604 -2.0083
  548MOL0     H73945  12.589  11.670   2.134  2.1398 -0.3986 -1.5811
  548MOL0     H73946  12.780  11.707   2.239 -0.2817  0.0742 -1.1727
  548MOL0     H73947  12.661  11.660   2.376 -2.7651 -0.6994 -1.5931
  548MOL0     H73948  12.769  11.423   2.306 -0.9705 -0.2218 -3.3615
  548MOL0     H73949  12.898  11.525   2.221  2.5549  0.3282  1.2170
  548MOL0     H73950  12.858  11.520   2.524  0.4735 -1.9151  0.3894
  548MOL0     H73951  12.961  11.626   2.423 -2.4688  0.5851 -0.6939
  548MOL0     H73952  13.083  11.468   2.352  1.8429 -0.8066  0.7474
  548MOL0     H73953  12.974  11.325   2.386 -0.5555  0.5674 -0.1092
  548MOL0     H73954  13.103  11.506   2.601 -2.7060  1.6413 -0.7365
  548MOL0     H73955  13.033  11.348   2.624 -0.6859 -1.1268 -0.7302
  548MOL0     H73956  13.260  11.315   2.441  0.0697 -1.3420 -0.1697
  548MOL0     H73957  13.199  11.226   2.581 -3.5030 -0.5938 -2.6699
  548MOL0     H73958  13.355  11.493   2.592 -1.1738  1.4986  1.0626
  548MOL0     H73959  13.298  11.419   2.733 -0.9452 -0.3555 -0.5304
  548MOL0     H73960  12.271  11.411   2.332 -0.1181  0.0725 -0.0413
  548MOL0     H73961  12.081  11.512   2.342  0.4740 -2.4400 -2.6903
  548MOL0     H73962  11.821  11.970   2.007  0.2029 -2.3232 -0.7406
  548MOL0     H73963  11.565  12.027   2.033 -4.1031 -1.1485  1.4130
  548MOL0     H73964  10.156  11.353   1.392  2.4756  2.0963 -0.9288
  548MOL0     H73965   9.973  11.179   1.372 -0.8652 -2.7282 -0.4232
  548MOL0     H73966   9.539  11.304   1.111  1.4995  0.5260 -2.5842
  548MOL0     H73967   9.312  11.224   1.065  2.7197  2.2663 -1.1080
  548MOL0     H73968   9.124  11.089   1.099 -1.6773 -0.9002 -2.7147
  548MOL0     H73969   9.173  10.963   1.217  4.2276 -3.1783 -1.3913
  548MOL0     H73970   9.020  10.799   1.142 -2.4712 -0.8489 -0.2237
  548MOL0     H73971   9.018  10.867   0.982 -0.6804 -0.5472  0.6124
  548MOL0     H73972   8.848  11.034   1.039  1.5805  0.5872 -0.5259
  548MOL0     H73973   8.884  11.022   1.217 -1.3052 -5.3150  2.8694
  548MOL0     H73974   8.773  10.795   1.047  1.8488  0.4589 -0.9161
  548MOL0     H73975   8.787  10.786   1.221 -0.9457 -0.9196 -0.3692
  548MOL0     H73976   8.442  11.017   1.164 -1.5411 -2.8975  1.2778
  548MOL0     H73977   9.457  10.831   1.011 -0.7031  1.1772 -1.4063
  548MOL0     H73978   9.796  10.903   0.955  2.6772  0.0212  2.0944
  548MOL0     H73979   9.760  10.862   1.127 -3.6758  0.4731  1.4080
  548MOL0     H73980   9.682  10.775   1.001 -2.4902  0.6729  2.0866
  549MOL0     O73981   6.332   2.459   8.642 -0.6481 -0.5832  0.0860
  549MOL0     C73982   6.219   2.436   8.669  0.5332 -0.5274 -0.5211
  549MOL0     O73983   6.170   2.329   8.751  0.0500  0.0648  0.0926
  549MOL0     C73984   6.253   2.232   8.795  0.5296 -0.6395 -0.2360
  549MOL0     C73985   6.392   2.218   8.772  0.9138  0.4788 -0.4043
  549MOL0     C73986   6.460   2.102   8.814 -0.0480  0.8022 -0.2512
  549MOL0     C73987   6.386   1.991   8.852 -0.1266  0.3958 -0.1839
  549MOL0     O73988   6.451   1.880   8.889 -0.7527 -0.1916  0.2721
  549MOL0     C73989   6.464   1.780   8.791 -0.1906 -0.1371 -0.0406
  549MOL0     C73990   6.591   1.691   8.823 -0.1962  0.5399 -0.3956
  549MOL0     C73991   6.724   1.766   8.782 -0.8278  0.5643  0.6792
  549MOL0     C73992   6.847   1.672   8.801 -0.5040  0.4420  0.1601
  549MOL0     C73993   6.975   1.760   8.784  0.8218 -0.3863 -1.1833
  549MOL0     C73994   7.096   1.669   8.803  1.3065 -0.3490  0.6393
  549MOL0     C73995   7.221   1.720   8.723 -0.1702 -0.7941 -0.6382
  549MOL0     C73996   7.221   1.749   8.582  1.1909  0.6735  0.2339
  549MOL0     N73997   7.347   1.811   8.536 -0.8805  0.0532 -0.3113
  549MOL0     C73998   7.387   1.936   8.572 -0.2859  0.3070 -0.2732
  549MOL0     C73999   7.508   1.961   8.509 -0.0052  0.3043 -0.2569
  549MOL0     C74000   7.597   2.080   8.504 -0.3223  0.5237  0.1786
  549MOL0     C74001   7.556   2.162   8.380 -0.9195  0.9715  0.9149
  549MOL0     C74002   7.642   2.287   8.358 -0.0495  0.4114  0.1665
  549MOL0     C74003   7.781   2.263   8.318  0.2794  0.7928  0.1167
  549MOL0     O74004   7.877   2.373   8.324 -0.1384 -0.2023  0.0414
  549MOL0     C74005   7.997   2.382   8.255 -0.9793 -0.1036  0.4735
  549MOL0     C74006   8.051   2.292   8.161  0.0169  0.5317  1.0290
  549MOL0     C74007   8.164   2.319   8.075  0.6032  0.5190 -0.1313
  549MOL0     C74008   8.214   2.444   8.073 -1.4485  0.3985  0.2634
  549MOL0     C74009   8.310   2.485   7.964  0.0003  0.2502 -0.7310
  549MOL0     O74010   8.343   2.621   7.963  0.1476  0.4296 -0.1612
  549MOL0     C74011   8.434   2.645   7.858  0.6682 -1.1820 -1.2482
  549MOL0     C74012   8.384   2.701   7.743  0.2545 -0.1106  0.3236
  549MOL0     C74013   8.474   2.729   7.633 -1.3577 -0.3188  0.3904
  549MOL0     C74014   8.611   2.702   7.658  0.6523 -0.1222 -0.5642
  549MOL0     O74015   8.701   2.703   7.557 -0.7701 -0.2409  0.0269
  549MOL0     C74016   8.666   2.773   7.440 -0.4955  1.2757 -0.2270
  549MOL0     C74017   8.799   2.818   7.369  1.2972  0.1848 -0.5114
  549MOL0     C74018   8.881   2.692   7.328 -0.0992 -0.0455 -0.1202
  549MOL0     C74019   9.035   2.723   7.302 -0.1819 -0.5286 -0.2803
  549MOL0     C74020   9.063   2.813   7.184  0.5895 -0.1813  0.3555
  549MOL0     C74021   9.213   2.851   7.164  0.8451 -0.3695  0.7628
  549MOL0     C74022   9.227   2.958   7.058 -0.7283  0.1524 -0.1034
  549MOL0     C74023   9.374   2.982   7.018  1.0965  0.2264 -1.0578
  549MOL0    Cl74024   9.385   3.117   6.896 -0.2916  0.0996 -0.4199
  549MOL0     C74025   8.665   2.655   7.778  1.0672  0.8299  0.2890
  549MOL0     C74026   8.573   2.631   7.882  0.1488 -0.7718 -0.0416
  549MOL0     O74027   8.354   2.398   7.890 -0.6306  0.2097 -0.0708
  549MOL0     C74028   8.172   2.534   8.173 -0.3162  1.3668  0.5332
  549MOL0     C74029   8.063   2.511   8.260 -0.7886 -0.3047  0.6791
  549MOL0     N74030   7.531   1.858   8.426 -0.6799 -0.3946  0.0878
  549MOL0     N74031   7.437   1.771   8.441 -1.0190 -0.5226 -0.7745
  549MOL0     C74032   6.247   2.004   8.878  0.5218  0.0348  0.0685
  549MOL0     C74033   6.182   2.123   8.840 -0.0534  0.9282  0.5831
  549MOL0     C74034   6.107   2.523   8.622  0.8448 -0.0723  1.1902
  549MOL0     C74035   5.974   2.469   8.612 -0.5264  0.2618 -0.8148
  549MOL0     C74036   5.868   2.546   8.567 -0.2859  0.5288  1.1216
  549MOL0     C74037   5.886   2.678   8.515  0.9634  0.0597 -0.3615
  549MOL0     O74038   5.777   2.743   8.470  0.0858  0.4538  1.1777
  549MOL0     C74039   5.778   2.793   8.333  0.6229 -0.0428 -1.5624
  549MOL0     C74040   5.818   2.685   8.235  0.8865  0.0193  0.1305
  549MOL0     C74041   5.810   2.735   8.084  0.0353 -0.6020  0.0799
  549MOL0     C74042   5.661   2.766   8.043 -0.3949 -0.0237 -0.1911
  549MOL0     C74043   5.584   2.641   8.027 -0.6724 -1.0509 -0.3116
  549MOL0     C74044   5.521   2.546   8.021  0.3412  0.9551  0.4677
  549MOL0     C74045   6.012   2.728   8.513  1.2864 -0.3375 -0.0371
  549MOL0     C74046   6.125   2.663   8.573 -0.1115 -0.0642 -0.8817
  549MOL0     C74047   6.254   2.735   8.571  0.3372 -0.7515  0.1404
  549MOL0     H74048   6.454   2.300   8.739  1.9366 -0.0905  0.0517
  549MOL0     H74049   6.567   2.103   8.798  0.2891  0.4461  1.6926
  549MOL0     H74050   6.370   1.725   8.794  0.0594 -0.5874 -0.2715
  549MOL0     H74051   6.482   1.832   8.697  1.5291  3.2984  1.9681
  549MOL0     H74052   6.576   1.596   8.770 -0.2532 -2.0526  3.7613
  549MOL0     H74053   6.594   1.667   8.930  1.2225  0.4529 -0.4364
  549MOL0     H74054   6.731   1.853   8.848 -2.5531 -0.0406  1.7306
  549MOL0     H74055   6.715   1.800   8.678 -1.5693 -1.4099  0.0532
  549MOL0     H74056   6.840   1.637   8.904 -0.5066  1.4819  0.5239
  549MOL0     H74057   6.864   1.596   8.723  0.9762  0.3017  0.5799
  549MOL0     H74058   6.973   1.812   8.688  2.5870 -0.2401 -1.1750
  549MOL0     H74059   6.981   1.835   8.864  3.0899 -2.6030  0.9291
  549MOL0     H74060   7.099   1.651   8.910  0.3461 -0.4648  0.6515
  549MOL0     H74061   7.077   1.575   8.750  1.1196  2.0660 -4.1571
  549MOL0     H74062   7.286   1.632   8.724  0.5246 -0.2810 -0.7125
  549MOL0     H74063   7.244   1.815   8.772 -1.1663  0.5367 -2.6322
  549MOL0     H74064   7.218   1.652   8.531 -0.2549  0.3103  0.9737
  549MOL0     H74065   7.137   1.815   8.562 -1.5152 -1.5967  3.1053
  549MOL0     H74066   7.332   2.000   8.641  2.7026  2.2508  0.4937
  549MOL0     H74067   7.577   2.135   8.596 -0.7672 -0.6448  0.7926
  549MOL0     H74068   7.703   2.055   8.503 -0.3460  0.0953  2.6557
  549MOL0     H74069   7.554   2.092   8.295 -1.5917 -1.1544  2.5765
  549MOL0     H74070   7.458   2.204   8.402 -0.2317  2.9867  0.2889
  549MOL0     H74071   7.637   2.338   8.455  1.0877  0.9317 -0.0376
  549MOL0     H74072   7.595   2.338   8.273 -0.6993 -1.1260 -0.4333
  549MOL0     H74073   7.769   2.230   8.214  1.2605 -1.7473  0.7489
  549MOL0     H74074   7.825   2.178   8.371  0.0692 -1.1700 -2.6518
  549MOL0     H74075   7.994   2.201   8.145 -0.0930  0.3773  2.2160
  549MOL0     H74076   8.184   2.253   7.991  1.6914  1.0068 -0.2781
  549MOL0     H74077   8.276   2.713   7.734  0.0976 -2.6576 -3.3774
  549MOL0     H74078   8.432   2.752   7.535 -3.4202 -0.6769  1.1511
  549MOL0     H74079   8.608   2.705   7.376 -1.1645 -0.1648  1.7885
  549MOL0     H74080   8.610   2.862   7.469  0.7868  1.9276  0.2927
  549MOL0     H74081   8.763   2.873   7.282 -2.0559 -2.3843 -0.9340
  549MOL0     H74082   8.857   2.877   7.441 -0.6347  1.8442 -0.2082
  549MOL0     H74083   8.875   2.631   7.418  1.7797  1.4025  1.0487
  549MOL0     H74084   8.840   2.632   7.246  2.1642 -1.6787 -0.1540
  549MOL0     H74085   9.081   2.628   7.276 -0.5221 -0.9028  0.4336
  549MOL0     H74086   9.073   2.764   7.397  0.3843 -2.4836  0.3813
  549MOL0     H74087   9.012   2.910   7.188  1.3315  0.3853 -1.8960
  549MOL0     H74088   9.031   2.774   7.087 -0.9230  1.2431  0.2419
  549MOL0     H74089   9.245   2.905   7.253 -1.4820  1.0435  0.8451
  549MOL0     H74090   9.271   2.760   7.147  1.8296  0.0756  1.6411
  549MOL0     H74091   9.172   3.046   7.091 -1.7579 -0.8607  0.9667
  549MOL0     H74092   9.169   2.927   6.971 -1.1193  0.2265  0.1309
  549MOL0     H74093   9.428   3.008   7.109 -1.3655  0.5596  0.4036
  549MOL0     H74094   9.416   2.888   6.981 -1.0284 -1.6025  0.8570
  549MOL0     H74095   8.772   2.638   7.785  0.6525 -2.0322  1.0535
  549MOL0     H74096   8.616   2.604   7.978  3.2652  0.1675 -1.0644
  549MOL0     H74097   8.215   2.634   8.165 -0.5301  1.4632  0.5672
  549MOL0     H74098   8.025   2.588   8.327 -0.6603 -1.1404  1.7399
  549MOL0     H74099   6.196   1.926   8.933  0.6271  1.3575  2.1407
  549MOL0     H74100   6.074   2.122   8.852  0.0965  1.5089  2.3253
  549MOL0     H74101   5.952   2.366   8.640  0.2870  0.7616  1.8875
  549MOL0     H74102   5.769   2.504   8.554  0.4725 -0.4965 -2.6505
  549MOL0     H74103   5.850   2.876   8.331  0.5412  0.1210  0.5305
  549MOL0     H74104   5.673   2.822   8.324 -0.2353  0.2114  4.8224
  549MOL0     H74105   5.746   2.605   8.252  0.5063  0.1413 -0.8488
  549MOL0     H74106   5.922   2.655   8.249  2.1454  2.9758 -1.6666
  549MOL0     H74107   5.848   2.649   8.027 -0.9725 -0.9089 -0.1458
  549MOL0     H74108   5.869   2.827   8.079 -0.7115 -0.1441 -0.4493
  549MOL0     H74109   5.600   2.835   8.103  0.0716  1.0314 -0.9031
  549MOL0     H74110   5.671   2.803   7.941  1.0562  1.1540  0.3369
  549MOL0     H74111   5.481   2.448   8.008 -0.1107  0.9378  1.7857
  549MOL0     H74112   6.024   2.829   8.476  0.7330 -0.5318 -0.7880
  549MOL0     H74113   6.285   2.758   8.674  1.9729  1.5334 -0.7629
  549MOL0     H74114   6.330   2.676   8.518 -0.4328 -0.5353 -1.2395
  549MOL0     H74115   6.254   2.831   8.519 -0.2335  0.3188  1.9982
  550MOL0     O74116   2.653   3.989  10.155  0.3193  0.3932  0.2841
  550MOL0     C74117   2.601   4.085  10.198 -1.3736  0.2680 -0.8651
  550MOL0     O74118   2.663   4.183  10.258 -0.0478  0.1673 -0.3212
  550MOL0     C74119   2.800   4.167  10.291 -0.5099 -0.5459 -0.3292
  550MOL0     C74120   2.901   4.224  10.213 -0.0162  0.2251 -0.7156
  550MOL0     C74121   3.040   4.219  10.248 -0.7680 -0.3136  0.7985
  550MOL0     C74122   3.074   4.126  10.346 -0.1964 -0.2571 -0.4036
  550MOL0     O74123   3.211   4.098  10.357 -0.1219 -0.2850  0.3986
  550MOL0     C74124   3.247   3.984  10.430 -1.4603  0.3860 -0.7646
  550MOL0     C74125   3.400   3.958  10.412 -0.1900 -0.0657  0.4029
  550MOL0     C74126   3.493   4.073  10.439 -0.6631  0.1921 -1.3042
  550MOL0     C74127   3.501   4.123  10.584 -0.8429 -0.0605 -0.2146
  550MOL0     C74128   3.592   4.243  10.604 -0.0454  0.5299  0.5807
  550MOL0     C74129   3.630   4.258  10.754  1.2406 -0.5149  0.1673
  550MOL0     C74130   3.734   4.370  10.770 -0.7419  0.3828 -0.8577
  550MOL0     C74131   3.667   4.505  10.745  0.2875  0.1812 -0.1796
  550MOL0     N74132   3.762   4.609  10.713 -0.5767 -0.4476 -0.2682
  550MOL0     C74133   3.845   4.679  10.805  0.8066 -0.3863  0.0516
  550MOL0     C74134   3.923   4.759  10.728  0.0481  0.0096 -0.4050
  550MOL0     C74135   4.031   4.859  10.772 -0.4340  0.9968  0.2607
  550MOL0     C74136   3.967   4.998  10.798 -0.2669 -0.4692 -1.1913
  550MOL0     C74137   3.894   4.995  10.938 -0.1980  0.3348 -0.6352
  550MOL0     C74138   3.872   5.129  11.009  0.6378 -0.4413  1.2129
  550MOL0     O74139   3.795   5.102  11.124 -0.0265 -0.8241 -0.1417
  550MOL0     C74140   3.660   5.085  11.136 -0.4786  0.1423 -0.6055
  550MOL0     C74141   3.573   5.103  11.026 -0.2883 -0.3991  0.0161
  550MOL0     C74142   3.442   5.089  11.043 -0.0127 -0.4280  0.9080
  550MOL0     C74143   3.388   5.059  11.166  1.5576  0.9362 -0.5274
  550MOL0     C74144   3.242   5.061  11.177 -0.0259 -0.1066 -0.0046
  550MOL0     O74145   3.201   5.030  11.306  0.6162  0.0600  0.6994
  550MOL0     C74146   3.074   5.046  11.341  1.0526  0.6450  0.8191
  550MOL0     C74147   3.057   5.070  11.478 -0.0361 -0.8149 -0.9276
  550MOL0     C74148   2.929   5.090  11.527 -0.5547 -0.2603  0.3129
  550MOL0     C74149   2.820   5.085  11.456 -0.2556 -0.4081  0.5571
  550MOL0     O74150   2.697   5.121  11.508 -0.0018  0.6161  0.4832
  550MOL0     C74151   2.572   5.090  11.439 -0.2211 -0.9705 -0.3200
  550MOL0     C74152   2.450   5.131  11.531 -0.2602 -0.1127 -0.5991
  550MOL0     C74153   2.466   5.286  11.557  0.1910 -0.6908  0.5466
  550MOL0     C74154   2.334   5.343  11.590  0.2703  0.0431  0.7744
  550MOL0     C74155   2.345   5.504  11.600  0.8141  0.3191  0.1038
  550MOL0     C74156   2.203   5.552  11.612 -0.3797  0.3160  0.5577
  550MOL0     C74157   2.210   5.706  11.620  0.9756  0.8069  0.1898
  550MOL0     C74158   2.247   5.738  11.766 -0.5423  0.1072  0.0255
  550MOL0    Cl74159   2.173   5.894  11.836  0.2234 -0.5760  0.2103
  550MOL0     C74160   2.833   5.049  11.320 -0.8162 -0.1984  0.5380
  550MOL0     C74161   2.956   5.029  11.261 -0.5172 -0.1716  0.0831
  550MOL0     O74162   3.171   5.094  11.081  0.3048  0.4535  0.3878
  550MOL0     C74163   3.476   5.034  11.277 -0.5546  0.1998  0.6565
  550MOL0     C74164   3.614   5.046  11.261  0.4738  0.4458 -0.5141
  550MOL0     N74165   3.901   4.725  10.596  0.2686 -0.4071 -0.5937
  550MOL0     N74166   3.808   4.638  10.589 -0.5521  0.1889 -1.3219
  550MOL0     C74167   2.975   4.076  10.433  0.2057  0.2796 -0.3876
  550MOL0     C74168   2.839   4.106  10.408 -0.2371  0.3774  0.3698
  550MOL0     C74169   2.458   4.105  10.170 -0.0987 -0.3053 -0.0489
  550MOL0     C74170   2.413   4.242  10.190  0.2469  0.2628  0.1862
  550MOL0     C74171   2.274   4.266  10.187 -0.5504  0.4852  0.0257
  550MOL0     C74172   2.175   4.172  10.154 -0.3083  0.9325  0.5076
  550MOL0     O74173   2.045   4.211  10.148 -0.6729  0.4758 -0.5009
  550MOL0     C74174   1.946   4.114  10.098 -0.3591 -0.5413  0.2074
  550MOL0     C74175   1.817   4.187  10.065  0.9873 -1.0503 -0.2354
  550MOL0     C74176   1.710   4.084  10.013 -0.3409 -0.3086  0.1150
  550MOL0     C74177   1.572   4.144   9.982  0.0730 -0.4126  0.2724
  550MOL0     C74178   1.558   4.258   9.896  0.1293 -0.5908  0.4969
  550MOL0     C74179   1.555   4.337   9.804 -0.2272 -0.0389 -0.6060
  550MOL0     C74180   2.216   4.045  10.128 -0.4584  0.0375  0.1650
  550MOL0     C74181   2.353   4.008  10.131 -0.1418  0.2289  1.3207
  550MOL0     C74182   2.393   3.869  10.092 -0.2066  0.3114  0.3528
  550MOL0     H74183   2.863   4.278  10.127 -2.1400  1.8829  1.1304
  550MOL0     H74184   3.116   4.261  10.182 -1.0822 -0.3062  0.4376
  550MOL0     H74185   3.224   3.990  10.537  1.1132 -0.5422 -0.0926
  550MOL0     H74186   3.200   3.896  10.385  1.6949 -2.3355  0.8783
  550MOL0     H74187   3.410   3.925  10.308 -1.4750  1.7483 -0.3346
  550MOL0     H74188   3.422   3.875  10.480  3.1001  0.5980  0.2810
  550MOL0     H74189   3.452   4.158  10.383 -2.1067  0.9127  0.7061
  550MOL0     H74190   3.588   4.039  10.397 -0.5835  3.4021 -4.2013
  550MOL0     H74191   3.402   4.164  10.605 -1.5759 -0.4622 -2.6058
  550MOL0     H74192   3.524   4.041  10.653 -1.1820  0.9645  1.1700
  550MOL0     H74193   3.683   4.215  10.550 -1.4131 -0.1323 -1.4883
  550MOL0     H74194   3.547   4.331  10.557  0.7667 -0.5984 -2.5878
  550MOL0     H74195   3.541   4.284  10.813  3.0764  3.5704  1.5545
  550MOL0     H74196   3.678   4.171  10.799  1.4379 -0.4302  0.1237
  550MOL0     H74197   3.820   4.351  10.705  0.3193 -0.5655  0.7664
  550MOL0     H74198   3.766   4.371  10.875  0.6901  2.8016 -1.2342
  550MOL0     H74199   3.598   4.491  10.662 -0.7645  1.5295  0.4225
  550MOL0     H74200   3.607   4.525  10.834 -0.5154 -2.1384 -0.1274
  550MOL0     H74201   3.832   4.674  10.913 -3.1730  4.4623  0.2209
  550MOL0     H74202   4.087   4.807  10.850  0.2847  0.1895 -0.7571
  550MOL0     H74203   4.101   4.876  10.689  2.9575  1.4045  2.9954
  550MOL0     H74204   4.035   5.082  10.805 -1.5264  0.4804  0.5035
  550MOL0     H74205   3.894   5.018  10.719 -3.4889 -4.1828  0.4374
  550MOL0     H74206   3.950   4.924  11.000 -0.2310 -2.4716 -3.5308
  550MOL0     H74207   3.794   4.955  10.921 -0.6882  0.6020  1.3220
  550MOL0     H74208   3.820   5.197  10.940  3.2995 -0.6106 -1.1651
  550MOL0     H74209   3.968   5.171  11.040 -0.6863  2.6654  1.5828
  550MOL0     H74210   3.608   5.128  10.926 -0.4853  3.4594  0.7709
  550MOL0     H74211   3.386   5.103  10.951  1.0539 -0.1351  0.2836
  550MOL0     H74212   3.151   5.079  11.530 -1.0227 -0.1554  0.7992
  550MOL0     H74213   2.922   5.111  11.634 -0.1156  1.4533  0.0432
  550MOL0     H74214   2.560   5.150  11.349 -1.0180 -0.3464  0.1874
  550MOL0     H74215   2.573   4.985  11.409 -2.3494 -1.2171  0.2990
  550MOL0     H74216   2.354   5.103  11.487 -0.1038  0.0854 -1.0714
  550MOL0     H74217   2.452   5.074  11.624  1.5676 -2.1203 -1.7620
  550MOL0     H74218   2.543   5.320  11.627  0.0088  1.6683 -0.3110
  550MOL0     H74219   2.488   5.328  11.458 -1.7965 -2.4182 -0.7119
  550MOL0     H74220   2.302   5.302  11.686  2.2772  2.0788  2.4105
  550MOL0     H74221   2.259   5.311  11.516  0.1534  0.0371  0.8956
  550MOL0     H74222   2.394   5.551  11.514 -1.6039  1.8127 -0.5640
  550MOL0     H74223   2.396   5.533  11.693  0.9406 -0.6070  0.3277
  550MOL0     H74224   2.142   5.521  11.526  1.0036 -0.5241 -0.1707
  550MOL0     H74225   2.160   5.504  11.700 -2.3527 -2.0556 -1.5096
  550MOL0     H74226   2.114   5.753  11.599 -1.0437 -1.4980  3.3607
  550MOL0     H74227   2.288   5.753  11.559  0.6059  1.0657 -0.0915
  550MOL0     H74228   2.213   5.661  11.836  3.9800 -1.7538  0.5580
  550MOL0     H74229   2.355   5.737  11.784 -0.7977 -0.7811  1.7843
  550MOL0     H74230   2.746   5.037  11.256 -0.1165  0.2192 -0.5223
  550MOL0     H74231   2.965   4.994  11.159  0.8768  0.0314  0.1074
  550MOL0     H74232   3.435   5.011  11.375  0.4865 -2.7058  0.5137
  550MOL0     H74233   3.686   5.019  11.338  0.3710  0.4023 -0.4320
  550MOL0     H74234   2.988   4.012  10.520 -0.3438  1.9498  0.9708
  550MOL0     H74235   2.777   4.068  10.489  2.3286 -0.4201  2.0907
  550MOL0     H74236   2.486   4.316  10.218  1.0233  0.2127 -1.5375
  550MOL0     H74237   2.237   4.367  10.203  0.4213  0.6706  1.3257
  550MOL0     H74238   1.928   4.034  10.170 -2.5322  0.3339  0.7041
  550MOL0     H74239   1.981   4.063  10.008 -0.9988 -1.6574  0.5697
  550MOL0     H74240   1.831   4.273   9.998  0.1987 -3.0578 -3.1750
  550MOL0     H74241   1.778   4.218  10.162  0.1233 -3.0380  0.1009
  550MOL0     H74242   1.686   4.018  10.097  1.3391 -0.0251  0.8661
  550MOL0     H74243   1.755   4.024   9.934  4.9971  2.0851  0.9055
  550MOL0     H74244   1.513   4.066   9.934 -2.5617  0.1248  2.3802
  550MOL0     H74245   1.523   4.162  10.079  1.2008 -3.4338  1.5513
  550MOL0     H74246   1.565   4.417   9.732 -0.3907  1.2051  0.7151
  550MOL0     H74247   2.154   3.960  10.102 -1.9235  1.4984 -1.3985
  550MOL0     H74248   2.320   3.817  10.030  3.3895  0.5077 -4.6434
  550MOL0     H74249   2.479   3.869  10.024  0.2341 -0.0984  0.9033
  550MOL0     H74250   2.423   3.804  10.175 -0.5751 -1.7591 -1.0714
  551MOL0     O74251   0.189   1.862   6.858  0.1773 -0.0574  0.1190
  551MOL0     C74252   0.190   1.837   6.739  0.3195 -0.2550 -0.0362
  551MOL0     O74253   0.302   1.856   6.663  0.3497 -0.5645 -1.0049
  551MOL0     C74254   0.429   1.823   6.704 -1.4969 -0.2155  0.1177
  551MOL0     C74255   0.535   1.896   6.645 -0.4064  0.2076 -0.0025
  551MOL0     C74256   0.667   1.860   6.679  0.0429  0.9126 -0.5839
  551MOL0     C74257   0.687   1.774   6.792 -0.1586 -1.3565 -0.0076
  551MOL0     O74258   0.803   1.785   6.865 -0.7738 -0.3659  0.3276
  551MOL0     C74259   0.920   1.856   6.816  0.6322 -0.3412 -0.5162
  551MOL0     C74260   1.048   1.788   6.870 -0.3691  0.0578  0.5283
  551MOL0     C74261   1.180   1.860   6.824 -0.0400  0.1434 -0.2693
  551MOL0     C74262   1.298   1.781   6.881  0.6276  0.1608 -0.5795
  551MOL0     C74263   1.436   1.825   6.835 -0.2751 -0.3157  0.0236
  551MOL0     C74264   1.548   1.747   6.912 -1.3800  0.1131 -0.4032
  551MOL0     C74265   1.692   1.805   6.899 -0.5234  0.8890 -0.2912
  551MOL0     C74266   1.772   1.751   7.019 -0.1999  0.5920  0.0090
  551MOL0     N74267   1.923   1.729   6.985 -0.0060 -0.1472  0.2638
  551MOL0     C74268   1.978   1.653   6.879  0.6894 -0.6364  0.4601
  551MOL0     C74269   2.114   1.666   6.896  0.2565  0.0125  0.4512
  551MOL0     C74270   2.217   1.575   6.833  0.4359  0.1010 -1.2032
  551MOL0     C74271   2.259   1.638   6.700  0.7813 -0.7145 -0.8836
  551MOL0     C74272   2.368   1.563   6.630  0.0704 -0.4382 -0.8249
  551MOL0     C74273   2.326   1.426   6.578 -0.1299  0.1270 -0.3126
  551MOL0     O74274   2.410   1.399   6.463  0.9597 -1.2922  0.4357
  551MOL0     C74275   2.491   1.291   6.486 -0.1932 -0.0165 -0.6885
  551MOL0     C74276   2.462   1.168   6.446  0.1178 -0.4633 -0.8904
  551MOL0     C74277   2.548   1.068   6.470 -0.0559  0.9129 -0.7805
  551MOL0     C74278   2.671   1.083   6.536 -0.5064 -1.1051 -0.6145
  551MOL0     C74279   2.765   0.974   6.556 -0.2447 -0.4312  0.9997
  551MOL0     O74280   2.702   0.856   6.538 -0.0327  0.2657 -0.0101
  551MOL0     C74281   2.773   0.743   6.525 -0.0752 -0.0659  0.7699
  551MOL0     C74282   2.823   0.678   6.644  0.5380  0.0704  0.3682
  551MOL0     C74283   2.888   0.560   6.615 -0.2730  0.3825 -0.0607
  551MOL0     C74284   2.914   0.507   6.490  0.5105 -0.1185 -1.3229
  551MOL0     O74285   2.992   0.395   6.492 -0.0938 -0.2421 -0.8930
  551MOL0     C74286   3.071   0.377   6.369 -0.1561  0.3791  0.5150
  551MOL0     C74287   3.178   0.270   6.395 -0.5963  0.0888 -0.3089
  551MOL0     C74288   3.133   0.124   6.399  0.2510 -0.8895 -0.0121
  551MOL0     C74289   3.233   0.031   6.348 -0.0015 -0.3758  0.5325
  551MOL0     C74290   3.369   0.040   6.418 -0.3527  0.5782 -0.3240
  551MOL0     C74291   3.450  -0.086   6.386 -0.5276 -0.2911  0.1186
  551MOL0     C74292   3.572  -0.110   6.484  0.0113 -0.1512  0.0827
  551MOL0     C74293   3.627  -0.247   6.470 -0.2312  0.2942 -0.6945
  551MOL0    Cl74294   3.734  -0.272   6.317 -0.1302 -0.1292  0.0767
  551MOL0     C74295   2.857   0.580   6.376  0.5222  0.0770 -0.9514
  551MOL0     C74296   2.789   0.696   6.394 -0.6951  0.6318 -0.2000
  551MOL0     O74297   2.884   0.995   6.581 -0.0293 -0.4860 -0.2284
  551MOL0     C74298   2.706   1.215   6.566 -1.0449 -0.7140 -0.5350
  551MOL0     C74299   2.615   1.321   6.541 -0.0079 -0.3759 -0.0185
  551MOL0     N74300   2.138   1.747   7.000 -0.9588 -0.1802 -0.0946
  551MOL0     N74301   2.024   1.793   7.055  0.4674 -0.5648  0.3212
  551MOL0     C74302   0.578   1.706   6.846 -0.1591  0.1592  0.1767
  551MOL0     C74303   0.453   1.721   6.796 -0.4213 -0.5978 -0.0842
  551MOL0     C74304   0.058   1.800   6.676 -0.9353  0.3975  0.0583
  551MOL0     C74305   0.033   1.824   6.543  0.8868 -0.4856 -0.0881
  551MOL0     C74306  -0.085   1.789   6.485  0.1831 -0.3132  0.5701
  551MOL0     C74307  -0.183   1.718   6.556  0.2520 -0.3713  0.8575
  551MOL0     O74308  -0.295   1.671   6.489 -0.1241 -0.2480  0.6034
  551MOL0     C74309  -0.376   1.571   6.553 -0.5836 -0.1222 -0.3969
  551MOL0     C74310  -0.471   1.520   6.441  0.7148 -0.2133 -0.6036
  551MOL0     C74311  -0.530   1.384   6.494 -0.2844 -0.2146  0.0021
  551MOL0     C74312  -0.643   1.347   6.403 -0.3919 -0.6767  0.0549
  551MOL0     C74313  -0.750   1.435   6.394  0.0335 -0.3276  0.4462
  551MOL0     C74314  -0.848   1.506   6.386  0.0622 -0.2995 -0.5024
  551MOL0     C74315  -0.159   1.695   6.692 -0.2652 -0.2234  0.2604
  551MOL0     C74316  -0.042   1.735   6.754 -1.0992  0.4611 -0.4666
  551MOL0     C74317  -0.026   1.696   6.903 -0.3920  0.2699 -0.8951
  551MOL0     H74318   0.524   1.981   6.578 -1.1721  0.2785  0.2056
  551MOL0     H74319   0.747   1.917   6.633  0.1290  1.7338  0.5417
  551MOL0     H74320   0.933   1.853   6.708 -3.6567 -0.1608 -1.2135
  551MOL0     H74321   0.921   1.961   6.848  2.3867  0.2178 -2.2236
  551MOL0     H74322   1.047   1.687   6.828 -0.2983 -0.9933  2.8869
  551MOL0     H74323   1.056   1.783   6.979  1.5888  0.9522  0.4749
  551MOL0     H74324   1.183   1.962   6.862 -1.6567 -0.7219  2.4830
  551MOL0     H74325   1.185   1.863   6.714  0.0201  1.2326 -0.2463
  551MOL0     H74326   1.295   1.797   6.989 -0.1966 -0.1424 -0.5502
  551MOL0     H74327   1.277   1.675   6.867 -0.1211  0.3262 -0.7528
  551MOL0     H74328   1.458   1.818   6.728  0.0253 -2.9874  0.1947
  551MOL0     H74329   1.445   1.930   6.863 -0.0963 -0.0050 -1.1268
  551MOL0     H74330   1.525   1.742   7.019 -0.9603  1.4666 -0.2429
  551MOL0     H74331   1.548   1.640   6.890 -0.0701 -0.1938  0.9215
  551MOL0     H74332   1.695   1.914   6.901  1.0742  0.8850 -0.8841
  551MOL0     H74333   1.732   1.773   6.803 -2.7108 -2.9332 -0.1248
  551MOL0     H74334   1.740   1.812   7.103 -0.1557  0.4349  0.1398
  551MOL0     H74335   1.736   1.650   7.043  3.2045 -0.7643  0.0032
  551MOL0     H74336   1.928   1.601   6.799 -0.9514 -0.4759  1.3466
  551MOL0     H74337   2.301   1.575   6.904 -1.3965  0.9327  1.0993
  551MOL0     H74338   2.179   1.474   6.820  0.9803 -0.2687 -0.0969
  551MOL0     H74339   2.173   1.643   6.632  0.8078 -0.6156 -0.9099
  551MOL0     H74340   2.291   1.742   6.714 -0.2109 -0.3359 -1.3187
  551MOL0     H74341   2.453   1.566   6.699 -1.5696 -2.4619  1.4797
  551MOL0     H74342   2.399   1.623   6.544  0.5903  0.0448 -0.3169
  551MOL0     H74343   2.220   1.428   6.550  0.0432 -0.8766 -1.0594
  551MOL0     H74344   2.321   1.345   6.651 -2.8713  1.6816  1.3938
  551MOL0     H74345   2.363   1.154   6.403 -0.8508 -0.6698  1.2374
  551MOL0     H74346   2.506   0.969   6.451  0.9691  0.5445 -1.1582
  551MOL0     H74347   2.811   0.724   6.742 -0.7334  0.9341 -0.1648
  551MOL0     H74348   2.926   0.512   6.705 -1.3529 -0.3044  0.0546
  551MOL0     H74349   3.014   0.336   6.285  3.0953 -0.9377 -1.1871
  551MOL0     H74350   3.111   0.477   6.351 -0.1651  0.3137  0.1303
  551MOL0     H74351   3.257   0.278   6.319  1.1056 -0.4696  1.3431
  551MOL0     H74352   3.232   0.295   6.487  1.0559 -1.7956 -0.7019
  551MOL0     H74353   3.114   0.102   6.504  2.0110  0.0552  0.5415
  551MOL0     H74354   3.037   0.120   6.346 -1.5783  0.2574  2.9786
  551MOL0     H74355   3.254   0.055   6.243  1.1307 -1.0922  0.5755
  551MOL0     H74356   3.192  -0.070   6.347  0.8580 -0.7648 -1.9123
  551MOL0     H74357   3.340   0.047   6.523 -0.8606  3.4564 -0.5691
  551MOL0     H74358   3.423   0.135   6.409 -1.2944  1.9891  5.2253
  551MOL0     H74359   3.380  -0.170   6.387 -2.2986  1.1267  0.4015
  551MOL0     H74360   3.484  -0.081   6.282 -0.3379  0.4198  0.2103
  551MOL0     H74361   3.527  -0.091   6.582 -0.5716  0.2873 -0.2680
  551MOL0     H74362   3.656  -0.044   6.461 -0.0923  0.6716  1.8609
  551MOL0     H74363   3.689  -0.273   6.556  1.2549  2.4125 -1.0327
  551MOL0     H74364   3.551  -0.325   6.463 -1.1424  0.6220  3.4706
  551MOL0     H74365   2.868   0.540   6.276  0.1213 -0.2255 -0.8789
  551MOL0     H74366   2.740   0.737   6.306  1.3355 -2.5737 -3.0490
  551MOL0     H74367   2.806   1.238   6.600 -0.4884 -3.7725  0.2060
  551MOL0     H74368   2.642   1.418   6.581  0.5580 -1.3223  2.0491
  551MOL0     H74369   0.588   1.650   6.939  0.5594  1.9833  1.2477
  551MOL0     H74370   0.369   1.671   6.844  1.2714 -1.6981  1.9020
  551MOL0     H74371   0.103   1.868   6.474  0.0540 -0.6302 -1.0492
  551MOL0     H74372  -0.098   1.814   6.380 -1.4811 -0.1012  0.8047
  551MOL0     H74373  -0.440   1.617   6.629 -0.4162  0.1205 -0.4042
  551MOL0     H74374  -0.303   1.502   6.598 -0.0611  2.0623  2.4508
  551MOL0     H74375  -0.418   1.505   6.347  0.8463  0.0106 -0.5648
  551MOL0     H74376  -0.553   1.593   6.443  0.0287 -0.9880  0.7191
  551MOL0     H74377  -0.575   1.388   6.594  0.7299  1.7908  0.4345
  551MOL0     H74378  -0.458   1.303   6.506 -0.2448  0.1061  2.6697
  551MOL0     H74379  -0.610   1.325   6.301 -0.2568  1.8090 -0.5183
  551MOL0     H74380  -0.690   1.254   6.434 -0.1589 -0.9827 -0.4982
  551MOL0     H74381  -0.940   1.560   6.377 -0.9968 -2.1507 -1.3726
  551MOL0     H74382  -0.232   1.640   6.750 -0.4099  0.8897  1.1553
  551MOL0     H74383   0.064   1.635   6.916  0.7056  1.7635 -1.2328
  551MOL0     H74384  -0.005   1.778   6.973  1.1465  2.3685 -3.6178
  551MOL0     H74385  -0.113   1.646   6.945  0.1640 -0.1993 -0.2688
  552MOL0     O74386   9.980   5.846   4.743  1.4749  0.4379 -0.2185
  552MOL0     C74387   9.859   5.831   4.727  0.5581 -0.0662  0.2044
  552MOL0     O74388   9.773   5.935   4.746  0.6148  0.3458 -0.0977
  552MOL0     C74389   9.832   6.060   4.733  0.4010  0.8547 -0.7296
  552MOL0     C74390   9.909   6.115   4.832  0.4754 -0.5094 -0.2989
  552MOL0     C74391   9.971   6.235   4.829 -0.3315  0.6149  0.8679
  552MOL0     C74392   9.967   6.301   4.701 -1.0783 -0.4367 -0.3540
  552MOL0     O74393  10.039   6.418   4.692  0.2241 -0.3575  0.2619
  552MOL0     C74394  10.030   6.496   4.570  0.3470  0.1520  0.3394
  552MOL0     C74395  10.122   6.610   4.571 -0.1538  0.6331 -1.1033
  552MOL0     C74396  10.258   6.560   4.607  0.5534 -0.2613  0.1114
  552MOL0     C74397  10.322   6.477   4.501 -0.6910 -0.3517  0.3267
  552MOL0     C74398  10.469   6.497   4.483  0.2961  0.9329 -0.6255
  552MOL0     C74399  10.556   6.482   4.609  0.0290 -0.2564  0.6201
  552MOL0     C74400  10.705   6.540   4.578  0.9817 -0.3304  0.2994
  552MOL0     C74401  10.800   6.557   4.703 -0.4372  0.3124 -0.3133
  552MOL0     N74402  10.815   6.428   4.775 -0.0624  0.7898 -0.3299
  552MOL0     C74403  10.858   6.306   4.720  0.3116 -0.7660  0.2557
  552MOL0     C74404  10.833   6.206   4.809 -0.9641  0.5396 -0.4879
  552MOL0     C74405  10.858   6.061   4.787 -0.3130  0.0149  0.2185
  552MOL0     C74406  10.724   5.981   4.803 -0.3975  0.1683 -0.0521
  552MOL0     C74407  10.715   5.915   4.943  0.0395 -0.4916  1.0866
  552MOL0     C74408  10.578   5.839   4.948  0.1157  0.4137 -0.1698
  552MOL0     O74409  10.571   5.787   5.078 -1.3074  0.2326 -0.3709
  552MOL0     C74410  10.456   5.724   5.098 -0.6904  0.2961 -0.0933
  552MOL0     C74411  10.382   5.772   5.203  1.1853 -0.6667 -0.5574
  552MOL0     C74412  10.253   5.726   5.236  0.2468  0.1912  1.1652
  552MOL0     C74413  10.198   5.617   5.160 -0.3422 -0.6538  0.1166
  552MOL0     C74414  10.056   5.574   5.173 -0.5091  0.2603  1.2030
  552MOL0     O74415   9.991   5.638   5.272 -0.0487  0.5726 -0.5979
  552MOL0     C74416   9.856   5.625   5.277 -0.6170  0.2162 -0.1311
  552MOL0     C74417   9.770   5.681   5.176 -0.2283 -0.0225  0.2038
  552MOL0     C74418   9.635   5.676   5.200 -0.6589 -0.1406  0.2655
  552MOL0     C74419   9.580   5.608   5.304  0.2415 -0.0151  0.0860
  552MOL0     O74420   9.449   5.591   5.299  0.6207 -0.0509  0.0696
  552MOL0     C74421   9.378   5.513   5.396  0.0308  0.8554 -0.8730
  552MOL0     C74422   9.228   5.481   5.366  0.4280  0.0940  0.8792
  552MOL0     C74423   9.128   5.588   5.393  0.6005  0.4390  0.2773
  552MOL0     C74424   9.084   5.604   5.539  0.6805 -0.1089 -1.3327
  552MOL0     C74425   9.027   5.490   5.607 -0.3095 -0.0507  0.0708
  552MOL0     C74426   8.993   5.531   5.752 -0.3185 -0.4609 -0.6557
  552MOL0     C74427   8.961   5.404   5.846 -0.7793 -0.5299  0.6792
  552MOL0     C74428   8.844   5.436   5.930  0.3953  0.2582 -1.1158
  552MOL0    Cl74429   8.850   5.377   6.102 -0.0205 -0.3907  0.3703
  552MOL0     C74430   9.664   5.549   5.395  0.9790 -0.2343 -0.0011
  552MOL0     C74431   9.802   5.559   5.389 -0.6753 -0.4177  0.2971
  552MOL0     O74432  10.010   5.493   5.091 -0.9373 -0.2529  0.2872
  552MOL0     C74433  10.286   5.554   5.061  0.4454 -0.2927  0.5294
  552MOL0     C74434  10.413   5.607   5.032 -0.1201  0.2291 -0.1205
  552MOL0     N74435  10.788   6.270   4.932  0.0096  0.4207  0.0013
  552MOL0     N74436  10.774   6.396   4.903  0.4138  0.2125 -0.3305
  552MOL0     C74437   9.892   6.251   4.598  0.4076 -0.3254  1.5112
  552MOL0     C74438   9.817   6.130   4.612 -0.7966 -0.4719  0.3276
  552MOL0     C74439   9.804   5.693   4.723 -0.8018 -1.0693  0.0432
  552MOL0     C74440   9.662   5.682   4.703  0.2828  0.1065  0.2573
  552MOL0     C74441   9.601   5.558   4.692 -0.0251 -0.1991  0.4378
  552MOL0     C74442   9.674   5.441   4.701  0.2071  0.1712  0.2216
  552MOL0     O74443   9.604   5.327   4.702  0.4690 -0.0973  0.4556
  552MOL0     C74444   9.647   5.223   4.610  0.0260 -0.3087  0.0549
  552MOL0     C74445   9.647   5.271   4.455 -0.5780 -0.5073 -0.5357
  552MOL0     C74446   9.515   5.320   4.419  0.0299 -1.6471  0.0863
  552MOL0     C74447   9.512   5.394   4.292  0.4230 -0.0332 -0.9876
  552MOL0     C74448   9.539   5.307   4.169 -0.1699 -0.1425 -0.3007
  552MOL0     C74449   9.590   5.238   4.081 -0.4557 -0.8417  0.1888
  552MOL0     C74450   9.816   5.448   4.711  0.4077  0.5477 -0.4247
  552MOL0     C74451   9.877   5.569   4.725  0.1320 -0.0576 -0.0080
  552MOL0     C74452  10.027   5.553   4.743 -0.6246  0.3394  0.6134
  552MOL0     H74453   9.908   6.064   4.928 -1.4632  0.7673  0.4166
  552MOL0     H74454  10.030   6.262   4.915  0.8592 -2.5294  1.1701
  552MOL0     H74455  10.048   6.428   4.486 -2.6884  0.0401 -0.3404
  552MOL0     H74456   9.932   6.544   4.558  0.7423  1.3499  1.6583
  552MOL0     H74457  10.086   6.691   4.635  1.1017  1.8597 -1.9007
  552MOL0     H74458  10.127   6.658   4.473  2.4879 -1.1380 -1.9397
  552MOL0     H74459  10.260   6.512   4.705  1.0620 -0.2784  0.0944
  552MOL0     H74460  10.320   6.650   4.617  1.1594 -0.7005  0.4280
  552MOL0     H74461  10.319   6.372   4.532  2.9310 -1.3691 -2.0960
  552MOL0     H74462  10.272   6.490   4.404 -0.2117  2.2159  0.3698
  552MOL0     H74463  10.498   6.428   4.403 -1.5304 -1.7225  0.8015
  552MOL0     H74464  10.486   6.598   4.446 -0.1550  1.3040  0.1567
  552MOL0     H74465  10.517   6.555   4.681 -2.6730 -0.4673 -0.5079
  552MOL0     H74466  10.557   6.378   4.641  1.3955 -0.7506 -0.9021
  552MOL0     H74467  10.693   6.638   4.532  0.5962 -0.5768 -0.1319
  552MOL0     H74468  10.743   6.465   4.508 -4.0981 -3.1260  0.0726
  552MOL0     H74469  10.900   6.582   4.666 -1.0210  0.0378 -2.1871
  552MOL0     H74470  10.765   6.642   4.762 -1.3814  1.0454 -1.8436
  552MOL0     H74471  10.895   6.301   4.618 -1.4569 -2.1183 -0.3708
  552MOL0     H74472  10.876   6.047   4.680 -0.1633 -1.3200  0.4028
  552MOL0     H74473  10.946   6.038   4.849  0.9343  2.2607 -0.5808
  552MOL0     H74474  10.646   6.057   4.795  3.0396  4.0548  0.3147
  552MOL0     H74475  10.709   5.900   4.731 -1.4826  2.2595 -2.3361
  552MOL0     H74476  10.722   5.986   5.026  0.0001 -0.0520  0.7169
  552MOL0     H74477  10.800   5.846   4.953  0.0490 -0.9034 -1.1903
  552MOL0     H74478  10.579   5.756   4.877  2.8437 -1.5234  1.9223
  552MOL0     H74479  10.495   5.904   4.919  0.0793 -0.4412 -2.2062
  552MOL0     H74480  10.423   5.858   5.255 -1.1014  0.2784 -0.2183
  552MOL0     H74481  10.197   5.772   5.315 -2.8229 -0.7988 -0.2877
  552MOL0     H74482   9.806   5.715   5.079 -2.0691  1.2775 -0.0830
  552MOL0     H74483   9.567   5.703   5.119 -0.7193  0.4455  0.5099
  552MOL0     H74484   9.430   5.418   5.412  1.6345  2.1154  2.1739
  552MOL0     H74485   9.386   5.558   5.495 -0.5885  0.0973 -0.4612
  552MOL0     H74486   9.233   5.452   5.261  3.7041 -1.9247  1.4540
  552MOL0     H74487   9.196   5.391   5.419 -0.7746 -1.3936 -2.1532
  552MOL0     H74488   9.165   5.687   5.365 -0.4156  1.0216  0.9078
  552MOL0     H74489   9.035   5.578   5.335  2.3637  2.0313 -3.0983
  552MOL0     H74490   9.013   5.687   5.529  2.4670  1.3908 -2.1419
  552MOL0     H74491   9.169   5.648   5.591  0.2460  0.9309 -1.4711
  552MOL0     H74492   9.106   5.415   5.613  0.1853  0.3520 -1.1918
  552MOL0     H74493   8.941   5.447   5.556 -0.0109  1.5073 -1.8990
  552MOL0     H74494   9.081   5.570   5.802  1.1326 -1.3230 -2.4043
  552MOL0     H74495   8.912   5.604   5.756  2.3319  2.6851 -0.6418
  552MOL0     H74496   9.047   5.388   5.911 -1.6246  0.2423  2.0447
  552MOL0     H74497   8.948   5.316   5.782 -1.4111 -0.8980  1.2940
  552MOL0     H74498   8.837   5.543   5.947  2.4754  0.1390  1.0436
  552MOL0     H74499   8.751   5.401   5.884 -0.2797  0.9507 -0.3173
  552MOL0     H74500   9.614   5.498   5.477  1.1468 -0.5625 -0.0983
  552MOL0     H74501   9.861   5.515   5.467 -1.8123  3.6920  3.8663
  552MOL0     H74502  10.245   5.475   4.999 -1.5165 -0.7180  2.2653
  552MOL0     H74503  10.465   5.559   4.949 -2.0910  0.4499 -1.5400
  552MOL0     H74504   9.879   6.302   4.504 -1.4825  1.4880  2.6590
  552MOL0     H74505   9.762   6.092   4.527  0.4607  3.7769 -2.6513
  552MOL0     H74506   9.607   5.776   4.697  2.8832  1.7821  1.0705
  552MOL0     H74507   9.495   5.553   4.673  0.0231  0.7426 -0.1628
  552MOL0     H74508   9.580   5.138   4.623 -1.2276  0.7698  0.9603
  552MOL0     H74509   9.751   5.201   4.635 -0.1321 -0.2039  0.8365
  552MOL0     H74510   9.679   5.187   4.394  0.8342 -0.8415  0.6106
  552MOL0     H74511   9.715   5.356   4.443 -1.0249 -0.2742 -1.5847
  552MOL0     H74512   9.474   5.392   4.491  1.0502 -0.6580 -0.3031
  552MOL0     H74513   9.442   5.238   4.418 -3.8224  1.4127  2.3666
  552MOL0     H74514   9.416   5.444   4.274  0.1291 -0.5984 -1.0177
  552MOL0     H74515   9.586   5.473   4.308  1.4240 -1.4906  2.4417
  552MOL0     H74516   9.618   5.174   4.000 -0.7561 -1.2999  0.4427
  552MOL0     H74517   9.853   5.347   4.717 -0.5343 -0.1200 -3.8648
  552MOL0     H74518  10.091   5.565   4.655  0.2835 -0.1148  1.1919
  552MOL0     H74519  10.054   5.622   4.824  0.2171 -1.3476  1.8402
  552MOL0     H74520  10.051   5.453   4.781  0.9477  0.2234 -0.5839
  553MOL0     O74521   4.454   9.242   4.005 -0.3758 -0.1894 -0.0981
  553MOL0     C74522   4.461   9.311   3.899 -0.5259  0.2999  0.3825
  553MOL0     O74523   4.571   9.377   3.858  0.8137  0.0632  0.0447
  553MOL0     C74524   4.695   9.354   3.913  0.0684  0.0065  1.3338
  553MOL0     C74525   4.738   9.395   4.039 -0.8315  0.7311  0.0704
  553MOL0     C74526   4.874   9.375   4.083  0.1804  0.6165  0.4397
  553MOL0     C74527   4.972   9.325   4.000 -0.4560  0.4222 -1.1867
  553MOL0     O74528   5.097   9.325   4.056  0.4555 -0.0836 -0.7500
  553MOL0     C74529   5.185   9.423   3.990 -0.0556 -0.2532 -0.3504
  553MOL0     C74530   5.276   9.483   4.100 -0.3868  0.0236  0.8505
  553MOL0     C74531   5.398   9.553   4.039 -0.7078 -0.8562  0.1642
  553MOL0     C74532   5.412   9.698   4.086 -0.0006  0.3320 -0.1691
  553MOL0     C74533   5.554   9.744   4.056  0.2410 -0.3544  0.7995
  553MOL0     C74534   5.588   9.882   4.124 -0.0953 -0.6224  0.2085
  553MOL0     C74535   5.731   9.923   4.109  0.1357 -0.3456  0.9586
  553MOL0     C74536   5.744  10.064   4.167 -0.0951 -0.5365  0.9737
  553MOL0     N74537   5.875  10.119   4.148 -0.7235 -0.8807 -0.1426
  553MOL0     C74538   5.964  10.133   4.257  0.0399  1.1148 -0.2548
  553MOL0     C74539   6.064  10.219   4.208  0.1740  0.9254 -0.5278
  553MOL0     C74540   6.199  10.235   4.274  0.3715 -0.0280 -0.0596
  553MOL0     C74541   6.294  10.117   4.278 -0.5857  0.0970 -0.4384
  553MOL0     C74542   6.439  10.161   4.319 -0.0779  0.4919 -0.7537
  553MOL0     C74543   6.528  10.213   4.207  0.5791  1.2479 -0.8166
  553MOL0     O74544   6.479  10.339   4.161 -0.4654 -0.1319  0.4079
  553MOL0     C74545   6.577  10.435   4.151 -0.3571  0.2360 -0.7472
  553MOL0     C74546   6.645  10.481   4.270  0.5396 -0.4476  0.5150
  553MOL0     C74547   6.749  10.578   4.269  1.5006  0.4951  0.2499
  553MOL0     C74548   6.794  10.620   4.137  0.3735  0.5497  0.2085
  553MOL0     C74549   6.903  10.710   4.124 -1.0176  0.0109  0.4212
  553MOL0     O74550   6.905  10.805   4.028  0.3278  0.9342  0.3987
  553MOL0     C74551   7.011  10.889   4.039  0.6495 -0.5685  0.5442
  553MOL0     C74552   7.012  10.992   4.138  0.4737  0.4029  1.4078
  553MOL0     C74553   7.108  11.098   4.139 -0.4908 -0.8909  1.3140
  553MOL0     C74554   7.202  11.110   4.034  0.2452 -0.8884  0.7727
  553MOL0     O74555   7.306  11.210   4.057  0.1721  0.3980  0.7435
  553MOL0     C74556   7.423  11.207   3.972 -0.0899  0.4022  0.0841
  553MOL0     C74557   7.515  11.316   3.992 -0.3141  0.3479 -0.5804
  553MOL0     C74558   7.433  11.453   3.999 -0.2437  0.1128 -0.6327
  553MOL0     C74559   7.506  11.579   4.060  0.3508  0.6466 -0.3399
  553MOL0     C74560   7.423  11.713   4.046  0.2559 -0.0856 -0.2079
  553MOL0     C74561   7.297  11.694   4.129 -0.7299 -0.5538  0.0274
  553MOL0     C74562   7.242  11.841   4.149  0.0812  0.3325 -0.1362
  553MOL0     C74563   7.116  11.826   4.223 -0.1453 -1.0958  0.2351
  553MOL0    Cl74564   7.125  11.807   4.399 -0.0500  0.0398 -0.1646
  553MOL0     C74565   7.208  10.995   3.937 -1.4110 -0.9808 -0.1468
  553MOL0     C74566   7.116  10.891   3.944 -0.1855 -0.4773  0.5976
  553MOL0     O74567   6.969  10.714   4.225  0.0995 -0.0225 -0.2870
  553MOL0     C74568   6.723  10.579   4.022 -0.0387 -0.2917 -0.4035
  553MOL0     C74569   6.612  10.484   4.033  0.4067 -0.7326 -0.0009
  553MOL0     N74570   6.044  10.234   4.071 -0.4514  0.3126  0.7156
  553MOL0     N74571   5.931  10.179   4.032  0.2236  0.6837  0.0840
  553MOL0     C74572   4.932   9.281   3.876  0.2607  0.7398  0.6250
  553MOL0     C74573   4.797   9.294   3.836  0.0631  0.3882 -0.2166
  553MOL0     C74574   4.339   9.328   3.817  0.6973 -0.1930 -0.6558
  553MOL0     C74575   4.315   9.456   3.765  1.0169 -1.0785 -0.7887
  553MOL0     C74576   4.204   9.480   3.684  0.9417  0.4857 -0.3061
  553MOL0     C74577   4.111   9.368   3.661  0.0328 -0.7312  0.2423
  553MOL0     O74578   3.992   9.389   3.593  0.0954  0.1581  0.3307
  553MOL0     C74579   3.882   9.294   3.598 -0.9116  0.0135  0.0894
  553MOL0     C74580   3.767   9.357   3.534  0.2938 -0.6211  0.0337
  553MOL0     C74581   3.647   9.255   3.543 -0.2031  0.8676  0.1653
  553MOL0     C74582   3.526   9.290   3.455  0.1675 -0.2140 -0.7870
  553MOL0     C74583   3.536   9.249   3.314 -0.9526  0.6683 -0.3716
  553MOL0     C74584   3.558   9.209   3.207  0.4164  0.1659  0.2247
  553MOL0     C74585   4.142   9.243   3.709 -0.7445 -0.5401 -0.8109
  553MOL0     C74586   4.258   9.217   3.779 -0.6398 -0.2989  0.5125
  553MOL0     C74587   4.297   9.075   3.811 -0.4187 -0.7250 -0.3047
  553MOL0     H74588   4.679   9.458   4.104 -0.0351  1.8735 -0.2725
  553MOL0     H74589   4.895   9.408   4.184  2.6199 -1.1710  0.5858
  553MOL0     H74590   5.249   9.372   3.917  1.8016  1.3823  0.0445
  553MOL0     H74591   5.122   9.495   3.938 -0.6764 -1.3777 -1.2054
  553MOL0     H74592   5.322   9.398   4.151 -0.7699  1.0767  3.0914
  553MOL0     H74593   5.219   9.536   4.177 -2.0731 -1.3050  0.5666
  553MOL0     H74594   5.390   9.549   3.930 -0.8480  0.2726  0.1204
  553MOL0     H74595   5.487   9.496   4.066  0.2736  1.2735  1.7431
  553MOL0     H74596   5.349   9.762   4.023 -0.5583 -3.8598 -4.3882
  553MOL0     H74597   5.384   9.698   4.192  1.7199 -2.6074  0.3996
  553MOL0     H74598   5.624   9.671   4.096  3.2212  1.2442 -1.1091
  553MOL0     H74599   5.577   9.744   3.949  0.2254 -0.5587  0.7950
  553MOL0     H74600   5.519   9.964   4.103  1.4202  0.3803 -1.0968
  553MOL0     H74601   5.568   9.859   4.229 -0.5072  0.2292  0.3289
  553MOL0     H74602   5.759   9.916   4.004  1.1255  1.4261  1.0676
  553MOL0     H74603   5.808   9.871   4.166 -0.3558 -1.4643  0.6367
  553MOL0     H74604   5.672  10.129   4.116 -0.7082 -1.4395  0.6780
  553MOL0     H74605   5.725  10.064   4.274  1.6621  0.3534  1.3285
  553MOL0     H74606   5.958  10.089   4.356 -0.1566  1.7655  0.0308
  553MOL0     H74607   6.238  10.323   4.221 -1.1067  0.0254 -1.1169
  553MOL0     H74608   6.190  10.259   4.381  2.0303 -1.2138  0.3817
  553MOL0     H74609   6.253  10.041   4.344 -1.8273  0.6259 -0.5811
  553MOL0     H74610   6.305  10.077   4.177 -3.5151 -0.0168 -0.7828
  553MOL0     H74611   6.495  10.076   4.360 -0.9919  0.1812 -0.1018
  553MOL0     H74612   6.437  10.222   4.410 -0.0910  0.4547 -0.7285
  553MOL0     H74613   6.522  10.134   4.132 -2.1629 -1.5141  1.9676
  553MOL0     H74614   6.630  10.214   4.246 -0.2607  0.4567  1.5765
  553MOL0     H74615   6.612  10.435   4.363 -1.7869  0.8921  0.4292
  553MOL0     H74616   6.796  10.609   4.362 -0.3476  0.5045  1.2122
  553MOL0     H74617   6.926  10.990   4.205 -0.0070 -0.5002  0.7863
  553MOL0     H74618   7.106  11.182   4.207  1.6202  0.7502 -0.5000
  553MOL0     H74619   7.477  11.113   3.985  1.2718  1.1217 -0.1005
  553MOL0     H74620   7.393  11.206   3.867 -1.9131  2.6064  0.5136
  553MOL0     H74621   7.573  11.313   4.085 -2.3895  0.2492  0.7691
  553MOL0     H74622   7.584  11.310   3.908  2.8062 -0.9969  1.8357
  553MOL0     H74623   7.399  11.471   3.897  1.1305 -0.6025 -1.2558
  553MOL0     H74624   7.348  11.448   4.068  0.9242  2.6864  1.1454
  553MOL0     H74625   7.597  11.587   4.000  0.9730  1.1211  0.6303
  553MOL0     H74626   7.529  11.556   4.165 -0.1830  0.7663 -0.1911
  553MOL0     H74627   7.388  11.731   3.944 -2.3443 -0.8078  0.4886
  553MOL0     H74628   7.474  11.799   4.090  0.7511 -1.1387  1.3462
  553MOL0     H74629   7.230  11.626   4.075 -1.0132 -0.9594  0.8766
  553MOL0     H74630   7.329  11.648   4.223  3.0343  2.2491  0.3643
  553MOL0     H74631   7.239  11.885   4.048 -0.0393  0.7437  0.0423
  553MOL0     H74632   7.307  11.897   4.216 -1.5590  0.8994  1.0342
  553MOL0     H74633   7.043  11.906   4.207  1.2231  0.0219 -0.7215
  553MOL0     H74634   7.078  11.732   4.181 -0.5592 -0.3759 -1.0816
  553MOL0     H74635   7.283  11.007   3.860 -0.2657  1.6542  1.2595
  553MOL0     H74636   7.099  10.807   3.877  0.4128 -1.1914  1.3218
  553MOL0     H74637   6.732  10.640   3.932 -0.5924  0.2055 -0.1304
  553MOL0     H74638   6.563  10.452   3.942  0.3216 -0.1808 -0.1545
  553MOL0     H74639   4.998   9.233   3.804 -2.9397 -1.8705 -0.7931
  553MOL0     H74640   4.763   9.258   3.740  0.2252 -0.0193 -0.1247
  553MOL0     H74641   4.367   9.549   3.783 -1.1815 -0.2888  2.4764
  553MOL0     H74642   4.191   9.574   3.631  0.1037  1.5554  1.6566
  553MOL0     H74643   3.859   9.254   3.698  3.0935 -1.4921  0.6141
  553MOL0     H74644   3.906   9.205   3.539  0.2955  0.4446 -0.0843
  553MOL0     H74645   3.793   9.386   3.431  0.9791  0.1185  0.4006
  553MOL0     H74646   3.742   9.452   3.582  1.0686 -1.4467  2.1397
  553MOL0     H74647   3.619   9.232   3.646 -1.4875 -3.4325 -0.9384
  553MOL0     H74648   3.682   9.160   3.501  0.6434  2.1931 -2.3534
  553MOL0     H74649   3.451   9.229   3.507  3.5927 -0.5185  4.5705
  553MOL0     H74650   3.495   9.395   3.463 -0.8643 -0.5298 -0.4160
  553MOL0     H74651   3.563   9.191   3.102 -1.4390  0.4946  0.0374
  553MOL0     H74652   4.071   9.163   3.689 -3.0254  1.2764 -0.3225
  553MOL0     H74653   4.300   9.059   3.919 -2.3354 -2.2453 -0.4088
  553MOL0     H74654   4.230   8.995   3.779 -1.7114  0.3046 -0.2557
  553MOL0     H74655   4.398   9.053   3.775  0.8223  1.2954  1.6737
  554MOL0     O74656   1.994   1.069   0.039  0.2604  0.4206 -0.5085
  554MOL0     C74657   1.930   1.062   0.142 -0.5084  0.3800 -0.1389
  554MOL0     O74658   1.981   1.027   0.269 -0.3775 -0.2941  0.0447
  554MOL0     C74659   2.108   1.013   0.303 -0.4030  0.4358 -0.5239
  554MOL0     C74660   2.222   1.020   0.216  0.2924  0.5263 -0.3190
  554MOL0     C74661   2.348   0.985   0.259 -0.3653 -0.6333  0.1697
  554MOL0     C74662   2.379   0.959   0.393  0.8362  0.7242  0.4498
  554MOL0     O74663   2.503   0.927   0.439 -0.5410 -0.0278 -0.7565
  554MOL0     C74664   2.617   0.945   0.352 -0.4711  0.0679  1.4185
  554MOL0     C74665   2.732   0.861   0.396  0.8082 -0.0230  0.0231
  554MOL0     C74666   2.870   0.896   0.338  0.5077 -0.0730  0.0455
  554MOL0     C74667   2.879   0.849   0.189 -0.5313 -0.1016  0.0353
  554MOL0     C74668   3.025   0.812   0.164 -0.0015  0.5612 -0.1840
  554MOL0     C74669   3.050   0.789   0.018 -0.0824  0.6391  0.3323
  554MOL0     C74670   3.197   0.825  -0.015 -0.6272  0.2735  0.7490
  554MOL0     C74671   3.230   0.838  -0.166  0.1372 -0.7725 -0.1124
  554MOL0     N74672   3.223   0.712  -0.238  0.1388  0.9182  0.1580
  554MOL0     C74673   3.316   0.677  -0.330 -0.2429  0.1770  0.1201
  554MOL0     C74674   3.266   0.574  -0.401  0.6410  0.1470 -0.0994
  554MOL0     C74675   3.333   0.504  -0.528  0.4555 -0.3768 -1.0731
  554MOL0     C74676   3.259   0.548  -0.653  0.3155  0.2487 -0.8234
  554MOL0     C74677   3.335   0.521  -0.787  0.1978 -0.1412 -0.3484
  554MOL0     C74678   3.234   0.511  -0.896 -0.4247 -0.4587  0.3456
  554MOL0     O74679   3.188   0.643  -0.935  0.2906  1.2925 -1.1474
  554MOL0     C74680   3.072   0.671  -0.995 -0.6977 -0.4546 -0.2114
  554MOL0     C74681   3.071   0.780  -1.087  0.0596  1.6101  1.3129
  554MOL0     C74682   2.957   0.812  -1.159 -0.5003  0.2613  0.6622
  554MOL0     C74683   2.842   0.733  -1.149  0.3160  0.6185  0.1316
  554MOL0     C74684   2.714   0.779  -1.210 -0.3475  0.4967  0.4686
  554MOL0     O74685   2.715   0.904  -1.267 -1.2690  0.0273 -0.4348
  554MOL0     C74686   2.594   0.942  -1.320  0.1613 -0.4103 -0.2372
  554MOL0     C74687   2.492   0.984  -1.234  0.7763  1.1353 -0.4956
  554MOL0     C74688   2.360   0.990  -1.286 -0.4605  0.0251 -0.4324
  554MOL0     C74689   2.334   0.972  -1.423  0.4234 -0.2118  0.1838
  554MOL0     O74690   2.208   0.979  -1.484 -0.3913 -0.0431  0.3811
  554MOL0     C74691   2.175   1.103  -1.545  0.3845  0.7765 -0.0955
  554MOL0     C74692   2.106   1.083  -1.682 -0.1286 -0.3592 -0.3505
  554MOL0     C74693   2.067   1.220  -1.738  0.6318 -0.5942 -0.9879
  554MOL0     C74694   1.920   1.245  -1.711 -0.4631 -0.0212 -0.6165
  554MOL0     C74695   1.856   1.364  -1.789 -0.3327  0.5515  0.0341
  554MOL0     C74696   1.710   1.373  -1.791  0.8372  0.1849  0.7184
  554MOL0     C74697   1.657   1.484  -1.881  0.5828  0.0234 -0.7540
  554MOL0     C74698   1.693   1.625  -1.836 -0.0788 -0.2899 -0.3589
  554MOL0    Cl74699   1.597   1.670  -1.696 -0.1722  0.2735 -0.1596
  554MOL0     C74700   2.438   0.950  -1.504  0.3849  1.2481 -0.4622
  554MOL0     C74701   2.572   0.927  -1.456  0.1651 -0.0033  0.2702
  554MOL0     O74702   2.614   0.701  -1.201 -0.1139 -0.6210  0.9817
  554MOL0     C74703   2.835   0.618  -1.064 -0.2374 -0.3986  1.0213
  554MOL0     C74704   2.958   0.588  -0.989  0.1800 -0.4650  0.0800
  554MOL0     N74705   3.148   0.539  -0.348  0.3892  0.4499 -0.0052
  554MOL0     N74706   3.121   0.623  -0.257  0.2282  0.1667 -0.1778
  554MOL0     C74707   2.266   0.957   0.481  0.4107 -0.0443  0.7444
  554MOL0     C74708   2.136   0.989   0.439 -0.5463 -0.1308  0.3410
  554MOL0     C74709   1.796   1.113   0.146  0.9213  0.2456 -0.5031
  554MOL0     C74710   1.765   1.230   0.070 -1.6145 -0.1116 -0.9850
  554MOL0     C74711   1.648   1.290   0.083  0.2281  0.1185  0.6553
  554MOL0     C74712   1.547   1.243   0.167 -0.3576 -0.0978 -0.6856
  554MOL0     O74713   1.421   1.295   0.178  0.5812  0.5106  0.1955
  554MOL0     C74714   1.379   1.413   0.095  0.2291 -0.0281  0.0472
  554MOL0     C74715   1.251   1.474   0.131  0.5009  0.1129  0.2619
  554MOL0     C74716   1.130   1.379   0.153  0.2035 -0.8239  0.0658
  554MOL0     C74717   1.009   1.459   0.199  0.8786 -0.3883 -1.1793
  554MOL0     C74718   0.883   1.389   0.160 -0.1640  1.0603 -0.2969
  554MOL0     C74719   0.797   1.303   0.147 -0.7660 -0.0702 -0.0646
  554MOL0     C74720   1.570   1.119   0.243 -0.1303 -0.3315 -0.6278
  554MOL0     C74721   1.690   1.048   0.223 -0.9839  0.1197  0.4034
  554MOL0     C74722   1.713   0.920   0.297  0.3325 -0.4205 -0.1790
  554MOL0     H74723   2.221   1.047   0.111  0.7403  1.2679 -0.1375
  554MOL0     H74724   2.428   1.008   0.190 -3.4386  0.5267 -3.3721
  554MOL0     H74725   2.593   0.923   0.247 -0.6374  0.5934  1.3429
  554MOL0     H74726   2.646   1.050   0.358 -1.9230  0.7658 -1.4844
  554MOL0     H74727   2.707   0.755   0.394 -0.4056  0.2316 -2.8004
  554MOL0     H74728   2.748   0.879   0.503  1.1209  0.4690 -0.1029
  554MOL0     H74729   2.939   0.833   0.395 -0.4080 -0.9063  0.2618
  554MOL0     H74730   2.903   1.000   0.351  0.8969 -0.3513  1.4689
  554MOL0     H74731   2.813   0.764   0.167 -0.1012  0.3011 -3.4752
  554MOL0     H74732   2.849   0.935   0.128 -1.4996  1.4554  2.5446
  554MOL0     H74733   3.098   0.887   0.198  0.9236 -0.4494  0.1159
  554MOL0     H74734   3.046   0.716   0.211  0.9196  0.4798 -0.7488
  554MOL0     H74735   3.038   0.684  -0.011  0.2619  0.7998 -0.4167
  554MOL0     H74736   2.976   0.847  -0.037 -0.5534  1.7017  2.0252
  554MOL0     H74737   3.269   0.758   0.035  1.8526  0.8648 -1.7448
  554MOL0     H74738   3.220   0.927   0.018 -2.1859  0.9404 -0.1594
  554MOL0     H74739   3.174   0.916  -0.221  2.0794 -1.1757 -2.8495
  554MOL0     H74740   3.331   0.878  -0.171 -1.3619  3.4304 -1.4246
  554MOL0     H74741   3.408   0.731  -0.346 -0.0742  0.3197  1.4570
  554MOL0     H74742   3.438   0.535  -0.531 -0.3115  2.5211 -1.0037
  554MOL0     H74743   3.342   0.398  -0.506 -1.2517 -0.1482  1.0692
  554MOL0     H74744   3.159   0.504  -0.652 -1.0871  3.0425 -3.0323
  554MOL0     H74745   3.243   0.654  -0.631  2.7890  0.1085  2.3691
  554MOL0     H74746   3.393   0.428  -0.787 -0.1913 -0.3990 -1.4527
  554MOL0     H74747   3.411   0.596  -0.811 -0.8587  1.5087  1.2751
  554MOL0     H74748   3.150   0.446  -0.872 -0.8696  0.2354  0.7086
  554MOL0     H74749   3.293   0.473  -0.981 -0.0302 -0.3739  0.5770
  554MOL0     H74750   3.153   0.846  -1.113  1.8827 -1.1420 -0.3757
  554MOL0     H74751   2.948   0.904  -1.217 -0.1123 -0.6062 -0.8330
  554MOL0     H74752   2.497   0.992  -1.126 -4.4676  0.0700  0.0842
  554MOL0     H74753   2.278   1.011  -1.217  1.0305  1.3812  1.0189
  554MOL0     H74754   2.120   1.168  -1.477 -1.9621 -0.0208 -1.1433
  554MOL0     H74755   2.266   1.157  -1.575 -0.9993  2.1339 -2.1181
  554MOL0     H74756   2.180   1.040  -1.750  0.1436  4.6638 -3.8537
  554MOL0     H74757   2.024   1.011  -1.686 -3.2054  2.8579 -0.4347
  554MOL0     H74758   2.122   1.299  -1.685 -1.1401 -0.0765  0.1697
  554MOL0     H74759   2.093   1.230  -1.843 -0.1170  0.0855 -1.1144
  554MOL0     H74760   1.891   1.255  -1.606 -0.3147  0.6255 -0.6368
  554MOL0     H74761   1.862   1.160  -1.748 -1.4320  0.8519 -1.1605
  554MOL0     H74762   1.902   1.354  -1.888  0.3982  1.6163  0.2485
  554MOL0     H74763   1.893   1.459  -1.751  1.4637 -0.6960  1.6074
  554MOL0     H74764   1.661   1.282  -1.828 -0.3102  2.0112 -2.6427
  554MOL0     H74765   1.675   1.390  -1.688 -1.6391 -0.9647  0.1318
  554MOL0     H74766   1.548   1.484  -1.890  0.1801 -0.2361  2.8468
  554MOL0     H74767   1.700   1.482  -1.982  1.7207  0.7035 -0.2962
  554MOL0     H74768   1.802   1.623  -1.823 -0.0372 -1.1061 -0.7986
  554MOL0     H74769   1.684   1.690  -1.924 -3.1012 -0.2734 -0.1516
  554MOL0     H74770   2.425   0.939  -1.611 -1.3332  0.8380 -0.2403
  554MOL0     H74771   2.651   0.904  -1.527 -0.1514  1.4257 -0.5807
  554MOL0     H74772   2.743   0.561  -1.056 -0.3302 -0.4268 -0.1279
  554MOL0     H74773   2.968   0.489  -0.945  2.5000 -0.4212 -0.2255
  554MOL0     H74774   2.292   0.917   0.578  0.3118 -0.3342  0.6546
  554MOL0     H74775   2.052   1.003   0.507 -0.6234 -0.0818  0.2360
  554MOL0     H74776   1.829   1.276  -0.005 -1.9493 -0.5651 -1.5497
  554MOL0     H74777   1.625   1.378   0.023 -1.1123  0.3277  1.4473
  554MOL0     H74778   1.372   1.393  -0.013 -2.3387 -2.4525  0.5603
  554MOL0     H74779   1.458   1.489   0.103  0.3609 -0.2593  1.0727
  554MOL0     H74780   1.225   1.540   0.047 -0.8636 -0.2152  0.4064
  554MOL0     H74781   1.270   1.531   0.222 -0.5584 -1.3306  1.4313
  554MOL0     H74782   1.158   1.299   0.222  0.6697 -0.2249  0.5814
  554MOL0     H74783   1.110   1.332   0.056 -0.8977  0.0933 -0.1734
  554MOL0     H74784   1.020   1.480   0.306  0.5942  1.7779 -1.5261
  554MOL0     H74785   1.012   1.563   0.164 -1.5454  0.4658  0.7927
  554MOL0     H74786   0.717   1.235   0.125 -0.7926  0.1123 -0.5453
  554MOL0     H74787   1.490   1.071   0.298 -0.9618  0.4332 -1.1339
  554MOL0     H74788   1.768   0.850   0.233 -0.7341 -0.2342 -1.3416
  554MOL0     H74789   1.770   0.931   0.389  0.7510 -0.6632 -0.4033
  554MOL0     H74790   1.617   0.885   0.335  0.1894 -2.5879 -2.2929
  555MOL0     O74791  10.188   8.998   2.560 -0.1457 -0.6113  0.0023
  555MOL0     C74792  10.098   9.084   2.539  0.0099  0.1419  0.2062
  555MOL0     O74793  10.117   9.209   2.488 -0.2138  0.0329 -0.4235
  555MOL0     C74794  10.250   9.250   2.472 -0.2615  0.1697  0.1854
  555MOL0     C74795  10.333   9.269   2.588 -0.6389  0.7609  0.5473
  555MOL0     C74796  10.466   9.318   2.566  0.6767  0.6636  0.3232
  555MOL0     C74797  10.516   9.346   2.439  0.4890  0.2926  0.8751
  555MOL0     O74798  10.635   9.417   2.436  0.1879  0.5544  0.2791
  555MOL0     C74799  10.735   9.376   2.345 -0.9024 -0.2319  1.1150
  555MOL0     C74800  10.752   9.218   2.350 -0.0834 -0.4043 -0.3516
  555MOL0     C74801  10.787   9.152   2.487 -0.5042 -0.2772  0.0744
  555MOL0     C74802  10.923   9.214   2.528  0.0754  0.4865  0.5749
  555MOL0     C74803  10.983   9.142   2.651 -0.4621 -0.8654  0.4840
  555MOL0     C74804  11.131   9.179   2.677  0.1528 -0.5927  0.2939
  555MOL0     C74805  11.174   9.120   2.806 -0.9620 -0.2916  0.5235
  555MOL0     C74806  11.322   9.145   2.834  0.7234  0.6877 -0.5420
  555MOL0     N74807  11.338   9.291   2.874  0.0494  0.0210  0.2726
  555MOL0     C74808  11.282   9.342   2.991 -0.0388 -0.0585  0.5180
  555MOL0     C74809  11.312   9.476   2.985 -0.7123 -0.1366  0.1058
  555MOL0     C74810  11.288   9.584   3.087  0.0183 -0.1490 -1.0818
  555MOL0     C74811  11.313   9.528   3.229  1.3842 -0.1360 -0.4851
  555MOL0     C74812  11.249   9.630   3.338  0.4584  0.1429 -0.0774
  555MOL0     C74813  11.244   9.771   3.298 -0.5896  0.5537  0.2167
  555MOL0     O74814  11.184   9.838   3.407  0.2430 -1.0567 -0.7270
  555MOL0     C74815  11.050   9.864   3.408 -0.8005 -0.0689 -0.0697
  555MOL0     C74816  11.004   9.960   3.501 -0.4328  0.4747  0.4430
  555MOL0     C74817  10.864   9.976   3.527  0.2664  0.5434 -0.0110
  555MOL0     C74818  10.774   9.899   3.462 -0.7253  0.1956 -0.5301
  555MOL0     C74819  10.635   9.916   3.505  0.5969 -0.1981  0.7375
  555MOL0     O74820  10.603  10.024   3.582  0.1531  0.7880  0.1744
  555MOL0     C74821  10.477  10.047   3.618 -0.6948  0.2879  0.4370
  555MOL0     C74822  10.455  10.183   3.634  0.1015 -0.6885 -0.2406
  555MOL0     C74823  10.333  10.221   3.691 -0.5056  0.5543  0.1785
  555MOL0     C74824  10.225  10.128   3.700  0.0197 -1.0829  0.0423
  555MOL0     O74825  10.104  10.187   3.741  0.0595 -1.1740 -0.2313
  555MOL0     C74826   9.997  10.111   3.775 -0.0039  0.3756  0.0394
  555MOL0     C74827   9.877  10.197   3.801 -0.0821 -0.6818 -1.0412
  555MOL0     C74828   9.912  10.313   3.903  0.3025  0.4462  0.1113
  555MOL0     C74829   9.789  10.399   3.911 -0.2118  0.6975 -0.1987
  555MOL0     C74830   9.774  10.449   4.054 -0.4999  0.8045  0.2540
  555MOL0     C74831   9.626  10.513   4.060  0.0391  0.2283 -0.4838
  555MOL0     C74832   9.601  10.559   4.207 -0.2835 -0.6901  0.0355
  555MOL0     C74833   9.443  10.596   4.223 -1.3653 -0.4001  0.5032
  555MOL0    Cl74834   9.421  10.761   4.165 -0.1182 -0.2489  0.1616
  555MOL0     C74835  10.244   9.997   3.662  0.0902  1.0416  0.0764
  555MOL0     C74836  10.368   9.955   3.625  0.0730  0.0055  0.0003
  555MOL0     O74837  10.557   9.831   3.458 -0.6338  0.1958  0.4054
  555MOL0     C74838  10.813   9.811   3.366  0.0106  0.0654 -0.1477
  555MOL0     C74839  10.950   9.803   3.332 -0.8670 -1.0406 -0.6064
  555MOL0     N74840  11.375   9.500   2.865 -0.8472 -0.3795  0.0898
  555MOL0     N74841  11.378   9.394   2.797  0.2722  0.7233 -0.1896
  555MOL0     C74842  10.437   9.317   2.327  0.7840 -0.0685  0.6251
  555MOL0     C74843  10.305   9.275   2.340  0.2781  1.5807  0.5660
  555MOL0     C74844   9.964   9.034   2.567 -0.2339  0.1590  0.2395
  555MOL0     C74845   9.939   8.899   2.547 -0.1560  0.0277 -0.2141
  555MOL0     C74846   9.821   8.839   2.590  0.3852 -0.1162  0.1612
  555MOL0     C74847   9.719   8.914   2.662 -1.1086 -0.4307  0.1951
  555MOL0     O74848   9.599   8.864   2.703 -0.1531 -0.7272  0.0182
  555MOL0     C74849   9.564   8.732   2.679  0.0411  0.0175 -0.4012
  555MOL0     C74850   9.434   8.708   2.756 -0.1908  0.4375 -0.2319
  555MOL0     C74851   9.377   8.565   2.754  0.0004 -0.2402  0.1135
  555MOL0     C74852   9.297   8.531   2.623  0.2935  0.4057 -0.2025
  555MOL0     C74853   9.140   8.535   2.634 -0.4313  0.1502 -0.8363
  555MOL0     C74854   9.025   8.541   2.667 -0.0132  0.1835 -0.4376
  555MOL0     C74855   9.745   9.052   2.666 -0.4323 -1.0033 -0.1930
  555MOL0     C74856   9.865   9.111   2.628 -1.2872 -0.4738  0.0396
  555MOL0     C74857   9.887   9.257   2.669  0.2711  0.2302 -0.0062
  555MOL0     H74858  10.292   9.243   2.685 -4.3181  0.1870 -0.9914
  555MOL0     H74859  10.538   9.320   2.647  1.1843 -0.5458 -0.0742
  555MOL0     H74860  10.717   9.411   2.242  1.8317 -1.6482  0.0470
  555MOL0     H74861  10.830   9.423   2.373 -0.4676 -1.2894  1.4520
  555MOL0     H74862  10.831   9.202   2.277  0.9503  2.5358 -0.0109
  555MOL0     H74863  10.662   9.165   2.317  1.2467 -2.9161 -0.2105
  555MOL0     H74864  10.806   9.046   2.470 -1.0952 -0.1663 -1.4543
  555MOL0     H74865  10.714   9.161   2.568  1.0899 -0.4322  1.5886
  555MOL0     H74866  10.991   9.187   2.447  0.5141  1.8337  0.4739
  555MOL0     H74867  10.929   9.323   2.535  1.0791  0.5585 -0.8448
  555MOL0     H74868  10.917   9.190   2.724 -0.8203 -1.4619  0.5540
  555MOL0     H74869  10.972   9.034   2.652 -0.2336 -0.8860  1.3078
  555MOL0     H74870  11.193   9.134   2.599 -0.3714 -1.0867  0.1555
  555MOL0     H74871  11.149   9.287   2.682  0.5276 -0.6525  0.2399
  555MOL0     H74872  11.158   9.013   2.793 -1.4414 -0.1456 -0.1485
  555MOL0     H74873  11.112   9.159   2.887  0.5393  1.1071  1.0480
  555MOL0     H74874  11.354   9.072   2.908 -1.1917  0.7854  0.4390
  555MOL0     H74875  11.396   9.127   2.756  1.9107  1.9559  0.2443
  555MOL0     H74876  11.240   9.282   3.071  0.7944 -1.3617 -0.0066
  555MOL0     H74877  11.360   9.664   3.065 -0.5700  1.0563  1.0741
  555MOL0     H74878  11.190   9.630   3.070 -0.4484  1.4758  4.0963
  555MOL0     H74879  11.269   9.430   3.250  0.5636  0.1965 -0.6234
  555MOL0     H74880  11.419   9.508   3.247  1.0999 -0.7036  0.6664
  555MOL0     H74881  11.314   9.612   3.425 -0.0537  3.2129  1.0511
  555MOL0     H74882  11.147   9.597   3.361  0.1996  0.6363 -0.5006
  555MOL0     H74883  11.188   9.796   3.208 -2.0706  2.9428  1.6620
  555MOL0     H74884  11.346   9.807   3.287  0.1422 -2.0108 -2.6146
  555MOL0     H74885  11.081  10.010   3.560 -0.1589 -1.0693  1.4429
  555MOL0     H74886  10.834  10.043   3.607  1.8386  3.2598 -1.5843
  555MOL0     H74887  10.521  10.268   3.629  2.4077 -2.3673  0.3257
  555MOL0     H74888  10.320  10.323   3.723 -0.9582 -0.1564  2.4270
  555MOL0     H74889   9.975  10.028   3.707  0.7136 -2.0696  2.6347
  555MOL0     H74890  10.024  10.065   3.870  1.2990  0.2126 -0.3972
  555MOL0     H74891   9.833  10.241   3.711 -2.8758 -1.7615 -0.3053
  555MOL0     H74892   9.799  10.134   3.845  1.5095 -2.2655 -0.3431
  555MOL0     H74893   9.942  10.269   3.998  2.2736  1.0731 -0.1667
  555MOL0     H74894   9.998  10.370   3.867  0.9263  1.2144  2.6646
  555MOL0     H74895   9.705  10.332   3.888  1.0690 -0.9323 -0.2772
  555MOL0     H74896   9.812  10.481   3.842 -2.1784  1.5248  0.0349
  555MOL0     H74897   9.854  10.515   4.089 -0.7642 -0.3526  3.3126
  555MOL0     H74898   9.785  10.365   4.124  0.9758  0.5249 -0.2772
  555MOL0     H74899   9.621  10.599   3.992  1.6693 -0.3036 -1.3166
  555MOL0     H74900   9.549  10.442   4.027  2.8673 -2.4316 -1.7639
  555MOL0     H74901   9.661  10.650   4.219 -0.7807 -0.3675  0.1087
  555MOL0     H74902   9.622  10.475   4.274 -4.4025 -0.0224  2.5515
  555MOL0     H74903   9.382  10.518   4.177 -1.3806 -0.3864  0.5006
  555MOL0     H74904   9.425  10.599   4.330 -1.5034 -2.8452  0.6168
  555MOL0     H74905  10.168   9.920   3.673  0.9172  0.4229  1.8334
  555MOL0     H74906  10.383   9.848   3.620  0.1779 -0.0977  1.8073
  555MOL0     H74907  10.738   9.756   3.310 -0.7419  0.7476  0.1729
  555MOL0     H74908  10.969   9.730   3.254  0.7051 -2.1223  0.7425
  555MOL0     H74909  10.470   9.343   2.227 -1.0368 -1.0577 -0.2719
  555MOL0     H74910  10.250   9.238   2.254  0.5692  2.5495 -0.0609
  555MOL0     H74911  10.006   8.835   2.491  1.8269  2.7827 -1.1837
  555MOL0     H74912   9.802   8.734   2.568 -0.1795 -0.0417  0.2790
  555MOL0     H74913   9.642   8.665   2.716  0.9266  0.0370 -2.1065
  555MOL0     H74914   9.540   8.714   2.573 -2.0659  2.2157 -0.3732
  555MOL0     H74915   9.359   8.774   2.711 -3.4272 -1.5383  1.8793
  555MOL0     H74916   9.442   8.746   2.858 -1.9430  2.6247 -0.8252
  555MOL0     H74917   9.309   8.555   2.839  1.6891  1.8304  1.8159
  555MOL0     H74918   9.452   8.487   2.768 -0.4348 -0.7235 -0.1973
  555MOL0     H74919   9.336   8.591   2.540  0.7803  2.3977  1.3874
  555MOL0     H74920   9.303   8.422   2.617  1.4301  0.4950 -0.8822
  555MOL0     H74921   8.932   8.527   2.717  0.9849 -0.7057  1.2804
  555MOL0     H74922   9.679   9.122   2.718  1.3139  0.4163  0.1980
  555MOL0     H74923   9.857   9.329   2.592 -1.7372 -2.0016 -1.4812
  555MOL0     H74924   9.831   9.274   2.761  2.1143 -2.2580  1.7176
  555MOL0     H74925   9.992   9.269   2.699 -0.4824  1.6614  2.2715
  556MOL0     O74926   6.894  10.653  10.716  0.9562  0.0902  0.3546
  556MOL0     C74927   6.891  10.773  10.686  0.8778  1.1334  0.2546
  556MOL0     O74928   6.822  10.818  10.573  0.5007 -0.3810 -0.3117
  556MOL0     C74929   6.783  10.725  10.481  0.2744 -1.0139 -0.0207
  556MOL0     C74930   6.650  10.686  10.465 -0.0109  0.6561 -0.9689
  556MOL0     C74931   6.607  10.605  10.359 -0.2939  0.4286  0.5052
  556MOL0     C74932   6.702  10.551  10.267 -0.6483  0.4780  0.1418
  556MOL0     O74933   6.684  10.478  10.154  0.6211 -0.3963  0.0107
  556MOL0     C74934   6.548  10.477  10.107  0.6529 -0.3472  0.1630
  556MOL0     C74935   6.547  10.400   9.967  0.4087  0.0154 -0.4502
  556MOL0     C74936   6.417  10.391   9.907  0.1251 -0.1267  0.3765
  556MOL0     C74937   6.434  10.329   9.768  0.6972  0.6351  0.2228
  556MOL0     C74938   6.290  10.314   9.701 -0.8918 -0.1756  1.3309
  556MOL0     C74939   6.306  10.267   9.556  0.4694  0.3761  0.1027
  556MOL0     C74940   6.167  10.258   9.494  0.1816  0.1466  0.6322
  556MOL0     C74941   6.165  10.217   9.340  0.6126  0.1732  0.3268
  556MOL0     N74942   6.039  10.241   9.266 -0.5266 -0.2328  0.7936
  556MOL0     C74943   5.915  10.231   9.317 -0.7267  0.2203 -0.3493
  556MOL0     C74944   5.835  10.250   9.215 -1.0352  0.8389  1.3068
  556MOL0     C74945   5.685  10.252   9.203 -0.2837 -0.1478  0.5155
  556MOL0     C74946   5.630  10.176   9.079  0.1714  0.0186 -0.3493
  556MOL0     C74947   5.476  10.151   9.072  0.7489  0.3676 -0.2754
  556MOL0     C74948   5.448  10.090   8.939  0.0435  0.0627  0.7998
  556MOL0     O74949   5.320  10.035   8.936  0.5133 -0.4350  0.2726
  556MOL0     C74950   5.263  10.006   8.813 -1.2056  0.0621  0.2059
  556MOL0     C74951   5.333   9.985   8.687  0.9029 -0.1868  1.1367
  556MOL0     C74952   5.258   9.942   8.575  0.6043  0.1400  0.6406
  556MOL0     C74953   5.120   9.922   8.573  0.4636 -0.2863 -1.0868
  556MOL0     C74954   5.043   9.895   8.444 -0.0133 -0.2831  0.0536
  556MOL0     O74955   4.933   9.964   8.422  0.0895  0.6271  0.4867
  556MOL0     C74956   4.832   9.927   8.332  0.7015  0.7376 -1.2303
  556MOL0     C74957   4.847   9.831   8.221  0.8066  0.0146 -0.7644
  556MOL0     C74958   4.731   9.799   8.146 -0.0659  0.6416 -0.6976
  556MOL0     C74959   4.613   9.866   8.172 -0.2116  0.7695 -0.2997
  556MOL0     O74960   4.497   9.854   8.096  0.1003  0.8751 -0.3095
  556MOL0     C74961   4.498   9.767   7.982  1.1770  0.8969 -0.0040
  556MOL0     C74962   4.363   9.776   7.904  0.0219 -0.1147  0.3633
  556MOL0     C74963   4.260   9.693   7.975  0.1692  0.2477 -0.0312
  556MOL0     C74964   4.116   9.746   7.961 -0.6364  0.3536  0.3325
  556MOL0     C74965   4.011   9.655   8.034 -0.6586  1.4691  0.3111
  556MOL0     C74966   3.875   9.710   8.056  0.1931  0.0869  0.0892
  556MOL0     C74967   3.788   9.728   7.921 -0.3104  1.4164  0.9810
  556MOL0     C74968   3.648   9.785   7.941  0.2234  0.0283 -0.4614
  556MOL0    Cl74969   3.562   9.678   8.056 -0.0428  0.1224 -0.0057
  556MOL0     C74970   4.604   9.957   8.276 -0.1493  0.2131 -0.0245
  556MOL0     C74971   4.707   9.982   8.362  0.1210 -0.0277 -0.6198
  556MOL0     O74972   5.095   9.801   8.378  0.7947 -0.0387 -0.9813
  556MOL0     C74973   5.056   9.955   8.698 -0.1715  0.4327 -0.8137
  556MOL0     C74974   5.128   9.977   8.815  1.2398 -0.1096  0.1600
  556MOL0     N74975   5.920  10.274   9.109 -0.0209  0.8213 -0.6119
  556MOL0     N74976   6.048  10.278   9.133 -0.7450 -0.7977  0.2901
  556MOL0     C74977   6.838  10.585  10.289 -0.1445 -0.1408 -0.4097
  556MOL0     C74978   6.877  10.685  10.387  0.0608  0.0404  0.1712
  556MOL0     C74979   6.962  10.877  10.769 -0.6347 -0.3119  0.8810
  556MOL0     C74980   6.982  11.001  10.700 -0.7126  0.7023 -0.3084
  556MOL0     C74981   7.052  11.108  10.761 -0.8308 -0.8186 -0.4117
  556MOL0     C74982   7.083  11.101  10.899 -0.1344  0.3980  0.4119
  556MOL0     O74983   7.148  11.198  10.973  0.3839 -0.0365 -0.3243
  556MOL0     C74984   7.130  11.337  10.937 -0.8108  0.6173 -0.4011
  556MOL0     C74985   7.206  11.430  11.035  0.2474  0.1819  0.6700
  556MOL0     C74986   7.223  11.572  10.965  1.0989  0.9066 -0.1238
  556MOL0     C74987   7.305  11.565  10.826  0.3163 -0.8831  0.1669
  556MOL0     C74988   7.338  11.704  10.810  0.6204 -0.3770 -0.0081
  556MOL0     C74989   7.354  11.820  10.804  0.9072 -0.1643 -0.0533
  556MOL0     C74990   7.056  10.975  10.966 -0.3074  0.2397  0.0739
  556MOL0     C74991   7.004  10.863  10.903 -0.8831  0.1510 -0.1236
  556MOL0     C74992   6.994  10.743  10.988  1.2603 -0.6946 -1.2439
  556MOL0     H74993   6.586  10.709  10.549  1.8242  0.0385  0.6635
  556MOL0     H74994   6.507  10.562  10.357  0.2264 -0.8421  0.8917
  556MOL0     H74995   6.479  10.437  10.182  0.9379 -1.0964  0.0294
  556MOL0     H74996   6.518  10.582  10.096 -2.6678 -0.8279  2.9762
  556MOL0     H74997   6.598  10.304   9.964 -2.3770 -1.5611 -0.0977
  556MOL0     H74998   6.614  10.467   9.911  0.7197 -0.4928 -0.6895
  556MOL0     H74999   6.382  10.493   9.886  0.1052 -0.3000 -0.4979
  556MOL0     H75000   6.348  10.335   9.970 -0.6853 -2.0105 -2.0254
  556MOL0     H75001   6.486  10.398   9.701  1.0829  0.5160  0.3941
  556MOL0     H75002   6.476  10.228   9.774  0.0067  0.4305  2.4620
  556MOL0     H75003   6.224  10.248   9.759 -2.0331  0.9962  1.4134
  556MOL0     H75004   6.247  10.414   9.700  0.9527  0.6481  0.8973
  556MOL0     H75005   6.369  10.338   9.501  0.3627 -0.7926 -1.6347
  556MOL0     H75006   6.350  10.167   9.548  0.6211  0.5594 -2.0674
  556MOL0     H75007   6.130  10.361   9.497 -0.6113 -0.1248  0.4886
  556MOL0     H75008   6.096  10.203   9.556  0.3085  2.0956  2.6587
  556MOL0     H75009   6.243  10.267   9.282 -0.6780 -1.4824 -3.1284
  556MOL0     H75010   6.182  10.109   9.341 -2.1515 -0.3266  1.8104
  556MOL0     H75011   5.873  10.213   9.416 -0.0741 -0.7704 -0.2356
  556MOL0     H75012   5.662  10.210   9.301  2.4521 -2.9463  0.1079
  556MOL0     H75013   5.654  10.357   9.213  2.0793  0.5269  1.3909
  556MOL0     H75014   5.652  10.236   8.990  0.3516 -2.0339 -1.7624
  556MOL0     H75015   5.681  10.080   9.079  1.9381  0.9071 -0.3559
  556MOL0     H75016   5.414  10.240   9.087  1.6604  1.2398 -1.4768
  556MOL0     H75017   5.450  10.073   9.143  0.4287  0.5797 -0.1590
  556MOL0     H75018   5.526  10.022   8.904 -0.1134 -0.3540  1.2497
  556MOL0     H75019   5.454  10.178   8.874  0.7937  1.2683  2.4198
  556MOL0     H75020   5.441   9.990   8.676  0.7789 -1.9819 -2.5800
  556MOL0     H75021   5.307   9.929   8.479  1.0114  1.2825  0.6798
  556MOL0     H75022   4.946   9.792   8.200  0.8781  0.5702 -1.5123
  556MOL0     H75023   4.751   9.728   8.067  4.5487 -1.4806  2.0121
  556MOL0     H75024   4.578   9.800   7.915  0.1375  2.3152 -0.6160
  556MOL0     H75025   4.515   9.664   8.013 -2.8518 -0.0013 -0.1332
  556MOL0     H75026   4.332   9.881   7.895 -0.1173  0.1881  3.4755
  556MOL0     H75027   4.384   9.741   7.803  1.1062  2.9667 -0.6151
  556MOL0     H75028   4.261   9.596   7.925  2.4312  0.0266  0.3160
  556MOL0     H75029   4.288   9.685   8.081 -1.3300  1.7053  0.5157
  556MOL0     H75030   4.095   9.754   7.854  0.7882 -2.2534 -0.2422
  556MOL0     H75031   4.104   9.845   8.007  0.1742  0.8577 -0.4976
  556MOL0     H75032   4.059   9.638   8.131  0.2625 -1.8568 -0.5955
  556MOL0     H75033   3.999   9.566   7.973 -1.5604  2.4587 -1.0114
  556MOL0     H75034   3.818   9.636   8.113 -1.2406  0.7752 -0.3839
  556MOL0     H75035   3.868   9.804   8.111 -0.2151 -0.5249  1.0973
  556MOL0     H75036   3.783   9.630   7.873 -0.5995  2.6145 -1.5819
  556MOL0     H75037   3.834   9.783   7.838 -1.8612  0.5782 -0.4945
  556MOL0     H75038   3.654   9.881   7.993 -1.8031 -0.7510  1.3621
  556MOL0     H75039   3.591   9.798   7.849 -1.9112 -0.4306  0.7407
  556MOL0     H75040   4.512  10.008   8.301  0.4754  0.4272  1.9994
  556MOL0     H75041   4.704  10.041   8.453  2.2546 -1.3273  0.3767
  556MOL0     H75042   4.951   9.940   8.717 -0.2759  1.8522 -0.1508
  556MOL0     H75043   5.065   9.982   8.903  0.2939 -0.6981 -0.4758
  556MOL0     H75044   6.897  10.531  10.215  0.0352 -1.7740  0.8771
  556MOL0     H75045   6.973  10.737  10.382 -1.6632  3.5791  0.8238
  556MOL0     H75046   6.939  11.017  10.602 -1.0075 -0.5045 -0.3928
  556MOL0     H75047   7.069  11.198  10.703 -3.7403  0.8033  0.9994
  556MOL0     H75048   7.023  11.358  10.936 -0.9130  0.2013  0.6643
  556MOL0     H75049   7.160  11.345  10.832 -0.5601  0.9983 -0.3058
  556MOL0     H75050   7.304  11.382  11.037  0.1356 -0.0697  0.0796
  556MOL0     H75051   7.172  11.431  11.139  0.3279  0.7650  0.6944
  556MOL0     H75052   7.272  11.625  11.047  1.1534  0.8860 -0.1433
  556MOL0     H75053   7.123  11.615  10.955  0.7728 -0.2474 -2.4291
  556MOL0     H75054   7.388  11.495  10.815 -0.3714 -1.5817 -0.7212
  556MOL0     H75055   7.237  11.532  10.746  1.1708 -0.3272 -0.8117
  556MOL0     H75056   7.371  11.925  10.793  0.0914 -0.1507 -1.3892
  556MOL0     H75057   7.077  10.972  11.073  0.2305  0.4874 -0.0204
  556MOL0     H75058   6.982  10.769  11.093  1.5419  1.2081 -1.6455
  556MOL0     H75059   6.902  10.689  10.963  0.3448  0.9956 -1.6616
  556MOL0     H75060   7.081  10.679  10.969  3.1413  1.6841 -1.1332
  557MOL0     O75061   5.784   0.480   1.716 -0.0331 -0.4406 -0.1578
  557MOL0     C75062   5.778   0.373   1.776 -0.4091  0.5374 -0.6632
  557MOL0     O75063   5.885   0.287   1.801  0.6647  0.1481 -0.2902
  557MOL0     C75064   6.014   0.315   1.748 -0.3347 -0.5573 -0.4312
  557MOL0     C75065   6.088   0.422   1.810 -0.9187 -0.0163  0.0658
  557MOL0     C75066   6.226   0.441   1.767  0.5050 -0.5520 -0.4461
  557MOL0     C75067   6.277   0.379   1.657 -0.6049 -0.3796  0.1653
  557MOL0     O75068   6.405   0.400   1.618 -0.1866  0.1619 -0.2088
  557MOL0     C75069   6.481   0.281   1.613 -1.2971 -0.2958 -0.6240
  557MOL0     C75070   6.626   0.310   1.670 -0.5954  0.2179  0.6238
  557MOL0     C75071   6.685   0.189   1.738 -0.6288 -0.1083  0.9392
  557MOL0     C75072   6.820   0.216   1.802  0.7962 -0.0442  0.3181
  557MOL0     C75073   6.858   0.091   1.880 -0.6171  0.0570  0.2991
  557MOL0     C75074   6.988   0.111   1.957  0.5307 -0.1915  1.0386
  557MOL0     C75075   7.111   0.047   1.892  0.1418 -0.3746 -0.1261
  557MOL0     C75076   7.231   0.040   1.995  1.4519  0.2179  0.1284
  557MOL0     N75077   7.255   0.167   2.063  0.0709  0.8588 -0.3211
  557MOL0     C75078   7.346   0.261   2.030 -0.5486  0.2664 -0.0547
  557MOL0     C75079   7.338   0.358   2.126  0.8397  0.1334  0.0543
  557MOL0     C75080   7.414   0.477   2.151  0.2127  0.3456 -0.1313
  557MOL0     C75081   7.517   0.450   2.264 -0.0658 -0.3203  0.0657
  557MOL0     C75082   7.645   0.378   2.223  0.0749  0.6327  0.2010
  557MOL0     C75083   7.760   0.416   2.322  0.6110 -0.0154  0.2400
  557MOL0     O75084   7.789   0.554   2.319 -0.6075 -0.5217  0.2059
  557MOL0     C75085   7.902   0.603   2.386 -0.8975  0.5151  0.1432
  557MOL0     C75086   7.932   0.741   2.365  0.3964  0.1709  0.2332
  557MOL0     C75087   8.024   0.803   2.444 -0.6286  0.0701 -0.8330
  557MOL0     C75088   8.104   0.720   2.535 -0.5746 -0.9605  0.1001
  557MOL0     C75089   8.217   0.777   2.614 -0.3767  0.6466 -0.1595
  557MOL0     O75090   8.263   0.705   2.725  0.5458  0.3539  0.1816
  557MOL0     C75091   8.391   0.730   2.773  0.6536  0.1020  0.3965
  557MOL0     C75092   8.408   0.741   2.915  1.0022 -0.6343  0.2666
  557MOL0     C75093   8.534   0.771   2.968  0.0207 -0.2305 -0.4014
  557MOL0     C75094   8.648   0.772   2.882 -0.2245 -0.0461  0.0921
  557MOL0     O75095   8.765   0.799   2.949  0.2641  0.2706 -0.1121
  557MOL0     C75096   8.856   0.900   2.896  0.8735  0.1959  0.2041
  557MOL0     C75097   8.997   0.837   2.882 -0.1205  0.6794 -0.9066
  557MOL0     C75098   9.062   0.786   3.015  0.5320  0.6496 -0.4504
  557MOL0     C75099   9.189   0.699   3.001  0.0413 -0.6229  0.4979
  557MOL0     C75100   9.303   0.748   3.104 -0.6499 -0.1589  0.3657
  557MOL0     C75101   9.363   0.884   3.061  0.5191  0.3767 -0.2325
  557MOL0     C75102   9.474   0.931   3.160  0.4148  0.7600  0.7070
  557MOL0     C75103   9.608   0.856   3.152  0.3122  0.6008 -0.1858
  557MOL0    Cl75104   9.696   0.895   3.304  0.4187 -0.5791 -0.0769
  557MOL0     C75105   8.631   0.748   2.743  0.9758  0.5412  1.1015
  557MOL0     C75106   8.501   0.728   2.689  0.1355  0.6461 -0.3332
  557MOL0     O75107   8.256   0.885   2.577 -0.0523  0.3153  0.7558
  557MOL0     C75108   8.068   0.587   2.557 -0.5254 -0.9111 -0.0200
  557MOL0     C75109   7.974   0.529   2.474 -0.1495  0.2305  0.4239
  557MOL0     N75110   7.250   0.310   2.212  0.0032 -0.3221 -0.6156
  557MOL0     N75111   7.199   0.198   2.179 -0.3055 -0.2179  0.7094
  557MOL0     C75112   6.197   0.288   1.585  0.6341  0.5578  0.6481
  557MOL0     C75113   6.067   0.256   1.628  0.1376 -0.5198 -0.3070
  557MOL0     C75114   5.647   0.332   1.813 -0.1950  0.4308 -0.7156
  557MOL0     C75115   5.623   0.197   1.849 -0.8625  0.1191  1.1132
  557MOL0     C75116   5.499   0.148   1.880  0.1780 -0.7569 -0.0273
  557MOL0     C75117   5.384   0.233   1.883  0.6157 -0.1669  0.4948
  557MOL0     O75118   5.274   0.182   1.941 -0.7115 -0.1897  0.1261
  557MOL0     C75119   5.146   0.230   1.895 -0.0434  0.6438  0.3223
  557MOL0     C75120   5.102   0.153   1.764  0.6586  0.4869 -0.2920
  557MOL0     C75121   5.053   0.008   1.799 -0.1866 -0.2831 -0.3661
  557MOL0     C75122   5.165  -0.092   1.835  0.5561  0.5861 -0.1423
  557MOL0     C75123   5.128  -0.231   1.825  0.3464  0.1823 -0.2491
  557MOL0     C75124   5.122  -0.357   1.843 -0.2248 -1.3774  0.3823
  557MOL0     C75125   5.405   0.365   1.864  0.2941  0.3609 -0.0392
  557MOL0     C75126   5.530   0.415   1.821  0.9571  0.1457 -0.1863
  557MOL0     C75127   5.529   0.565   1.796  0.2758 -0.1533 -0.3025
  557MOL0     H75128   6.053   0.471   1.900 -1.8734 -0.2551 -0.1620
  557MOL0     H75129   6.285   0.519   1.816  0.5918 -0.4413 -0.7237
  557MOL0     H75130   6.440   0.199   1.672 -0.0408 -1.1578 -0.9137
  557MOL0     H75131   6.488   0.249   1.508 -0.6970  0.9547 -0.9858
  557MOL0     H75132   6.608   0.392   1.741  0.7739  1.3003 -0.2245
  557MOL0     H75133   6.691   0.359   1.597 -0.8714 -0.5873 -0.1808
  557MOL0     H75134   6.697   0.118   1.656  0.4131 -0.3018  1.2433
  557MOL0     H75135   6.616   0.137   1.805 -1.2616 -0.5857 -0.0476
  557MOL0     H75136   6.906   0.235   1.737 -0.1920  1.1272 -0.7224
  557MOL0     H75137   6.817   0.302   1.869  0.7117 -1.0750  1.6809
  557MOL0     H75138   6.779   0.070   1.953 -0.0985 -0.6179  0.6919
  557MOL0     H75139   6.859   0.004   1.814 -0.5904 -0.1627  0.5871
  557MOL0     H75140   7.000   0.217   1.984  1.6259  0.4816 -1.7544
  557MOL0     H75141   6.972   0.048   2.045 -2.3318 -2.4036 -0.9111
  557MOL0     H75142   7.153   0.107   1.810 -0.4387  0.1873 -0.0203
  557MOL0     H75143   7.092  -0.050   1.844  1.7419  0.9798 -3.9179
  557MOL0     H75144   7.207  -0.027   2.078 -1.0786  0.6005 -0.2125
  557MOL0     H75145   7.321   0.005   1.942  0.7709 -1.4217 -0.0077
  557MOL0     H75146   7.420   0.265   1.951 -1.8563  0.5874 -1.3070
  557MOL0     H75147   7.473   0.487   2.059 -1.9522 -0.8322 -1.7327
  557MOL0     H75148   7.351   0.564   2.167 -0.7641 -0.5309  1.0191
  557MOL0     H75149   7.541   0.551   2.298 -0.4182 -0.5457  0.9982
  557MOL0     H75150   7.472   0.394   2.346 -1.2193  1.0735  0.4285
  557MOL0     H75151   7.673   0.394   2.119  2.8637 -0.1590  0.7360
  557MOL0     H75152   7.635   0.269   2.227 -0.9404  0.4259 -3.9845
  557MOL0     H75153   7.851   0.362   2.293  1.2151 -0.3920  2.5889
  557MOL0     H75154   7.745   0.384   2.426  0.6538 -2.9071 -0.5427
  557MOL0     H75155   7.885   0.808   2.294  1.8211 -0.6607 -1.5662
  557MOL0     H75156   8.030   0.909   2.421 -2.3823  0.2618 -0.5564
  557MOL0     H75157   8.324   0.738   2.984  0.1457  0.5286 -0.6935
  557MOL0     H75158   8.543   0.805   3.071 -0.6583  0.7355 -0.6540
  557MOL0     H75159   8.817   0.926   2.797  3.4200 -1.9167 -1.4993
  557MOL0     H75160   8.853   0.990   2.958 -1.3040 -0.3434  0.9965
  557MOL0     H75161   9.001   0.760   2.805 -0.1995 -1.1393  0.8089
  557MOL0     H75162   9.058   0.921   2.849 -2.0219  3.4564  2.0005
  557MOL0     H75163   9.083   0.874   3.076 -0.9061  0.9356 -0.3291
  557MOL0     H75164   8.991   0.731   3.076  1.7471 -0.1360  0.2972
  557MOL0     H75165   9.237   0.705   2.903 -2.7756  0.4261 -0.9301
  557MOL0     H75166   9.162   0.595   3.022 -1.1617 -0.2512  0.8691
  557MOL0     H75167   9.385   0.677   3.115  0.7931  1.4742  0.5151
  557MOL0     H75168   9.260   0.764   3.203 -2.0536 -0.2743 -0.1916
  557MOL0     H75169   9.395   0.889   2.957 -1.7388  2.4323 -0.9118
  557MOL0     H75170   9.290   0.964   3.072  1.2096  1.1572 -1.1295
  557MOL0     H75171   9.434   0.919   3.261  2.2654  2.1651  1.6641
  557MOL0     H75172   9.493   1.038   3.146  3.5462  0.0033 -2.1437
  557MOL0     H75173   9.589   0.748   3.152  0.3639  0.5920  0.0041
  557MOL0     H75174   9.676   0.883   3.070  0.9948 -0.1620  0.1202
  557MOL0     H75175   8.708   0.744   2.666 -0.3407 -1.8633 -0.2384
  557MOL0     H75176   8.492   0.723   2.581 -1.1400  1.2210 -0.2697
  557MOL0     H75177   8.115   0.528   2.635  1.6992  4.0069  2.8467
  557MOL0     H75178   7.951   0.423   2.479 -1.7351  0.4650 -1.1177
  557MOL0     H75179   6.214   0.242   1.488 -0.8748 -1.0415  1.0962
  557MOL0     H75180   6.009   0.182   1.573 -0.9661  1.0771 -1.3765
  557MOL0     H75181   5.710   0.132   1.847 -2.6461 -2.4438  0.2210
  557MOL0     H75182   5.478   0.043   1.897 -1.0902 -0.5449 -0.1529
  557MOL0     H75183   5.149   0.338   1.883  1.3617  0.7200  1.2078
  557MOL0     H75184   5.084   0.195   1.979 -1.0106 -1.7015 -1.2664
  557MOL0     H75185   5.183   0.149   1.691 -0.9976  2.2846 -2.3690
  557MOL0     H75186   5.014   0.198   1.716 -0.3064 -0.1804  0.7919
  557MOL0     H75187   5.002  -0.027   1.708  0.1629 -0.2876 -0.5611
  557MOL0     H75188   4.994   0.015   1.891  2.7095  1.7524  1.5216
  557MOL0     H75189   5.254  -0.084   1.772 -0.8655 -1.1593 -2.5548
  557MOL0     H75190   5.187  -0.081   1.941 -0.2714  0.5785  0.0337
  557MOL0     H75191   5.119  -0.464   1.848  2.2082 -1.5796 -1.1413
  557MOL0     H75192   5.323   0.435   1.875  0.9967  1.1136  0.5333
  557MOL0     H75193   5.593   0.616   1.869  1.0805 -0.7153 -0.5981
  557MOL0     H75194   5.547   0.597   1.693  2.4927  0.6282  0.2550
  557MOL0     H75195   5.428   0.598   1.823  0.7343 -0.3780  1.8953
  558MOL0     O75196   9.776   6.835   6.247  0.1918 -0.1801  0.8329
  558MOL0     C75197   9.656   6.859   6.222  0.1830 -0.6232  0.5074
  558MOL0     O75198   9.549   6.865   6.318  0.0493  0.6713 -0.4347
  558MOL0     C75199   9.577   6.892   6.448  1.2394  0.3771  0.0481
  558MOL0     C75200   9.473   6.977   6.510 -0.5041 -0.2909  0.5325
  558MOL0     C75201   9.486   7.010   6.649  0.4772 -0.9633  0.4202
  558MOL0     C75202   9.585   6.962   6.726 -0.3702  0.1364  0.0560
  558MOL0     O75203   9.595   6.977   6.862 -0.1896 -0.6976 -0.3503
  558MOL0     C75204   9.466   7.009   6.924 -0.1172 -0.4505  0.1258
  558MOL0     C75205   9.491   6.994   7.071  0.2611 -0.0178 -0.2260
  558MOL0     C75206   9.353   7.000   7.143 -0.8006 -0.0461 -0.2754
  558MOL0     C75207   9.386   6.961   7.287  0.8830 -0.1685 -1.2678
  558MOL0     C75208   9.265   6.989   7.376  0.4689 -0.4417 -0.6226
  558MOL0     C75209   9.259   6.962   7.525 -0.0794 -0.5774  0.5623
  558MOL0     C75210   9.389   7.004   7.587  0.1070 -0.3093  0.0357
  558MOL0     C75211   9.411   7.153   7.619  0.2805 -0.6587  0.1431
  558MOL0     N75212   9.529   7.178   7.701  0.1105 -0.3967  0.0219
  558MOL0     C75213   9.545   7.158   7.839  0.2844 -0.0683 -0.1162
  558MOL0     C75214   9.664   7.203   7.873  0.6949  0.2715 -0.2307
  558MOL0     C75215   9.732   7.194   8.013 -0.2325 -0.3858  0.8821
  558MOL0     C75216   9.687   7.070   8.086  0.3506 -0.5307 -0.7722
  558MOL0     C75217   9.737   7.049   8.228  0.0885  0.1652  0.0289
  558MOL0     C75218   9.881   7.098   8.235  0.5271  0.8356 -0.4963
  558MOL0     O75219   9.939   7.042   8.358 -0.3703 -0.9529 -0.4683
  558MOL0     C75220  10.066   7.075   8.387  0.3873  0.2985  0.7991
  558MOL0     C75221  10.157   6.975   8.415  0.7360 -0.0656  0.0427
  558MOL0     C75222  10.292   7.015   8.413 -0.3789  0.2437 -0.3882
  558MOL0     C75223  10.333   7.144   8.432  0.6700 -0.6307  0.4250
  558MOL0     C75224  10.475   7.189   8.431  0.1500 -0.1566 -0.3410
  558MOL0     O75225  10.494   7.319   8.467 -0.2047  0.1498 -0.7493
  558MOL0     C75226  10.613   7.366   8.442 -0.4837  0.2088  0.3599
  558MOL0     C75227  10.627   7.426   8.319 -0.4581  0.3456  0.4532
  558MOL0     C75228  10.720   7.528   8.301 -0.6951  0.2408  0.3164
  558MOL0     C75229  10.805   7.563   8.407  0.3329  0.3363  0.3908
  558MOL0     O75230  10.907   7.651   8.390  0.2597 -0.1061  0.2927
  558MOL0     C75231  10.904   7.754   8.491 -0.4138  0.6888  0.0089
  558MOL0     C75232  11.027   7.851   8.469 -0.6947  0.4208 -0.2978
  558MOL0     C75233  11.167   7.798   8.513 -0.5164 -0.0757  0.0186
  558MOL0     C75234  11.230   7.705   8.406 -0.4126  0.2154  0.5697
  558MOL0     C75235  11.379   7.682   8.437 -0.4766  0.3009 -0.2959
  558MOL0     C75236  11.436   7.585   8.331  0.9311  0.1531  0.1746
  558MOL0     C75237  11.589   7.574   8.319  1.1822  0.4788  0.3959
  558MOL0     C75238  11.632   7.515   8.176  0.4316 -0.5344 -0.4180
  558MOL0    Cl75239  11.527   7.376   8.106 -0.3637 -0.0609 -0.5051
  558MOL0     C75240  10.799   7.492   8.526 -0.4197  0.2279  0.0624
  558MOL0     C75241  10.708   7.390   8.544  0.4433  0.2131  0.0172
  558MOL0     O75242  10.554   7.100   8.426 -1.4208 -0.3731 -0.8591
  558MOL0     C75243  10.234   7.243   8.417 -0.4790  0.0029 -0.0690
  558MOL0     C75244  10.106   7.211   8.391  0.0043  0.3493 -0.4736
  558MOL0     N75245   9.724   7.256   7.764  0.2942  0.0191 -0.3600
  558MOL0     N75246   9.639   7.249   7.662 -0.5206  0.3655  0.2178
  558MOL0     C75247   9.682   6.882   6.664  0.5979 -0.2676  0.0902
  558MOL0     C75248   9.675   6.840   6.529 -0.1827 -0.3195 -0.2845
  558MOL0     C75249   9.613   6.856   6.081  0.7772 -0.4328 -0.4116
  558MOL0     C75250   9.510   6.935   6.045  1.2236  0.2760  0.2777
  558MOL0     C75251   9.471   6.949   5.915  0.6686  0.2619  0.4111
  558MOL0     C75252   9.531   6.882   5.812 -0.0078 -0.0941 -0.1729
  558MOL0     O75253   9.488   6.915   5.681 -0.1802  0.6390  0.0311
  558MOL0     C75254   9.590   6.900   5.580  0.3934 -0.0657 -0.5692
  558MOL0     C75255   9.527   6.931   5.453  0.3036 -0.0893  0.7108
  558MOL0     C75256   9.469   7.069   5.449  0.8663  0.0949  0.3604
  558MOL0     C75257   9.441   7.113   5.309 -0.2233 -0.0425  0.0040
  558MOL0     C75258   9.457   7.258   5.312  0.7426 -0.3556  0.5311
  558MOL0     C75259   9.465   7.376   5.304  0.4878  0.4537 -0.2569
  558MOL0     C75260   9.625   6.796   5.855  0.7047  0.1081  0.9136
  558MOL0     C75261   9.669   6.781   5.984  0.2173 -1.1773  0.2459
  558MOL0     C75262   9.778   6.683   6.006  0.4663  0.6958 -0.1932
  558MOL0     H75263   9.386   7.008   6.454 -1.4744 -4.3192 -0.5302
  558MOL0     H75264   9.404   7.070   6.685 -0.5896 -1.2620 -1.4036
  558MOL0     H75265   9.433   7.111   6.901  1.0503 -0.5485 -2.1720
  558MOL0     H75266   9.381   6.943   6.905 -0.2277 -0.4046  0.4480
  558MOL0     H75267   9.560   7.070   7.108  1.1064  0.7571 -3.0973
  558MOL0     H75268   9.537   6.895   7.084 -0.1555 -0.2448 -0.4454
  558MOL0     H75269   9.283   6.925   7.104  0.5106 -0.8721 -1.0919
  558MOL0     H75270   9.296   7.092   7.129  1.1556  1.7817  2.7337
  558MOL0     H75271   9.409   6.854   7.297  0.6408  0.0168  2.4151
  558MOL0     H75272   9.475   7.013   7.322 -0.4683  0.0622  2.1956
  558MOL0     H75273   9.255   7.098   7.380 -0.5084 -0.5561  0.7446
  558MOL0     H75274   9.169   6.956   7.334 -0.4744  1.1796  0.1573
  558MOL0     H75275   9.175   7.015   7.570  1.7612  1.1567  2.1908
  558MOL0     H75276   9.246   6.857   7.553  0.8444 -1.0325 -0.6300
  558MOL0     H75277   9.476   6.973   7.529  0.8116 -0.5934  1.1977
  558MOL0     H75278   9.408   6.947   7.679  3.8383  0.0659 -0.3671
  558MOL0     H75279   9.422   7.198   7.520 -1.1941 -0.2437  0.1358
  558MOL0     H75280   9.328   7.203   7.670  1.8587  0.1324  2.0903
  558MOL0     H75281   9.465   7.108   7.894  1.0616 -1.5288 -0.2713
  558MOL0     H75282   9.841   7.195   8.004 -0.2936  0.9081 -0.1078
  558MOL0     H75283   9.704   7.285   8.068  1.7009 -0.7029  2.4996
  558MOL0     H75284   9.577   7.075   8.089  0.4073  0.5198  1.2400
  558MOL0     H75285   9.717   6.982   8.030  3.3415 -0.9568  1.3029
  558MOL0     H75286   9.721   6.946   8.261 -0.8192  0.7446  1.5067
  558MOL0     H75287   9.678   7.100   8.305  1.9755  0.8446  1.0956
  558MOL0     H75288   9.876   7.207   8.246  2.3962  0.8319  0.8976
  558MOL0     H75289   9.939   7.060   8.151  3.0712  2.1503  0.5196
  558MOL0     H75290  10.134   6.872   8.437 -0.3429  0.2270  0.3571
  558MOL0     H75291  10.366   6.936   8.412  0.4661  0.9991 -2.0434
  558MOL0     H75292  10.565   7.398   8.235  1.2548 -1.9601 -0.1337
  558MOL0     H75293  10.725   7.576   8.204 -0.0079 -0.6146 -0.0898
  558MOL0     H75294  10.811   7.810   8.491 -1.8479 -1.5715  0.0121
  558MOL0     H75295  10.915   7.723   8.596 -1.0913  0.2539 -0.0462
  558MOL0     H75296  11.019   7.886   8.366 -1.7418  1.8544  0.2338
  558MOL0     H75297  11.002   7.940   8.527  2.0357 -0.6993  2.9534
  558MOL0     H75298  11.230   7.886   8.530  0.7533 -0.7657 -0.9436
  558MOL0     H75299  11.159   7.748   8.609  2.3924  2.1816  1.6020
  558MOL0     H75300  11.225   7.750   8.307  0.4232  1.4512  1.0577
  558MOL0     H75301  11.176   7.610   8.410  0.1925 -0.4796 -3.5684
  558MOL0     H75302  11.386   7.648   8.540 -2.6936 -1.7203 -0.7207
  558MOL0     H75303  11.433   7.776   8.449  1.5140 -0.8994  0.6754
  558MOL0     H75304  11.396   7.484   8.351  0.4718  0.6507  1.9897
  558MOL0     H75305  11.396   7.615   8.234 -1.7818 -1.0405  0.8051
  558MOL0     H75306  11.622   7.507   8.399 -2.5752 -1.6351  0.4056
  558MOL0     H75307  11.639   7.672   8.328  3.4548 -0.7663  2.5370
  558MOL0     H75308  11.630   7.603   8.111 -0.4015 -0.8148 -0.7877
  558MOL0     H75309  11.738   7.493   8.193  0.7135  0.7429 -0.3849
  558MOL0     H75310  10.859   7.523   8.611 -0.9829  1.5084  0.0166
  558MOL0     H75311  10.706   7.338   8.639  0.5821  0.9913  0.4545
  558MOL0     H75312  10.257   7.349   8.424 -1.4995  0.0979  2.6295
  558MOL0     H75313  10.046   7.292   8.350  0.3298  0.1346 -1.4152
  558MOL0     H75314   9.759   6.845   6.732 -1.8553 -0.4978  2.9875
  558MOL0     H75315   9.743   6.770   6.481  2.5996  0.6831  1.8949
  558MOL0     H75316   9.453   7.001   6.109  0.0268 -0.2400 -0.2245
  558MOL0     H75317   9.386   7.013   5.889 -1.3094 -1.9230  1.1218
  558MOL0     H75318   9.624   6.796   5.568  2.1390  0.2782  0.9683
  558MOL0     H75319   9.682   6.953   5.606  1.9030 -2.1654 -1.2953
  558MOL0     H75320   9.438   6.867   5.443 -0.1737  0.4185  1.5498
  558MOL0     H75321   9.597   6.922   5.370  1.4573 -0.6008  1.7073
  558MOL0     H75322   9.542   7.137   5.494  1.4213  0.1535 -0.6030
  558MOL0     H75323   9.376   7.076   5.507 -0.1142  2.4611 -1.3475
  558MOL0     H75324   9.510   7.071   5.235 -0.7203 -0.0275 -0.4727
  558MOL0     H75325   9.347   7.079   5.264  0.4002 -2.2510  0.2406
  558MOL0     H75326   9.490   7.480   5.302 -1.0077  0.9377  2.0253
  558MOL0     H75327   9.670   6.744   5.770 -2.2181  1.0408 -1.3818
  558MOL0     H75328   9.808   6.628   5.916  0.7164  1.0804 -0.3458
  558MOL0     H75329   9.873   6.726   6.037  0.1399  0.6452  0.8999
  558MOL0     H75330   9.747   6.602   6.072  0.0181 -0.1041 -1.3502
  559MOL0     O75331   0.985   9.402   7.307 -0.5703 -0.0539  0.0208
  559MOL0     C75332   0.914   9.344   7.228  0.3717  0.5003  0.0411
  559MOL0     O75333   0.952   9.288   7.117 -0.0937 -0.4668  0.2299
  559MOL0     C75334   1.081   9.239   7.121  0.1365 -0.1087 -0.3871
  559MOL0     C75335   1.103   9.124   7.193 -0.6892 -0.0885  0.4245
  559MOL0     C75336   1.238   9.087   7.204  0.2868  0.7972 -0.2943
  559MOL0     C75337   1.348   9.161   7.159  0.4301  0.5387 -0.5206
  559MOL0     O75338   1.478   9.122   7.190  0.3887  0.1771 -0.2930
  559MOL0     C75339   1.574   9.232   7.182 -0.6490  0.2676 -0.3852
  559MOL0     C75340   1.663   9.231   7.051  0.2738  0.0170  0.6721
  559MOL0     C75341   1.766   9.123   7.063 -0.4325 -0.8236 -0.2022
  559MOL0     C75342   1.855   9.116   6.930 -0.3133  0.1757 -0.3388
  559MOL0     C75343   1.924   9.243   6.882  0.0125 -0.1597 -0.2539
  559MOL0     C75344   1.970   9.232   6.736  0.2128  0.2893 -0.8912
  559MOL0     C75345   2.045   9.354   6.687 -0.8557  0.2459 -0.3865
  559MOL0     C75346   2.179   9.375   6.747 -0.1546 -0.4400 -0.8282
  559MOL0     N75347   2.258   9.471   6.662  1.2110  0.7358 -0.1297
  559MOL0     C75348   2.391   9.493   6.653  0.1706  0.6248 -0.3814
  559MOL0     C75349   2.408   9.588   6.549 -0.4027  0.6466 -0.0259
  559MOL0     C75350   2.532   9.638   6.491 -0.3113  0.4406  0.7106
  559MOL0     C75351   2.651   9.546   6.506 -0.4923 -0.1130 -0.1644
  559MOL0     C75352   2.729   9.549   6.376  0.1496 -0.0039 -0.0103
  559MOL0     C75353   2.795   9.681   6.328  0.2449 -0.0994  0.9818
  559MOL0     O75354   2.850   9.757   6.434 -0.5634 -0.0547 -0.0575
  559MOL0     C75355   2.938   9.860   6.397  1.3110 -0.8924 -0.4335
  559MOL0     C75356   2.942   9.914   6.271 -0.6753 -0.3555  0.7512
  559MOL0     C75357   3.042  10.011   6.235  0.4284  0.5740  1.5886
  559MOL0     C75358   3.123  10.075   6.330  1.0046 -0.0882 -0.6617
  559MOL0     C75359   3.236  10.174   6.300 -0.2244 -0.5881  0.2801
  559MOL0     O75360   3.305  10.225   6.412 -0.3959  0.4028 -0.0732
  559MOL0     C75361   3.412  10.304   6.391 -0.8885 -0.4808 -1.2216
  559MOL0     C75362   3.447  10.367   6.512 -0.2623 -0.5391  0.3324
  559MOL0     C75363   3.567  10.455   6.527 -0.2098  0.9631  0.8741
  559MOL0     C75364   3.654  10.467   6.415  0.4249 -0.6783 -0.0126
  559MOL0     O75365   3.774  10.535   6.417  0.1792 -0.9888 -0.2768
  559MOL0     C75366   3.838  10.578   6.536  0.0478 -0.5879 -0.4652
  559MOL0     C75367   3.979  10.645   6.504  0.2200 -0.5385 -0.3451
  559MOL0     C75368   3.952  10.782   6.466 -0.0292 -0.3451 -0.0289
  559MOL0     C75369   4.085  10.846   6.407 -0.4702  0.8531 -0.0449
  559MOL0     C75370   4.051  10.986   6.345  0.8215  0.5274 -0.1749
  559MOL0     C75371   4.166  11.068   6.298 -0.4206 -0.2138 -0.5346
  559MOL0     C75372   4.238  11.001   6.177 -0.9521 -0.2154  0.3583
  559MOL0     C75373   4.371  11.065   6.132  0.0910 -0.9820 -0.8459
  559MOL0    Cl75374   4.503  11.017   6.237 -0.5252  0.3721 -0.2413
  559MOL0     C75375   3.617  10.404   6.292  0.4850  0.4108 -0.1042
  559MOL0     C75376   3.503  10.325   6.282  0.2194 -0.2148  0.0081
  559MOL0     O75377   3.254  10.210   6.182 -0.1211  0.2267 -0.9783
  559MOL0     C75378   3.115  10.022   6.455  0.7943 -0.2107 -0.4904
  559MOL0     C75379   3.025   9.919   6.485  0.0973  0.5243 -0.2277
  559MOL0     N75380   2.292   9.629   6.507  0.7796  0.9292  0.4049
  559MOL0     N75381   2.204   9.552   6.565  0.4470  0.3386  0.2510
  559MOL0     C75382   1.311   9.269   7.083  0.4939 -1.0533  0.2569
  559MOL0     C75383   1.183   9.313   7.068 -0.1186 -0.6265  0.5154
  559MOL0     C75384   0.766   9.335   7.252  0.0900  0.0137  0.4372
  559MOL0     C75385   0.690   9.232   7.189  0.7178  0.0055  0.2824
  559MOL0     C75386   0.555   9.204   7.221 -0.0529  0.1551 -0.3902
  559MOL0     C75387   0.492   9.268   7.324 -0.8387  0.2523  0.4515
  559MOL0     O75388   0.369   9.228   7.358  0.0504  0.3886 -0.5140
  559MOL0     C75389   0.300   9.293   7.467  0.1208 -0.1943  0.4313
  559MOL0     C75390   0.173   9.218   7.485  0.4055  0.5874 -0.4017
  559MOL0     C75391   0.109   9.237   7.620 -0.5155 -0.5197  0.2725
  559MOL0     C75392   0.043   9.376   7.632 -0.1965  0.1367 -0.2180
  559MOL0     C75393  -0.067   9.392   7.542 -0.1270 -1.2532 -0.8959
  559MOL0     C75394  -0.166   9.399   7.469 -0.4298 -0.5250 -0.0019
  559MOL0     C75395   0.551   9.375   7.378 -0.4672 -0.7101  0.0471
  559MOL0     C75396   0.685   9.409   7.352  0.4838  0.0958 -0.5100
  559MOL0     C75397   0.748   9.518   7.436  0.0888  0.3033  0.5206
  559MOL0     H75398   1.014   9.069   7.223 -1.5833 -0.0206 -1.8514
  559MOL0     H75399   1.261   8.990   7.248 -0.8756  0.2104 -0.9582
  559MOL0     H75400   1.538   9.333   7.199  1.5622  0.9206  0.8727
  559MOL0     H75401   1.642   9.227   7.268  0.9546  1.9561 -1.4919
  559MOL0     H75402   1.704   9.332   7.043 -4.5385  2.1923 -0.2623
  559MOL0     H75403   1.602   9.221   6.961  1.0905  1.1671 -0.0361
  559MOL0     H75404   1.721   9.026   7.085  1.1371 -0.8238  3.9560
  559MOL0     H75405   1.831   9.154   7.146  1.8256 -0.0198 -2.1474
  559MOL0     H75406   1.924   9.031   6.935 -1.1055 -0.4165  2.2762
  559MOL0     H75407   1.787   9.093   6.848  0.0509  0.8837 -0.8412
  559MOL0     H75408   1.856   9.328   6.887  1.1199  0.6849  1.3818
  559MOL0     H75409   2.000   9.254   6.960 -1.5366  1.0604  1.1659
  559MOL0     H75410   2.027   9.139   6.724 -1.1174 -0.8578  1.0374
  559MOL0     H75411   1.881   9.210   6.677 -1.6744 -1.6004  2.3230
  559MOL0     H75412   1.995   9.451   6.696  1.4265  1.6576 -1.8490
  559MOL0     H75413   2.064   9.323   6.584 -2.7656 -3.0157  0.0900
  559MOL0     H75414   2.162   9.421   6.845 -1.3423  0.5558 -1.4825
  559MOL0     H75415   2.238   9.285   6.766  2.3656  1.3755  0.6941
  559MOL0     H75416   2.473   9.443   6.704  0.2677  1.6607  0.5391
  559MOL0     H75417   2.511   9.664   6.387 -2.4451 -0.3118  0.8984
  559MOL0     H75418   2.561   9.736   6.531  0.8205 -0.1362  1.3517
  559MOL0     H75419   2.707   9.585   6.591 -0.7246 -0.1919  0.0250
  559MOL0     H75420   2.621   9.442   6.520 -0.5166 -0.2079 -0.8544
  559MOL0     H75421   2.663   9.524   6.292  0.8951  1.3259 -1.0312
  559MOL0     H75422   2.810   9.476   6.367  1.5171  1.6206 -1.9718
  559MOL0     H75423   2.721   9.738   6.272 -0.5010 -1.2112  0.8003
  559MOL0     H75424   2.881   9.656   6.265  3.2042  2.6749  3.5659
  559MOL0     H75425   2.880   9.869   6.194 -0.6846  2.3324 -0.9164
  559MOL0     H75426   3.042  10.033   6.129 -1.7321  1.2100  1.6744
  559MOL0     H75427   3.388  10.364   6.603  0.2061 -0.1446  0.6529
  559MOL0     H75428   3.590  10.504   6.621 -2.2106  0.9332  1.4200
  559MOL0     H75429   3.769  10.640   6.593 -1.1443 -0.8347 -1.5946
  559MOL0     H75430   3.850  10.485   6.593  1.1344 -0.2956 -0.1929
  559MOL0     H75431   4.045  10.635   6.592  0.5953  3.0728 -0.0463
  559MOL0     H75432   4.025  10.583   6.427 -0.3707 -1.0348 -0.3020
  559MOL0     H75433   3.860  10.795   6.408  0.0452  0.5796  0.0427
  559MOL0     H75434   3.925  10.837   6.557  0.4293  0.1061 -0.1624
  559MOL0     H75435   4.124  10.787   6.324 -1.6869  0.9013 -0.6782
  559MOL0     H75436   4.165  10.848   6.481 -0.5804  1.7601  0.0566
  559MOL0     H75437   3.985  11.036   6.417  1.1362 -0.6149  0.9548
  559MOL0     H75438   3.986  10.964   6.259  1.1451  0.3345 -0.3703
  559MOL0     H75439   4.127  11.168   6.278 -0.6786  0.0681  1.1933
  559MOL0     H75440   4.240  11.082   6.378 -1.9170  1.0290  0.7097
  559MOL0     H75441   4.176  11.006   6.087 -0.9126 -1.2847  0.2534
  559MOL0     H75442   4.256  10.894   6.194  0.6741 -0.8343 -3.8280
  559MOL0     H75443   4.384  11.049   6.025  1.0274  0.4192 -0.9577
  559MOL0     H75444   4.362  11.171   6.155 -1.7021 -1.7436  2.8022
  559MOL0     H75445   3.675  10.409   6.201  0.0380  0.7684 -0.3740
  559MOL0     H75446   3.481  10.274   6.189  2.5106 -3.0673  0.8606
  559MOL0     H75447   3.175  10.044   6.543 -0.9622  2.4661  0.1546
  559MOL0     H75448   3.026   9.872   6.583  3.8459 -0.2970 -0.5013
  559MOL0     H75449   1.380   9.339   7.037 -1.6388  1.7510  1.0183
  559MOL0     H75450   1.157   9.407   7.019  0.7558 -0.9008 -0.5028
  559MOL0     H75451   0.731   9.155   7.125  0.8157 -1.5819  2.1673
  559MOL0     H75452   0.505   9.123   7.169  2.2777 -0.9134 -1.1176
  559MOL0     H75453   0.288   9.399   7.445 -1.4596 -0.1477  1.3783
  559MOL0     H75454   0.366   9.288   7.555  1.7526 -0.0268 -0.7398
  559MOL0     H75455   0.198   9.112   7.485 -0.4389  0.3857 -0.5758
  559MOL0     H75456   0.116   9.236   7.393 -1.1091 -0.3391  0.3188
  559MOL0     H75457   0.194   9.229   7.688 -0.3525  1.2716  0.3502
  559MOL0     H75458   0.045   9.152   7.642 -0.8421 -0.2048  0.5622
  559MOL0     H75459   0.019   9.394   7.738  3.2138 -1.0816  0.9066
  559MOL0     H75460   0.124   9.446   7.613  1.5109 -1.3922  1.0080
  559MOL0     H75461  -0.255   9.419   7.413 -1.0991 -0.2800  1.1246
  559MOL0     H75462   0.506   9.441   7.452  0.9619 -1.3895  1.6027
  559MOL0     H75463   0.822   9.475   7.505 -0.2026 -0.1816  0.5376
  559MOL0     H75464   0.809   9.579   7.369  0.7777 -0.9873 -0.0665
  559MOL0     H75465   0.680   9.585   7.488  2.2522  3.0090  0.0686
  560MOL0     O75466   6.844   4.362   8.619 -0.5069 -0.1638  0.1734
  560MOL0     C75467   6.890   4.475   8.620 -1.1493 -0.3264  0.1193
  560MOL0     O75468   7.026   4.497   8.613 -0.0885 -0.9440 -0.6273
  560MOL0     C75469   7.113   4.391   8.639 -0.1890 -0.2280 -0.6165
  560MOL0     C75470   7.231   4.376   8.565 -0.8478  0.4664  0.0841
  560MOL0     C75471   7.329   4.278   8.583  0.1592  0.4655 -0.7052
  560MOL0     C75472   7.305   4.185   8.682 -0.3030 -0.1352 -1.0910
  560MOL0     O75473   7.408   4.095   8.692  0.3355  0.4495  0.1050
  560MOL0     C75474   7.393   3.996   8.792  0.2661  0.2501 -0.5410
  560MOL0     C75475   7.527   3.923   8.825  0.5781  0.1698 -0.0213
  560MOL0     C75476   7.646   4.014   8.834  0.2787 -0.2422  0.2212
  560MOL0     C75477   7.646   4.105   8.963 -0.3796  0.5721 -0.3159
  560MOL0     C75478   7.785   4.154   8.988 -0.1830  0.1495 -0.4475
  560MOL0     C75479   7.836   4.238   8.874 -0.1901  0.1492  0.3461
  560MOL0     C75480   7.978   4.304   8.907 -0.5183  0.2084 -1.0824
  560MOL0     C75481   8.000   4.385   9.034  0.1975 -0.2586  0.3677
  560MOL0     N75482   8.129   4.453   9.027 -0.4106  0.2893  0.2454
  560MOL0     C75483   8.163   4.554   8.941 -0.2909 -0.0102  0.3004
  560MOL0     C75484   8.291   4.575   8.981  0.0519 -0.8830 -0.3406
  560MOL0     C75485   8.376   4.692   8.939 -0.2373  0.3219 -0.0268
  560MOL0     C75486   8.515   4.656   8.889  0.0687  1.0638 -0.6593
  560MOL0     C75487   8.562   4.791   8.828  0.0952 -0.5596 -0.8256
  560MOL0     C75488   8.716   4.798   8.818  0.0959  0.1868  0.0723
  560MOL0     O75489   8.764   4.913   8.755 -0.2170  0.3730  0.3061
  560MOL0     C75490   8.888   4.962   8.800  1.2356  0.0437 -0.3960
  560MOL0     C75491   8.978   4.888   8.883 -0.5571 -0.6399  0.0907
  560MOL0     C75492   9.104   4.936   8.916  0.8458  0.2120  0.2489
  560MOL0     C75493   9.145   5.061   8.874 -0.7678 -0.7040 -0.8904
  560MOL0     C75494   9.281   5.124   8.913 -0.1306 -0.5967  1.2116
  560MOL0     O75495   9.352   5.058   9.009  0.1961  0.3822  0.5032
  560MOL0     C75496   9.463   5.117   9.059 -0.8551  0.2173  1.0813
  560MOL0     C75497   9.595   5.089   9.014 -0.0169  0.1670 -0.1482
  560MOL0     C75498   9.698   5.145   9.091 -0.8786  0.7275  0.1749
  560MOL0     C75499   9.691   5.244   9.183  0.5664  0.8029  0.2528
  560MOL0     O75500   9.790   5.330   9.228  0.0405 -0.3993 -0.1148
  560MOL0     C75501   9.884   5.371   9.125  0.3021  0.5119  0.1511
  560MOL0     C75502   9.941   5.507   9.145  0.8305 -0.4831 -0.9225
  560MOL0     C75503  10.067   5.549   9.063  0.2307 -0.1752 -0.1835
  560MOL0     C75504  10.184   5.457   9.094 -0.0021 -0.2314  0.3020
  560MOL0     C75505  10.212   5.431   9.242 -0.5485  0.0649 -0.3488
  560MOL0     C75506  10.342   5.349   9.260 -0.6718 -0.4100  0.8445
  560MOL0     C75507  10.341   5.197   9.208  0.2995  1.1921 -0.2593
  560MOL0     C75508  10.330   5.101   9.321  0.2296 -0.7024 -0.0777
  560MOL0    Cl75509  10.166   5.123   9.387  0.2519 -0.2167  0.1081
  560MOL0     C75510   9.561   5.275   9.220  1.1675  0.4729 -0.4948
  560MOL0     C75511   9.451   5.212   9.160 -0.0146  0.1019  0.2812
  560MOL0     O75512   9.304   5.240   8.875 -0.5998 -0.7109  0.4309
  560MOL0     C75513   9.049   5.135   8.795 -0.2512 -0.0104  0.4712
  560MOL0     C75514   8.933   5.084   8.758 -0.1965 -1.5362 -0.7216
  560MOL0     N75515   8.340   4.480   9.065  0.2245  0.2287  0.0263
  560MOL0     N75516   8.243   4.400   9.087 -0.0875 -0.4988 -0.2935
  560MOL0     C75517   7.189   4.190   8.770 -0.5200  0.0848 -0.6232
  560MOL0     C75518   7.096   4.290   8.744  0.2316  0.1203  0.6804
  560MOL0     C75519   6.806   4.593   8.614 -0.6111 -0.9311  0.3907
  560MOL0     C75520   6.848   4.713   8.555 -0.0475 -0.2276  1.9411
  560MOL0     C75521   6.768   4.830   8.544 -0.1793  0.2215 -0.3947
  560MOL0     C75522   6.645   4.841   8.604  0.1565 -1.0682 -0.4714
  560MOL0     O75523   6.581   4.961   8.575  0.2876  0.0533 -0.0756
  560MOL0     C75524   6.460   4.986   8.653 -0.7919 -0.9491 -0.2987
  560MOL0     C75525   6.327   4.932   8.590  0.1988  0.0101 -1.3660
  560MOL0     C75526   6.199   4.995   8.667  0.8443 -0.2413  0.5102
  560MOL0     C75527   6.206   4.952   8.805  0.7647  0.7952 -1.0831
  560MOL0     C75528   6.173   4.810   8.829  0.0722 -1.1732 -0.3819
  560MOL0     C75529   6.154   4.694   8.840  0.4621  0.1047 -0.0489
  560MOL0     C75530   6.592   4.720   8.657  0.7558  1.0788  0.6735
  560MOL0     C75531   6.666   4.597   8.655 -0.0052 -0.1261  0.5361
  560MOL0     C75532   6.595   4.482   8.714  0.5724 -0.1095  0.2471
  560MOL0     H75533   7.257   4.453   8.492 -3.4573  2.2223  0.8588
  560MOL0     H75534   7.423   4.282   8.528  1.6496  1.2287  1.7126
  560MOL0     H75535   7.348   4.027   8.887  1.1354  1.2031 -0.4243
  560MOL0     H75536   7.322   3.927   8.745  1.0632 -2.0072  1.3893
  560MOL0     H75537   7.540   3.860   8.736 -4.7054 -0.4228 -0.7057
  560MOL0     H75538   7.513   3.869   8.919 -0.5204  1.8957  0.8627
  560MOL0     H75539   7.667   4.067   8.741 -2.8272  0.0491 -0.4270
  560MOL0     H75540   7.732   3.947   8.837 -1.8404 -3.5386 -3.0439
  560MOL0     H75541   7.574   4.185   8.944 -1.0548 -0.1189 -0.7369
  560MOL0     H75542   7.626   4.056   9.059 -1.6297  2.3398  0.3798
  560MOL0     H75543   7.794   4.214   9.079 -0.1624 -0.9223  0.2765
  560MOL0     H75544   7.854   4.070   8.999 -1.9439 -1.2260  0.6734
  560MOL0     H75545   7.852   4.190   8.777 -0.3442  1.7469 -0.5023
  560MOL0     H75546   7.765   4.320   8.859  0.9426  1.1730  0.4024
  560MOL0     H75547   7.998   4.370   8.822  0.0028  0.1506 -1.0043
  560MOL0     H75548   8.048   4.220   8.901 -2.6499 -1.5995 -2.4456
  560MOL0     H75549   7.925   4.464   9.041 -2.7543 -2.8807  1.1755
  560MOL0     H75550   8.004   4.322   9.124  1.1123 -2.0358 -0.8646
  560MOL0     H75551   8.109   4.595   8.856  1.1214 -1.3240 -1.2840
  560MOL0     H75552   8.315   4.741   8.862 -0.9926  1.5418  1.2990
  560MOL0     H75553   8.380   4.755   9.028  0.0922  0.4638 -0.1427
  560MOL0     H75554   8.577   4.626   8.974 -0.0191 -0.4787 -1.1169
  560MOL0     H75555   8.508   4.572   8.819 -3.2931  0.7780 -0.1206
  560MOL0     H75556   8.545   4.877   8.894  4.2754 -1.6028  2.0383
  560MOL0     H75557   8.532   4.818   8.726  1.2364  0.0225 -1.0275
  560MOL0     H75558   8.748   4.706   8.768  1.4777  0.6856  0.0013
  560MOL0     H75559   8.758   4.796   8.919  3.3356  0.6208 -1.1684
  560MOL0     H75560   8.966   4.784   8.912 -0.0629 -0.1352  2.3620
  560MOL0     H75561   9.167   4.872   8.977  0.0655  3.2170  4.6028
  560MOL0     H75562   9.621   5.014   8.941 -0.8004  0.4295 -0.7045
  560MOL0     H75563   9.794   5.109   9.054 -2.8641 -2.5733 -2.3853
  560MOL0     H75564   9.971   5.305   9.128  1.1287  1.4135 -2.0190
  560MOL0     H75565   9.840   5.347   9.027 -3.5357  2.1976  1.2593
  560MOL0     H75566   9.860   5.580   9.134  0.5407 -0.3194  1.6135
  560MOL0     H75567   9.967   5.514   9.251  0.5473 -0.5019 -0.8503
  560MOL0     H75568  10.044   5.525   8.958  0.9076 -3.4679  0.2866
  560MOL0     H75569  10.093   5.654   9.076  1.6400 -0.4334 -0.6706
  560MOL0     H75570  10.274   5.494   9.044 -0.8879 -0.0526 -1.2448
  560MOL0     H75571  10.167   5.356   9.054 -4.5054  1.2085 -2.1686
  560MOL0     H75572  10.138   5.378   9.302  4.1189 -5.9121  1.1911
  560MOL0     H75573  10.240   5.525   9.290 -0.0086  0.0256 -0.5854
  560MOL0     H75574  10.416   5.395   9.194 -3.3890  1.6179 -1.0336
  560MOL0     H75575  10.381   5.360   9.361  3.8492 -1.7063 -0.5367
  560MOL0     H75576  10.438   5.165   9.170  0.7672  1.1575  0.9348
  560MOL0     H75577  10.270   5.169   9.130  0.7335 -2.6057  0.5143
  560MOL0     H75578  10.343   4.996   9.292  3.0621 -0.1240 -1.1942
  560MOL0     H75579  10.412   5.123   9.389  1.5393  2.0549 -2.3790
  560MOL0     H75580   9.543   5.347   9.299 -0.9168 -2.1680  1.6413
  560MOL0     H75581   9.357   5.219   9.215  1.2898  3.2848  2.3873
  560MOL0     H75582   9.070   5.238   8.768 -2.6483  1.3500  3.1915
  560MOL0     H75583   8.877   5.152   8.694  0.4336  2.3260  2.4439
  560MOL0     H75584   7.159   4.116   8.844 -0.1869  1.3856  0.8602
  560MOL0     H75585   7.011   4.301   8.811  1.7184  2.5862  2.2693
  560MOL0     H75586   6.942   4.728   8.503 -0.2729 -1.6192  1.0597
  560MOL0     H75587   6.810   4.910   8.485 -1.0604  1.8219  1.0432
  560MOL0     H75588   6.445   5.093   8.670 -1.1051 -1.0680  0.2283
  560MOL0     H75589   6.481   4.950   8.754  3.9223  0.9600 -0.3396
  560MOL0     H75590   6.321   4.825   8.610  0.4907  0.0665 -0.9809
  560MOL0     H75591   6.311   4.956   8.484 -1.1531  0.8957 -0.9975
  560MOL0     H75592   6.113   4.958   8.611 -1.0523  0.6855  2.6478
  560MOL0     H75593   6.211   5.103   8.652  0.8410 -0.2267  0.6104
  560MOL0     H75594   6.294   4.989   8.859  0.0808 -0.4372  0.9921
  560MOL0     H75595   6.127   5.014   8.847 -0.6160 -1.5299 -0.0610
  560MOL0     H75596   6.131   4.589   8.837 -0.3094  0.2754 -2.1510
  560MOL0     H75597   6.485   4.718   8.675  0.2463 -1.3548 -1.9086
  560MOL0     H75598   6.639   4.453   8.810  2.4560 -1.1216 -0.8564
  560MOL0     H75599   6.488   4.503   8.724  0.4932 -0.8251  0.9956
  560MOL0     H75600   6.598   4.392   8.652 -1.2405 -1.2222  1.6796
  561MOL0     O75601   0.386   3.704   7.447 -0.0789  0.1403 -0.4691
  561MOL0     C75602   0.442   3.610   7.394 -0.7926  0.5871 -0.8619
  561MOL0     O75603   0.386   3.505   7.333 -0.3351 -0.3025  0.0335
  561MOL0     C75604   0.250   3.497   7.337 -0.8982  1.5157  0.1478
  561MOL0     C75605   0.170   3.601   7.284  0.4949  0.0873 -0.2827
  561MOL0     C75606   0.025   3.589   7.279 -0.5823 -0.2601  0.4661
  561MOL0     C75607  -0.035   3.479   7.320  0.9661 -0.3607 -0.1062
  561MOL0     O75608  -0.175   3.480   7.332  0.5567  0.2058  0.0263
  561MOL0     C75609  -0.247   3.389   7.421  0.0299  0.4965  0.5580
  561MOL0     C75610  -0.308   3.261   7.353  0.0645  0.8198 -0.6610
  561MOL0     C75611  -0.422   3.282   7.250 -0.4790 -0.0118 -0.9023
  561MOL0     C75612  -0.480   3.137   7.233  0.4690 -0.4019  0.9421
  561MOL0     C75613  -0.619   3.137   7.174  0.5981 -0.1978  0.1912
  561MOL0     C75614  -0.720   3.163   7.272  0.3001 -0.0521  0.5566
  561MOL0     C75615  -0.869   3.137   7.229  0.3748 -0.6032  1.0284
  561MOL0     C75616  -0.928   3.248   7.139 -0.0275 -0.4110  0.3569
  561MOL0     N75617  -0.985   3.193   7.017  0.6920  0.1512  0.8212
  561MOL0     C75618  -1.074   3.086   7.020  0.6447  0.7200 -0.1869
  561MOL0     C75619  -1.126   3.083   6.892 -0.3706  0.4980 -0.2482
  561MOL0     C75620  -1.223   2.983   6.838 -0.7254  0.1110  0.5269
  561MOL0     C75621  -1.164   2.868   6.760  0.7334 -0.5407  0.0311
  561MOL0     C75622  -1.144   2.735   6.832 -0.2008  0.0542  0.5613
  561MOL0     C75623  -1.112   2.719   6.983  0.8952  0.7137 -0.0752
  561MOL0     O75624  -1.002   2.804   7.024  0.1255 -0.2328  0.7216
  561MOL0     C75625  -0.876   2.760   7.009 -0.4005 -0.2243 -0.5678
  561MOL0     C75626  -0.830   2.667   7.100 -0.5446  0.1158 -0.4810
  561MOL0     C75627  -0.690   2.656   7.121  0.1513  0.6124  0.3597
  561MOL0     C75628  -0.596   2.735   7.060 -0.8370 -0.5426 -0.2527
  561MOL0     C75629  -0.456   2.721   7.087  0.0168 -0.4267 -0.5585
  561MOL0     O75630  -0.417   2.618   7.158 -0.3754  1.1410  0.0456
  561MOL0     C75631  -0.281   2.590   7.183  0.3320 -0.3243  0.2318
  561MOL0     C75632  -0.214   2.524   7.080  0.0960  0.4344 -0.8256
  561MOL0     C75633  -0.075   2.497   7.095 -0.2950 -0.6416 -0.2403
  561MOL0     C75634  -0.017   2.523   7.224 -0.1539  0.6744  1.0064
  561MOL0     O75635   0.118   2.510   7.241 -0.3952 -0.3424  0.0973
  561MOL0     C75636   0.152   2.399   7.325 -0.2693  0.9430 -0.0190
  561MOL0     C75637   0.230   2.452   7.448  0.6325  0.0049 -0.1225
  561MOL0     C75638   0.351   2.533   7.405  0.5478  0.7783 -0.3248
  561MOL0     C75639   0.447   2.572   7.515  0.1350  0.4732 -0.9822
  561MOL0     C75640   0.582   2.639   7.465  0.0725 -0.1443 -0.3498
  561MOL0     C75641   0.679   2.652   7.585  0.6364 -0.4996 -0.3100
  561MOL0     C75642   0.828   2.659   7.528 -0.2014 -0.1375  0.6521
  561MOL0     C75643   0.871   2.795   7.479  0.1642  0.0960  0.4609
  561MOL0    Cl75644   1.038   2.778   7.402  0.1033 -0.0196 -0.0149
  561MOL0     C75645  -0.094   2.574   7.334 -0.7049 -0.6079  0.6168
  561MOL0     C75646  -0.229   2.618   7.311 -0.1990  0.2906 -0.0278
  561MOL0     O75647  -0.387   2.813   7.043 -0.2619 -0.4232 -0.0956
  561MOL0     C75648  -0.643   2.818   6.954  0.6794 -0.6029 -0.8326
  561MOL0     C75649  -0.787   2.840   6.932 -0.3733  0.3955 -0.1156
  561MOL0     N75650  -1.063   3.179   6.815  0.4293 -0.5467 -0.5485
  561MOL0     N75651  -0.977   3.240   6.892 -0.3287  0.1271  0.0892
  561MOL0     C75652   0.045   3.370   7.371  0.8898  0.7668  0.3320
  561MOL0     C75653   0.187   3.381   7.386 -0.2041  0.1704  0.0757
  561MOL0     C75654   0.597   3.608   7.396 -0.0877 -0.3494  1.1731
  561MOL0     C75655   0.661   3.495   7.335 -0.0788 -0.0713 -0.7431
  561MOL0     C75656   0.796   3.483   7.333 -0.9458 -0.2649  0.5482
  561MOL0     C75657   0.875   3.580   7.392 -0.7956 -0.0203 -0.3410
  561MOL0     O75658   1.017   3.556   7.381 -0.4866 -0.4889 -0.0393
  561MOL0     C75659   1.108   3.626   7.468 -0.3609 -0.4540 -0.4071
  561MOL0     C75660   1.241   3.556   7.481 -0.2060  0.2761 -0.3645
  561MOL0     C75661   1.300   3.502   7.346 -0.6956  0.0745 -0.8991
  561MOL0     C75662   1.321   3.604   7.236  0.1544 -0.0166  0.5076
  561MOL0     C75663   1.393   3.723   7.284  0.6162 -0.3333 -0.3094
  561MOL0     C75664   1.484   3.787   7.324 -0.2706 -0.5048  1.4476
  561MOL0     C75665   0.821   3.696   7.450 -0.7940 -0.3758  0.5774
  561MOL0     C75666   0.681   3.707   7.452  0.4383 -0.2315 -0.9173
  561MOL0     C75667   0.629   3.832   7.534 -0.3144 -0.3440 -0.0847
  561MOL0     H75668   0.203   3.697   7.243 -1.5021  0.4728 -1.1046
  561MOL0     H75669  -0.040   3.667   7.240 -1.4653 -0.8242  0.7719
  561MOL0     H75670  -0.190   3.358   7.509  2.1234  1.1157 -0.5113
  561MOL0     H75671  -0.334   3.443   7.459  0.6871  0.2508  2.5243
  561MOL0     H75672  -0.339   3.190   7.431  1.6439  0.7823 -0.0281
  561MOL0     H75673  -0.229   3.204   7.302  0.9514  1.2021  0.2492
  561MOL0     H75674  -0.392   3.316   7.150 -1.6569  0.2725 -1.1736
  561MOL0     H75675  -0.495   3.353   7.288  1.1004  1.1586  0.0717
  561MOL0     H75676  -0.408   3.078   7.176 -0.1423 -1.0924  0.8627
  561MOL0     H75677  -0.489   3.083   7.328  0.6328  0.7377  1.6257
  561MOL0     H75678  -0.632   3.210   7.094 -1.9759 -1.3655 -0.5466
  561MOL0     H75679  -0.636   3.044   7.120  0.7637 -0.5024  0.6583
  561MOL0     H75680  -0.704   3.095   7.356 -2.9243  0.8091  2.0263
  561MOL0     H75681  -0.715   3.264   7.312 -2.6966  1.1842 -1.8067
  561MOL0     H75682  -0.931   3.136   7.319 -1.5088  3.3404 -0.0007
  561MOL0     H75683  -0.878   3.045   7.171 -1.8957 -1.7991  3.0629
  561MOL0     H75684  -1.013   3.292   7.192 -1.1665  0.8157 -2.2857
  561MOL0     H75685  -0.871   3.341   7.135 -3.0372  1.7323  2.3564
  561MOL0     H75686  -1.124   3.030   7.098 -1.4855 -0.2941 -2.1429
  561MOL0     H75687  -1.275   2.946   6.927 -1.7576  2.5555  1.0256
  561MOL0     H75688  -1.302   3.038   6.785 -1.0561 -1.6106 -0.8976
  561MOL0     H75689  -1.226   2.846   6.672 -0.3954 -0.4178  0.7658
  561MOL0     H75690  -1.071   2.910   6.722 -0.6240  1.9239 -0.7949
  561MOL0     H75691  -1.071   2.669   6.785 -1.0669 -1.0069  0.6690
  561MOL0     H75692  -1.238   2.678   6.829 -0.6273  0.7649 -0.0393
  561MOL0     H75693  -1.093   2.620   7.024 -1.2938  0.4546  0.4596
  561MOL0     H75694  -1.202   2.762   7.030  0.1590 -0.4445 -0.3854
  561MOL0     H75695  -0.899   2.613   7.164 -0.3834 -3.3518 -2.9503
  561MOL0     H75696  -0.662   2.584   7.197  1.1084  1.0433  0.4343
  561MOL0     H75697  -0.253   2.514   6.979  0.6407  2.6561 -1.3204
  561MOL0     H75698  -0.004   2.464   7.020  0.8619  2.3863 -0.6192
  561MOL0     H75699   0.063   2.338   7.348 -0.1856  1.3856  1.5742
  561MOL0     H75700   0.214   2.334   7.263 -2.2257  0.2525 -1.3763
  561MOL0     H75701   0.157   2.519   7.493 -3.0096 -2.6297 -1.6353
  561MOL0     H75702   0.253   2.370   7.517 -1.0061 -1.0885 -0.8145
  561MOL0     H75703   0.401   2.465   7.336  1.4369 -0.5338  1.5363
  561MOL0     H75704   0.330   2.626   7.352  1.6868  2.6322  2.2258
  561MOL0     H75705   0.472   2.484   7.574 -0.2228  0.8542 -0.2579
  561MOL0     H75706   0.400   2.639   7.587 -0.0074 -2.1644  1.5644
  561MOL0     H75707   0.559   2.741   7.433  1.7916  0.9832  1.7479
  561MOL0     H75708   0.614   2.572   7.384 -0.0494  0.4557 -0.8953
  561MOL0     H75709   0.647   2.734   7.649  1.6690 -2.5435  3.0800
  561MOL0     H75710   0.668   2.563   7.647 -1.6674 -0.1615 -0.1244
  561MOL0     H75711   0.845   2.589   7.446  0.7622 -0.9241  1.4989
  561MOL0     H75712   0.894   2.618   7.605  2.0475  1.5735 -0.2491
  561MOL0     H75713   0.802   2.824   7.398  0.0312  3.3770  1.5934
  561MOL0     H75714   0.870   2.866   7.562 -0.0900 -2.3899  2.6998
  561MOL0     H75715  -0.041   2.595   7.425  0.0799 -1.6174  0.4071
  561MOL0     H75716  -0.282   2.666   7.393 -0.4594  1.6335 -0.9401
  561MOL0     H75717  -0.583   2.882   6.891 -0.5872 -0.6701 -2.1766
  561MOL0     H75718  -0.828   2.919   6.870  1.1484  1.4109  0.1198
  561MOL0     H75719  -0.009   3.286   7.412 -2.3128  0.9923 -2.8781
  561MOL0     H75720   0.237   3.295   7.428 -1.4065  0.8171  3.1282
  561MOL0     H75721   0.613   3.405   7.299  0.6082 -0.2325 -1.2769
  561MOL0     H75722   0.857   3.402   7.293  0.2991  0.3511  1.1647
  561MOL0     H75723   1.075   3.623   7.573  0.7540  0.1573 -0.0315
  561MOL0     H75724   1.112   3.729   7.433 -0.8366  0.0401  0.9410
  561MOL0     H75725   1.223   3.468   7.544  2.6014 -1.3703 -1.6372
  561MOL0     H75726   1.309   3.617   7.541 -3.2966  2.4555  1.1968
  561MOL0     H75727   1.250   3.413   7.308  1.5666 -2.3768  1.3978
  561MOL0     H75728   1.400   3.462   7.365 -1.9224 -2.2287  1.5686
  561MOL0     H75729   1.383   3.550   7.164  1.6898  0.9143  1.0826
  561MOL0     H75730   1.229   3.634   7.185 -0.6195 -3.4051 -0.2939
  561MOL0     H75731   1.566   3.855   7.333 -1.3208  0.7206  2.0491
  561MOL0     H75732   0.874   3.774   7.504  0.5207 -0.7476 -0.1287
  561MOL0     H75733   0.561   3.794   7.609 -1.9808 -0.3895 -1.5564
  561MOL0     H75734   0.713   3.892   7.571 -0.3469  0.0500 -0.6205
  561MOL0     H75735   0.588   3.900   7.458  0.5333  0.3196  0.0298
  562MOL0     O75736   2.812   0.927   6.893 -0.2797 -0.1507 -0.1152
  562MOL0     C75737   2.909   0.994   6.923  0.5221 -0.1195 -0.2231
  562MOL0     O75738   3.024   0.934   6.962  0.2018 -0.0481  0.0186
  562MOL0     C75739   3.043   0.795   6.956 -0.0193 -0.1442 -0.0545
  562MOL0     C75740   3.175   0.759   6.917 -0.9025  0.2260  0.0653
  562MOL0     C75741   3.215   0.626   6.907  0.0857  0.4652  0.2383
  562MOL0     C75742   3.142   0.535   6.964 -0.1525  0.9797  0.0797
  562MOL0     O75743   3.200   0.409   6.951  0.2411 -0.2821  0.8883
  562MOL0     C75744   3.132   0.311   6.878 -0.3894  0.2119 -0.3654
  562MOL0     C75745   3.230   0.205   6.814 -0.4326  0.3869  0.8927
  562MOL0     C75746   3.372   0.191   6.877  0.2907  0.2921  0.6433
  562MOL0     C75747   3.459   0.101   6.786 -1.1429  0.9686 -0.7785
  562MOL0     C75748   3.598   0.063   6.851  0.4315 -0.5078  0.2892
  562MOL0     C75749   3.693   0.167   6.798  0.2048 -0.2103 -0.2848
  562MOL0     C75750   3.822   0.141   6.866  1.0681  0.6947 -0.5378
  562MOL0     C75751   3.930   0.224   6.792  0.0882  0.0911 -1.3465
  562MOL0     N75752   4.062   0.186   6.833  0.0628  0.6439  0.5580
  562MOL0     C75753   4.157   0.255   6.909 -0.4013  1.2602 -0.1672
  562MOL0     C75754   4.270   0.187   6.883 -0.3449  0.5531 -0.1705
  562MOL0     C75755   4.408   0.220   6.933 -0.1137 -0.2847 -0.7104
  562MOL0     C75756   4.507   0.099   6.914 -0.0979 -0.7939 -1.0736
  562MOL0     C75757   4.653   0.138   6.894  0.3617  0.0596  0.6485
  562MOL0     C75758   4.717   0.207   7.012  0.6482 -0.3138 -0.3051
  562MOL0     O75759   4.848   0.240   6.971 -0.3656 -0.0036  0.4872
  562MOL0     C75760   4.945   0.172   7.046 -0.3570  0.1552 -0.5347
  562MOL0     C75761   4.944   0.029   7.046  0.1425  0.2499  0.0054
  562MOL0     C75762   5.053  -0.043   7.100  0.4823 -0.0012 -0.2329
  562MOL0     C75763   5.155   0.036   7.160 -0.2296  0.3058  0.5406
  562MOL0     C75764   5.271  -0.029   7.228 -0.8742  0.4447  0.4003
  562MOL0     O75765   5.310  -0.142   7.172 -0.2192 -0.7030  0.0335
  562MOL0     C75766   5.417  -0.197   7.227 -0.0927  0.5397 -0.3303
  562MOL0     C75767   5.424  -0.242   7.359 -0.2210  0.0662 -0.4539
  562MOL0     C75768   5.544  -0.308   7.409  0.3229  0.7569  0.2280
  562MOL0     C75769   5.658  -0.324   7.326  0.9222  0.5108 -0.7144
  562MOL0     O75770   5.773  -0.364   7.388  0.7133 -0.4863 -0.4173
  562MOL0     C75771   5.888  -0.286   7.369  0.9219  0.5615  0.2433
  562MOL0     C75772   5.993  -0.329   7.467 -1.2343  0.3306  0.6405
  562MOL0     C75773   5.968  -0.284   7.608 -0.1180  0.3032  0.1950
  562MOL0     C75774   5.842  -0.340   7.688 -0.0023  0.2699  0.5270
  562MOL0     C75775   5.845  -0.314   7.844  0.7109  0.1551  0.5156
  562MOL0     C75776   5.718  -0.375   7.911 -0.0030 -0.7226  0.2854
  562MOL0     C75777   5.739  -0.346   8.062  0.5249  0.4784  0.3704
  562MOL0     C75778   5.651  -0.414   8.165  0.0868 -0.2173 -0.6196
  562MOL0    Cl75779   5.483  -0.368   8.128  0.0622  0.1322  0.0320
  562MOL0     C75780   5.644  -0.291   7.189 -0.7110 -0.5760 -0.1895
  562MOL0     C75781   5.524  -0.231   7.142  0.2885  1.0003 -0.0984
  562MOL0     O75782   5.330   0.040   7.304 -0.3795  0.6922  1.0147
  562MOL0     C75783   5.146   0.181   7.165  0.2714 -0.3066  0.7101
  562MOL0     C75784   5.034   0.241   7.114  0.1411 -1.0808  0.4091
  562MOL0     N75785   4.245   0.075   6.804 -0.1760 -0.6733 -0.3661
  562MOL0     N75786   4.121   0.083   6.769 -0.8953 -0.0256 -0.2303
  562MOL0     C75787   3.010   0.558   7.010  0.4989  0.3217  1.0409
  562MOL0     C75788   2.960   0.690   7.008 -0.0263 -0.0728 -0.7035
  562MOL0     C75789   2.902   1.141   6.922  1.0360  0.0985  0.9149
  562MOL0     C75790   3.019   1.214   6.935 -0.4064  0.6545 -0.1373
  562MOL0     C75791   3.012   1.354   6.905  0.1024  0.4081 -0.1448
  562MOL0     C75792   2.894   1.428   6.877  0.9182 -0.1232  0.2107
  562MOL0     O75793   2.888   1.564   6.882  0.4957  0.5553 -0.2441
  562MOL0     C75794   3.002   1.634   6.910  0.0307  1.1804  0.1077
  562MOL0     C75795   2.963   1.782   6.918  0.0205  0.1595 -0.7229
  562MOL0     C75796   3.072   1.868   6.960 -0.1854  0.2548  0.1341
  562MOL0     C75797   3.141   1.836   7.089 -0.0328 -0.1849  0.2159
  562MOL0     C75798   3.066   1.846   7.214  0.2576  1.3499 -0.0195
  562MOL0     C75799   3.021   1.872   7.324  0.3205 -0.3580 -0.2258
  562MOL0     C75800   2.776   1.362   6.880  0.5409  0.2798 -0.2002
  562MOL0     C75801   2.776   1.213   6.898 -0.5275 -0.5990  0.0788
  562MOL0     C75802   2.644   1.140   6.892 -0.4819 -0.0143 -0.8951
  562MOL0     H75803   3.245   0.827   6.870 -1.8182  0.0876 -1.5604
  562MOL0     H75804   3.312   0.607   6.861 -0.5399  1.1787 -1.4924
  562MOL0     H75805   3.056   0.260   6.939 -1.8668  1.2730 -1.2540
  562MOL0     H75806   3.087   0.372   6.800 -0.8960  2.5109  1.6213
  562MOL0     H75807   3.258   0.233   6.712 -0.5329 -3.0154 -0.2021
  562MOL0     H75808   3.185   0.107   6.799 -0.1592  0.2937  0.6706
  562MOL0     H75809   3.353   0.140   6.972  1.5923 -3.4066 -0.8771
  562MOL0     H75810   3.431   0.282   6.892  1.4555 -0.0075 -1.6407
  562MOL0     H75811   3.414   0.002   6.771  0.6114  0.5276 -4.2395
  562MOL0     H75812   3.468   0.153   6.690 -1.2676 -0.3085 -1.5083
  562MOL0     H75813   3.585   0.066   6.960 -0.5057 -0.7683  0.1872
  562MOL0     H75814   3.640  -0.031   6.813  1.7497  0.8218 -1.7053
  562MOL0     H75815   3.708   0.151   6.691  1.9392  1.5183 -0.3715
  562MOL0     H75816   3.651   0.263   6.830  0.2095 -0.6651  1.1452
  562MOL0     H75817   3.854   0.037   6.860  0.3200  0.3465  1.1714
  562MOL0     H75818   3.819   0.161   6.973  1.3294 -0.4663 -0.3045
  562MOL0     H75819   3.925   0.201   6.685  0.8868 -5.6409 -0.4546
  562MOL0     H75820   3.914   0.331   6.811 -0.6528  0.3397 -3.1640
  562MOL0     H75821   4.142   0.332   6.983  1.5298  0.5055  1.0924
  562MOL0     H75822   4.447   0.311   6.887 -0.4589  0.5112  0.5130
  562MOL0     H75823   4.391   0.239   7.040 -0.2404  2.4256 -1.1419
  562MOL0     H75824   4.511   0.041   7.007  1.7757  0.9916  0.0561
  562MOL0     H75825   4.483   0.038   6.827  0.2769 -2.7572  0.1444
  562MOL0     H75826   4.657   0.203   6.806 -0.3404 -0.3629  0.2984
  562MOL0     H75827   4.698   0.039   6.878  1.4813  0.8957 -1.7089
  562MOL0     H75828   4.711   0.140   7.099 -3.0590 -2.2866 -1.8396
  562MOL0     H75829   4.675   0.303   7.043  0.3788 -0.7614  0.7621
  562MOL0     H75830   4.861  -0.012   6.991  1.9164  1.5034 -3.9193
  562MOL0     H75831   5.061  -0.151   7.098  0.2831 -0.0202 -2.6564
  562MOL0     H75832   5.344  -0.205   7.421 -0.7728 -0.7233 -0.6771
  562MOL0     H75833   5.537  -0.338   7.513  0.1139 -1.9628 -0.5099
  562MOL0     H75834   5.927  -0.294   7.267 -0.2434 -0.2776 -0.1522
  562MOL0     H75835   5.868  -0.181   7.392  0.1480  0.1686  1.4082
  562MOL0     H75836   5.997  -0.439   7.464 -2.6512  0.2593  0.6084
  562MOL0     H75837   6.089  -0.288   7.435 -1.7459  3.4358  2.7208
  562MOL0     H75838   6.065  -0.294   7.657 -0.9329 -1.2524  1.5849
  562MOL0     H75839   5.951  -0.176   7.612 -0.6018  0.2876 -1.1669
  562MOL0     H75840   5.831  -0.448   7.673 -3.0658  0.7986 -2.3287
  562MOL0     H75841   5.753  -0.306   7.634  0.8759  0.3461 -0.9272
  562MOL0     H75842   5.843  -0.207   7.867  2.3450  0.6058 -1.1928
  562MOL0     H75843   5.934  -0.356   7.892  0.6509 -0.5449  0.0273
  562MOL0     H75844   5.625  -0.335   7.870  0.5705 -0.6728 -1.0496
  562MOL0     H75845   5.728  -0.483   7.902  1.4119 -0.5839 -0.1025
  562MOL0     H75846   5.721  -0.241   8.083 -2.5941 -0.0700  0.9221
  562MOL0     H75847   5.842  -0.376   8.086 -0.8873 -2.3032  3.7488
  562MOL0     H75848   5.676  -0.521   8.167  1.6088  0.1235  1.8441
  562MOL0     H75849   5.671  -0.369   8.262 -4.1446  0.5476  0.0879
  562MOL0     H75850   5.733  -0.308   7.130  0.4644 -1.6155  1.7991
  562MOL0     H75851   5.528  -0.207   7.036  2.5409  1.5197  0.0443
  562MOL0     H75852   5.231   0.234   7.207 -0.0189 -1.7755  3.3708
  562MOL0     H75853   5.030   0.349   7.103  0.6749 -1.1945 -1.0916
  562MOL0     H75854   2.939   0.483   7.041  0.4987  0.3047  0.9993
  562MOL0     H75855   2.860   0.721   7.037 -0.1024  0.8104 -1.8305
  562MOL0     H75856   3.117   1.170   6.948 -0.7626  0.0464  0.5225
  562MOL0     H75857   3.105   1.409   6.900  1.3173 -1.6512 -2.0785
  562MOL0     H75858   3.070   1.634   6.824  0.7340  0.8885  0.6650
  562MOL0     H75859   3.053   1.603   7.001 -0.4529 -0.9656 -0.3047
  562MOL0     H75860   2.886   1.793   6.996  0.4485 -0.8248 -0.1426
  562MOL0     H75861   2.907   1.806   6.827 -2.5895  0.1070  0.7539
  562MOL0     H75862   3.026   1.967   6.949 -2.3835 -0.8622 -1.6500
  562MOL0     H75863   3.147   1.863   6.881 -1.9719 -1.6749 -1.5659
  562MOL0     H75864   3.195   1.742   7.075  1.6074  0.7094  0.1860
  562MOL0     H75865   3.227   1.902   7.107  0.9269 -0.5797 -2.4448
  562MOL0     H75866   2.976   1.890   7.419 -0.7877  1.4033 -1.0360
  562MOL0     H75867   2.678   1.406   6.863 -0.9438 -1.4732  2.9227
  562MOL0     H75868   2.635   1.080   6.801  1.2487  1.0321 -1.8101
  562MOL0     H75869   2.631   1.068   6.974 -0.7374  1.2212  0.1924
  562MOL0     H75870   2.554   1.203   6.884 -0.2748  0.2933 -0.8349
  563MOL0     O75871   8.162  10.246   1.313  0.3166 -0.7053 -0.0249
  563MOL0     C75872   8.085  10.303   1.242 -0.6055  0.9286  0.2158
  563MOL0     O75873   8.115  10.366   1.127  0.1158 -0.0485  0.3855
  563MOL0     C75874   8.248  10.380   1.096 -0.6329 -0.8036 -0.0507
  563MOL0     C75875   8.345  10.429   1.190  0.1537 -0.3357 -0.0262
  563MOL0     C75876   8.479  10.442   1.163 -0.0191  0.2696 -0.6476
  563MOL0     C75877   8.517  10.389   1.028  0.5349  0.2193 -0.3950
  563MOL0     O75878   8.647  10.363   1.003 -0.6896 -0.4068  0.5386
  563MOL0     C75879   8.727  10.484   1.011 -0.2908  0.5675 -0.0811
  563MOL0     C75880   8.870  10.433   1.019 -0.2990  0.8025 -0.0457
  563MOL0     C75881   8.976  10.542   1.052 -0.2644 -0.0612  1.1415
  563MOL0     C75882   9.120  10.487   1.078 -0.4558 -0.1270 -0.0253
  563MOL0     C75883   9.234  10.593   1.088  0.6317 -0.6462  0.0639
  563MOL0     C75884   9.371  10.530   1.114 -0.1897  0.3552  0.1118
  563MOL0     C75885   9.374  10.463   1.248  0.1332  0.4198 -0.2262
  563MOL0     C75886   9.521  10.461   1.291 -1.1307 -0.1944  0.3423
  563MOL0     N75887   9.568  10.588   1.340  0.2454 -0.7990  0.3569
  563MOL0     C75888   9.696  10.623   1.380  0.9606 -0.1940 -0.7471
  563MOL0     C75889   9.698  10.760   1.396 -0.0406  0.5609 -0.6765
  563MOL0     C75890   9.822  10.843   1.405  0.0916  0.2189 -0.7103
  563MOL0     C75891   9.888  10.812   1.543  0.3050 -0.4621  0.2366
  563MOL0     C75892   9.953  10.934   1.611  1.0672 -0.6838  0.5332
  563MOL0     C75893  10.015  10.892   1.744  0.3932 -0.1122  0.0398
  563MOL0     O75894  10.091  10.995   1.814  0.1697  0.3813 -0.0176
  563MOL0     C75895  10.226  11.005   1.770  0.4417  0.2929  0.0923
  563MOL0     C75896  10.296  11.115   1.825 -0.2696  0.1930 -0.0206
  563MOL0     C75897  10.422  11.151   1.786 -0.0762  0.0041  0.9305
  563MOL0     C75898  10.489  11.079   1.683  0.3476 -0.3875  1.0748
  563MOL0     C75899  10.627  11.109   1.628  0.1013 -0.2454 -0.1140
  563MOL0     O75900  10.717  11.174   1.714  0.5525  0.1916  0.5639
  563MOL0     C75901  10.853  11.201   1.681  1.0021 -0.1633  0.8102
  563MOL0     C75902  10.891  11.244   1.550 -0.1572  1.0305  0.0823
  563MOL0     C75903  11.029  11.259   1.525  0.4015 -0.1506  0.0143
  563MOL0     C75904  11.121  11.233   1.630  0.3668 -0.5299  0.1470
  563MOL0     O75905  11.248  11.284   1.595 -0.0433 -0.1269 -0.4217
  563MOL0     C75906  11.363  11.242   1.674 -0.3802  0.3746 -0.4492
  563MOL0     C75907  11.480  11.328   1.642 -0.3254 -0.3900 -0.8292
  563MOL0     C75908  11.450  11.475   1.650  0.7730 -0.0709  0.2921
  563MOL0     C75909  11.579  11.557   1.623 -0.0239 -0.5332 -0.5935
  563MOL0     C75910  11.531  11.704   1.649  0.4100 -0.0095  1.2757
  563MOL0     C75911  11.629  11.807   1.592 -0.4591  0.3300  0.2943
  563MOL0     C75912  11.766  11.781   1.654 -0.7219  0.5349  0.4306
  563MOL0     C75913  11.869  11.888   1.627  1.3197  0.3269  0.3357
  563MOL0    Cl75914  11.820  12.045   1.703 -0.0334  0.4231 -0.3956
  563MOL0     C75915  11.077  11.195   1.753 -0.0900 -0.4621  1.1487
  563MOL0     C75916  10.944  11.190   1.785 -0.2469  0.9203  0.1969
  563MOL0     O75917  10.644  11.078   1.513  0.0462 -0.0983  0.3810
  563MOL0     C75918  10.420  10.976   1.620 -0.5115  1.4903 -0.3423
  563MOL0     C75919  10.297  10.932   1.671  0.0416  0.0457  0.0027
  563MOL0     N75920   9.575  10.809   1.362 -1.3779  0.1691 -0.3465
  563MOL0     N75921   9.502  10.706   1.332  0.0556  0.8231 -0.1373
  563MOL0     C75922   8.423  10.341   0.933 -0.9578  0.0324  0.1138
  563MOL0     C75923   8.287  10.350   0.965 -1.0415  0.4747 -0.2628
  563MOL0     C75924   7.951  10.310   1.297 -0.1577 -0.1522  0.9196
  563MOL0     C75925   7.902  10.435   1.315  0.9402 -0.1932 -0.2405
  563MOL0     C75926   7.765  10.450   1.361 -0.6898  0.0193  0.7844
  563MOL0     C75927   7.690  10.339   1.381  0.5870  1.0937 -0.3741
  563MOL0     O75928   7.558  10.338   1.399  0.0081  0.3249  0.6846
  563MOL0     C75929   7.485  10.458   1.375 -0.2809  0.8156  0.1390
  563MOL0     C75930   7.339  10.421   1.339 -0.1531  0.0663  0.6298
  563MOL0     C75931   7.327  10.355   1.202 -0.7474  0.1783 -0.2348
  563MOL0     C75932   7.183  10.344   1.159  0.3762  0.5932  0.2895
  563MOL0     C75933   7.179  10.335   1.011 -0.8101  0.0636 -0.1242
  563MOL0     C75934   7.182  10.335   0.888 -0.4972  0.1419 -0.4079
  563MOL0     C75935   7.747  10.214   1.383 -0.2779  0.3088  0.3348
  563MOL0     C75936   7.880  10.198   1.342 -0.3245  0.5159  0.0958
  563MOL0     C75937   7.923  10.059   1.345  0.5045 -0.3073 -0.6169
  563MOL0     H75938   8.308  10.450   1.289 -2.7886  2.4970 -1.5531
  563MOL0     H75939   8.552  10.477   1.235 -1.2093 -0.8663  1.2093
  563MOL0     H75940   8.709  10.545   0.922 -2.1259  0.4360  0.1675
  563MOL0     H75941   8.702  10.558   1.088  0.1187  0.1054  0.5131
  563MOL0     H75942   8.898  10.391   0.922 -2.5735 -0.6532 -0.1243
  563MOL0     H75943   8.874  10.350   1.090  3.5394  1.3596  0.6604
  563MOL0     H75944   8.947  10.588   1.147  0.1405 -0.8627  1.6549
  563MOL0     H75945   8.980  10.617   0.972 -4.3347  1.3719  2.0008
  563MOL0     H75946   9.123  10.429   1.170 -1.6818  2.8600  2.0538
  563MOL0     H75947   9.153  10.420   0.998  1.5806 -0.9526  1.4074
  563MOL0     H75948   9.232  10.644   0.991  0.6418 -2.4915 -0.9475
  563MOL0     H75949   9.219  10.668   1.166 -0.7932 -0.7410 -0.0851
  563MOL0     H75950   9.404  10.464   1.033 -1.3764  0.5851 -0.5851
  563MOL0     H75951   9.438  10.616   1.104 -1.1364  0.9233 -1.8231
  563MOL0     H75952   9.336  10.360   1.250  2.9530 -0.7291  0.0416
  563MOL0     H75953   9.314  10.521   1.318  0.6239  0.2650  0.3380
  563MOL0     H75954   9.532  10.401   1.382  1.3482  0.1086  0.3124
  563MOL0     H75955   9.589  10.420   1.217  0.1461 -0.1632  1.4543
  563MOL0     H75956   9.784  10.559   1.382  1.5765  0.6545  1.1487
  563MOL0     H75957   9.898  10.817   1.330  0.9362 -0.0329  0.2100
  563MOL0     H75958   9.796  10.948   1.389  1.5036  1.2810  2.8828
  563MOL0     H75959   9.813  10.770   1.610 -1.2632 -0.1959 -1.2661
  563MOL0     H75960   9.968  10.739   1.528  1.3932  1.1433 -2.3575
  563MOL0     H75961   9.878  11.012   1.629 -0.7482 -1.5496 -2.4763
  563MOL0     H75962  10.041  10.972   1.558  2.7533 -3.2794  1.2807
  563MOL0     H75963  10.078  10.804   1.730 -0.2750 -1.0776  2.5104
  563MOL0     H75964   9.928  10.859   1.802 -0.3044  2.3186  0.4583
  563MOL0     H75965  10.236  11.171   1.896 -0.6504 -0.2531  0.0123
  563MOL0     H75966  10.462  11.237   1.839  1.1175 -2.6089  4.6415
  563MOL0     H75967  10.825  11.261   1.466  0.2299  1.2810 -0.1703
  563MOL0     H75968  11.071  11.296   1.432 -0.7850 -2.4710 -1.5573
  563MOL0     H75969  11.336  11.248   1.779 -2.8275  0.8809 -1.0426
  563MOL0     H75970  11.384  11.137   1.651 -2.7356 -1.0052  2.9046
  563MOL0     H75971  11.559  11.306   1.714 -0.4628 -5.5985 -1.9115
  563MOL0     H75972  11.517  11.309   1.540 -0.8725  0.8986 -1.2956
  563MOL0     H75973  11.367  11.493   1.581  1.9082  0.5765 -0.9689
  563MOL0     H75974  11.410  11.505   1.747 -2.2271  2.8292 -1.6343
  563MOL0     H75975  11.614  11.547   1.520  2.7945  1.2707  0.0836
  563MOL0     H75976  11.660  11.518   1.686  0.7821  1.6833 -0.1503
  563MOL0     H75977  11.528  11.721   1.757  2.1280 -0.3026  1.4036
  563MOL0     H75978  11.432  11.713   1.603 -0.5224  2.7483  3.5368
  563MOL0     H75979  11.635  11.789   1.484  1.5134  0.8056  0.2816
  563MOL0     H75980  11.602  11.909   1.620 -3.3372 -0.2334 -0.1507
  563MOL0     H75981  11.813  11.685   1.634  2.0927  1.9950 -0.4889
  563MOL0     H75982  11.753  11.781   1.763  2.6994  3.3389  1.0226
  563MOL0     H75983  11.960  11.855   1.679  0.4970 -0.2919  1.4279
  563MOL0     H75984  11.880  11.903   1.519 -2.7870  1.0574 -0.1396
  563MOL0     H75985  11.146  11.183   1.836  1.2925  2.4445  0.5268
  563MOL0     H75986  10.913  11.177   1.888 -0.6930  1.8812  0.1918
  563MOL0     H75987  10.450  10.923   1.530 -2.6364 -0.1348 -0.1715
  563MOL0     H75988  10.243  10.857   1.615 -0.6077  0.8530 -0.4787
  563MOL0     H75989   8.452  10.291   0.841 -0.0846 -2.4697  1.6320
  563MOL0     H75990   8.212  10.313   0.896 -0.3763 -2.6252  0.5148
  563MOL0     H75991   7.959  10.524   1.293 -1.6233  0.8576 -3.3816
  563MOL0     H75992   7.726  10.551   1.371 -2.6314 -0.2432 -2.5077
  563MOL0     H75993   7.529  10.510   1.289 -0.5474 -0.9306 -1.0918
  563MOL0     H75994   7.492  10.529   1.458 -0.3189 -1.8305  2.5282
  563MOL0     H75995   7.289  10.519   1.342  0.1803  0.2503  0.2696
  563MOL0     H75996   7.313  10.355   1.422  1.4545  0.0306  1.1462
  563MOL0     H75997   7.380  10.260   1.190  0.6913  0.6067  2.0682
  563MOL0     H75998   7.380  10.422   1.134  0.6335  0.4830  1.1181
  563MOL0     H75999   7.133  10.256   1.199  0.5468 -0.4790 -1.7054
  563MOL0     H76000   7.114  10.424   1.187 -1.8843 -0.8711 -0.7641
  563MOL0     H76001   7.178  10.330   0.781 -0.7690 -1.3001 -0.3539
  563MOL0     H76002   7.677  10.134   1.404 -4.3600  3.5032  0.3631
  563MOL0     H76003   7.961  10.043   1.447 -0.4002  0.1493 -0.2047
  563MOL0     H76004   7.843   9.989   1.322 -1.1505  1.6653 -1.1344
  563MOL0     H76005   8.011  10.044   1.282  0.3068 -2.2140 -0.5111
  564MOL0     O76006   1.445   5.373   2.303  0.2156  0.8081  0.0652
  564MOL0     C76007   1.355   5.458   2.311 -0.5478  0.3437 -0.3359
  564MOL0     O76008   1.356   5.576   2.243  0.8145 -0.2704  0.3411
  564MOL0     C76009   1.468   5.617   2.180  0.3820 -0.2466  0.3923
  564MOL0     C76010   1.484   5.752   2.200 -0.3253  0.7386 -0.8216
  564MOL0     C76011   1.603   5.813   2.163  0.3305  0.0509 -0.0675
  564MOL0     C76012   1.701   5.737   2.098  0.5591 -0.6871 -0.2683
  564MOL0     O76013   1.825   5.793   2.069 -0.0143 -0.0838 -0.2645
  564MOL0     C76014   1.913   5.727   1.977  0.7539 -0.5566  0.0020
  564MOL0     C76015   2.035   5.823   1.973  0.4794 -0.1946  0.6770
  564MOL0     C76016   2.135   5.800   1.854  0.2509 -0.0970 -1.1713
  564MOL0     C76017   2.258   5.891   1.873 -0.6496 -1.0060  0.6055
  564MOL0     C76018   2.373   5.859   1.769 -0.7034 -0.2230 -0.5831
  564MOL0     C76019   2.490   5.965   1.762 -0.2538 -0.2899 -0.2946
  564MOL0     C76020   2.600   5.948   1.661 -1.4461  0.9699  0.1613
  564MOL0     C76021   2.673   6.074   1.618 -0.0758 -0.5489 -0.2856
  564MOL0     N76022   2.796   6.055   1.543  0.7366  0.4376 -0.1963
  564MOL0     C76023   2.922   6.026   1.587 -0.1626  0.8786  0.1284
  564MOL0     C76024   3.009   6.085   1.498  0.5282  0.7813 -1.2547
  564MOL0     C76025   3.153   6.061   1.527 -0.6144 -0.3561  1.2641
  564MOL0     C76026   3.211   6.157   1.629 -0.5815  0.2601  0.5726
  564MOL0     C76027   3.366   6.138   1.643 -0.0707 -0.3324 -0.1213
  564MOL0     C76028   3.459   6.202   1.546 -0.4165  0.1441 -0.5061
  564MOL0     O76029   3.444   6.164   1.416  0.2426  0.8590  0.6733
  564MOL0     C76030   3.562   6.136   1.350  0.9624  0.0958 -0.3886
  564MOL0     C76031   3.666   6.054   1.402  0.5268  0.1795  0.0595
  564MOL0     C76032   3.776   6.013   1.339  1.1157  0.4011  0.5160
  564MOL0     C76033   3.784   6.043   1.205 -0.2203  0.2180  0.3795
  564MOL0     C76034   3.903   5.995   1.122  0.5615  0.5148 -0.2547
  564MOL0     O76035   3.910   6.041   0.994  0.5774 -0.0650 -0.2149
  564MOL0     C76036   4.020   6.026   0.913  0.6573  0.1151 -0.3273
  564MOL0     C76037   4.113   5.924   0.911 -0.1551  0.2494  0.0387
  564MOL0     C76038   4.225   5.919   0.832  0.5498 -1.1285  1.1797
  564MOL0     C76039   4.244   6.025   0.747  0.0566 -1.1063 -0.8036
  564MOL0     O76040   4.356   6.012   0.669 -0.3012  0.5292  0.5841
  564MOL0     C76041   4.463   6.096   0.710  0.7547 -0.3924 -0.0051
  564MOL0     C76042   4.534   6.144   0.585  0.1546  0.8093  0.1043
  564MOL0     C76043   4.689   6.149   0.611  0.8343  0.2667  0.0156
  564MOL0     C76044   4.725   6.241   0.729  0.2100 -0.1818  1.0410
  564MOL0     C76045   4.878   6.258   0.750  0.3464  0.4571  0.0467
  564MOL0     C76046   4.937   6.340   0.640 -1.1653  0.7044 -0.2004
  564MOL0     C76047   5.089   6.370   0.671 -0.3944  0.6416  0.4732
  564MOL0     C76048   5.145   6.468   0.574  0.4884  0.8843  0.3662
  564MOL0    Cl76049   5.307   6.526   0.648  0.3861  0.0433  0.4405
  564MOL0     C76050   4.154   6.129   0.735  0.0715 -0.1473  0.0888
  564MOL0     C76051   4.047   6.134   0.826 -0.2858 -0.1052  0.0297
  564MOL0     O76052   3.995   5.934   1.178  0.4662  0.0150  0.5317
  564MOL0     C76053   3.683   6.112   1.141  0.1549 -0.3030  1.1204
  564MOL0     C76054   3.576   6.156   1.208 -0.2799  0.0890 -0.0729
  564MOL0     N76055   2.932   6.145   1.399 -0.0254 -0.7157 -0.2476
  564MOL0     N76056   2.807   6.124   1.431 -0.4831  0.1669 -0.0391
  564MOL0     C76057   1.680   5.608   2.060  0.6015  0.1525 -0.1339
  564MOL0     C76058   1.559   5.546   2.105 -0.8486  0.1011 -0.7196
  564MOL0     C76059   1.244   5.429   2.411 -0.6047  1.0902  0.7727
  564MOL0     C76060   1.178   5.533   2.475  0.1313 -0.6911  0.3306
  564MOL0     C76061   1.077   5.515   2.571 -0.7084 -0.4613  0.9087
  564MOL0     C76062   1.036   5.383   2.603 -0.3283  0.7200 -0.0778
  564MOL0     O76063   0.937   5.357   2.691 -0.5048 -0.2849  0.7848
  564MOL0     C76064   0.959   5.254   2.787 -0.2536 -0.2644 -0.4543
  564MOL0     C76065   0.835   5.232   2.876 -0.5137  0.0003 -0.2865
  564MOL0     C76066   0.762   5.354   2.919 -0.2289  0.8233  0.5115
  564MOL0     C76067   0.850   5.456   2.994 -0.3653  0.4219 -0.3018
  564MOL0     C76068   0.899   5.393   3.118 -0.1730 -0.8761  0.7994
  564MOL0     C76069   0.959   5.339   3.214  0.3392 -0.9283 -0.1461
  564MOL0     C76070   1.095   5.281   2.527  0.5545  0.4083  0.1037
  564MOL0     C76071   1.199   5.296   2.430  0.7771 -0.7799 -0.2082
  564MOL0     C76072   1.253   5.177   2.353  1.1070 -0.8871 -0.2891
  564MOL0     H76073   1.403   5.806   2.248  0.1587  1.2494 -0.5714
  564MOL0     H76074   1.628   5.916   2.186  0.5160 -0.1102  0.4636
  564MOL0     H76075   1.946   5.630   2.015  0.5874  0.0443  1.7294
  564MOL0     H76076   1.860   5.713   1.881 -2.2724 -0.6695  1.5553
  564MOL0     H76077   2.082   5.820   2.072 -2.8109  0.7360  2.4120
  564MOL0     H76078   1.999   5.924   1.953  0.3679 -0.2648  0.5254
  564MOL0     H76079   2.086   5.814   1.757 -1.3667 -3.3309 -0.9540
  564MOL0     H76080   2.161   5.694   1.847 -0.9203 -0.4596 -0.3141
  564MOL0     H76081   2.226   5.996   1.865 -5.1049 -2.3369 -2.3084
  564MOL0     H76082   2.286   5.878   1.978 -0.4794  1.3996  0.9228
  564MOL0     H76083   2.413   5.762   1.799  1.4281  1.3284  2.0505
  564MOL0     H76084   2.334   5.849   1.668  1.4799  1.0053 -1.6225
  564MOL0     H76085   2.436   6.057   1.738  0.0129  0.0302  0.2958
  564MOL0     H76086   2.546   5.970   1.856 -0.7145 -1.2329  0.0316
  564MOL0     H76087   2.560   5.890   1.577  1.3093 -0.5088 -0.2465
  564MOL0     H76088   2.680   5.887   1.703 -1.3446 -1.7620 -3.5061
  564MOL0     H76089   2.601   6.134   1.561  1.4950  1.6460 -0.1234
  564MOL0     H76090   2.690   6.126   1.713  1.0802 -1.1899 -0.1278
  564MOL0     H76091   2.947   5.982   1.683  0.3467  0.3416 -0.2403
  564MOL0     H76092   3.179   5.963   1.568  3.5846  0.8147  1.9084
  564MOL0     H76093   3.212   6.080   1.437  1.8457 -0.5573  2.7437
  564MOL0     H76094   3.187   6.262   1.610  0.5674 -0.1274 -4.2504
  564MOL0     H76095   3.169   6.130   1.727  1.9849  0.8489  1.9458
  564MOL0     H76096   3.396   6.033   1.656  2.4042  0.1698 -1.3351
  564MOL0     H76097   3.374   6.189   1.739 -0.7956 -3.1710  1.5823
  564MOL0     H76098   3.561   6.205   1.584 -0.3049 -0.7706 -0.6953
  564MOL0     H76099   3.428   6.306   1.553 -1.9557 -0.2901 -0.3265
  564MOL0     H76100   3.651   6.029   1.507 -3.2492 -2.9212 -0.9636
  564MOL0     H76101   3.841   5.946   1.394  0.4050 -0.0513  0.8333
  564MOL0     H76102   4.107   5.839   0.978  1.2234 -0.4153 -0.6311
  564MOL0     H76103   4.302   5.843   0.842  2.9926  0.9606 -0.6352
  564MOL0     H76104   4.430   6.192   0.750 -3.0229 -1.5585  0.1157
  564MOL0     H76105   4.530   6.043   0.778  0.2435  1.7029  2.2733
  564MOL0     H76106   4.521   6.082   0.496  0.3174  0.8201  0.0733
  564MOL0     H76107   4.488   6.240   0.559  1.1229  1.1688 -0.3209
  564MOL0     H76108   4.715   6.049   0.645 -1.4040 -0.4793 -0.2700
  564MOL0     H76109   4.739   6.166   0.515 -1.7748  1.8411 -1.1846
  564MOL0     H76110   4.675   6.189   0.811 -0.1962  0.7690  1.4097
  564MOL0     H76111   4.677   6.336   0.708 -0.3658 -0.0134  2.9163
  564MOL0     H76112   4.926   6.159   0.746  0.6745  0.6277 -0.3455
  564MOL0     H76113   4.893   6.304   0.848  1.5664  1.3787 -0.5481
  564MOL0     H76114   4.948   6.281   0.548  2.8182  1.0913 -0.1579
  564MOL0     H76115   4.883   6.433   0.624 -0.0672  1.2055 -1.1473
  564MOL0     H76116   5.151   6.281   0.680  1.2512  1.8085  1.2526
  564MOL0     H76117   5.083   6.419   0.768  0.7735 -0.5621  1.1765
  564MOL0     H76118   5.161   6.419   0.477 -1.4347  1.4406 -0.2774
  564MOL0     H76119   5.088   6.559   0.554 -1.7978 -0.4788  0.3704
  564MOL0     H76120   4.177   6.205   0.661 -0.3361 -1.7048 -1.7363
  564MOL0     H76121   3.977   6.217   0.821 -1.5344 -1.1764 -1.3318
  564MOL0     H76122   3.691   6.139   1.036  2.5218  0.0537  1.3467
  564MOL0     H76123   3.499   6.212   1.155  0.6589  0.9373 -0.5778
  564MOL0     H76124   1.746   5.540   2.007 -1.6453 -2.4391  0.1514
  564MOL0     H76125   1.540   5.445   2.069  0.3389  0.2404 -1.7887
  564MOL0     H76126   1.206   5.632   2.441  0.5857 -0.8461  0.2542
  564MOL0     H76127   1.017   5.584   2.630 -0.0743 -0.6183  1.7543
  564MOL0     H76128   1.051   5.268   2.844 -0.7093  2.1907 -0.1932
  564MOL0     H76129   0.982   5.160   2.737 -0.3535 -0.2452 -0.5368
  564MOL0     H76130   0.871   5.166   2.956  3.6620  0.0580 -1.9264
  564MOL0     H76131   0.757   5.177   2.822 -1.5465  1.2633 -0.1481
  564MOL0     H76132   0.683   5.319   2.987  0.9047 -0.6179  1.1376
  564MOL0     H76133   0.711   5.401   2.835 -0.0110  1.1104  0.5405
  564MOL0     H76134   0.936   5.492   2.936  0.1298  0.3638  0.3802
  564MOL0     H76135   0.793   5.546   3.020 -1.2299 -1.1472  4.1633
  564MOL0     H76136   1.007   5.303   3.302 -1.0318  2.6515  2.2916
  564MOL0     H76137   1.049   5.183   2.539 -0.5547  0.7591 -1.1331
  564MOL0     H76138   1.349   5.136   2.386  1.2264 -0.0071  0.4893
  564MOL0     H76139   1.176   5.100   2.364 -0.3677  0.6502  0.6026
  564MOL0     H76140   1.271   5.205   2.249  1.9494 -1.1005 -0.2053
  565MOL0     O76141   3.393   8.731  10.259 -0.2172 -0.1015  0.4901
  565MOL0     C76142   3.334   8.623  10.244  0.2230 -0.1022  0.0871
  565MOL0     O76143   3.389   8.517  10.192 -0.0122 -0.0801  0.3684
  565MOL0     C76144   3.514   8.524  10.143 -0.7067  0.2614 -0.4995
  565MOL0     C76145   3.599   8.411  10.162 -0.6853  0.5141  0.0801
  565MOL0     C76146   3.733   8.421  10.117 -0.1112  0.2718  0.0231
  565MOL0     C76147   3.777   8.521  10.034  0.1660 -0.0719  0.4053
  565MOL0     O76148   3.905   8.510   9.988 -0.0907 -0.4578  0.0530
  565MOL0     C76149   3.953   8.617   9.907  0.0474  0.2453  0.6076
  565MOL0     C76150   4.100   8.576   9.897 -1.2038 -1.2809 -0.1085
  565MOL0     C76151   4.181   8.571  10.030  0.4137 -0.4599  0.0782
  565MOL0     C76152   4.308   8.485  10.005 -0.6380  0.2699  0.1993
  565MOL0     C76153   4.414   8.515  10.117 -0.6234  0.9117 -0.5556
  565MOL0     C76154   4.495   8.398  10.166 -0.7047 -0.1781  0.5580
  565MOL0     C76155   4.574   8.342  10.052 -0.9270  0.3513  0.2530
  565MOL0     C76156   4.687   8.252  10.110  0.5353  0.4915  0.0054
  565MOL0     N76157   4.776   8.216  10.004 -0.3146 -0.3597  0.1159
  565MOL0     C76158   4.884   8.292   9.954 -0.5288  0.3633  0.1422
  565MOL0     C76159   4.953   8.203   9.872  0.5199  0.6809  0.2364
  565MOL0     C76160   5.064   8.237   9.777  0.9649 -0.4119 -0.2798
  565MOL0     C76161   5.204   8.173   9.811  0.2388 -0.0098 -0.2893
  565MOL0     C76162   5.208   8.025   9.829 -0.3813 -0.0604 -0.3392
  565MOL0     C76163   5.349   7.963   9.789  1.2901  0.8553  0.3494
  565MOL0     O76164   5.428   7.987   9.913 -0.2079  1.0383  0.7828
  565MOL0     C76165   5.539   7.901   9.927  0.1470  0.5274  0.8435
  565MOL0     C76166   5.604   7.833   9.824  0.0922 -0.3258 -0.3396
  565MOL0     C76167   5.714   7.753   9.861  0.4125 -0.2899 -0.1411
  565MOL0     C76168   5.778   7.751   9.982 -0.6954 -0.1139  0.2362
  565MOL0     C76169   5.897   7.684  10.017  0.1148  0.1086  0.0472
  565MOL0     O76170   5.942   7.680  10.140 -0.1154 -0.6548  0.0544
  565MOL0     C76171   6.050   7.598  10.176 -0.2786 -0.5109 -0.8178
  565MOL0     C76172   6.159   7.662  10.234 -0.3195  0.6957  0.3876
  565MOL0     C76173   6.277   7.600  10.276 -0.3284 -0.4745  0.1267
  565MOL0     C76174   6.291   7.462  10.241 -1.7608  0.5408 -0.9557
  565MOL0     O76175   6.411   7.402  10.267 -0.1585 -0.0688  0.3305
  565MOL0     C76176   6.433   7.262  10.277  0.6229  0.4332  0.5426
  565MOL0     C76177   6.551   7.215  10.201  0.8695  0.3955  0.5004
  565MOL0     C76178   6.592   7.070  10.230  0.1628 -0.5304 -0.2837
  565MOL0     C76179   6.738   7.046  10.178 -0.1055  0.3194  0.6698
  565MOL0     C76180   6.843   7.004  10.289  0.5223  0.3527  0.3521
  565MOL0     C76181   6.874   7.115  10.390 -0.3932 -0.7338  0.3257
  565MOL0     C76182   6.980   7.061  10.484 -0.0022  0.1211  0.1673
  565MOL0     C76183   7.027   7.167  10.588  0.3379 -0.9946  1.2597
  565MOL0    Cl76184   6.884   7.194  10.698  0.4380  0.1808 -0.0020
  565MOL0     C76185   6.185   7.393  10.176 -0.5992  0.4083 -0.8577
  565MOL0     C76186   6.061   7.464  10.149 -0.0498 -0.5176 -0.0225
  565MOL0     O76187   5.942   7.620   9.927 -0.2773  0.1284  0.1771
  565MOL0     C76188   5.710   7.831  10.082 -0.0547  0.2206  0.1473
  565MOL0     C76189   5.597   7.907  10.053  0.6478  0.4174  0.1779
  565MOL0     N76190   4.891   8.079   9.873  0.5300  0.1453 -0.0907
  565MOL0     N76191   4.783   8.095   9.952 -0.3308  0.5879 -0.2348
  565MOL0     C76192   3.691   8.630  10.007  0.3089  0.6197  0.1439
  565MOL0     C76193   3.563   8.627  10.064  0.5532 -1.2948 -0.2224
  565MOL0     C76194   3.200   8.597  10.302  1.0839  0.1405  0.0147
  565MOL0     C76195   3.152   8.465  10.308 -1.1541  0.2436 -0.9826
  565MOL0     C76196   3.023   8.433  10.333 -0.0900 -0.0563  0.1281
  565MOL0     C76197   2.930   8.527  10.369  0.2286  0.0683  0.0699
  565MOL0     O76198   2.794   8.501  10.381  0.1946  0.7719 -0.4615
  565MOL0     C76199   2.744   8.367  10.337  0.1115  0.5186 -0.8615
  565MOL0     C76200   2.592   8.370  10.348 -0.3186 -0.2119  0.1254
  565MOL0     C76201   2.531   8.237  10.299 -0.3840 -0.2921  0.5407
  565MOL0     C76202   2.375   8.233  10.317  0.0185  0.9889 -1.3925
  565MOL0     C76203   2.306   8.343  10.247 -0.5466 -0.0381 -0.3837
  565MOL0     C76204   2.263   8.439  10.193 -0.3062 -0.4210  0.9919
  565MOL0     C76205   2.977   8.656  10.370  0.1139 -0.3997 -1.3524
  565MOL0     C76206   3.112   8.695  10.339  0.0387  0.1980  0.0680
  565MOL0     C76207   3.145   8.841  10.346  0.2064  1.0409  0.3911
  565MOL0     H76208   3.566   8.319  10.209  0.6926  0.4440  0.9496
  565MOL0     H76209   3.801   8.343  10.150  1.2504  1.6108  0.5113
  565MOL0     H76210   3.897   8.615   9.813  0.7477 -0.3250  0.2030
  565MOL0     H76211   3.951   8.718   9.950 -3.1715  0.0709  1.1647
  565MOL0     H76212   4.145   8.655   9.837 -2.2435  1.4090  2.3634
  565MOL0     H76213   4.104   8.488   9.832  1.3517 -0.2771 -1.4299
  565MOL0     H76214   4.126   8.520  10.110 -1.9995  0.5021 -0.8526
  565MOL0     H76215   4.199   8.672  10.066 -0.8149  1.0178 -3.0747
  565MOL0     H76216   4.278   8.381  10.018 -3.3427  1.0239  0.5886
  565MOL0     H76217   4.352   8.511   9.908 -0.5727 -2.0595 -0.4358
  565MOL0     H76218   4.485   8.567  10.051  0.0302 -1.7965 -2.1670
  565MOL0     H76219   4.371   8.578  10.196 -1.3618 -1.2760  0.8706
  565MOL0     H76220   4.562   8.436  10.243  1.9033 -1.9241 -0.7014
  565MOL0     H76221   4.438   8.314  10.207  0.7097 -0.9473  0.9777
  565MOL0     H76222   4.620   8.425   9.997 -1.3812  0.4749  0.0616
  565MOL0     H76223   4.509   8.284   9.987 -1.0395  0.3666  0.3516
  565MOL0     H76224   4.741   8.307  10.187 -1.7133  2.2568  0.4240
  565MOL0     H76225   4.642   8.166  10.162  1.9480 -0.1625  0.1884
  565MOL0     H76226   4.898   8.398   9.973  0.6064  0.4689 -1.1232
  565MOL0     H76227   5.029   8.197   9.681 -0.5626 -1.7343  0.7897
  565MOL0     H76228   5.072   8.346   9.767 -1.0257 -0.1822  0.3185
  565MOL0     H76229   5.276   8.191   9.732  2.7989  2.1555  2.3033
  565MOL0     H76230   5.252   8.213   9.901  0.2007 -0.6704  0.0315
  565MOL0     H76231   5.146   7.984   9.748 -0.1792  1.6093 -1.3848
  565MOL0     H76232   5.174   8.006   9.931 -3.1377  0.7798 -1.0128
  565MOL0     H76233   5.400   7.999   9.699 -0.1094 -3.5066 -2.4888
  565MOL0     H76234   5.337   7.855   9.777  0.0708  0.8109  1.6593
  565MOL0     H76235   5.550   7.823   9.730 -0.6761 -2.3315  0.2554
  565MOL0     H76236   5.758   7.693   9.781 -0.9256  1.1794 -2.0742
  565MOL0     H76237   6.148   7.768  10.255 -1.4155  0.7394 -0.2995
  565MOL0     H76238   6.361   7.652  10.322  0.6605 -1.0729 -0.9355
  565MOL0     H76239   6.450   7.241  10.383 -0.4757 -0.0481  0.6330
  565MOL0     H76240   6.344   7.201  10.260 -1.0953  1.8141  3.5370
  565MOL0     H76241   6.526   7.233  10.096 -1.3976  1.0476  1.1148
  565MOL0     H76242   6.637   7.278  10.224  0.6786  0.9243 -0.1917
  565MOL0     H76243   6.589   7.045  10.337 -0.6167 -1.2782 -0.4713
  565MOL0     H76244   6.514   7.016  10.176 -2.1313  2.5824 -0.3278
  565MOL0     H76245   6.775   7.133  10.124  0.1649 -0.3259 -0.2194
  565MOL0     H76246   6.750   6.968  10.102  0.9454  2.2440 -1.2544
  565MOL0     H76247   6.932   6.965  10.238 -0.5605 -1.2105 -0.4495
  565MOL0     H76248   6.814   6.911  10.339  2.6709 -0.4914  0.1153
  565MOL0     H76249   6.907   7.208  10.344 -1.6438  0.8128  2.3701
  565MOL0     H76250   6.780   7.148  10.435 -0.6024 -0.3359 -0.3818
  565MOL0     H76251   7.059   7.023  10.418 -0.7218 -2.2296  0.5612
  565MOL0     H76252   6.944   6.975  10.540  2.1049  0.3077  1.9429
  565MOL0     H76253   7.114   7.144  10.649  1.1576  0.7511  0.8303
  565MOL0     H76254   7.059   7.261  10.541  1.6022 -1.7438  0.5570
  565MOL0     H76255   6.185   7.286  10.158 -1.5732 -0.2128  2.2274
  565MOL0     H76256   5.969   7.412  10.124 -1.0937  0.0178  2.4960
  565MOL0     H76257   5.744   7.841  10.184  2.0127 -1.0250 -0.3578
  565MOL0     H76258   5.538   7.958  10.129 -1.0059 -0.2586 -0.6000
  565MOL0     H76259   3.718   8.702   9.930 -0.8243  1.4117  0.4647
  565MOL0     H76260   3.503   8.715  10.045  1.5772 -0.6463 -0.5284
  565MOL0     H76261   3.206   8.372  10.295 -1.3043 -0.0966  0.6356
  565MOL0     H76262   2.999   8.327  10.339 -1.9954  0.4531  2.6030
  565MOL0     H76263   2.799   8.291  10.393 -0.3335  2.2654  2.1549
  565MOL0     H76264   2.764   8.356  10.230 -1.3562  0.3428 -1.1352
  565MOL0     H76265   2.541   8.448  10.291 -1.5512 -0.6619  0.5838
  565MOL0     H76266   2.562   8.397  10.450  2.0183 -0.7050  1.0017
  565MOL0     H76267   2.578   8.149  10.344  1.2305 -0.3974 -1.2060
  565MOL0     H76268   2.554   8.251  10.192 -0.4817 -1.2434  0.3894
  565MOL0     H76269   2.337   8.133  10.293  0.4396 -0.0803  1.9737
  565MOL0     H76270   2.355   8.237  10.424  1.0871 -3.7403 -0.8129
  565MOL0     H76271   2.212   8.514  10.135  1.8751 -0.6847 -1.4556
  565MOL0     H76272   2.904   8.732  10.395 -2.5017 -1.8743 -3.8801
  565MOL0     H76273   3.210   8.854  10.433 -2.2124  2.9957  2.0296
  565MOL0     H76274   3.195   8.861  10.251  1.4332  3.5337  1.4628
  565MOL0     H76275   3.064   8.914  10.354  1.9344  2.9240  1.9496
  566MOL0     O76276   8.725   7.950   9.176  0.6975 -0.7426 -0.6305
  566MOL0     C76277   8.743   8.056   9.114  0.3703 -0.3092  0.5216
  566MOL0     O76278   8.868   8.114   9.101 -0.4973  0.3285  0.0785
  566MOL0     C76279   8.988   8.047   9.131  0.0653 -0.5420 -0.2411
  566MOL0     C76280   9.015   7.944   9.223 -0.6897 -0.2232  1.0131
  566MOL0     C76281   9.144   7.893   9.244  0.4914 -0.0460  0.3316
  566MOL0     C76282   9.255   7.940   9.184 -0.3753  0.4207 -0.1936
  566MOL0     O76283   9.378   7.888   9.207  0.3450 -0.3282 -0.3871
  566MOL0     C76284   9.403   7.798   9.308 -0.0534 -0.6181  0.4651
  566MOL0     C76285   9.548   7.746   9.304 -0.4591 -0.5629 -0.2122
  566MOL0     C76286   9.652   7.850   9.277  0.0781 -0.1375  0.3847
  566MOL0     C76287   9.795   7.787   9.296  0.7931  0.2476  1.0245
  566MOL0     C76288   9.911   7.866   9.238 -0.2240 -0.3252  0.2451
  566MOL0     C76289  10.044   7.790   9.268 -0.8501 -0.8397 -0.7449
  566MOL0     C76290  10.162   7.872   9.210  0.4570  0.8071  0.1470
  566MOL0     C76291  10.205   7.824   9.068  0.9977 -0.5401  0.2466
  566MOL0     N76292  10.348   7.821   9.064 -0.3843 -1.1492  0.1493
  566MOL0     C76293  10.434   7.736   9.127  1.4647 -1.0175 -0.1117
  566MOL0     C76294  10.555   7.782   9.078  0.2105 -0.3310  0.3472
  566MOL0     C76295  10.691   7.717   9.100  0.1369 -0.5497  0.1665
  566MOL0     C76296  10.765   7.685   8.960 -0.3665  0.3980 -0.5561
  566MOL0     C76297  10.679   7.583   8.882 -0.1651 -0.4512 -0.1059
  566MOL0     C76298  10.680   7.447   8.950 -0.3325  1.4199  0.7117
  566MOL0     O76299  10.611   7.362   8.865  0.9592  0.7507  0.2092
  566MOL0     C76300  10.474   7.355   8.884 -0.2428  1.0194  0.0227
  566MOL0     C76301  10.399   7.402   8.984  0.3290 -0.5467  0.4988
  566MOL0     C76302  10.261   7.374   8.984  0.0356  0.2881 -0.0003
  566MOL0     C76303  10.203   7.300   8.883  0.4779  0.2598  0.5433
  566MOL0     C76304  10.056   7.291   8.889 -0.0870  0.2333 -0.2358
  566MOL0     O76305   9.990   7.348   8.997 -0.0765  0.6306  0.0696
  566MOL0     C76306   9.865   7.310   9.015  0.1854 -0.1006  1.1817
  566MOL0     C76307   9.809   7.178   8.997 -0.4302 -0.1403 -0.0878
  566MOL0     C76308   9.670   7.154   9.022  0.1074 -0.0271  0.5729
  566MOL0     C76309   9.580   7.255   9.035 -0.0543  0.0733 -0.1363
  566MOL0     O76310   9.450   7.215   9.025 -0.0520 -0.6660  0.9787
  566MOL0     C76311   9.336   7.296   9.074 -0.3174  0.9640 -0.0069
  566MOL0     C76312   9.204   7.223   9.066 -0.5884 -0.0729 -0.0094
  566MOL0     C76313   9.170   7.116   9.174 -0.5716  0.2054 -0.5920
  566MOL0     C76314   9.154   7.175   9.320 -1.0105 -0.0241 -0.4913
  566MOL0     C76315   9.150   7.072   9.431  0.5425 -0.3357  0.2669
  566MOL0     C76316   9.292   6.992   9.454 -0.3824 -0.5065  0.3291
  566MOL0     C76317   9.286   6.878   9.551  0.2947 -0.1129 -0.1846
  566MOL0     C76318   9.415   6.796   9.570 -0.2907  0.5146  0.6450
  566MOL0    Cl76319   9.407   6.692   9.710  0.1137 -0.1508 -0.0063
  566MOL0     C76320   9.621   7.384   9.060 -0.0304  0.9764 -0.6162
  566MOL0     C76321   9.767   7.404   9.061 -1.2398  0.7216  0.4255
  566MOL0     O76322  10.000   7.232   8.790  0.4362  0.6461 -0.9773
  566MOL0     C76323  10.277   7.247   8.783  0.5122 -1.0862  0.3521
  566MOL0     C76324  10.418   7.271   8.787 -0.0397  0.4193 -0.3379
  566MOL0     N76325  10.546   7.887   8.991 -0.3771 -0.3304 -0.0927
  566MOL0     N76326  10.422   7.899   8.974 -0.9992  0.4537 -0.8451
  566MOL0     C76327   9.238   8.043   9.091  0.0219 -0.0584  0.1435
  566MOL0     C76328   9.105   8.097   9.063 -0.3973 -0.3137 -0.5313
  566MOL0     C76329   8.627   8.133   9.070  0.9782 -0.5923  0.2204
  566MOL0     C76330   8.645   8.260   9.003  0.5434  0.3148  0.0374
  566MOL0     C76331   8.544   8.350   8.994  1.0341 -0.0911 -1.2336
  566MOL0     C76332   8.410   8.325   9.056  0.5201 -0.0013  0.1123
  566MOL0     O76333   8.311   8.426   9.046 -0.1382  0.7646  1.2821
  566MOL0     C76334   8.173   8.410   9.094  0.2240 -0.0236 -0.7309
  566MOL0     C76335   8.108   8.551   9.069 -0.5142 -0.5333  0.2393
  566MOL0     C76336   7.973   8.547   9.092 -0.3174 -0.5922  0.6194
  566MOL0     C76337   7.899   8.679   9.029 -0.1882  0.4405  0.4818
  566MOL0     C76338   7.755   8.645   9.023  0.2917  0.6158  0.3109
  566MOL0     C76339   7.639   8.606   9.006 -0.4789  0.1606 -0.0691
  566MOL0     C76340   8.390   8.200   9.109  0.2078  0.2517  0.2987
  566MOL0     C76341   8.491   8.094   9.106  0.6534  0.0142 -0.2726
  566MOL0     C76342   8.449   7.949   9.151 -0.2627 -0.6215 -0.7457
  566MOL0     H76343   8.939   7.885   9.272 -2.2959 -0.9211 -2.1261
  566MOL0     H76344   9.155   7.810   9.313  1.9345  0.8486  1.2315
  566MOL0     H76345   9.394   7.854   9.402  2.0489  2.1214 -0.8178
  566MOL0     H76346   9.340   7.709   9.306 -0.1318 -0.6218 -3.4896
  566MOL0     H76347   9.546   7.672   9.223  4.2078  0.4134 -1.5209
  566MOL0     H76348   9.570   7.691   9.395 -0.9652 -1.4179 -0.5910
  566MOL0     H76349   9.636   7.928   9.352  2.0529  2.9546 -2.1297
  566MOL0     H76350   9.652   7.896   9.178  1.7969 -0.6169  0.1260
  566MOL0     H76351   9.808   7.751   9.399  2.8561  0.7739  0.9874
  566MOL0     H76352   9.790   7.690   9.247  1.5504  0.6253  0.1875
  566MOL0     H76353   9.904   7.887   9.131  1.2342  2.6509  0.6463
  566MOL0     H76354   9.905   7.966   9.283  2.0565 -0.0203 -0.0250
  566MOL0     H76355  10.050   7.784   9.377  2.2139 -2.6458 -0.9168
  566MOL0     H76356  10.026   7.687   9.238 -0.2601 -1.0909 -0.2449
  566MOL0     H76357  10.228   7.864   9.297  0.1444  1.4383  0.4459
  566MOL0     H76358  10.144   7.979   9.196  2.5835  1.1230 -0.5905
  566MOL0     H76359  10.153   7.730   9.048 -0.5334  0.0164  1.4646
  566MOL0     H76360  10.170   7.893   8.990  2.7070 -1.2404 -1.2259
  566MOL0     H76361  10.425   7.668   9.211  0.9002 -1.4487 -0.5124
  566MOL0     H76362  10.751   7.779   9.168  0.6594 -2.7117  1.7814
  566MOL0     H76363  10.673   7.629   9.163 -2.3220 -0.2205  0.0328
  566MOL0     H76364  10.771   7.781   8.908 -0.1506  0.1629 -0.9661
  566MOL0     H76365  10.867   7.649   8.973 -1.5603 -3.6450 -1.0091
  566MOL0     H76366  10.719   7.582   8.780  1.9786  4.0960  0.4345
  566MOL0     H76367  10.576   7.619   8.882 -0.0975 -0.2080  1.0954
  566MOL0     H76368  10.648   7.441   9.054 -0.1206 -1.3114  0.6951
  566MOL0     H76369  10.779   7.400   8.955 -1.9370 -2.2942  0.5890
  566MOL0     H76370  10.438   7.459   9.067 -3.2044 -0.2746  2.1175
  566MOL0     H76371  10.213   7.398   9.078  0.5972  1.0983  0.0862
  566MOL0     H76372   9.879   7.097   8.982  0.6287  1.0104 -1.8240
  566MOL0     H76373   9.637   7.050   9.015  1.5680 -0.5260  0.8049
  566MOL0     H76374   9.347   7.320   9.180 -0.8931  1.8621 -0.1477
  566MOL0     H76375   9.344   7.386   9.012 -1.7628  0.7573 -0.5125
  566MOL0     H76376   9.123   7.297   9.069  0.0559  0.6917 -0.8537
  566MOL0     H76377   9.195   7.170   8.970  1.4533 -0.6647  0.0777
  566MOL0     H76378   9.089   7.050   9.144  0.8060 -2.0341  0.3856
  566MOL0     H76379   9.262   7.057   9.187 -1.5152 -0.9444  1.1551
  566MOL0     H76380   9.066   7.239   9.332 -0.5549  0.5215 -0.0308
  566MOL0     H76381   9.238   7.236   9.353 -1.4904 -0.1881  1.1147
  566MOL0     H76382   9.064   7.008   9.409 -0.6528  1.6811 -1.3099
  566MOL0     H76383   9.131   7.127   9.524  0.7186  0.0838  0.0576
  566MOL0     H76384   9.323   6.955   9.356 -3.3043 -1.7335 -0.2422
  566MOL0     H76385   9.365   7.063   9.493 -1.7694  1.0027  0.2744
  566MOL0     H76386   9.214   6.804   9.515  1.6144 -0.4578 -2.3052
  566MOL0     H76387   9.245   6.920   9.644 -0.0305  1.1267 -0.8527
  566MOL0     H76388   9.441   6.736   9.483 -0.9717  2.0692 -0.6825
  566MOL0     H76389   9.497   6.868   9.582 -0.7365  1.2253 -0.4663
  566MOL0     H76390   9.551   7.466   9.071 -0.6160  0.3480  0.5154
  566MOL0     H76391   9.795   7.505   9.088  0.5178 -0.3527  3.0328
  566MOL0     H76392  10.229   7.183   8.708  1.3685 -1.6389  0.2644
  566MOL0     H76393  10.480   7.224   8.712 -0.3634 -0.7138  0.0965
  566MOL0     H76394   9.328   8.092   9.054  0.0175  0.5434  0.9140
  566MOL0     H76395   9.089   8.179   8.994 -0.2545 -0.3897 -0.6543
  566MOL0     H76396   8.745   8.286   8.969 -0.0584 -0.8271 -2.8689
  566MOL0     H76397   8.562   8.441   8.937  1.7491  0.2689 -0.4586
  566MOL0     H76398   8.174   8.391   9.202  2.8041 -0.5778 -0.7978
  566MOL0     H76399   8.109   8.341   9.037 -2.4457  0.4029  1.5391
  566MOL0     H76400   8.131   8.565   8.963 -1.6341 -1.9573 -0.2182
  566MOL0     H76401   8.154   8.633   9.127  2.7644 -1.0109 -1.4562
  566MOL0     H76402   7.957   8.533   9.200  1.6450 -2.9648  0.6915
  566MOL0     H76403   7.928   8.456   9.050 -1.1929  0.0100  0.2169
  566MOL0     H76404   7.916   8.768   9.091 -1.1935  0.5707  0.5892
  566MOL0     H76405   7.939   8.697   8.929  0.5796  0.0703  0.7175
  566MOL0     H76406   7.535   8.589   8.985 -0.6800 -1.1979  1.7678
  566MOL0     H76407   8.295   8.170   9.154  2.1434 -1.9608  3.3698
  566MOL0     H76408   8.511   7.875   9.099  0.0660 -1.9996  1.4861
  566MOL0     H76409   8.464   7.930   9.257 -0.9274  0.9220 -0.3544
  566MOL0     H76410   8.349   7.913   9.127  0.3404 -3.4123  0.5491
  567MOL0     O76411   8.889   2.265   4.705  0.1786  0.0693  0.3393
  567MOL0     C76412   8.819   2.312   4.795 -0.8151  0.3702  0.5524
  567MOL0     O76413   8.859   2.333   4.920  0.2186  0.2928  0.7536
  567MOL0     C76414   8.992   2.345   4.956 -0.5443 -1.0992 -0.1622
  567MOL0     C76415   9.082   2.415   4.884 -0.6168  0.3801 -0.7674
  567MOL0     C76416   9.213   2.422   4.930  0.1330  0.6612 -0.1952
  567MOL0     C76417   9.269   2.352   5.045 -0.1828 -0.4058  0.6601
  567MOL0     O76418   9.394   2.361   5.096  0.5808  0.4105  1.0701
  567MOL0     C76419   9.487   2.428   5.006  0.1874 -0.4961 -0.4782
  567MOL0     C76420   9.636   2.399   5.041 -0.1660  0.7904  0.2393
  567MOL0     C76421   9.720   2.513   4.996 -0.9957  0.3814  0.0614
  567MOL0     C76422   9.865   2.456   5.006 -0.4023 -0.9336 -0.7159
  567MOL0     C76423   9.977   2.560   4.998 -0.1192 -0.4111  0.1492
  567MOL0     C76424   9.979   2.673   5.103 -0.2436  0.2595  0.6405
  567MOL0     C76425   9.973   2.613   5.241  0.9573  0.1529 -0.3202
  567MOL0     C76426   9.981   2.726   5.331 -0.4797  0.1603 -1.2287
  567MOL0     N76427   9.969   2.682   5.470 -0.7834  0.2180  0.3331
  567MOL0     C76428  10.057   2.662   5.576  0.2597  0.2339 -0.2766
  567MOL0     C76429   9.986   2.648   5.684  0.3532  1.3462  0.1849
  567MOL0     C76430  10.039   2.627   5.816 -0.3969 -0.2172 -0.0683
  567MOL0     C76431  10.006   2.751   5.898 -0.0104 -0.1259 -0.0629
  567MOL0     C76432  10.048   2.721   6.045  0.4755 -0.0018  0.8429
  567MOL0     C76433  10.205   2.723   6.065  0.3085  0.3195  0.4110
  567MOL0     O76434  10.272   2.838   6.013 -0.3586 -0.1469 -0.5322
  567MOL0     C76435  10.396   2.864   6.052 -0.8965 -0.2054  0.3902
  567MOL0     C76436  10.472   2.788   6.143 -0.5456 -0.7588  0.0639
  567MOL0     C76437  10.601   2.834   6.182  0.1316 -0.1693 -0.2097
  567MOL0     C76438  10.655   2.952   6.122 -1.1974  0.0279  0.0461
  567MOL0     C76439  10.791   2.993   6.174 -0.1156 -0.1199  1.2548
  567MOL0     O76440  10.845   3.101   6.117 -0.4793 -0.0313  0.0486
  567MOL0     C76441  10.958   3.167   6.167 -0.1129 -0.5148  0.0910
  567MOL0     C76442  11.084   3.119   6.157  0.1977  0.2364 -0.2649
  567MOL0     C76443  11.187   3.197   6.219 -0.2087 -0.4418 -0.0318
  567MOL0     C76444  11.156   3.315   6.294  0.0881 -0.1601  0.0892
  567MOL0     O76445  11.259   3.382   6.357 -0.6427  0.1795  0.3680
  567MOL0     C76446  11.233   3.479   6.453  0.6438  0.1042 -0.9724
  567MOL0     C76447  11.356   3.550   6.503 -0.4543 -0.3085 -0.0972
  567MOL0     C76448  11.470   3.461   6.546 -0.0817 -0.6623 -0.1998
  567MOL0     C76449  11.596   3.537   6.576 -0.0656 -0.0507  0.0959
  567MOL0     C76450  11.715   3.440   6.593  0.6090  0.0126  0.2119
  567MOL0     C76451  11.852   3.511   6.595  0.0619  0.8435  0.1119
  567MOL0     C76452  11.972   3.419   6.615  0.2555 -0.1033 -0.6175
  567MOL0     C76453  12.094   3.497   6.616 -0.6728  0.2077  0.4993
  567MOL0    Cl76454  12.243   3.384   6.589  0.3988  0.0687 -0.0872
  567MOL0     C76455  11.026   3.362   6.284 -0.1593  0.5347  0.0564
  567MOL0     C76456  10.919   3.284   6.228 -0.4193  0.9221  0.4696
  567MOL0     O76457  10.838   2.935   6.275  0.3247 -0.3897 -0.2540
  567MOL0     C76458  10.580   3.026   6.035 -0.3598 -0.2064  0.7122
  567MOL0     C76459  10.446   2.986   5.997 -0.0741  0.2046  0.1476
  567MOL0     N76460   9.855   2.655   5.651 -0.8538 -0.6131 -0.1432
  567MOL0     N76461   9.845   2.676   5.524  0.1395  0.0403 -0.2969
  567MOL0     C76462   9.175   2.275   5.105  0.9456  0.8880  0.0629
  567MOL0     C76463   9.034   2.271   5.063  0.3395 -0.4313 -0.2323
  567MOL0     C76464   8.669   2.341   4.760  0.1521  0.1347  0.1066
  567MOL0     C76465   8.595   2.427   4.846 -0.5369  0.3905 -1.1857
  567MOL0     C76466   8.462   2.448   4.836  1.0801  1.3636 -0.5866
  567MOL0     C76467   8.395   2.387   4.742  0.4513 -0.3893  0.6524
  567MOL0     O76468   8.258   2.414   4.748 -0.1303 -0.1075  0.0073
  567MOL0     C76469   8.184   2.396   4.625 -1.0559  0.8954 -0.5599
  567MOL0     C76470   8.038   2.428   4.635  0.1520 -0.2986  0.5697
  567MOL0     C76471   7.973   2.441   4.498  0.7986 -0.3436  0.3847
  567MOL0     C76472   7.820   2.474   4.520 -0.2008  0.6298  1.0536
  567MOL0     C76473   7.770   2.532   4.390 -0.6053  0.5185 -0.6032
  567MOL0     C76474   7.744   2.568   4.279  0.3464  0.2240  0.7009
  567MOL0     C76475   8.458   2.306   4.648  0.1543  0.4541  0.3670
  567MOL0     C76476   8.594   2.287   4.651 -0.1814  1.3124  0.3732
  567MOL0     C76477   8.664   2.193   4.555 -0.1353  0.3576 -0.2706
  567MOL0     H76478   9.053   2.473   4.797 -1.0667  0.4698 -0.5575
  567MOL0     H76479   9.261   2.493   4.864  0.2821  3.8311  3.0522
  567MOL0     H76480   9.473   2.384   4.907 -1.7246 -3.5122  0.9868
  567MOL0     H76481   9.467   2.535   4.994 -0.8578 -0.6781 -0.5197
  567MOL0     H76482   9.667   2.325   4.967  0.2545  1.4815 -0.2907
  567MOL0     H76483   9.654   2.357   5.141  3.5038 -1.0162 -1.0022
  567MOL0     H76484   9.709   2.596   5.065  3.0219  0.8523  0.3755
  567MOL0     H76485   9.695   2.531   4.891 -0.2381  0.5258 -0.1043
  567MOL0     H76486   9.869   2.396   5.097 -0.1754 -0.0528 -0.1343
  567MOL0     H76487   9.893   2.379   4.933  3.9166  0.7195 -1.1110
  567MOL0     H76488  10.072   2.510   5.018  0.4288  1.3304  2.3171
  567MOL0     H76489   9.970   2.607   4.900 -1.0144  0.4787  0.6204
  567MOL0     H76490  10.078   2.718   5.093  0.2457 -0.9357 -0.1035
  567MOL0     H76491   9.894   2.738   5.081 -0.2765 -0.1312 -0.4539
  567MOL0     H76492  10.053   2.540   5.256  3.5333  2.7274 -0.8067
  567MOL0     H76493   9.876   2.564   5.259  0.5944  1.0044  0.0975
  567MOL0     H76494  10.078   2.771   5.311 -1.9529  2.7875 -3.0256
  567MOL0     H76495   9.899   2.797   5.319 -0.9580  0.1479  1.3377
  567MOL0     H76496  10.166   2.664   5.573  0.3924 -1.9377  0.8633
  567MOL0     H76497   9.992   2.543   5.867 -0.2643 -1.3873 -1.7880
  567MOL0     H76498  10.147   2.611   5.803 -0.3521  0.6034 -0.8367
  567MOL0     H76499  10.059   2.840   5.865 -1.0853  1.1682  1.5145
  567MOL0     H76500   9.897   2.765   5.900  0.3580  4.4159 -1.4030
  567MOL0     H76501  10.002   2.630   6.085 -0.8845  1.5492  3.0396
  567MOL0     H76502  10.013   2.804   6.107  0.1892  0.4294  0.1154
  567MOL0     H76503  10.248   2.638   6.012 -1.3499 -1.2433  1.4493
  567MOL0     H76504  10.220   2.712   6.173  0.1071 -1.9752  0.2515
  567MOL0     H76505  10.431   2.694   6.178  0.1790 -0.9520  0.4190
  567MOL0     H76506  10.661   2.780   6.254  2.2781  1.0480 -1.0164
  567MOL0     H76507  11.092   3.022   6.109 -3.4886 -0.7031  0.6529
  567MOL0     H76508  11.288   3.163   6.201  0.3098  1.2982 -0.5525
  567MOL0     H76509  11.163   3.548   6.404 -0.5230 -2.0666 -2.5598
  567MOL0     H76510  11.191   3.437   6.545  0.6568  3.9045  0.9913
  567MOL0     H76511  11.394   3.615   6.423  0.2106 -0.1128  0.3691
  567MOL0     H76512  11.339   3.627   6.578  2.8389 -1.7845  2.4608
  567MOL0     H76513  11.430   3.394   6.623 -0.8030 -1.0291 -0.8716
  567MOL0     H76514  11.486   3.388   6.465  1.5107 -0.6038  0.0237
  567MOL0     H76515  11.582   3.589   6.672  1.6583  0.0372  0.3342
  567MOL0     H76516  11.617   3.614   6.501 -0.6927  0.6600  0.6363
  567MOL0     H76517  11.726   3.364   6.515  1.1230  1.2458 -0.9461
  567MOL0     H76518  11.704   3.395   6.692  0.6861 -0.7832 -0.1344
  567MOL0     H76519  11.855   3.555   6.495 -2.4866  0.9871  0.0230
  567MOL0     H76520  11.853   3.592   6.669  1.2705  0.7269  0.2350
  567MOL0     H76521  11.970   3.348   6.531 -3.4591  2.2823 -2.8486
  567MOL0     H76522  11.964   3.364   6.709 -0.6040  1.2920  0.1469
  567MOL0     H76523  12.087   3.567   6.532 -0.4196 -2.3526 -1.8161
  567MOL0     H76524  12.104   3.550   6.711 -0.2152 -1.4775  1.4253
  567MOL0     H76525  11.010   3.458   6.332  0.5339  0.1766  1.0548
  567MOL0     H76526  10.815   3.313   6.220 -1.1641 -1.8804 -1.7614
  567MOL0     H76527  10.618   3.116   5.988 -0.7231  0.4705  1.6695
  567MOL0     H76528  10.391   3.047   5.926  1.7974 -2.1092 -3.6052
  567MOL0     H76529   9.204   2.228   5.199 -2.4713 -0.8912  0.4011
  567MOL0     H76530   8.958   2.210   5.109  1.4226 -1.6720 -0.0133
  567MOL0     H76531   8.647   2.471   4.930 -2.6906 -0.2180  0.5669
  567MOL0     H76532   8.410   2.517   4.902 -1.0097 -1.4206  0.9337
  567MOL0     H76533   8.192   2.290   4.597  1.2074  0.5065  1.2230
  567MOL0     H76534   8.228   2.452   4.543  2.0091 -2.1421 -1.2285
  567MOL0     H76535   8.009   2.515   4.694  2.8671 -0.6138  2.5567
  567MOL0     H76536   7.995   2.342   4.688 -0.9389  0.4531  0.9297
  567MOL0     H76537   7.989   2.350   4.440  3.0672  1.0968 -1.3774
  567MOL0     H76538   8.014   2.517   4.431  0.2283  1.0261  1.5328
  567MOL0     H76539   7.770   2.384   4.557  2.7327 -1.4554  0.4000
  567MOL0     H76540   7.798   2.550   4.595 -3.3007  0.7201  0.1724
  567MOL0     H76541   7.699   2.598   4.186  1.3193  0.1973  0.2157
  567MOL0     H76542   8.396   2.261   4.571  2.4093  0.6835 -1.7243
  567MOL0     H76543   8.748   2.242   4.503  0.7713 -0.7889  0.0835
  567MOL0     H76544   8.704   2.110   4.613 -0.2561  1.4415  1.4429
  567MOL0     H76545   8.597   2.146   4.482  1.8727 -0.7396 -1.4945
  568MOL0     O76546   1.227   9.143   1.108  0.2882  0.4849  0.0854
  568MOL0     C76547   1.225   9.242   1.179 -0.0853  0.1111  0.5799
  568MOL0     O76548   1.109   9.306   1.209 -0.4285 -0.8622 -0.1847
  568MOL0     C76549   0.987   9.261   1.170 -0.3449  0.3302 -0.4181
  568MOL0     C76550   0.940   9.130   1.193 -0.7506 -0.1594 -0.2420
  568MOL0     C76551   0.810   9.094   1.160  0.0812  0.0384 -0.2718
  568MOL0     C76552   0.719   9.185   1.108  0.0967 -0.5323 -1.4929
  568MOL0     O76553   0.599   9.132   1.067  0.5538 -0.1375  0.3157
  568MOL0     C76554   0.525   9.212   0.970  0.0744  0.0739  0.3985
  568MOL0     C76555   0.470   9.113   0.859 -0.6790  0.3118  0.1520
  568MOL0     C76556   0.582   9.025   0.788  0.0926  0.5092  0.2154
  568MOL0     C76557   0.517   8.894   0.738  0.6037 -0.7491  0.2424
  568MOL0     C76558   0.602   8.832   0.632  0.4870  0.3164  0.2542
  568MOL0     C76559   0.531   8.829   0.492 -0.1139 -0.5710 -0.7184
  568MOL0     C76560   0.522   8.969   0.426 -0.7771 -0.2202  0.2899
  568MOL0     C76561   0.461   8.974   0.281  0.5821 -0.1695 -0.3586
  568MOL0     N76562   0.447   9.121   0.239  0.2490 -0.3618  0.9233
  568MOL0     C76563   0.553   9.188   0.172  0.1380  0.2320 -0.2026
  568MOL0     C76564   0.485   9.276   0.089 -0.1167  0.3496 -0.7089
  568MOL0     C76565   0.550   9.360  -0.013 -0.6217 -0.6607  0.5430
  568MOL0     C76566   0.703   9.379  -0.000  0.5835  0.8129 -0.5094
  568MOL0     C76567   0.777   9.464  -0.100  0.8349  0.1047  0.5345
  568MOL0     C76568   0.935   9.459  -0.090  0.9318 -0.0978 -0.5082
  568MOL0     O76569   0.984   9.589  -0.058 -0.4251  0.2531  0.2530
  568MOL0     C76570   1.117   9.605  -0.046 -0.0559  0.5104 -0.5640
  568MOL0     C76571   1.152   9.724   0.007  0.3878 -0.7089  0.4671
  568MOL0     C76572   1.286   9.759   0.032  0.3981  0.5583 -0.1841
  568MOL0     C76573   1.385   9.663   0.009 -0.6041 -0.1322 -0.3900
  568MOL0     C76574   1.533   9.697   0.005  0.7667 -0.9078 -0.0233
  568MOL0     O76575   1.567   9.830   0.014 -0.1335  0.0249 -0.1824
  568MOL0     C76576   1.700   9.843   0.059 -0.0306  0.3014 -1.3756
  568MOL0     C76577   1.807   9.795  -0.022 -0.7738 -0.0554  0.3671
  568MOL0     C76578   1.939   9.823   0.010  0.0048  0.4825  0.2665
  568MOL0     C76579   1.963   9.885   0.132 -0.1826 -0.0967  0.5194
  568MOL0     O76580   2.091   9.888   0.175 -0.6047 -0.2584 -0.9104
  568MOL0     C76581   2.127   9.950   0.303 -0.2595 -0.5913 -0.3778
  568MOL0     C76582   2.281   9.955   0.309 -0.1616  1.1863  0.3752
  568MOL0     C76583   2.326  10.043   0.420  0.1923  1.2738 -1.0194
  568MOL0     C76584   2.387   9.959   0.536  0.3094  0.1040  0.4800
  568MOL0     C76585   2.464  10.053   0.633 -0.2491 -0.0061 -0.1125
  568MOL0     C76586   2.374  10.142   0.721 -0.0552 -0.4830  0.0809
  568MOL0     C76587   2.464  10.252   0.787 -0.4357  0.2818  0.1450
  568MOL0     C76588   2.546  10.210   0.908 -1.2660  0.0058  0.2871
  568MOL0    Cl76589   2.432  10.156   1.027  0.0499  0.5650 -0.1601
  568MOL0     C76590   1.850   9.923   0.219 -0.1244 -0.3700 -0.8941
  568MOL0     C76591   1.724   9.908   0.180  0.5672 -0.2245 -0.0910
  568MOL0     O76592   1.613   9.599   0.002  0.0740 -0.5770 -0.2261
  568MOL0     C76593   1.342   9.539  -0.034  0.2167  0.9635  0.8199
  568MOL0     C76594   1.209   9.505  -0.064 -0.3435 -0.1636  0.2646
  568MOL0     N76595   0.352   9.279   0.131 -0.1377 -0.2654  0.3905
  568MOL0     N76596   0.329   9.185   0.213 -0.6975  0.0620 -0.6430
  568MOL0     C76597   0.757   9.321   1.103  0.2641 -0.8140 -0.0765
  568MOL0     C76598   0.890   9.357   1.131  0.1232 -0.4734 -1.7467
  568MOL0     C76599   1.341   9.297   1.243  0.1155 -0.4900 -0.5683
  568MOL0     C76600   1.326   9.409   1.321  0.3965  0.9224  0.0383
  568MOL0     C76601   1.427   9.482   1.391  0.7640 -0.5488  0.7788
  568MOL0     C76602   1.561   9.438   1.372  0.0021 -0.0228  0.4033
  568MOL0     O76603   1.657   9.509   1.448  0.1084 -0.0918 -0.1059
  568MOL0     C76604   1.792   9.469   1.436 -0.4902 -0.0749 -0.2108
  568MOL0     C76605   1.886   9.547   1.545 -0.1184 -0.6591 -0.0715
  568MOL0     C76606   1.893   9.697   1.506  0.4110 -0.1338 -0.0945
  568MOL0     C76607   1.990   9.768   1.614 -0.5741  0.3110 -0.3538
  568MOL0     C76608   2.020   9.905   1.575  0.5771 -0.2396 -0.0534
  568MOL0     C76609   2.051  10.021   1.547  0.1970  0.1197 -0.1153
  568MOL0     C76610   1.586   9.331   1.279 -0.3247  0.1881  0.2669
  568MOL0     C76611   1.483   9.261   1.221 -0.8185  0.8151 -0.1357
  568MOL0     C76612   1.518   9.138   1.140  0.2650 -0.7591 -0.8507
  568MOL0     H76613   1.016   9.063   1.233 -0.8807 -0.2973 -0.2255
  568MOL0     H76614   0.782   8.990   1.175  0.0426  0.3137  1.8480
  568MOL0     H76615   0.439   9.260   1.017 -0.2883 -2.1606  2.2564
  568MOL0     H76616   0.580   9.286   0.912 -0.2998  1.0346  1.2324
  568MOL0     H76617   0.413   9.177   0.791  0.4407 -0.0244 -1.1282
  568MOL0     H76618   0.406   9.045   0.915  1.7510 -0.0157  2.8094
  568MOL0     H76619   0.652   8.999   0.868  0.7615  0.4873 -0.3631
  568MOL0     H76620   0.643   9.078   0.714  0.3621 -0.3889 -0.2103
  568MOL0     H76621   0.513   8.828   0.826  0.5735 -1.1485 -0.0524
  568MOL0     H76622   0.418   8.925   0.703  0.8320 -0.3717 -0.0726
  568MOL0     H76623   0.697   8.885   0.617 -0.1480  1.9347  1.6027
  568MOL0     H76624   0.635   8.730   0.652  0.1199  0.1409 -0.0147
  568MOL0     H76625   0.591   8.768   0.424 -0.4429  0.2223 -1.7515
  568MOL0     H76626   0.425   8.804   0.502 -0.7902  1.0025 -3.0591
  568MOL0     H76627   0.625   9.007   0.425  0.0146 -2.1997 -0.8458
  568MOL0     H76628   0.463   9.037   0.487  1.3651  0.5496  1.6367
  568MOL0     H76629   0.523   8.912   0.215 -1.4364  1.1342 -3.6866
  568MOL0     H76630   0.361   8.931   0.281 -1.0894  3.3440  0.0647
  568MOL0     H76631   0.657   9.160   0.163  0.5600  2.3147 -2.8445
  568MOL0     H76632   0.535   9.313  -0.111  2.2830  3.0394 -1.9544
  568MOL0     H76633   0.491   9.452  -0.015 -4.6738 -3.0007 -1.4158
  568MOL0     H76634   0.716   9.412   0.104 -1.1642  1.3820 -0.4375
  568MOL0     H76635   0.763   9.288  -0.007  0.3588  0.7144 -1.2056
  568MOL0     H76636   0.750   9.569  -0.085  1.6312  0.1060  2.2227
  568MOL0     H76637   0.756   9.435  -0.204  0.1818 -2.3951  1.3046
  568MOL0     H76638   0.974   9.425  -0.186 -2.1541 -2.0272 -1.2031
  568MOL0     H76639   0.965   9.399  -0.003 -2.7318  0.5807  1.4000
  568MOL0     H76640   1.082   9.799   0.042  3.0644  1.2936  1.8217
  568MOL0     H76641   1.309   9.855   0.076 -1.4340  0.6699  0.6240
  568MOL0     H76642   1.783   9.745  -0.115  0.6062 -1.3711  0.6839
  568MOL0     H76643   2.021   9.816  -0.061  0.9559  2.5308  1.0499
  568MOL0     H76644   2.091  10.053   0.311  0.2117 -0.4536  0.0524
  568MOL0     H76645   2.089   9.894   0.389 -1.1197  0.5794  0.0302
  568MOL0     H76646   2.317   9.852   0.313 -2.5940  0.3179  2.0742
  568MOL0     H76647   2.318  10.001   0.217  0.0570  1.8165  0.7695
  568MOL0     H76648   2.394  10.126   0.398  0.6497  0.6737 -1.9398
  568MOL0     H76649   2.241  10.091   0.470  0.7172  0.9048  0.2812
  568MOL0     H76650   2.452   9.879   0.500  1.2491  0.3520  1.5594
  568MOL0     H76651   2.300   9.914   0.585 -0.0674  0.2103 -0.0794
  568MOL0     H76652   2.536  10.107   0.572 -2.3312 -0.1970 -2.9335
  568MOL0     H76653   2.519   9.986   0.699  2.0483  1.0007 -0.9309
  568MOL0     H76654   2.287  10.183   0.668 -0.4854 -0.9013  0.4487
  568MOL0     H76655   2.323  10.090   0.803 -2.0548 -0.5298 -1.1288
  568MOL0     H76656   2.394  10.324   0.830 -1.4408 -1.5394  1.7368
  568MOL0     H76657   2.538  10.290   0.717  0.2450 -1.9301 -0.4277
  568MOL0     H76658   2.612  10.127   0.885 -2.1929 -0.9309  0.9119
  568MOL0     H76659   2.604  10.296   0.942 -2.7684  1.7009 -1.2203
  568MOL0     H76660   1.871   9.965   0.317  0.6708 -2.5773 -0.0566
  568MOL0     H76661   1.639   9.965   0.215  0.0696  0.4032 -2.1385
  568MOL0     H76662   1.415   9.468  -0.070 -1.4807  0.0781 -1.0869
  568MOL0     H76663   1.184   9.407  -0.104 -0.8558  0.1252 -0.1365
  568MOL0     H76664   0.681   9.396   1.087  0.1226 -0.7584  0.8352
  568MOL0     H76665   0.910   9.462   1.114 -1.2036  0.0505 -0.3345
  568MOL0     H76666   1.225   9.445   1.336 -0.7365 -1.2901 -1.7135
  568MOL0     H76667   1.388   9.564   1.451  0.8107 -0.3853  0.5864
  568MOL0     H76668   1.822   9.506   1.337  1.0311  0.8414  0.5573
  568MOL0     H76669   1.804   9.363   1.461  1.2093  0.4357  1.4004
  568MOL0     H76670   1.982   9.496   1.537 -0.9306 -2.6658  1.9028
  568MOL0     H76671   1.847   9.535   1.646 -0.1151 -0.9691 -0.1064
  568MOL0     H76672   1.794   9.743   1.514  0.7708  1.0093 -1.7809
  568MOL0     H76673   1.936   9.712   1.407  1.6124  2.1144  0.6922
  568MOL0     H76674   1.941   9.762   1.712 -1.3328 -0.2897 -0.7561
  568MOL0     H76675   2.076   9.710   1.647 -2.3434 -1.3723  1.6216
  568MOL0     H76676   2.087  10.119   1.522  2.9435 -1.5076 -3.4597
  568MOL0     H76677   1.682   9.282   1.266 -0.2570  0.4987 -0.4560
  568MOL0     H76678   1.471   9.058   1.197  2.4761 -0.3940  1.7036
  568MOL0     H76679   1.468   9.134   1.043  1.3269 -3.7771 -1.3720
  568MOL0     H76680   1.623   9.118   1.113  0.5938 -1.5079  0.8489
  569MOL0     O76681   9.500   7.060   0.105  0.2303  0.1623  0.0776
  569MOL0     C76682   9.464   7.029   0.219 -1.0497 -0.7237 -0.3025
  569MOL0     O76683   9.536   6.949   0.307 -0.7451 -0.0607  0.2898
  569MOL0     C76684   9.654   6.902   0.256  0.0611  0.1719 -0.2611
  569MOL0     C76685   9.767   6.969   0.305  0.0090 -0.2778 -0.3695
  569MOL0     C76686   9.881   6.948   0.230  0.5716 -0.3078  0.4818
  569MOL0     C76687   9.904   6.847   0.130  0.1917  0.9188 -0.6418
  569MOL0     O76688  10.028   6.825   0.058  0.5412 -0.4415 -0.0974
  569MOL0     C76689  10.071   6.928  -0.031  0.0170  0.1406 -0.1477
  569MOL0     C76690  10.208   6.883  -0.089  0.3353  0.1060  0.7872
  569MOL0     C76691  10.308   6.847   0.023  0.0020  0.0374  0.3741
  569MOL0     C76692  10.448   6.809  -0.032 -0.2664  0.1338 -0.5223
  569MOL0     C76693  10.527   6.787   0.091  0.2657 -0.2763  0.0990
  569MOL0     C76694  10.682   6.779   0.058 -0.1814 -0.2352  0.2931
  569MOL0     C76695  10.776   6.792   0.174 -0.2569 -0.0016 -0.7527
  569MOL0     C76696  10.734   6.712   0.302  0.2625  0.3952  0.2785
  569MOL0     N76697  10.858   6.681   0.380  0.0745  0.3775  0.2849
  569MOL0     C76698  10.920   6.558   0.390  0.3602 -0.4048 -0.4052
  569MOL0     C76699  11.004   6.568   0.496 -0.2063 -0.2160 -0.1327
  569MOL0     C76700  11.108   6.473   0.541 -1.0653  0.4165  0.1884
  569MOL0     C76701  11.201   6.518   0.654  0.3393 -0.8252 -0.0759
  569MOL0     C76702  11.325   6.604   0.637 -0.1617 -0.0482  0.1938
  569MOL0     C76703  11.389   6.641   0.770 -0.7497 -0.5026  0.0837
  569MOL0     O76704  11.504   6.716   0.729  0.0279 -0.1374  0.4800
  569MOL0     C76705  11.621   6.659   0.698  0.1171  0.1062 -1.4139
  569MOL0     C76706  11.645   6.525   0.675 -0.3073  0.0880  0.0910
  569MOL0     C76707  11.778   6.480   0.650 -0.9539 -0.1488  0.1189
  569MOL0     C76708  11.886   6.566   0.634  0.6335 -1.5403 -0.2773
  569MOL0     C76709  12.017   6.519   0.589  0.0192 -0.9055  0.6177
  569MOL0     O76710  12.042   6.393   0.533 -0.1660  0.5061  0.0023
  569MOL0     C76711  12.163   6.374   0.471 -0.1400 -0.9166 -1.6441
  569MOL0     C76712  12.195   6.426   0.345  0.1422 -1.1223  0.5594
  569MOL0     C76713  12.317   6.397   0.294 -0.2471  0.2537  0.2092
  569MOL0     C76714  12.419   6.311   0.354  0.7012 -0.7247 -0.9194
  569MOL0     O76715  12.546   6.300   0.300 -0.1351  0.2348  0.4075
  569MOL0     C76716  12.646   6.246   0.382  0.3196  1.1321 -0.5939
  569MOL0     C76717  12.787   6.246   0.317 -0.4928  0.2710  0.3135
  569MOL0     C76718  12.831   6.383   0.256 -0.0584 -0.1978 -0.1493
  569MOL0     C76719  12.961   6.379   0.183 -0.8743  0.3346 -0.7299
  569MOL0     C76720  12.995   6.519   0.147 -0.4048 -0.4560  0.9702
  569MOL0     C76721  13.097   6.505   0.024 -0.3365  0.5502 -0.0909
  569MOL0     C76722  13.132   6.645  -0.034  0.8194 -0.3876  0.1726
  569MOL0     C76723  13.262   6.643  -0.107 -0.2272  0.8373 -0.0926
  569MOL0    Cl76724  13.248   6.525  -0.239 -0.2111  0.1082  0.1023
  569MOL0     C76725  12.378   6.249   0.472  0.1129 -0.8020  0.0274
  569MOL0     C76726  12.252   6.281   0.530  0.1632  0.0450  0.9792
  569MOL0     O76727  12.103   6.610   0.588 -0.0327  0.2469 -0.1067
  569MOL0     C76728  11.853   6.705   0.646 -0.4662 -0.1042 -1.2441
  569MOL0     C76729  11.727   6.748   0.679  0.1272 -0.7778  0.0628
  569MOL0     N76730  10.991   6.695   0.543 -0.1880  0.7574 -1.4078
  569MOL0     N76731  10.901   6.763   0.480 -0.5109 -0.2465 -0.4320
  569MOL0     C76732   9.791   6.772   0.100  0.9736 -0.4284  0.5358
  569MOL0     C76733   9.667   6.797   0.154 -0.5220  0.3231 -1.4326
  569MOL0     C76734   9.330   7.079   0.266  0.2060  1.0469 -0.4490
  569MOL0     C76735   9.287   7.023   0.386  0.3661  0.4581 -0.7535
  569MOL0     C76736   9.177   7.070   0.449  0.0593 -0.0201 -0.3997
  569MOL0     C76737   9.093   7.161   0.385 -0.4168 -0.2160  0.1016
  569MOL0     O76738   8.980   7.197   0.455  0.1266 -0.0078  0.3003
  569MOL0     C76739   8.878   7.275   0.382 -0.1791 -0.3526  0.1090
  569MOL0     C76740   8.791   7.189   0.299 -0.3077  0.0233 -0.0673
  569MOL0     C76741   8.700   7.101   0.399  0.1337 -0.1701  0.9401
  569MOL0     C76742   8.556   7.063   0.342  0.1024 -0.2616  0.1914
  569MOL0     C76743   8.516   7.126   0.217  0.1717  0.0178 -0.2372
  569MOL0     C76744   8.475   7.161   0.116  0.4492 -0.0490 -1.2037
  569MOL0     C76745   9.125   7.215   0.261 -0.2382  0.0069  0.3121
  569MOL0     C76746   9.248   7.169   0.199  0.5406 -0.8513  0.3993
  569MOL0     C76747   9.271   7.228   0.060 -0.1367  0.3778  0.4485
  569MOL0     H76748   9.750   7.045   0.381  0.5253  0.2919 -0.8116
  569MOL0     H76749   9.977   6.995   0.251  1.1814 -0.6816 -1.2825
  569MOL0     H76750   9.997   6.948  -0.109 -0.5720  0.1613  0.4043
  569MOL0     H76751  10.084   7.018   0.031  1.5464  0.0640 -0.3246
  569MOL0     H76752  10.247   6.968  -0.146 -1.4541  0.4551  0.0128
  569MOL0     H76753  10.179   6.798  -0.151 -3.3997  2.8403 -1.7027
  569MOL0     H76754  10.266   6.778   0.097  0.4463  0.1251  0.7137
  569MOL0     H76755  10.324   6.940   0.078  2.1743 -2.1393  3.8176
  569MOL0     H76756  10.439   6.721  -0.096 -2.7827  1.2005 -1.7894
  569MOL0     H76757  10.498   6.891  -0.084 -0.5943  1.4952  1.1811
  569MOL0     H76758  10.505   6.866   0.162 -1.2021  2.7337 -3.3773
  569MOL0     H76759  10.503   6.691   0.138 -1.3952  0.1269  0.1307
  569MOL0     H76760  10.708   6.680   0.020 -1.0289 -0.5765  0.5763
  569MOL0     H76761  10.715   6.866   0.000  0.5646  1.4534  3.0373
  569MOL0     H76762  10.781   6.898   0.201  3.9919  0.0198 -0.8897
  569MOL0     H76763  10.872   6.750   0.143  0.9436  2.7439 -1.0320
  569MOL0     H76764  10.665   6.776   0.359 -0.7560 -1.4342  1.1841
  569MOL0     H76765  10.688   6.615   0.285  2.0780 -0.6517  1.0355
  569MOL0     H76766  10.893   6.475   0.326 -0.1194 -0.9226  0.4571
  569MOL0     H76767  11.066   6.376   0.568 -1.6622  0.3210 -1.0264
  569MOL0     H76768  11.179   6.463   0.459  2.0612  0.3252  2.6850
  569MOL0     H76769  11.145   6.563   0.736 -0.8222 -1.0395 -0.7270
  569MOL0     H76770  11.240   6.425   0.697  0.9751  0.4726  2.3402
  569MOL0     H76771  11.293   6.698   0.592  0.1813  0.4139  0.9000
  569MOL0     H76772  11.396   6.551   0.572  0.5933  0.1337  0.8525
  569MOL0     H76773  11.417   6.552   0.827 -0.2159 -0.2402  0.2337
  569MOL0     H76774  11.319   6.700   0.830  0.7919  1.2161  0.2535
  569MOL0     H76775  11.567   6.449   0.673  2.4847 -3.0455  1.1878
  569MOL0     H76776  11.800   6.376   0.629 -0.7436  0.4510 -3.1485
  569MOL0     H76777  12.125   6.496   0.301  0.8913  1.0552  2.5689
  569MOL0     H76778  12.333   6.450   0.201 -5.2455  2.3136  0.2521
  569MOL0     H76779  12.653   6.300   0.476  0.6435  0.4565 -0.2266
  569MOL0     H76780  12.622   6.142   0.405 -0.6191  1.4581 -0.0603
  569MOL0     H76781  12.865   6.236   0.393  1.3709  0.6641 -1.4595
  569MOL0     H76782  12.794   6.159   0.250 -1.1400  0.0493  0.5299
  569MOL0     H76783  12.747   6.414   0.194 -1.4256 -1.5222  0.9467
  569MOL0     H76784  12.835   6.466   0.327 -1.8638 -0.1555 -0.0700
  569MOL0     H76785  12.950   6.316   0.094  0.1647  0.4375 -0.9486
  569MOL0     H76786  13.039   6.324   0.237 -2.6725 -1.4168  0.2049
  569MOL0     H76787  13.050   6.580   0.220 -0.1518  2.3432 -1.3734
  569MOL0     H76788  12.917   6.594   0.130  2.8193  2.5303 -2.1939
  569MOL0     H76789  13.190   6.459   0.057  0.3049  0.3261 -2.0786
  569MOL0     H76790  13.051   6.443  -0.054  0.6998  1.3813 -1.4140
  569MOL0     H76791  13.130   6.708   0.055 -3.6826  0.2771 -0.1820
  569MOL0     H76792  13.039   6.661  -0.089 -0.9454  0.3797  3.1787
  569MOL0     H76793  13.276   6.743  -0.149 -3.1232  0.8644 -1.2023
  569MOL0     H76794  13.355   6.615  -0.056  2.4031  4.4933 -2.3843
  569MOL0     H76795  12.449   6.186   0.525  0.6061  0.8719  1.4269
  569MOL0     H76796  12.226   6.245   0.629 -0.6757 -0.7318  0.4897
  569MOL0     H76797  11.928   6.783   0.639  0.0793 -0.1507  2.3801
  569MOL0     H76798  11.726   6.856   0.692 -4.2206 -0.2877 -2.2688
  569MOL0     H76799   9.801   6.699   0.021 -1.2619  2.7655 -3.0796
  569MOL0     H76800   9.569   6.763   0.123  0.8902 -3.0572 -2.6628
  569MOL0     H76801   9.346   6.949   0.440  0.6664  0.2290 -1.3812
  569MOL0     H76802   9.158   7.027   0.547  1.8373  1.8459  0.8566
  569MOL0     H76803   8.920   7.355   0.321  3.0971  0.2582  2.8823
  569MOL0     H76804   8.817   7.312   0.464 -0.3626 -0.5167  0.0481
  569MOL0     H76805   8.839   7.131   0.219  0.5525  0.9101 -0.2114
  569MOL0     H76806   8.729   7.260   0.243  1.7866  1.2483 -0.9527
  569MOL0     H76807   8.691   7.147   0.497 -1.2595  1.3765  0.1356
  569MOL0     H76808   8.753   7.006   0.412  1.7203  0.5527  0.0758
  569MOL0     H76809   8.557   6.955   0.326  2.0113  0.0641 -2.4339
  569MOL0     H76810   8.487   7.106   0.415 -0.2253  1.8533 -1.2772
  569MOL0     H76811   8.438   7.188   0.020  1.6529  0.1139 -1.6479
  569MOL0     H76812   9.059   7.287   0.214 -0.1596  0.5449  1.0069
  569MOL0     H76813   9.310   7.144   0.002 -1.3467 -0.5416  0.9269
  569MOL0     H76814   9.181   7.266   0.012  0.4829 -2.8888 -3.9672
  569MOL0     H76815   9.330   7.320   0.056 -1.7930  1.4604  0.0397
  570MOL0     O76816   4.805   1.827   8.894  0.0597  0.2310  0.0166
  570MOL0     C76817   4.794   1.928   8.826 -0.1263 -0.7447 -0.0159
  570MOL0     O76818   4.896   1.982   8.757 -0.5120  1.2332  0.2210
  570MOL0     C76819   5.014   1.915   8.737 -0.1354  0.9806 -0.6225
  570MOL0     C76820   5.014   1.776   8.697 -0.0928  0.0207 -0.4355
  570MOL0     C76821   5.128   1.709   8.648  0.5544 -0.1823  0.3711
  570MOL0     C76822   5.250   1.771   8.665 -1.5156  0.1038 -0.4249
  570MOL0     O76823   5.356   1.692   8.630 -0.3263 -0.6088  0.1414
  570MOL0     C76824   5.494   1.734   8.619  0.5189 -0.2530 -0.0610
  570MOL0     C76825   5.504   1.824   8.492  0.6973  0.4364 -0.2936
  570MOL0     C76826   5.646   1.849   8.444 -0.6348  0.4170  0.1052
  570MOL0     C76827   5.770   1.850   8.546 -0.3246  0.1175 -0.0290
  570MOL0     C76828   5.912   1.855   8.484 -0.2373  0.2844 -0.0900
  570MOL0     C76829   5.996   1.923   8.592 -1.0508 -0.6399  0.3812
  570MOL0     C76830   6.147   1.912   8.547 -0.3621 -0.9498  0.1220
  570MOL0     C76831   6.176   1.948   8.395 -0.3401  0.2546  0.0275
  570MOL0     N76832   6.320   1.961   8.374  0.2694 -0.2194  0.5184
  570MOL0     C76833   6.415   2.063   8.409  0.6567  1.0489  0.6802
  570MOL0     C76834   6.536   2.018   8.366 -0.1889  0.0507  0.0189
  570MOL0     C76835   6.668   2.081   8.384  0.5349  0.1941 -0.0860
  570MOL0     C76836   6.715   2.094   8.530 -0.2346  0.4061  0.5865
  570MOL0     C76837   6.870   2.086   8.547 -0.2763 -0.3594 -0.6795
  570MOL0     C76838   6.908   2.141   8.689  0.1808  0.1915  0.1835
  570MOL0     O76839   7.049   2.102   8.697 -0.4244 -0.5517 -0.0100
  570MOL0     C76840   7.147   2.199   8.715 -0.4967  0.2470  0.7252
  570MOL0     C76841   7.156   2.292   8.611  0.5086 -0.5136 -0.3527
  570MOL0     C76842   7.265   2.384   8.604  0.6221  0.5739 -0.0035
  570MOL0     C76843   7.369   2.370   8.697 -1.0556  0.4802  0.1140
  570MOL0     C76844   7.478   2.465   8.708 -0.0426  0.5663  1.1334
  570MOL0     O76845   7.578   2.425   8.789 -0.0947  0.3910  0.4419
  570MOL0     C76846   7.688   2.497   8.777  0.1519 -0.5657 -0.4116
  570MOL0     C76847   7.775   2.475   8.673 -0.2010 -0.1928  0.3625
  570MOL0     C76848   7.908   2.533   8.666  0.2222  0.3635 -0.4663
  570MOL0     C76849   7.938   2.620   8.776 -0.1385  0.9634 -0.8373
  570MOL0     O76850   8.054   2.693   8.795  0.5974 -0.4890  0.3011
  570MOL0     C76851   8.145   2.653   8.896 -0.3041 -0.5176  0.7712
  570MOL0     C76852   8.247   2.767   8.910 -0.3655 -0.1812 -0.5362
  570MOL0     C76853   8.312   2.790   8.776  0.5592  0.5583 -0.9331
  570MOL0     C76854   8.430   2.879   8.800 -0.6733  0.2970 -0.3465
  570MOL0     C76855   8.494   2.921   8.668  0.0209  0.3475 -0.1655
  570MOL0     C76856   8.402   2.960   8.553  0.4200 -0.0829  0.4147
  570MOL0     C76857   8.469   3.042   8.437  0.2490 -0.6747  0.1340
  570MOL0     C76858   8.499   3.187   8.479  0.2543 -0.2934 -0.5347
  570MOL0    Cl76859   8.686   3.207   8.487 -0.1877 -0.3930  0.1127
  570MOL0     C76860   7.844   2.655   8.871 -0.4406  0.5275  0.5618
  570MOL0     C76861   7.720   2.592   8.868 -1.0069  0.1802  0.5387
  570MOL0     O76862   7.471   2.559   8.637 -1.5913  0.2945 -0.3394
  570MOL0     C76863   7.360   2.267   8.799 -0.1324 -0.4376 -0.7705
  570MOL0     C76864   7.253   2.183   8.809 -0.1972 -0.0784 -0.0547
  570MOL0     N76865   6.515   1.898   8.300 -0.2988  0.2687 -0.0182
  570MOL0     N76866   6.391   1.873   8.296 -0.6220 -0.4154 -0.3399
  570MOL0     C76867   5.256   1.908   8.708 -0.0637 -0.0393 -0.3156
  570MOL0     C76868   5.139   1.979   8.741 -0.4429  0.1330  0.9873
  570MOL0     C76869   4.658   1.989   8.820  0.6370  0.4264  0.1030
  570MOL0     C76870   4.647   2.087   8.720 -0.0191 -0.1610  0.0403
  570MOL0     C76871   4.524   2.155   8.702  0.2936  1.6405  0.4250
  570MOL0     C76872   4.423   2.144   8.805 -0.0197 -0.3754  0.4256
  570MOL0     O76873   4.317   2.229   8.799  0.4470  0.1999 -0.5497
  570MOL0     C76874   4.337   2.370   8.775 -0.7862 -0.2327  0.1791
  570MOL0     C76875   4.227   2.448   8.839 -0.2077 -0.0995 -0.0668
  570MOL0     C76876   4.230   2.434   8.991 -0.2275 -0.6799  0.2216
  570MOL0     C76877   4.335   2.531   9.061  0.4271 -0.0076  0.1677
  570MOL0     C76878   4.291   2.669   9.047 -0.1972 -0.0453  0.4753
  570MOL0     C76879   4.263   2.787   9.043 -0.2778  1.1853  0.0719
  570MOL0     C76880   4.437   2.047   8.899 -0.4822 -0.0002  0.0797
  570MOL0     C76881   4.546   1.959   8.909  0.2876 -0.8719 -0.3286
  570MOL0     C76882   4.557   1.860   9.021  0.7236  0.6164  0.2390
  570MOL0     H76883   4.926   1.713   8.687 -0.5624  1.0493 -3.9060
  570MOL0     H76884   5.127   1.608   8.607 -0.4368 -0.5225  1.1993
  570MOL0     H76885   5.526   1.792   8.706 -0.5816  1.0202 -0.4562
  570MOL0     H76886   5.562   1.648   8.626 -1.7988 -2.0666  1.6617
  570MOL0     H76887   5.469   1.926   8.512  2.3376  0.7629  1.1921
  570MOL0     H76888   5.434   1.780   8.421 -0.4043 -1.0775  1.6333
  570MOL0     H76889   5.663   1.943   8.391 -1.0535  0.6586  0.3931
  570MOL0     H76890   5.671   1.774   8.367  3.1741  3.1987 -1.7182
  570MOL0     H76891   5.743   1.936   8.608 -1.6176 -0.8582  0.7927
  570MOL0     H76892   5.778   1.766   8.614  0.4855  0.5996  0.4892
  570MOL0     H76893   5.956   1.758   8.459 -0.0575  1.1702 -3.8256
  570MOL0     H76894   5.898   1.919   8.397  0.5728  0.7431  0.1185
  570MOL0     H76895   5.972   2.029   8.592 -0.3215 -0.4691 -0.1321
  570MOL0     H76896   5.989   1.892   8.697  1.7862  0.6259  1.0476
  570MOL0     H76897   6.179   1.808   8.553 -2.3828 -1.7763 -1.9852
  570MOL0     H76898   6.216   1.971   8.609  0.4751 -1.6004 -0.1631
  570MOL0     H76899   6.131   1.867   8.337  1.7530 -1.1657  0.2709
  570MOL0     H76900   6.135   2.046   8.368  3.2732  2.0702  0.5429
  570MOL0     H76901   6.400   2.149   8.472  2.4405  2.2443 -0.4254
  570MOL0     H76902   6.740   2.022   8.327  0.2322 -0.4264  0.1719
  570MOL0     H76903   6.663   2.184   8.346  1.8477  0.8479  1.4123
  570MOL0     H76904   6.676   2.190   8.566 -1.2606  0.4712 -0.6555
  570MOL0     H76905   6.662   2.012   8.579 -3.8747 -0.4853 -4.1803
  570MOL0     H76906   6.919   2.145   8.469  1.8717  0.1962  1.0013
  570MOL0     H76907   6.907   1.983   8.545  2.5907  0.5940 -0.8738
  570MOL0     H76908   6.854   2.102   8.776  3.0281  0.0515  2.0320
  570MOL0     H76909   6.881   2.247   8.694 -5.0684 -0.8275 -0.2450
  570MOL0     H76910   7.084   2.302   8.530 -0.3445 -0.5208  0.3925
  570MOL0     H76911   7.275   2.452   8.521 -0.2053 -1.0486 -1.5061
  570MOL0     H76912   7.753   2.395   8.603  2.1538  0.6190 -1.4416
  570MOL0     H76913   7.984   2.503   8.594 -0.0862 -2.4704  0.2943
  570MOL0     H76914   8.099   2.633   8.993 -2.0048 -1.5853 -0.1915
  570MOL0     H76915   8.211   2.569   8.871 -0.3879 -1.1147  2.4682
  570MOL0     H76916   8.217   2.866   8.945 -1.6733 -0.4753 -0.7705
  570MOL0     H76917   8.326   2.735   8.977 -0.3176  0.1523 -0.4340
  570MOL0     H76918   8.321   2.696   8.721 -1.4231  0.1883 -0.7081
  570MOL0     H76919   8.238   2.847   8.720 -0.6019  0.7511  0.7024
  570MOL0     H76920   8.507   2.837   8.866  1.2815  3.2352 -0.5637
  570MOL0     H76921   8.404   2.974   8.848  2.0581  1.2702 -0.5994
  570MOL0     H76922   8.559   2.842   8.631  0.7096  1.6735 -1.9567
  570MOL0     H76923   8.563   3.001   8.696  0.7627 -0.8755  1.7005
  570MOL0     H76924   8.368   2.862   8.518  2.5027 -1.2328  1.3946
  570MOL0     H76925   8.315   3.017   8.587 -2.3314 -3.0061 -1.1649
  570MOL0     H76926   8.383   3.057   8.371  0.7480  1.2756 -0.1396
  570MOL0     H76927   8.550   2.997   8.378 -0.0916  0.9823 -1.6874
  570MOL0     H76928   8.457   3.257   8.406 -1.6622  0.9870  1.6439
  570MOL0     H76929   8.459   3.211   8.578 -1.5371  0.1247 -1.3278
  570MOL0     H76930   7.869   2.731   8.945  2.2290 -0.1138  0.4301
  570MOL0     H76931   7.645   2.615   8.942 -2.7938 -0.3335 -1.0220
  570MOL0     H76932   7.434   2.265   8.879  0.2948  0.8126 -1.1051
  570MOL0     H76933   7.251   2.108   8.887  1.1110  1.2339  1.3065
  570MOL0     H76934   5.349   1.963   8.716 -0.8055  2.0166 -3.8715
  570MOL0     H76935   5.143   2.081   8.778 -0.8614  0.9288 -1.0393
  570MOL0     H76936   4.718   2.104   8.639  0.0063 -1.5403 -0.2382
  570MOL0     H76937   4.505   2.226   8.621 -3.0697 -0.5597 -0.9288
  570MOL0     H76938   4.349   2.384   8.668  3.3534 -2.7835  0.0551
  570MOL0     H76939   4.430   2.404   8.822 -0.0464  0.0771 -1.4359
  570MOL0     H76940   4.131   2.415   8.801  0.0888  0.1811 -1.0815
  570MOL0     H76941   4.236   2.556   8.823 -2.8669  0.6781  2.7454
  570MOL0     H76942   4.264   2.332   9.009 -0.2391 -0.7992 -0.4034
  570MOL0     H76943   4.128   2.447   9.027  0.1869 -1.0979  1.5727
  570MOL0     H76944   4.350   2.506   9.167  1.6493 -1.4947 -0.3154
  570MOL0     H76945   4.430   2.525   9.008  0.5397  0.8949  0.2613
  570MOL0     H76946   4.228   2.888   9.050  0.4138  1.7310 -2.8818
  570MOL0     H76947   4.368   2.050   8.983  0.7261 -0.0613  1.1129
  570MOL0     H76948   4.645   1.873   9.085  0.6793  2.0597  0.0372
  570MOL0     H76949   4.460   1.844   9.069 -0.0303 -2.3110 -1.9325
  570MOL0     H76950   4.574   1.759   8.981 -1.7591 -0.9102  2.6514
  571MOL0     O76951   4.363   1.363   8.151  0.1121 -0.7389 -0.5567
  571MOL0     C76952   4.336   1.401   8.039 -0.2294 -0.3167 -0.3425
  571MOL0     O76953   4.215   1.424   7.997  0.1404  0.1342 -0.0458
  571MOL0     C76954   4.101   1.411   8.073 -0.4742 -0.2391 -0.6121
  571MOL0     C76955   3.997   1.489   8.038 -0.3402  0.2632  0.6404
  571MOL0     C76956   3.876   1.492   8.099  0.5440 -0.4446 -0.0719
  571MOL0     C76957   3.852   1.398   8.201 -0.2313 -0.4643  0.3447
  571MOL0     O76958   3.731   1.376   8.266 -0.2225  0.7982 -0.2401
  571MOL0     C76959   3.620   1.465   8.251  0.4882 -0.2995 -0.0210
  571MOL0     C76960   3.488   1.400   8.308  0.8448 -0.2284  0.4945
  571MOL0     C76961   3.451   1.274   8.224  0.6620  0.9295 -0.1213
  571MOL0     C76962   3.293   1.275   8.214  0.4237  1.1935  0.3662
  571MOL0     C76963   3.241   1.145   8.140  0.7812 -0.3248  0.2013
  571MOL0     C76964   3.301   1.135   8.005  0.1778  0.3802 -0.2959
  571MOL0     C76965   3.213   1.073   7.906  0.5972  0.3748  0.0943
  571MOL0     C76966   3.276   1.035   7.777 -0.0161 -0.7139  0.2438
  571MOL0     N76967   3.370   0.929   7.813  0.4947 -0.2085  0.7248
  571MOL0     C76968   3.335   0.802   7.857  0.9726 -0.3456 -0.3622
  571MOL0     C76969   3.456   0.747   7.873  0.6938  0.5129  1.5351
  571MOL0     C76970   3.494   0.615   7.946  0.6319 -0.1693  0.1010
  571MOL0     C76971   3.385   0.550   8.035  0.4397 -0.7184  0.1177
  571MOL0     C76972   3.388   0.599   8.182  0.3624  0.8391  0.6391
  571MOL0     C76973   3.340   0.739   8.218 -0.2327 -0.1697  1.3476
  571MOL0     O76974   3.438   0.850   8.192  0.4307 -0.2992  0.2682
  571MOL0     C76975   3.563   0.858   8.260  0.4272  0.0512  0.1237
  571MOL0     C76976   3.587   0.791   8.376 -0.0643  0.2134 -0.3501
  571MOL0     C76977   3.698   0.803   8.454  0.3214  0.3256  0.4727
  571MOL0     C76978   3.797   0.903   8.422 -0.6030 -0.0064 -0.7387
  571MOL0     C76979   3.898   0.953   8.528  0.6247 -0.5765  0.3261
  571MOL0     O76980   3.991   1.047   8.498 -0.5623  0.1771  0.1899
  571MOL0     C76981   4.064   1.093   8.601 -1.7537  0.3913 -0.1494
  571MOL0     C76982   4.203   1.050   8.613  0.0340 -0.2603  0.6704
  571MOL0     C76983   4.280   1.099   8.712  0.0058 -0.5560 -0.9849
  571MOL0     C76984   4.241   1.203   8.801 -0.0030 -0.5579  0.5391
  571MOL0     O76985   4.334   1.259   8.895 -0.3729  0.5844  1.3403
  571MOL0     C76986   4.475   1.237   8.887  0.0960 -0.3635 -0.1673
  571MOL0     C76987   4.543   1.351   8.951  0.3795 -0.6939 -0.8204
  571MOL0     C76988   4.684   1.362   8.890 -0.0051 -0.4690 -0.1528
  571MOL0     C76989   4.758   1.484   8.939 -0.1185 -0.5125 -0.1060
  571MOL0     C76990   4.887   1.480   8.856 -0.5743 -0.4735  0.6733
  571MOL0     C76991   4.991   1.380   8.908 -0.5586  0.9763 -0.1652
  571MOL0     C76992   5.116   1.404   8.824  0.4812  0.1449 -0.2602
  571MOL0     C76993   5.217   1.298   8.808  0.9626 -0.1206 -0.8387
  571MOL0    Cl76994   5.244   1.234   8.972 -0.0938  0.3775 -0.4150
  571MOL0     C76995   4.111   1.249   8.782  0.0504  0.1863  0.1347
  571MOL0     C76996   4.025   1.199   8.684  0.2057 -0.5329  0.5531
  571MOL0     O76997   3.879   0.908   8.639 -0.0828  0.1164 -0.0278
  571MOL0     C76998   3.781   0.967   8.301  0.4628 -0.1993  0.6201
  571MOL0     C76999   3.665   0.946   8.224 -1.2101  0.6282  0.3212
  571MOL0     N77000   3.554   0.837   7.842  0.2125 -0.3417  1.2036
  571MOL0     N77001   3.507   0.949   7.823 -0.3335  0.8179  1.1428
  571MOL0     C77002   3.958   1.312   8.240 -0.2489 -0.1490 -1.0506
  571MOL0     C77003   4.082   1.311   8.176 -0.0148  0.3484 -0.3497
  571MOL0     C77004   4.447   1.398   7.937 -0.0688  0.5509 -0.2809
  571MOL0     C77005   4.451   1.291   7.846 -0.1184 -0.5586  0.6416
  571MOL0     C77006   4.562   1.275   7.759  0.7352 -0.6768  0.3885
  571MOL0     C77007   4.659   1.370   7.757  1.2290  0.0399  0.4900
  571MOL0     O77008   4.757   1.359   7.656 -0.0977  0.5132 -0.4588
  571MOL0     C77009   4.884   1.413   7.652  0.4751  0.1455  0.7887
  571MOL0     C77010   4.983   1.334   7.734 -0.5924  0.5193 -0.3524
  571MOL0     C77011   5.036   1.206   7.670  0.4220  0.0109  0.2883
  571MOL0     C77012   5.118   1.136   7.768 -0.1836  0.0272  0.1886
  571MOL0     C77013   5.252   1.198   7.794  0.0555 -0.6397  0.0657
  571MOL0     C77014   5.360   1.248   7.818 -1.5435 -0.3776 -0.6236
  571MOL0     C77015   4.656   1.475   7.847 -0.5948  0.6627  0.0379
  571MOL0     C77016   4.548   1.495   7.930  0.1659 -0.8708  0.0542
  571MOL0     C77017   4.545   1.612   8.016  0.6505  0.3147  0.4459
  571MOL0     H77018   4.023   1.561   7.961 -1.8397 -1.0799 -1.2028
  571MOL0     H77019   3.796   1.550   8.056  2.2016 -0.3979 -3.3950
  571MOL0     H77020   3.644   1.557   8.306 -1.6841 -0.0351  0.5741
  571MOL0     H77021   3.596   1.476   8.145  0.0144 -1.3604 -0.0326
  571MOL0     H77022   3.413   1.479   8.308 -0.2386 -1.2116 -0.7108
  571MOL0     H77023   3.501   1.370   8.413  2.2321  1.5124  0.8738
  571MOL0     H77024   3.471   1.178   8.272 -0.0021  1.0492  0.4078
  571MOL0     H77025   3.486   1.281   8.120 -3.2640 -1.9248 -1.8958
  571MOL0     H77026   3.236   1.280   8.307 -1.4699  1.5547 -0.7645
  571MOL0     H77027   3.265   1.370   8.167  1.1159  1.8653  1.2715
  571MOL0     H77028   3.250   1.053   8.199 -2.0149  0.1029  1.4912
  571MOL0     H77029   3.133   1.166   8.137  0.8253  0.0547  0.9824
  571MOL0     H77030   3.317   1.237   7.968  0.1800  0.7772  0.7679
  571MOL0     H77031   3.398   1.085   8.007 -1.0807 -2.2889 -1.3490
  571MOL0     H77032   3.151   1.160   7.885  3.7762  2.7265 -0.2751
  571MOL0     H77033   3.160   0.990   7.953  2.5868 -1.3172 -0.4991
  571MOL0     H77034   3.212   0.996   7.698  0.9135 -2.3242  0.2447
  571MOL0     H77035   3.335   1.115   7.731 -1.3535 -1.0001 -2.1099
  571MOL0     H77036   3.239   0.758   7.881  1.9973 -2.7099 -0.3071
  571MOL0     H77037   3.528   0.545   7.869 -2.2591 -2.1573  0.4409
  571MOL0     H77038   3.583   0.628   8.007  1.0180  2.1831 -0.8829
  571MOL0     H77039   3.283   0.559   7.998  1.1982 -2.2163 -2.6513
  571MOL0     H77040   3.413   0.444   8.036  3.7679  0.0251 -1.0449
  571MOL0     H77041   3.481   0.589   8.238 -0.1594  2.0507  1.7663
  571MOL0     H77042   3.323   0.529   8.236 -1.5299  2.2110  0.2299
  571MOL0     H77043   3.303   0.739   8.321 -0.8070  3.0534  1.2300
  571MOL0     H77044   3.255   0.771   8.157  1.2084  1.9807  0.3417
  571MOL0     H77045   3.517   0.725   8.428 -0.5698  0.7660 -0.3251
  571MOL0     H77046   3.705   0.753   8.550  1.2000 -1.0087 -0.2584
  571MOL0     H77047   4.242   0.967   8.554 -2.4438  0.5303 -2.3483
  571MOL0     H77048   4.383   1.067   8.721  1.3574  3.5011  0.3932
  571MOL0     H77049   4.507   1.149   8.944 -2.2147 -1.1353  0.0579
  571MOL0     H77050   4.506   1.219   8.784 -0.8426 -2.5815 -0.1019
  571MOL0     H77051   4.483   1.442   8.943  0.1358 -0.7768  0.0356
  571MOL0     H77052   4.558   1.339   9.058  1.0929 -0.1817 -0.8555
  571MOL0     H77053   4.738   1.269   8.911  0.7499  0.2007  0.9987
  571MOL0     H77054   4.677   1.370   8.781 -1.2933  1.2510  0.0170
  571MOL0     H77055   4.764   1.474   9.048 -0.2882 -0.6121 -0.1058
  571MOL0     H77056   4.695   1.571   8.919 -0.1252 -0.3571  0.5848
  571MOL0     H77057   4.929   1.581   8.849 -1.8444 -0.0231 -2.2430
  571MOL0     H77058   4.870   1.458   8.750  1.4791  2.2735 -0.3551
  571MOL0     H77059   4.992   1.399   9.016 -0.2588  1.3058 -0.2260
  571MOL0     H77060   4.955   1.277   8.895  0.4632  0.7838 -1.7077
  571MOL0     H77061   5.147   1.495   8.876 -0.4864 -0.0347  0.6662
  571MOL0     H77062   5.088   1.424   8.721 -0.4594  0.2744  0.0125
  571MOL0     H77063   5.186   1.211   8.749  0.0924 -0.7404  0.5028
  571MOL0     H77064   5.311   1.344   8.774  1.6549 -0.6295  0.3451
  571MOL0     H77065   4.078   1.330   8.846  4.5000  1.8175  0.6983
  571MOL0     H77066   3.921   1.229   8.685  0.4254  0.4647 -1.5646
  571MOL0     H77067   3.860   1.036   8.273  0.0296 -0.5986 -1.8362
  571MOL0     H77068   3.657   1.011   8.138 -3.5295  2.5684  1.8594
  571MOL0     H77069   3.946   1.235   8.315 -0.1437  0.2831 -0.5844
  571MOL0     H77070   4.154   1.241   8.218 -0.8706  0.0320  0.6423
  571MOL0     H77071   4.374   1.215   7.851 -0.6418  0.0122  1.6642
  571MOL0     H77072   4.574   1.183   7.701 -0.6631 -1.4854  1.3263
  571MOL0     H77073   4.894   1.518   7.683  1.0792 -0.1273  1.5414
  571MOL0     H77074   4.924   1.409   7.550 -0.5043  1.6921  0.2932
  571MOL0     H77075   4.939   1.312   7.831  0.4223  0.1924  0.0453
  571MOL0     H77076   5.071   1.397   7.742 -2.4401  3.3415 -0.9882
  571MOL0     H77077   5.095   1.211   7.578  2.2960  1.7965  1.4911
  571MOL0     H77078   4.954   1.134   7.658  1.6070 -1.0158 -2.8421
  571MOL0     H77079   5.058   1.127   7.859 -0.9231  1.6743 -0.1022
  571MOL0     H77080   5.129   1.036   7.726  0.4561 -0.6949  1.9491
  571MOL0     H77081   5.461   1.284   7.822 -1.7448  0.1400  0.3419
  571MOL0     H77082   4.738   1.546   7.858 -2.8937  3.2559  1.5039
  571MOL0     H77083   4.447   1.661   8.012 -0.8506 -2.5227 -2.9191
  571MOL0     H77084   4.581   1.592   8.117 -1.8869  0.1194  1.3682
  571MOL0     H77085   4.613   1.686   7.972  0.7634 -0.0165  0.0495
  572MOL0     O77086  10.239   2.811   0.700 -0.1701  0.6859 -0.3807
  572MOL0     C77087  10.291   2.831   0.814  0.4502 -0.0307  0.0171
  572MOL0     O77088  10.418   2.810   0.850  0.0932  0.3154 -0.1499
  572MOL0     C77089  10.509   2.757   0.754 -0.6226 -0.1125 -0.1287
  572MOL0     C77090  10.624   2.838   0.722 -0.0669 -0.2088  0.5167
  572MOL0     C77091  10.722   2.784   0.640 -1.1843 -0.0077 -0.3387
  572MOL0     C77092  10.707   2.656   0.586  1.0408  1.0472  0.0365
  572MOL0     O77093  10.800   2.601   0.510 -0.4056 -1.2878  0.3823
  572MOL0     C77094  10.889   2.511   0.579  1.0036 -0.2426  0.9573
  572MOL0     C77095  11.001   2.451   0.498 -0.3164  0.1502  0.3384
  572MOL0     C77096  11.137   2.496   0.557  0.7951  0.0514 -0.2471
  572MOL0     C77097  11.236   2.434   0.466 -0.3165  0.0042  0.8753
  572MOL0     C77098  11.255   2.525   0.334 -0.3498 -0.2545 -0.0640
  572MOL0     C77099  11.390   2.533   0.276 -0.0998 -0.3006 -1.0189
  572MOL0     C77100  11.454   2.397   0.231 -0.6899 -0.1685  0.3080
  572MOL0     C77101  11.589   2.414   0.161  0.3775  0.3014 -0.2294
  572MOL0     N77102  11.694   2.450   0.255 -0.1094  0.1462 -1.3232
  572MOL0     C77103  11.769   2.564   0.263  0.2351 -0.2271 -0.3775
  572MOL0     C77104  11.851   2.556   0.375  0.2062 -0.1451  0.3997
  572MOL0     C77105  11.940   2.667   0.426 -0.0333 -0.6673 -1.0044
  572MOL0     C77106  12.087   2.624   0.444  0.2131  1.0042 -0.6857
  572MOL0     C77107  12.185   2.738   0.449  0.5568 -0.0885  0.4742
  572MOL0     C77108  12.333   2.684   0.442  0.1592 -0.2446 -0.5408
  572MOL0     O77109  12.378   2.639   0.572 -0.0240  0.2675 -0.6828
  572MOL0     C77110  12.511   2.618   0.593 -0.9094  0.5339 -0.6545
  572MOL0     C77111  12.548   2.537   0.710  0.5530 -0.2926 -0.4523
  572MOL0     C77112  12.680   2.516   0.746 -0.3120  0.4917  0.0044
  572MOL0     C77113  12.786   2.551   0.665  0.0433 -0.6853 -0.6840
  572MOL0     C77114  12.925   2.517   0.698  0.0181 -0.0318 -0.8461
  572MOL0     O77115  12.950   2.406   0.786 -0.7307 -0.3732 -0.7985
  572MOL0     C77116  13.078   2.360   0.819 -0.0452 -0.0667 -0.3699
  572MOL0     C77117  13.084   2.279   0.936 -0.8691  0.0739 -0.9451
  572MOL0     C77118  13.199   2.227   0.993 -0.1563  0.2387 -0.5128
  572MOL0     C77119  13.322   2.242   0.923 -0.5865  0.3527 -0.1907
  572MOL0     O77120  13.434   2.170   0.968  0.1319  0.6313  0.6230
  572MOL0     C77121  13.471   2.217   1.098 -0.3450 -0.0404  0.6596
  572MOL0     C77122  13.615   2.172   1.131  0.0623  1.0710  0.8991
  572MOL0     C77123  13.725   2.220   1.038 -1.1495  0.0292  0.1208
  572MOL0     C77124  13.718   2.370   1.014 -0.6739 -0.1799  0.2217
  572MOL0     C77125  13.852   2.412   0.977  0.1636 -0.0192 -1.0184
  572MOL0     C77126  13.938   2.436   1.102 -0.1773 -0.1798 -0.4503
  572MOL0     C77127  14.076   2.489   1.064  0.3218  0.3911 -0.6470
  572MOL0     C77128  14.172   2.461   1.172 -0.0225 -0.1772 -0.6890
  572MOL0    Cl77129  14.339   2.513   1.123 -0.0303  0.3331 -0.0321
  572MOL0     C77130  13.321   2.327   0.816  0.3099 -0.6843  0.8061
  572MOL0     C77131  13.208   2.390   0.766 -0.2846  0.7361 -0.0658
  572MOL0     O77132  13.009   2.573   0.634 -0.0848  0.2628 -0.9315
  572MOL0     C77133  12.753   2.620   0.547 -0.4985  0.3762  0.0971
  572MOL0     C77134  12.623   2.656   0.511 -0.2903 -1.0355  0.0121
  572MOL0     N77135  11.824   2.433   0.423  0.5027 -0.2230 -0.0910
  572MOL0     N77136  11.741   2.361   0.353  0.1755  0.5950 -0.0400
  572MOL0     C77137  10.594   2.573   0.623 -0.6292  0.0490 -1.1416
  572MOL0     C77138  10.496   2.625   0.709 -0.2894 -0.4242 -0.0195
  572MOL0     C77139  10.210   2.893   0.914  0.2657 -0.6877 -0.6768
  572MOL0     C77140  10.073   2.858   0.908  0.0718  0.1675 -0.9040
  572MOL0     C77141   9.979   2.909   0.997  0.1067  0.0612 -0.5625
  572MOL0     C77142  10.021   2.992   1.099  0.1658 -0.0908 -0.1371
  572MOL0     O77143   9.924   3.061   1.171 -0.0181 -0.1157  0.2880
  572MOL0     C77144   9.974   3.154   1.270 -0.0025 -0.1892 -0.7260
  572MOL0     C77145   9.856   3.197   1.350 -0.4092 -0.2723 -0.0576
  572MOL0     C77146   9.893   3.290   1.462  0.0138  0.6893  0.0074
  572MOL0     C77147  10.001   3.248   1.559 -0.3762  0.4869  1.1269
  572MOL0     C77148   9.981   3.121   1.631  0.2986 -0.6890  0.5241
  572MOL0     C77149   9.979   3.014   1.685 -0.4068  0.3903 -0.3352
  572MOL0     C77150  10.155   3.023   1.108  0.1871 -0.0725 -0.6790
  572MOL0     C77151  10.252   2.974   1.025 -0.8951  0.6523 -0.1843
  572MOL0     C77152  10.398   3.000   1.050  0.8260 -0.9641 -0.6364
  572MOL0     H77153  10.642   2.937   0.761 -0.7797  0.4923 -0.8818
  572MOL0     H77154  10.813   2.840   0.617  0.4431 -1.8291  1.2591
  572MOL0     H77155  10.924   2.549   0.675 -3.8589  1.3260  2.4313
  572MOL0     H77156  10.829   2.427   0.617 -0.0565 -0.0165 -0.1381
  572MOL0     H77157  10.974   2.474   0.395  0.4181 -1.2380 -0.2089
  572MOL0     H77158  10.989   2.342   0.496 -1.7028  0.2875 -1.9207
  572MOL0     H77159  11.158   2.462   0.659 -2.3533  0.5961  0.7101
  572MOL0     H77160  11.141   2.605   0.556  0.3667  0.0663 -0.3924
  572MOL0     H77161  11.336   2.450   0.507  0.8510  2.1556 -2.3655
  572MOL0     H77162  11.226   2.330   0.432  1.7176  0.4908 -1.5435
  572MOL0     H77163  11.185   2.497   0.255 -0.5842  3.5997 -1.4550
  572MOL0     H77164  11.231   2.629   0.358 -1.7809 -0.8409  1.2377
  572MOL0     H77165  11.392   2.610   0.198 -0.7064  1.9293  1.0343
  572MOL0     H77166  11.453   2.571   0.358  1.5021 -0.1684 -2.2627
  572MOL0     H77167  11.396   2.350   0.151 -1.4503  2.8030 -1.0088
  572MOL0     H77168  11.466   2.333   0.319  0.8147 -0.9600 -0.4360
  572MOL0     H77169  11.624   2.319   0.120 -0.3791 -0.1282  0.0908
  572MOL0     H77170  11.590   2.487   0.080  2.5338 -0.2940 -0.7947
  572MOL0     H77171  11.747   2.648   0.197  0.3734 -1.7361 -2.4444
  572MOL0     H77172  11.944   2.748   0.354  1.5270  1.2078  1.0525
  572MOL0     H77173  11.892   2.705   0.517 -1.4851  0.4135 -2.1905
  572MOL0     H77174  12.076   2.552   0.525 -3.6037  0.4786 -1.4553
  572MOL0     H77175  12.118   2.563   0.359  1.3880 -0.3473  0.6455
  572MOL0     H77176  12.154   2.796   0.537 -1.7199 -1.6644  0.7891
  572MOL0     H77177  12.168   2.801   0.361  0.5077  0.0957  0.6144
  572MOL0     H77178  12.398   2.766   0.411 -0.4625  0.3766 -0.2490
  572MOL0     H77179  12.343   2.607   0.366  1.7966  0.4231 -1.0369
  572MOL0     H77180  12.471   2.499   0.776  1.2943 -1.7115 -0.3725
  572MOL0     H77181  12.699   2.466   0.840 -1.9630 -0.3118 -0.0590
  572MOL0     H77182  12.988   2.253   0.979  0.5839  0.1280  2.6639
  572MOL0     H77183  13.187   2.175   1.088  0.9003  1.4558  0.3164
  572MOL0     H77184  13.465   2.326   1.109  1.6747  0.0383  1.3908
  572MOL0     H77185  13.395   2.176   1.165 -0.9129 -0.6781 -0.3495
  572MOL0     H77186  13.629   2.214   1.231 -3.5042 -0.8781  2.4260
  572MOL0     H77187  13.623   2.064   1.137  1.0063  1.0079 -0.7696
  572MOL0     H77188  13.814   2.184   1.090 -1.0679  1.3763  0.9605
  572MOL0     H77189  13.719   2.167   0.942 -0.4211 -3.1701  1.6922
  572MOL0     H77190  13.683   2.428   1.100  0.2373  0.0647  0.4390
  572MOL0     H77191  13.645   2.382   0.934 -0.6874 -0.5918  0.1696
  572MOL0     H77192  13.858   2.498   0.910 -0.1667  0.5137 -0.3741
  572MOL0     H77193  13.894   2.326   0.925 -3.4478 -2.5508 -0.1267
  572MOL0     H77194  13.899   2.508   1.175 -3.0679 -1.5984 -0.4598
  572MOL0     H77195  13.957   2.340   1.151 -1.4785  0.2067  0.8630
  572MOL0     H77196  14.057   2.595   1.042 -1.6413  0.2258  0.0849
  572MOL0     H77197  14.115   2.445   0.972  5.1033  0.3718  1.1314
  572MOL0     H77198  14.150   2.512   1.266  0.5396  0.6289 -0.9784
  572MOL0     H77199  14.175   2.353   1.191 -2.4140 -0.3328 -0.9005
  572MOL0     H77200  13.421   2.339   0.775 -0.1059 -1.0571 -0.3522
  572MOL0     H77201  13.225   2.448   0.676 -2.2995 -0.3159 -1.2016
  572MOL0     H77202  12.837   2.636   0.481 -0.9546 -1.0673 -0.8917
  572MOL0     H77203  12.601   2.717   0.424  2.5366  0.1474  0.0105
  572MOL0     H77204  10.591   2.469   0.591  4.4980 -0.4431 -0.8006
  572MOL0     H77205  10.406   2.569   0.731  0.5478 -1.8085  0.0166
  572MOL0     H77206  10.047   2.794   0.824  1.0105  3.4184 -3.9347
  572MOL0     H77207   9.873   2.894   0.978  0.3619 -2.6268 -0.1702
  572MOL0     H77208  10.010   3.249   1.230 -1.4865  0.6029 -0.2405
  572MOL0     H77209  10.045   3.106   1.339 -0.3880 -0.2771 -0.3874
  572MOL0     H77210   9.821   3.112   1.409  0.5900  1.8560  3.9588
  572MOL0     H77211   9.786   3.248   1.282  2.4707  2.3065 -1.3356
  572MOL0     H77212   9.806   3.311   1.525  1.2960  1.5636  1.5849
  572MOL0     H77213   9.923   3.389   1.425 -0.7403  1.5832  1.6590
  572MOL0     H77214  10.095   3.256   1.504 -0.3372  2.2804  1.3941
  572MOL0     H77215  10.007   3.325   1.636  2.4626  2.8254 -1.2174
  572MOL0     H77216   9.984   2.916   1.728  1.0571  0.0533 -1.1903
  572MOL0     H77217  10.187   3.080   1.194 -1.7741 -3.5991  2.7250
  572MOL0     H77218  10.431   3.037   0.952 -2.3695 -0.6314 -1.6987
  572MOL0     H77219  10.414   3.081   1.122 -1.7572 -1.9362  1.1791
  572MOL0     H77220  10.455   2.914   1.085  1.6294  0.6467  2.3548
  573MOL0     O77221   4.035   5.443  10.492  0.3990  0.0819  0.3601
  573MOL0     C77222   3.930   5.510  10.517  0.1047  0.5070 -0.5321
  573MOL0     O77223   3.925   5.650  10.501  0.0728  0.4642 -0.2417
  573MOL0     C77224   3.997   5.724  10.421  0.3608  0.5358 -0.1392
  573MOL0     C77225   4.081   5.680  10.320  0.6954  0.0081 -0.3232
  573MOL0     C77226   4.143   5.766  10.227  0.3179 -0.1006 -0.1511
  573MOL0     C77227   4.115   5.910  10.243  0.3366  0.4741  0.7784
  573MOL0     O77228   4.164   6.018  10.173  0.3878  0.5525  0.1690
  573MOL0     C77229   4.285   5.993  10.113 -0.9873  0.3293  0.4760
  573MOL0     C77230   4.355   6.134  10.105  0.0850 -0.4209 -0.0375
  573MOL0     C77231   4.470   6.130  10.002  0.1484  0.8260  0.3692
  573MOL0     C77232   4.569   6.007  10.027 -0.4682  0.0858  0.5702
  573MOL0     C77233   4.705   6.023   9.946  0.4882  0.8260 -0.5986
  573MOL0     C77234   4.793   5.886   9.932  0.0539 -1.0143 -0.1193
  573MOL0     C77235   4.903   5.875   9.827  0.0920  0.2013  0.1920
  573MOL0     C77236   5.035   5.932   9.880  0.2744 -0.1205 -0.7876
  573MOL0     N77237   5.110   5.860   9.981 -0.4977  0.2550 -0.3849
  573MOL0     C77238   5.178   5.743   9.963  0.3760  0.5056  0.9252
  573MOL0     C77239   5.233   5.708  10.075  0.3489  0.8658 -0.3188
  573MOL0     C77240   5.310   5.572  10.092  0.2532 -0.1527  0.3320
  573MOL0     C77241   5.207   5.464  10.118  0.3393  0.5035 -0.0074
  573MOL0     C77242   5.262   5.329  10.077  1.1833  0.2797  0.6194
  573MOL0     C77243   5.379   5.277  10.147 -0.3951 -0.2597 -0.7270
  573MOL0     O77244   5.443   5.187  10.061  0.5205 -0.8705 -0.5477
  573MOL0     C77245   5.576   5.170  10.068 -0.3543  0.1494 -0.2024
  573MOL0     C77246   5.637   5.172  10.193 -1.1605  0.2511  0.4766
  573MOL0     C77247   5.776   5.146  10.204  0.1491  0.0533  0.3163
  573MOL0     C77248   5.858   5.131  10.098 -1.1177  0.0840 -0.6930
  573MOL0     C77249   6.001   5.097  10.094  0.3131 -0.9514  0.9271
  573MOL0     O77250   6.049   5.065  10.220 -0.0881 -0.7489  0.2156
  573MOL0     C77251   6.185   5.043  10.235 -0.2944  0.1792  0.2043
  573MOL0     C77252   6.250   4.940  10.164  0.6158  0.2084 -0.6618
  573MOL0     C77253   6.392   4.917  10.182 -0.8002  0.6830  0.0334
  573MOL0     C77254   6.471   4.995  10.271 -0.1058 -1.1520 -0.0196
  573MOL0     O77255   6.609   4.993  10.282  0.6379  0.7265 -0.1007
  573MOL0     C77256   6.687   4.905  10.198 -0.5884  0.4752  0.1385
  573MOL0     C77257   6.843   4.928  10.234  0.3995  0.0837  0.0234
  573MOL0     C77258   6.900   5.057  10.170  0.2874  0.0772 -0.7969
  573MOL0     C77259   7.047   5.083  10.206 -0.5521  0.5405  0.0909
  573MOL0     C77260   7.089   5.229  10.182 -0.7148 -0.4471 -0.2737
  573MOL0     C77261   7.219   5.274  10.242  0.2462  0.0739 -0.0220
  573MOL0     C77262   7.344   5.203  10.184  0.3095  0.1437  0.5386
  573MOL0     C77263   7.470   5.284  10.197 -0.0379 -0.5376 -0.4520
  573MOL0    Cl77264   7.523   5.327  10.367  0.0368  0.2847 -0.5873
  573MOL0     C77265   6.401   5.107  10.327  0.6914  0.3166  0.0834
  573MOL0     C77266   6.264   5.127  10.311 -0.8166  0.0212  0.6375
  573MOL0     O77267   6.062   5.090   9.983  0.9249  0.0990 -0.2801
  573MOL0     C77268   5.790   5.133   9.968 -1.9905 -0.2970 -0.5880
  573MOL0     C77269   5.650   5.150   9.953  0.4287  0.8050 -1.5339
  573MOL0     N77270   5.207   5.807  10.171 -0.1627 -0.6912 -0.0892
  573MOL0     N77271   5.135   5.898  10.108 -0.1210  0.8957  0.2307
  573MOL0     C77272   4.050   5.954  10.359  0.0507 -0.4748  0.0078
  573MOL0     C77273   3.983   5.861  10.436 -0.1919  0.4223  0.5027
  573MOL0     C77274   3.816   5.443  10.588  0.6980 -0.5165 -0.3350
  573MOL0     C77275   3.724   5.520  10.670 -0.9414  0.2121  1.6197
  573MOL0     C77276   3.609   5.471  10.722 -0.1654  0.0054  0.4016
  573MOL0     C77277   3.567   5.336  10.698 -0.6800 -0.0141  0.4154
  573MOL0     O77278   3.447   5.278  10.730 -0.6173  0.1548  0.4160
  573MOL0     C77279   3.339   5.370  10.769 -0.4917 -0.1678  0.4921
  573MOL0     C77280   3.212   5.293  10.798 -1.0982  1.0726  0.2766
  573MOL0     C77281   3.089   5.384  10.813 -0.1185 -0.6863 -0.0780
  573MOL0     C77282   2.962   5.326  10.880 -0.6409  0.7501 -0.0611
  573MOL0     C77283   2.866   5.429  10.922  1.0800 -0.1204 -0.5289
  573MOL0     C77284   2.773   5.504  10.963  0.0350  0.4603  0.4560
  573MOL0     C77285   3.663   5.252  10.642  0.3429 -0.2767 -0.6198
  573MOL0     C77286   3.779   5.303  10.587  0.4349 -0.1044 -0.0051
  573MOL0     C77287   3.873   5.208  10.515 -0.5583  0.1409  0.0879
  573MOL0     H77288   4.104   5.573  10.325  0.4483  0.0055  1.2942
  573MOL0     H77289   4.209   5.714  10.159 -0.1713 -1.0162  0.0634
  573MOL0     H77290   4.342   5.919  10.170 -3.6988 -1.3969  1.1022
  573MOL0     H77291   4.270   5.950  10.013  2.0127 -0.1004  0.1092
  573MOL0     H77292   4.401   6.157  10.202  1.3088  1.2012 -0.9537
  573MOL0     H77293   4.276   6.204  10.079  0.3622 -1.0286 -2.8755
  573MOL0     H77294   4.530   6.222   9.999  0.8345  0.5037 -4.6987
  573MOL0     H77295   4.423   6.122   9.904  0.0244 -0.2443  0.5093
  573MOL0     H77296   4.594   5.998  10.133  0.2880 -1.6483  0.2832
  573MOL0     H77297   4.523   5.917   9.985  0.8987  1.5131 -4.8305
  573MOL0     H77298   4.675   6.065   9.849  3.3797  2.3279 -0.9289
  573MOL0     H77299   4.770   6.098   9.992  3.9993 -1.0390 -2.1626
  573MOL0     H77300   4.839   5.879  10.031 -0.2489  1.0861  0.2198
  573MOL0     H77301   4.727   5.800   9.918  2.2717 -2.5007 -2.0131
  573MOL0     H77302   4.870   5.935   9.741  0.4204  0.8646  0.5293
  573MOL0     H77303   4.919   5.770   9.799  1.9903  0.1488  1.3175
  573MOL0     H77304   5.100   5.949   9.794  0.1358  0.4076 -0.7892
  573MOL0     H77305   5.009   6.031   9.918 -1.4789 -0.3797 -1.2181
  573MOL0     H77306   5.194   5.675   9.880  2.9329  2.2680 -0.1493
  573MOL0     H77307   5.358   5.541   9.999 -0.2195 -1.9250  0.6428
  573MOL0     H77308   5.384   5.600  10.168 -1.1195  2.6023  0.7739
  573MOL0     H77309   5.177   5.456  10.222  1.2585 -1.0807  0.1800
  573MOL0     H77310   5.116   5.491  10.063  0.1244  2.4385  1.2067
  573MOL0     H77311   5.283   5.332   9.970 -3.0291 -0.3371 -0.4257
  573MOL0     H77312   5.175   5.263  10.081  0.9475  0.3636 -1.7729
  573MOL0     H77313   5.349   5.228  10.239  1.9342 -0.8850 -0.2383
  573MOL0     H77314   5.452   5.356  10.170 -4.0530  2.8171  1.5657
  573MOL0     H77315   5.589   5.182  10.290 -1.3213  0.8431  0.3339
  573MOL0     H77316   5.808   5.162  10.307 -4.9320  2.1805  1.8815
  573MOL0     H77317   6.188   4.876  10.102  2.6683 -2.1562 -0.4193
  573MOL0     H77318   6.446   4.839  10.129  1.3745  1.9203  0.2991
  573MOL0     H77319   6.655   4.804  10.224 -2.7688 -0.0855 -3.8957
  573MOL0     H77320   6.670   4.928  10.092  1.8729  1.8755 -0.0281
  573MOL0     H77321   6.853   4.946  10.342  3.7139  0.2403 -0.2070
  573MOL0     H77322   6.899   4.837  10.211 -2.0679 -1.7578  0.9106
  573MOL0     H77323   6.899   5.045  10.061  0.7067 -0.9480 -0.7008
  573MOL0     H77324   6.846   5.149  10.193 -1.9781 -0.2519 -4.1006
  573MOL0     H77325   7.121   5.019  10.156 -1.4635 -1.9602  1.7447
  573MOL0     H77326   7.063   5.067  10.313  0.9107 -0.1291 -0.2017
  573MOL0     H77327   7.011   5.288  10.230 -0.6523 -0.6993  0.1445
  573MOL0     H77328   7.089   5.239  10.073 -0.0154  0.2743 -0.2197
  573MOL0     H77329   7.237   5.382  10.235 -1.8346  0.5296  1.0351
  573MOL0     H77330   7.224   5.273  10.351  2.4332  0.9117 -0.0461
  573MOL0     H77331   7.330   5.191  10.076  0.7930  0.1984  0.4648
  573MOL0     H77332   7.354   5.107  10.235 -0.4539 -1.2901 -1.8632
  573MOL0     H77333   7.548   5.220  10.156  0.2671  0.9728 -2.4009
  573MOL0     H77334   7.460   5.377  10.140  0.3357 -0.7576 -0.8792
  573MOL0     H77335   6.440   5.182  10.395  4.8817 -1.0488 -0.5021
  573MOL0     H77336   6.207   5.205  10.360 -2.2930 -0.2752 -0.5338
  573MOL0     H77337   5.858   5.109   9.886  1.2093  0.0900  1.7485
  573MOL0     H77338   5.596   5.148   9.858 -1.7390  1.6838 -0.3885
  573MOL0     H77339   4.044   6.062  10.371  1.1331 -0.2505 -1.2261
  573MOL0     H77340   3.928   5.900  10.521 -0.2822 -1.4750  1.3485
  573MOL0     H77341   3.756   5.622  10.688 -0.2413  0.5679 -1.1758
  573MOL0     H77342   3.547   5.532  10.787 -2.3814 -0.9214 -0.7398
  573MOL0     H77343   3.318   5.452  10.700  1.3167 -1.2201 -1.4429
  573MOL0     H77344   3.366   5.415  10.865  1.9668 -0.2503 -0.0830
  573MOL0     H77345   3.233   5.236  10.889 -0.6657 -0.3246 -0.6738
  573MOL0     H77346   3.211   5.222  10.715  1.7394  0.7423  0.4283
  573MOL0     H77347   3.079   5.406  10.707  0.1222 -2.6975 -0.5548
  573MOL0     H77348   3.125   5.464  10.879 -2.8909  1.5502 -1.0881
  573MOL0     H77349   2.916   5.257  10.808 -1.1183  0.6275  0.3554
  573MOL0     H77350   2.994   5.268  10.967  0.6984  0.8662 -0.4572
  573MOL0     H77351   2.687   5.562  10.989  0.5945  1.1901  0.6982
  573MOL0     H77352   3.649   5.144  10.641  2.0422 -0.5212 -1.1807
  573MOL0     H77353   3.912   5.249  10.421  1.9011  2.4144  1.9742
  573MOL0     H77354   3.954   5.186  10.584 -0.9378 -0.1406  0.4531
  573MOL0     H77355   3.819   5.115  10.493 -0.0481  0.2342 -1.7212
  574MOL0     O77356   7.301  10.722   5.265  0.5267 -0.3895 -0.0876
  574MOL0     C77357   7.326  10.786   5.164  0.7664 -0.2349 -0.0024
  574MOL0     O77358   7.404  10.888   5.158  0.4822 -0.4357 -0.7302
  574MOL0     C77359   7.507  10.927   5.242  0.0324 -0.0036  0.1634
  574MOL0     C77360   7.578  10.838   5.319 -0.4464 -0.0793 -0.5591
  574MOL0     C77361   7.685  10.883   5.391 -0.0458 -0.4288  0.7073
  574MOL0     C77362   7.720  11.018   5.390  0.3630 -0.8619 -0.7527
  574MOL0     O77363   7.826  11.066   5.473 -0.1980 -0.7655  0.2456
  574MOL0     C77364   7.916  10.984   5.540  0.1011  0.2032 -0.8656
  574MOL0     C77365   8.032  10.936   5.460 -0.7077 -0.9227  0.4923
  574MOL0     C77366   8.139  10.868   5.550  0.9986 -0.3709 -0.1135
  574MOL0     C77367   8.242  10.783   5.465  0.5389 -0.7310  1.2059
  574MOL0     C77368   8.341  10.699   5.537  0.4967 -0.1554  0.5925
  574MOL0     C77369   8.278  10.597   5.635 -0.3857 -0.1378 -0.2377
  574MOL0     C77370   8.386  10.539   5.722  0.1434 -0.1812 -0.7303
  574MOL0     C77371   8.387  10.387   5.706 -0.2335  0.4613  0.0580
  574MOL0     N77372   8.268  10.324   5.755  0.9120  1.2142 -0.4488
  574MOL0     C77373   8.211  10.336   5.876 -0.6009 -0.4438 -0.2184
  574MOL0     C77374   8.095  10.266   5.865  0.3655 -0.3691  0.6713
  574MOL0     C77375   7.992  10.271   5.977  0.2237 -0.2989 -0.3370
  574MOL0     C77376   7.935  10.139   6.022 -0.3059 -0.4940  0.3036
  574MOL0     C77377   8.057  10.058   6.081 -0.0404 -0.0291  1.6877
  574MOL0     C77378   8.072  10.091   6.229  0.5868 -1.1111  0.1608
  574MOL0     O77379   7.971  10.030   6.299 -0.7922  0.9503 -0.1788
  574MOL0     C77380   7.994  10.021   6.430  0.0840 -0.5263  0.1164
  574MOL0     C77381   7.919   9.923   6.506  0.3701 -0.4795  0.2851
  574MOL0     C77382   7.942   9.901   6.640  0.0174  0.7444  0.7266
  574MOL0     C77383   8.041   9.974   6.715 -0.7714  0.4382  0.2365
  574MOL0     C77384   8.075   9.952   6.856  0.7726  0.3693  0.2675
  574MOL0     O77385   8.016   9.844   6.911  0.5537  0.4855 -0.0702
  574MOL0     C77386   8.070   9.796   7.031  0.1238  0.0470  0.0921
  574MOL0     C77387   8.203   9.762   7.049  0.1677 -0.1903 -0.5735
  574MOL0     C77388   8.243   9.707   7.173  0.0698 -0.6178  0.7940
  574MOL0     C77389   8.153   9.706   7.279  1.1169  0.3329 -0.3566
  574MOL0     O77390   8.192   9.650   7.396 -0.0540 -0.9301  0.3539
  574MOL0     C77391   8.177   9.734   7.508 -0.2744 -0.6969 -0.3718
  574MOL0     C77392   8.302   9.805   7.546  1.0066  0.0575  0.2753
  574MOL0     C77393   8.264   9.879   7.673 -1.0807 -0.9553 -0.5910
  574MOL0     C77394   8.396   9.934   7.742 -0.2620 -0.7564  0.2672
  574MOL0     C77395   8.515   9.845   7.765 -0.2454 -0.1626  0.3165
  574MOL0     C77396   8.594   9.898   7.890  0.5634 -0.4398  1.1117
  574MOL0     C77397   8.703   9.798   7.930 -0.9749  0.4277 -0.4207
  574MOL0     C77398   8.802   9.874   8.025  1.2151 -0.4378  0.3049
  574MOL0    Cl77399   8.919   9.751   8.086 -0.2846  0.3639  0.1994
  574MOL0     C77400   8.019   9.741   7.259 -0.7626 -0.8047 -0.6807
  574MOL0     C77401   7.976   9.780   7.133  0.1085  0.8189 -0.2271
  574MOL0     O77402   8.139  10.035   6.916 -0.0486  0.0335  0.2429
  574MOL0     C77403   8.119  10.066   6.639  0.0733 -0.1154  0.0333
  574MOL0     C77404   8.093  10.089   6.502 -0.3332  0.7642  1.1445
  574MOL0     N77405   8.089  10.206   5.739 -1.0360 -1.0308  0.4578
  574MOL0     N77406   8.185  10.255   5.671 -0.6684  0.0409 -0.9154
  574MOL0     C77407   7.651  11.111   5.317  0.3686 -0.7483  0.9233
  574MOL0     C77408   7.533  11.065   5.244 -0.0478 -0.2696 -0.7223
  574MOL0     C77409   7.270  10.737   5.031  0.5819  0.1173  0.3549
  574MOL0     C77410   7.292  10.832   4.914 -1.6065 -0.5553  0.0270
  574MOL0     C77411   7.261  10.785   4.785  0.6604  0.5996  0.1709
  574MOL0     C77412   7.184  10.668   4.766  0.7267 -0.3327  0.1262
  574MOL0     O77413   7.124  10.629   4.648  0.0199  0.0156  0.0651
  574MOL0     C77414   7.172  10.694   4.528 -0.0838 -0.9356  0.4836
  574MOL0     C77415   7.306  10.634   4.484  1.1878  0.2816  0.2897
  574MOL0     C77416   7.312  10.651   4.335 -0.1649 -0.8067  0.1751
  574MOL0     C77417   7.343  10.791   4.285 -0.1872  0.3619 -0.2887
  574MOL0     C77418   7.480  10.824   4.326  0.7920 -0.7145 -0.2142
  574MOL0     C77419   7.580  10.872   4.371  0.3250  0.1234 -0.4830
  574MOL0     C77420   7.156  10.587   4.879  0.1839 -0.1981  0.2439
  574MOL0     C77421   7.204  10.619   5.004  0.1285  0.2383 -0.2415
  574MOL0     C77422   7.185  10.513   5.102 -0.2464 -0.0225 -0.2539
  574MOL0     H77423   7.552  10.733   5.327 -0.3114 -0.1240 -0.7110
  574MOL0     H77424   7.728  10.802   5.448  0.2933 -0.7693 -0.0273
  574MOL0     H77425   7.962  11.034   5.626  0.5833 -2.3107  0.4171
  574MOL0     H77426   7.859  10.902   5.583 -1.7427  1.1892 -1.3118
  574MOL0     H77427   8.077  11.021   5.409 -1.1100 -0.3492  1.0637
  574MOL0     H77428   7.988  10.862   5.393 -3.8498 -0.2755  1.6311
  574MOL0     H77429   8.091  10.812   5.631 -1.3165  0.3417 -0.9154
  574MOL0     H77430   8.192  10.940   5.613 -2.6152  2.6070 -0.1542
  574MOL0     H77431   8.176  10.718   5.408 -1.9064  1.5746  1.2037
  574MOL0     H77432   8.300  10.839   5.390  2.9038 -1.4406  2.3921
  574MOL0     H77433   8.405  10.647   5.466  0.4608 -0.3197  0.6783
  574MOL0     H77434   8.409  10.759   5.599  2.6531 -3.5888  1.8496
  574MOL0     H77435   8.203  10.650   5.695  2.7864  3.1609  1.2431
  574MOL0     H77436   8.227  10.529   5.566  1.1205 -1.0235 -0.5290
  574MOL0     H77437   8.363  10.570   5.824 -0.1110 -0.0721 -0.8214
  574MOL0     H77438   8.482  10.573   5.681  0.9815 -3.4308 -1.7776
  574MOL0     H77439   8.389  10.356   5.601 -1.8166  0.8640 -0.1111
  574MOL0     H77440   8.481  10.351   5.750  0.1902  1.2424 -0.1907
  574MOL0     H77441   8.242  10.408   5.951 -1.6475  1.3012 -1.3658
  574MOL0     H77442   8.038  10.317   6.065 -4.5854  1.0606  1.8228
  574MOL0     H77443   7.909  10.342   5.974 -1.6652 -2.0948  3.0052
  574MOL0     H77444   7.854  10.146   6.095 -0.1334 -1.9701  0.6614
  574MOL0     H77445   7.891  10.090   5.935 -2.5211  0.7171  0.6762
  574MOL0     H77446   8.151  10.078   6.030 -1.6037  2.0375 -0.6117
  574MOL0     H77447   8.038   9.951   6.067  1.1383 -0.0194 -0.3182
  574MOL0     H77448   8.066  10.199   6.246 -2.6297 -1.0063 -0.9347
  574MOL0     H77449   8.169  10.053   6.261  1.8268 -0.5388 -2.6216
  574MOL0     H77450   7.853   9.861   6.446  1.6804 -2.3360  0.6680
  574MOL0     H77451   7.871   9.826   6.674 -1.3195 -0.4856 -4.0239
  574MOL0     H77452   8.272   9.798   6.974  0.5385 -0.0332 -0.1628
  574MOL0     H77453   8.340   9.665   7.194 -0.8483 -1.1443  5.0716
  574MOL0     H77454   8.096   9.807   7.498  0.0733 -0.5388 -2.3246
  574MOL0     H77455   8.149   9.665   7.588 -0.8290  1.4302  1.3533
  574MOL0     H77456   8.388   9.739   7.562 -0.0437 -1.4095  0.0644
  574MOL0     H77457   8.332   9.870   7.463 -0.2797  0.5639  0.1803
  574MOL0     H77458   8.210   9.971   7.648  0.0898  1.0550  3.4898
  574MOL0     H77459   8.194   9.824   7.737 -2.0980 -0.4062 -1.2137
  574MOL0     H77460   8.348   9.984   7.827  1.4530  1.0167  0.2491
  574MOL0     H77461   8.427  10.016   7.677 -0.5702  0.2487  1.3412
  574MOL0     H77462   8.575   9.845   7.673 -1.4775 -0.4880 -0.5152
  574MOL0     H77463   8.476   9.743   7.780 -0.4431  0.0535  1.3799
  574MOL0     H77464   8.647   9.993   7.877  0.3942 -0.2235  1.9723
  574MOL0     H77465   8.525   9.911   7.973 -0.6580 -1.2981  0.2543
  574MOL0     H77466   8.760   9.763   7.843  1.1890 -1.0930  1.4767
  574MOL0     H77467   8.658   9.721   7.993  2.4080  0.3337  2.2142
  574MOL0     H77468   8.846   9.941   7.950 -0.6223 -1.6711 -2.0326
  574MOL0     H77469   8.750   9.929   8.104  0.6439 -3.0292  1.8330
  574MOL0     H77470   7.945   9.726   7.337 -1.2047 -0.4262 -1.0206
  574MOL0     H77471   7.871   9.802   7.115 -0.4729 -2.3476 -1.2692
  574MOL0     H77472   8.202  10.124   6.679  1.8150  0.3941 -3.8344
  574MOL0     H77473   8.147  10.167   6.451  1.0619 -0.9731 -0.1730
  574MOL0     H77474   7.680  11.216   5.313  3.4469 -1.5376 -0.1570
  574MOL0     H77475   7.483  11.130   5.173 -1.5339  2.2107  2.3416
  574MOL0     H77476   7.337  10.930   4.926 -2.5712  0.0790 -1.2640
  574MOL0     H77477   7.290  10.839   4.695 -0.6910  1.5046  0.2619
  574MOL0     H77478   7.173  10.803   4.532  0.3274 -0.9562  0.9994
  574MOL0     H77479   7.094  10.677   4.454 -0.3881 -1.9874  1.0205
  574MOL0     H77480   7.309  10.527   4.503 -0.4189 -0.1429 -1.5845
  574MOL0     H77481   7.381  10.688   4.543  1.1386  1.1203 -0.3924
  574MOL0     H77482   7.218  10.616   4.291  0.1748  0.5789 -1.8062
  574MOL0     H77483   7.388  10.589   4.285  0.6838  0.6861 -0.4485
  574MOL0     H77484   7.350  10.803   4.176  2.3076  4.5651  0.0925
  574MOL0     H77485   7.271  10.857   4.333  1.2010  0.8542  1.2143
  574MOL0     H77486   7.659  10.915   4.430 -1.6650  2.3646  0.7140
  574MOL0     H77487   7.114  10.490   4.853  0.9479 -2.0447  4.8854
  574MOL0     H77488   7.116  10.437   5.064 -2.4508  1.4033  0.7262
  574MOL0     H77489   7.274  10.456   5.131  0.5861  0.3247 -1.9580
  574MOL0     H77490   7.122  10.552   5.182  0.0946  3.6660 -1.5419
  575MOL0     O77491   2.227   2.161  10.524 -1.4602 -0.3264  0.8374
  575MOL0     C77492   2.179   2.072  10.591  0.2589 -0.1626  0.1215
  575MOL0     O77493   2.205   2.043  10.721 -0.2800  0.5522  0.1192
  575MOL0     C77494   2.311   2.099  10.784 -0.1935  0.8918  0.8920
  575MOL0     C77495   2.287   2.206  10.877 -0.6897  0.4563 -0.5936
  575MOL0     C77496   2.398   2.249  10.956 -0.0275  0.5038 -0.8859
  575MOL0     C77497   2.536   2.206  10.940  0.5832  0.0578  0.4661
  575MOL0     O77498   2.645   2.228  11.027  0.9741  0.4873  0.2715
  575MOL0     C77499   2.624   2.319  11.140 -0.2713  0.3784  0.9310
  575MOL0     C77500   2.658   2.469  11.116  0.7896  0.2251 -0.1127
  575MOL0     C77501   2.762   2.486  11.002 -0.2559 -0.6104  0.3393
  575MOL0     C77502   2.909   2.451  11.041  0.0712 -0.1985 -0.1547
  575MOL0     C77503   3.004   2.454  10.917 -0.7964  0.5306  0.6093
  575MOL0     C77504   2.968   2.349  10.803 -0.4666  0.1043  0.8812
  575MOL0     C77505   2.922   2.211  10.843  0.5307  0.2083 -0.6091
  575MOL0     C77506   3.021   2.129  10.942  0.6470 -0.3201  0.1693
  575MOL0     N77507   3.155   2.128  10.893 -0.7305  1.0423  1.4224
  575MOL0     C77508   3.187   2.062  10.772 -0.3407  0.2510 -0.0666
  575MOL0     C77509   3.326   2.071  10.769  0.2853 -0.2724 -1.0037
  575MOL0     C77510   3.413   2.000  10.678 -0.6001  0.2103  0.4188
  575MOL0     C77511   3.549   1.959  10.734  0.2613 -0.1121 -0.2762
  575MOL0     C77512   3.642   1.919  10.618  0.5521 -0.1448 -1.1284
  575MOL0     C77513   3.778   1.868  10.660 -0.7201  0.2564  0.2040
  575MOL0     O77514   3.856   1.836  10.544 -0.0984 -0.0083 -0.2435
  575MOL0     C77515   3.967   1.909  10.506 -0.5693 -0.0180 -0.5141
  575MOL0     C77516   4.011   2.035  10.575  0.0455  0.4590  0.9131
  575MOL0     C77517   4.135   2.099  10.545 -1.4355  0.7456  0.8570
  575MOL0     C77518   4.210   2.044  10.431  0.2540  0.8685  0.2647
  575MOL0     C77519   4.329   2.098  10.383  0.6399 -0.2307 -0.2762
  575MOL0     O77520   4.381   2.046  10.260 -0.1693 -0.2525  0.6376
  575MOL0     C77521   4.505   2.079  10.221  0.1813  0.8186  0.4919
  575MOL0     C77522   4.621   2.052  10.297  0.2960 -0.7440 -0.2370
  575MOL0     C77523   4.752   2.083  10.253  1.2376 -0.0435  0.0807
  575MOL0     C77524   4.763   2.132  10.126 -0.4308 -0.0945 -0.0009
  575MOL0     O77525   4.894   2.159  10.083  0.1902  0.1212  0.5241
  575MOL0     C77526   4.908   2.122   9.941  0.2495  0.3506 -0.2277
  575MOL0     C77527   5.049   2.087   9.904  0.8652 -0.5441 -0.6594
  575MOL0     C77528   5.152   2.203   9.936  0.1041  0.0286 -1.0724
  575MOL0     C77529   5.291   2.143   9.896  0.4142  0.5834 -0.4450
  575MOL0     C77530   5.409   2.239   9.905 -0.3283  0.2795  1.0716
  575MOL0     C77531   5.460   2.282   9.763  0.1701 -0.4553  0.7867
  575MOL0     C77532   5.558   2.401   9.766  0.6142 -0.0585 -0.2311
  575MOL0     C77533   5.555   2.472   9.630 -0.2747  0.9335 -0.1405
  575MOL0    Cl77534   5.663   2.620   9.620  0.0777 -0.1425  0.8135
  575MOL0     C77535   4.646   2.152  10.043 -0.5334 -0.5892  0.3186
  575MOL0     C77536   4.517   2.122  10.089 -0.1477 -0.9000  0.0929
  575MOL0     O77537   4.388   2.173  10.463 -0.2131 -0.2753 -0.0304
  575MOL0     C77538   4.160   1.935  10.350 -0.3133  0.1206 -0.1422
  575MOL0     C77539   4.047   1.874  10.397  0.6265  1.0070  0.8379
  575MOL0     N77540   3.367   2.135  10.884  0.8651 -0.0584 -0.4982
  575MOL0     N77541   3.260   2.175  10.962 -0.2678 -0.1388  0.1179
  575MOL0     C77542   2.552   2.114  10.834 -0.0758 -0.2855 -0.0930
  575MOL0     C77543   2.444   2.060  10.761 -0.5048 -0.0766  0.1515
  575MOL0     C77544   2.085   1.983  10.523  0.0642 -0.8950  0.0056
  575MOL0     C77545   2.001   1.903  10.605  0.1195 -0.2708  0.1111
  575MOL0     C77546   1.886   1.836  10.556 -0.9583 -0.1018 -0.3049
  575MOL0     C77547   1.857   1.853  10.418 -0.2931  0.5009  0.4114
  575MOL0     O77548   1.744   1.806  10.360  0.5560 -0.4308  0.0708
  575MOL0     C77549   1.641   1.747  10.447 -0.2537 -0.8270 -0.1698
  575MOL0     C77550   1.503   1.762  10.380  0.3176  0.9939 -0.0356
  575MOL0     C77551   1.457   1.899  10.379 -0.7788  0.2895  0.0923
  575MOL0     C77552   1.354   1.927  10.280  0.0077 -0.5700  0.2284
  575MOL0     C77553   1.398   1.905  10.142 -0.3493 -0.3001 -0.2695
  575MOL0     C77554   1.427   1.901  10.022  0.2343 -0.0462 -0.2353
  575MOL0     C77555   1.946   1.917  10.341 -0.4284  0.3855 -0.2642
  575MOL0     C77556   2.063   1.977  10.385  0.5988  0.0439 -0.0245
  575MOL0     C77557   2.162   2.029  10.285  0.0670  0.1727 -0.5829
  575MOL0     H77558   2.184   2.233  10.898 -0.2053 -0.1539  3.3916
  575MOL0     H77559   2.370   2.310  11.041 -1.5509 -0.4340 -0.6600
  575MOL0     H77560   2.519   2.318  11.171 -1.6452  1.0156 -3.0890
  575MOL0     H77561   2.690   2.279  11.218  1.6579 -0.6844 -1.1452
  575MOL0     H77562   2.699   2.518  11.205 -2.6941  0.2400  1.6487
  575MOL0     H77563   2.566   2.521  11.090  0.1514 -0.4669  0.6675
  575MOL0     H77564   2.767   2.588  10.962  3.1739 -1.5700 -2.2099
  575MOL0     H77565   2.738   2.426  10.913  1.0863 -0.0609 -0.4209
  575MOL0     H77566   2.946   2.522  11.116 -0.7297  0.7224 -0.6150
  575MOL0     H77567   2.902   2.353  11.089 -0.9345  0.7521  1.7919
  575MOL0     H77568   3.017   2.553  10.872 -2.4224 -0.2723 -1.8656
  575MOL0     H77569   3.112   2.443  10.933 -0.4040  0.7201 -1.5325
  575MOL0     H77570   2.888   2.396  10.745 -0.6747 -3.6181 -2.1656
  575MOL0     H77571   3.062   2.332  10.750 -0.6352  0.1531  0.5688
  575MOL0     H77572   2.900   2.158  10.750 -1.0427  0.5118 -0.4348
  575MOL0     H77573   2.824   2.231  10.887  0.9934 -0.2041  0.6755
  575MOL0     H77574   3.013   2.183  11.037 -0.2256  0.0264 -0.0804
  575MOL0     H77575   2.984   2.028  10.963  2.2220 -0.9047  0.2112
  575MOL0     H77576   3.124   2.014  10.698  1.1198 -1.4613 -0.2690
  575MOL0     H77577   3.357   1.907  10.664 -2.7968  1.2454  1.9290
  575MOL0     H77578   3.433   2.067  10.594  1.1392  0.9535  1.3641
  575MOL0     H77579   3.592   2.034  10.801  0.8601 -1.9607  1.5074
  575MOL0     H77580   3.532   1.867  10.790  2.4587 -0.4873 -0.1377
  575MOL0     H77581   3.661   2.004  10.553  1.9318  0.9469  0.5919
  575MOL0     H77582   3.598   1.837  10.561  5.3536 -3.9531 -0.0158
  575MOL0     H77583   3.765   1.783  10.728 -1.4329  1.2635  1.3546
  575MOL0     H77584   3.824   1.941  10.727  2.3046 -2.4381  1.3107
  575MOL0     H77585   3.965   2.085  10.659  1.5778 -0.8523  2.6221
  575MOL0     H77586   4.164   2.181  10.610  0.1954  0.7148  0.2208
  575MOL0     H77587   4.611   1.994  10.388  0.7841  1.0588  1.0217
  575MOL0     H77588   4.840   2.075  10.315 -0.2605  3.1087  2.9248
  575MOL0     H77589   4.834   2.052   9.901  0.1079  0.0126  0.6133
  575MOL0     H77590   4.895   2.214   9.882  4.5982  1.1170 -0.3181
  575MOL0     H77591   5.085   1.998   9.957  4.0055  2.8532  3.6988
  575MOL0     H77592   5.050   2.061   9.798  3.2781  3.1018 -1.7058
  575MOL0     H77593   5.135   2.291   9.872  1.6703  1.5778  0.5215
  575MOL0     H77594   5.147   2.240  10.039 -0.6883 -1.8063 -0.4094
  575MOL0     H77595   5.275   2.099   9.797  1.5367  0.3714 -0.5399
  575MOL0     H77596   5.325   2.059   9.957  2.4368  1.0342 -0.8857
  575MOL0     H77597   5.496   2.182   9.939  1.3210  1.7963 -0.4663
  575MOL0     H77598   5.390   2.330   9.962  0.7958  0.7914  0.6508
  575MOL0     H77599   5.495   2.196   9.706 -1.9208 -1.6203  1.1431
  575MOL0     H77600   5.366   2.308   9.714 -0.8573 -1.9630  1.8668
  575MOL0     H77601   5.659   2.363   9.786 -0.1970 -1.0689  2.3333
  575MOL0     H77602   5.533   2.472   9.846  1.9493 -0.8668  0.9410
  575MOL0     H77603   5.587   2.393   9.561 -1.1290  0.5716 -0.1403
  575MOL0     H77604   5.453   2.488   9.595 -0.6353 -1.6745 -0.5439
  575MOL0     H77605   4.647   2.178   9.938 -3.5304 -2.1193 -0.1915
  575MOL0     H77606   4.424   2.128  10.033 -0.3760 -0.1525  0.5292
  575MOL0     H77607   4.208   1.895  10.261 -0.7860 -0.2448 -0.2315
  575MOL0     H77608   4.007   1.792  10.338  1.3382 -0.7460  2.6797
  575MOL0     H77609   2.654   2.082  10.813  0.9522 -0.5710  4.3039
  575MOL0     H77610   2.457   1.986  10.682  0.3964  1.8654 -1.6072
  575MOL0     H77611   2.028   1.883  10.708 -0.7627  0.0896  0.4146
  575MOL0     H77612   1.812   1.795  10.624 -1.2937  4.1704  2.2366
  575MOL0     H77613   1.631   1.799  10.543 -0.0933 -0.5339 -0.3113
  575MOL0     H77614   1.666   1.641  10.451  1.5763 -0.4090  0.8941
  575MOL0     H77615   1.431   1.700  10.436  0.4590  0.3547 -0.5632
  575MOL0     H77616   1.517   1.730  10.277  0.5489 -1.3868  0.6816
  575MOL0     H77617   1.546   1.953  10.347 -0.5799 -0.0097  0.1364
  575MOL0     H77618   1.426   1.943  10.474 -0.5105 -1.4162  1.0090
  575MOL0     H77619   1.253   1.888  10.298 -2.3139  4.4916 -0.0460
  575MOL0     H77620   1.325   2.032  10.283  2.2196  0.1763 -1.8621
  575MOL0     H77621   1.455   1.905   9.919  0.8542 -0.4056 -0.0871
  575MOL0     H77622   1.935   1.910  10.233 -0.6995 -0.7397 -0.1800
  575MOL0     H77623   2.257   1.993  10.326 -0.3756 -2.2737 -1.5448
  575MOL0     H77624   2.154   1.988  10.184 -1.2379 -0.1367 -0.3766
  575MOL0     H77625   2.161   2.137  10.266 -0.7757  0.4367  0.7750
  576MOL0     O77626   1.000   4.442  11.385  0.2046 -0.5651 -0.1990
  576MOL0     C77627   0.935   4.414  11.483 -0.6499  1.1835 -1.5703
  576MOL0     O77628   0.936   4.289  11.550 -0.1403 -0.2195  0.1611
  576MOL0     C77629   0.993   4.173  11.500 -0.5387 -0.5464 -0.3848
  576MOL0     C77630   1.123   4.163  11.445  0.3554 -0.5884  0.8491
  576MOL0     C77631   1.171   4.041  11.393 -0.1709 -0.1696 -0.5111
  576MOL0     C77632   1.103   3.924  11.415  0.0715  0.0318 -0.3922
  576MOL0     O77633   1.150   3.807  11.365 -0.8449 -0.9211  1.4458
  576MOL0     C77634   1.065   3.730  11.281 -0.4343  0.4052  0.5759
  576MOL0     C77635   1.088   3.569  11.290 -0.0557  0.4900  0.7266
  576MOL0     C77636   1.226   3.530  11.253  0.1667 -0.0309  0.0437
  576MOL0     C77637   1.244   3.380  11.275  0.0608 -0.8362  0.2932
  576MOL0     C77638   1.386   3.332  11.269 -0.4163  0.3163  0.2236
  576MOL0     C77639   1.433   3.268  11.133 -0.5750  0.8683  0.3087
  576MOL0     C77640   1.576   3.231  11.127 -0.1183 -0.3476  0.3735
  576MOL0     C77641   1.617   3.137  11.248  0.1190 -0.6669 -0.0156
  576MOL0     N77642   1.756   3.099  11.250 -0.5711 -0.0364 -0.3895
  576MOL0     C77643   1.863   3.186  11.259  0.0505 -0.2880 -0.2608
  576MOL0     C77644   1.975   3.111  11.240  0.6293 -0.1951 -0.9473
  576MOL0     C77645   2.123   3.143  11.251 -0.9336 -0.3713  0.5247
  576MOL0     C77646   2.217   3.122  11.131  0.1363 -0.4552  0.2908
  576MOL0     C77647   2.361   3.157  11.164  0.0858  0.3709 -0.8264
  576MOL0     C77648   2.472   3.107  11.071 -0.0624  0.0369  0.4927
  576MOL0     O77649   2.484   2.970  11.099  0.1425  0.2592 -0.1711
  576MOL0     C77650   2.617   2.951  11.117  0.6915 -0.1249  0.3827
  576MOL0     C77651   2.677   2.979  11.228 -0.1210 -0.3405  0.0490
  576MOL0     C77652   2.817   2.964  11.256  0.6885 -0.6777  0.4318
  576MOL0     C77653   2.891   2.903  11.148  0.2856 -0.7719 -0.4407
  576MOL0     C77654   3.035   2.892  11.153 -0.0556 -0.3994  0.2360
  576MOL0     O77655   3.100   2.936  11.269 -0.0672  0.4482  0.3886
  576MOL0     C77656   3.230   2.972  11.277 -0.0219 -0.2732 -0.1291
  576MOL0     C77657   3.276   3.014  11.401 -0.2556  0.2273 -0.4027
  576MOL0     C77658   3.411   3.038  11.429 -0.4869 -0.1438 -0.1988
  576MOL0     C77659   3.509   3.027  11.327 -0.3653 -0.4846 -1.0803
  576MOL0     O77660   3.637   3.053  11.360 -0.0434  0.0079  0.1179
  576MOL0     C77661   3.723   2.988  11.268 -1.1375  0.6548  0.6204
  576MOL0     C77662   3.874   3.009  11.311 -0.2776  0.0353 -0.1463
  576MOL0     C77663   3.953   2.935  11.207  1.2298 -0.4451  0.0861
  576MOL0     C77664   4.101   2.963  11.240  0.2199 -0.3648  0.3001
  576MOL0     C77665   4.183   2.866  11.154  0.0093 -0.3573 -0.4620
  576MOL0     C77666   4.336   2.891  11.148 -1.2915  0.2085  0.1489
  576MOL0     C77667   4.432   2.765  11.172  0.3590 -0.0091 -0.0662
  576MOL0     C77668   4.559   2.760  11.093  0.2008 -0.2243  0.8196
  576MOL0    Cl77669   4.627   2.925  11.071  0.0451  0.5773 -0.6064
  576MOL0     C77670   3.461   2.973  11.206 -0.0468 -0.3327  0.5729
  576MOL0     C77671   3.326   2.943  11.180 -0.5744 -0.4229  1.3789
  576MOL0     O77672   3.090   2.832  11.062 -0.1311 -0.5532  0.3616
  576MOL0     C77673   2.829   2.861  11.032 -0.0681 -0.0323 -0.7431
  576MOL0     C77674   2.692   2.885  11.018 -0.1586  0.1494  0.4774
  576MOL0     N77675   1.940   2.980  11.228  0.1042  0.2217 -0.4232
  576MOL0     N77676   1.811   2.972  11.235 -0.3232 -0.6549 -0.0236
  576MOL0     C77677   0.989   3.927  11.495 -0.1609 -0.0022  0.0663
  576MOL0     C77678   0.932   4.049  11.534  0.1518  0.0831 -0.3092
  576MOL0     C77679   0.838   4.517  11.541  0.2558  0.6905 -0.6694
  576MOL0     C77680   0.722   4.462  11.602  0.9965  0.0836 -0.3938
  576MOL0     C77681   0.621   4.543  11.643 -0.2896  0.3269  0.3280
  576MOL0     C77682   0.626   4.682  11.631 -0.7168 -0.7513 -0.4333
  576MOL0     O77683   0.521   4.756  11.679  0.7106  1.1935 -0.3366
  576MOL0     C77684   0.498   4.890  11.632 -0.1530 -0.4735  0.6492
  576MOL0     C77685   0.359   4.937  11.681  0.2052 -0.0193  0.0552
  576MOL0     C77686   0.302   5.074  11.632  0.5970 -0.1784 -0.8053
  576MOL0     C77687   0.353   5.201  11.706  0.5414  0.8499 -0.4595
  576MOL0     C77688   0.493   5.235  11.667  1.0778  0.9505 -0.3306
  576MOL0     C77689   0.601   5.234  11.625  0.1603 -0.6494  0.2984
  576MOL0     C77690   0.745   4.731  11.584 -0.4695  0.1176  0.8577
  576MOL0     C77691   0.853   4.656  11.536  0.5171  0.9272 -0.6850
  576MOL0     C77692   0.977   4.718  11.485  1.2532 -0.3915  0.4164
  576MOL0     H77693   1.184   4.253  11.450 -1.0035  0.7227 -2.6418
  576MOL0     H77694   1.275   4.028  11.362  0.3224 -1.3505  1.5013
  576MOL0     H77695   0.966   3.754  11.320 -0.8524  3.5548 -1.9970
  576MOL0     H77696   1.073   3.767  11.179  0.2603  1.8701  1.1278
  576MOL0     H77697   1.021   3.527  11.214  2.2228  0.8091 -1.6032
  576MOL0     H77698   1.054   3.531  11.387  0.3100 -3.3936 -0.5068
  576MOL0     H77699   1.294   3.589  11.316 -1.8585  0.8413  1.5036
  576MOL0     H77700   1.246   3.542  11.146 -3.4209 -3.6645 -1.3039
  576MOL0     H77701   1.210   3.361  11.377 -2.1107 -3.3513 -0.7707
  576MOL0     H77702   1.183   3.313  11.213 -0.1716  1.1479 -1.7452
  576MOL0     H77703   1.457   3.412  11.292  0.1271  0.1707 -0.8904
  576MOL0     H77704   1.398   3.251  11.341  0.3227 -0.1373 -0.3865
  576MOL0     H77705   1.376   3.180  11.102  1.6135 -0.2338 -0.8471
  576MOL0     H77706   1.418   3.342  11.054 -2.7254 -0.8663 -1.0070
  576MOL0     H77707   1.644   3.316  11.126  0.6925 -0.9250 -2.3573
  576MOL0     H77708   1.590   3.175  11.033 -0.6674 -0.9375  0.6377
  576MOL0     H77709   1.605   3.203  11.335 -0.2509  2.9483 -2.5715
  576MOL0     H77710   1.537   3.064  11.257 -2.4775  2.1911  2.4765
  576MOL0     H77711   1.864   3.294  11.270 -3.8689  0.1466 -2.5827
  576MOL0     H77712   2.131   3.248  11.279  1.8332 -0.7231  1.4143
  576MOL0     H77713   2.157   3.082  11.336  0.5327 -1.0194 -0.4908
  576MOL0     H77714   2.201   3.032  11.073  1.3372  1.3991 -3.2011
  576MOL0     H77715   2.181   3.199  11.063 -3.3760 -2.7778 -0.6890
  576MOL0     H77716   2.377   3.099  11.255 -4.3040 -0.6954 -0.5315
  576MOL0     H77717   2.381   3.263  11.187  1.8951 -0.4209  1.6842
  576MOL0     H77718   2.557   3.170  11.098  1.8509 -1.4631 -1.5682
  576MOL0     H77719   2.447   3.127  10.966 -5.3015 -0.3623  1.3698
  576MOL0     H77720   2.623   3.031  11.307 -0.0998 -2.0206  1.2073
  576MOL0     H77721   2.865   2.989  11.350 -0.4340  2.6109  0.2526
  576MOL0     H77722   3.200   3.015  11.478 -1.8369  1.0174 -1.8984
  576MOL0     H77723   3.440   3.075  11.527 -1.3044 -0.5619  0.2101
  576MOL0     H77724   3.694   2.883  11.267 -2.5123  0.9877  1.6591
  576MOL0     H77725   3.699   3.038  11.174 -0.0536  1.3459  0.6978
  576MOL0     H77726   3.903   3.115  11.307  2.0529 -0.5524 -0.2071
  576MOL0     H77727   3.901   2.966  11.407  1.8856 -2.5911 -1.7911
  576MOL0     H77728   3.929   2.828  11.214  0.2231 -0.1525  1.2560
  576MOL0     H77729   3.927   2.969  11.107 -2.7304 -3.4049 -0.1400
  576MOL0     H77730   4.123   2.952  11.346  1.2340 -3.5759 -0.1360
  576MOL0     H77731   4.122   3.064  11.204  1.3386 -1.6830 -3.1918
  576MOL0     H77732   4.136   2.880  11.056 -3.1667  0.1841  1.0004
  576MOL0     H77733   4.163   2.762  11.182 -0.4248  0.1371  1.1970
  576MOL0     H77734   4.373   2.932  11.053  1.2015 -1.8172  0.1486
  576MOL0     H77735   4.357   2.965  11.226  0.4660 -1.6987  1.5826
  576MOL0     H77736   4.379   2.669  11.165  0.7810 -0.2671  0.2127
  576MOL0     H77737   4.456   2.755  11.278  2.1735  1.3367 -0.3080
  576MOL0     H77738   4.634   2.695  11.139 -0.7015 -0.9881  1.2420
  576MOL0     H77739   4.534   2.724  10.993 -0.6958  0.9549  0.5981
  576MOL0     H77740   3.531   2.949  11.127  0.5828  0.6272  0.8190
  576MOL0     H77741   3.309   2.905  11.080  1.7912  0.3204  0.6385
  576MOL0     H77742   2.882   2.801  10.959  0.8636  3.3273 -3.0995
  576MOL0     H77743   2.633   2.854  10.932 -4.0403  4.0691  1.3331
  576MOL0     H77744   0.940   3.834  11.525 -0.9608  0.7440  1.1399
  576MOL0     H77745   0.840   4.060  11.591  0.4098 -0.4805  0.2319
  576MOL0     H77746   0.698   4.356  11.602  0.1362  0.2610 -1.0090
  576MOL0     H77747   0.523   4.505  11.671 -1.0264  0.3671 -2.0141
  576MOL0     H77748   0.504   4.901  11.523 -3.5733  3.2826  0.6263
  576MOL0     H77749   0.563   4.969  11.670 -3.6395  1.8163  2.3117
  576MOL0     H77750   0.366   4.956  11.788  0.3641  1.0674 -0.1378
  576MOL0     H77751   0.279   4.865  11.659  0.2402 -0.1000  0.1920
  576MOL0     H77752   0.194   5.065  11.643  0.3999  1.9757 -0.5495
  576MOL0     H77753   0.318   5.084  11.524  2.8830  1.9694 -0.3620
  576MOL0     H77754   0.281   5.282  11.689 -1.7852 -1.0936 -0.2700
  576MOL0     H77755   0.356   5.187  11.814  2.7594 -0.3490 -0.6272
  576MOL0     H77756   0.685   5.233  11.559 -0.0671  1.0978 -0.0918
  576MOL0     H77757   0.759   4.838  11.571  1.2843 -0.2936 -1.1473
  576MOL0     H77758   0.981   4.827  11.498  1.3416 -0.4166  0.5947
  576MOL0     H77759   1.050   4.679  11.555 -0.2488 -0.2487  2.1416
  576MOL0     H77760   0.996   4.691  11.381 -1.9303 -2.1927  0.1635
  577MOL0     O77761   9.631   9.196   0.110  0.0119  0.1967 -0.2675
  577MOL0     C77762   9.566   9.096   0.154  0.4703 -0.5941  0.1964
  577MOL0     O77763   9.613   9.005   0.239  0.2427 -0.0984 -0.3795
  577MOL0     C77764   9.735   9.036   0.294  0.0135 -0.4966  0.2004
  577MOL0     C77765   9.831   8.935   0.278 -1.2126  0.3403 -0.3478
  577MOL0     C77766   9.965   8.958   0.324  0.0445 -0.0591 -0.9739
  577MOL0     C77767  10.004   9.079   0.390  0.0719  0.1073 -0.1509
  577MOL0     O77768  10.139   9.102   0.412  0.0575 -0.9125 -0.2603
  577MOL0     C77769  10.177   9.239   0.422  0.0808  0.2158 -0.0588
  577MOL0     C77770  10.327   9.250   0.384 -0.0404  1.2732 -0.1576
  577MOL0     C77771  10.376   9.392   0.411  0.1733 -0.5058  0.3656
  577MOL0     C77772  10.497   9.431   0.325  0.1666  0.2019 -0.2836
  577MOL0     C77773  10.526   9.579   0.327 -0.0501 -0.0154  0.0168
  577MOL0     C77774  10.553   9.656   0.469 -0.5781  0.0167 -0.2142
  577MOL0     C77775  10.682   9.622   0.538 -0.4902  0.5328  0.3478
  577MOL0     C77776  10.763   9.741   0.594 -0.4517 -0.4219 -0.1839
  577MOL0     N77777  10.898   9.697   0.630 -0.1790  0.5311 -0.1747
  577MOL0     C77778  10.939   9.668   0.751  0.3160  0.3299  0.0837
  577MOL0     C77779  11.072   9.662   0.747 -0.4076 -0.6395  0.7568
  577MOL0     C77780  11.162   9.624   0.871  0.0755 -0.0703  0.2492
  577MOL0     C77781  11.252   9.728   0.940 -0.1772 -0.0752  0.8017
  577MOL0     C77782  11.276   9.717   1.092 -0.5672  0.0855 -0.2100
  577MOL0     C77783  11.268   9.574   1.160 -0.0378  0.0677 -0.2642
  577MOL0     O77784  11.253   9.577   1.304 -0.8929 -0.4808  0.3585
  577MOL0     C77785  11.132   9.603   1.357  0.2282 -0.3218  0.4476
  577MOL0     C77786  11.018   9.626   1.283  0.7542  0.3401  0.9913
  577MOL0     C77787  10.894   9.654   1.342 -0.7104  0.8455  0.0052
  577MOL0     C77788  10.882   9.646   1.481  0.2300  0.2276  0.6618
  577MOL0     C77789  10.749   9.679   1.544 -0.3062  0.2514  0.1800
  577MOL0     O77790  10.651   9.705   1.455  0.1065 -0.1136  0.1773
  577MOL0     C77791  10.518   9.725   1.507  0.0710  0.9398  0.1125
  577MOL0     C77792  10.424   9.626   1.543  0.6445 -0.5392  0.6467
  577MOL0     C77793  10.296   9.662   1.591  0.3527 -0.0812  0.2576
  577MOL0     C77794  10.253   9.794   1.615 -0.0955  0.7839  0.0693
  577MOL0     O77795  10.138   9.813   1.687  0.4722 -0.0791 -0.3054
  577MOL0     C77796  10.176   9.855   1.818  0.6324 -0.3521 -0.6188
  577MOL0     C77797  10.076   9.804   1.910 -0.6655 -0.0879  0.5500
  577MOL0     C77798   9.932   9.850   1.884  0.2409 -0.1197  0.5983
  577MOL0     C77799   9.911  10.001   1.861  0.2855 -0.0324  0.8920
  577MOL0     C77800   9.753  10.025   1.860 -0.1138 -0.5830  0.2502
  577MOL0     C77801   9.689   9.987   1.727 -0.5001  0.4426 -0.3055
  577MOL0     C77802   9.541  10.033   1.722 -1.2436 -0.4555 -0.6717
  577MOL0     C77803   9.486  10.049   1.587  0.0754 -0.0680 -0.7774
  577MOL0    Cl77804   9.476   9.882   1.522 -0.1037 -0.1725 -0.4227
  577MOL0     C77805  10.341   9.894   1.568  0.4395  0.5515 -0.2272
  577MOL0     C77806  10.472   9.857   1.525  0.1742  0.3775 -0.1270
  577MOL0     O77807  10.736   9.671   1.666 -0.6808 -0.6159 -0.2878
  577MOL0     C77808  10.997   9.627   1.562 -0.1192  1.0124 -0.5667
  577MOL0     C77809  11.117   9.606   1.499 -0.2757 -0.2142  0.5400
  577MOL0     N77810  11.113   9.678   0.619 -0.0777  0.5195  0.2060
  577MOL0     N77811  11.007   9.698   0.544 -0.8363 -0.6073 -0.4261
  577MOL0     C77812   9.894   9.174   0.407 -0.6774 -0.1791  0.8576
  577MOL0     C77813   9.765   9.149   0.362  1.3946  0.4043 -0.0508
  577MOL0     C77814   9.421   9.087   0.107 -0.1151 -0.0888  0.0020
  577MOL0     C77815   9.364   8.963   0.098 -1.4005  0.1472 -0.3827
  577MOL0     C77816   9.224   8.947   0.056 -0.3130 -0.4582  0.9218
  577MOL0     C77817   9.140   9.055   0.033  1.1090 -0.1149  0.0257
  577MOL0     O77818   9.006   9.028  -0.010 -0.7063 -0.1330  0.2510
  577MOL0     C77819   8.943   9.111  -0.099  0.7437 -0.5884 -0.6766
  577MOL0     C77820   9.020   9.147  -0.214  0.5144 -0.5352 -0.6631
  577MOL0     C77821   9.080   9.033  -0.299 -0.2442  0.3144 -0.0709
  577MOL0     C77822   9.177   9.076  -0.411  0.0356  0.3214 -0.0019
  577MOL0     C77823   9.293   9.136  -0.354  0.0388 -0.6486  0.7459
  577MOL0     C77824   9.376   9.214  -0.310  0.3277  0.8013  0.5500
  577MOL0     C77825   9.198   9.183   0.057  0.1281  1.2422 -0.4054
  577MOL0     C77826   9.331   9.205   0.096  0.0633  0.0614  0.6205
  577MOL0     C77827   9.386   9.344   0.121  0.0650  0.5488  0.4393
  577MOL0     H77828   9.807   8.843   0.227 -0.2619  0.7421 -1.5817
  577MOL0     H77829  10.042   8.888   0.297  1.8612  1.5119 -0.1441
  577MOL0     H77830  10.118   9.297   0.350 -0.4834  1.9598  1.7413
  577MOL0     H77831  10.150   9.265   0.524 -2.7660 -0.3454 -0.5769
  577MOL0     H77832  10.341   9.230   0.278 -0.8112 -4.8502  0.5515
  577MOL0     H77833  10.385   9.169   0.429  1.5106  0.4544 -3.3521
  577MOL0     H77834  10.396   9.394   0.518  1.5118 -0.8375  0.1441
  577MOL0     H77835  10.290   9.455   0.386  0.9927 -0.4337 -2.7207
  577MOL0     H77836  10.589   9.382   0.358  0.9135  0.0040 -2.5252
  577MOL0     H77837  10.474   9.403   0.222 -2.7172  1.3764 -0.0480
  577MOL0     H77838  10.606   9.592   0.253 -0.9854  0.0410 -0.9998
  577MOL0     H77839  10.444   9.636   0.284 -0.0416 -0.6197 -0.8385
  577MOL0     H77840  10.553   9.761   0.437 -2.8091 -0.1218 -0.8283
  577MOL0     H77841  10.477   9.637   0.544  1.2666 -2.7190  1.1221
  577MOL0     H77842  10.748   9.571   0.467  0.7868  2.3139  0.1793
  577MOL0     H77843  10.668   9.539   0.608  3.3396 -2.7034 -2.2403
  577MOL0     H77844  10.782   9.826   0.527 -2.3795 -1.4700 -2.2167
  577MOL0     H77845  10.715   9.775   0.686  4.8597  0.9285  2.4774
  577MOL0     H77846  10.873   9.666   0.838 -1.9419  0.1531 -1.5481
  577MOL0     H77847  11.084   9.604   0.944  1.1813  1.1816  1.8573
  577MOL0     H77848  11.215   9.533   0.842 -0.4826 -1.1850  2.5456
  577MOL0     H77849  11.350   9.727   0.890 -0.4930 -1.3996  0.1506
  577MOL0     H77850  11.212   9.828   0.922  3.5052  1.0597 -2.6285
  577MOL0     H77851  11.198   9.772   1.145 -2.5240 -1.7243 -1.0359
  577MOL0     H77852  11.360   9.774   1.132 -1.0150  0.3181  0.4171
  577MOL0     H77853  11.359   9.520   1.133 -0.1571  0.2970 -1.1257
  577MOL0     H77854  11.178   9.523   1.125 -0.1020 -0.4398  0.6068
  577MOL0     H77855  11.004   9.609   1.176  0.9961  0.1534  0.9879
  577MOL0     H77856  10.811   9.650   1.272 -0.4187 -2.2041 -0.3122
  577MOL0     H77857  10.440   9.518   1.549 -2.3808 -1.1029  0.1483
  577MOL0     H77858  10.222   9.588   1.618  1.6214 -1.1669  0.8577
  577MOL0     H77859  10.276   9.816   1.842  1.2146  1.6735  0.5258
  577MOL0     H77860  10.177   9.964   1.823 -0.8451 -0.3179 -0.6843
  577MOL0     H77861  10.070   9.695   1.914 -2.9411  0.0400  2.0685
  577MOL0     H77862  10.107   9.834   2.010 -1.5024  2.9372  0.0087
  577MOL0     H77863   9.900   9.790   1.799 -0.0796 -1.3198  1.5282
  577MOL0     H77864   9.867   9.827   1.970 -2.1776  0.9090 -0.8519
  577MOL0     H77865   9.956  10.022   1.764 -0.7103 -0.7231  0.2570
  577MOL0     H77866   9.980  10.052   1.929  5.7392 -4.2461 -0.7485
  577MOL0     H77867   9.730  10.130   1.879 -4.1790 -1.6778  2.6095
  577MOL0     H77868   9.701   9.966   1.936 -1.2544  1.3801  1.0641
  577MOL0     H77869   9.749  10.036   1.650  0.3553 -0.4052 -0.1858
  577MOL0     H77870   9.688   9.879   1.713 -2.9120  0.1673  1.3564
  577MOL0     H77871   9.521  10.129   1.771 -2.4262 -1.5099  1.0607
  577MOL0     H77872   9.485   9.966   1.788 -2.0741 -0.5745 -1.4761
  577MOL0     H77873   9.385  10.090   1.585 -0.8368 -2.1256 -0.0875
  577MOL0     H77874   9.556  10.106   1.526 -1.1797 -0.3926 -2.6060
  577MOL0     H77875  10.302   9.995   1.567 -2.3263 -0.4156 -0.0854
  577MOL0     H77876  10.540   9.940   1.509 -0.6418  1.3572  1.3197
  577MOL0     H77877  10.998   9.632   1.670 -0.2315  0.9205 -0.5611
  577MOL0     H77878  11.204   9.592   1.563  0.1432  2.0680  0.5659
  577MOL0     H77879   9.911   9.277   0.437  1.0955  0.0344 -0.7003
  577MOL0     H77880   9.694   9.230   0.371  0.7975 -0.0112 -0.9064
  577MOL0     H77881   9.424   8.880   0.133  0.8572  2.3003  1.2170
  577MOL0     H77882   9.195   8.846   0.026  0.4182 -0.0982 -1.1582
  577MOL0     H77883   8.884   9.196  -0.065  0.7408  1.2465 -4.6507
  577MOL0     H77884   8.858   9.050  -0.131 -0.5998 -1.6387  4.1333
  577MOL0     H77885   9.107   9.206  -0.184  0.1386 -0.1854 -0.2440
  577MOL0     H77886   8.956   9.208  -0.278  2.0080  1.2730 -0.5041
  577MOL0     H77887   9.003   8.967  -0.339  0.5018 -1.9596  2.0122
  577MOL0     H77888   9.143   8.966  -0.240 -0.8391 -1.4260 -1.3336
  577MOL0     H77889   9.206   8.995  -0.478  3.3882  3.8937 -3.3770
  577MOL0     H77890   9.117   9.142  -0.473 -3.2362 -0.1690  2.3614
  577MOL0     H77891   9.445   9.293  -0.294  1.3408  0.4046 -1.4808
  577MOL0     H77892   9.136   9.271   0.057 -0.9051  0.5686  1.2803
  577MOL0     H77893   9.310   9.422   0.120  0.8205  1.3023  0.2207
  577MOL0     H77894   9.449   9.350   0.210 -0.3394 -3.5016  1.2012
  577MOL0     H77895   9.448   9.381   0.038  1.2551 -2.0609  0.0528
  578MOL0     O77896   4.913   6.951   8.099  0.8944  0.1006  0.5408
  578MOL0     C77897   4.999   7.029   8.055  0.2623  0.2263 -0.9788
  578MOL0     O77898   5.001   7.163   8.065  0.1088 -0.0639 -0.0892
  578MOL0     C77899   4.890   7.245   8.084  0.5717  0.7493 -0.6961
  578MOL0     C77900   4.877   7.362   8.002  0.5251 -0.5903  0.8037
  578MOL0     C77901   4.772   7.454   8.018 -0.9559  0.1193 -1.0546
  578MOL0     C77902   4.702   7.441   8.133 -0.0468  0.6908  0.3270
  578MOL0     O77903   4.615   7.545   8.154 -0.4519 -0.5406  0.8887
  578MOL0     C77904   4.504   7.529   8.238 -0.5884 -0.0927  0.2437
  578MOL0     C77905   4.420   7.659   8.255  0.0385  0.2608 -0.3453
  578MOL0     C77906   4.509   7.751   8.338  0.0191  0.1051  0.2452
  578MOL0     C77907   4.472   7.899   8.324  0.2582 -0.6737  0.2527
  578MOL0     C77908   4.567   7.983   8.413  0.2049 -0.2568  0.2273
  578MOL0     C77909   4.530   7.948   8.560  0.1076 -0.0621  0.4763
  578MOL0     C77910   4.505   8.080   8.641  0.3532  0.6488 -1.1960
  578MOL0     C77911   4.632   8.162   8.649 -0.4846 -0.6739  0.4213
  578MOL0     N77912   4.636   8.268   8.755  0.0970 -0.3120 -0.5411
  578MOL0     C77913   4.530   8.312   8.842 -0.3350  0.8648  0.1409
  578MOL0     C77914   4.587   8.404   8.924 -0.0807 -0.0302  0.0774
  578MOL0     C77915   4.513   8.484   9.031 -0.0835  0.0615 -0.0629
  578MOL0     C77916   4.358   8.459   9.062 -0.7685  0.1178 -0.3759
  578MOL0     C77917   4.265   8.504   8.955  1.0327  0.9577  0.1398
  578MOL0     C77918   4.111   8.470   8.986 -0.5651 -0.1923 -0.2942
  578MOL0     O77919   4.070   8.569   9.081 -0.3589  0.5467 -0.2139
  578MOL0     C77920   3.936   8.608   9.065 -0.2483  0.5354 -0.3124
  578MOL0     C77921   3.835   8.528   9.006 -0.4264  0.2175 -0.3850
  578MOL0     C77922   3.702   8.583   9.005 -0.5321  0.7620 -1.1420
  578MOL0     C77923   3.668   8.708   9.054 -0.9940 -0.3313 -0.2510
  578MOL0     C77924   3.536   8.777   9.045  0.3821 -1.0111  0.5586
  578MOL0     O77925   3.503   8.871   9.148 -0.4394  0.4284  0.4064
  578MOL0     C77926   3.370   8.899   9.164  0.8397 -0.5111  0.5003
  578MOL0     C77927   3.267   8.811   9.182  0.0763  0.3505  0.3928
  578MOL0     C77928   3.135   8.858   9.204  1.3436  0.4492 -0.3738
  578MOL0     C77929   3.112   8.990   9.196 -0.2139 -1.1421  0.0484
  578MOL0     O77930   2.988   9.047   9.204 -0.3189  0.0459  0.0469
  578MOL0     C77931   2.922   9.023   9.329 -0.4301  0.0518 -0.1942
  578MOL0     C77932   2.784   9.079   9.316  0.0300  0.1161  0.6275
  578MOL0     C77933   2.693   9.010   9.221 -0.1000  0.2252 -0.6795
  578MOL0     C77934   2.693   9.090   9.085 -0.4597 -0.4206 -1.1234
  578MOL0     C77935   2.626   9.007   8.972 -0.3462  0.4985 -0.0049
  578MOL0     C77936   2.654   9.070   8.837 -0.1987  0.4496  0.3060
  578MOL0     C77937   2.609   9.224   8.828  0.4399  0.9239 -0.6015
  578MOL0     C77938   2.554   9.258   8.688 -0.3834  0.6410 -0.6476
  578MOL0    Cl77939   2.523   9.425   8.680  0.1120 -0.5172  0.2291
  578MOL0     C77940   3.218   9.082   9.182  0.4602  0.0962 -0.2233
  578MOL0     C77941   3.342   9.030   9.176 -0.6770  0.4010  1.0557
  578MOL0     O77942   3.454   8.734   8.951  0.7145 -0.2899 -0.4152
  578MOL0     C77943   3.771   8.768   9.128  1.3033  0.9563  0.2577
  578MOL0     C77944   3.905   8.733   9.122  0.4805  0.8820  0.1321
  578MOL0     N77945   4.718   8.417   8.878  0.0192  1.3122  0.1098
  578MOL0     N77946   4.743   8.338   8.778 -0.6803 -1.1288 -0.2360
  578MOL0     C77947   4.707   7.319   8.215  0.1107  0.3534  0.3332
  578MOL0     C77948   4.790   7.217   8.183  0.4932  0.5895 -0.1008
  578MOL0     C77949   5.127   6.965   8.031  0.0648 -0.2362 -0.5430
  578MOL0     C77950   5.163   6.845   8.098  0.1883 -0.1629 -0.3650
  578MOL0     C77951   5.275   6.767   8.065  0.6577 -0.3524 -0.1758
  578MOL0     C77952   5.356   6.817   7.961 -0.8577  0.5046 -0.2107
  578MOL0     O77953   5.469   6.764   7.917 -0.5020  0.3991  0.2888
  578MOL0     C77954   5.486   6.625   7.927 -0.3219 -0.2340  0.1273
  578MOL0     C77955   5.554   6.562   7.803 -0.5047 -0.5616  0.4895
  578MOL0     C77956   5.687   6.617   7.781 -0.0983  1.0406  0.5863
  578MOL0     C77957   5.745   6.552   7.655 -0.1497 -0.1514  0.1083
  578MOL0     C77958   5.879   6.597   7.640  0.4254  0.5377  0.8754
  578MOL0     C77959   5.987   6.647   7.629  0.0889  0.3624  1.4856
  578MOL0     C77960   5.326   6.941   7.901 -0.0690 -0.3841 -0.3496
  578MOL0     C77961   5.213   7.015   7.934 -0.7025 -0.0800  1.1557
  578MOL0     C77962   5.178   7.129   7.842 -1.0819  0.0282 -0.1530
  578MOL0     H77963   4.947   7.383   7.923 -2.1764 -4.7750 -3.2608
  578MOL0     H77964   4.746   7.549   7.971 -2.9017  0.3925  0.4600
  578MOL0     H77965   4.446   7.447   8.195 -0.2963  1.3670 -3.2685
  578MOL0     H77966   4.547   7.502   8.335 -0.9238 -0.3117  0.3353
  578MOL0     H77967   4.327   7.630   8.305 -0.2572  1.0960 -0.3898
  578MOL0     H77968   4.388   7.706   8.161 -2.6200 -2.3563 -0.9022
  578MOL0     H77969   4.611   7.752   8.300  0.6483 -1.1941  1.7620
  578MOL0     H77970   4.499   7.724   8.444 -0.1257  1.7740  0.6782
  578MOL0     H77971   4.500   7.920   8.220  1.3161 -3.7833 -0.1999
  578MOL0     H77972   4.367   7.914   8.350  0.3866 -1.6788  1.4428
  578MOL0     H77973   4.675   7.968   8.399  1.4113  3.5941  3.4368
  578MOL0     H77974   4.546   8.088   8.393  0.6905 -0.2319 -0.1801
  578MOL0     H77975   4.437   7.892   8.576 -1.4369  1.3994 -2.5009
  578MOL0     H77976   4.616   7.900   8.607 -1.4983 -1.2861  2.3237
  578MOL0     H77977   4.464   8.051   8.738  1.4341 -1.4979 -1.3270
  578MOL0     H77978   4.421   8.135   8.596 -3.0219 -1.5540  1.8303
  578MOL0     H77979   4.715   8.093   8.669 -0.3010 -1.0066 -1.3261
  578MOL0     H77980   4.647   8.206   8.550  0.3917  0.6402  1.1034
  578MOL0     H77981   4.426   8.280   8.844  0.1232 -0.7420 -0.4388
  578MOL0     H77982   4.562   8.461   9.126  0.3185 -0.8725 -0.4780
  578MOL0     H77983   4.527   8.588   9.000  0.8530  0.3791  1.3291
  578MOL0     H77984   4.343   8.354   9.086 -0.9892  0.0314 -0.8820
  578MOL0     H77985   4.336   8.521   9.149 -1.6178 -0.4241 -0.1992
  578MOL0     H77986   4.305   8.461   8.863  1.2656 -0.1612  0.7477
  578MOL0     H77987   4.265   8.613   8.942  0.8901  0.7855 -1.4798
  578MOL0     H77988   4.102   8.375   9.040 -0.5639  1.7520  3.4554
  578MOL0     H77989   4.047   8.472   8.898 -2.2392 -0.8824  0.8654
  578MOL0     H77990   3.831   8.425   8.972 -1.0541  0.3773 -0.8095
  578MOL0     H77991   3.622   8.522   8.963 -0.4125 -0.8350  0.7902
  578MOL0     H77992   3.286   8.704   9.172  0.2627  0.4340 -0.1846
  578MOL0     H77993   3.049   8.799   9.235  1.9891 -0.9861 -1.2234
  578MOL0     H77994   2.918   8.919   9.363 -2.7289 -0.7511 -2.5115
  578MOL0     H77995   2.976   9.078   9.406 -2.3233  1.5196  0.1750
  578MOL0     H77996   2.736   9.075   9.415  0.4933 -2.3712  0.8230
  578MOL0     H77997   2.791   9.186   9.297 -1.8221  0.5776  2.1866
  578MOL0     H77998   2.724   8.906   9.208 -1.3204 -0.1652 -0.6113
  578MOL0     H77999   2.593   9.001   9.265 -0.6403  0.0133 -1.9052
  578MOL0     H78000   2.792   9.112   9.045 -0.7165  1.5997 -0.7491
  578MOL0     H78001   2.645   9.185   9.112  0.8333  0.3025 -1.2898
  578MOL0     H78002   2.518   9.006   8.988 -0.5421  1.3685 -1.0859
  578MOL0     H78003   2.662   8.904   8.970  0.5774  0.8085 -0.0840
  578MOL0     H78004   2.757   9.054   8.804 -1.0483 -1.1172 -1.8596
  578MOL0     H78005   2.585   9.023   8.766 -0.1967  0.2988  0.4014
  578MOL0     H78006   2.693   9.287   8.861  1.5223 -1.9878  2.7526
  578MOL0     H78007   2.539   9.249   8.908  1.7230 -0.2613  0.9774
  578MOL0     H78008   2.641   9.249   8.622  2.2283  1.2153  2.4698
  578MOL0     H78009   2.472   9.197   8.649  0.4166 -0.0029 -1.3880
  578MOL0     H78010   3.213   9.190   9.175  2.1484  0.1360 -1.7967
  578MOL0     H78011   3.432   9.092   9.173  0.6865 -1.4855 -1.6736
  578MOL0     H78012   3.751   8.870   9.158  0.5847  1.3437 -1.4429
  578MOL0     H78013   3.967   8.811   9.164 -0.8038  1.5828  0.7806
  578MOL0     H78014   4.643   7.302   8.301  0.7642  0.2882  0.8088
  578MOL0     H78015   4.806   7.127   8.240  3.5672 -0.0758 -1.7593
  578MOL0     H78016   5.106   6.814   8.185  0.8472  0.3298  0.2526
  578MOL0     H78017   5.313   6.680   8.117  0.1077  0.0844  1.0154
  578MOL0     H78018   5.390   6.573   7.936  0.3816 -1.3787  1.3899
  578MOL0     H78019   5.543   6.603   8.018  2.9244 -0.0796 -1.7302
  578MOL0     H78020   5.496   6.581   7.713 -1.0393 -0.2434  0.8958
  578MOL0     H78021   5.559   6.457   7.833  0.7439 -0.0156  2.3913
  578MOL0     H78022   5.742   6.575   7.866  0.2111 -0.6738 -0.4019
  578MOL0     H78023   5.694   6.726   7.783  0.3281  1.0000  2.0707
  578MOL0     H78024   5.759   6.444   7.662  4.0197  0.3044  2.3531
  578MOL0     H78025   5.684   6.580   7.569 -0.2243  2.8055  1.0083
  578MOL0     H78026   6.081   6.694   7.608  0.9788 -1.9448 -0.1421
  578MOL0     H78027   5.379   6.976   7.813 -1.1330 -0.8974 -1.2278
  578MOL0     H78028   5.223   7.111   7.744  1.7430 -0.6327  1.1700
  578MOL0     H78029   5.069   7.134   7.833 -1.1054 -0.7922 -0.3697
  578MOL0     H78030   5.232   7.221   7.865  1.1142 -0.7563 -1.8245
  579MOL0     O78031   0.837   1.270   2.859 -0.1851 -0.2601 -0.2405
  579MOL0     C78032   0.864   1.391   2.840 -0.1344  0.3635 -0.4564
  579MOL0     O78033   0.978   1.440   2.781  0.0056 -0.6010 -0.2444
  579MOL0     C78034   1.052   1.364   2.701 -0.6086 -0.6015  0.6266
  579MOL0     C78035   1.048   1.396   2.566  0.7366 -0.4612  0.3286
  579MOL0     C78036   1.123   1.332   2.478 -0.8937  0.1380  0.1405
  579MOL0     C78037   1.195   1.218   2.512  0.4151  0.3802  0.1348
  579MOL0     O78038   1.255   1.143   2.414 -0.2986  0.2247  0.9149
  579MOL0     C78039   1.354   1.043   2.447  0.7351 -0.8850  0.0583
  579MOL0     C78040   1.437   0.999   2.326  0.1066 -1.0424  0.7564
  579MOL0     C78041   1.361   0.983   2.184 -1.0087 -0.7009 -0.7213
  579MOL0     C78042   1.459   0.976   2.065  0.2462 -0.3321  0.0666
  579MOL0     C78043   1.392   0.952   1.926  0.2220  0.1460 -0.0043
  579MOL0     C78044   1.494   0.927   1.808  0.2176  0.2467  0.3862
  579MOL0     C78045   1.585   0.802   1.827  0.2991 -0.8091  0.1895
  579MOL0     C78046   1.504   0.672   1.848 -0.1091  0.6336 -0.2431
  579MOL0     N78047   1.579   0.548   1.833  0.0659  0.0454 -0.2747
  579MOL0     C78048   1.614   0.495   1.715 -0.2609 -0.6503  0.0441
  579MOL0     C78049   1.643   0.369   1.749  0.0036 -0.3877 -0.4928
  579MOL0     C78050   1.678   0.260   1.651 -0.8677  0.4499 -0.4930
  579MOL0     C78051   1.826   0.276   1.598  0.6502 -0.2901 -0.9788
  579MOL0     C78052   1.869   0.173   1.489  0.3483 -0.6763 -0.6480
  579MOL0     C78053   1.792   0.158   1.364  0.0896 -0.3061  0.2016
  579MOL0     O78054   1.679   0.068   1.395  0.2420  0.0725  0.2724
  579MOL0     C78055   1.579   0.047   1.304 -0.2896 -0.2882 -0.3361
  579MOL0     C78056   1.565   0.130   1.189 -0.2347  0.6059  0.0501
  579MOL0     C78057   1.473   0.102   1.096  0.1735  0.5477  0.0228
  579MOL0     C78058   1.386  -0.007   1.105  0.7671 -0.2586  1.1419
  579MOL0     C78059   1.311  -0.044   0.989  0.5141 -0.2873  0.1467
  579MOL0     O78060   1.236  -0.155   1.000  0.6247 -0.6816 -0.0180
  579MOL0     C78061   1.145  -0.190   0.903  0.7427 -0.0157 -0.5430
  579MOL0     C78062   1.181  -0.283   0.813  0.4595  0.3497 -0.1919
  579MOL0     C78063   1.095  -0.316   0.704 -0.1628 -0.1221 -0.4300
  579MOL0     C78064   0.961  -0.268   0.699 -0.6285 -0.3507 -1.0937
  579MOL0     O78065   0.889  -0.295   0.588 -0.2795 -0.0626  0.5899
  579MOL0     C78066   0.752  -0.267   0.577 -0.4611 -0.4895 -0.4783
  579MOL0     C78067   0.687  -0.287   0.439 -0.5049 -0.0354 -0.6822
  579MOL0     C78068   0.529  -0.278   0.460  0.2791 -0.5343  0.4654
  579MOL0     C78069   0.454  -0.348   0.346  0.2380 -0.5305  0.4940
  579MOL0     C78070   0.343  -0.250   0.302  0.3671 -0.2081  0.2205
  579MOL0     C78071   0.236  -0.323   0.223 -0.7106 -0.0786  0.9744
  579MOL0     C78072   0.118  -0.245   0.189  0.1185 -0.8543  0.5500
  579MOL0     C78073   0.130  -0.139   0.082  0.0983 -0.1995 -0.0666
  579MOL0    Cl78074   0.246  -0.158  -0.044 -0.2717 -0.1791  0.0752
  579MOL0     C78075   0.921  -0.181   0.803  0.2349 -0.2163 -0.4102
  579MOL0     C78076   1.011  -0.135   0.905 -0.6499  0.0325 -0.0580
  579MOL0     O78077   1.303   0.034   0.893 -0.1889  0.1112 -0.4544
  579MOL0     C78078   1.392  -0.076   1.223 -0.4863  0.4447  0.2468
  579MOL0     C78079   1.493  -0.056   1.321  1.0221  0.1700 -0.7736
  579MOL0     N78080   1.645   0.344   1.882  0.0876 -0.5582 -0.4157
  579MOL0     N78081   1.599   0.451   1.934 -0.3417  0.4062 -0.6621
  579MOL0     C78082   1.205   1.187   2.651  0.5030  0.7393  0.0693
  579MOL0     C78083   1.128   1.258   2.740 -0.2931 -0.9746  0.4226
  579MOL0     C78084   0.773   1.495   2.893  0.2352  1.1779  0.1009
  579MOL0     C78085   0.705   1.457   3.012 -0.9565 -0.7380 -0.6668
  579MOL0     C78086   0.624   1.554   3.069 -0.2576 -0.7221 -0.2644
  579MOL0     C78087   0.615   1.685   3.028 -0.4559  0.0510  0.6361
  579MOL0     O78088   0.559   1.789   3.100  0.3410 -0.0641  0.8512
  579MOL0     C78089   0.470   1.772   3.205  0.0724  0.6926 -0.5351
  579MOL0     C78090   0.367   1.889   3.207  0.1519  0.1755  0.1949
  579MOL0     C78091   0.288   1.897   3.070 -0.1181  0.0975 -0.2857
  579MOL0     C78092   0.182   2.012   3.076 -0.5209  0.8368  0.3429
  579MOL0     C78093   0.224   2.151   3.085 -0.0971  0.1693 -0.1074
  579MOL0     C78094   0.253   2.272   3.110  0.3660  0.9568  0.4124
  579MOL0     C78095   0.688   1.718   2.917  0.3637  0.2965 -0.1287
  579MOL0     C78096   0.747   1.622   2.837  0.7121  0.2519  0.4635
  579MOL0     C78097   0.778   1.665   2.701  0.8696 -0.7442 -0.5867
  579MOL0     H78098   0.973   1.472   2.543  0.8111 -0.1209  1.1687
  579MOL0     H78099   1.110   1.342   2.371  2.3028  2.5714 -0.1947
  579MOL0     H78100   1.433   1.093   2.503  0.6671  0.4398 -0.9628
  579MOL0     H78101   1.303   0.956   2.489 -0.3079  0.0867  0.8971
  579MOL0     H78102   1.497   0.911   2.350 -0.6622 -1.5746  0.7225
  579MOL0     H78103   1.502   1.084   2.302  0.5012 -1.3747  0.6402
  579MOL0     H78104   1.297   1.069   2.161  0.7693  0.7724 -0.3419
  579MOL0     H78105   1.306   0.888   2.191 -1.1696 -0.5211  0.9912
  579MOL0     H78106   1.519   1.067   2.060  0.1816 -0.3144 -0.5000
  579MOL0     H78107   1.532   0.897   2.084  0.4888  0.4013  2.4466
  579MOL0     H78108   1.318   0.872   1.937  0.1662  0.1531 -0.3210
  579MOL0     H78109   1.336   1.041   1.896 -1.5712 -0.2646  1.8772
  579MOL0     H78110   1.450   0.908   1.709  3.7284 -2.4798 -0.8566
  579MOL0     H78111   1.561   1.010   1.784 -0.4667  0.1750 -2.0881
  579MOL0     H78112   1.660   0.823   1.903  2.1653 -0.3934 -1.6897
  579MOL0     H78113   1.643   0.798   1.735  2.5733  1.8937  1.3534
  579MOL0     H78114   1.483   0.668   1.955  0.1911  2.4744 -0.0832
  579MOL0     H78115   1.420   0.683   1.778 -1.2118  0.5495  1.0314
  579MOL0     H78116   1.608   0.534   1.614 -2.9260 -2.9342 -0.8343
  579MOL0     H78117   1.654   0.159   1.685  0.1213 -0.1013 -1.3857
  579MOL0     H78118   1.610   0.276   1.567 -1.3135 -1.1742 -0.4703
  579MOL0     H78119   1.841   0.376   1.556 -1.1223  0.2025 -0.5074
  579MOL0     H78120   1.888   0.255   1.686  1.1379 -4.6982 -2.1326
  579MOL0     H78121   1.866   0.075   1.539 -2.7976 -0.0405  0.6595
  579MOL0     H78122   1.971   0.197   1.459 -0.4632  2.0978 -1.4433
  579MOL0     H78123   1.857   0.127   1.281 -0.4938  2.4692 -1.4379
  579MOL0     H78124   1.744   0.252   1.335 -0.0897 -0.1760  0.9133
  579MOL0     H78125   1.627   0.212   1.152  0.0249 -0.1640 -1.2806
  579MOL0     H78126   1.464   0.167   1.009 -0.0550  1.4345  0.6921
  579MOL0     H78127   1.278  -0.332   0.811  0.1162 -0.3642 -2.9649
  579MOL0     H78128   1.140  -0.373   0.624  1.3156  4.4106 -3.1553
  579MOL0     H78129   0.699  -0.321   0.656 -1.1036 -0.9940 -1.2361
  579MOL0     H78130   0.738  -0.163   0.609 -1.9766 -0.8341  0.0292
  579MOL0     H78131   0.726  -0.218   0.363  1.1309  1.6039  1.5019
  579MOL0     H78132   0.718  -0.387   0.407  2.7540  0.0801  1.5453
  579MOL0     H78133   0.498  -0.318   0.557  2.2423  2.1722  2.3584
  579MOL0     H78134   0.508  -0.170   0.457  0.7287 -0.4066 -3.7750
  579MOL0     H78135   0.424  -0.447   0.379 -1.3548  0.1174  1.0914
  579MOL0     H78136   0.528  -0.376   0.270  2.3983 -3.5428  3.4028
  579MOL0     H78137   0.382  -0.170   0.238  0.4187 -0.6623 -0.3245
  579MOL0     H78138   0.296  -0.214   0.395 -1.6554 -0.7714 -0.5216
  579MOL0     H78139   0.276  -0.368   0.131 -1.3685 -0.6453  0.9544
  579MOL0     H78140   0.205  -0.410   0.281  0.5238 -1.7426 -0.7147
  579MOL0     H78141   0.095  -0.197   0.284  2.0896 -0.6138  0.9496
  579MOL0     H78142   0.038  -0.318   0.178  1.2310 -2.0983  0.4082
  579MOL0     H78143   0.036  -0.134   0.025  1.2109  1.8257 -1.8734
  579MOL0     H78144   0.139  -0.042   0.132  0.0783 -0.0615 -0.3298
  579MOL0     H78145   0.823  -0.136   0.790  0.3928 -0.3687 -2.4312
  579MOL0     H78146   0.997  -0.056   0.978  3.2350  1.1130 -0.2667
  579MOL0     H78147   1.325  -0.158   1.246 -1.1623  1.7596  3.6235
  579MOL0     H78148   1.492  -0.131   1.400 -2.5044  1.0507  0.2271
  579MOL0     H78149   1.274   1.114   2.692 -0.4643  1.1669  2.5631
  579MOL0     H78150   1.131   1.250   2.849  1.4377  0.4352  0.5243
  579MOL0     H78151   0.712   1.365   3.068 -3.2871 -0.7019 -0.2100
  579MOL0     H78152   0.570   1.525   3.159 -1.4747 -1.2194 -1.1170
  579MOL0     H78153   0.512   1.767   3.306 -2.2818  0.6493  0.5023
  579MOL0     H78154   0.408   1.682   3.204  0.1841  0.5047  2.4558
  579MOL0     H78155   0.416   1.986   3.216 -0.5458  0.3602  2.9096
  579MOL0     H78156   0.296   1.883   3.290 -2.0141  1.3810 -1.4300
  579MOL0     H78157   0.233   1.804   3.054  0.7012  0.0405 -3.5394
  579MOL0     H78158   0.366   1.917   2.996  1.1180 -1.5742  0.5025
  579MOL0     H78159   0.105   2.005   2.999 -0.0755 -0.7129  0.0076
  579MOL0     H78160   0.130   1.985   3.168  0.6707 -2.9621  0.0756
  579MOL0     H78161   0.281   2.371   3.140 -0.1113  0.8729  1.1516
  579MOL0     H78162   0.673   1.818   2.877 -2.2827  0.0801  0.1191
  579MOL0     H78163   0.781   1.580   2.632 -1.3044 -1.0315 -0.3778
  579MOL0     H78164   0.708   1.741   2.668  1.2912  1.4867  3.1521
  579MOL0     H78165   0.877   1.712   2.696  1.4764 -1.9827 -0.9025
  580MOL0     O78166   6.214   9.174   2.183  0.7421  0.0567 -0.4613
  580MOL0     C78167   6.330   9.180   2.143 -0.2776 -0.4679 -0.1369
  580MOL0     O78168   6.409   9.295   2.144  0.4302 -0.5540 -0.1545
  580MOL0     C78169   6.341   9.405   2.197  0.2574  0.4714  0.3793
  580MOL0     C78170   6.346   9.416   2.332  0.8842  1.0651  0.1984
  580MOL0     C78171   6.278   9.520   2.394 -0.9206 -0.8083 -1.3414
  580MOL0     C78172   6.203   9.609   2.329 -0.3390  0.6475  0.2288
  580MOL0     O78173   6.139   9.716   2.386 -0.0803 -0.3732  0.2166
  580MOL0     C78174   6.056   9.687   2.492 -0.6468  0.3061 -1.0199
  580MOL0     C78175   5.960   9.802   2.511 -0.9481 -0.7147  0.9400
  580MOL0     C78176   5.869   9.816   2.382  0.8498  0.4418 -0.7538
  580MOL0     C78177   5.769   9.701   2.362 -0.2006 -0.1468  0.1711
  580MOL0     C78178   5.662   9.715   2.249  0.4058  0.0639 -0.5776
  580MOL0     C78179   5.562   9.608   2.265  0.2433  0.1038 -0.7931
  580MOL0     C78180   5.442   9.655   2.357  0.7437 -0.2535 -0.2389
  580MOL0     C78181   5.369   9.537   2.429 -0.8669  0.0932 -0.1144
  580MOL0     N78182   5.332   9.430   2.339  0.1888 -0.0499 -0.3794
  580MOL0     C78183   5.369   9.302   2.334  0.0479  0.4815 -0.6334
  580MOL0     C78184   5.300   9.243   2.241  0.5550 -0.2802  0.0952
  580MOL0     C78185   5.311   9.104   2.194 -0.2535 -0.4760 -0.5244
  580MOL0     C78186   5.436   9.092   2.103  0.4081  0.7794  0.3985
  580MOL0     C78187   5.450   8.947   2.036 -0.6372 -0.4511  0.1208
  580MOL0     C78188   5.568   8.943   1.930 -0.1813  0.0530 -0.0419
  580MOL0     O78189   5.688   8.898   1.998 -0.2850 -0.5546  0.9686
  580MOL0     C78190   5.787   8.845   1.918  0.1949 -0.1624 -0.2281
  580MOL0     C78191   5.772   8.742   1.826  0.9381 -0.1200  1.1411
  580MOL0     C78192   5.880   8.685   1.756  0.2831 -0.0534  0.1305
  580MOL0     C78193   6.006   8.726   1.782 -0.3817 -0.4994 -0.3008
  580MOL0     C78194   6.123   8.656   1.720  0.3263  0.0791 -0.0415
  580MOL0     O78195   6.116   8.531   1.658  0.5684  0.3360  0.1233
  580MOL0     C78196   6.229   8.462   1.633 -0.7143 -0.2888 -0.4489
  580MOL0     C78197   6.325   8.432   1.732 -0.3212 -0.3829  0.4180
  580MOL0     C78198   6.436   8.351   1.690  0.4170 -0.8333 -0.1307
  580MOL0     C78199   6.459   8.308   1.556  0.5550 -0.9323 -1.7478
  580MOL0     O78200   6.583   8.246   1.533  0.6227 -0.0614  0.9523
  580MOL0     C78201   6.601   8.204   1.396  0.1685 -0.5278  0.1240
  580MOL0     C78202   6.744   8.157   1.370 -0.6076 -0.2099 -0.6640
  580MOL0     C78203   6.771   8.024   1.438 -0.0913 -0.4443 -1.3834
  580MOL0     C78204   6.904   7.960   1.392 -0.0823 -0.4336  0.0516
  580MOL0     C78205   6.928   7.843   1.488  0.0876 -0.1336 -0.6225
  580MOL0     C78206   7.067   7.774   1.469  0.0298  0.3268  0.1898
  580MOL0     C78207   7.076   7.651   1.563 -0.5518  0.0075  0.2002
  580MOL0     C78208   7.068   7.684   1.713  0.2887 -0.3826  0.0774
  580MOL0    Cl78209   7.102   7.534   1.798  0.2289 -0.1915 -0.0605
  580MOL0     C78210   6.354   8.324   1.468 -0.4139  1.0757 -0.6092
  580MOL0     C78211   6.245   8.400   1.513  0.4795  0.4341  0.5103
  580MOL0     O78212   6.224   8.718   1.747  0.9459  0.1149  0.2328
  580MOL0     C78213   6.022   8.847   1.855 -0.9318  0.5496  0.1631
  580MOL0     C78214   5.916   8.902   1.928  0.4470  0.0677 -0.4219
  580MOL0     N78215   5.222   9.331   2.181 -0.0238 -0.4245 -0.3983
  580MOL0     N78216   5.242   9.456   2.238 -0.5067 -0.0869  0.3048
  580MOL0     C78217   6.186   9.586   2.189  0.5597  0.4827 -0.7511
  580MOL0     C78218   6.260   9.491   2.118 -0.2891  0.4072  0.9678
  580MOL0     C78219   6.417   9.067   2.095 -0.6828 -0.6639 -0.1581
  580MOL0     C78220   6.538   9.092   2.020  0.1916 -0.4088 -0.0621
  580MOL0     C78221   6.599   8.991   1.946 -1.2951 -0.2172 -0.2119
  580MOL0     C78222   6.552   8.859   1.949  0.7189 -0.6375  0.0923
  580MOL0     O78223   6.627   8.763   1.877 -0.0422 -0.7827 -0.6709
  580MOL0     C78224   6.556   8.693   1.777 -0.2081 -0.5310 -0.3841
  580MOL0     C78225   6.653   8.639   1.671 -0.0367 -1.2033 -0.5954
  580MOL0     C78226   6.799   8.625   1.719 -0.8358 -0.5510  0.2170
  580MOL0     C78227   6.892   8.743   1.702 -0.5213 -1.0726  0.0548
  580MOL0     C78228   7.037   8.708   1.712  0.0696 -0.4615  1.1599
  580MOL0     C78229   7.155   8.675   1.722  0.3951  0.1630  0.8229
  580MOL0     C78230   6.437   8.829   2.022  0.0829  0.0807  0.1272
  580MOL0     C78231   6.371   8.933   2.094 -0.2365 -0.8961 -0.0657
  580MOL0     C78232   6.244   8.889   2.164  0.3218 -0.0469  0.3871
  580MOL0     H78233   6.404   9.338   2.381 -0.2959 -0.7264 -1.1260
  580MOL0     H78234   6.279   9.513   2.502  3.4247  0.4490 -1.1028
  580MOL0     H78235   6.006   9.591   2.477  1.7433 -1.1875  0.0971
  580MOL0     H78236   6.105   9.670   2.588 -2.7483 -1.4217 -0.1532
  580MOL0     H78237   6.005   9.900   2.525  1.2287 -1.8479  2.3826
  580MOL0     H78238   5.891   9.800   2.595  0.2434  1.7746  2.0742
  580MOL0     H78239   5.929   9.817   2.291  1.2786 -3.1477 -0.6610
  580MOL0     H78240   5.810   9.906   2.400  0.4191 -0.3144  2.1226
  580MOL0     H78241   5.825   9.618   2.317  0.3949  0.7406 -0.7717
  580MOL0     H78242   5.745   9.662   2.462  1.1108 -0.6522  0.3060
  580MOL0     H78243   5.608   9.811   2.249 -1.3472 -0.8735 -0.1154
  580MOL0     H78244   5.718   9.704   2.156 -2.4803  1.3095 -2.6092
  580MOL0     H78245   5.526   9.572   2.168 -0.5027 -2.2424  0.2820
  580MOL0     H78246   5.612   9.519   2.304 -1.0940 -0.6145 -0.6336
  580MOL0     H78247   5.368   9.712   2.300  0.6143  2.4682  2.4537
  580MOL0     H78248   5.481   9.730   2.426 -2.6550  0.6760  0.8657
  580MOL0     H78249   5.447   9.497   2.496 -2.5521 -1.4907  1.0148
  580MOL0     H78250   5.286   9.570   2.492 -1.8297  1.3749 -1.9623
  580MOL0     H78251   5.449   9.250   2.384 -0.7928  0.8242  1.1334
  580MOL0     H78252   5.315   9.034   2.278 -0.2758  0.9058  0.6583
  580MOL0     H78253   5.222   9.064   2.145 -2.2993  0.8652  1.8756
  580MOL0     H78254   5.432   9.167   2.023  2.4376  1.3238  0.7420
  580MOL0     H78255   5.522   9.111   2.169 -0.6819  1.1596  1.7596
  580MOL0     H78256   5.352   8.908   2.005 -0.9945  0.8304 -0.4376
  580MOL0     H78257   5.479   8.879   2.116 -2.4765 -2.2072 -0.5963
  580MOL0     H78258   5.583   9.039   1.879  2.5263 -1.5548 -2.5807
  580MOL0     H78259   5.552   8.870   1.850 -0.9222  0.4991 -0.3109
  580MOL0     H78260   5.674   8.701   1.804 -0.7672  4.1863 -0.5034
  580MOL0     H78261   5.875   8.611   1.676 -2.1243 -0.2300  0.3737
  580MOL0     H78262   6.329   8.481   1.828  2.1398 -0.4505  0.4291
  580MOL0     H78263   6.517   8.329   1.758 -0.0392  0.8047  0.9954
  580MOL0     H78264   6.527   8.126   1.374 -0.8918  0.4189  0.2281
  580MOL0     H78265   6.593   8.284   1.323  1.4820 -1.1322 -0.7268
  580MOL0     H78266   6.759   8.140   1.263  1.6729 -3.1968 -0.0144
  580MOL0     H78267   6.815   8.230   1.409  1.0846 -2.7680  1.3903
  580MOL0     H78268   6.790   8.059   1.540 -0.0084  1.8698 -2.1219
  580MOL0     H78269   6.685   7.958   1.420 -1.2996  1.0169 -1.2218
  580MOL0     H78270   6.999   8.014   1.396  1.3235 -2.7894  0.4442
  580MOL0     H78271   6.897   7.912   1.294 -0.1837 -1.9855  0.7887
  580MOL0     H78272   6.845   7.771   1.480  0.9491 -1.8063  3.2141
  580MOL0     H78273   6.926   7.892   1.586 -0.2000 -2.3669  0.5534
  580MOL0     H78274   7.075   7.737   1.366  4.8218 -1.3821  0.9505
  580MOL0     H78275   7.155   7.836   1.489  1.4249 -0.9588 -1.6420
  580MOL0     H78276   7.172   7.599   1.559 -1.1594 -1.0662 -1.5755
  580MOL0     H78277   7.000   7.577   1.536  0.0286  0.0833 -1.7882
  580MOL0     H78278   7.154   7.751   1.728 -0.4929  0.2788  1.9004
  580MOL0     H78279   6.974   7.735   1.734  0.6475  1.1863 -1.7818
  580MOL0     H78280   6.362   8.291   1.365 -2.3005 -3.0758  0.3500
  580MOL0     H78281   6.150   8.399   1.461  0.5300 -5.6428 -0.1803
  580MOL0     H78282   6.111   8.908   1.866 -1.2828  1.2084 -0.5877
  580MOL0     H78283   5.932   8.984   1.998 -1.5008  1.9610 -2.0638
  580MOL0     H78284   6.120   9.647   2.128 -0.4184  0.1154 -0.0823
  580MOL0     H78285   6.258   9.477   2.010  1.1728  0.5122  0.9014
  580MOL0     H78286   6.580   9.189   1.996 -0.1647 -0.0462  0.7625
  580MOL0     H78287   6.691   9.007   1.890 -0.4814 -1.4392  0.7064
  580MOL0     H78288   6.484   8.763   1.735  0.9988  1.3544  0.5402
  580MOL0     H78289   6.506   8.605   1.818  1.4325  0.0220  3.2284
  580MOL0     H78290   6.657   8.708   1.587 -2.6002  2.4406  1.9789
  580MOL0     H78291   6.606   8.551   1.626 -1.4189 -0.4535 -0.6552
  580MOL0     H78292   6.832   8.528   1.681  0.5697 -1.5071  3.5566
  580MOL0     H78293   6.806   8.610   1.827 -0.7543  2.9866  0.8298
  580MOL0     H78294   6.887   8.796   1.606  0.5896 -2.2802 -0.7048
  580MOL0     H78295   6.880   8.815   1.784 -1.2870  2.0802 -2.6040
  580MOL0     H78296   7.255   8.644   1.746  0.6186 -0.6136 -1.0082
  580MOL0     H78297   6.402   8.726   2.017  0.6088 -0.0429 -1.4228
  580MOL0     H78298   6.160   8.948   2.126  0.5452  2.2890  3.2151
  580MOL0     H78299   6.225   8.788   2.126 -1.3139  0.6750 -0.8612
  580MOL0     H78300   6.256   8.886   2.272  1.0084 -3.9681  0.3652
  581MOL0     O78301   4.446   7.801  11.268 -0.4499  0.0153 -0.1370
  581MOL0     C78302   4.400   7.864  11.364  0.7266 -0.0174  0.3912
  581MOL0     O78303   4.460   7.973  11.424 -0.1186  0.2618  0.1001
  581MOL0     C78304   4.572   8.031  11.365 -0.1996  0.5335  0.0388
  581MOL0     C78305   4.577   8.084  11.239  0.3279 -0.1467 -0.5983
  581MOL0     C78306   4.684   8.142  11.181 -1.3584 -0.0267 -0.6633
  581MOL0     C78307   4.809   8.134  11.246 -0.2108 -0.4390 -0.6370
  581MOL0     O78308   4.924   8.175  11.181 -0.2756 -0.9257  0.0132
  581MOL0     C78309   4.921   8.310  11.126 -0.3396  0.6338 -0.8543
  581MOL0     C78310   5.063   8.367  11.119 -0.7176 -0.2990  0.7020
  581MOL0     C78311   5.127   8.362  11.259 -0.1095  0.0641 -0.2707
  581MOL0     C78312   5.266   8.415  11.247  0.7883 -0.1448 -0.4867
  581MOL0     C78313   5.336   8.417  11.386  0.7401  0.5928 -0.0197
  581MOL0     C78314   5.479   8.473  11.384  0.0107  0.5975  0.0903
  581MOL0     C78315   5.523   8.528  11.520 -0.8449  0.1649  0.3365
  581MOL0     C78316   5.488   8.450  11.652 -0.5170 -0.1453 -0.3320
  581MOL0     N78317   5.593   8.353  11.698  0.0971  0.5115 -0.8058
  581MOL0     C78318   5.725   8.346  11.658  0.4412 -0.2386 -0.8374
  581MOL0     C78319   5.764   8.233  11.722 -0.2589 -0.3033  0.4437
  581MOL0     C78320   5.898   8.168  11.691 -0.3985 -0.5339  0.0228
  581MOL0     C78321   6.012   8.248  11.751  0.0056  0.4982 -0.1505
  581MOL0     C78322   6.030   8.203  11.896  0.0800 -0.2077 -0.2714
  581MOL0     C78323   6.154   8.253  11.960 -0.3244 -1.0981 -0.8070
  581MOL0     O78324   6.264   8.210  11.885  0.0141  0.0404 -0.0695
  581MOL0     C78325   6.394   8.259  11.923  1.1725  0.5318 -0.4663
  581MOL0     C78326   6.486   8.259  11.820  0.3587 -1.1401  0.1167
  581MOL0     C78327   6.608   8.319  11.853 -0.4711  0.4649  0.3349
  581MOL0     C78328   6.642   8.361  11.979  0.9124  0.5880  0.6856
  581MOL0     C78329   6.783   8.384  12.012 -0.8483 -0.0174  0.1934
  581MOL0     O78330   6.802   8.449  12.121  0.1056  0.0449  0.0506
  581MOL0     C78331   6.924   8.496  12.164 -0.8905  0.7402 -0.3528
  581MOL0     C78332   6.985   8.422  12.265  0.1707  0.3330  0.3146
  581MOL0     C78333   7.106   8.448  12.310  0.1977  0.3908 -0.5289
  581MOL0     C78334   7.166   8.569  12.277  0.0888  0.3641  0.2007
  581MOL0     O78335   7.277   8.603  12.346  0.1797 -0.0330 -0.9586
  581MOL0     C78336   7.353   8.698  12.278  0.4591 -0.1790  0.3309
  581MOL0     C78337   7.491   8.689  12.330  0.2786 -0.0642  0.3374
  581MOL0     C78338   7.570   8.563  12.291 -0.3054 -0.2066  0.1750
  581MOL0     C78339   7.689   8.537  12.384 -0.0926  0.8421  0.8546
  581MOL0     C78340   7.822   8.554  12.320 -0.4506  0.5361 -0.1043
  581MOL0     C78341   7.943   8.523  12.411 -0.9689 -0.1243 -0.2064
  581MOL0     C78342   8.072   8.572  12.342  0.0027  0.4589 -0.1653
  581MOL0     C78343   8.152   8.456  12.292  0.0581  0.1232  0.3905
  581MOL0    Cl78344   8.323   8.495  12.263  0.0703 -0.1299  0.3229
  581MOL0     C78345   7.099   8.659  12.183 -0.0521  0.6679 -0.4694
  581MOL0     C78346   6.971   8.620  12.144  0.8726  0.0352  0.0919
  581MOL0     O78347   6.872   8.355  11.930 -0.3796  0.3132 -0.2285
  581MOL0     C78348   6.547   8.354  12.082  1.2708  0.0858 -0.1551
  581MOL0     C78349   6.421   8.301  12.051  0.3252  0.1036  0.4956
  581MOL0     N78350   5.657   8.177  11.786  0.0385 -0.4978  0.3060
  581MOL0     N78351   5.553   8.250  11.767  0.3471  0.2659  0.7625
  581MOL0     C78352   4.817   8.091  11.378 -0.2239  0.4736  0.4735
  581MOL0     C78353   4.695   8.044  11.434 -0.5562 -0.1461 -0.4909
  581MOL0     C78354   4.269   7.811  11.410 -0.4098  0.1788 -0.6942
  581MOL0     C78355   4.271   7.675  11.448  0.5806  0.4799  0.1307
  581MOL0     C78356   4.152   7.614  11.496 -0.5106 -0.9408 -0.6263
  581MOL0     C78357   4.037   7.691  11.497  0.4885  0.0090  0.3403
  581MOL0     O78358   3.912   7.640  11.538  0.2133  0.0895  0.1865
  581MOL0     C78359   3.904   7.503  11.583 -0.4854  1.2568 -0.4860
  581MOL0     C78360   3.768   7.468  11.645  0.2025  0.6379 -0.1312
  581MOL0     C78361   3.661   7.499  11.538  0.3780 -0.1638  0.1164
  581MOL0     C78362   3.527   7.431  11.575 -0.0984 -0.0171  0.6176
  581MOL0     C78363   3.455   7.520  11.652  0.3621 -0.9720  0.5560
  581MOL0     C78364   3.395   7.604  11.722 -0.6871 -0.8625  0.2713
  581MOL0     C78365   4.032   7.828  11.462 -1.3105 -0.9066 -0.0133
  581MOL0     C78366   4.151   7.887  11.417 -0.6612  0.1785  0.0327
  581MOL0     C78367   4.150   8.025  11.368 -0.6182 -0.6916  0.0460
  581MOL0     H78368   4.489   8.073  11.176  0.7453 -1.6045 -0.9582
  581MOL0     H78369   4.674   8.179  11.080 -4.2987  1.6174  0.1331
  581MOL0     H78370   4.873   8.309  11.028  0.3781  0.9941 -1.2106
  581MOL0     H78371   4.864   8.373  11.195  0.6161  0.1346  0.4427
  581MOL0     H78372   5.062   8.468  11.075 -2.1192 -0.0995  1.1434
  581MOL0     H78373   5.128   8.306  11.056  1.0002  1.0765  1.0370
  581MOL0     H78374   5.130   8.259  11.296  0.5665  0.6687  1.4425
  581MOL0     H78375   5.076   8.425  11.332 -0.4490 -0.8274  0.2906
  581MOL0     H78376   5.316   8.358  11.168  2.9460  1.0804 -0.0758
  581MOL0     H78377   5.270   8.519  11.211 -1.1950  0.2926  0.4077
  581MOL0     H78378   5.278   8.482  11.453  2.4461  2.8327 -0.5698
  581MOL0     H78379   5.338   8.317  11.429  5.4992 -0.4878 -2.0816
  581MOL0     H78380   5.551   8.397  11.353  0.0292 -0.2595  2.0620
  581MOL0     H78381   5.480   8.561  11.320 -5.2115  0.7809 -0.2160
  581MOL0     H78382   5.486   8.631  11.526  1.4566  0.9848  1.5950
  581MOL0     H78383   5.632   8.529  11.518 -0.8294  0.7336  0.9196
  581MOL0     H78384   5.475   8.522  11.734  0.8532 -0.3118  0.0414
  581MOL0     H78385   5.394   8.400  11.624 -1.8615  2.7069 -1.3463
  581MOL0     H78386   5.789   8.406  11.594  0.1314 -0.8085 -1.6894
  581MOL0     H78387   5.889   8.069  11.736 -0.6581  0.1428  1.5690
  581MOL0     H78388   5.926   8.149  11.587  0.1610 -1.8372  0.3916
  581MOL0     H78389   6.101   8.220  11.693  0.2957  1.3038 -0.1163
  581MOL0     H78390   6.000   8.357  11.756 -3.3158  0.2023  0.7454
  581MOL0     H78391   6.036   8.095  11.904 -0.0741 -0.1746  0.3595
  581MOL0     H78392   5.947   8.223  11.964  1.3163 -1.6602  1.7628
  581MOL0     H78393   6.155   8.219  12.064 -2.2517 -1.8502 -0.9972
  581MOL0     H78394   6.171   8.360  11.976  0.6207 -1.3407 -0.1071
  581MOL0     H78395   6.459   8.200  11.732  0.0666 -0.0594 -0.5327
  581MOL0     H78396   6.682   8.300  11.776  0.8552  1.1335  1.4176
  581MOL0     H78397   6.957   8.319  12.282  1.7063 -0.4767 -1.5956
  581MOL0     H78398   7.166   8.385  12.375 -0.7034  1.3717  1.3288
  581MOL0     H78399   7.370   8.678  12.172  2.8603 -3.4587  1.1474
  581MOL0     H78400   7.316   8.798  12.298  3.9826  1.5185 -0.7672
  581MOL0     H78401   7.546   8.775  12.291  0.2968 -0.2519 -0.0490
  581MOL0     H78402   7.473   8.693  12.438 -4.9094  0.6176 -0.2977
  581MOL0     H78403   7.509   8.473  12.296  2.9434 -2.5304  1.8401
  581MOL0     H78404   7.605   8.582  12.189 -0.3569  0.7103  0.3204
  581MOL0     H78405   7.681   8.430  12.405  0.7868  0.5529 -0.1946
  581MOL0     H78406   7.683   8.598  12.474 -0.2633 -0.9441  2.0892
  581MOL0     H78407   7.821   8.662  12.299  1.9011  1.0463  1.8743
  581MOL0     H78408   7.819   8.497  12.227 -1.9533 -2.0950  1.4201
  581MOL0     H78409   7.937   8.576  12.507  3.0726  0.6717 -0.2235
  581MOL0     H78410   7.953   8.418  12.439  0.4212  0.9115  3.8870
  581MOL0     H78411   8.142   8.635  12.396  0.5823  1.9669 -2.5004
  581MOL0     H78412   8.039   8.628  12.253 -0.8957  0.2535  0.0315
  581MOL0     H78413   8.139   8.378  12.368 -3.6711  2.0745  2.0385
  581MOL0     H78414   8.107   8.424  12.198  1.0460 -0.0699 -0.0236
  581MOL0     H78415   7.128   8.762  12.164  0.6673  0.7668  1.0749
  581MOL0     H78416   6.907   8.689  12.091 -0.0368 -1.0101 -0.1973
  581MOL0     H78417   6.573   8.384  12.183  3.5071 -2.1672  0.0400
  581MOL0     H78418   6.346   8.279  12.126 -2.9104 -0.7889 -2.6786
  581MOL0     H78419   4.914   8.074  11.424 -0.8747  0.3358  1.8421
  581MOL0     H78420   4.705   8.004  11.534 -1.2391  1.4753  0.2556
  581MOL0     H78421   4.363   7.619  11.445 -1.0864 -2.4189 -0.8657
  581MOL0     H78422   4.153   7.508  11.524 -1.0126 -0.5773  0.8808
  581MOL0     H78423   3.967   7.505  11.673  0.7700 -0.9420 -1.2445
  581MOL0     H78424   3.954   7.430  11.520  0.8369  2.9849 -1.5533
  581MOL0     H78425   3.758   7.540  11.727 -2.1800  0.9463 -0.6076
  581MOL0     H78426   3.758   7.367  11.686 -1.9332  1.5673  1.8507
  581MOL0     H78427   3.690   7.455  11.442  0.0757 -2.0014  0.8257
  581MOL0     H78428   3.651   7.608  11.538 -0.6410 -0.2178  1.7206
  581MOL0     H78429   3.466   7.412  11.487  1.7912  1.0075 -1.0009
  581MOL0     H78430   3.529   7.335  11.627 -1.9378  0.6282  2.0199
  581MOL0     H78431   3.350   7.680  11.783 -0.0791 -1.2076  1.1814
  581MOL0     H78432   3.932   7.869  11.458 -0.8648  0.1298 -1.4893
  581MOL0     H78433   4.188   8.105  11.432 -2.3602  0.2475 -0.0231
  581MOL0     H78434   4.211   8.033  11.278 -0.8744  2.3959  0.0350
  581MOL0     H78435   4.049   8.057  11.342  0.6593  3.6555 -0.3893
  582MOL0     O78436   9.118   4.414   4.153  0.0709  0.6372 -1.2668
  582MOL0     C78437   9.012   4.410   4.096  0.0990  0.5028  0.7193
  582MOL0     O78438   8.892   4.468   4.128 -0.5175  0.3158 -0.8813
  582MOL0     C78439   8.903   4.568   4.225  0.2311 -0.7207  0.0201
  582MOL0     C78440   8.793   4.584   4.310  0.4071  0.3003  1.0246
  582MOL0     C78441   8.788   4.680   4.415  0.9351  0.0601 -0.5799
  582MOL0     C78442   8.896   4.777   4.426  0.0845  0.5397  0.2226
  582MOL0     O78443   8.889   4.877   4.521 -1.0248 -0.2783  1.1404
  582MOL0     C78444   8.838   4.998   4.468 -0.3110  0.2971  0.3209
  582MOL0     C78445   8.883   5.124   4.536  0.3493  0.0998  0.6723
  582MOL0     C78446   9.027   5.124   4.584 -0.0177 -0.6085  0.1973
  582MOL0     C78447   9.053   5.241   4.687  0.0725 -0.3062 -0.6846
  582MOL0     C78448   9.193   5.240   4.753 -0.6961  0.6665  0.4872
  582MOL0     C78449   9.188   5.364   4.855  0.0398  0.3728  0.1045
  582MOL0     C78450   9.317   5.367   4.940  0.2243 -0.3228  0.0717
  582MOL0     C78451   9.333   5.237   5.024  0.3958 -0.1031 -0.4831
  582MOL0     N78452   9.455   5.241   5.108  1.0780 -0.4905 -1.6609
  582MOL0     C78453   9.577   5.273   5.076 -0.4481  0.4335 -0.5822
  582MOL0     C78454   9.660   5.232   5.172 -0.3753  0.6060 -0.4097
  582MOL0     C78455   9.810   5.238   5.173 -0.6445 -0.0460  0.3704
  582MOL0     C78456   9.882   5.143   5.082 -0.3072 -0.1880  0.8436
  582MOL0     C78457  10.033   5.131   5.125  0.3074 -0.1111  0.4055
  582MOL0     C78458  10.113   5.026   5.052  0.4891  0.5636  0.1001
  582MOL0     O78459  10.244   5.081   5.043 -0.3416 -0.1681 -0.3010
  582MOL0     C78460  10.334   5.013   4.966 -0.1849 -0.3961  0.0370
  582MOL0     C78461  10.465   5.053   4.975 -0.8310 -0.2265  0.6258
  582MOL0     C78462  10.574   4.994   4.920 -0.9675  0.5516  0.3067
  582MOL0     C78463  10.558   4.872   4.854 -0.8598 -0.8679  0.9754
  582MOL0     C78464  10.672   4.812   4.775  0.7361 -0.7515 -0.3694
  582MOL0     O78465  10.776   4.891   4.755  0.4584 -0.0346  0.2573
  582MOL0     C78466  10.890   4.858   4.690  0.6753 -0.0919 -0.0027
  582MOL0     C78467  10.906   4.749   4.601  0.2293  0.2162  1.1275
  582MOL0     C78468  11.029   4.708   4.549 -0.5512 -0.9921  0.5698
  582MOL0     C78469  11.148   4.773   4.602  0.1033 -0.4070 -0.2887
  582MOL0     O78470  11.269   4.738   4.560  0.2614  0.6511 -0.1363
  582MOL0     C78471  11.293   4.597   4.520  0.3288  0.8311 -0.1291
  582MOL0     C78472  11.449   4.585   4.474 -0.3463 -0.7396  0.1074
  582MOL0     C78473  11.528   4.655   4.576 -0.3634  0.2206 -0.3388
  582MOL0     C78474  11.677   4.613   4.564  0.0965  0.0481  0.2194
  582MOL0     C78475  11.764   4.688   4.661  0.0166  0.1458  0.4148
  582MOL0     C78476  11.733   4.672   4.808 -0.0950  0.5550 -0.2880
  582MOL0     C78477  11.855   4.691   4.906 -0.0365 -0.2083  0.7017
  582MOL0     C78478  11.833   4.649   5.051 -0.8840 -0.4149 -0.0800
  582MOL0    Cl78479  11.801   4.478   5.059  0.0897  0.0737  0.5349
  582MOL0     C78480  11.127   4.882   4.694 -0.2631  0.2286 -0.4903
  582MOL0     C78481  11.004   4.930   4.729  0.0401  0.1595 -0.0170
  582MOL0     O78482  10.667   4.694   4.759  0.0993  0.1719 -0.1768
  582MOL0     C78483  10.432   4.826   4.837 -0.1808  0.1297 -0.1642
  582MOL0     C78484  10.318   4.893   4.891  0.2702  0.5713  1.2182
  582MOL0     N78485   9.583   5.155   5.258 -0.7263  0.0142  0.5422
  582MOL0     N78486   9.459   5.166   5.220 -0.0229  0.0735  0.3534
  582MOL0     C78487   9.004   4.766   4.335  0.3197 -0.7050 -0.2484
  582MOL0     C78488   9.005   4.675   4.230  0.3702  0.7099 -0.0742
  582MOL0     C78489   9.000   4.313   3.981 -0.1040  0.0095  0.2736
  582MOL0     C78490   8.875   4.269   3.936 -0.8985 -0.4371 -1.1282
  582MOL0     C78491   8.859   4.186   3.826  0.0075 -0.6250  0.5986
  582MOL0     C78492   8.976   4.140   3.763 -0.6252 -0.8118 -0.1856
  582MOL0     O78493   8.982   4.047   3.658 -0.5949  0.4406  0.3648
  582MOL0     C78494   8.867   3.974   3.616  0.4444  1.0327  0.9209
  582MOL0     C78495   8.880   3.864   3.516 -0.0178 -0.0674  0.4600
  582MOL0     C78496   8.744   3.799   3.488 -0.1345  0.3070  0.1710
  582MOL0     C78497   8.744   3.700   3.384 -0.2663 -0.4476  1.0771
  582MOL0     C78498   8.767   3.566   3.434 -0.8456  0.4452  0.0844
  582MOL0     C78499   8.798   3.459   3.475  0.3131 -0.2985 -0.1049
  582MOL0     C78500   9.101   4.185   3.806 -0.5960  0.7844 -0.6838
  582MOL0     C78501   9.120   4.263   3.919  0.2024 -0.0128 -0.7849
  582MOL0     C78502   9.262   4.306   3.961 -0.2742 -0.2281  0.4885
  582MOL0     H78503   8.705   4.527   4.284  1.4072 -2.1215  2.6416
  582MOL0     H78504   8.701   4.678   4.479  2.5457 -0.6021  1.7170
  582MOL0     H78505   8.868   5.011   4.364 -3.8619  3.7480 -0.5411
  582MOL0     H78506   8.729   4.990   4.459 -0.0314 -1.6473 -2.6560
  582MOL0     H78507   8.814   5.139   4.620  0.9060 -3.8673  2.0708
  582MOL0     H78508   8.864   5.200   4.460 -0.1064 -1.8691 -1.3039
  582MOL0     H78509   9.099   5.118   4.502 -0.7012  1.0669 -0.5786
  582MOL0     H78510   9.038   5.034   4.645  2.7352 -0.6496 -0.2251
  582MOL0     H78511   9.053   5.339   4.637  5.5658  0.6295  0.5355
  582MOL0     H78512   8.976   5.234   4.764  0.3606  0.1911 -0.3463
  582MOL0     H78513   9.212   5.147   4.807  1.5062  2.3931  2.9184
  582MOL0     H78514   9.278   5.246   4.685 -0.1681 -0.1489  1.0727
  582MOL0     H78515   9.180   5.448   4.786 -0.0927 -1.0259 -1.6370
  582MOL0     H78516   9.099   5.372   4.918 -1.5295 -2.2847 -1.6172
  582MOL0     H78517   9.310   5.452   5.008 -3.7346 -0.1539 -0.3642
  582MOL0     H78518   9.401   5.386   4.872  1.1677  0.7115  1.4595
  582MOL0     H78519   9.240   5.225   5.080  1.8871  0.6048  2.3580
  582MOL0     H78520   9.338   5.147   4.961  2.5382 -0.7132  0.4619
  582MOL0     H78521   9.622   5.310   4.983  0.7017  0.5016 -0.0191
  582MOL0     H78522   9.836   5.341   5.147 -5.1409  0.4760 -3.4679
  582MOL0     H78523   9.838   5.218   5.277 -0.5050 -2.0883 -0.0229
  582MOL0     H78524   9.840   5.042   5.078 -0.5802 -0.0312 -1.6314
  582MOL0     H78525   9.870   5.172   4.977  1.0910 -2.5832 -0.0512
  582MOL0     H78526  10.037   5.110   5.232  0.9877 -0.1636  0.3723
  582MOL0     H78527  10.077   5.227   5.098 -4.3528  1.3206 -3.6248
  582MOL0     H78528  10.080   5.007   4.949 -1.7182 -2.5975  1.2501
  582MOL0     H78529  10.105   4.929   5.102  1.2994 -1.0580 -2.6815
  582MOL0     H78530  10.496   5.140   5.032 -0.7032 -1.0768  1.8920
  582MOL0     H78531  10.672   5.040   4.931  1.8858 -4.1473 -1.9759
  582MOL0     H78532  10.810   4.702   4.579 -0.1719  1.1401  0.8208
  582MOL0     H78533  11.038   4.621   4.485  0.0420 -2.1289  2.1514
  582MOL0     H78534  11.273   4.517   4.592  0.0076 -0.0084 -1.1255
  582MOL0     H78535  11.232   4.572   4.433 -0.7394  2.2020  0.1820
  582MOL0     H78536  11.483   4.481   4.465  2.3060  0.1939 -2.2354
  582MOL0     H78537  11.448   4.633   4.376 -2.8898  0.5938  0.6990
  582MOL0     H78538  11.522   4.764   4.562  1.4193  0.5420  1.0016
  582MOL0     H78539  11.489   4.629   4.675  3.6840 -1.8588  0.9362
  582MOL0     H78540  11.721   4.621   4.464  1.5435  0.3983  0.8553
  582MOL0     H78541  11.692   4.505   4.573  0.8313  0.1584  0.4290
  582MOL0     H78542  11.755   4.791   4.625 -2.2640 -0.7195 -1.8173
  582MOL0     H78543  11.868   4.658   4.645  0.1809  2.1962 -3.6267
  582MOL0     H78544  11.657   4.744   4.838 -1.5585 -0.3821 -1.5908
  582MOL0     H78545  11.695   4.570   4.809  0.0300  0.4616 -1.8613
  582MOL0     H78546  11.871   4.798   4.918  0.1198 -0.3318  1.6221
  582MOL0     H78547  11.948   4.647   4.870 -0.9485  0.2959 -2.7116
  582MOL0     H78548  11.916   4.665   5.120 -1.2193  0.4841  0.1276
  582MOL0     H78549  11.742   4.701   5.084 -2.0633 -1.7159 -1.1483
  582MOL0     H78550  11.212   4.932   4.741 -1.1838 -1.4230  3.2946
  582MOL0     H78551  10.986   5.019   4.789 -0.7241 -1.5059  2.3801
  582MOL0     H78552  10.418   4.741   4.770  0.0760  1.3419 -1.8263
  582MOL0     H78553  10.222   4.843   4.879  1.4841 -1.2691 -2.2651
  582MOL0     H78554   9.079   4.845   4.331  0.5098 -0.9223 -2.8158
  582MOL0     H78555   9.091   4.678   4.164  0.6970  0.8130  0.3485
  582MOL0     H78556   8.790   4.307   3.992  0.7070  1.0643  0.4137
  582MOL0     H78557   8.763   4.150   3.792  0.7067 -2.1775  0.1345
  582MOL0     H78558   8.803   4.050   3.569 -0.0584  0.4494  0.6448
  582MOL0     H78559   8.810   3.934   3.701 -3.3550  1.9491 -0.9534
  582MOL0     H78560   8.944   3.786   3.558  0.7411  0.7783  0.9062
  582MOL0     H78561   8.929   3.888   3.421 -1.0364  0.0349 -0.0572
  582MOL0     H78562   8.668   3.871   3.458  1.2393  1.3535 -0.9758
  582MOL0     H78563   8.704   3.749   3.577 -1.0008  0.5802 -0.0621
  582MOL0     H78564   8.652   3.702   3.326  0.8615  0.9842 -0.7786
  582MOL0     H78565   8.811   3.715   3.299 -3.5781  0.0841 -1.6388
  582MOL0     H78566   8.822   3.358   3.504  0.6181 -0.9988 -2.6032
  582MOL0     H78567   9.183   4.136   3.754  0.7300  1.4829  0.6599
  582MOL0     H78568   9.282   4.414   3.960  0.2357 -0.3184  0.4152
  582MOL0     H78569   9.295   4.257   4.053  0.0553  0.6363  0.8437
  582MOL0     H78570   9.337   4.278   3.887  3.1305 -2.0899  4.2333
  583MOL0     O78571  10.493   3.669   5.909  0.3541 -0.3041  0.3184
  583MOL0     C78572  10.483   3.570   5.833  0.7680 -1.1760  0.4410
  583MOL0     O78573  10.577   3.478   5.812  0.5033 -0.4904  0.5686
  583MOL0     C78574  10.702   3.515   5.845 -1.2675  0.2227  0.1293
  583MOL0     C78575  10.756   3.634   5.794  0.1378 -0.5017 -0.3878
  583MOL0     C78576  10.890   3.667   5.811 -0.4024 -0.2676 -0.1134
  583MOL0     C78577  10.975   3.586   5.890 -0.2989  0.6408 -0.5557
  583MOL0     O78578  11.109   3.630   5.907 -0.7441 -0.7989 -0.4182
  583MOL0     C78579  11.181   3.570   6.020  0.0078  1.7547 -0.0094
  583MOL0     C78580  11.316   3.649   6.046 -0.8278 -0.2841  0.1177
  583MOL0     C78581  11.291   3.806   6.036  0.0320  0.7046 -0.5545
  583MOL0     C78582  11.395   3.876   6.129  0.2325  0.0749 -0.3428
  583MOL0     C78583  11.324   3.881   6.270  0.6970  0.3933 -0.0485
  583MOL0     C78584  11.383   3.977   6.375 -0.4335 -0.2377 -0.7989
  583MOL0     C78585  11.347   3.943   6.518  0.5094 -0.3179 -0.9040
  583MOL0     C78586  11.383   4.062   6.613 -1.5830 -0.7728 -1.0139
  583MOL0     N78587  11.522   4.098   6.603 -0.1274  0.3028 -0.0734
  583MOL0     C78588  11.625   4.021   6.648 -0.1196 -0.4472  0.5294
  583MOL0     C78589  11.737   4.092   6.622  0.8081 -0.0394 -0.1477
  583MOL0     C78590  11.878   4.055   6.656  0.3867  0.3902  0.3170
  583MOL0     C78591  11.927   3.934   6.579  0.3965  0.9775  1.0085
  583MOL0     C78592  12.071   3.903   6.622  0.6412 -0.6459 -0.0067
  583MOL0     C78593  12.170   4.001   6.562 -1.0507 -0.0256  0.1349
  583MOL0     O78594  12.300   3.959   6.602 -0.4432 -0.0484  0.0653
  583MOL0     C78595  12.418   4.038   6.582 -0.2420  0.5501 -0.1862
  583MOL0     C78596  12.429   4.172   6.542  0.2215  1.1048 -0.1098
  583MOL0     C78597  12.560   4.216   6.515 -0.0138  0.0828 -0.3298
  583MOL0     C78598  12.677   4.139   6.542 -1.3257  0.0502 -1.2877
  583MOL0     C78599  12.816   4.177   6.523  0.8233 -0.5894 -0.6226
  583MOL0     O78600  12.846   4.304   6.570  0.0281  0.7937 -0.2107
  583MOL0     C78601  12.979   4.338   6.565 -0.1278  0.9141 -0.8776
  583MOL0     C78602  13.033   4.363   6.689  0.4451 -0.1541 -0.1865
  583MOL0     C78603  13.162   4.398   6.707 -0.2590  0.1585 -1.0138
  583MOL0     C78604  13.253   4.396   6.598 -0.3140  0.3979  0.3154
  583MOL0     O78605  13.387   4.433   6.590 -0.3329  0.4072  0.5714
  583MOL0     C78606  13.453   4.475   6.719  0.1437  0.2342  0.2578
  583MOL0     C78607  13.606   4.476   6.712 -0.4089  0.1137 -0.8298
  583MOL0     C78608  13.663   4.331   6.694 -0.1313  0.1655 -0.3831
  583MOL0     C78609  13.812   4.325   6.682  0.1134 -0.8942  0.3223
  583MOL0     C78610  13.862   4.183   6.659  0.1403 -0.5612  0.5160
  583MOL0     C78611  13.935   4.127   6.783 -0.1709  0.0566  0.3079
  583MOL0     C78612  13.858   4.104   6.909  0.5594 -1.0557  0.2142
  583MOL0     C78613  13.943   4.045   7.020  0.3072 -0.0683  0.0594
  583MOL0    Cl78614  14.062   4.158   7.094  0.0211 -0.1533 -0.0072
  583MOL0     C78615  13.199   4.368   6.470 -0.1596 -0.5682 -0.8599
  583MOL0     C78616  13.065   4.336   6.451  0.6003  0.9941 -0.3926
  583MOL0     O78617  12.891   4.106   6.466  0.3702 -0.5788  0.1280
  583MOL0     C78618  12.659   4.014   6.601  0.0548  0.1272  0.4210
  583MOL0     C78619  12.529   3.966   6.619 -0.3842  0.7043  0.0468
  583MOL0     N78620  11.698   4.209   6.557  0.6951 -0.3991  1.2632
  583MOL0     N78621  11.568   4.209   6.542  0.6925  0.3937 -0.1086
  583MOL0     C78622  10.921   3.465   5.939  0.8286  1.0400  0.9027
  583MOL0     C78623  10.793   3.430   5.908 -0.3638 -0.2103 -0.2577
  583MOL0     C78624  10.346   3.561   5.768 -0.1681  0.7385 -0.9453
  583MOL0     C78625  10.272   3.673   5.755 -0.2169 -0.3048 -0.5112
  583MOL0     C78626  10.145   3.674   5.694  0.2217 -0.3890 -0.9121
  583MOL0     C78627  10.077   3.556   5.652 -0.4622  0.2746  0.1107
  583MOL0     O78628   9.948   3.552   5.616  0.1850 -0.3783  0.2391
  583MOL0     C78629   9.901   3.671   5.542 -0.8842  0.0893  0.5612
  583MOL0     C78630   9.757   3.656   5.481 -0.7103 -1.0750  0.1493
  583MOL0     C78631   9.650   3.652   5.594 -0.4968 -0.6330 -0.0421
  583MOL0     C78632   9.515   3.683   5.535 -0.1420  0.0603 -0.3768
  583MOL0     C78633   9.477   3.593   5.421 -0.5252 -0.0747  0.0385
  583MOL0     C78634   9.435   3.522   5.334  0.4321  0.2393  0.1356
  583MOL0     C78635  10.148   3.435   5.675 -0.6051  0.0237 -0.4997
  583MOL0     C78636  10.278   3.437   5.735  0.4341 -1.2907  1.1559
  583MOL0     C78637  10.349   3.307   5.745 -0.0360  0.1655  0.0917
  583MOL0     H78638  10.698   3.707   5.739  0.8213 -0.3113 -0.8662
  583MOL0     H78639  10.930   3.761   5.776 -1.5363  0.6001  0.8268
  583MOL0     H78640  11.119   3.589   6.108 -1.4250  2.7812 -1.1946
  583MOL0     H78641  11.191   3.464   5.998 -1.1211  1.1377  2.1286
  583MOL0     H78642  11.381   3.613   5.966 -0.4402 -0.4368  0.4959
  583MOL0     H78643  11.370   3.614   6.134  1.2850 -0.1931 -1.0879
  583MOL0     H78644  11.188   3.824   6.071 -0.3694 -0.9699 -0.7786
  583MOL0     H78645  11.299   3.838   5.932 -1.4124  0.4906 -0.7532
  583MOL0     H78646  11.499   3.842   6.129 -0.3302 -1.7707  0.5006
  583MOL0     H78647  11.406   3.981   6.100  1.9287  0.3670  1.1755
  583MOL0     H78648  11.221   3.916   6.259 -0.2258 -1.8014  0.9288
  583MOL0     H78649  11.335   3.777   6.301  2.1061 -0.3416 -2.7349
  583MOL0     H78650  11.491   3.975   6.355 -0.6974 -0.2826 -2.3235
  583MOL0     H78651  11.352   4.080   6.352 -0.4866 -0.1406 -0.3078
  583MOL0     H78652  11.393   3.852   6.557  1.0946  0.6359  0.6942
  583MOL0     H78653  11.239   3.928   6.524  0.2882  1.6538  1.9629
  583MOL0     H78654  11.322   4.150   6.591  1.2288  1.2959 -1.1730
  583MOL0     H78655  11.359   4.029   6.714 -1.0044 -2.8679 -1.5038
  583MOL0     H78656  11.615   3.928   6.704 -2.3968 -1.8992 -2.0507
  583MOL0     H78657  11.933   4.147   6.637 -0.2541  1.1922  2.1061
  583MOL0     H78658  11.884   4.028   6.762 -0.1205  0.9479  0.4913
  583MOL0     H78659  11.867   3.845   6.598  2.5912 -1.4700 -2.3025
  583MOL0     H78660  11.925   3.952   6.471 -0.8210 -1.7895  0.4983
  583MOL0     H78661  12.094   3.805   6.580  4.0627  1.6239 -4.3332
  583MOL0     H78662  12.079   3.906   6.731  2.0223 -0.0403 -0.0969
  583MOL0     H78663  12.167   4.104   6.600  0.5898 -0.0745  0.4673
  583MOL0     H78664  12.152   3.995   6.454 -0.2124 -2.7891  0.0936
  583MOL0     H78665  12.339   4.224   6.511 -0.2265 -0.8673 -2.4805
  583MOL0     H78666  12.575   4.313   6.468  0.0155  0.0059 -0.4799
  583MOL0     H78667  12.972   4.349   6.778 -1.5894 -1.2983 -1.6762
  583MOL0     H78668  13.209   4.426   6.801  1.7378 -0.2610 -1.8295
  583MOL0     H78669  13.418   4.573   6.751 -0.7361 -0.1426  0.4788
  583MOL0     H78670  13.435   4.407   6.803 -0.0839 -0.0590 -0.0258
  583MOL0     H78671  13.630   4.541   6.628 -0.1420  0.7011 -0.3058
  583MOL0     H78672  13.644   4.521   6.804 -0.2224 -3.6060  1.0996
  583MOL0     H78673  13.632   4.261   6.773  2.0376  1.1510  1.4577
  583MOL0     H78674  13.624   4.293   6.599  1.9208 -0.4969 -0.9959
  583MOL0     H78675  13.856   4.376   6.768 -2.7244  2.3353  0.0882
  583MOL0     H78676  13.823   4.384   6.590 -0.1653 -0.6791  0.4254
  583MOL0     H78677  13.931   4.181   6.574 -3.8878 -0.5352 -3.0667
  583MOL0     H78678  13.791   4.111   6.618 -0.2502  0.5738 -0.8291
  583MOL0     H78679  13.986   4.033   6.761 -0.4688 -0.3751  1.4050
  583MOL0     H78680  14.013   4.203   6.794  0.1299 -0.1242 -0.4743
  583MOL0     H78681  13.780   4.029   6.895  0.6066 -0.8613 -1.2353
  583MOL0     H78682  13.812   4.199   6.938  1.5001 -0.8597  1.1253
  583MOL0     H78683  13.879   4.002   7.098 -0.5390 -0.7432 -0.9812
  583MOL0     H78684  13.999   3.962   6.976 -1.3289 -0.5012 -1.3074
  583MOL0     H78685  13.263   4.387   6.384 -0.4108  1.3373 -0.6656
  583MOL0     H78686  13.018   4.302   6.359  3.3733 -0.8991 -1.2121
  583MOL0     H78687  12.744   3.958   6.638  1.5975  1.8397 -0.3869
  583MOL0     H78688  12.525   3.868   6.667  2.0001  1.8976  3.0669
  583MOL0     H78689  10.983   3.395   5.995 -0.5066 -0.3597  0.6862
  583MOL0     H78690  10.758   3.335   5.948  1.6503 -0.6795  0.5174
  583MOL0     H78691  10.311   3.773   5.775 -0.3173 -0.4040  0.2041
  583MOL0     H78692  10.109   3.773   5.666  2.7800  0.5964 -1.0056
  583MOL0     H78693   9.971   3.684   5.459 -1.3023  0.7025  0.3016
  583MOL0     H78694   9.894   3.758   5.607 -1.8003 -0.2255  0.8933
  583MOL0     H78695   9.754   3.566   5.419  0.6903 -0.9436 -0.1304
  583MOL0     H78696   9.731   3.745   5.424 -1.9357 -1.0203  0.7553
  583MOL0     H78697   9.663   3.731   5.668 -2.7491 -1.5467  1.4393
  583MOL0     H78698   9.649   3.562   5.656 -0.9632 -0.9697 -0.5334
  583MOL0     H78699   9.446   3.668   5.619 -0.7909  1.8958 -0.5266
  583MOL0     H78700   9.504   3.788   5.504 -1.6765 -0.2823 -1.1420
  583MOL0     H78701   9.425   3.456   5.251  1.4836  3.3096 -2.6684
  583MOL0     H78702  10.112   3.337   5.646  0.8548 -0.0783 -2.1507
  583MOL0     H78703  10.285   3.219   5.740 -1.5543  1.1941  0.7444
  583MOL0     H78704  10.428   3.307   5.669  0.6600  0.9252  0.7910
  583MOL0     H78705  10.397   3.303   5.843  2.2515 -0.8810 -0.9951
  584MOL0     O78706   0.177   2.872   2.953 -0.5587  0.1964 -0.0472
  584MOL0     C78707   0.168   2.947   2.853  0.8068 -0.4478  0.4545
  584MOL0     O78708   0.267   3.018   2.788  0.9683 -0.3630 -1.1186
  584MOL0     C78709   0.396   3.031   2.849  1.4334 -0.1361 -0.1276
  584MOL0     C78710   0.470   3.133   2.796  0.2733 -0.5316 -0.7526
  584MOL0     C78711   0.598   3.159   2.853 -0.0889  0.2587 -0.5033
  584MOL0     C78712   0.651   3.092   2.964  0.3197 -0.1796 -0.5471
  584MOL0     O78713   0.776   3.124   3.025 -0.1619 -0.1058  0.6392
  584MOL0     C78714   0.815   3.259   3.015  0.8122 -0.6712 -0.7719
  584MOL0     C78715   0.931   3.283   3.121 -0.1032  1.1944  0.6054
  584MOL0     C78716   1.004   3.424   3.097  0.1552  0.8100 -0.1017
  584MOL0     C78717   1.117   3.453   3.203 -0.2649 -0.1411  0.7180
  584MOL0     C78718   1.178   3.595   3.182 -0.0392  0.1586  0.2131
  584MOL0     C78719   1.264   3.629   3.054 -1.1376  0.4661 -0.3769
  584MOL0     C78720   1.405   3.583   3.057 -0.0787  0.2992 -0.9753
  584MOL0     C78721   1.494   3.650   2.960 -0.7004  0.2376 -0.0351
  584MOL0     N78722   1.634   3.616   2.988 -0.8079  0.8697 -0.2060
  584MOL0     C78723   1.690   3.493   3.007 -0.2275  0.1552  0.0556
  584MOL0     C78724   1.818   3.513   3.051  0.1302 -0.0758  0.1967
  584MOL0     C78725   1.931   3.411   3.092  0.0917  0.3149  0.5947
  584MOL0     C78726   1.893   3.341   3.231  0.8897 -0.9303  0.2437
  584MOL0     C78727   1.964   3.211   3.246 -0.2859  0.5892 -0.6924
  584MOL0     C78728   2.111   3.206   3.198 -1.0310 -0.1214  0.4791
  584MOL0     O78729   2.177   3.304   3.260  0.3395 -1.0675 -0.7737
  584MOL0     C78730   2.296   3.282   3.313  0.0743 -0.7995 -0.4396
  584MOL0     C78731   2.410   3.352   3.263  0.7894  0.2092 -0.2744
  584MOL0     C78732   2.536   3.330   3.325 -0.4021 -0.3337 -0.9156
  584MOL0     C78733   2.545   3.250   3.445 -0.0130  0.5454  0.3700
  584MOL0     C78734   2.679   3.208   3.498  0.2280  0.1379 -0.0811
  584MOL0     O78735   2.785   3.266   3.436 -0.0272  0.7073 -0.0765
  584MOL0     C78736   2.911   3.223   3.479 -0.3538  0.4803  0.7627
  584MOL0     C78737   2.977   3.112   3.423 -0.5405 -0.6193 -0.2737
  584MOL0     C78738   3.112   3.088   3.462  0.1866 -0.6529  0.0135
  584MOL0     C78739   3.180   3.168   3.562  0.2577 -0.4943 -0.0143
  584MOL0     O78740   3.301   3.118   3.606  1.4597 -0.5803 -0.1231
  584MOL0     C78741   3.364   3.194   3.712  0.2412 -0.7406  0.1784
  584MOL0     C78742   3.512   3.161   3.692  0.6873  0.0708  0.8866
  584MOL0     C78743   3.535   3.020   3.735 -0.1793 -0.4833  0.5199
  584MOL0     C78744   3.670   2.965   3.684 -0.1234 -0.7168  0.7372
  584MOL0     C78745   3.682   2.819   3.697 -0.4168 -0.6993 -0.9868
  584MOL0     C78746   3.670   2.774   3.846  0.9376 -0.5191  0.4044
  584MOL0     C78747   3.718   2.627   3.875  0.1586 -0.0189 -0.3636
  584MOL0     C78748   3.610   2.536   3.931 -0.5449  0.0342  0.4607
  584MOL0    Cl78749   3.590   2.588   4.098  0.1849 -0.2772  0.0404
  584MOL0     C78750   3.107   3.275   3.615  0.1923  0.8093 -0.2583
  584MOL0     C78751   2.979   3.301   3.572  0.0649  0.5716 -0.2103
  584MOL0     O78752   2.689   3.128   3.597 -0.6377 -0.2255  0.3356
  584MOL0     C78753   2.429   3.187   3.494 -0.0189  0.9115 -0.5982
  584MOL0     C78754   2.314   3.193   3.419  0.2749  0.5933  0.1138
  584MOL0     N78755   1.835   3.657   3.060  0.3015 -0.0758  0.4223
  584MOL0     N78756   1.727   3.715   3.019 -0.5601  0.4288  0.3384
  584MOL0     C78757   0.570   2.987   3.012  0.7963  0.5794  0.2686
  584MOL0     C78758   0.450   2.953   2.955  0.6678  0.2431 -0.1306
  584MOL0     C78759   0.040   2.953   2.790  0.0834 -0.1866  0.5524
  584MOL0     C78760   0.044   2.948   2.650 -0.1055 -0.1096  0.1565
  584MOL0     C78761  -0.068   2.947   2.574  0.2878 -0.2964 -0.4819
  584MOL0     C78762  -0.192   2.949   2.641  0.0949  1.0404 -0.2646
  584MOL0     O78763  -0.312   2.951   2.566 -0.2329  0.0911 -0.0455
  584MOL0     C78764  -0.363   3.085   2.527 -1.0513  0.1305 -0.5748
  584MOL0     C78765  -0.512   3.077   2.478 -0.6124  0.2291 -0.5979
  584MOL0     C78766  -0.601   3.060   2.602  0.6366 -0.9775 -0.7919
  584MOL0     C78767  -0.668   3.186   2.667 -0.2982 -0.3728 -0.1109
  584MOL0     C78768  -0.570   3.249   2.763  0.1072  0.6162  0.2443
  584MOL0     C78769  -0.494   3.322   2.829 -0.2723  0.6547 -0.3526
  584MOL0     C78770  -0.206   2.955   2.779 -0.3653  0.1491 -0.8525
  584MOL0     C78771  -0.089   2.967   2.858 -0.0075 -0.5079  0.0192
  584MOL0     C78772  -0.098   2.990   3.014  0.0102 -0.7812  0.4975
  584MOL0     H78773   0.428   3.193   2.716  1.9898 -1.8647 -2.7628
  584MOL0     H78774   0.655   3.244   2.817 -0.9528  1.4454  0.8464
  584MOL0     H78775   0.849   3.289   2.915 -0.6245  1.8975 -0.5708
  584MOL0     H78776   0.732   3.322   3.046  0.3548 -2.3216  1.5464
  584MOL0     H78777   1.011   3.209   3.125 -0.6931  0.5090  0.1972
  584MOL0     H78778   0.879   3.284   3.217  2.9425  0.1303  2.3882
  584MOL0     H78779   0.920   3.493   3.111 -1.7469 -1.5726  1.0209
  584MOL0     H78780   1.043   3.416   2.995 -1.0362 -0.5327 -0.4966
  584MOL0     H78781   1.076   3.455   3.304  2.1717  2.0899  1.7635
  584MOL0     H78782   1.196   3.378   3.192  2.4560  2.5009  0.9965
  584MOL0     H78783   1.097   3.669   3.186  0.5643  0.8133  0.6567
  584MOL0     H78784   1.244   3.626   3.264 -1.1747  0.8592  0.8891
  584MOL0     H78785   1.221   3.600   2.958 -3.4608  1.4602  0.2921
  584MOL0     H78786   1.252   3.737   3.058 -3.9362  0.2695 -1.2172
  584MOL0     H78787   1.415   3.474   3.054  1.6010  0.3756  0.4848
  584MOL0     H78788   1.434   3.609   3.159 -1.2830  0.3618 -0.6292
  584MOL0     H78789   1.475   3.624   2.855  1.0112 -3.5430  0.4445
  584MOL0     H78790   1.483   3.759   2.970 -1.0763  0.5216 -2.7548
  584MOL0     H78791   1.649   3.393   2.995  2.6555 -1.0026 -1.0006
  584MOL0     H78792   1.937   3.334   3.015  1.4559 -0.2945  1.2699
  584MOL0     H78793   2.030   3.458   3.098 -0.5039  1.5752  0.9008
  584MOL0     H78794   1.905   3.413   3.312  0.7412 -1.5775  0.8478
  584MOL0     H78795   1.786   3.316   3.230  0.6635 -0.0777  1.2867
  584MOL0     H78796   1.904   3.138   3.190 -1.8117  1.8575 -0.7741
  584MOL0     H78797   1.959   3.176   3.349 -1.4896 -0.0696 -0.9521
  584MOL0     H78798   2.122   3.242   3.095  1.2879  0.7609  0.9870
  584MOL0     H78799   2.162   3.110   3.207 -0.0395  0.3472  0.0201
  584MOL0     H78800   2.387   3.427   3.187  1.8389  2.0512  1.1721
  584MOL0     H78801   2.626   3.380   3.290 -1.0975 -0.2551 -2.6967
  584MOL0     H78802   2.945   3.052   3.338  1.9651  2.2969 -3.5341
  584MOL0     H78803   3.164   3.013   3.403 -1.6519 -3.1680  1.3542
  584MOL0     H78804   3.358   3.303   3.704  1.2831 -0.5753  1.5417
  584MOL0     H78805   3.331   3.165   3.812  2.3095 -2.1296  0.4989
  584MOL0     H78806   3.524   3.172   3.584  0.5453  0.4487  0.9078
  584MOL0     H78807   3.572   3.235   3.746 -2.0417  0.9041  3.0213
  584MOL0     H78808   3.548   3.013   3.843  2.4300 -1.3260  0.2152
  584MOL0     H78809   3.444   2.966   3.705 -0.5134 -0.1142  0.8656
  584MOL0     H78810   3.755   3.017   3.730 -0.7931  2.3617 -1.1867
  584MOL0     H78811   3.683   3.006   3.583 -0.6236  2.2420  1.7544
  584MOL0     H78812   3.780   2.787   3.661  0.3632 -0.2908  0.6719
  584MOL0     H78813   3.600   2.768   3.646 -0.2270 -2.5540  0.4545
  584MOL0     H78814   3.726   2.842   3.910  1.1721  0.2140 -0.5581
  584MOL0     H78815   3.563   2.781   3.866  0.3441 -4.2064 -0.7284
  584MOL0     H78816   3.808   2.641   3.935  0.3793 -1.9064 -0.2224
  584MOL0     H78817   3.743   2.575   3.782 -2.3174 -1.3029 -0.3907
  584MOL0     H78818   3.521   2.561   3.873  0.6200 -1.1598 -1.9891
  584MOL0     H78819   3.642   2.432   3.936  2.7118  0.9282  0.7563
  584MOL0     H78820   3.140   3.335   3.699  0.8016 -0.2797  0.3035
  584MOL0     H78821   2.934   3.386   3.623  2.1831 -0.5657  4.0529
  584MOL0     H78822   2.432   3.127   3.584 -2.6133  0.2352 -0.9063
  584MOL0     H78823   2.227   3.131   3.442  1.2861 -1.2060 -0.6767
  584MOL0     H78824   0.610   2.919   3.087  1.1844  3.0622  2.4721
  584MOL0     H78825   0.403   2.868   3.002  2.2904 -0.5077  0.1958
  584MOL0     H78826   0.137   2.931   2.597 -1.8412 -1.3950 -2.7459
  584MOL0     H78827  -0.064   2.950   2.466 -1.3171 -1.3850 -0.6096
  584MOL0     H78828  -0.306   3.134   2.447 -2.6558  2.9194 -0.1417
  584MOL0     H78829  -0.352   3.161   2.604 -0.2773  3.8170 -3.9865
  584MOL0     H78830  -0.523   2.996   2.405  1.1145  0.6137 -1.3313
  584MOL0     H78831  -0.523   3.175   2.431 -2.0052  0.4699  0.1839
  584MOL0     H78832  -0.551   3.012   2.686 -3.8826 -0.8957  2.2426
  584MOL0     H78833  -0.692   3.004   2.582 -1.9890  1.7152  2.4948
  584MOL0     H78834  -0.712   3.255   2.594 -0.8857  2.1793  2.4686
  584MOL0     H78835  -0.752   3.153   2.729  1.7265 -0.9974  2.4889
  584MOL0     H78836  -0.432   3.393   2.880 -1.5945  2.2623 -0.8698
  584MOL0     H78837  -0.299   2.958   2.835  0.5898  0.9793  0.7499
  584MOL0     H78838  -0.189   3.034   3.054 -0.7027 -1.9177  0.1656
  584MOL0     H78839  -0.095   2.896   3.070 -1.2253  0.1259  2.1573
  584MOL0     H78840  -0.018   3.057   3.047 -0.1238 -1.3176  1.9998
  585MOL0     O78841   7.485   8.539   8.161 -0.9363 -0.0837 -0.2926
  585MOL0     C78842   7.500   8.613   8.260  0.6130 -0.0632  0.2546
  585MOL0     O78843   7.419   8.728   8.274  0.5912 -0.1275 -0.8084
  585MOL0     C78844   7.317   8.740   8.189  0.3487  0.7754 -0.4578
  585MOL0     C78845   7.181   8.731   8.235 -0.9854 -0.5104  0.0079
  585MOL0     C78846   7.083   8.753   8.151  0.0682  0.1059 -0.1854
  585MOL0     C78847   7.094   8.803   8.016 -0.0114  0.7528 -0.6434
  585MOL0     O78848   6.988   8.850   7.943  0.5627  0.0900 -0.4607
  585MOL0     C78849   7.026   8.975   7.886 -0.7858 -0.2209 -0.3756
  585MOL0     C78850   6.915   9.054   7.815  0.5289  1.3078  0.8353
  585MOL0     C78851   6.854   8.979   7.697 -0.4269  0.2136  1.2841
  585MOL0     C78852   6.954   9.008   7.582  0.0402  0.1666  0.6336
  585MOL0     C78853   6.922   8.920   7.467  0.6223 -0.3352  0.2653
  585MOL0     C78854   6.795   8.962   7.384 -0.5925 -1.3741  0.6375
  585MOL0     C78855   6.770   8.862   7.270  0.1106  0.1714 -0.3798
  585MOL0     C78856   6.639   8.886   7.199 -0.0012 -1.0031  0.3230
  585MOL0     N78857   6.523   8.912   7.293  0.5502  0.3312  0.3390
  585MOL0     C78858   6.476   9.033   7.342  0.4389 -0.5857  0.8478
  585MOL0     C78859   6.357   9.002   7.404 -0.0415  0.4839 -0.3343
  585MOL0     C78860   6.268   9.092   7.482 -0.3586 -0.1180  0.2016
  585MOL0     C78861   6.328   9.195   7.586 -0.4452  0.2590  0.3846
  585MOL0     C78862   6.428   9.125   7.684 -0.3367  0.0932 -0.2657
  585MOL0     C78863   6.358   9.008   7.747  0.5603  0.0856  0.7010
  585MOL0     O78864   6.445   8.966   7.849  0.6365 -0.1217  0.0930
  585MOL0     C78865   6.539   8.872   7.821  0.1570 -0.2880 -0.3091
  585MOL0     C78866   6.573   8.816   7.697  0.2808  0.2739 -0.2768
  585MOL0     C78867   6.660   8.709   7.693  0.8250  0.6107  0.0631
  585MOL0     C78868   6.721   8.661   7.806  0.3237 -0.3112  0.9488
  585MOL0     C78869   6.791   8.529   7.804 -0.5333  0.1165  0.2852
  585MOL0     O78870   6.826   8.481   7.924 -0.0736 -0.0884 -0.7467
  585MOL0     C78871   6.909   8.376   7.924 -0.8722  0.1929  0.6465
  585MOL0     C78872   7.047   8.400   7.903  0.4582 -0.1953  0.2683
  585MOL0     C78873   7.136   8.305   7.949  0.0668  0.9606 -0.2377
  585MOL0     C78874   7.087   8.179   7.994 -0.7429 -0.0273 -0.4668
  585MOL0     O78875   7.182   8.101   8.045 -0.0904 -0.1073  0.4322
  585MOL0     C78876   7.157   7.961   8.035  0.3805 -0.2991 -0.2983
  585MOL0     C78877   7.276   7.883   8.069 -0.1431  0.4424 -0.5869
  585MOL0     C78878   7.380   7.864   7.960 -0.4894  0.5688 -0.1270
  585MOL0     C78879   7.499   7.780   8.013  0.3328 -1.1481 -0.2130
  585MOL0     C78880   7.629   7.782   7.925 -0.4402 -0.5588 -0.1495
  585MOL0     C78881   7.758   7.720   7.994 -0.1143 -0.3191  0.7034
  585MOL0     C78882   7.879   7.722   7.896  0.5691 -0.1869 -0.0638
  585MOL0     C78883   7.991   7.630   7.937 -0.1334 -0.0974 -0.0254
  585MOL0    Cl78884   8.059   7.700   8.082  0.3960  0.2098 -0.0520
  585MOL0     C78885   6.954   8.157   8.012  0.0293  0.5702  1.0710
  585MOL0     C78886   6.863   8.255   7.974  0.2536  0.3597  0.4122
  585MOL0     O78887   6.812   8.477   7.695 -0.4946 -0.3555  0.4165
  585MOL0     C78888   6.711   8.735   7.926 -0.3901 -0.5468 -0.7368
  585MOL0     C78889   6.615   8.837   7.935 -0.4068  0.8323 -0.5244
  585MOL0     N78890   6.342   8.863   7.396  0.7332 -0.3988 -1.0512
  585MOL0     N78891   6.438   8.811   7.324 -0.6700  0.0983  0.8468
  585MOL0     C78892   7.231   8.807   7.969 -0.2866 -0.2327 -0.7326
  585MOL0     C78893   7.339   8.782   8.056 -0.1289 -0.3594 -0.0268
  585MOL0     C78894   7.603   8.585   8.351  0.1115  0.6622  0.5007
  585MOL0     C78895   7.704   8.484   8.325 -0.2448 -0.1186  0.1019
  585MOL0     C78896   7.821   8.482   8.406  0.6267 -0.6467 -0.3626
  585MOL0     C78897   7.827   8.561   8.524  0.9062  0.3949  0.2003
  585MOL0     O78898   7.941   8.570   8.602  0.5392  0.3338  1.0934
  585MOL0     C78899   7.955   8.448   8.675 -0.4870  0.0104  0.2993
  585MOL0     C78900   8.101   8.399   8.641  0.3449 -0.3648 -0.1540
  585MOL0     C78901   8.215   8.507   8.656  0.1843  0.3239 -0.3982
  585MOL0     C78902   8.350   8.448   8.657  0.1629  0.1617 -0.0856
  585MOL0     C78903   8.448   8.558   8.677  0.5390  0.0386 -0.3431
  585MOL0     C78904   8.533   8.644   8.700 -0.3905 -0.3315  0.0733
  585MOL0     C78905   7.714   8.635   8.558 -0.4939 -0.3842  0.0720
  585MOL0     C78906   7.604   8.656   8.473  0.2941  0.2687  0.1921
  585MOL0     C78907   7.495   8.742   8.530  0.5992  0.4708 -0.1447
  585MOL0     H78908   7.152   8.707   8.337 -1.3416 -1.1411 -0.2389
  585MOL0     H78909   6.985   8.766   8.196 -1.9501 -0.3757 -4.0066
  585MOL0     H78910   7.056   9.043   7.965 -2.7611  0.7649 -0.4303
  585MOL0     H78911   7.106   8.966   7.811 -1.9079  3.6695 -2.2793
  585MOL0     H78912   6.951   9.153   7.786 -1.7218  2.4063  1.5260
  585MOL0     H78913   6.830   9.064   7.884  0.8363 -0.6019  1.5430
  585MOL0     H78914   6.753   9.014   7.676  0.5669  1.7639 -1.3700
  585MOL0     H78915   6.834   8.873   7.715  0.3264  0.0582  1.2523
  585MOL0     H78916   6.964   9.115   7.564 -1.7754  0.6432  2.1169
  585MOL0     H78917   7.057   8.985   7.610  1.8570  4.4589 -1.5958
  585MOL0     H78918   7.003   8.927   7.393 -2.4764  1.1486 -3.3783
  585MOL0     H78919   6.899   8.819   7.500 -2.3256  0.2915  0.4539
  585MOL0     H78920   6.714   8.978   7.455  0.6153  4.8927  1.2137
  585MOL0     H78921   6.817   9.058   7.337 -4.3639 -0.1425  1.0379
  585MOL0     H78922   6.761   8.761   7.310 -1.4646  1.0136  1.5573
  585MOL0     H78923   6.852   8.852   7.198 -0.3109 -2.8940 -0.5633
  585MOL0     H78924   6.649   8.975   7.135 -2.3747 -2.9180 -3.0479
  585MOL0     H78925   6.641   8.802   7.128  1.0377  1.1362 -2.3717
  585MOL0     H78926   6.517   9.134   7.339 -1.5147  0.2439  0.2262
  585MOL0     H78927   6.232   9.151   7.397  1.4761 -2.1759 -2.1900
  585MOL0     H78928   6.192   9.031   7.530  0.6882  0.0956  2.2516
  585MOL0     H78929   6.373   9.280   7.534 -0.4349 -1.2406 -2.2660
  585MOL0     H78930   6.245   9.236   7.643  0.4091  3.7466 -0.6819
  585MOL0     H78931   6.468   9.191   7.761  0.9541 -1.3213  0.3268
  585MOL0     H78932   6.523   9.098   7.636  0.0697  0.3597  0.3797
  585MOL0     H78933   6.324   8.937   7.670 -3.0087  2.7322 -0.4327
  585MOL0     H78934   6.260   9.043   7.780 -0.7032  0.2622 -2.7472
  585MOL0     H78935   6.537   8.840   7.598 -2.2950 -2.3341 -0.1187
  585MOL0     H78936   6.674   8.659   7.597 -0.5395 -0.4428  0.3851
  585MOL0     H78937   7.083   8.496   7.868  1.7726 -0.9732 -0.5829
  585MOL0     H78938   7.245   8.309   7.945  0.0446  1.6139 -0.3193
  585MOL0     H78939   7.089   7.939   8.119 -0.0517 -2.4172 -1.1448
  585MOL0     H78940   7.120   7.932   7.936  3.5350 -1.3843 -1.2605
  585MOL0     H78941   7.321   7.916   8.163 -2.0624  2.7410 -0.4069
  585MOL0     H78942   7.242   7.779   8.081  1.8404 -0.2184 -0.2248
  585MOL0     H78943   7.338   7.819   7.870  1.9111 -0.9296 -0.5765
  585MOL0     H78944   7.414   7.965   7.933 -3.2296  1.1730 -1.6937
  585MOL0     H78945   7.456   7.679   8.018  0.4318 -1.2429 -1.1512
  585MOL0     H78946   7.512   7.798   8.120 -1.1479 -4.2423  0.6096
  585MOL0     H78947   7.653   7.882   7.890 -1.5999 -0.6205 -1.1922
  585MOL0     H78948   7.616   7.722   7.834  0.0547 -0.5452 -0.2339
  585MOL0     H78949   7.778   7.768   8.091  1.0557  1.8218 -0.5164
  585MOL0     H78950   7.732   7.619   8.026 -3.3366  0.7439  1.9094
  585MOL0     H78951   7.925   7.818   7.873 -0.2448 -0.3023 -2.4119
  585MOL0     H78952   7.838   7.677   7.805  0.1852 -0.9740  0.4831
  585MOL0     H78953   7.953   7.528   7.950  0.2727 -0.2003  0.3790
  585MOL0     H78954   8.063   7.630   7.856 -1.3468  1.3863 -1.1691
  585MOL0     H78955   6.916   8.062   8.047 -2.0134  0.4168 -1.2101
  585MOL0     H78956   6.759   8.240   8.001 -0.1170  1.2339 -0.4600
  585MOL0     H78957   6.763   8.716   8.019 -2.5311  1.2506  0.9303
  585MOL0     H78958   6.600   8.883   8.032 -4.7189  0.5850 -0.8651
  585MOL0     H78959   7.249   8.834   7.865  2.4014 -1.8449 -0.7636
  585MOL0     H78960   7.439   8.804   8.019 -0.9885 -0.2802 -2.5416
  585MOL0     H78961   7.692   8.418   8.240  0.3256 -0.2888  0.1479
  585MOL0     H78962   7.892   8.401   8.392  0.0684 -1.2037 -0.0347
  585MOL0     H78963   7.887   8.368   8.644 -1.7230  1.0981  0.1113
  585MOL0     H78964   7.944   8.466   8.782 -2.6357  0.4388  0.0379
  585MOL0     H78965   8.110   8.370   8.536  4.4384  1.3892 -0.4635
  585MOL0     H78966   8.131   8.322   8.713  2.6224  1.7180  1.2683
  585MOL0     H78967   8.190   8.561   8.748  1.7926 -1.0191  0.8996
  585MOL0     H78968   8.196   8.573   8.571  1.2477 -0.9651 -1.6848
  585MOL0     H78969   8.350   8.367   8.729 -2.9686 -1.4002 -1.6380
  585MOL0     H78970   8.361   8.405   8.557 -3.5605  0.0572 -0.5762
  585MOL0     H78971   8.602   8.726   8.707  2.1732 -1.9096 -3.5341
  585MOL0     H78972   7.719   8.711   8.636  2.0736 -0.2323 -0.1324
  585MOL0     H78973   7.510   8.840   8.485 -1.3141  0.0385 -1.8394
  585MOL0     H78974   7.394   8.708   8.504  0.9877 -0.1076 -0.9224
  585MOL0     H78975   7.493   8.750   8.639  0.0310 -2.1262  0.1104
  586MOL0     O78976   7.104   9.419   0.488  0.2675  0.2598 -0.1864
  586MOL0     C78977   7.011   9.344   0.499 -0.0815  0.2454  0.8099
  586MOL0     O78978   7.033   9.213   0.515  0.6626  0.2989  0.2478
  586MOL0     C78979   7.158   9.155   0.510 -0.0124  0.7110 -0.1926
  586MOL0     C78980   7.259   9.190   0.431 -0.7842  0.5918  0.0296
  586MOL0     C78981   7.376   9.110   0.420 -0.1256 -0.3678  0.0361
  586MOL0     C78982   7.386   8.988   0.487 -0.2779 -0.9378 -0.1554
  586MOL0     O78983   7.484   8.898   0.458  0.1524 -0.2671  0.1192
  586MOL0     C78984   7.546   8.837   0.570 -0.4332  1.0619  0.3827
  586MOL0     C78985   7.695   8.790   0.533 -0.0897  0.2767  0.5921
  586MOL0     C78986   7.684   8.689   0.423 -0.6472  0.2160  0.5950
  586MOL0     C78987   7.827   8.667   0.358  0.8170  0.1840  0.9084
  586MOL0     C78988   7.855   8.519   0.296  0.1521  0.4758  0.3308
  586MOL0     C78989   7.902   8.422   0.406 -0.1434  0.3498 -0.4605
  586MOL0     C78990   7.822   8.388   0.543 -0.4783  0.2432  0.3176
  586MOL0     C78991   7.898   8.264   0.598 -0.3397  0.0883 -0.1628
  586MOL0     N78992   7.837   8.238   0.732 -0.3656  0.2217 -0.3146
  586MOL0     C78993   7.905   8.195   0.847 -0.1189 -0.7893  0.0420
  586MOL0     C78994   7.805   8.152   0.930  0.4887  0.8363 -0.4110
  586MOL0     C78995   7.829   8.084   1.066  0.2255 -0.1178  0.5040
  586MOL0     C78996   7.778   8.160   1.187 -0.2965 -0.5288  0.4729
  586MOL0     C78997   7.793   8.073   1.320 -1.1788  0.2439  0.9208
  586MOL0     C78998   7.763   8.148   1.443  0.4634 -0.2819  0.0709
  586MOL0     O78999   7.735   8.078   1.561 -0.3048 -0.9163  0.0882
  586MOL0     C79000   7.834   8.010   1.623 -0.2102  0.8807  0.4100
  586MOL0     C79001   7.806   7.932   1.734  0.3902 -0.1072 -0.6793
  586MOL0     C79002   7.898   7.861   1.802 -0.9413 -0.6244  0.4479
  586MOL0     C79003   8.033   7.858   1.765 -0.2400 -0.9048 -0.1819
  586MOL0     C79004   8.146   7.791   1.841  0.9100  0.8836  0.7557
  586MOL0     O79005   8.280   7.832   1.799 -0.0621 -0.3510 -0.1891
  586MOL0     C79006   8.388   7.775   1.861 -0.5420  0.5068  0.0462
  586MOL0     C79007   8.390   7.645   1.906  0.0657  0.0778  0.5444
  586MOL0     C79008   8.512   7.600   1.951  0.1548  0.2858  0.2637
  586MOL0     C79009   8.622   7.678   1.967 -0.2240 -0.3936 -0.3311
  586MOL0     O79010   8.746   7.641   2.016 -0.2611 -0.2619 -0.1421
  586MOL0     C79011   8.797   7.509   1.978 -0.7037 -0.0115  0.0466
  586MOL0     C79012   8.951   7.499   1.978  0.9547  0.1141 -0.4739
  586MOL0     C79013   9.042   7.621   1.940 -0.3534 -0.1816  0.4572
  586MOL0     C79014   9.189   7.583   1.954 -1.2341  0.3350 -0.8355
  586MOL0     C79015   9.278   7.698   1.912  0.6658  0.3128 -0.9641
  586MOL0     C79016   9.425   7.651   1.896  0.3853 -0.8554  0.4852
  586MOL0     C79017   9.545   7.753   1.854  0.3303  0.7648  0.1695
  586MOL0     C79018   9.681   7.688   1.832  0.6056 -0.2341  0.0388
  586MOL0    Cl79019   9.720   7.578   1.964  0.1064  0.3932 -0.0159
  586MOL0     C79020   8.617   7.815   1.922 -0.1690  0.3930  0.1987
  586MOL0     C79021   8.499   7.856   1.862 -0.7344  0.0088 -0.0089
  586MOL0     O79022   8.119   7.707   1.927  0.2889 -0.3494  0.2894
  586MOL0     C79023   8.070   7.934   1.651  1.0081  0.4406 -0.2696
  586MOL0     C79024   7.971   8.007   1.582 -0.9903 -0.4229  1.0322
  586MOL0     N79025   7.685   8.156   0.860  0.8474 -0.0539  0.8517
  586MOL0     N79026   7.703   8.220   0.752 -0.1713  0.3150 -0.3393
  586MOL0     C79027   7.279   8.949   0.571 -0.3122  0.5124 -0.8548
  586MOL0     C79028   7.167   9.035   0.584  0.5857  0.1077  0.1221
  586MOL0     C79029   6.874   9.396   0.507 -0.9617 -0.5226 -0.2109
  586MOL0     C79030   6.774   9.298   0.491  1.3185  0.3361 -0.1920
  586MOL0     C79031   6.644   9.348   0.482  0.5768 -1.1052 -0.0740
  586MOL0     C79032   6.617   9.486   0.472  0.2969  0.0058 -0.5829
  586MOL0     O79033   6.489   9.543   0.476 -0.6895  0.3001 -0.1053
  586MOL0     C79034   6.393   9.474   0.393  0.9775 -0.1629  0.5778
  586MOL0     C79035   6.329   9.580   0.306 -0.9164  0.3462  0.0623
  586MOL0     C79036   6.249   9.673   0.391  0.6033  0.3661  0.2652
  586MOL0     C79037   6.180   9.772   0.299  0.4575  0.0072 -0.4984
  586MOL0     C79038   6.122   9.862   0.394 -0.1715  0.6768  0.1530
  586MOL0     C79039   6.071   9.934   0.481  0.5321  0.3910  0.5770
  586MOL0     C79040   6.718   9.581   0.492 -0.1940  0.5906 -0.1180
  586MOL0     C79041   6.849   9.539   0.509  1.2285  0.3242 -1.3915
  586MOL0     C79042   6.961   9.648   0.526 -0.5824  0.6446  0.1739
  586MOL0     H79043   7.253   9.276   0.365 -0.8343 -0.6438 -1.6563
  586MOL0     H79044   7.454   9.143   0.353 -0.1002  2.1444  1.1827
  586MOL0     H79045   7.557   8.899   0.660  0.7216  0.4291  0.6952
  586MOL0     H79046   7.485   8.752   0.603  0.8000  1.0529  2.9032
  586MOL0     H79047   7.731   8.729   0.615 -2.0250 -2.8093 -0.6645
  586MOL0     H79048   7.773   8.860   0.502  2.3918 -1.9947  1.4142
  586MOL0     H79049   7.618   8.726   0.344 -0.9308  2.1698  1.6961
  586MOL0     H79050   7.649   8.592   0.460 -1.1987  0.2993  0.2903
  586MOL0     H79051   7.842   8.743   0.281  2.2014 -0.7070  0.2654
  586MOL0     H79052   7.901   8.678   0.438  0.3969  0.5881  1.2582
  586MOL0     H79053   7.758   8.477   0.266  0.2054  1.6501 -1.6406
  586MOL0     H79054   7.925   8.530   0.213 -0.6016  2.6679 -0.0730
  586MOL0     H79055   7.927   8.330   0.354 -0.5962  0.1722 -0.3670
  586MOL0     H79056   7.988   8.470   0.454 -1.0525  0.2932  1.3054
  586MOL0     H79057   7.720   8.359   0.514  0.6838 -2.7344 -1.2999
  586MOL0     H79058   7.826   8.474   0.610  0.3848 -0.4310  1.1621
  586MOL0     H79059   7.895   8.172   0.540  2.8469 -0.5522  0.5048
  586MOL0     H79060   8.003   8.292   0.614  0.7284 -1.2322 -3.8876
  586MOL0     H79061   8.014   8.193   0.845  0.1447  3.0726 -2.6553
  586MOL0     H79062   7.798   7.979   1.058 -0.1982  0.0862 -0.6103
  586MOL0     H79063   7.934   8.078   1.097  0.7365  1.4752 -0.8305
  586MOL0     H79064   7.834   8.254   1.198 -0.0474 -0.9626  3.7531
  586MOL0     H79065   7.672   8.184   1.185 -0.2666 -0.1278 -2.8438
  586MOL0     H79066   7.899   8.052   1.335 -1.0815  0.2797  0.3121
  586MOL0     H79067   7.739   7.978   1.312 -0.0023 -0.8119  4.2052
  586MOL0     H79068   7.674   8.210   1.436  0.9274  0.3848 -0.0463
  586MOL0     H79069   7.834   8.228   1.468 -1.2953  0.9650  1.2916
  586MOL0     H79070   7.707   7.933   1.780 -0.4637  0.8593 -2.4453
  586MOL0     H79071   7.868   7.807   1.891  1.7543  0.7890  2.3454
  586MOL0     H79072   8.306   7.577   1.903  0.3894 -0.3022 -0.4636
  586MOL0     H79073   8.515   7.497   1.986  2.8885  0.9285  2.3285
  586MOL0     H79074   8.746   7.431   2.036 -0.7225  1.6041  2.3022
  586MOL0     H79075   8.768   7.498   1.873 -2.6053  2.9948  0.1334
  586MOL0     H79076   8.988   7.467   2.077  1.2255  0.0367 -0.5991
  586MOL0     H79077   8.973   7.417   1.908 -0.1807 -0.7401  0.1363
  586MOL0     H79078   9.010   7.628   1.836 -1.0395  0.2622  0.6949
  586MOL0     H79079   9.017   7.715   1.989 -1.6576 -0.7820  0.9988
  586MOL0     H79080   9.220   7.499   1.891 -0.2425 -1.1189  1.4586
  586MOL0     H79081   9.209   7.562   2.060 -2.0326  1.2938 -0.4804
  586MOL0     H79082   9.277   7.790   1.972  3.0652  2.0925 -3.4229
  586MOL0     H79083   9.226   7.735   1.824 -0.4269  2.9620  0.6681
  586MOL0     H79084   9.440   7.606   1.995 -1.5983 -0.7306  0.8859
  586MOL0     H79085   9.417   7.576   1.817 -2.9495 -1.0851  0.8898
  586MOL0     H79086   9.557   7.833   1.928  1.4694  1.5479 -0.8319
  586MOL0     H79087   9.518   7.803   1.761 -0.4157 -0.3260 -0.2228
  586MOL0     H79088   9.690   7.627   1.742 -2.9804 -0.3064 -0.4201
  586MOL0     H79089   9.748   7.775   1.829 -4.4388  4.1921 -2.5941
  586MOL0     H79090   8.702   7.881   1.934 -1.0531  1.7125 -0.5906
  586MOL0     H79091   8.487   7.957   1.825  0.0917  0.8091  1.7981
  586MOL0     H79092   8.172   7.919   1.615  1.4139  0.0717  0.9851
  586MOL0     H79093   8.001   8.052   1.488 -0.7876  1.9684  2.1624
  586MOL0     H79094   7.283   8.853   0.622  0.9584  0.8937 -0.1931
  586MOL0     H79095   7.090   8.990   0.645 -0.5388 -1.8505 -2.5636
  586MOL0     H79096   6.775   9.189   0.499 -3.4946 -0.0397 -1.7825
  586MOL0     H79097   6.562   9.277   0.477  0.7846 -1.5305  1.8744
  586MOL0     H79098   6.315   9.429   0.456  1.1968  2.3900  2.8624
  586MOL0     H79099   6.438   9.413   0.315  0.4338  0.4918 -0.2558
  586MOL0     H79100   6.268   9.533   0.229 -0.4225 -0.8725  0.3971
  586MOL0     H79101   6.406   9.648   0.269  1.2295  0.6083  4.4107
  586MOL0     H79102   6.316   9.726   0.459  0.8158 -0.3984  0.6610
  586MOL0     H79103   6.183   9.618   0.459  1.7274  1.3532  2.2388
  586MOL0     H79104   6.246   9.837   0.241  0.8160 -0.0698 -0.1790
  586MOL0     H79105   6.110   9.728   0.227 -0.7507  0.6382  0.2474
  586MOL0     H79106   6.015  10.012   0.529 -1.6662  1.5594 -3.4382
  586MOL0     H79107   6.685   9.684   0.499  0.0731  0.5774  3.2377
  586MOL0     H79108   7.032   9.618   0.604 -0.5574  1.5176  0.5066
  586MOL0     H79109   7.022   9.674   0.439  1.9429  0.4180  1.7743
  586MOL0     H79110   6.918   9.746   0.548 -2.8303  0.0308 -1.1176
  587MOL0     O79111   5.861   4.646   5.453  0.2977  0.2900  0.0217
  587MOL0     C79112   5.813   4.639   5.570  0.7073  0.3556  0.1170
  587MOL0     O79113   5.886   4.654   5.685 -0.5923  0.3406  0.2151
  587MOL0     C79114   6.020   4.634   5.692 -0.2296  0.1612 -0.6188
  587MOL0     C79115   6.060   4.585   5.816 -0.7365 -0.6126 -0.4973
  587MOL0     C79116   6.188   4.553   5.842  0.5123  0.4316 -0.1343
  587MOL0     C79117   6.285   4.572   5.742  0.0771  0.6670 -0.5779
  587MOL0     O79118   6.416   4.545   5.768  0.5430 -1.0355  0.3066
  587MOL0     C79119   6.472   4.536   5.907 -0.3624  0.1040  1.0768
  587MOL0     C79120   6.623   4.514   5.909 -0.1806  0.1366 -0.4482
  587MOL0     C79121   6.721   4.629   5.877  0.4561 -1.0114  0.3521
  587MOL0     C79122   6.869   4.598   5.869  0.6818  0.0645 -0.7961
  587MOL0     C79123   6.953   4.718   5.842 -0.5288 -0.4319  0.0493
  587MOL0     C79124   7.102   4.689   5.856 -0.8286 -1.2454  0.4268
  587MOL0     C79125   7.185   4.798   5.797 -0.1630 -0.5087 -0.1164
  587MOL0     C79126   7.193   4.913   5.905 -0.0580 -0.6470 -0.7536
  587MOL0     N79127   7.304   4.876   6.000  0.1430  0.0293 -0.9362
  587MOL0     C79128   7.296   4.854   6.131 -0.2671  0.0865  0.3832
  587MOL0     C79129   7.420   4.863   6.180  0.7943 -0.0549  0.4832
  587MOL0     C79130   7.464   4.859   6.326 -0.3998 -0.2083 -0.8206
  587MOL0     C79131   7.399   4.734   6.388 -0.3719  0.5438  0.6002
  587MOL0     C79132   7.437   4.601   6.323  1.0433  0.0433 -0.7012
  587MOL0     C79133   7.587   4.586   6.300 -0.5239 -0.2401  0.1760
  587MOL0     O79134   7.659   4.558   6.420  0.5744 -0.1073 -0.3332
  587MOL0     C79135   7.772   4.480   6.418  0.8944 -0.5510  0.6171
  587MOL0     C79136   7.831   4.472   6.543 -0.4800  0.0113  0.6291
  587MOL0     C79137   7.954   4.407   6.542 -0.2753  0.2250 -0.5885
  587MOL0     C79138   8.016   4.346   6.437 -0.1294 -0.5529  1.1778
  587MOL0     C79139   8.151   4.276   6.449 -0.2152 -0.3419 -0.8431
  587MOL0     O79140   8.225   4.307   6.569 -0.1395  1.0023  0.0610
  587MOL0     C79141   8.341   4.239   6.584 -0.8514 -0.0171  0.0739
  587MOL0     C79142   8.458   4.268   6.512 -0.5252 -0.3372  1.0852
  587MOL0     C79143   8.576   4.194   6.524  0.2303  0.1113 -0.1638
  587MOL0     C79144   8.582   4.098   6.620 -0.1690  0.6538  0.7302
  587MOL0     O79145   8.697   4.021   6.630  0.0514  0.1531  0.2773
  587MOL0     C79146   8.820   4.058   6.557  0.5626 -0.6048 -0.2271
  587MOL0     C79147   8.933   3.953   6.604  0.8605  0.4755  0.8103
  587MOL0     C79148   8.929   3.811   6.543 -0.8826 -0.6264  0.2435
  587MOL0     C79149   9.033   3.727   6.612 -1.0317 -0.4471 -0.0805
  587MOL0     C79150   9.018   3.580   6.578  0.1226 -0.1374 -0.7485
  587MOL0     C79151   9.023   3.533   6.430  0.5623 -0.3450 -0.5164
  587MOL0     C79152   9.155   3.559   6.366  0.3300  0.4406 -0.3389
  587MOL0     C79153   9.190   3.464   6.244 -0.4103  0.1865 -1.0210
  587MOL0    Cl79154   9.046   3.461   6.139  0.5274  0.0718  0.0546
  587MOL0     C79155   8.482   4.081   6.713 -0.9507  0.3111 -0.9860
  587MOL0     C79156   8.356   4.149   6.690  0.1383  0.4731  0.4357
  587MOL0     O79157   8.188   4.197   6.358  0.2074 -0.4037  0.4732
  587MOL0     C79158   7.948   4.352   6.322 -0.3923 -0.1438  0.3017
  587MOL0     C79159   7.829   4.420   6.307 -0.3324 -1.1202  0.0783
  587MOL0     N79160   7.501   4.871   6.074 -0.1224  0.0817 -0.3959
  587MOL0     N79161   7.429   4.879   5.964  0.1919  0.0776  0.4034
  587MOL0     C79162   6.255   4.631   5.619 -0.2103 -0.2224  0.5992
  587MOL0     C79163   6.120   4.662   5.598  0.6111 -0.5654  0.3949
  587MOL0     C79164   5.667   4.596   5.589  0.7498  0.9437 -0.1517
  587MOL0     C79165   5.595   4.550   5.478 -0.4178 -0.1209  0.0423
  587MOL0     C79166   5.454   4.534   5.486 -0.0174  0.6668 -0.7284
  587MOL0     C79167   5.379   4.543   5.609  0.4962  0.5965 -0.3155
  587MOL0     O79168   5.244   4.542   5.625  0.6821 -0.0767  0.0713
  587MOL0     C79169   5.159   4.574   5.504 -0.3956 -0.2558 -1.1147
  587MOL0     C79170   5.031   4.499   5.486 -0.4537  0.7355  0.0052
  587MOL0     C79171   4.938   4.513   5.605  0.0350 -0.2624 -1.3253
  587MOL0     C79172   4.825   4.412   5.619  0.1761  0.7497  0.1321
  587MOL0     C79173   4.727   4.433   5.512 -0.8742 -0.8183  0.7401
  587MOL0     C79174   4.638   4.456   5.436  0.5396  0.6906  0.1661
  587MOL0     C79175   5.454   4.578   5.722 -0.5753  0.4939 -0.6499
  587MOL0     C79176   5.592   4.605   5.713 -0.8195  0.5014  0.5619
  587MOL0     C79177   5.658   4.659   5.833  0.3096 -0.4592 -0.1100
  587MOL0     H79178   5.985   4.565   5.892 -2.8884  1.4894 -1.9268
  587MOL0     H79179   6.215   4.513   5.939  3.1539  0.8103 -0.6262
  587MOL0     H79180   6.449   4.625   5.966  0.0862  0.9507 -0.0012
  587MOL0     H79181   6.426   4.451   5.959 -0.6178 -0.9757 -0.8288
  587MOL0     H79182   6.637   4.440   5.829 -2.5546  0.1246 -0.9243
  587MOL0     H79183   6.647   4.470   6.006 -3.8040  0.1726  0.6174
  587MOL0     H79184   6.717   4.711   5.949 -0.6524  1.6169 -2.4270
  587MOL0     H79185   6.683   4.686   5.792 -2.4550 -3.4570 -0.1749
  587MOL0     H79186   6.888   4.550   5.966  0.7868 -1.2547 -1.4449
  587MOL0     H79187   6.883   4.523   5.791  1.9702 -1.8399  1.1317
  587MOL0     H79188   6.929   4.742   5.738 -1.6549 -0.8430  0.1993
  587MOL0     H79189   6.918   4.798   5.908 -1.4854 -2.1460  1.7037
  587MOL0     H79190   7.137   4.695   5.959  1.1588  1.3195 -0.2837
  587MOL0     H79191   7.129   4.596   5.804 -0.7274 -0.7696 -0.3902
  587MOL0     H79192   7.151   4.837   5.700  4.6491  2.1956 -1.0523
  587MOL0     H79193   7.289   4.764   5.788 -0.5286 -2.8621  2.9031
  587MOL0     H79194   7.231   4.995   5.844  1.5145  0.4302  1.5313
  587MOL0     H79195   7.092   4.926   5.947 -0.9607  1.2712 -3.2695
  587MOL0     H79196   7.210   4.826   6.190 -0.1393 -0.4384  0.3332
  587MOL0     H79197   7.573   4.858   6.324 -0.3390 -1.5173  0.7155
  587MOL0     H79198   7.434   4.947   6.383 -1.8186  0.1986 -2.1143
  587MOL0     H79199   7.431   4.739   6.492 -0.9384 -0.1393  0.8216
  587MOL0     H79200   7.290   4.730   6.391 -0.4767  1.6202 -0.8485
  587MOL0     H79201   7.378   4.581   6.233 -4.9008  1.9617  2.2237
  587MOL0     H79202   7.404   4.520   6.389  0.6611  1.2160  0.5997
  587MOL0     H79203   7.630   4.676   6.255  3.5548 -1.4975  1.0902
  587MOL0     H79204   7.607   4.499   6.236  1.5081  1.2466 -1.3522
  587MOL0     H79205   7.795   4.507   6.639  0.4290  0.3007  0.8711
  587MOL0     H79206   7.997   4.385   6.639 -1.9947 -2.4727 -0.3392
  587MOL0     H79207   8.450   4.336   6.428  0.6490 -1.5138 -0.0311
  587MOL0     H79208   8.642   4.211   6.440 -0.5767 -1.9592 -1.2856
  587MOL0     H79209   8.809   4.061   6.448 -1.4326 -0.0260 -0.0348
  587MOL0     H79210   8.845   4.157   6.596 -1.3111 -0.9202  1.9311
  587MOL0     H79211   9.033   3.995   6.589  1.5303 -2.0577 -3.3613
  587MOL0     H79212   8.921   3.936   6.711  2.0290 -2.6475  0.5415
  587MOL0     H79213   8.827   3.770   6.548 -0.3368 -2.5622 -2.3321
  587MOL0     H79214   8.945   3.817   6.435  0.1835  0.4240  0.4419
  587MOL0     H79215   9.026   3.735   6.721 -4.1102  0.1305 -0.2305
  587MOL0     H79216   9.131   3.767   6.583 -1.1182 -0.9141 -1.0225
  587MOL0     H79217   8.919   3.549   6.614 -0.3336  0.3732 -1.5314
  587MOL0     H79218   9.088   3.523   6.639  1.8801  0.7623 -1.8674
  587MOL0     H79219   9.015   3.424   6.423  0.9442 -0.4484  0.5402
  587MOL0     H79220   8.949   3.583   6.366  1.4714  1.8691  0.0565
  587MOL0     H79221   9.241   3.557   6.433  0.7812 -1.0473 -0.9256
  587MOL0     H79222   9.152   3.660   6.322  0.3450  0.0106 -1.3516
  587MOL0     H79223   9.278   3.509   6.197  0.6183 -1.9703 -1.2786
  587MOL0     H79224   9.214   3.369   6.293  1.1492  1.9241  1.9110
  587MOL0     H79225   8.485   4.003   6.789  2.1832  2.0070  0.7932
  587MOL0     H79226   8.269   4.113   6.743 -1.2319 -0.9774 -2.5928
  587MOL0     H79227   7.989   4.320   6.227 -1.2607 -2.4776  0.6613
  587MOL0     H79228   7.797   4.429   6.204  0.0194  1.6470  0.1354
  587MOL0     H79229   6.332   4.655   5.547  0.7918  0.0194  1.7081
  587MOL0     H79230   6.093   4.722   5.512  0.5842 -0.2680  0.6064
  587MOL0     H79231   5.655   4.527   5.391 -0.2772  1.5092 -0.3222
  587MOL0     H79232   5.405   4.513   5.392 -1.6743  2.5401 -0.3579
  587MOL0     H79233   5.221   4.553   5.417  0.0864  0.0820 -0.8556
  587MOL0     H79234   5.140   4.682   5.503 -2.5157 -0.5237  0.7767
  587MOL0     H79235   5.058   4.393   5.477  3.8573  1.4558  1.9255
  587MOL0     H79236   4.986   4.526   5.390  0.4435 -1.3222 -1.0623
  587MOL0     H79237   4.904   4.617   5.597  0.5505  0.0086 -0.1915
  587MOL0     H79238   4.995   4.499   5.698 -4.7989  1.4166  2.3381
  587MOL0     H79239   4.855   4.307   5.614 -0.8321  0.4601  0.0809
  587MOL0     H79240   4.780   4.428   5.717 -1.8785 -0.9562 -0.4744
  587MOL0     H79241   4.553   4.489   5.380 -2.1625 -1.9768  2.3803
  587MOL0     H79242   5.398   4.596   5.813  1.0064 -0.3776  0.5447
  587MOL0     H79243   5.584   4.694   5.905 -0.0012  0.8720 -1.0400
  587MOL0     H79244   5.725   4.580   5.869  1.7632  1.1493  0.8305
  587MOL0     H79245   5.723   4.745   5.816 -1.8931  1.8980  2.5337
  588MOL0     O79246   5.770   5.068  11.078 -0.2006 -0.2557 -1.2079
  588MOL0     C79247   5.804   5.047  11.197 -1.1735  0.4862  0.4022
  588MOL0     O79248   5.899   5.098  11.263 -0.5287 -0.5865 -0.3628
  588MOL0     C79249   5.983   5.198  11.211 -0.5707  0.5522  0.1934
  588MOL0     C79250   6.119   5.184  11.241  0.3303 -0.7297  0.4492
  588MOL0     C79251   6.208   5.280  11.187  0.1659 -0.2467 -0.9415
  588MOL0     C79252   6.159   5.391  11.123 -0.1646 -0.6108  1.3674
  588MOL0     O79253   6.256   5.484  11.079  0.3640 -0.1711 -0.2594
  588MOL0     C79254   6.275   5.597  11.170  0.8629 -0.4734  0.2277
  588MOL0     C79255   6.421   5.638  11.172  0.6868  0.2053  0.7679
  588MOL0     C79256   6.511   5.555  11.270  0.0932  0.4829 -0.0461
  588MOL0     C79257   6.660   5.597  11.269  0.2831  0.3425  0.4449
  588MOL0     C79258   6.758   5.510  11.355  0.0784 -0.5500  0.8153
  588MOL0     C79259   6.892   5.574  11.355 -0.0506 -0.4796 -0.0551
  588MOL0     C79260   6.993   5.507  11.449 -0.2945  0.0465 -0.5292
  588MOL0     C79261   7.142   5.542  11.425  0.1330  0.1415  0.6673
  588MOL0     N79262   7.177   5.688  11.433 -0.2671 -0.2246  0.3475
  588MOL0     C79263   7.210   5.768  11.326  0.4667 -0.5139 -0.3661
  588MOL0     C79264   7.273   5.877  11.381  0.1786 -0.4094 -0.3267
  588MOL0     C79265   7.345   5.983  11.304  0.2839 -0.0006  0.2652
  588MOL0     C79266   7.472   6.015  11.371  0.1364  0.2748 -1.3825
  588MOL0     C79267   7.459   6.108  11.483  0.6821  0.5719  0.2918
  588MOL0     C79268   7.580   6.123  11.571 -0.0143 -0.1893 -0.0491
  588MOL0     O79269   7.705   6.161  11.504  0.1663 -0.1995 -0.3324
  588MOL0     C79270   7.819   6.147  11.577 -0.6397 -0.3564 -0.7565
  588MOL0     C79271   7.904   6.255  11.598 -0.8128 -0.1812  0.1661
  588MOL0     C79272   8.023   6.246  11.668  0.7978 -0.1394  0.5075
  588MOL0     C79273   8.066   6.115  11.711 -0.0136 -0.3092 -0.4353
  588MOL0     C79274   8.196   6.110  11.787  0.2098  0.1920  0.4259
  588MOL0     O79275   8.272   6.221  11.775  0.1954  0.0215 -0.1320
  588MOL0     C79276   8.399   6.203  11.803  0.6243  0.2285 -0.7997
  588MOL0     C79277   8.501   6.220  11.700 -0.0521  0.5567 -0.0067
  588MOL0     C79278   8.634   6.195  11.733  0.8241 -0.1529  0.3634
  588MOL0     C79279   8.672   6.156  11.853 -0.0295 -0.0863 -0.2463
  588MOL0     O79280   8.809   6.140  11.861  0.6870  0.5301 -0.0177
  588MOL0     C79281   8.864   6.056  11.960  0.3749 -0.3255  0.6109
  588MOL0     C79282   9.017   6.057  11.953  0.0603  0.4491  0.7382
  588MOL0     C79283   9.083   5.954  12.045 -0.0768  0.5223 -0.3741
  588MOL0     C79284   9.232   5.928  12.003 -0.1541 -1.0328  0.6896
  588MOL0     C79285   9.323   6.020  12.086  0.9412 -0.2042 -0.5228
  588MOL0     C79286   9.466   5.969  12.061 -0.0347 -0.3276 -0.4971
  588MOL0     C79287   9.510   5.963  11.913  0.2556 -0.3239 -0.1785
  588MOL0     C79288   9.655   6.006  11.888  0.1052 -0.4297  0.2888
  588MOL0    Cl79289   9.683   5.996  11.710 -0.2489 -0.4924  0.0571
  588MOL0     C79290   8.578   6.131  11.948 -0.5888  0.2950  0.0248
  588MOL0     C79291   8.441   6.158  11.928 -1.2072 -0.2151  0.9042
  588MOL0     O79292   8.224   6.007  11.843  0.3099  0.6836 -0.0356
  588MOL0     C79293   7.985   5.998  11.681  0.2596  0.0323  0.0901
  588MOL0     C79294   7.863   6.021  11.612  0.2704  0.3765 -0.1835
  588MOL0     N79295   7.272   5.851  11.521  0.3385  0.0491  0.7357
  588MOL0     N79296   7.215   5.740  11.549 -0.0056 -0.4451  0.2898
  588MOL0     C79297   6.021   5.411  11.099  0.4112  0.1621 -0.4503
  588MOL0     C79298   5.934   5.309  11.142 -0.3989  0.9368 -1.1251
  588MOL0     C79299   5.731   4.942  11.271  0.5643 -0.0467  0.0217
  588MOL0     C79300   5.594   4.970  11.296 -1.4327 -0.1008 -0.5290
  588MOL0     C79301   5.514   4.869  11.354  0.8596  0.4628  0.1343
  588MOL0     C79302   5.577   4.740  11.389  1.3045  0.2485 -0.4832
  588MOL0     O79303   5.488   4.646  11.434 -0.0745  0.0126  0.0396
  588MOL0     C79304   5.530   4.509  11.443 -1.3001 -0.7473 -0.2550
  588MOL0     C79305   5.424   4.401  11.460  0.2234 -0.0515 -0.2862
  588MOL0     C79306   5.322   4.386  11.343 -0.1848  0.1062 -0.2237
  588MOL0     C79307   5.192   4.320  11.381 -0.3110 -0.1667 -0.1985
  588MOL0     C79308   5.202   4.187  11.437 -0.9337 -0.3058 -0.5751
  588MOL0     C79309   5.195   4.075  11.486 -0.2384 -0.7942 -0.8963
  588MOL0     C79310   5.715   4.723  11.370  0.3062  1.3486 -0.1900
  588MOL0     C79311   5.789   4.825  11.309 -0.4427  0.3094  0.2746
  588MOL0     C79312   5.937   4.800  11.277  0.2949 -0.4598 -0.3241
  588MOL0     H79313   6.157   5.104  11.303 -2.8221 -3.3589 -0.7171
  588MOL0     H79314   6.316   5.275  11.193  0.4127  3.3756 -0.1614
  588MOL0     H79315   6.221   5.686  11.136 -0.3680 -1.7852 -1.3577
  588MOL0     H79316   6.232   5.586  11.270 -2.9631  1.8238 -0.9123
  588MOL0     H79317   6.441   5.745  11.182  4.0922 -0.0487 -1.7890
  588MOL0     H79318   6.461   5.623  11.072 -0.2672  0.1384  0.3891
  588MOL0     H79319   6.496   5.449  11.244 -1.1114  0.2253  1.5507
  588MOL0     H79320   6.476   5.562  11.373  0.9355  1.7621  0.1681
  588MOL0     H79321   6.690   5.603  11.164 -0.9390 -1.0110 -0.0245
  588MOL0     H79322   6.668   5.699  11.307 -0.1733 -0.0101  1.5540
  588MOL0     H79323   6.714   5.500  11.455 -0.8912 -0.3612  0.4079
  588MOL0     H79324   6.758   5.415  11.300 -1.3355 -0.4875  0.6914
  588MOL0     H79325   6.930   5.587  11.253 -0.4193  0.3903 -0.0911
  588MOL0     H79326   6.880   5.679  11.383  1.3136 -0.1254 -0.7342
  588MOL0     H79327   6.974   5.399  11.452  1.2005 -0.2575  2.5919
  588MOL0     H79328   6.969   5.560  11.542  0.7051  2.0617 -1.3654
  588MOL0     H79329   7.211   5.486  11.489 -1.3243 -0.1632  2.0486
  588MOL0     H79330   7.157   5.499  11.326  1.8734 -0.1967  1.0478
  588MOL0     H79331   7.201   5.738  11.222  2.5984 -1.0826 -0.4192
  588MOL0     H79332   7.372   5.945  11.205  2.6903  0.1778  0.7872
  588MOL0     H79333   7.279   6.069  11.288 -0.5151 -0.7801 -0.7642
  588MOL0     H79334   7.513   5.920  11.406  2.7440  1.0064 -2.2605
  588MOL0     H79335   7.540   6.061  11.298 -2.5786  1.0773 -3.5923
  588MOL0     H79336   7.380   6.071  11.550  0.1261 -2.6498 -1.9067
  588MOL0     H79337   7.407   6.197  11.447  0.3964  0.7951  1.2206
  588MOL0     H79338   7.586   6.031  11.632 -1.8005  0.7784  1.7279
  588MOL0     H79339   7.563   6.197  11.650  0.7396 -2.9473  2.9327
  588MOL0     H79340   7.867   6.347  11.553 -2.4103  0.9211  3.3911
  588MOL0     H79341   8.081   6.336  11.683 -0.0861  0.4128  0.7068
  588MOL0     H79342   8.482   6.246  11.596  2.5390  2.0556 -0.2003
  588MOL0     H79343   8.710   6.221  11.660  2.1600  1.2552  2.1589
  588MOL0     H79344   8.841   6.080  12.064 -1.2364 -1.4200  0.5392
  588MOL0     H79345   8.833   5.952  11.946  1.1889 -0.2365 -2.8144
  588MOL0     H79346   9.034   6.025  11.849  3.7402  0.7854  1.0939
  588MOL0     H79347   9.059   6.154  11.979  2.5064 -0.8615  2.1414
  588MOL0     H79348   9.075   5.985  12.149 -4.8475 -1.0408 -0.0467
  588MOL0     H79349   9.026   5.861  12.043  1.1270 -0.4260 -5.4751
  588MOL0     H79350   9.242   5.921  11.894  1.2127 -0.4284  0.7495
  588MOL0     H79351   9.262   5.830  12.038  0.0100 -0.9586  0.7575
  588MOL0     H79352   9.314   6.009  12.195  2.1473 -2.3377 -0.5765
  588MOL0     H79353   9.307   6.122  12.050  1.2614  0.0258 -0.0159
  588MOL0     H79354   9.530   6.040  12.114  0.0066 -1.6216  1.2422
  588MOL0     H79355   9.489   5.871  12.103 -0.8231 -0.2937  0.0273
  588MOL0     H79356   9.438   6.018  11.851 -1.1452  0.2294  1.8384
  588MOL0     H79357   9.507   5.859  11.880  1.4790  0.3845 -2.7446
  588MOL0     H79358   9.673   6.106  11.928  2.3555 -0.5863 -0.2255
  588MOL0     H79359   9.724   5.940  11.941  2.6625  1.9466  0.1111
  588MOL0     H79360   8.594   6.088  12.046 -2.2071 -0.1327  0.1226
  588MOL0     H79361   8.363   6.149  12.004 -0.9983  2.6140  1.5685
  588MOL0     H79362   8.015   5.895  11.697  0.4396  0.1001  0.2000
  588MOL0     H79363   7.796   5.940  11.586 -1.6175  2.0972 -0.9910
  588MOL0     H79364   6.007   5.501  11.041  2.2349  0.9478  0.2545
  588MOL0     H79365   5.826   5.316  11.131 -1.2080 -2.9975  1.7659
  588MOL0     H79366   5.546   5.060  11.257 -1.1466  0.3497  0.1303
  588MOL0     H79367   5.406   4.882  11.362  0.8232 -0.2975  1.2041
  588MOL0     H79368   5.602   4.500  11.525  0.0526 -0.3378 -1.3708
  588MOL0     H79369   5.597   4.479  11.362 -1.8841 -1.7475 -0.3752
  588MOL0     H79370   5.372   4.424  11.553  1.7557 -0.4842  0.7021
  588MOL0     H79371   5.465   4.303  11.482 -1.5126 -0.8961 -0.6328
  588MOL0     H79372   5.377   4.327  11.269 -0.6134  0.7128 -1.0541
  588MOL0     H79373   5.299   4.488  11.311  0.0101  1.1396  2.6382
  588MOL0     H79374   5.154   4.393  11.452  0.6990 -0.1808  0.3744
  588MOL0     H79375   5.125   4.316  11.295  0.8454 -0.4327 -1.1171
  588MOL0     H79376   5.213   3.986  11.543  1.4508  0.9179  1.4141
  588MOL0     H79377   5.759   4.627  11.396 -1.6225  0.2152 -0.8435
  588MOL0     H79378   5.994   4.792  11.369 -0.2487 -0.1490  0.0498
  588MOL0     H79379   5.944   4.700  11.234 -1.3611 -0.2548 -1.1695
  588MOL0     H79380   5.983   4.873  11.210  0.2481  1.4780  1.6460
  589MOL0     O79381   3.265  10.871   5.806 -0.1281 -0.2659  0.3754
  589MOL0     C79382   3.243  10.750   5.791 -0.2427  0.5554 -0.2966
  589MOL0     O79383   3.311  10.660   5.708  0.2389  0.2115  0.6888
  589MOL0     C79384   3.406  10.696   5.621 -0.3216  0.2353 -0.0900
  589MOL0     C79385   3.495  10.593   5.589  1.2957 -0.4359  0.5711
  589MOL0     C79386   3.599  10.605   5.504  0.4337 -0.2140 -0.0943
  589MOL0     C79387   3.631  10.733   5.453  0.0589 -0.1669  0.9186
  589MOL0     O79388   3.731  10.773   5.374 -0.2248 -0.4931 -0.0040
  589MOL0     C79389   3.856  10.701   5.373 -0.5665 -0.6028  1.1864
  589MOL0     C79390   3.862  10.589   5.263  1.1684 -1.0576 -0.4507
  589MOL0     C79391   3.996  10.538   5.260 -0.0792  0.6339  0.0819
  589MOL0     C79392   4.015  10.432   5.149 -0.3146 -0.0973 -0.3680
  589MOL0     C79393   4.163  10.388   5.132  0.5410  0.3827  0.3813
  589MOL0     C79394   4.227  10.346   5.270  1.0523 -0.0826 -0.2963
  589MOL0     C79395   4.368  10.294   5.245  0.3380  0.3248 -0.7775
  589MOL0     C79396   4.404  10.185   5.353  0.4084  0.0596  0.5648
  589MOL0     N79397   4.540  10.127   5.327 -0.3512 -0.9847 -0.0243
  589MOL0     C79398   4.657  10.193   5.295 -0.1272 -0.0495  0.4261
  589MOL0     C79399   4.758  10.103   5.285 -0.3753  0.3784  0.4548
  589MOL0     C79400   4.899  10.137   5.244 -0.2174  0.3275  0.3288
  589MOL0     C79401   5.002  10.121   5.368  0.5340 -0.4518  0.9256
  589MOL0     C79402   4.975  10.223   5.477  0.8636 -1.0704  0.2806
  589MOL0     C79403   5.094  10.227   5.581 -0.9771 -1.1396 -0.6026
  589MOL0     O79404   5.103  10.362   5.632  0.2747  0.5854 -0.8634
  589MOL0     C79405   5.181  10.445   5.566 -0.5497  0.0741  0.6061
  589MOL0     C79406   5.168  10.577   5.612 -0.7901 -1.3826 -0.0678
  589MOL0     C79407   5.252  10.685   5.561 -0.3271 -0.5737 -0.9878
  589MOL0     C79408   5.352  10.655   5.468 -0.2660  0.4123  0.3521
  589MOL0     C79409   5.451  10.755   5.417 -0.7388 -0.2368  0.8021
  589MOL0     O79410   5.470  10.871   5.489 -0.1646 -0.1993 -0.1955
  589MOL0     C79411   5.554  10.964   5.434  0.6650 -0.2568  0.2626
  589MOL0     C79412   5.508  11.085   5.380  0.2165 -0.7865 -0.2071
  589MOL0     C79413   5.596  11.186   5.339 -0.0126 -0.2852  0.3362
  589MOL0     C79414   5.732  11.166   5.324  0.2357  0.1468 -0.3957
  589MOL0     O79415   5.812  11.266   5.254 -0.4079 -0.2315  0.3172
  589MOL0     C79416   5.953  11.283   5.281 -0.0844  0.0649 -0.3744
  589MOL0     C79417   5.993  11.401   5.369 -0.4836  0.4965 -0.0216
  589MOL0     C79418   5.904  11.522   5.338 -0.6666  0.4802  0.0975
  589MOL0     C79419   5.978  11.657   5.349 -0.5397 -0.3675  0.2836
  589MOL0     C79420   5.993  11.685   5.498 -0.2100 -0.1075 -0.4969
  589MOL0     C79421   6.085  11.800   5.536  0.8075  0.0522 -0.5404
  589MOL0     C79422   6.137  11.817   5.684 -0.8281 -0.7478 -0.3014
  589MOL0     C79423   6.208  11.955   5.702 -0.3233 -0.3841 -1.2645
  589MOL0    Cl79424   6.284  11.967   5.866 -0.7577 -0.5257  0.4685
  589MOL0     C79425   5.781  11.052   5.365  1.0575  0.7886  0.3827
  589MOL0     C79426   5.696  10.956   5.428  0.3014  0.1492  0.2240
  589MOL0     O79427   5.494  10.730   5.304 -0.8163  0.3160  0.3540
  589MOL0     C79428   5.363  10.523   5.419 -0.5241 -0.9184 -0.3775
  589MOL0     C79429   5.273  10.426   5.462  1.6023  0.5811 -0.5759
  589MOL0     N79430   4.698   9.984   5.305  0.4249 -0.3656  0.4662
  589MOL0     N79431   4.570   9.998   5.330  0.6479 -0.2795  0.6309
  589MOL0     C79432   3.540  10.840   5.475 -0.7959  0.3058 -0.1147
  589MOL0     C79433   3.429  10.823   5.558  0.4126 -0.1853 -0.5016
  589MOL0     C79434   3.145  10.685   5.890  0.0471  0.7049  0.8410
  589MOL0     C79435   3.053  10.772   5.942 -0.4246  0.8257 -0.5903
  589MOL0     C79436   2.963  10.716   6.046  0.6756 -0.3555  0.3656
  589MOL0     C79437   2.956  10.587   6.072  0.1242  0.2509 -0.7220
  589MOL0     O79438   2.860  10.559   6.171  0.2328 -1.2138 -0.2225
  589MOL0     C79439   2.778  10.450   6.134  0.0789 -1.0013  0.6300
  589MOL0     C79440   2.656  10.450   6.222 -0.7540 -0.1463 -0.4123
  589MOL0     C79441   2.532  10.370   6.166  1.4265 -0.1385 -0.6712
  589MOL0     C79442   2.412  10.370   6.273  0.7630  0.1572 -0.5780
  589MOL0     C79443   2.354  10.509   6.281 -0.4072  0.4879  0.8854
  589MOL0     C79444   2.303  10.619   6.281  0.6150 -1.4085  0.1536
  589MOL0     C79445   3.056  10.501   6.025  0.1578  0.4009 -0.4506
  589MOL0     C79446   3.152  10.555   5.941  0.4990  0.4564  0.1939
  589MOL0     C79447   3.271  10.468   5.907  0.1553  0.2082 -0.1658
  589MOL0     H79448   3.468  10.501   5.639 -2.4993  0.3188  0.2456
  589MOL0     H79449   3.660  10.517   5.488 -2.4799 -2.2239 -0.8878
  589MOL0     H79450   3.926  10.774   5.332  0.2606 -1.3846  1.1772
  589MOL0     H79451   3.883  10.653   5.467 -1.7337 -0.8140  1.4281
  589MOL0     H79452   3.846  10.641   5.167  1.4133 -0.5661 -0.2315
  589MOL0     H79453   3.780  10.518   5.277  0.5946 -0.9806 -2.8623
  589MOL0     H79454   4.019  10.496   5.358 -2.2453  0.7830  0.7031
  589MOL0     H79455   4.072  10.616   5.249 -2.0315  2.3928 -2.2769
  589MOL0     H79456   3.952  10.344   5.165 -1.3566  0.2766 -2.1175
  589MOL0     H79457   3.980  10.477   5.055  0.3024 -0.5845 -0.8446
  589MOL0     H79458   4.178  10.312   5.055  2.5488  1.8005 -0.7259
  589MOL0     H79459   4.203  10.483   5.097 -2.4705  1.3655 -0.6407
  589MOL0     H79460   4.231  10.429   5.342 -1.9138 -0.3579  0.3142
  589MOL0     H79461   4.170  10.265   5.315 -1.5746  0.1563 -2.9603
  589MOL0     H79462   4.435  10.380   5.247 -0.4610  0.9968 -1.8110
  589MOL0     H79463   4.374  10.244   5.147  1.0507  2.7105 -2.0261
  589MOL0     H79464   4.394  10.245   5.444  1.1764  0.2817  0.5081
  589MOL0     H79465   4.343  10.094   5.351  2.5540 -1.4631 -0.0794
  589MOL0     H79466   4.659  10.300   5.279 -0.4881  0.1835  1.8030
  589MOL0     H79467   4.935  10.071   5.164 -0.8795  0.7772 -0.3587
  589MOL0     H79468   4.896  10.240   5.208 -2.1800  0.8963  2.0014
  589MOL0     H79469   4.980  10.023   5.410  0.4331 -0.7823  0.1284
  589MOL0     H79470   5.106  10.133   5.334  0.2313  0.8981  0.3912
  589MOL0     H79471   4.876  10.215   5.522  0.6176 -0.9217 -0.2240
  589MOL0     H79472   4.971  10.322   5.431 -4.1707 -0.5383  1.3161
  589MOL0     H79473   5.179  10.191   5.522 -0.3344 -0.1458 -0.2969
  589MOL0     H79474   5.088  10.154   5.663  1.4449  0.8811  1.5718
  589MOL0     H79475   5.088  10.604   5.680  0.8248 -0.6538  1.6429
  589MOL0     H79476   5.235  10.783   5.605  0.1508 -0.1080 -1.8270
  589MOL0     H79477   5.400  11.095   5.378  0.4537  3.0832 -1.6357
  589MOL0     H79478   5.560  11.284   5.309 -0.3719 -1.1345 -2.2268
  589MOL0     H79479   6.001  11.188   5.309 -0.4202 -1.1026 -3.3850
  589MOL0     H79480   5.998  11.285   5.181 -0.8205 -0.1523 -0.7123
  589MOL0     H79481   5.974  11.368   5.472 -1.6786 -0.6806 -0.5891
  589MOL0     H79482   6.099  11.425   5.355  0.1242 -2.3452 -0.8834
  589MOL0     H79483   5.881  11.504   5.233  4.0511 -1.2664 -0.8946
  589MOL0     H79484   5.808  11.530   5.389  0.4385  0.6336  2.2610
  589MOL0     H79485   5.908  11.737   5.323  0.2061  1.3284  3.0637
  589MOL0     H79486   6.073  11.669   5.297 -1.6733  2.6786 -1.3401
  589MOL0     H79487   6.045  11.602   5.548 -1.8771 -0.5882  0.4891
  589MOL0     H79488   5.896  11.698   5.547  0.3793  2.8046  0.0463
  589MOL0     H79489   6.170  11.803   5.466 -0.5557  1.4482 -2.2400
  589MOL0     H79490   6.030  11.892   5.513 -1.9125 -1.7001 -1.4088
  589MOL0     H79491   6.196  11.730   5.717  0.7337  0.5148  0.3878
  589MOL0     H79492   6.051  11.824   5.751 -1.0318  0.5841 -0.6738
  589MOL0     H79493   6.284  11.950   5.624 -2.4762 -2.5569 -3.3707
  589MOL0     H79494   6.134  12.035   5.698  0.7434  0.8931  1.7876
  589MOL0     H79495   5.883  11.019   5.357  1.4547  1.7675  1.1148
  589MOL0     H79496   5.740  10.861   5.457 -3.7379 -2.7696 -2.1742
  589MOL0     H79497   5.425  10.494   5.335 -1.0667  1.4619 -1.6775
  589MOL0     H79498   5.279  10.331   5.411 -2.0756 -0.3883  0.4447
  589MOL0     H79499   3.554  10.940   5.435  2.0539  1.2620  2.8066
  589MOL0     H79500   3.351  10.897   5.576 -0.9070 -2.1537  2.7541
  589MOL0     H79501   3.037  10.876   5.916 -2.1484  1.1576  1.5005
  589MOL0     H79502   2.894  10.777   6.103  1.5051  1.4681 -0.4747
  589MOL0     H79503   2.830  10.355   6.151  1.1254 -0.5739 -0.0945
  589MOL0     H79504   2.752  10.453   6.028 -0.5540  1.5085  0.7946
  589MOL0     H79505   2.626  10.552   6.246 -1.4626 -0.6675  1.0440
  589MOL0     H79506   2.681  10.405   6.319 -4.6925  1.2025  1.4682
  589MOL0     H79507   2.545  10.266   6.136 -2.5293 -0.5939 -1.3788
  589MOL0     H79508   2.505  10.416   6.071 -1.8051 -2.4409 -1.0237
  589MOL0     H79509   2.334  10.298   6.246  0.5551  0.1103  0.1189
  589MOL0     H79510   2.461  10.348   6.368  0.9500  4.7552  0.6050
  589MOL0     H79511   2.253  10.712   6.264 -0.2314 -2.1625 -1.7254
  589MOL0     H79512   3.058  10.396   6.053 -1.5893  0.4042 -0.2198
  589MOL0     H79513   3.269  10.450   5.799 -2.5249  1.4497 -0.4111
  589MOL0     H79514   3.369  10.507   5.935 -0.2005  0.7697  0.3260
  589MOL0     H79515   3.257  10.373   5.958  2.0117  1.0692  2.1182
  590MOL0     O79516   5.562   3.254   7.190  0.8080 -0.5346  0.1696
  590MOL0     C79517   5.515   3.210   7.289  0.6734  0.5943 -0.2821
  590MOL0     O79518   5.402   3.258   7.351 -0.0014  0.5452 -0.3710
  590MOL0     C79519   5.299   3.325   7.289  0.1775  0.5218  0.3071
  590MOL0     C79520   5.299   3.384   7.165  0.9496 -0.3081  0.7227
  590MOL0     C79521   5.190   3.449   7.104  0.4775 -0.1049 -0.3673
  590MOL0     C79522   5.065   3.452   7.172  0.0171  0.2494  0.2630
  590MOL0     O79523   4.954   3.507   7.110 -0.2035 -0.7639  0.7079
  590MOL0     C79524   4.951   3.645   7.134 -0.0523  0.4992  0.0666
  590MOL0     C79525   4.806   3.679   7.176 -0.8179 -0.7971  0.0394
  590MOL0     C79526   4.708   3.678   7.048 -0.3626  0.1096 -0.2524
  590MOL0     C79527   4.561   3.662   7.094 -0.4282  0.2776 -0.5445
  590MOL0     C79528   4.476   3.784   7.066  0.1179 -0.4072  0.5831
  590MOL0     C79529   4.528   3.899   7.156  0.3359 -1.4484 -0.3199
  590MOL0     C79530   4.444   4.029   7.142  0.4326  0.4987  0.0450
  590MOL0     C79531   4.481   4.118   7.017 -0.4592 -0.4310  0.5877
  590MOL0     N79532   4.620   4.132   6.982  0.0093  0.2683 -0.8674
  590MOL0     C79533   4.704   4.241   7.001  0.1392 -0.2913 -0.1368
  590MOL0     C79534   4.827   4.210   6.956  0.4941  0.3905  1.1491
  590MOL0     C79535   4.945   4.296   6.976 -1.0156 -1.1933  0.0230
  590MOL0     C79536   4.970   4.375   6.847 -0.4337 -0.2468 -0.6770
  590MOL0     C79537   5.067   4.497   6.868 -0.3553 -0.2800  0.5212
  590MOL0     C79538   5.222   4.465   6.888  0.1693  0.2176  0.2692
  590MOL0     O79539   5.297   4.532   6.787  0.2655  0.2929 -0.1095
  590MOL0     C79540   5.432   4.510   6.763  0.0613  0.4458 -0.0092
  590MOL0     C79541   5.485   4.525   6.641  0.3791 -0.5135 -0.4854
  590MOL0     C79542   5.620   4.495   6.604  0.5216 -0.7059 -0.6107
  590MOL0     C79543   5.705   4.445   6.710 -0.0578  0.1536  0.1145
  590MOL0     C79544   5.843   4.424   6.670 -0.1444  0.4506 -0.5541
  590MOL0     O79545   5.934   4.412   6.775 -0.7179  0.1344 -0.4909
  590MOL0     C79546   6.071   4.420   6.752  0.9535 -0.7621 -0.3015
  590MOL0     C79547   6.135   4.336   6.664  0.5050  0.0617  0.0624
  590MOL0     C79548   6.271   4.337   6.642  0.1535 -0.4622  0.1925
  590MOL0     C79549   6.348   4.420   6.730 -0.1962 -0.2332  0.2945
  590MOL0     O79550   6.484   4.438   6.718  0.8777  0.0142 -0.6101
  590MOL0     C79551   6.555   4.370   6.618 -1.0392  0.2647 -0.9177
  590MOL0     C79552   6.597   4.231   6.665  1.3673  0.6741  0.8928
  590MOL0     C79553   6.693   4.233   6.788 -0.2405 -0.4547 -0.0901
  590MOL0     C79554   6.807   4.137   6.756  0.0258  0.3648 -0.2612
  590MOL0     C79555   6.764   3.993   6.750 -0.3703 -0.1633 -0.0584
  590MOL0     C79556   6.888   3.899   6.709  1.1013  0.2050 -0.1329
  590MOL0     C79557   6.929   3.923   6.565 -0.9745  0.2034  0.0336
  590MOL0     C79558   7.033   3.816   6.513  0.3237 -0.1219 -0.3935
  590MOL0    Cl79559   6.957   3.666   6.464  0.0433 -0.2136 -0.3894
  590MOL0     C79560   6.278   4.491   6.834  0.3195  0.2501 -0.2836
  590MOL0     C79561   6.138   4.504   6.835  0.0834  0.7441  0.2697
  590MOL0     O79562   5.877   4.441   6.554 -0.5709 -0.7160  0.6013
  590MOL0     C79563   5.649   4.418   6.834  1.2869  0.0644  0.2015
  590MOL0     C79564   5.508   4.446   6.859  0.5019 -0.3434 -0.3876
  590MOL0     N79565   4.807   4.088   6.893 -0.0453  0.8117  0.1596
  590MOL0     N79566   4.691   4.040   6.905 -0.5150 -0.1910  0.4337
  590MOL0     C79567   5.064   3.388   7.297  0.8747  0.9231  0.0154
  590MOL0     C79568   5.183   3.336   7.360  0.5234  0.1177  0.0626
  590MOL0     C79569   5.588   3.107   7.361 -0.1354 -0.0221  0.2549
  590MOL0     C79570   5.566   3.098   7.508  0.2405 -0.6214  0.5309
  590MOL0     C79571   5.635   3.019   7.588  0.6528  0.3601 -0.0395
  590MOL0     C79572   5.722   2.934   7.519 -0.2560 -0.7163 -0.0750
  590MOL0     O79573   5.794   2.849   7.595  0.6258  0.0398  0.1662
  590MOL0     C79574   5.929   2.896   7.630  0.8223  0.2312 -0.0584
  590MOL0     C79575   5.989   2.801   7.731 -0.1153 -0.2961  0.1665
  590MOL0     C79576   6.005   2.657   7.682  0.7729 -1.2297  0.1080
  590MOL0     C79577   6.080   2.569   7.778 -0.1889  0.0198  0.1677
  590MOL0     C79578   6.197   2.625   7.852  0.3338  0.5253 -0.0446
  590MOL0     C79579   6.285   2.686   7.898 -0.1554 -0.3527 -0.0962
  590MOL0     C79580   5.749   2.928   7.379  0.1204 -0.3074 -0.3552
  590MOL0     C79581   5.675   3.017   7.296 -0.5991  0.5268 -0.3486
  590MOL0     C79582   5.702   3.007   7.148 -0.3476 -0.2129 -0.2255
  590MOL0     H79583   5.383   3.376   7.097 -0.6974  2.1903 -1.8382
  590MOL0     H79584   5.202   3.475   6.999  1.6403 -1.6111 -0.6417
  590MOL0     H79585   5.006   3.670   7.225  1.0323  0.8237 -0.6644
  590MOL0     H79586   4.999   3.701   7.054  2.4317  0.7760  1.6149
  590MOL0     H79587   4.818   3.781   7.213  1.5981 -0.4676 -1.4280
  590MOL0     H79588   4.774   3.617   7.260 -0.3055 -2.8703 -1.2396
  590MOL0     H79589   4.729   3.596   6.979 -1.2722 -0.2500 -0.1234
  590MOL0     H79590   4.722   3.763   6.981  0.0853 -1.1375 -1.8237
  590MOL0     H79591   4.510   3.582   7.040  1.2800  0.7689 -3.1018
  590MOL0     H79592   4.551   3.638   7.200 -1.9798  2.8421 -0.0126
  590MOL0     H79593   4.491   3.800   6.959 -1.9222 -0.6546  0.2234
  590MOL0     H79594   4.374   3.756   7.093 -0.3624  1.0521  0.3597
  590MOL0     H79595   4.549   3.884   7.262 -2.1034  3.9492  1.2590
  590MOL0     H79596   4.630   3.918   7.121  1.1984 -2.8507  1.2396
  590MOL0     H79597   4.449   4.091   7.232 -0.3573  0.4234  0.1465
  590MOL0     H79598   4.341   3.996   7.124  0.6685  0.6055 -1.6356
  590MOL0     H79599   4.445   4.066   6.928  3.7257  1.8452 -2.8097
  590MOL0     H79600   4.434   4.217   7.020 -1.2129 -0.8011  1.7436
  590MOL0     H79601   4.677   4.331   7.055 -0.5170 -1.4077  1.4794
  590MOL0     H79602   4.947   4.368   7.058  3.3527  0.5548 -1.3342
  590MOL0     H79603   5.032   4.231   6.987 -1.9952 -2.6977 -0.6656
  590MOL0     H79604   5.019   4.307   6.778  2.1631  1.4158 -0.6276
  590MOL0     H79605   4.878   4.416   6.804  0.0078  1.5960 -0.0040
  590MOL0     H79606   5.048   4.555   6.958  1.8277 -0.1508  0.9599
  590MOL0     H79607   5.050   4.552   6.775 -0.9871 -2.4561 -0.7087
  590MOL0     H79608   5.241   4.358   6.884 -3.1612 -0.4290 -1.2325
  590MOL0     H79609   5.255   4.499   6.987 -0.7122  0.1287  0.6051
  590MOL0     H79610   5.422   4.566   6.563  2.1312  0.6581 -1.3537
  590MOL0     H79611   5.666   4.524   6.510  3.3245  0.5948  1.0303
  590MOL0     H79612   6.074   4.275   6.598  0.5054 -0.5584  0.6199
  590MOL0     H79613   6.317   4.270   6.569  1.2532  1.0049 -0.4951
  590MOL0     H79614   6.511   4.376   6.518 -0.9811  2.3390 -0.8497
  590MOL0     H79615   6.656   4.412   6.607  1.1156 -2.3589  4.7501
  590MOL0     H79616   6.508   4.167   6.676 -0.0019  1.9630 -1.6375
  590MOL0     H79617   6.651   4.179   6.585 -0.6297  1.0776 -0.8129
  590MOL0     H79618   6.727   4.334   6.811 -2.8483  1.2902 -3.2014
  590MOL0     H79619   6.640   4.201   6.878 -0.0934 -0.9460 -0.1707
  590MOL0     H79620   6.888   4.149   6.828  0.3623 -0.3629 -0.5008
  590MOL0     H79621   6.845   4.164   6.657  0.6617  1.7399  0.3394
  590MOL0     H79622   6.684   3.983   6.676  0.9294 -1.7369 -1.3560
  590MOL0     H79623   6.724   3.951   6.842 -2.6863 -0.5273 -1.1552
  590MOL0     H79624   6.981   3.903   6.766  1.6476  1.5158 -1.0632
  590MOL0     H79625   6.850   3.797   6.711 -0.2430  0.6125 -2.1196
  590MOL0     H79626   6.983   4.017   6.555 -0.0935 -0.1517  1.1942
  590MOL0     H79627   6.840   3.929   6.501 -0.0625 -0.4172 -1.3525
  590MOL0     H79628   7.091   3.860   6.431 -0.9207  2.6183  0.1028
  590MOL0     H79629   7.102   3.804   6.597  0.8535  3.7956 -0.0986
  590MOL0     H79630   6.340   4.547   6.903 -0.0855 -2.7361  2.7581
  590MOL0     H79631   6.091   4.575   6.902  1.7444  3.1161 -0.9455
  590MOL0     H79632   5.702   4.358   6.906 -0.2939 -0.4776  0.9510
  590MOL0     H79633   5.456   4.422   6.952 -1.4358 -1.5529 -1.6990
  590MOL0     H79634   4.972   3.378   7.353  0.4002 -0.1289 -0.9127
  590MOL0     H79635   5.189   3.297   7.461  0.8898 -0.2731 -0.1088
  590MOL0     H79636   5.486   3.156   7.554 -0.6980 -0.9219 -0.6625
  590MOL0     H79637   5.623   3.007   7.695  1.0432  1.5875  0.1543
  590MOL0     H79638   5.928   3.003   7.654 -1.5357  0.5113 -1.1266
  590MOL0     H79639   5.996   2.893   7.544  1.2469  1.3441  0.2207
  590MOL0     H79640   5.927   2.815   7.820 -1.5682  1.4416 -1.0474
  590MOL0     H79641   6.089   2.844   7.748 -0.6450  2.1006 -2.1239
  590MOL0     H79642   6.055   2.664   7.585 -0.4973  2.0882 -0.4349
  590MOL0     H79643   5.901   2.624   7.671 -0.5050  2.8349 -1.9268
  590MOL0     H79644   6.025   2.525   7.861  0.2735  0.4250  0.6948
  590MOL0     H79645   6.119   2.486   7.719 -1.0039 -1.2127  1.2971
  590MOL0     H79646   6.362   2.731   7.957 -0.4267  1.1668 -0.8531
  590MOL0     H79647   5.832   2.869   7.340  0.9132  1.0121 -0.7399
  590MOL0     H79648   5.610   3.033   7.095  0.6781  1.6319 -1.2002
  590MOL0     H79649   5.771   3.083   7.110  0.3878 -1.2277 -0.9558
  590MOL0     H79650   5.741   2.908   7.121 -2.5774 -1.9775  2.4435
  591MOL0     O79651   8.754   5.426   4.610 -0.1265 -0.1528  0.0159
  591MOL0     C79652   8.694   5.531   4.569 -1.1021  0.6468 -0.1749
  591MOL0     O79653   8.719   5.655   4.592 -0.1425  0.3947  0.4472
  591MOL0     C79654   8.840   5.682   4.642 -0.2318  0.1913  0.5001
  591MOL0     C79655   8.956   5.695   4.561  0.5178  0.0961 -0.6436
  591MOL0     C79656   9.082   5.729   4.621  0.6836 -0.5767  0.2933
  591MOL0     C79657   9.088   5.759   4.756  0.8613 -0.9517  0.6485
  591MOL0     O79658   9.211   5.790   4.806  0.0804 -0.1654  0.2825
  591MOL0     C79659   9.234   5.793   4.942  0.2568 -1.7730 -1.1352
  591MOL0     C79660   9.372   5.862   4.969  0.3113 -0.2794 -0.6590
  591MOL0     C79661   9.391   5.916   5.113 -0.1631 -0.4485 -0.1816
  591MOL0     C79662   9.523   5.982   5.119 -0.8564 -0.1785 -1.0869
  591MOL0     C79663   9.554   6.012   5.267  0.4230 -0.8493  0.5271
  591MOL0     C79664   9.677   6.107   5.284  0.0574  0.6512  0.5153
  591MOL0     C79665   9.641   6.251   5.240  0.4218  0.5006 -0.5324
  591MOL0     C79666   9.526   6.319   5.317 -0.2061  0.3567 -0.9656
  591MOL0     N79667   9.555   6.319   5.459 -0.2714  0.0093 -0.4764
  591MOL0     C79668   9.492   6.237   5.560 -0.0588 -0.3370 -0.7057
  591MOL0     C79669   9.533   6.300   5.677  0.6131  0.4245  0.7323
  591MOL0     C79670   9.484   6.259   5.815  0.5300 -0.2391  0.0255
  591MOL0     C79671   9.474   6.381   5.899  1.4629 -0.2801  0.2127
  591MOL0     C79672   9.332   6.452   5.895 -0.2919  0.2047  0.4562
  591MOL0     C79673   9.284   6.529   5.772 -0.0347  0.2330 -0.4539
  591MOL0     O79674   9.165   6.596   5.800  0.4143 -0.9608  0.4256
  591MOL0     C79675   9.142   6.720   5.751  0.6372 -0.9396 -0.2755
  591MOL0     C79676   9.036   6.782   5.819 -0.0609 -0.2072  0.6647
  591MOL0     C79677   8.988   6.901   5.770  0.4418  0.5870  0.9121
  591MOL0     C79678   9.055   6.955   5.655 -0.5356  0.4544 -0.0389
  591MOL0     C79679   9.000   7.077   5.587 -0.4150 -0.4909 -0.3525
  591MOL0     O79680   9.056   7.125   5.475 -0.2080  0.3320 -0.8166
  591MOL0     C79681   8.984   7.212   5.398  0.1568  0.7775  0.5219
  591MOL0     C79682   9.067   7.284   5.308 -0.1403  0.8201 -0.1304
  591MOL0     C79683   9.017   7.391   5.240  0.4040  0.1532 -0.3089
  591MOL0     C79684   8.881   7.431   5.249 -0.3032 -0.0369  0.2831
  591MOL0     O79685   8.831   7.545   5.189 -0.8308 -0.0658  0.1117
  591MOL0     C79686   8.893   7.665   5.239 -0.9594 -0.7227 -0.0966
  591MOL0     C79687   8.794   7.777   5.213  0.0484  0.1384 -0.6830
  591MOL0     C79688   8.658   7.743   5.296 -0.6920 -0.2165  0.2212
  591MOL0     C79689   8.555   7.853   5.286  0.3586 -0.9998  0.4783
  591MOL0     C79690   8.446   7.824   5.397  0.8426 -0.4969 -0.5483
  591MOL0     C79691   8.350   7.946   5.396  0.6811  0.1160 -0.1079
  591MOL0     C79692   8.264   7.963   5.271  0.0584  0.6894  0.6167
  591MOL0     C79693   8.170   8.083   5.291 -0.8805  0.0216  0.0605
  591MOL0    Cl79694   8.024   8.039   5.379 -0.1687  0.1578  0.8761
  591MOL0     C79695   8.795   7.345   5.319 -0.1383  0.4194  0.0612
  591MOL0     C79696   8.843   7.242   5.402 -0.5357  1.2471  0.1889
  591MOL0     O79697   8.907   7.131   5.648  0.5479  0.2099 -0.6757
  591MOL0     C79698   9.162   6.893   5.595  0.0060 -0.1346 -0.0206
  591MOL0     C79699   9.206   6.771   5.639 -0.0382 -0.9091 -0.9556
  591MOL0     N79700   9.626   6.403   5.637 -0.0482  0.1665 -0.5216
  591MOL0     N79701   9.643   6.407   5.514  0.1277 -0.6168  0.2349
  591MOL0     C79702   8.968   5.759   4.825  1.1810 -0.3904 -0.1082
  591MOL0     C79703   8.845   5.729   4.768 -0.5948  0.5523 -0.1682
  591MOL0     C79704   8.600   5.511   4.452  0.4272  0.4907 -0.0902
  591MOL0     C79705   8.590   5.619   4.358  0.7320 -0.3382 -0.3939
  591MOL0     C79706   8.491   5.623   4.260  1.2722 -0.2616 -0.6855
  591MOL0     C79707   8.404   5.516   4.243 -0.4700  0.2979  0.0668
  591MOL0     O79708   8.317   5.521   4.136 -0.3940  0.3133 -0.4778
  591MOL0     C79709   8.207   5.427   4.119  0.8330  0.2189 -0.1764
  591MOL0     C79710   8.092   5.491   4.040  0.1562  0.4130 -0.6378
  591MOL0     C79711   8.125   5.533   3.897  0.5176  0.7500 -0.0219
  591MOL0     C79712   8.001   5.593   3.827  0.2132  0.0343  0.1489
  591MOL0     C79713   7.949   5.710   3.902  0.3651  0.0747  0.6123
  591MOL0     C79714   7.913   5.818   3.954 -0.5353 -0.1985 -0.1708
  591MOL0     C79715   8.420   5.405   4.323  0.2671 -0.0840 -0.4909
  591MOL0     C79716   8.511   5.402   4.430 -0.1592  0.3012  0.8464
  591MOL0     C79717   8.507   5.281   4.514 -0.2126 -0.4257  0.0664
  591MOL0     H79718   8.939   5.688   4.454  0.0953  0.1560 -0.5809
  591MOL0     H79719   9.169   5.759   4.564  0.3966  1.9529  1.0482
  591MOL0     H79720   9.154   5.856   4.981  0.7803 -0.6315 -1.8486
  591MOL0     H79721   9.227   5.710   5.013  0.6300  0.4912  1.7035
  591MOL0     H79722   9.377   5.946   4.900 -1.8533  0.0639 -0.4685
  591MOL0     H79723   9.446   5.782   4.959 -0.8702 -2.0543  2.9930
  591MOL0     H79724   9.387   5.838   5.190  2.0896 -0.9604 -0.5129
  591MOL0     H79725   9.306   5.978   5.144 -0.4571 -2.2458  3.1170
  591MOL0     H79726   9.607   5.921   5.085 -1.2083 -0.3132 -1.7457
  591MOL0     H79727   9.509   6.067   5.050 -1.1622 -0.5665 -1.5108
  591MOL0     H79728   9.463   6.055   5.310 -0.8061 -1.3575 -1.4051
  591MOL0     H79729   9.580   5.911   5.301  1.3280 -1.0952 -0.7874
  591MOL0     H79730   9.711   6.106   5.388 -1.9144  1.5200  1.2182
  591MOL0     H79731   9.760   6.067   5.225 -0.2870 -4.4618  2.9690
  591MOL0     H79732   9.612   6.261   5.135 -1.9354  0.7218  0.0931
  591MOL0     H79733   9.734   6.308   5.236 -0.3139  1.6739 -3.7818
  591MOL0     H79734   9.519   6.416   5.267  1.2557 -0.6469 -3.2434
  591MOL0     H79735   9.428   6.282   5.288  0.8270 -1.8577 -1.8565
  591MOL0     H79736   9.417   6.159   5.553 -1.9845  1.5874 -3.6417
  591MOL0     H79737   9.389   6.208   5.796 -0.1243  1.7707 -2.5579
  591MOL0     H79738   9.561   6.191   5.853  1.3640  1.5670  1.7145
  591MOL0     H79739   9.493   6.347   6.002 -1.7086 -1.1426  0.6309
  591MOL0     H79740   9.540   6.465   5.878  0.6744  0.0062 -1.2461
  591MOL0     H79741   9.322   6.528   5.974 -2.7227 -0.1257  0.5333
  591MOL0     H79742   9.255   6.378   5.916 -2.0460  1.4171 -1.3400
  591MOL0     H79743   9.272   6.468   5.682 -0.5745 -0.8454  0.3241
  591MOL0     H79744   9.366   6.599   5.755 -0.7560  0.6891 -2.2963
  591MOL0     H79745   8.983   6.745   5.906 -2.1297  1.9457  0.4321
  591MOL0     H79746   8.902   6.946   5.820  0.7562  0.9015  1.1784
  591MOL0     H79747   9.170   7.257   5.284 -0.0109  1.3544 -0.1804
  591MOL0     H79748   9.090   7.439   5.176  0.0954  1.4053  0.2419
  591MOL0     H79749   8.933   7.670   5.341 -0.8907  3.4682 -0.1510
  591MOL0     H79750   8.979   7.699   5.181 -1.1313  2.5994  1.3766
  591MOL0     H79751   8.825   7.868   5.264 -1.4664 -0.0483  0.6656
  591MOL0     H79752   8.773   7.798   5.108 -0.5579  1.0978 -0.3770
  591MOL0     H79753   8.615   7.646   5.268  0.8752 -0.9426  0.2614
  591MOL0     H79754   8.684   7.738   5.402  1.7295  2.6643 -0.1246
  591MOL0     H79755   8.509   7.846   5.187  1.4501 -2.5535  0.0490
  591MOL0     H79756   8.589   7.957   5.293  3.9616 -1.8186 -1.9096
  591MOL0     H79757   8.486   7.800   5.496  0.1145 -3.9736 -0.9696
  591MOL0     H79758   8.393   7.729   5.387 -0.4649 -0.2157  2.5088
  591MOL0     H79759   8.284   7.939   5.483  3.6923  0.9003  2.3949
  591MOL0     H79760   8.413   8.033   5.415  2.3621 -1.0901  0.0393
  591MOL0     H79761   8.201   7.875   5.257  0.5681  0.7150 -2.3189
  591MOL0     H79762   8.332   7.994   5.191  0.3957  2.1906  1.4396
  591MOL0     H79763   8.228   8.159   5.344  0.4136 -0.3404 -0.7761
  591MOL0     H79764   8.147   8.130   5.195 -1.3864  0.1642  0.2507
  591MOL0     H79765   8.691   7.375   5.331 -0.9506 -1.7301 -0.9497
  591MOL0     H79766   8.775   7.177   5.456  0.0767 -2.3010 -2.9519
  591MOL0     H79767   9.207   6.933   5.504 -1.8476 -2.4607 -2.0935
  591MOL0     H79768   9.272   6.705   5.584  1.6614 -0.0178 -0.0523
  591MOL0     H79769   8.966   5.791   4.928 -2.4922 -0.0306 -0.1733
  591MOL0     H79770   8.759   5.742   4.832 -0.4322  5.2884 -0.5910
  591MOL0     H79771   8.656   5.704   4.363 -0.7434  0.8353 -0.1042
  591MOL0     H79772   8.490   5.722   4.216 -0.6334  0.2718  0.4384
  591MOL0     H79773   8.161   5.402   4.215  1.1724 -3.9890 -0.9241
  591MOL0     H79774   8.241   5.338   4.066 -0.5572 -0.0924 -0.5987
  591MOL0     H79775   8.049   5.573   4.099 -0.6073  0.5943 -1.4144
  591MOL0     H79776   8.013   5.416   4.028 -0.1788  0.1996  2.2688
  591MOL0     H79777   8.137   5.438   3.845  0.1242 -0.1756  1.4997
  591MOL0     H79778   8.212   5.597   3.883  2.5122 -1.7544  0.2213
  591MOL0     H79779   8.030   5.635   3.730 -0.9038 -0.7438 -0.5467
  591MOL0     H79780   7.924   5.516   3.815 -0.3172  0.6489 -0.4669
  591MOL0     H79781   7.902   5.915   3.998 -0.2087 -0.0610 -0.3868
  591MOL0     H79782   8.348   5.325   4.318 -0.2172  0.2686  0.5135
  591MOL0     H79783   8.425   5.208   4.512  2.4824 -3.6256 -0.5401
  591MOL0     H79784   8.598   5.224   4.497 -0.3780 -1.1074  1.3393
  591MOL0     H79785   8.511   5.329   4.613  2.0791 -1.1542  0.3725
  592MOL0     O79786   6.301   0.606   6.777  0.0441  0.3495  0.7841
  592MOL0     C79787   6.196   0.557   6.830 -0.3225 -0.9321  0.8997
  592MOL0     O79788   6.188   0.436   6.874 -0.6941 -0.3152 -0.3505
  592MOL0     C79789   6.295   0.375   6.930  0.1099  0.3112 -0.4794
  592MOL0     C79790   6.293   0.236   6.917  0.8477 -0.2420 -0.6126
  592MOL0     C79791   6.394   0.160   6.972 -1.0765 -0.0225 -0.3727
  592MOL0     C79792   6.510   0.217   7.024 -0.1856 -0.1609 -0.0146
  592MOL0     O79793   6.610   0.133   7.060 -0.4600  0.3601  0.3510
  592MOL0     C79794   6.572   0.041   7.166  0.4825 -0.8392 -0.6289
  592MOL0     C79795   6.689  -0.052   7.215  0.0298  0.0550 -0.9076
  592MOL0     C79796   6.804   0.020   7.286  0.0712 -0.6594 -0.2735
  592MOL0     C79797   6.919  -0.078   7.321 -0.0313 -1.0019  0.3004
  592MOL0     C79798   7.051  -0.007   7.364  0.2113 -1.0782 -0.3155
  592MOL0     C79799   7.146  -0.115   7.404  0.4551  0.5698 -0.1713
  592MOL0     C79800   7.289  -0.049   7.432 -0.0488 -0.8368 -0.3341
  592MOL0     C79801   7.378  -0.156   7.495 -0.4464 -0.0855  0.1994
  592MOL0     N79802   7.497  -0.099   7.563  0.3987  0.0051 -0.0026
  592MOL0     C79803   7.580  -0.012   7.515 -0.3110  1.0658 -0.4568
  592MOL0     C79804   7.685   0.005   7.593 -0.4061  0.7153 -0.1347
  592MOL0     C79805   7.809   0.095   7.575  0.9206  0.3499  0.2474
  592MOL0     C79806   7.942   0.011   7.558  0.5926  0.1010 -0.3280
  592MOL0     C79807   7.982  -0.071   7.688  0.3566 -0.0267  0.8671
  592MOL0     C79808   8.129  -0.115   7.685  0.3145 -0.0896  0.1384
  592MOL0     O79809   8.228  -0.014   7.667  0.1502  0.6480 -1.1146
  592MOL0     C79810   8.355  -0.063   7.682  0.3073 -0.5979 -0.3992
  592MOL0     C79811   8.438   0.007   7.768  0.0109 -0.1865 -0.6777
  592MOL0     C79812   8.579  -0.023   7.776 -0.2015 -0.1300  0.2595
  592MOL0     C79813   8.637  -0.121   7.689 -0.2397 -1.2040 -0.0529
  592MOL0     C79814   8.784  -0.153   7.684  0.0032  0.4329 -0.1399
  592MOL0     O79815   8.820  -0.263   7.613  0.4285  0.4137  0.6665
  592MOL0     C79816   8.955  -0.299   7.616 -0.6906  0.4079  0.6878
  592MOL0     C79817   9.033  -0.327   7.732 -0.6257  0.1028 -0.0914
  592MOL0     C79818   9.168  -0.370   7.726  0.5079  0.6460  0.0455
  592MOL0     C79819   9.219  -0.395   7.599  0.1903 -0.1424 -0.4791
  592MOL0     O79820   9.344  -0.453   7.610  0.0800  0.5502 -0.4164
  592MOL0     C79821   9.406  -0.503   7.492 -0.2456 -0.9133  0.3025
  592MOL0     C79822   9.547  -0.537   7.537  0.2705  0.1026  0.7103
  592MOL0     C79823   9.564  -0.651   7.647 -0.0145 -1.0206 -0.5894
  592MOL0     C79824   9.575  -0.790   7.581  0.2113 -0.2834  0.2994
  592MOL0     C79825   9.589  -0.898   7.692  0.3400  1.3656 -0.5848
  592MOL0     C79826   9.578  -1.044   7.634 -0.8065  0.0097 -0.6167
  592MOL0     C79827   9.594  -1.149   7.746 -0.7048  0.3763  0.2722
  592MOL0     C79828   9.493  -1.147   7.857  0.0422  0.1641  1.4944
  592MOL0    Cl79829   9.573  -1.255   7.993 -0.2669  0.0256 -0.4183
  592MOL0     C79830   9.143  -0.366   7.481  0.5905  0.4217  1.1272
  592MOL0     C79831   9.011  -0.330   7.489  0.9994  0.8912 -0.7470
  592MOL0     O79832   8.861  -0.068   7.729 -0.0257  0.0119 -0.3876
  592MOL0     C79833   8.548  -0.194   7.613  0.0154 -0.9679  0.6020
  592MOL0     C79834   8.411  -0.161   7.608  1.0159  0.6372 -0.1418
  592MOL0     N79835   7.661  -0.075   7.706  0.2135 -0.7848  0.4165
  592MOL0     N79836   7.542  -0.129   7.692  0.4566 -0.0071  0.2497
  592MOL0     C79837   6.516   0.356   7.025 -1.6853  1.1360  0.2152
  592MOL0     C79838   6.413   0.438   6.973  0.2467 -0.2827 -0.2834
  592MOL0     C79839   6.068   0.634   6.802 -1.3974  0.0762 -0.3843
  592MOL0     C79840   5.946   0.562   6.788 -0.0611 -0.2521  0.6649
  592MOL0     C79841   5.826   0.619   6.739 -0.2813  0.7135  0.9623
  592MOL0     C79842   5.815   0.745   6.717 -1.2602 -0.7492  0.2730
  592MOL0     O79843   5.697   0.807   6.677 -0.4380  0.6942 -0.3405
  592MOL0     C79844   5.575   0.744   6.727  0.3683  0.4964  0.0906
  592MOL0     C79845   5.452   0.830   6.714  0.7150 -0.6826  1.1627
  592MOL0     C79846   5.433   0.840   6.558 -0.2050 -0.0147  0.3033
  592MOL0     C79847   5.295   0.904   6.518  0.4522  0.0544 -0.6062
  592MOL0     C79848   5.269   1.026   6.591  0.1634  0.2117  0.0829
  592MOL0     C79849   5.273   1.134   6.648 -0.3299 -0.5566 -0.9293
  592MOL0     C79850   5.928   0.821   6.729 -1.3602 -0.0212  0.0419
  592MOL0     C79851   6.056   0.772   6.763 -0.0019  0.2300 -0.0600
  592MOL0     C79852   6.170   0.871   6.759 -0.2302  0.9546 -0.1177
  592MOL0     H79853   6.200   0.198   6.876 -0.1740  1.3462  0.1562
  592MOL0     H79854   6.377   0.057   6.943 -1.1216  0.5814 -2.6732
  592MOL0     H79855   6.525   0.100   7.245 -1.4336 -1.7804 -1.0076
  592MOL0     H79856   6.490  -0.022   7.129 -2.0068  1.0336  1.3359
  592MOL0     H79857   6.719  -0.115   7.131  1.1787 -0.1348 -0.3767
  592MOL0     H79858   6.645  -0.117   7.291  1.9137  0.3973  0.5479
  592MOL0     H79859   6.765   0.056   7.382 -2.0953  0.6517 -1.5503
  592MOL0     H79860   6.825   0.110   7.226  0.8242 -1.1156 -0.7033
  592MOL0     H79861   6.883  -0.147   7.398 -1.3876  1.4652  2.0297
  592MOL0     H79862   6.947  -0.144   7.238 -0.6158 -0.2832 -0.4898
  592MOL0     H79863   7.100   0.043   7.280 -0.2464 -1.4424 -0.8046
  592MOL0     H79864   7.027   0.057   7.450  2.1387  2.0697 -1.9707
  592MOL0     H79865   7.112  -0.171   7.491  1.2552 -2.2571 -1.5478
  592MOL0     H79866   7.151  -0.187   7.322  0.1414  1.3010 -0.8586
  592MOL0     H79867   7.280   0.030   7.508 -3.8897 -3.2309  2.0588
  592MOL0     H79868   7.339  -0.008   7.344 -0.0056  3.0001  1.2798
  592MOL0     H79869   7.315  -0.212   7.564 -3.5718  0.6620 -1.8580
  592MOL0     H79870   7.421  -0.223   7.419  3.4817  1.8248  0.4763
  592MOL0     H79871   7.594   0.042   7.422  0.9219  0.1103 -0.8607
  592MOL0     H79872   7.789   0.171   7.499  0.4670  1.2193  1.2236
  592MOL0     H79873   7.825   0.156   7.664 -0.7412 -0.1142  0.9057
  592MOL0     H79874   7.941  -0.062   7.477  1.5575  1.2374 -1.4138
  592MOL0     H79875   8.021   0.084   7.537  2.0814 -1.3673 -0.1174
  592MOL0     H79876   7.925  -0.165   7.697 -0.7870  0.3324 -1.7763
  592MOL0     H79877   7.959  -0.007   7.774 -0.8314 -0.8555  1.2059
  592MOL0     H79878   8.132  -0.186   7.602  1.8512  0.4048 -0.2627
  592MOL0     H79879   8.142  -0.172   7.778 -1.9224 -0.4098  0.3115
  592MOL0     H79880   8.403   0.097   7.818  1.1209  0.2543 -0.6794
  592MOL0     H79881   8.633   0.044   7.841 -0.3753 -3.8031  4.6877
  592MOL0     H79882   8.990  -0.311   7.830  0.0593  0.2658  0.1869
  592MOL0     H79883   9.226  -0.388   7.816 -1.2281 -1.0614  0.9092
  592MOL0     H79884   9.369  -0.599   7.454  4.2892 -2.4491 -0.9210
  592MOL0     H79885   9.415  -0.430   7.411 -3.0214 -0.0433  0.6943
  592MOL0     H79886   9.605  -0.567   7.449 -1.3993  1.2232 -0.8637
  592MOL0     H79887   9.578  -0.438   7.568 -1.9497  1.3106 -0.6380
  592MOL0     H79888   9.650  -0.641   7.713 -0.2515 -0.2380 -0.3984
  592MOL0     H79889   9.468  -0.649   7.699 -0.6963  3.1629 -1.6436
  592MOL0     H79890   9.657  -0.790   7.509  1.8590 -0.2933  2.0724
  592MOL0     H79891   9.491  -0.816   7.516  0.3444 -3.4401  1.2395
  592MOL0     H79892   9.500  -0.880   7.754 -0.2361 -0.9921 -0.6190
  592MOL0     H79893   9.682  -0.878   7.745  0.1786 -0.2343  0.3581
  592MOL0     H79894   9.490  -1.062   7.572  0.2726 -0.0302 -2.1969
  592MOL0     H79895   9.666  -1.064   7.572 -1.5763 -3.6252 -0.7718
  592MOL0     H79896   9.695  -1.145   7.787 -1.0822  4.1868  1.1228
  592MOL0     H79897   9.590  -1.247   7.696  2.3983 -0.2558  1.0422
  592MOL0     H79898   9.470  -1.044   7.885 -0.2773  1.8333 -3.7737
  592MOL0     H79899   9.402  -1.189   7.813  1.6669 -0.9918 -1.0036
  592MOL0     H79900   9.194  -0.395   7.390 -0.9562  0.6892  0.1401
  592MOL0     H79901   8.965  -0.321   7.391  1.1765  0.5100 -0.8656
  592MOL0     H79902   8.593  -0.272   7.553  0.8360 -0.5853  0.7027
  592MOL0     H79903   8.352  -0.206   7.530  1.5945  0.6038 -0.5641
  592MOL0     H79904   6.606   0.408   7.057 -1.5390  3.2539 -3.1317
  592MOL0     H79905   6.412   0.546   6.982  0.2758 -0.3495  0.6312
  592MOL0     H79906   5.932   0.462   6.828 -1.5860  0.2954  1.6039
  592MOL0     H79907   5.747   0.545   6.742 -1.5459  2.0384  0.8284
  592MOL0     H79908   5.588   0.730   6.835 -0.0665 -1.4882 -0.0716
  592MOL0     H79909   5.556   0.649   6.675 -0.6180  1.1568 -0.7793
  592MOL0     H79910   5.464   0.921   6.774  0.1924  0.2609 -0.0998
  592MOL0     H79911   5.364   0.778   6.753  0.2766 -1.2988 -0.5333
  592MOL0     H79912   5.407   0.739   6.523 -1.0756 -0.0017  0.8771
  592MOL0     H79913   5.519   0.889   6.513 -1.3599  1.3340 -0.5174
  592MOL0     H79914   5.291   0.927   6.411  2.2204  0.1718 -0.6791
  592MOL0     H79915   5.216   0.831   6.537  0.0123  0.0679 -2.2096
  592MOL0     H79916   5.258   1.224   6.703 -0.6415 -2.2843  2.0165
  592MOL0     H79917   5.921   0.924   6.694  3.7704  0.7765  0.5253
  592MOL0     H79918   6.139   0.965   6.714 -1.2744  1.5876  1.8108
  592MOL0     H79919   6.204   0.886   6.862 -1.8025 -0.4896  0.6620
  592MOL0     H79920   6.251   0.826   6.701  0.6982  1.8498  0.4581
  593MOL0     O79921  10.683   3.762  10.475 -0.0549 -0.7221 -0.6407
  593MOL0     C79922  10.682   3.831  10.579 -0.1759 -0.1673 -0.1987
  593MOL0     O79923  10.797   3.871  10.641 -0.1281  0.2414  0.1518
  593MOL0     C79924  10.913   3.861  10.560 -0.1346  0.2188  1.7473
  593MOL0     C79925  11.028   3.829  10.629 -0.0697 -0.4901 -0.3261
  593MOL0     C79926  11.151   3.843  10.566  0.0984  0.1712 -0.1891
  593MOL0     C79927  11.159   3.870  10.432  0.0403 -0.2468 -0.2682
  593MOL0     O79928  11.280   3.858  10.375 -0.0969 -0.1898  0.1474
  593MOL0     C79929  11.309   3.966  10.281 -0.4887 -0.5976 -0.4777
  593MOL0     C79930  11.456   3.990  10.266  0.0995  0.2439 -0.0539
  593MOL0     C79931  11.498   4.138  10.267  0.7742  0.0356 -0.0322
  593MOL0     C79932  11.651   4.161  10.248 -0.0187  0.9938  0.0104
  593MOL0     C79933  11.683   4.311  10.215  0.0150  0.0161 -0.4300
  593MOL0     C79934  11.830   4.327  10.168 -0.0716 -0.4804  0.1859
  593MOL0     C79935  11.855   4.460  10.100 -0.7320 -0.8070 -0.9200
  593MOL0     C79936  11.887   4.567  10.203  0.1176 -0.1402 -0.0534
  593MOL0     N79937  12.023   4.545  10.255  0.8129 -0.8341  0.5950
  593MOL0     C79938  12.058   4.496  10.384 -0.8964 -0.2174 -0.3172
  593MOL0     C79939  12.196   4.514  10.398 -0.1424  0.2987  0.2096
  593MOL0     C79940  12.276   4.501  10.532 -0.0930 -0.5872  0.5265
  593MOL0     C79941  12.357   4.372  10.520 -0.1212  0.3017  1.1203
  593MOL0     C79942  12.272   4.240  10.533 -0.7865 -0.5875  0.6173
  593MOL0     C79943  12.361   4.117  10.505  0.2484 -0.2033 -0.4093
  593MOL0     O79944  12.408   4.123  10.367 -0.1216 -0.4801  1.0636
  593MOL0     C79945  12.320   4.153  10.259  0.5727 -0.1473 -0.3397
  593MOL0     C79946  12.185   4.122  10.258  0.3623 -0.0794  0.5854
  593MOL0     C79947  12.120   4.123  10.138 -0.3680 -0.3571  0.7152
  593MOL0     C79948  12.178   4.152  10.012  1.0032  0.8956  0.1409
  593MOL0     C79949  12.089   4.138   9.894 -1.0051 -0.6615  0.0863
  593MOL0     O79950  11.958   4.110   9.916 -0.7898  0.2876  0.0901
  593MOL0     C79951  11.867   4.103   9.812 -0.4687 -0.4959 -0.4011
  593MOL0     C79952  11.748   4.179   9.817  0.1067 -0.6858 -0.7299
  593MOL0     C79953  11.644   4.161   9.731  0.0271  0.2025 -0.2010
  593MOL0     C79954  11.659   4.078   9.617 -0.8398  0.5370 -1.0115
  593MOL0     O79955  11.553   4.057   9.536  0.2311  0.3852 -0.1910
  593MOL0     C79956  11.493   4.172   9.478  1.6815  0.7791 -0.7915
  593MOL0     C79957  11.392   4.123   9.370 -0.3270 -0.1897 -0.4346
  593MOL0     C79958  11.272   4.047   9.421  0.5437 -0.5204  0.3629
  593MOL0     C79959  11.159   4.001   9.334 -0.4439  0.0430  0.8753
  593MOL0     C79960  11.056   3.933   9.399 -0.0877 -0.1980  0.1865
  593MOL0     C79961  10.943   3.869   9.309 -0.3042 -0.0179 -0.4453
  593MOL0     C79962  10.815   3.860   9.389  1.0056  0.1901  0.5164
  593MOL0     C79963  10.808   3.718   9.454  0.3385 -0.2858 -0.5854
  593MOL0    Cl79964  10.882   3.728   9.623 -0.6421  0.2457  0.3484
  593MOL0     C79965  11.784   4.006   9.607  0.6457 -0.3237 -0.5928
  593MOL0     C79966  11.888   4.022   9.697  0.1867 -0.0870  0.1249
  593MOL0     O79967  12.151   4.153   9.783  0.5504  0.3094 -0.2506
  593MOL0     C79968  12.310   4.197  10.014 -0.0527  0.0998 -0.9542
  593MOL0     C79969  12.381   4.196  10.136 -0.0666 -0.0102 -0.6425
  593MOL0     N79970  12.239   4.577  10.284 -0.4613 -0.1101 -0.8569
  593MOL0     N79971  12.142   4.598  10.202  0.0410  0.6520  0.1721
  593MOL0     C79972  11.047   3.907  10.364  0.2234  0.5498 -0.2103
  593MOL0     C79973  10.924   3.901  10.423 -0.0370  0.2127 -0.0867
  593MOL0     C79974  10.547   3.869  10.639 -0.5550  0.2585  0.4533
  593MOL0     C79975  10.548   3.977  10.724  0.2143  0.0852 -0.3519
  593MOL0     C79976  10.433   4.023  10.789 -0.0769  0.4045 -0.1057
  593MOL0     C79977  10.310   3.959  10.754 -1.1784  0.1062  0.0115
  593MOL0     O79978  10.185   4.002  10.785  0.0294 -0.8994  0.5192
  593MOL0     C79979  10.178   4.125  10.871 -0.2458  0.9314 -0.0386
  593MOL0     C79980  10.035   4.171  10.889  0.1909 -0.5041  0.9119
  593MOL0     C79981  10.036   4.315  10.961 -0.3444 -0.7326 -0.2013
  593MOL0     C79982   9.969   4.305  11.097  0.5444  0.4187 -0.1897
  593MOL0     C79983   9.831   4.269  11.089  0.5469  0.4230  0.8842
  593MOL0     C79984   9.711   4.241  11.077 -0.6479  0.7377 -0.2217
  593MOL0     C79985  10.314   3.839  10.673 -0.6215 -0.5999 -0.7436
  593MOL0     C79986  10.430   3.800  10.613 -0.2154 -0.0344  0.0914
  593MOL0     C79987  10.413   3.676  10.526  0.0270 -1.2117 -0.6011
  593MOL0     H79988  11.032   3.793  10.731  2.8114 -1.1936 -0.5881
  593MOL0     H79989  11.241   3.817  10.621 -1.5682  0.8441  3.1175
  593MOL0     H79990  11.269   3.942  10.183 -0.6307 -0.1245 -0.5402
  593MOL0     H79991  11.269   4.058  10.325  1.4277 -0.3653  0.9140
  593MOL0     H79992  11.487   3.948  10.170 -2.5680  0.1817 -0.9685
  593MOL0     H79993  11.497   3.942  10.356 -1.0730  1.4268  1.1531
  593MOL0     H79994  11.463   4.177  10.363  0.7492 -1.5656  0.6395
  593MOL0     H79995  11.450   4.176  10.177 -0.5128 -1.3628  0.0234
  593MOL0     H79996  11.697   4.124  10.340 -0.0195 -2.0344 -1.0927
  593MOL0     H79997  11.692   4.098  10.168 -1.8495  2.4102 -2.1616
  593MOL0     H79998  11.623   4.372  10.146  3.3757  1.1568 -2.5918
  593MOL0     H79999  11.668   4.367  10.307 -1.3531 -3.1489  1.4273
  593MOL0     H80000  11.902   4.308  10.248 -0.5136  1.1130  1.0109
  593MOL0     H80001  11.847   4.251  10.091 -3.9478 -0.1723 -1.1803
  593MOL0     H80002  11.775   4.490  10.032  0.6665 -0.9183 -2.7181
  593MOL0     H80003  11.941   4.448  10.032  0.4611  5.3119 -1.1291
  593MOL0     H80004  11.885   4.670  10.163  3.1109  0.1011  0.2087
  593MOL0     H80005  11.810   4.554  10.279  0.3470 -2.1733 -0.1341
  593MOL0     H80006  12.000   4.471  10.472 -0.2293  1.5142  0.6519
  593MOL0     H80007  12.344   4.586  10.544  0.1689 -0.9969  2.1453
  593MOL0     H80008  12.211   4.505  10.620 -1.8019  2.8754 -0.6833
  593MOL0     H80009  12.418   4.368  10.430 -0.1812  3.6840  0.8187
  593MOL0     H80010  12.445   4.370  10.585  1.0450 -0.2577 -0.4139
  593MOL0     H80011  12.176   4.251  10.482  0.2443  2.7190 -0.8420
  593MOL0     H80012  12.233   4.228  10.635 -0.9966 -2.7024  0.3490
  593MOL0     H80013  12.301   4.030  10.534  0.5438  0.4310  2.4742
  593MOL0     H80014  12.442   4.112  10.579 -0.6382 -0.7151  0.5498
  593MOL0     H80015  12.135   4.095  10.351 -0.0918  0.2962  0.4573
  593MOL0     H80016  12.017   4.091  10.145  0.0663 -2.7876 -2.1687
  593MOL0     H80017  11.722   4.233   9.907  0.1738 -0.5285 -0.8034
  593MOL0     H80018  11.555   4.219   9.754  1.6535  2.6860  0.2502
  593MOL0     H80019  11.435   4.222   9.556  1.1704  1.6042 -1.6784
  593MOL0     H80020  11.578   4.229   9.439  1.5216  0.3050 -1.8727
  593MOL0     H80021  11.352   4.207   9.312 -1.2857 -2.1462 -2.8171
  593MOL0     H80022  11.445   4.062   9.296 -1.0797 -1.1336 -0.2138
  593MOL0     H80023  11.317   3.969   9.482  3.3490 -0.3388 -1.3290
  593MOL0     H80024  11.223   4.111   9.495 -1.2815  0.0569 -1.2672
  593MOL0     H80025  11.197   3.941   9.250 -4.3476 -1.7670  0.1783
  593MOL0     H80026  11.115   4.089   9.287  0.1262 -0.3744 -0.4919
  593MOL0     H80027  11.012   4.009   9.464 -2.0229 -0.5696 -0.6127
  593MOL0     H80028  11.093   3.851   9.460  0.6360 -1.5082 -1.9186
  593MOL0     H80029  10.921   3.931   9.222  0.4123 -0.3747 -0.8920
  593MOL0     H80030  10.987   3.777   9.271  3.6469  1.3369  0.3364
  593MOL0     H80031  10.733   3.878   9.319  2.2531 -0.3559 -1.1590
  593MOL0     H80032  10.810   3.932   9.471 -1.0046  2.6126 -1.5893
  593MOL0     H80033  10.703   3.695   9.476  0.4434 -0.1795  0.0634
  593MOL0     H80034  10.861   3.639   9.401  0.9497 -2.6628  3.1348
  593MOL0     H80035  11.791   3.926   9.533  3.4480  0.8114 -1.6900
  593MOL0     H80036  11.974   3.955   9.697  0.1640 -0.1172  0.1917
  593MOL0     H80037  12.363   4.220   9.922 -0.4979 -0.0876 -1.2610
  593MOL0     H80038  12.488   4.216  10.144  0.1646 -0.5484 -2.1292
  593MOL0     H80039  11.059   3.945  10.263 -3.0467  4.8467  0.7548
  593MOL0     H80040  10.834   3.936  10.374  0.1084  0.0894 -0.4500
  593MOL0     H80041  10.641   4.031  10.732 -0.7064  1.5251  1.5577
  593MOL0     H80042  10.426   4.116  10.843 -1.0334  0.7889 -0.8615
  593MOL0     H80043  10.226   4.208  10.818 -1.0425  0.2205 -1.9296
  593MOL0     H80044  10.225   4.110  10.969  1.0243  1.1338 -0.5925
  593MOL0     H80045   9.973   4.100  10.943  1.4122 -0.4135  2.5153
  593MOL0     H80046   9.989   4.169  10.790 -1.8144  0.5759  1.7656
  593MOL0     H80047   9.993   4.396  10.901 -1.2004 -1.4237 -0.5445
  593MOL0     H80048  10.141   4.341  10.973 -0.6847  1.2964 -1.2008
  593MOL0     H80049  10.017   4.227  11.157 -0.1543 -1.7744 -2.2830
  593MOL0     H80050   9.968   4.401  11.148 -2.6301 -0.3948  1.5860
  593MOL0     H80051   9.611   4.209  11.059  0.0928 -0.9456 -1.6682
  593MOL0     H80052  10.222   3.784  10.656 -0.5329 -1.2878  0.8423
  593MOL0     H80053  10.436   3.709  10.424  0.0773 -0.1516 -0.2614
  593MOL0     H80054  10.494   3.616  10.568 -1.2797 -1.4615  1.7656
  593MOL0     H80055  10.315   3.629  10.543 -0.6948  0.3940 -0.1040
  594MOL0     O80056   5.841   5.576   4.186 -0.3257  0.0320  0.0831
  594MOL0     C80057   5.906   5.521   4.277  0.2821  0.0218 -0.1483
  594MOL0     O80058   5.869   5.418   4.360  0.5696 -0.5645 -0.3301
  594MOL0     C80059   5.741   5.421   4.400 -0.2977 -0.0005 -0.6231
  594MOL0     C80060   5.674   5.294   4.416  0.5790  0.9360 -0.2303
  594MOL0     C80061   5.532   5.288   4.454 -0.5909  0.1311 -0.2288
  594MOL0     C80062   5.468   5.414   4.461 -0.5563  0.3445  0.4035
  594MOL0     O80063   5.331   5.403   4.495 -0.1089  0.4824  1.0033
  594MOL0     C80064   5.275   5.495   4.586 -0.3331  0.0986 -0.3093
  594MOL0     C80065   5.122   5.524   4.560  0.2554 -0.2210  0.1798
  594MOL0     C80066   5.034   5.411   4.615 -0.3803 -1.0353 -0.7675
  594MOL0     C80067   5.016   5.311   4.501  0.7727 -0.1843 -0.3953
  594MOL0     C80068   4.901   5.217   4.536  0.3015 -0.3931 -0.4407
  594MOL0     C80069   4.885   5.109   4.419 -0.4535 -0.1019  0.5485
  594MOL0     C80070   5.009   5.027   4.412 -1.5157  1.0103  0.2517
  594MOL0     C80071   4.985   4.892   4.345  0.3109  0.0083 -0.0432
  594MOL0     N80072   5.100   4.795   4.335  0.2615 -0.2992  0.4801
  594MOL0     C80073   5.206   4.819   4.252 -0.2344 -0.1548 -0.2887
  594MOL0     C80074   5.273   4.699   4.243 -0.5935 -0.7188  0.7579
  594MOL0     C80075   5.395   4.673   4.158  0.0884  0.9729  0.1817
  594MOL0     C80076   5.523   4.760   4.190 -0.0645 -0.1976 -0.3054
  594MOL0     C80077   5.603   4.774   4.055 -0.1351  0.4209  0.0067
  594MOL0     C80078   5.743   4.826   4.069 -0.4387 -0.8215 -0.3754
  594MOL0     O80079   5.750   4.971   4.081 -0.2535 -0.7649  0.0171
  594MOL0     C80080   5.865   5.043   4.054  0.6360  0.5548  0.2333
  594MOL0     C80081   5.849   5.179   4.049 -0.8269  0.0087 -1.1527
  594MOL0     C80082   5.967   5.254   4.036  0.1949  0.2961 -0.1046
  594MOL0     C80083   6.097   5.193   4.012  0.2728 -0.5047 -0.2977
  594MOL0     C80084   6.218   5.281   3.989  0.5147  0.0020  0.2736
  594MOL0     O80085   6.343   5.217   3.990  0.7866 -0.4853 -0.1101
  594MOL0     C80086   6.468   5.278   3.964 -0.0031 -0.4622  0.0925
  594MOL0     C80087   6.486   5.416   3.956  0.0941 -0.7239  0.3958
  594MOL0     C80088   6.614   5.473   3.930  0.5149 -0.5500 -0.2869
  594MOL0     C80089   6.725   5.389   3.915  0.3197  0.3130 -0.2101
  594MOL0     O80090   6.848   5.437   3.881 -0.6159  0.4488 -0.0175
  594MOL0     C80091   6.962   5.407   3.965 -0.1937  1.0561  0.4333
  594MOL0     C80092   6.995   5.522   4.062 -0.3038 -0.4040  0.1767
  594MOL0     C80093   7.143   5.538   4.100 -0.3999 -0.4804 -0.2347
  594MOL0     C80094   7.172   5.513   4.252  0.2632 -0.0711  0.4397
  594MOL0     C80095   7.315   5.528   4.301  0.6130  0.1446  0.4730
  594MOL0     C80096   7.332   5.533   4.452 -0.2542  0.2151 -0.6215
  594MOL0     C80097   7.475   5.574   4.483  0.5578  0.5961  0.3909
  594MOL0     C80098   7.506   5.619   4.619  0.2103 -0.4176 -0.4017
  594MOL0    Cl80099   7.661   5.694   4.628 -0.0964  0.0015  0.0225
  594MOL0     C80100   6.707   5.251   3.923 -0.6594  0.4710 -0.5864
  594MOL0     C80101   6.581   5.196   3.951 -0.0735 -0.0473 -0.2168
  594MOL0     O80102   6.198   5.396   3.962  0.3339 -0.5158  0.0139
  594MOL0     C80103   6.101   5.054   4.027 -0.3319 -0.8107 -0.6170
  594MOL0     C80104   5.993   4.986   4.044  0.3673  0.0260  0.4792
  594MOL0     N80105   5.189   4.604   4.307 -1.1358 -0.6747  0.3924
  594MOL0     N80106   5.090   4.660   4.366 -0.3153 -0.1149 -0.2051
  594MOL0     C80107   5.532   5.539   4.440  0.3214 -0.0062 -0.1327
  594MOL0     C80108   5.663   5.539   4.407 -0.2341 -0.5014 -0.8039
  594MOL0     C80109   6.051   5.547   4.271  0.8527 -0.1766  0.2960
  594MOL0     C80110   6.140   5.437   4.280  0.7762  0.4765  0.4012
  594MOL0     C80111   6.278   5.462   4.298  0.9017  0.8500 -0.8239
  594MOL0     C80112   6.326   5.592   4.313 -0.6987  0.6703 -0.1120
  594MOL0     O80113   6.459   5.616   4.349 -0.0790  0.4136  0.1255
  594MOL0     C80114   6.496   5.565   4.476 -0.0221 -0.2999  1.0075
  594MOL0     C80115   6.446   5.648   4.595  0.8189  0.1241  0.3402
  594MOL0     C80116   6.495   5.585   4.722  0.2350  0.8905  0.2877
  594MOL0     C80117   6.466   5.689   4.831 -0.5151  0.7961  0.4494
  594MOL0     C80118   6.459   5.618   4.957 -0.1551  0.3464  0.0879
  594MOL0     C80119   6.454   5.562   5.067 -0.9665 -0.1088 -0.7615
  594MOL0     C80120   6.242   5.695   4.290  0.2524 -0.1169  0.0325
  594MOL0     C80121   6.105   5.681   4.270 -0.0892  0.0857  0.6426
  594MOL0     C80122   6.028   5.809   4.245  0.0375 -1.2177 -0.8285
  594MOL0     H80123   5.744   5.213   4.398 -0.6751 -0.8336  2.1783
  594MOL0     H80124   5.480   5.195   4.475 -0.1303  0.4421  2.8349
  594MOL0     H80125   5.298   5.460   4.687 -1.7390 -0.3440 -0.1225
  594MOL0     H80126   5.330   5.590   4.584 -1.1498  0.8045  3.1680
  594MOL0     H80127   5.106   5.526   4.452 -2.7336  1.8467  0.5289
  594MOL0     H80128   5.093   5.621   4.603 -1.2505  0.4150 -2.0575
  594MOL0     H80129   4.940   5.451   4.655 -2.3967 -2.6608 -3.5484
  594MOL0     H80130   5.084   5.361   4.699 -0.1228 -3.2749 -2.1479
  594MOL0     H80131   4.993   5.360   4.406  1.2381  0.9324  0.0592
  594MOL0     H80132   5.107   5.251   4.495 -0.1237 -1.4916 -3.6746
  594MOL0     H80133   4.929   5.167   4.629  0.0524 -0.9297 -0.6465
  594MOL0     H80134   4.805   5.267   4.553  1.1377  2.0540 -2.3853
  594MOL0     H80135   4.799   5.042   4.428 -0.7892  0.1783 -0.4640
  594MOL0     H80136   4.872   5.174   4.332 -1.6822  1.2739  1.7144
  594MOL0     H80137   5.037   5.001   4.515 -1.2414  0.0428 -0.0615
  594MOL0     H80138   5.093   5.075   4.362  0.1309 -4.2442 -2.7516
  594MOL0     H80139   4.897   4.831   4.366  0.8951 -1.5256 -1.6698
  594MOL0     H80140   4.974   4.932   4.244 -0.2019 -1.3203 -0.5357
  594MOL0     H80141   5.234   4.907   4.195  1.4933  0.8306  1.9085
  594MOL0     H80142   5.434   4.570   4.161 -1.2217  0.4678  0.9915
  594MOL0     H80143   5.366   4.676   4.053  0.8543 -0.8727 -0.1375
  594MOL0     H80144   5.507   4.862   4.227  0.1524  1.0344 -3.2984
  594MOL0     H80145   5.584   4.704   4.262  2.6767  0.5643 -1.8903
  594MOL0     H80146   5.541   4.838   3.992 -0.0127  0.2876 -0.2497
  594MOL0     H80147   5.603   4.674   4.009 -2.5171  0.1976  0.3661
  594MOL0     H80148   5.802   4.807   3.978 -0.5857  0.9532 -0.8712
  594MOL0     H80149   5.796   4.782   4.154  0.0644 -0.6818 -0.6152
  594MOL0     H80150   5.761   5.241   4.053 -1.1462 -0.3507 -2.3230
  594MOL0     H80151   5.960   5.362   4.043 -0.0622  0.2002  1.3316
  594MOL0     H80152   6.400   5.480   3.966  1.2032  2.1670 -4.7482
  594MOL0     H80153   6.613   5.580   3.915  1.3857 -0.8687 -3.2274
  594MOL0     H80154   6.944   5.310   4.014  0.1774  0.2905 -0.8942
  594MOL0     H80155   7.037   5.385   3.889  0.0498  4.6252 -0.5329
  594MOL0     H80156   6.969   5.609   4.001 -0.0225 -0.1020  0.4906
  594MOL0     H80157   6.933   5.532   4.151  0.7820 -0.9128  1.0133
  594MOL0     H80158   7.200   5.467   4.040  0.3443 -1.5819  1.6980
  594MOL0     H80159   7.174   5.641   4.079 -0.6219 -0.6329 -1.3608
  594MOL0     H80160   7.142   5.414   4.288 -0.5939  0.0919  0.1958
  594MOL0     H80161   7.107   5.579   4.310 -1.9956 -2.0255  0.2737
  594MOL0     H80162   7.358   5.614   4.249  0.4887 -1.3194 -2.2615
  594MOL0     H80163   7.377   5.446   4.262  0.3301  0.6991 -1.2306
  594MOL0     H80164   7.256   5.600   4.494 -1.9846 -0.6863 -2.1535
  594MOL0     H80165   7.304   5.442   4.506  0.2725  0.1126 -0.5172
  594MOL0     H80166   7.502   5.650   4.409  0.2747 -0.4120 -0.7886
  594MOL0     H80167   7.547   5.495   4.460  2.4054  2.3959 -0.4267
  594MOL0     H80168   7.432   5.695   4.647  1.1011 -0.4261  2.2793
  594MOL0     H80169   7.484   5.539   4.690 -0.6163 -0.8092 -1.0858
  594MOL0     H80170   6.792   5.186   3.904 -1.0772  0.3174 -2.0004
  594MOL0     H80171   6.552   5.092   3.961 -2.5054  0.7376  2.2323
  594MOL0     H80172   6.202   5.015   4.022 -0.2752 -0.5398 -2.5253
  594MOL0     H80173   6.010   4.879   4.055  0.0582  0.1576  2.9825
  594MOL0     H80174   5.489   5.633   4.472  0.5914 -0.1475  0.6647
  594MOL0     H80175   5.710   5.636   4.393  0.8667 -0.6548  1.3891
  594MOL0     H80176   6.090   5.342   4.273 -1.1083  1.5771 -2.9606
  594MOL0     H80177   6.341   5.374   4.300 -2.4530 -1.7399 -0.8592
  594MOL0     H80178   6.605   5.560   4.483  0.0562  0.1015  0.1798
  594MOL0     H80179   6.459   5.464   4.498 -0.1941  0.2247  3.4328
  594MOL0     H80180   6.337   5.663   4.593  0.5717 -1.4983 -0.0292
  594MOL0     H80181   6.491   5.747   4.582 -2.2358  1.3590 -2.4388
  594MOL0     H80182   6.603   5.567   4.722  0.9814  4.5841 -0.6730
  594MOL0     H80183   6.441   5.491   4.736  0.7602  0.5208 -0.1625
  594MOL0     H80184   6.537   5.771   4.826  1.6184 -1.0150 -0.7358
  594MOL0     H80185   6.364   5.730   4.823 -0.8003  0.1254  0.5827
  594MOL0     H80186   6.451   5.515   5.163 -0.0574  2.1515  0.4669
  594MOL0     H80187   6.284   5.794   4.280  2.0644 -0.9699 -1.5255
  594MOL0     H80188   6.086   5.896   4.276  1.5527 -2.0600 -1.1592
  594MOL0     H80189   5.992   5.828   4.143 -0.4122  2.9211 -0.0452
  594MOL0     H80190   5.933   5.813   4.299  1.2704 -1.3896  1.4651
  595MOL0     O80191   3.785   1.437   2.011  0.3385  0.3955  0.7291
  595MOL0     C80192   3.758   1.448   2.132 -0.1621  0.8013 -0.1487
  595MOL0     O80193   3.714   1.343   2.207  0.1144  0.9190 -0.6052
  595MOL0     C80194   3.668   1.225   2.148 -0.6764  0.0921 -0.3737
  595MOL0     C80195   3.763   1.142   2.098 -0.5518  0.4619  0.6480
  595MOL0     C80196   3.735   1.015   2.040  0.2872  0.4696 -0.1442
  595MOL0     C80197   3.598   0.975   2.044 -0.5133  0.1676  0.2482
  595MOL0     O80198   3.556   0.857   1.985 -0.3820  0.1424 -0.3244
  595MOL0     C80199   3.650   0.759   1.934 -0.6174 -0.4747 -0.7915
  595MOL0     C80200   3.700   0.796   1.794 -0.3200  0.0449 -0.9087
  595MOL0     C80201   3.589   0.870   1.705  0.4573 -0.3223 -0.7042
  595MOL0     C80202   3.628   0.865   1.566 -0.7515 -0.4032 -0.2083
  595MOL0     C80203   3.756   0.954   1.539 -0.4406  0.7692  0.1094
  595MOL0     C80204   3.732   1.099   1.558  0.2816  0.0093  0.0371
  595MOL0     C80205   3.842   1.180   1.501  0.2225 -0.5025  0.3223
  595MOL0     C80206   3.828   1.201   1.348  0.2132  0.7415  0.0980
  595MOL0     N80207   3.867   1.334   1.296  0.2684  1.1660  0.1592
  595MOL0     C80208   3.994   1.391   1.305  1.0733  0.2509 -1.0306
  595MOL0     C80209   3.990   1.492   1.221  0.3255 -0.0346  0.2036
  595MOL0     C80210   4.101   1.586   1.185 -0.1478 -0.4124  0.7528
  595MOL0     C80211   4.140   1.572   1.033  0.0063 -0.5980  0.3754
  595MOL0     C80212   4.265   1.651   1.004 -0.8820 -0.7786 -0.7021
  595MOL0     C80213   4.311   1.615   0.863 -0.0138  0.9916  0.7629
  595MOL0     O80214   4.387   1.715   0.801  0.1149 -0.0300 -0.3410
  595MOL0     C80215   4.507   1.754   0.855  0.0507  0.7694  0.3640
  595MOL0     C80216   4.592   1.694   0.955  0.3768 -0.9498  1.7579
  595MOL0     C80217   4.718   1.745   0.989 -0.5417  0.4612  0.0072
  595MOL0     C80218   4.768   1.863   0.918 -0.0324  0.6736  0.2793
  595MOL0     C80219   4.904   1.906   0.938  0.1529 -0.0460  0.6795
  595MOL0     O80220   4.942   2.011   0.853 -0.3405  0.0188 -0.4307
  595MOL0     C80221   5.059   2.080   0.888  0.7081  0.2986  0.0114
  595MOL0     C80222   5.174   2.050   0.811 -0.1663 -0.2699 -0.1482
  595MOL0     C80223   5.298   2.115   0.836  0.7705  0.3180  0.2605
  595MOL0     C80224   5.307   2.201   0.941  0.2681 -0.6929 -0.8873
  595MOL0     O80225   5.434   2.251   0.974  0.3205  0.7465  0.4711
  595MOL0     C80226   5.457   2.321   1.098  0.3741 -0.1958  0.0021
  595MOL0     C80227   5.573   2.417   1.095 -0.1684  0.2580 -0.4318
  595MOL0     C80228   5.566   2.492   0.956  0.0775  0.1768 -0.7417
  595MOL0     C80229   5.668   2.610   0.966 -0.3494  0.5705  0.0365
  595MOL0     C80230   5.697   2.657   0.826 -0.2059 -0.4904  0.0280
  595MOL0     C80231   5.794   2.774   0.845 -0.3000 -0.4473 -0.2244
  595MOL0     C80232   5.889   2.802   0.722  1.2742 -0.2413  0.5718
  595MOL0     C80233   6.031   2.772   0.753 -0.8025 -0.1931 -0.8660
  595MOL0    Cl80234   6.107   2.879   0.882 -0.2416  0.1144 -0.7330
  595MOL0     C80235   5.187   2.238   1.011  0.5571  0.5306  0.3896
  595MOL0     C80236   5.058   2.172   0.980 -0.3247  0.2304 -0.0081
  595MOL0     O80237   4.955   1.889   1.052 -0.2566 -0.9362  0.2220
  595MOL0     C80238   4.682   1.908   0.817  0.3081  0.2153 -0.4538
  595MOL0     C80239   4.559   1.856   0.791  0.2029 -0.0909  0.3746
  595MOL0     N80240   3.869   1.490   1.156  0.4144 -0.7722  0.1533
  595MOL0     N80241   3.800   1.398   1.201 -0.3263  0.4138 -0.0382
  595MOL0     C80242   3.504   1.061   2.096  0.1767  0.9233 -0.3160
  595MOL0     C80243   3.535   1.187   2.144  0.2480  0.4913  0.2396
  595MOL0     C80244   3.767   1.574   2.206 -0.3925 -0.1199  0.5054
  595MOL0     C80245   3.699   1.584   2.327 -0.4031 -0.4106 -0.7739
  595MOL0     C80246   3.687   1.710   2.396 -0.8130 -0.1763 -0.1713
  595MOL0     C80247   3.731   1.822   2.338  0.2897  0.7755  0.5023
  595MOL0     O80248   3.694   1.941   2.399 -0.9916  0.3330  0.5153
  595MOL0     C80249   3.723   2.063   2.332  0.1953  0.5864  0.0687
  595MOL0     C80250   3.737   2.167   2.445 -0.0233  0.3111  0.5892
  595MOL0     C80251   3.771   2.310   2.401  0.9267 -0.2799 -0.0129
  595MOL0     C80252   3.661   2.370   2.307  0.3752  0.6358  0.7475
  595MOL0     C80253   3.696   2.496   2.245 -0.0208  0.0060 -0.7698
  595MOL0     C80254   3.739   2.607   2.210  0.5470  0.2107 -0.7021
  595MOL0     C80255   3.797   1.809   2.213 -0.9000 -0.2330 -0.4295
  595MOL0     C80256   3.815   1.692   2.142  0.1246  0.6409 -0.8867
  595MOL0     C80257   3.902   1.694   2.015  0.2451 -0.3197  0.6704
  595MOL0     H80258   3.866   1.176   2.097 -0.3268 -0.1413 -1.6745
  595MOL0     H80259   3.808   0.949   1.996 -1.0238  0.4109 -2.3828
  595MOL0     H80260   3.736   0.744   2.000  0.2628 -2.0438 -2.2346
  595MOL0     H80261   3.600   0.665   1.909 -0.2714 -0.6630 -0.7867
  595MOL0     H80262   3.748   0.707   1.751  0.0577 -0.2735  0.1384
  595MOL0     H80263   3.783   0.867   1.803  1.2575 -1.5846 -1.9494
  595MOL0     H80264   3.571   0.976   1.727  0.9385 -0.3323 -0.2433
  595MOL0     H80265   3.492   0.821   1.717  0.6797 -0.8655 -1.0858
  595MOL0     H80266   3.654   0.762   1.541 -0.4487  0.0130 -1.7130
  595MOL0     H80267   3.546   0.885   1.496 -0.7798 -2.0238 -0.6881
  595MOL0     H80268   3.842   0.900   1.581  1.2217  1.8067 -1.7465
  595MOL0     H80269   3.774   0.952   1.431  0.1333 -1.8629  0.1953
  595MOL0     H80270   3.639   1.112   1.502  0.4386 -1.9824 -0.7784
  595MOL0     H80271   3.709   1.130   1.660  0.6019  3.2549 -0.7853
  595MOL0     H80272   3.936   1.131   1.525  0.4230 -1.3655 -1.9771
  595MOL0     H80273   3.844   1.281   1.543  1.2388  0.5936 -2.1523
  595MOL0     H80274   3.882   1.118   1.300 -0.8664 -0.8625  1.5088
  595MOL0     H80275   3.719   1.199   1.337  0.0633  1.7728  1.2478
  595MOL0     H80276   4.086   1.364   1.356  1.7477  1.3986 -1.6102
  595MOL0     H80277   4.061   1.687   1.196 -4.2822 -1.6499 -0.9742
  595MOL0     H80278   4.194   1.564   1.238 -0.4173 -2.7044  0.4062
  595MOL0     H80279   4.153   1.467   1.005 -2.3052 -0.7942 -0.0828
  595MOL0     H80280   4.062   1.614   0.969  0.9829  0.9738  0.1637
  595MOL0     H80281   4.352   1.638   1.069  0.1902 -1.1472 -2.1418
  595MOL0     H80282   4.241   1.757   0.994 -0.4608 -0.7915 -2.0303
  595MOL0     H80283   4.223   1.597   0.800  0.2664  1.9161  0.0894
  595MOL0     H80284   4.371   1.523   0.863  0.0210  0.9744 -1.6685
  595MOL0     H80285   4.562   1.608   1.014 -2.6611 -0.8003  0.6106
  595MOL0     H80286   4.777   1.700   1.068  1.9024  0.1468 -1.8989
  595MOL0     H80287   5.178   1.966   0.742  4.2486 -1.0146  0.6703
  595MOL0     H80288   5.380   2.098   0.767  0.7365  0.0505  0.2821
  595MOL0     H80289   5.376   2.392   1.116  0.0247 -1.2815  3.5541
  595MOL0     H80290   5.460   2.259   1.188 -0.7060  0.1090  0.2512
  595MOL0     H80291   5.556   2.490   1.174  1.6375  0.1314  0.1257
  595MOL0     H80292   5.666   2.365   1.121 -0.1952 -0.7394 -2.1391
  595MOL0     H80293   5.588   2.416   0.881 -4.4989 -0.7712 -1.4023
  595MOL0     H80294   5.465   2.522   0.925 -0.5846  0.3275  1.3943
  595MOL0     H80295   5.764   2.580   1.010 -0.1565  0.7091 -0.2919
  595MOL0     H80296   5.630   2.691   1.030  0.4758  0.2381  0.9737
  595MOL0     H80297   5.611   2.687   0.765  1.9709 -1.4136 -3.8710
  595MOL0     H80298   5.744   2.575   0.770  1.8078  0.6029  0.0142
  595MOL0     H80299   5.741   2.870   0.849 -0.4391 -0.3985 -2.0552
  595MOL0     H80300   5.852   2.768   0.937  1.8674  0.2729 -1.4535
  595MOL0     H80301   5.880   2.907   0.692  0.1303 -0.8633 -1.4083
  595MOL0     H80302   5.841   2.743   0.644 -1.0251  1.8609  0.2754
  595MOL0     H80303   6.039   2.669   0.788 -0.6772 -0.7711 -2.5065
  595MOL0     H80304   6.096   2.775   0.665  1.3849  1.4705  0.6971
  595MOL0     H80305   5.195   2.311   1.090  3.7818  0.0124  0.6899
  595MOL0     H80306   4.964   2.183   1.033 -0.8261  0.6889 -0.9757
  595MOL0     H80307   4.717   1.995   0.762 -2.3058  0.7005 -1.4791
  595MOL0     H80308   4.513   1.903   0.705  0.7581  1.9744  1.1524
  595MOL0     H80309   3.400   1.031   2.095  0.1936  0.8505 -2.1392
  595MOL0     H80310   3.452   1.246   2.181 -0.2566 -0.1398  0.1432
  595MOL0     H80311   3.675   1.490   2.376  0.7857 -0.9810 -1.2615
  595MOL0     H80312   3.644   1.706   2.496 -1.9831  0.8736 -0.6074
  595MOL0     H80313   3.634   2.091   2.274  0.0127  2.0821  1.0014
  595MOL0     H80314   3.819   2.067   2.280  0.2514  1.5214  0.2320
  595MOL0     H80315   3.823   2.132   2.503  2.0594  0.9258 -1.9670
  595MOL0     H80316   3.641   2.161   2.498 -1.6889 -0.8959 -2.3635
  595MOL0     H80317   3.867   2.296   2.351  0.2235 -2.5916 -0.8085
  595MOL0     H80318   3.779   2.379   2.486  0.5584  0.5771 -0.6560
  595MOL0     H80319   3.635   2.300   2.227  2.1086 -1.6752  2.0790
  595MOL0     H80320   3.567   2.397   2.356 -0.0108 -1.0631  0.9936
  595MOL0     H80321   3.782   2.701   2.183 -1.9613  1.4312 -0.7478
  595MOL0     H80322   3.836   1.902   2.174 -2.4151  0.8643  0.5580
  595MOL0     H80323   3.837   1.679   1.928  0.1041 -0.1401  0.7463
  595MOL0     H80324   3.956   1.789   2.010  1.2444 -0.9180 -1.3934
  595MOL0     H80325   3.984   1.622   2.015 -0.2350 -1.1432 -3.3101
  596MOL0     O80326   7.849   6.879   6.145  0.0983  0.1294  0.8130
  596MOL0     C80327   7.741   6.929   6.169 -0.4164 -0.4848 -0.5992
  596MOL0     O80328   7.723   7.032   6.258  0.2727 -0.5001  0.0999
  596MOL0     C80329   7.822   7.074   6.348 -0.2020  0.4892  0.0517
  596MOL0     C80330   7.903   6.989   6.424 -0.9084  0.1255 -0.2399
  596MOL0     C80331   8.016   7.030   6.494  0.6317  0.1669 -0.6356
  596MOL0     C80332   8.042   7.165   6.508  1.1923 -1.1936  0.1087
  596MOL0     O80333   8.157   7.205   6.572  0.2118 -0.3042 -0.6922
  596MOL0     C80334   8.174   7.166   6.711  0.0691  0.8870  0.7777
  596MOL0     C80335   8.050   7.207   6.792  0.1855 -0.6170  0.6304
  596MOL0     C80336   8.012   7.357   6.776  0.4311 -1.1400  0.1460
  596MOL0     C80337   7.910   7.393   6.881 -0.2279 -0.3698 -0.8010
  596MOL0     C80338   7.844   7.532   6.865  0.1250 -0.0461 -0.4423
  596MOL0     C80339   7.756   7.567   6.988  0.3739 -0.6067  0.4402
  596MOL0     C80340   7.659   7.681   6.960 -0.1963  0.7512  1.0288
  596MOL0     C80341   7.548   7.655   6.864 -0.2019 -0.6902 -0.4126
  596MOL0     N80342   7.422   7.629   6.938 -0.3212  1.1150 -0.8338
  596MOL0     C80343   7.304   7.707   6.942 -0.0706  0.2930  0.0448
  596MOL0     C80344   7.231   7.645   7.029  1.1980  0.7886  0.2383
  596MOL0     C80345   7.083   7.664   7.065 -0.3994  0.3910  1.1944
  596MOL0     C80346   7.049   7.813   7.085  0.2701 -0.6788 -0.2840
  596MOL0     C80347   7.064   7.869   7.228 -0.7339 -0.5337 -0.6319
  596MOL0     C80348   7.088   8.018   7.239  0.2310 -0.1490 -0.4583
  596MOL0     O80349   7.175   8.066   7.142  0.1224 -0.1258 -0.6712
  596MOL0     C80350   7.317   8.058   7.147 -0.5024 -0.2291  0.0104
  596MOL0     C80351   7.395   7.970   7.212 -0.3038  0.3862 -0.4880
  596MOL0     C80352   7.537   7.957   7.203  0.0398 -0.2614 -0.4306
  596MOL0     C80353   7.594   8.049   7.118 -0.1688  0.4686  0.2373
  596MOL0     C80354   7.742   8.059   7.088  0.1303  0.8448  1.0235
  596MOL0     O80355   7.783   8.184   7.052  0.1326  0.3402  0.8424
  596MOL0     C80356   7.917   8.201   7.011  0.5333 -0.8457 -0.1885
  596MOL0     C80357   7.990   8.300   7.077  0.2945  0.3920  0.5435
  596MOL0     C80358   8.118   8.328   7.034  0.2131 -0.5691 -0.1937
  596MOL0     C80359   8.182   8.247   6.938  1.0458 -0.2529 -0.3883
  596MOL0     O80360   8.316   8.254   6.898  1.3736  0.0221 -0.5470
  596MOL0     C80361   8.397   8.237   7.012  0.7551 -0.4963  0.5294
  596MOL0     C80362   8.543   8.249   6.959  0.0971 -0.5135 -0.1069
  596MOL0     C80363   8.568   8.178   6.829  0.3521 -0.1506  0.2723
  596MOL0     C80364   8.570   8.024   6.844  1.3646 -0.1264 -0.1644
  596MOL0     C80365   8.612   7.948   6.718  0.4259 -0.2374 -1.0632
  596MOL0     C80366   8.756   7.899   6.746  0.0708  0.6819 -0.5562
  596MOL0     C80367   8.798   7.840   6.617 -0.3897 -0.2627  1.0920
  596MOL0     C80368   8.950   7.786   6.621  0.9040 -0.3456  0.1927
  596MOL0    Cl80369   8.985   7.697   6.777  0.1962 -0.0660 -0.3252
  596MOL0     C80370   8.107   8.149   6.880 -0.9379  0.2794  0.1532
  596MOL0     C80371   7.974   8.124   6.909  0.5489  0.6045 -0.4264
  596MOL0     O80372   7.815   7.962   7.114  0.5462  0.4255 -0.3189
  596MOL0     C80373   7.512   8.133   7.038  0.2313 -0.6901 -0.3376
  596MOL0     C80374   7.377   8.158   7.067  0.1625  0.6706  0.3157
  596MOL0     N80375   7.304   7.533   7.077 -0.3911 -0.5311 -0.1996
  596MOL0     N80376   7.416   7.529   7.029  0.0378 -0.4971 -0.7569
  596MOL0     C80377   7.951   7.247   6.438 -0.4188 -0.3083  0.2667
  596MOL0     C80378   7.843   7.212   6.361  0.2970 -0.2235 -0.1985
  596MOL0     C80379   7.636   6.898   6.076  0.8012  0.3445 -0.6189
  596MOL0     C80380   7.529   6.993   6.067 -1.1517  0.0857  0.0173
  596MOL0     C80381   7.426   6.981   5.978 -0.0596  0.0167 -0.2184
  596MOL0     C80382   7.427   6.874   5.883 -0.6941  0.5606 -0.2970
  596MOL0     O80383   7.336   6.872   5.778  0.3918  0.2313 -0.4427
  596MOL0     C80384   7.210   6.948   5.797  0.0475 -0.1466 -0.5416
  596MOL0     C80385   7.110   6.910   5.692  0.3616 -0.0232 -0.7152
  596MOL0     C80386   7.046   6.765   5.713 -0.0915 -0.2882  0.0147
  596MOL0     C80387   7.084   6.675   5.607  0.8576  0.3072  0.2770
  596MOL0     C80388   7.005   6.543   5.603  0.1087 -0.1097 -0.2573
  596MOL0     C80389   6.954   6.429   5.601 -0.2950  0.7277  0.6363
  596MOL0     C80390   7.526   6.783   5.894 -0.5240  0.2796 -0.7050
  596MOL0     C80391   7.632   6.789   5.986  0.3085  0.2798 -0.5985
  596MOL0     C80392   7.722   6.670   5.986 -0.0792  0.2071  0.2453
  596MOL0     H80393   7.882   6.883   6.431  0.5587 -0.1576  0.0600
  596MOL0     H80394   8.073   6.952   6.543  0.9559  1.5178  1.2443
  596MOL0     H80395   8.180   7.058   6.721  0.6676  0.8039 -0.2883
  596MOL0     H80396   8.268   7.207   6.749  1.1142  1.6683 -2.3412
  596MOL0     H80397   8.077   7.191   6.897 -2.4022 -0.5342  1.3980
  596MOL0     H80398   7.960   7.146   6.781  0.1018 -0.7435  1.8742
  596MOL0     H80399   7.964   7.382   6.681  1.7246  0.7438 -0.0712
  596MOL0     H80400   8.100   7.422   6.782  1.1052 -2.1500  1.9632
  596MOL0     H80401   7.832   7.320   6.907  0.0784 -0.6079 -0.5439
  596MOL0     H80402   7.977   7.393   6.967 -0.1233 -2.0776 -0.8656
  596MOL0     H80403   7.909   7.618   6.848  0.5676  0.2524  2.3269
  596MOL0     H80404   7.773   7.513   6.784  2.0055 -0.8680 -1.9844
  596MOL0     H80405   7.697   7.481   7.023 -0.9286  0.3843  0.7329
  596MOL0     H80406   7.806   7.595   7.081  0.4519  0.8962 -0.0353
  596MOL0     H80407   7.718   7.764   6.921 -1.1958  0.8574 -0.3214
  596MOL0     H80408   7.622   7.704   7.060  1.1448 -1.0507  1.9901
  596MOL0     H80409   7.549   7.747   6.805  5.3194  0.6212  1.1856
  596MOL0     H80410   7.559   7.573   6.792 -3.6123  0.2744 -2.2767
  596MOL0     H80411   7.271   7.791   6.882  1.8263  0.4945 -0.7989
  596MOL0     H80412   7.027   7.637   6.975  2.9094  1.1560 -1.3073
  596MOL0     H80413   7.061   7.595   7.147 -2.6054 -1.7535 -1.0169
  596MOL0     H80414   7.110   7.873   7.018 -1.3851 -0.8096 -1.9951
  596MOL0     H80415   6.944   7.819   7.055 -0.1987  0.9018  1.5072
  596MOL0     H80416   7.157   7.835   7.275 -0.3802 -1.7221 -2.1457
  596MOL0     H80417   6.990   7.837   7.302  0.2280  0.1362  0.6700
  596MOL0     H80418   7.111   8.044   7.342  0.6316  2.2554 -1.1004
  596MOL0     H80419   6.994   8.073   7.224  0.1130  0.3484  1.7977
  596MOL0     H80420   7.346   7.895   7.272  0.2135 -1.0084 -1.7564
  596MOL0     H80421   7.595   7.882   7.257 -0.4716 -0.7856 -0.6017
  596MOL0     H80422   7.932   8.361   7.146 -0.8337 -0.4104  0.3246
  596MOL0     H80423   8.167   8.413   7.080 -1.8716 -0.3234  1.7401
  596MOL0     H80424   8.374   8.313   7.088 -0.7543 -0.3448 -0.0390
  596MOL0     H80425   8.384   8.138   7.057 -0.1606 -0.0913  1.1966
  596MOL0     H80426   8.563   8.355   6.941  1.3948 -0.8323 -0.5802
  596MOL0     H80427   8.620   8.224   7.032 -0.9101  1.0292  1.5756
  596MOL0     H80428   8.504   8.212   6.747 -0.1668  0.6051  0.9661
  596MOL0     H80429   8.667   8.198   6.788  0.0911 -1.7394 -1.2462
  596MOL0     H80430   8.469   7.994   6.871  1.2166 -0.1915 -0.7813
  596MOL0     H80431   8.625   7.996   6.935 -0.0084 -0.7555  0.5013
  596MOL0     H80432   8.612   8.022   6.638  1.8588  1.4315  0.3853
  596MOL0     H80433   8.542   7.865   6.703  1.7465 -1.8963  1.2345
  596MOL0     H80434   8.817   7.985   6.774  3.5637 -1.5151 -0.7925
  596MOL0     H80435   8.760   7.829   6.829  0.9355  1.0749 -0.2515
  596MOL0     H80436   8.784   7.917   6.540  0.3048 -0.1529  1.0744
  596MOL0     H80437   8.735   7.758   6.583 -1.0913  0.7279 -0.0810
  596MOL0     H80438   8.969   7.721   6.536  2.5289 -0.4149  0.5767
  596MOL0     H80439   9.023   7.868   6.622 -1.3975  1.8655  1.8908
  596MOL0     H80440   8.149   8.096   6.795 -2.5392 -0.2150 -0.3613
  596MOL0     H80441   7.926   8.046   6.852  5.4225 -1.7108 -1.9584
  596MOL0     H80442   7.559   8.188   6.958 -1.2269 -2.3241 -2.4359
  596MOL0     H80443   7.312   8.232   7.023 -0.3145 -0.0979 -0.2965
  596MOL0     H80444   7.955   7.352   6.466  0.5384 -0.1373 -0.4715
  596MOL0     H80445   7.791   7.287   6.303  0.7552  0.2866  0.0414
  596MOL0     H80446   7.532   7.076   6.138  3.2328  0.6848 -0.6188
  596MOL0     H80447   7.358   7.065   5.967  2.1857  2.0844  0.6741
  596MOL0     H80448   7.237   7.053   5.783 -1.4706  0.5577  1.2836
  596MOL0     H80449   7.167   6.930   5.896  1.6974  1.1146  0.4526
  596MOL0     H80450   7.168   6.926   5.601  0.4528  0.5827 -0.5565
  596MOL0     H80451   7.030   6.984   5.696 -1.1053 -1.5275 -1.0020
  596MOL0     H80452   6.938   6.773   5.705  0.0700 -0.1483 -3.4000
  596MOL0     H80453   7.079   6.716   5.806 -0.3155  1.7944  1.2418
  596MOL0     H80454   7.054   6.730   5.518  0.3632 -0.4583 -0.0436
  596MOL0     H80455   7.191   6.651   5.610  0.5931 -0.8760  1.5947
  596MOL0     H80456   6.906   6.334   5.613 -1.0879  0.8742 -1.0025
  596MOL0     H80457   7.536   6.703   5.822  1.5841 -0.0808 -0.0899
  596MOL0     H80458   7.685   6.582   5.933 -1.8591  0.6314  0.7361
  596MOL0     H80459   7.816   6.701   5.939  0.7898  0.0799  1.8302
  596MOL0     H80460   7.743   6.636   6.088  1.0197 -0.3422 -0.1489
  597MOL0     O80461   8.231   3.747   0.134 -0.3879 -0.7419  0.0377
  597MOL0     C80462   8.298   3.781   0.039 -0.0501 -0.7959  0.6642
  597MOL0     O80463   8.413   3.850   0.039 -0.0820  0.2782 -0.0925
  597MOL0     C80464   8.468   3.852   0.169  0.4683  0.0944 -0.5455
  597MOL0     C80465   8.454   3.976   0.229  1.3838 -0.7845 -0.0657
  597MOL0     C80466   8.510   3.991   0.355  0.2543  0.6452  0.5991
  597MOL0     C80467   8.587   3.888   0.422  0.2209 -0.2820 -0.5376
  597MOL0     O80468   8.649   3.934   0.541  0.0656 -0.3824 -0.5322
  597MOL0     C80469   8.777   3.870   0.565 -0.5604  0.9841 -0.6326
  597MOL0     C80470   8.853   3.941   0.666 -0.2527 -0.1501 -0.2535
  597MOL0     C80471   8.993   3.881   0.695 -0.1177 -0.1888  0.0799
  597MOL0     C80472   9.020   3.935   0.834 -0.6329 -0.5194  0.3574
  597MOL0     C80473   9.166   3.928   0.879 -0.2897 -0.1402  0.5732
  597MOL0     C80474   9.215   3.784   0.912 -0.7260  0.5490  0.1062
  597MOL0     C80475   9.356   3.800   0.947 -0.6705  0.0245  0.4143
  597MOL0     C80476   9.421   3.666   0.999 -0.3719 -0.3070  0.3357
  597MOL0     N80477   9.566   3.667   1.028  0.0958  0.0724  0.5768
  597MOL0     C80478   9.616   3.664   1.152  0.5498  0.4258 -0.2944
  597MOL0     C80479   9.748   3.653   1.138  0.2003  0.2586  0.9042
  597MOL0     C80480   9.855   3.644   1.244  0.2519 -0.2803 -0.5062
  597MOL0     C80481   9.997   3.609   1.200  0.5507  0.2203 -0.6269
  597MOL0     C80482  10.068   3.717   1.122  0.3754 -0.5615  0.1182
  597MOL0     C80483  10.220   3.696   1.092  0.4491  0.8007  0.0245
  597MOL0     O80484  10.272   3.819   1.054  0.7300 -0.1249 -0.1029
  597MOL0     C80485  10.400   3.813   1.014 -0.2457  0.2989 -0.5201
  597MOL0     C80486  10.484   3.916   1.048 -0.9009  0.5616  1.3188
  597MOL0     C80487  10.616   3.924   0.993 -0.3817 -0.4119 -0.0975
  597MOL0     C80488  10.677   3.815   0.934  0.6852  0.3325 -0.5782
  597MOL0     C80489  10.821   3.809   0.894 -0.3203  0.5372  0.2969
  597MOL0     O80490  10.904   3.927   0.912 -0.2350 -0.0675 -0.0473
  597MOL0     C80491  11.040   3.928   0.908  0.2656 -0.4158 -0.4789
  597MOL0     C80492  11.104   3.834   0.983 -0.1112 -0.6450  0.0111
  597MOL0     C80493  11.239   3.817   0.971 -0.7442  0.3477 -0.4356
  597MOL0     C80494  11.323   3.897   0.886  0.0156 -0.4618 -0.2162
  597MOL0     O80495  11.460   3.886   0.898  0.1671  0.0349  0.3985
  597MOL0     C80496  11.518   3.918   0.775  0.0501 -0.1006 -0.1366
  597MOL0     C80497  11.630   3.823   0.753  0.1293 -0.1239 -0.1040
  597MOL0     C80498  11.744   3.824   0.851  0.5807 -0.0148 -0.5192
  597MOL0     C80499  11.845   3.718   0.799 -0.0959  0.0438 -0.7117
  597MOL0     C80500  11.976   3.716   0.884  0.0132  0.0664 -0.1910
  597MOL0     C80501  12.076   3.613   0.809  0.3147 -0.3609 -0.6386
  597MOL0     C80502  12.228   3.642   0.848 -0.1180  1.0132 -0.1444
  597MOL0     C80503  12.328   3.553   0.769 -0.0808  0.2890 -1.0469
  597MOL0    Cl80504  12.287   3.552   0.593 -0.0946 -0.1549 -0.2076
  597MOL0     C80505  11.248   4.000   0.811 -0.3158  0.4412 -0.2212
  597MOL0     C80506  11.109   4.016   0.826 -0.0143  0.3968  0.8466
  597MOL0     O80507  10.863   3.700   0.852  0.5665  0.1202  0.1024
  597MOL0     C80508  10.589   3.707   0.900 -0.4550  0.2645 -0.6951
  597MOL0     C80509  10.460   3.702   0.949 -0.5963 -0.5783  0.0581
  597MOL0     N80510   9.772   3.648   1.003  0.1322  0.2194 -0.1212
  597MOL0     N80511   9.660   3.631   0.941  1.0285  0.0230  0.1427
  597MOL0     C80512   8.603   3.768   0.350  0.2082  0.1300 -0.4841
  597MOL0     C80513   8.534   3.748   0.234 -1.4230  0.0986 -0.4645
  597MOL0     C80514   8.237   3.746  -0.090 -0.6955 -0.6706  0.2742
  597MOL0     C80515   8.320   3.736  -0.200  0.3634 -0.2040 -0.3329
  597MOL0     C80516   8.278   3.687  -0.326  0.6774 -0.0229 -1.0871
  597MOL0     C80517   8.141   3.663  -0.351  0.2230 -0.3305 -0.4940
  597MOL0     O80518   8.097   3.613  -0.464  0.3350  0.0341  0.1139
  597MOL0     C80519   7.986   3.687  -0.529  0.2933  0.0938 -0.3179
  597MOL0     C80520   8.043   3.777  -0.629  0.1885 -0.2245  0.8580
  597MOL0     C80521   8.103   3.905  -0.563 -0.8209 -0.0737 -0.7367
  597MOL0     C80522   8.176   4.001  -0.660  0.9840 -0.3674 -0.3195
  597MOL0     C80523   8.075   4.064  -0.754 -0.3482 -0.1417 -0.3528
  597MOL0     C80524   7.994   4.123  -0.824 -1.3215  0.8484 -0.2155
  597MOL0     C80525   8.054   3.675  -0.231 -0.3927 -0.4429  0.2942
  597MOL0     C80526   8.103   3.720  -0.106  0.4599  0.3927  0.1577
  597MOL0     C80527   7.984   3.715   0.004 -0.7917 -0.6075  0.6303
  597MOL0     H80528   8.416   4.066   0.182  3.2230  1.5180  2.5475
  597MOL0     H80529   8.502   4.087   0.406 -0.7099  1.6794 -1.3737
  597MOL0     H80530   8.757   3.767   0.595  0.3338  0.1999 -2.5828
  597MOL0     H80531   8.835   3.869   0.472 -0.0730  0.9196 -0.3342
  597MOL0     H80532   8.794   3.949   0.758  1.6278  2.0490  0.8689
  597MOL0     H80533   8.869   4.042   0.627 -0.0564 -0.6414 -1.5035
  597MOL0     H80534   9.072   3.914   0.627 -0.8953 -1.6105 -1.5958
  597MOL0     H80535   8.982   3.772   0.702  2.5865 -0.4145  2.8874
  597MOL0     H80536   8.992   4.040   0.826  1.3016 -0.0732 -5.3899
  597MOL0     H80537   8.957   3.880   0.904 -2.4414  0.4073 -0.4890
  597MOL0     H80538   9.228   3.989   0.814  1.5986 -0.5437  1.9081
  597MOL0     H80539   9.169   3.975   0.978 -2.5645  2.6468 -0.5425
  597MOL0     H80540   9.171   3.743   1.003  1.8416 -1.1205  0.7167
  597MOL0     H80541   9.216   3.713   0.829  0.7126 -0.2078  0.7263
  597MOL0     H80542   9.369   3.873   1.027  0.7504 -2.4035  2.5897
  597MOL0     H80543   9.413   3.827   0.858 -1.2565  0.4541  0.1637
  597MOL0     H80544   9.367   3.646   1.092 -0.2629  1.9759  0.9346
  597MOL0     H80545   9.407   3.587   0.924  4.5186  0.6795 -1.9812
  597MOL0     H80546   9.564   3.669   1.247  0.7238 -0.9074 -0.1110
  597MOL0     H80547   9.877   3.739   1.294 -0.4592 -0.5186  0.2745
  597MOL0     H80548   9.826   3.574   1.322  2.9850  0.4763  1.3336
  597MOL0     H80549  10.049   3.592   1.294 -0.7842  0.2854  0.1450
  597MOL0     H80550   9.994   3.516   1.142  0.9174  1.5253 -2.8390
  597MOL0     H80551  10.061   3.815   1.170  2.1190 -0.7881  0.9057
  597MOL0     H80552  10.025   3.725   1.022 -0.3611  0.2138  0.4809
  597MOL0     H80553  10.225   3.616   1.017  2.7871 -1.5492  2.5060
  597MOL0     H80554  10.267   3.659   1.183  0.0709  0.2286 -0.0106
  597MOL0     H80555  10.450   4.000   1.108 -0.3766  1.3007  0.6118
  597MOL0     H80556  10.682   4.003   1.027 -2.4103  2.0498 -1.4488
  597MOL0     H80557  11.048   3.773   1.054  0.5506 -0.7534  0.4469
  597MOL0     H80558  11.294   3.749   1.036  1.1822  2.7495  0.6321
  597MOL0     H80559  11.446   3.917   0.692 -2.0375  4.0648  1.3390
  597MOL0     H80560  11.555   4.021   0.777 -1.7597  0.6343  3.2125
  597MOL0     H80561  11.585   3.723   0.748 -0.4781  0.1338  0.0770
  597MOL0     H80562  11.668   3.847   0.653 -1.9020 -1.3294 -1.2589
  597MOL0     H80563  11.793   3.921   0.862 -0.8007  0.5931  0.5089
  597MOL0     H80564  11.709   3.792   0.949  1.2568  0.5375 -0.0854
  597MOL0     H80565  11.877   3.737   0.696  0.2125  0.0575 -0.6137
  597MOL0     H80566  11.804   3.617   0.796 -0.7587  0.2461  0.6936
  597MOL0     H80567  11.961   3.679   0.986 -2.0928 -0.5968 -0.6688
  597MOL0     H80568  12.014   3.818   0.887 -3.1063  1.2985  2.2133
  597MOL0     H80569  12.042   3.511   0.829 -0.3201 -0.0680 -0.1884
  597MOL0     H80570  12.064   3.623   0.701 -0.8953 -0.6763 -0.5511
  597MOL0     H80571  12.236   3.646   0.957 -1.9375 -0.9260  0.1385
  597MOL0     H80572  12.235   3.745   0.814 -2.2735  1.5130  0.7733
  597MOL0     H80573  12.427   3.599   0.773 -0.4238  1.0131 -0.5848
  597MOL0     H80574  12.338   3.450   0.805 -0.1237 -0.4574 -3.0369
  597MOL0     H80575  11.282   4.076   0.741 -1.4513  0.9167 -0.2827
  597MOL0     H80576  11.062   4.099   0.774  0.5335  2.5561  3.5260
  597MOL0     H80577  10.633   3.621   0.851 -0.1818  0.8140 -1.4277
  597MOL0     H80578  10.396   3.620   0.918  1.0753 -0.7235 -3.6976
  597MOL0     H80579   8.657   3.690   0.404  0.4390  0.9300  0.4666
  597MOL0     H80580   8.545   3.655   0.179  1.8905  0.2199 -0.2262
  597MOL0     H80581   8.428   3.729  -0.191  0.2319  0.1013  2.2516
  597MOL0     H80582   8.358   3.660  -0.394  0.7895  0.2395 -1.0623
  597MOL0     H80583   7.926   3.742  -0.456  1.5872  1.1568 -0.0239
  597MOL0     H80584   7.923   3.615  -0.583  2.1403 -1.7685 -0.1245
  597MOL0     H80585   7.963   3.783  -0.703  1.2574 -1.3821 -0.4648
  597MOL0     H80586   8.114   3.726  -0.695 -0.4068 -1.2742  0.9965
  597MOL0     H80587   8.182   3.876  -0.493  2.9401  2.2119 -3.6506
  597MOL0     H80588   8.029   3.966  -0.511  0.3032 -0.4739  1.4501
  597MOL0     H80589   8.217   4.071  -0.587 -0.4968 -0.2683  0.4584
  597MOL0     H80590   8.256   3.957  -0.720  0.8018 -1.2810  0.0802
  597MOL0     H80591   7.921   4.167  -0.890  0.7010  2.7118 -1.3760
  597MOL0     H80592   7.948   3.651  -0.235 -1.2584  2.7830  0.6700
  597MOL0     H80593   7.974   3.609   0.026  0.0900 -0.7252  0.5257
  597MOL0     H80594   8.015   3.746   0.104  0.9758 -1.4605  0.4029
  597MOL0     H80595   7.892   3.763  -0.030  0.4664  0.7139 -1.1329
  598MOL0     O80596   6.147   8.840   1.143  0.2719  0.5440 -0.6861
  598MOL0     C80597   6.157   8.877   1.259 -0.0852 -0.3992 -0.1102
  598MOL0     O80598   6.276   8.914   1.325 -0.3501  0.4571 -0.5983
  598MOL0     C80599   6.389   8.853   1.291  0.3797  0.8862  0.1239
  598MOL0     C80600   6.485   8.915   1.207 -1.0016  0.6928 -0.7241
  598MOL0     C80601   6.598   8.839   1.164  0.5677  0.0002  0.2439
  598MOL0     C80602   6.624   8.707   1.209  0.3904  0.0684  0.5719
  598MOL0     O80603   6.730   8.624   1.184  0.1554  0.1428 -0.1029
  598MOL0     C80604   6.840   8.658   1.104 -0.4842 -0.3457  0.9867
  598MOL0     C80605   6.976   8.625   1.178 -0.0886  0.0194  0.2282
  598MOL0     C80606   6.991   8.474   1.233 -0.6059  0.0545 -0.0151
  598MOL0     C80607   7.125   8.445   1.292 -0.2357  0.1728 -0.2131
  598MOL0     C80608   7.118   8.299   1.333  0.4866 -0.6289 -0.4739
  598MOL0     C80609   7.241   8.270   1.407 -0.3217 -0.2933  1.0327
  598MOL0     C80610   7.249   8.126   1.466 -0.1882 -0.6170  0.1185
  598MOL0     C80611   7.385   8.106   1.520  0.4734  0.5819  0.2858
  598MOL0     N80612   7.398   7.977   1.589 -0.1538 -0.1587  0.1853
  598MOL0     C80613   7.456   7.860   1.544  0.0715  0.5041  0.9340
  598MOL0     C80614   7.498   7.788   1.650  0.1473  0.4049  1.0774
  598MOL0     C80615   7.561   7.653   1.630 -0.5701 -0.2677  0.2340
  598MOL0     C80616   7.533   7.563   1.753 -0.0473  0.5927 -1.0871
  598MOL0     C80617   7.541   7.423   1.682  0.1899 -0.1448 -0.7318
  598MOL0     C80618   7.521   7.298   1.771 -0.2636 -0.3777  0.4083
  598MOL0     O80619   7.616   7.297   1.882 -0.5938  0.0548  0.5594
  598MOL0     C80620   7.745   7.275   1.842 -0.8442 -0.1909 -0.7325
  598MOL0     C80621   7.837   7.290   1.951 -0.7099 -0.3303 -1.2424
  598MOL0     C80622   7.972   7.276   1.926  0.5599 -0.9762  0.4179
  598MOL0     C80623   8.021   7.234   1.796 -0.0639  0.4094 -0.4793
  598MOL0     C80624   8.177   7.204   1.779  1.0258 -0.6441  0.0503
  598MOL0     O80625   8.258   7.287   1.843  0.3631  0.3753 -0.1417
  598MOL0     C80626   8.393   7.277   1.829 -0.4979  0.8979  0.1534
  598MOL0     C80627   8.452   7.313   1.707 -0.3529 -0.1767 -0.3252
  598MOL0     C80628   8.590   7.297   1.679 -0.0407  0.2743  0.5662
  598MOL0     C80629   8.668   7.230   1.782 -0.2324  0.3187  0.5147
  598MOL0     O80630   8.804   7.195   1.782 -0.0403 -0.3393 -0.1076
  598MOL0     C80631   8.879   7.245   1.675  0.2664  0.3507 -0.7588
  598MOL0     C80632   9.028   7.215   1.687 -0.3268 -0.7279  0.6764
  598MOL0     C80633   9.089   7.194   1.547 -0.2481 -0.0552  0.3515
  598MOL0     C80634   9.241   7.201   1.540  0.1209 -0.3302 -0.1786
  598MOL0     C80635   9.297   7.197   1.401  0.0463 -0.1406  0.6380
  598MOL0     C80636   9.440   7.227   1.410 -0.0845 -0.1776  0.7943
  598MOL0     C80637   9.511   7.198   1.275 -1.0888 -0.1131 -0.3819
  598MOL0     C80638   9.657   7.265   1.266  0.2021  0.0285 -0.6165
  598MOL0    Cl80639   9.742   7.218   1.125 -0.3410 -0.4259  0.5082
  598MOL0     C80640   8.606   7.189   1.896 -0.2014  0.2241 -0.2129
  598MOL0     C80641   8.465   7.208   1.920 -0.4200  0.0323 -0.0823
  598MOL0     O80642   8.209   7.116   1.698  0.3680 -0.5071 -0.7323
  598MOL0     C80643   7.933   7.209   1.694 -0.4955  0.7197 -0.6718
  598MOL0     C80644   7.798   7.229   1.717  0.6220 -0.2600 -0.4997
  598MOL0     N80645   7.463   7.864   1.767 -0.8438  0.1415  0.4971
  598MOL0     N80646   7.412   7.973   1.728  0.1523  0.7115  0.7283
  598MOL0     C80647   6.522   8.649   1.292  0.6077 -0.1966  0.1001
  598MOL0     C80648   6.401   8.720   1.330  0.6104 -0.2649 -0.3045
  598MOL0     C80649   6.025   8.916   1.319  0.2212  0.4614  0.3483
  598MOL0     C80650   5.913   8.903   1.238  0.0176 -0.3048 -0.3679
  598MOL0     C80651   5.786   8.937   1.286 -0.0465  0.5133 -0.8357
  598MOL0     C80652   5.759   8.980   1.419 -0.4708 -0.3921 -0.2422
  598MOL0     O80653   5.630   9.004   1.449 -0.0985 -0.4938 -0.1828
  598MOL0     C80654   5.589   8.984   1.583 -1.2844  0.3384  0.3242
  598MOL0     C80655   5.439   8.998   1.603  0.7307 -1.4124  0.4678
  598MOL0     C80656   5.377   9.129   1.535 -0.1549 -0.3420 -0.2582
  598MOL0     C80657   5.230   9.107   1.576 -0.7129  0.1325  0.7407
  598MOL0     C80658   5.140   9.174   1.478  0.0452 -1.0906 -0.0542
  598MOL0     C80659   5.077   9.222   1.387 -1.2230  0.5567  0.1585
  598MOL0     C80660   5.875   8.988   1.501  0.0730 -0.4998 -0.2542
  598MOL0     C80661   6.004   8.967   1.448  0.3327  0.1358 -0.3323
  598MOL0     C80662   6.121   9.001   1.548  0.5131 -0.6987 -0.6678
  598MOL0     H80663   6.465   9.019   1.183 -0.0802  0.5490 -2.2070
  598MOL0     H80664   6.666   8.894   1.099  0.3083 -1.4303 -1.3069
  598MOL0     H80665   6.838   8.591   1.017 -1.2391 -0.5404  1.1508
  598MOL0     H80666   6.838   8.766   1.086 -4.2146 -0.5700 -0.9243
  598MOL0     H80667   6.982   8.691   1.266 -0.3236 -3.4313  3.0519
  598MOL0     H80668   7.059   8.656   1.114  0.8501  0.2258  1.5054
  598MOL0     H80669   6.966   8.400   1.157  0.4158  1.9603 -2.3377
  598MOL0     H80670   6.920   8.466   1.316 -1.4223  0.6786 -0.6382
  598MOL0     H80671   7.202   8.459   1.217  0.0023 -0.0182 -0.0065
  598MOL0     H80672   7.158   8.515   1.370 -0.7543 -2.2752  2.3595
  598MOL0     H80673   7.042   8.291   1.412  1.6247 -0.4555  0.6798
  598MOL0     H80674   7.109   8.229   1.250  2.0803 -0.2367 -1.0099
  598MOL0     H80675   7.319   8.285   1.333 -1.2617 -0.9740 -0.1314
  598MOL0     H80676   7.241   8.335   1.496 -0.7235  0.1084  0.7419
  598MOL0     H80677   7.222   8.048   1.393 -1.3148 -1.2377  1.1731
  598MOL0     H80678   7.191   8.134   1.558  2.0598  1.6002  1.4429
  598MOL0     H80679   7.441   8.097   1.426  0.6528  1.0195  0.3468
  598MOL0     H80680   7.424   8.188   1.581  0.4470  0.9395 -0.1679
  598MOL0     H80681   7.480   7.822   1.445 -3.9557 -4.2400  1.4071
  598MOL0     H80682   7.521   7.614   1.536  0.8398  2.4593 -1.6336
  598MOL0     H80683   7.664   7.674   1.601 -0.9276  0.6716 -0.3803
  598MOL0     H80684   7.608   7.573   1.832 -1.4382  0.9060  0.2419
  598MOL0     H80685   7.432   7.591   1.786  0.7590  1.9942  0.2822
  598MOL0     H80686   7.637   7.410   1.631  0.2828  0.6159 -0.7660
  598MOL0     H80687   7.458   7.423   1.610 -1.3392  0.5276  0.9374
  598MOL0     H80688   7.536   7.207   1.712  0.0891  0.0537 -0.1821
  598MOL0     H80689   7.417   7.293   1.807 -0.3675 -0.0115  0.1585
  598MOL0     H80690   7.801   7.319   2.049  1.3242 -1.4927 -0.0860
  598MOL0     H80691   8.051   7.291   1.999  1.0190  0.7880 -0.3748
  598MOL0     H80692   8.389   7.342   1.623 -2.7454 -2.7635  0.4342
  598MOL0     H80693   8.637   7.321   1.584 -2.8959  3.5879 -0.2430
  598MOL0     H80694   8.849   7.180   1.593  1.1670 -1.8085  0.5254
  598MOL0     H80695   8.863   7.351   1.655  1.0263  0.5872 -0.1870
  598MOL0     H80696   9.074   7.302   1.734 -0.2276 -0.1683 -0.4171
  598MOL0     H80697   9.047   7.126   1.748 -0.7697 -1.3346 -0.0504
  598MOL0     H80698   9.059   7.095   1.512  2.5362 -0.1048 -2.3227
  598MOL0     H80699   9.050   7.272   1.480 -0.6072  1.3505  2.1224
  598MOL0     H80700   9.292   7.117   1.590  1.0329  0.7656  0.7915
  598MOL0     H80701   9.272   7.293   1.590 -1.6845  1.0346 -1.4487
  598MOL0     H80702   9.249   7.276   1.342  1.7595 -0.1596 -0.8527
  598MOL0     H80703   9.270   7.099   1.362 -2.0398  0.6874 -0.1450
  598MOL0     H80704   9.456   7.334   1.430 -1.1350  0.4433 -1.3884
  598MOL0     H80705   9.491   7.177   1.493  1.2659  0.0137  0.1198
  598MOL0     H80706   9.457   7.256   1.200 -0.6760  0.2029 -0.4442
  598MOL0     H80707   9.499   7.091   1.256  2.9092 -0.3605 -2.5804
  598MOL0     H80708   9.658   7.374   1.277 -1.6014  0.1362 -1.2318
  598MOL0     H80709   9.714   7.234   1.354  0.3803 -1.9080 -1.3652
  598MOL0     H80710   8.676   7.154   1.971 -3.4587 -2.1157  2.0196
  598MOL0     H80711   8.415   7.174   2.010 -0.6817  2.0119  0.5678
  598MOL0     H80712   7.968   7.175   1.598  3.4739 -0.6072  1.0358
  598MOL0     H80713   7.731   7.184   1.645 -1.1108 -1.0401  1.4790
  598MOL0     H80714   6.535   8.547   1.327 -2.7395 -0.3888  1.1044
  598MOL0     H80715   6.317   8.680   1.385 -0.9128  0.7092 -1.8378
  598MOL0     H80716   5.911   8.875   1.133 -2.3501 -0.1538 -0.4173
  598MOL0     H80717   5.701   8.932   1.219 -0.0458 -1.7666 -0.7224
  598MOL0     H80718   5.628   9.068   1.642 -1.9635  1.3072 -0.5774
  598MOL0     H80719   5.615   8.882   1.612 -3.5226 -1.0748 -2.2670
  598MOL0     H80720   5.411   8.986   1.708  1.6681 -0.6980  0.8097
  598MOL0     H80721   5.388   8.921   1.544  2.0474  0.4676 -3.4647
  598MOL0     H80722   5.395   9.129   1.427 -1.5094  0.9972 -0.5015
  598MOL0     H80723   5.418   9.221   1.577  0.0574  0.0786 -1.3524
  598MOL0     H80724   5.200   9.003   1.560 -0.7220  0.4047 -1.2837
  598MOL0     H80725   5.203   9.152   1.672 -1.4267 -1.9697  1.5906
  598MOL0     H80726   5.021   9.276   1.313  1.2501  2.6596 -0.3343
  598MOL0     H80727   5.880   9.022   1.604  1.5273  0.5972 -0.6704
  598MOL0     H80728   6.197   8.923   1.558  1.7866  0.2831 -2.1731
  598MOL0     H80729   6.169   9.091   1.510  1.3206 -1.5058 -1.6182
  598MOL0     H80730   6.083   9.016   1.649 -0.0434 -1.9366 -0.6769
  599MOL0     O80731   9.641   6.525  11.067  0.8480  0.4667  0.8688
  599MOL0     C80732   9.604   6.646  11.056  1.2076 -1.0867 -1.2107
  599MOL0     O80733   9.656   6.739  10.976 -0.1679 -0.2730 -0.3632
  599MOL0     C80734   9.760   6.682  10.894  1.1103 -1.4367 -0.4913
  599MOL0     C80735   9.891   6.713  10.938  0.7503 -0.2959  0.9260
  599MOL0     C80736   9.998   6.666  10.859  0.1877 -0.2468 -0.6008
  599MOL0     C80737   9.977   6.573  10.751  1.3221  0.6252 -0.6469
  599MOL0     O80738  10.087   6.523  10.685  0.8161 -0.8498  0.0157
  599MOL0     C80739  10.071   6.443  10.571 -0.1114  0.0680 -0.1542
  599MOL0     C80740  10.216   6.432  10.513  0.2784  0.5288 -0.1424
  599MOL0     C80741  10.239   6.519  10.390 -0.2397  0.3426 -0.6646
  599MOL0     C80742  10.383   6.503  10.335  0.2235  0.1497 -0.7143
  599MOL0     C80743  10.505   6.518  10.426 -0.6487 -0.5023  0.9803
  599MOL0     C80744  10.647   6.521  10.361  0.1551  0.3200  0.8548
  599MOL0     C80745  10.684   6.637  10.265 -0.0147  0.0828  0.5907
  599MOL0     C80746  10.828   6.652  10.237 -0.1623  0.6144  0.9259
  599MOL0     N80747  10.899   6.550  10.154 -0.2360  0.5146 -0.0987
  599MOL0     C80748  10.946   6.424  10.200  0.8149  0.4195 -0.1135
  599MOL0     C80749  11.016   6.367  10.100  0.9565 -0.2397  0.1273
  599MOL0     C80750  11.096   6.240  10.111 -0.0011 -0.2230 -0.3765
  599MOL0     C80751  11.247   6.269  10.127 -0.3507  0.0302  0.3155
  599MOL0     C80752  11.321   6.302   9.994 -1.3089  0.1637 -0.3581
  599MOL0     C80753  11.462   6.349  10.036  0.0995  0.2154  0.0374
  599MOL0     O80754  11.534   6.242  10.097 -0.1309  0.3079 -0.7444
  599MOL0     C80755  11.669   6.271  10.118  0.5817  0.6921 -0.0487
  599MOL0     C80756  11.735   6.388  10.100  0.0409 -0.7391 -0.0337
  599MOL0     C80757  11.880   6.383  10.115 -0.3522 -0.8411 -1.1385
  599MOL0     C80758  11.961   6.276  10.133  0.2144  0.7829 -1.5905
  599MOL0     C80759  12.107   6.284  10.141  1.0718  0.8282  0.4644
  599MOL0     O80760  12.175   6.168  10.155  1.1124  0.2642  0.0900
  599MOL0     C80761  12.303   6.165  10.216  0.0037 -0.1706  0.3776
  599MOL0     C80762  12.393   6.092  10.153 -0.4773  0.1705  0.1307
  599MOL0     C80763  12.528   6.081  10.198  0.5575  0.3007  0.1398
  599MOL0     C80764  12.556   6.129  10.319 -0.6416  0.5024 -0.3815
  599MOL0     O80765  12.681   6.082  10.366 -0.1479  0.2760 -0.1410
  599MOL0     C80766  12.763   6.168  10.445  0.6011  0.2789  0.9175
  599MOL0     C80767  12.881   6.082  10.494  0.2458  0.1581  0.2428
  599MOL0     C80768  12.831   5.960  10.578 -0.0145  0.8646  0.2578
  599MOL0     C80769  12.739   5.999  10.688  0.8856 -0.4075 -0.3567
  599MOL0     C80770  12.741   5.892  10.801  0.9641  0.1793  0.1547
  599MOL0     C80771  12.630   5.937  10.902  0.4778  0.1624  0.6120
  599MOL0     C80772  12.622   5.829  11.017 -0.2056 -0.0886  0.1509
  599MOL0     C80773  12.499   5.811  11.106  0.5505  0.0628  0.7986
  599MOL0    Cl80774  12.350   5.790  11.006  0.1535 -0.2153  0.1260
  599MOL0     C80775  12.466   6.209  10.388  0.5866  0.4320  0.2976
  599MOL0     C80776  12.338   6.232  10.339 -0.6419  0.1426 -0.0575
  599MOL0     O80777  12.150   6.398  10.144  0.4592 -0.3935 -0.4494
  599MOL0     C80778  11.889   6.161  10.155 -0.7357 -0.0989 -0.6251
  599MOL0     C80779  11.748   6.163  10.152 -0.4732  0.2802  0.0554
  599MOL0     N80780  11.015   6.458   9.990  0.6077  0.5133  0.1403
  599MOL0     N80781  10.943   6.565  10.029 -0.1449 -0.2330  0.0104
  599MOL0     C80782   9.841   6.544  10.718 -0.0014 -0.8861  0.1064
  599MOL0     C80783   9.735   6.595  10.788  0.4304  0.3693 -0.3290
  599MOL0     C80784   9.499   6.684  11.153  0.0232 -0.4847 -0.6273
  599MOL0     C80785   9.485   6.817  11.195  0.1517  1.3225 -0.2363
  599MOL0     C80786   9.373   6.864  11.272  0.0853 -0.2945  0.3827
  599MOL0     C80787   9.270   6.775  11.306 -0.7084  0.3223  0.3690
  599MOL0     O80788   9.154   6.815  11.376 -0.5019  0.3566 -0.1231
  599MOL0     C80789   9.095   6.735  11.476  1.2519  0.0458 -0.0593
  599MOL0     C80790   8.972   6.656  11.431 -0.1185 -0.3622 -0.1086
  599MOL0     C80791   8.854   6.730  11.384  0.0686 -0.8082 -0.1887
  599MOL0     C80792   8.750   6.777  11.498 -0.1424 -0.0904 -1.0799
  599MOL0     C80793   8.633   6.830  11.433 -0.2854  0.3918  0.6390
  599MOL0     C80794   8.527   6.860  11.392 -0.2449 -0.9275  0.0730
  599MOL0     C80795   9.289   6.639  11.261  0.4026  0.3842  0.4444
  599MOL0     C80796   9.398   6.592  11.192 -0.3740 -0.1848 -0.1684
  599MOL0     C80797   9.386   6.452  11.134  0.5716 -0.2052 -0.7502
  599MOL0     H80798   9.910   6.770  11.028  3.0910 -1.1333  1.0294
  599MOL0     H80799  10.095   6.705  10.888 -0.6074  1.9648 -0.6503
  599MOL0     H80800  10.037   6.343  10.600  1.5488  0.5364  3.9964
  599MOL0     H80801  10.008   6.491  10.495  0.0371  0.7748  0.1660
  599MOL0     H80802  10.222   6.328  10.479  0.2504  1.3959 -3.1092
  599MOL0     H80803  10.295   6.456  10.585  1.0747 -2.8092  0.2775
  599MOL0     H80804  10.241   6.623  10.424 -0.2531 -0.6792  2.7709
  599MOL0     H80805  10.164   6.509  10.310 -1.8139  0.1013  0.7969
  599MOL0     H80806  10.411   6.419  10.271  0.8343  1.2763 -1.9674
  599MOL0     H80807  10.388   6.578  10.256  4.7929  0.6372 -0.1869
  599MOL0     H80808  10.506   6.618  10.470  1.0201  1.5643 -3.2016
  599MOL0     H80809  10.509   6.429  10.490  2.0971 -2.0145 -1.0676
  599MOL0     H80810  10.716   6.514  10.446 -1.8535  1.7149  2.6978
  599MOL0     H80811  10.657   6.426  10.307  0.6140  0.4622  0.6829
  599MOL0     H80812  10.647   6.733  10.304 -1.0367 -0.3791  0.8003
  599MOL0     H80813  10.637   6.616  10.169  1.6508  0.5455 -0.3554
  599MOL0     H80814  10.843   6.752  10.195  0.6685  1.0006  2.0727
  599MOL0     H80815  10.872   6.655  10.337  1.5415 -3.7805  0.5434
  599MOL0     H80816  10.922   6.369  10.290  1.3710 -0.4618 -0.4961
  599MOL0     H80817  11.049   6.195  10.199 -0.1754  1.5377  0.4700
  599MOL0     H80818  11.082   6.180  10.021  2.1997  0.5939 -1.3293
  599MOL0     H80819  11.252   6.349  10.202 -1.3885  2.4957 -2.0557
  599MOL0     H80820  11.285   6.181  10.180 -1.4626 -1.8634 -1.8817
  599MOL0     H80821  11.269   6.375   9.931 -0.6457 -1.8064 -3.4016
  599MOL0     H80822  11.333   6.212   9.933  1.3213 -1.1724  1.9099
  599MOL0     H80823  11.457   6.436  10.101 -0.6866  0.1809  0.0298
  599MOL0     H80824  11.515   6.385   9.947  0.7063  1.3667  0.8302
  599MOL0     H80825  11.695   6.486  10.074 -0.9417 -0.1200  3.3314
  599MOL0     H80826  11.923   6.483  10.113  0.0003 -0.6142  4.0803
  599MOL0     H80827  12.362   6.044  10.060 -1.6415  0.4658  0.3488
  599MOL0     H80828  12.602   6.019  10.148  0.8363  0.4654  0.3486
  599MOL0     H80829  12.796   6.257  10.389 -2.1098  1.3478  0.8906
  599MOL0     H80830  12.706   6.195  10.534 -0.8349 -0.3413  0.2198
  599MOL0     H80831  12.929   6.047  10.402  0.6672 -0.1186  0.5643
  599MOL0     H80832  12.954   6.139  10.552 -1.7415  0.8198  2.2340
  599MOL0     H80833  12.807   5.872  10.518  1.8563 -0.2002  0.9988
  599MOL0     H80834  12.918   5.937  10.639  2.3346  0.9863 -2.8243
  599MOL0     H80835  12.639   6.015  10.646  0.1991  1.9806  1.8926
  599MOL0     H80836  12.787   6.078  10.747  1.8115 -1.5264  0.4332
  599MOL0     H80837  12.840   5.878  10.846  0.0672 -3.1342  1.3394
  599MOL0     H80838  12.728   5.799  10.746 -0.1801  1.6026 -2.1671
  599MOL0     H80839  12.640   6.037  10.946 -0.5707 -0.4221  2.2805
  599MOL0     H80840  12.536   5.938  10.847  1.0888 -2.3370 -0.5954
  599MOL0     H80841  12.709   5.834  11.082  0.3534 -3.1968 -0.2057
  599MOL0     H80842  12.620   5.737  10.957  1.1804  0.3771 -0.6494
  599MOL0     H80843  12.513   5.731  11.179  0.2022  0.2983  1.1224
  599MOL0     H80844  12.467   5.895  11.168  1.0137  0.1857  0.8741
  599MOL0     H80845  12.495   6.248  10.485  2.7768 -4.3144  1.8689
  599MOL0     H80846  12.260   6.287  10.389 -1.3128  0.8092 -1.7627
  599MOL0     H80847  11.943   6.073  10.189  2.5475  1.4959 -1.2875
  599MOL0     H80848  11.696   6.070  10.174  2.8940 -1.9814 -0.8575
  599MOL0     H80849   9.820   6.472  10.640 -2.9535 -1.2474  1.1198
  599MOL0     H80850   9.633   6.575  10.758 -0.3743  3.2782  0.1747
  599MOL0     H80851   9.548   6.900  11.164  0.4527  1.7595  1.4240
  599MOL0     H80852   9.343   6.962  11.307 -0.5676 -0.9720  1.8102
  599MOL0     H80853   9.061   6.803  11.555  2.0543  1.4634 -0.8942
  599MOL0     H80854   9.167   6.665  11.518 -0.4991 -3.2162 -2.0944
  599MOL0     H80855   8.935   6.607  11.522  0.3596  0.6200  0.6302
  599MOL0     H80856   9.008   6.586  11.355  1.2213 -0.6121  0.7214
  599MOL0     H80857   8.801   6.662  11.318  0.1932 -1.0594 -0.0314
  599MOL0     H80858   8.895   6.817  11.331  0.4672  1.8253  3.9461
  599MOL0     H80859   8.718   6.697  11.566  0.7642  1.6965  1.6010
  599MOL0     H80860   8.781   6.855  11.567 -3.1086  0.6930 -0.5231
  599MOL0     H80861   8.431   6.889  11.355  0.1743  3.1495  1.7193
  599MOL0     H80862   9.212   6.562  11.265  1.0964 -0.3436 -0.0212
  599MOL0     H80863   9.290   6.406  11.158 -0.7147  2.0509 -1.2220
  599MOL0     H80864   9.406   6.444  11.027 -0.2983 -0.5463 -0.8961
  599MOL0     H80865   9.458   6.383  11.179 -0.5775 -1.7035 -1.1631
  600MOL0     O80866   5.102   9.111   3.044 -0.4108  0.3762 -0.0582
  600MOL0     C80867   5.169   9.071   3.140  0.0211  0.0149 -0.4776
  600MOL0     O80868   5.144   8.943   3.192 -0.3699 -0.2099 -0.1684
  600MOL0     C80869   5.081   8.837   3.126  0.1364  0.6231 -0.3622
  600MOL0     C80870   4.991   8.762   3.195  1.1477 -0.1186 -0.3280
  600MOL0     C80871   4.923   8.652   3.137  0.1002 -0.1727 -0.6946
  600MOL0     C80872   4.956   8.606   3.010 -0.0334  0.0828 -0.0652
  600MOL0     O80873   4.904   8.490   2.946 -0.1814 -0.2664  0.3883
  600MOL0     C80874   4.832   8.396   3.025  0.4510 -0.0664 -0.6074
  600MOL0     C80875   4.909   8.323   3.143 -0.6385  0.0615 -0.6098
  600MOL0     C80876   5.039   8.239   3.097 -0.6112 -0.7220  0.0425
  600MOL0     C80877   4.991   8.134   3.008 -0.6483 -0.1254  0.6664
  600MOL0     C80878   5.095   8.023   2.984  0.1608 -0.0505 -0.5551
  600MOL0     C80879   5.036   7.917   2.891  0.7106 -0.5156 -0.6549
  600MOL0     C80880   5.129   7.861   2.784  0.7150 -0.0873 -0.4784
  600MOL0     C80881   5.248   7.790   2.844 -0.3434 -0.2716 -0.5649
  600MOL0     N80882   5.331   7.719   2.751  0.0532  1.2698 -0.1385
  600MOL0     C80883   5.311   7.592   2.702 -0.1694  0.4361  0.8051
  600MOL0     C80884   5.410   7.557   2.616  0.3844 -0.2674  0.9511
  600MOL0     C80885   5.462   7.441   2.547 -0.4919 -0.2398  1.1867
  600MOL0     C80886   5.546   7.363   2.639  0.4866  0.2694  0.1508
  600MOL0     C80887   5.463   7.268   2.726  0.0604  0.2051 -0.1027
  600MOL0     C80888   5.550   7.217   2.840 -0.4175  0.1127  0.1078
  600MOL0     O80889   5.468   7.136   2.920 -0.0273  0.4702 -0.6669
  600MOL0     C80890   5.527   7.030   2.985  0.1635 -0.4936  0.5875
  600MOL0     C80891   5.448   6.924   3.038  0.0559 -0.3552  0.9884
  600MOL0     C80892   5.509   6.811   3.092 -0.3893 -0.7684 -0.5110
  600MOL0     C80893   5.655   6.796   3.112 -0.7677  0.3024  0.0417
  600MOL0     C80894   5.725   6.690   3.172  0.2032  0.5619  0.7301
  600MOL0     O80895   5.654   6.604   3.240 -0.1732  0.4042  0.3192
  600MOL0     C80896   5.708   6.500   3.312  0.5337 -0.0569 -0.5940
  600MOL0     C80897   5.765   6.391   3.253 -0.2573 -0.5552 -0.1565
  600MOL0     C80898   5.817   6.283   3.316  0.8306 -0.3128 -0.1764
  600MOL0     C80899   5.784   6.260   3.445  0.6465 -0.8761 -0.4876
  600MOL0     O80900   5.824   6.133   3.497 -0.1331  0.3948  0.0745
  600MOL0     C80901   5.777   6.098   3.630  0.8532  0.4594  1.1080
  600MOL0     C80902   5.842   5.975   3.693 -0.1154  0.1326 -0.5440
  600MOL0     C80903   5.750   5.899   3.787  0.5551  0.4474  0.6882
  600MOL0     C80904   5.716   5.967   3.916  0.3528  0.7119 -0.6756
  600MOL0     C80905   5.662   5.872   4.021  0.2915  0.2974 -0.5723
  600MOL0     C80906   5.535   5.926   4.095  0.1253 -0.4933  0.4876
  600MOL0     C80907   5.473   5.816   4.187  0.1490 -0.2989 -0.5511
  600MOL0     C80908   5.320   5.832   4.207  0.3599 -0.5758  0.3528
  600MOL0    Cl80909   5.266   5.714   4.338  0.1809  0.0255  0.2555
  600MOL0     C80910   5.720   6.370   3.521 -0.0237  0.6694 -0.5925
  600MOL0     C80911   5.676   6.488   3.451 -0.3080  0.0534  0.7866
  600MOL0     O80912   5.844   6.686   3.164  1.1596  0.1797 -0.5140
  600MOL0     C80913   5.729   6.906   3.069 -0.6745 -0.0654 -0.4755
  600MOL0     C80914   5.667   7.020   3.004  0.1581 -0.7267 -0.3000
  600MOL0     N80915   5.485   7.674   2.617  0.4055 -0.5041  0.4001
  600MOL0     N80916   5.438   7.769   2.688 -0.3093  0.1948  0.3952
  600MOL0     C80917   5.047   8.682   2.936 -0.5295 -0.5370 -1.3386
  600MOL0     C80918   5.105   8.797   2.993  0.3364  0.5305 -0.6338
  600MOL0     C80919   5.287   9.140   3.199  0.0231  0.4845  0.8966
  600MOL0     C80920   5.404   9.070   3.215 -0.7152 -0.8970  0.0024
  600MOL0     C80921   5.503   9.119   3.295 -0.8596 -0.5365 -0.3316
  600MOL0     C80922   5.503   9.252   3.342 -0.3906 -0.2936 -0.1860
  600MOL0     O80923   5.609   9.317   3.403  0.5477  0.2391  0.9768
  600MOL0     C80924   5.742   9.262   3.380  0.4909  0.4105 -0.4159
  600MOL0     C80925   5.809   9.188   3.499 -1.0203 -0.5972 -0.6008
  600MOL0     C80926   5.765   9.260   3.637  0.1357  0.3354  0.5112
  600MOL0     C80927   5.788   9.408   3.641 -0.0680 -0.6256  1.0467
  600MOL0     C80928   5.794   9.457   3.780  0.5331 -0.1072  0.0401
  600MOL0     C80929   5.808   9.508   3.891 -1.0514  0.2815  0.2078
  600MOL0     C80930   5.385   9.323   3.317 -0.4338 -0.7262 -0.4326
  600MOL0     C80931   5.271   9.268   3.252 -0.3274  0.1566 -0.8124
  600MOL0     C80932   5.143   9.348   3.230  0.8495 -1.0235 -0.2275
  600MOL0     H80933   4.970   8.804   3.293 -0.7204  0.9222 -1.1158
  600MOL0     H80934   4.847   8.600   3.195 -1.4228  0.2736 -2.1846
  600MOL0     H80935   4.740   8.441   3.065 -1.7757  0.1088 -5.2290
  600MOL0     H80936   4.788   8.321   2.959 -2.1240  0.3241  0.5125
  600MOL0     H80937   4.842   8.257   3.198  0.6033 -1.1234 -0.4690
  600MOL0     H80938   4.942   8.399   3.215 -1.8637  0.8076 -0.8022
  600MOL0     H80939   5.098   8.205   3.182 -1.2479  0.3973  0.9726
  600MOL0     H80940   5.106   8.307   3.044  0.4249  0.0127  2.1833
  600MOL0     H80941   4.903   8.083   3.047 -1.4184 -0.3322 -1.2317
  600MOL0     H80942   4.968   8.177   2.910  0.8050 -2.5934 -0.8781
  600MOL0     H80943   5.191   8.054   2.941  1.5275 -3.6873 -0.4678
  600MOL0     H80944   5.121   7.973   3.078  2.0258  0.8865 -0.5240
  600MOL0     H80945   4.996   7.842   2.959  1.8821 -0.0150  0.6476
  600MOL0     H80946   4.952   7.951   2.829 -1.7713 -2.0333  1.6874
  600MOL0     H80947   5.154   7.939   2.712  0.0287  0.8212  0.2405
  600MOL0     H80948   5.071   7.788   2.727 -2.1879  2.6885 -1.3788
  600MOL0     H80949   5.303   7.870   2.897 -1.2481  0.4934 -0.7603
  600MOL0     H80950   5.212   7.720   2.920 -0.6373 -1.6798 -1.9527
  600MOL0     H80951   5.242   7.526   2.753  0.7384  0.1761  1.7180
  600MOL0     H80952   5.388   7.376   2.499  0.8629 -0.7336 -0.3245
  600MOL0     H80953   5.532   7.466   2.467 -1.0523 -0.3930  0.6414
  600MOL0     H80954   5.605   7.294   2.578 -0.3297 -0.3967  0.1012
  600MOL0     H80955   5.611   7.425   2.701 -1.3831  1.0973  1.3673
  600MOL0     H80956   5.416   7.180   2.680 -0.6908  0.5782 -0.0720
  600MOL0     H80957   5.379   7.313   2.781  0.4110 -1.6960  2.1691
  600MOL0     H80958   5.595   7.299   2.897 -3.0855  1.3910  0.5373
  600MOL0     H80959   5.632   7.160   2.796  0.7452  1.5696  0.2895
  600MOL0     H80960   5.341   6.933   3.023  0.4325  0.2229 -1.7806
  600MOL0     H80961   5.454   6.726   3.131 -0.1658 -0.4157  0.6361
  600MOL0     H80962   5.783   6.397   3.146 -2.1082  1.1187 -0.4415
  600MOL0     H80963   5.872   6.207   3.262  2.3279  1.0969 -0.6796
  600MOL0     H80964   5.790   6.181   3.700  0.9482  1.0986  0.3535
  600MOL0     H80965   5.670   6.083   3.614  1.1777 -0.4072 -0.5121
  600MOL0     H80966   5.874   5.896   3.624  0.7571 -0.6238  0.6726
  600MOL0     H80967   5.935   6.003   3.743 -2.2574  1.6942  2.9197
  600MOL0     H80968   5.653   5.874   3.744 -1.2858  4.1762  2.2357
  600MOL0     H80969   5.800   5.805   3.813 -0.7981  0.0211  1.8844
  600MOL0     H80970   5.657   6.056   3.892 -2.7624 -1.5426 -2.1422
  600MOL0     H80971   5.811   6.009   3.950  0.7789 -1.3598  0.9761
  600MOL0     H80972   5.737   5.845   4.096  0.1954  4.4412  1.2818
  600MOL0     H80973   5.628   5.779   3.974  2.9585 -0.8391 -0.4193
  600MOL0     H80974   5.540   6.018   4.153 -0.7945 -1.6353  2.5091
  600MOL0     H80975   5.459   5.945   4.019 -0.1805  2.1418  1.3658
  600MOL0     H80976   5.524   5.809   4.284 -0.9012 -0.8935 -0.0193
  600MOL0     H80977   5.496   5.717   4.146  0.0843 -0.1069 -1.0468
  600MOL0     H80978   5.292   5.935   4.230 -1.6939 -1.2923  1.3249
  600MOL0     H80979   5.265   5.802   4.118 -4.6321  2.6817  1.9175
  600MOL0     H80980   5.697   6.355   3.626 -2.6209 -1.6681 -1.3603
  600MOL0     H80981   5.616   6.564   3.500 -1.4066 -0.8810  0.9450
  600MOL0     H80982   5.836   6.909   3.083 -0.9752  2.4955  2.3085
  600MOL0     H80983   5.741   7.095   2.978  0.0761 -0.2798  0.7029
  600MOL0     H80984   5.080   8.648   2.838  0.0794 -1.7905 -0.7156
  600MOL0     H80985   5.175   8.851   2.929 -0.4574 -2.0069 -3.9241
  600MOL0     H80986   5.414   8.975   3.163 -0.0478 -1.2723  0.7883
  600MOL0     H80987   5.583   9.048   3.316  0.5005  0.6470 -1.3676
  600MOL0     H80988   5.795   9.358   3.382  3.7881 -1.2712 -0.2956
  600MOL0     H80989   5.763   9.212   3.285  0.1582  1.9128 -1.3123
  600MOL0     H80990   5.916   9.200   3.484 -0.8140 -0.6837  0.6924
  600MOL0     H80991   5.791   9.080   3.505  3.4181 -1.6081 -2.0026
  600MOL0     H80992   5.810   9.209   3.723  0.8671  2.7429  1.6704
  600MOL0     H80993   5.662   9.230   3.656  0.3031 -0.5849  0.0492
  600MOL0     H80994   5.883   9.423   3.588 -1.3083 -2.3605 -1.8628
  600MOL0     H80995   5.707   9.464   3.594  0.3902 -1.9589 -1.4735
  600MOL0     H80996   5.813   9.543   3.992 -2.3795 -0.9780  0.7388
  600MOL0     H80997   5.394   9.422   3.361  5.5138 -2.1329  2.5522
  600MOL0     H80998   5.157   9.416   3.145 -0.6776  0.1201  0.3913
  600MOL0     H80999   5.045   9.300   3.225 -2.4388  4.6365  0.7291
  600MOL0     H81000   5.140   9.411   3.319 -2.2070 -1.9070  0.4090
  601MOL0     O81001   4.580   8.284   1.481  0.2074 -0.5575  0.3161
  601MOL0     C81002   4.605   8.335   1.370 -0.2426 -0.6362  0.8830
  601MOL0     O81003   4.724   8.325   1.305 -0.1521  0.5430 -0.0009
  601MOL0     C81004   4.841   8.270   1.346 -0.8092  0.1481  0.1159
  601MOL0     C81005   4.916   8.318   1.449  0.7396  1.0597 -0.1667
  601MOL0     C81006   5.019   8.245   1.511 -0.6707  0.6535  0.4574
  601MOL0     C81007   5.063   8.124   1.460 -0.5764 -0.5429  0.8359
  601MOL0     O81008   5.165   8.062   1.515 -1.2135  0.5951 -0.5695
  601MOL0     C81009   5.254   7.985   1.426 -0.1058  0.3078 -0.4494
  601MOL0     C81010   5.378   7.959   1.513  0.2903 -0.7380  0.2648
  601MOL0     C81011   5.485   7.871   1.452  0.1358 -0.1857 -0.4892
  601MOL0     C81012   5.602   7.833   1.541 -0.3509  0.3683  0.0524
  601MOL0     C81013   5.561   7.743   1.657 -0.1778 -0.3565  0.4357
  601MOL0     C81014   5.654   7.621   1.699  0.5054 -0.7718 -0.9458
  601MOL0     C81015   5.793   7.666   1.733 -0.2135  0.3354  0.4688
  601MOL0     C81016   5.866   7.540   1.772 -0.2899 -0.0251 -0.4352
  601MOL0     N81017   6.013   7.556   1.750 -0.6341  0.5114 -0.3244
  601MOL0     C81018   6.072   7.484   1.657 -0.2025  0.3219 -0.0188
  601MOL0     C81019   6.201   7.522   1.665  0.0258 -0.0916 -0.2401
  601MOL0     C81020   6.298   7.460   1.577  0.2583  0.1088  0.2074
  601MOL0     C81021   6.352   7.335   1.653 -0.5947 -0.1926 -0.1403
  601MOL0     C81022   6.474   7.273   1.580 -0.4089 -0.8654 -1.0545
  601MOL0     C81023   6.591   7.374   1.597  0.1392 -0.2893  0.5223
  601MOL0     O81024   6.713   7.318   1.547  0.6718  0.0694  0.3182
  601MOL0     C81025   6.795   7.233   1.621 -0.0641  0.2402 -0.1517
  601MOL0     C81026   6.758   7.148   1.731 -0.0323 -0.2310  0.5605
  601MOL0     C81027   6.861   7.077   1.792 -0.0419 -0.5251 -0.0088
  601MOL0     C81028   6.992   7.070   1.739  0.0635 -0.3272  0.4487
  601MOL0     C81029   7.101   6.987   1.809  0.0417 -0.2661 -0.7727
  601MOL0     O81030   7.227   7.032   1.788 -0.6976 -0.0819  0.5423
  601MOL0     C81031   7.323   6.974   1.868 -0.5655 -0.6852  0.7812
  601MOL0     C81032   7.346   7.019   1.994  0.0951 -0.0932 -0.6451
  601MOL0     C81033   7.443   6.964   2.080  0.5652  0.2160  0.1504
  601MOL0     C81034   7.520   6.860   2.035 -0.0549  0.3606 -0.0270
  601MOL0     O81035   7.624   6.801   2.109  0.1948 -0.1083  0.0728
  601MOL0     C81036   7.738   6.888   2.139  0.0450 -0.2166  0.7050
  601MOL0     C81037   7.810   6.917   2.007 -0.4040  0.1997 -1.3505
  601MOL0     C81038   7.868   6.787   1.943 -0.1750  0.2868 -0.7609
  601MOL0     C81039   8.000   6.806   1.876 -0.7833 -0.2307  0.3396
  601MOL0     C81040   8.044   6.677   1.800  0.6128  0.3288  0.2461
  601MOL0     C81041   8.188   6.694   1.740 -0.6968 -0.2200 -0.5000
  601MOL0     C81042   8.258   6.557   1.703 -0.4702 -0.1192  0.6303
  601MOL0     C81043   8.173   6.473   1.614  0.9701  0.4896  0.9327
  601MOL0    Cl81044   8.238   6.305   1.571 -0.2653 -0.0012 -0.2707
  601MOL0     C81045   7.491   6.804   1.909  0.2655  0.7328 -0.0783
  601MOL0     C81046   7.399   6.868   1.819  0.3838  0.8132  0.2065
  601MOL0     O81047   7.062   6.887   1.873 -0.0227  0.6337 -0.7598
  601MOL0     C81048   7.018   7.146   1.624  0.3339 -0.2929 -0.0146
  601MOL0     C81049   6.919   7.225   1.559 -0.3623  0.0148  0.4791
  601MOL0     N81050   6.218   7.620   1.761  0.0853 -0.1841  0.0052
  601MOL0     N81051   6.104   7.641   1.811  0.9139 -0.3893  0.5920
  601MOL0     C81052   5.010   8.086   1.336 -0.0796 -0.6137  0.1948
  601MOL0     C81053   4.897   8.156   1.288  0.5457 -0.2134  0.0276
  601MOL0     C81054   4.505   8.422   1.307 -1.1508 -0.0964 -1.0653
  601MOL0     C81055   4.538   8.518   1.206  0.3094  0.0432 -0.9476
  601MOL0     C81056   4.450   8.613   1.156  0.3536 -0.5001  1.5423
  601MOL0     C81057   4.318   8.617   1.197 -0.9734  0.3258  1.2296
  601MOL0     O81058   4.233   8.705   1.140  0.0457 -0.0186 -0.2702
  601MOL0     C81059   4.269   8.841   1.115  1.1170 -0.1912 -0.3063
  601MOL0     C81060   4.150   8.917   1.046 -0.3729  0.6117 -0.0065
  601MOL0     C81061   4.027   8.945   1.142 -0.6915  0.0754 -0.1393
  601MOL0     C81062   3.909   9.008   1.063 -0.5525  0.5508 -0.4225
  601MOL0     C81063   3.954   9.137   1.003  0.2649  0.3700  0.7567
  601MOL0     C81064   3.974   9.238   0.934 -0.2745 -0.5241  0.4664
  601MOL0     C81065   4.282   8.513   1.279  0.4209 -0.4469 -0.3021
  601MOL0     C81066   4.366   8.422   1.336  0.0467 -0.6713  0.1956
  601MOL0     C81067   4.295   8.337   1.435 -0.7449 -0.9352  0.5822
  601MOL0     H81068   4.886   8.411   1.495  0.0000  0.7370  0.0219
  601MOL0     H81069   5.072   8.291   1.594 -0.1337  0.7382  0.0741
  601MOL0     H81070   5.214   7.884   1.409  0.9950  0.0986 -1.9493
  601MOL0     H81071   5.286   8.035   1.335 -1.7286  1.4392 -0.4543
  601MOL0     H81072   5.344   7.917   1.608 -2.5411 -0.0746 -0.3459
  601MOL0     H81073   5.425   8.055   1.537  1.6322 -1.4664  0.6138
  601MOL0     H81074   5.531   7.913   1.362  3.7805 -1.7382  0.4620
  601MOL0     H81075   5.434   7.778   1.423 -0.3168  0.3951 -1.6277
  601MOL0     H81076   5.678   7.787   1.478 -1.8386  1.0759 -2.4143
  601MOL0     H81077   5.655   7.921   1.580 -1.1418  1.6422 -1.6357
  601MOL0     H81078   5.546   7.806   1.745 -2.7575 -2.0764  1.3173
  601MOL0     H81079   5.464   7.703   1.627 -0.4812  1.6164 -1.4578
  601MOL0     H81080   5.609   7.569   1.784  3.2786 -2.1846 -0.2257
  601MOL0     H81081   5.666   7.549   1.618 -1.2711 -2.9167  0.5634
  601MOL0     H81082   5.781   7.745   1.807 -0.0923  2.1762 -1.3992
  601MOL0     H81083   5.818   7.720   1.642 -0.7998 -2.8839 -1.7744
  601MOL0     H81084   5.839   7.522   1.876 -4.3804 -2.2525 -1.6831
  601MOL0     H81085   5.833   7.449   1.720 -1.7157  0.4706 -0.4316
  601MOL0     H81086   6.023   7.406   1.599  0.0539 -0.3683  0.6677
  601MOL0     H81087   6.244   7.443   1.484  1.3532  1.5565 -0.7177
  601MOL0     H81088   6.377   7.531   1.551  1.1727 -1.4323 -1.3926
  601MOL0     H81089   6.382   7.341   1.758  2.7593 -0.1704 -0.9725
  601MOL0     H81090   6.279   7.254   1.648  0.2779 -1.1472  1.5595
  601MOL0     H81091   6.455   7.247   1.475 -2.8553 -1.2823 -0.5724
  601MOL0     H81092   6.495   7.180   1.633 -2.1812 -0.5492  0.3012
  601MOL0     H81093   6.594   7.394   1.705  0.6697 -0.8820  0.6268
  601MOL0     H81094   6.580   7.465   1.538  2.3255 -1.2105 -1.4851
  601MOL0     H81095   6.660   7.139   1.775 -0.5765  0.5012 -0.4572
  601MOL0     H81096   6.833   7.022   1.881  1.8206  0.5690  1.3191
  601MOL0     H81097   7.283   7.096   2.037  1.5979  0.5913  0.4215
  601MOL0     H81098   7.437   6.991   2.185  3.3239  0.4669  0.3303
  601MOL0     H81099   7.714   6.982   2.191  2.0450  0.5946  0.2617
  601MOL0     H81100   7.795   6.824   2.206 -0.5471 -0.2697  1.1717
  601MOL0     H81101   7.751   6.958   1.924  0.2552  0.3252 -1.7665
  601MOL0     H81102   7.885   6.994   2.027  1.6508 -2.3370  1.8085
  601MOL0     H81103   7.873   6.705   2.016  1.2430  0.5350 -0.5450
  601MOL0     H81104   7.788   6.759   1.874 -2.9036  2.3379  1.3224
  601MOL0     H81105   8.082   6.838   1.941 -0.5858  0.8627 -0.4057
  601MOL0     H81106   7.984   6.890   1.807  3.4631  2.1884  1.8873
  601MOL0     H81107   7.976   6.641   1.722  3.3012 -0.4349 -1.9023
  601MOL0     H81108   8.054   6.600   1.877  1.2057 -0.3656 -0.5038
  601MOL0     H81109   8.174   6.749   1.647 -2.0018 -1.8423 -1.3260
  601MOL0     H81110   8.251   6.756   1.803  0.1139 -2.1086  0.6308
  601MOL0     H81111   8.305   6.501   1.785 -0.6179 -1.8351 -0.4069
  601MOL0     H81112   8.344   6.596   1.649 -0.5964  2.6637  2.2710
  601MOL0     H81113   8.071   6.464   1.651  0.6526  1.9185  0.4716
  601MOL0     H81114   8.152   6.529   1.522 -0.8242 -0.0638  0.9621
  601MOL0     H81115   7.542   6.714   1.876 -1.6026  0.3846 -2.2781
  601MOL0     H81116   7.378   6.843   1.716 -1.0792  1.6510  0.2714
  601MOL0     H81117   7.116   7.133   1.580  0.0086 -1.5561 -0.3991
  601MOL0     H81118   6.938   7.286   1.471 -1.3653 -1.4573 -0.8134
  601MOL0     H81119   5.053   8.000   1.284 -2.5989  0.2625 -3.7818
  601MOL0     H81120   4.846   8.106   1.206 -1.3038 -0.2530  1.1516
  601MOL0     H81121   4.638   8.524   1.166  2.0256 -1.7055  2.5946
  601MOL0     H81122   4.486   8.675   1.074 -3.0948 -0.8521 -0.4399
  601MOL0     H81123   4.358   8.845   1.052  1.3573 -1.5387 -0.0849
  601MOL0     H81124   4.301   8.899   1.201  3.2801 -1.3471 -0.2641
  601MOL0     H81125   4.116   8.856   0.962 -2.0366  1.0857  0.2779
  601MOL0     H81126   4.192   9.010   1.009  1.2194  0.1749  0.6422
  601MOL0     H81127   4.069   9.022   1.208  1.0438 -3.2455  2.9824
  601MOL0     H81128   4.001   8.860   1.206  1.6195  0.2134  1.1144
  601MOL0     H81129   3.876   8.943   0.982  2.1006  0.5219 -1.6015
  601MOL0     H81130   3.824   9.036   1.126  1.5822  0.8228  2.5412
  601MOL0     H81131   4.003   9.333   0.894  0.8965 -0.2822  1.7858
  601MOL0     H81132   4.177   8.501   1.304  0.1442 -0.5107 -1.4579
  601MOL0     H81133   4.331   8.367   1.534  2.8627 -2.1141 -0.2210
  601MOL0     H81134   4.189   8.355   1.454 -0.6064 -1.9449  2.6243
  601MOL0     H81135   4.306   8.230   1.414  0.6866 -0.7116  0.0782
  602MOL0     O81136  10.419  10.700   7.389  0.3890 -0.8120  0.0846
  602MOL0     C81137  10.494  10.609   7.368  0.1360 -0.4277  0.0989
  602MOL0     O81138  10.461  10.479   7.348  0.2697 -0.2294  0.0230
  602MOL0     C81139  10.322  10.461   7.327 -0.6770  0.3403 -0.1555
  602MOL0     C81140  10.260  10.369   7.417  0.4719 -0.1633 -0.1832
  602MOL0     C81141  10.124  10.334   7.407 -0.0148 -0.7448 -0.2171
  602MOL0     C81142  10.047  10.395   7.308  0.0869  0.1228 -0.3427
  602MOL0     O81143   9.916  10.359   7.299  0.5358  0.2699 -0.1456
  602MOL0     C81144   9.826  10.454   7.254  0.1237 -0.5410 -0.4547
  602MOL0     C81145   9.703  10.366   7.239 -0.6211  0.3669  0.1338
  602MOL0     C81146   9.573  10.427   7.205  0.1655  0.2911 -0.0821
  602MOL0     C81147   9.455  10.335   7.247 -0.2629 -0.0737  0.3997
  602MOL0     C81148   9.317  10.398   7.219  0.2328 -0.5202  0.0411
  602MOL0     C81149   9.277  10.419   7.077 -0.1398  0.6604 -0.0284
  602MOL0     C81150   9.135  10.472   7.040 -0.7499  0.3285  1.0842
  602MOL0     C81151   9.135  10.507   6.889 -0.6767  0.5243 -0.7447
  602MOL0     N81152   8.989  10.514   6.854 -0.1252  0.4329 -0.3316
  602MOL0     C81153   8.919  10.625   6.818  0.8263 -0.0077 -0.7859
  602MOL0     C81154   8.790  10.585   6.813 -0.1588 -0.4765  0.5215
  602MOL0     C81155   8.682  10.685   6.771 -0.8190  0.1842 -0.8525
  602MOL0     C81156   8.589  10.641   6.662 -0.2026  0.1571  0.2671
  602MOL0     C81157   8.665  10.635   6.531  0.4368 -0.2275 -0.7220
  602MOL0     C81158   8.584  10.635   6.402  0.2835 -0.2837 -0.5279
  602MOL0     O81159   8.545  10.763   6.343 -0.2363  0.3540 -0.7553
  602MOL0     C81160   8.451  10.765   6.240  1.1004 -1.3322 -0.4095
  602MOL0     C81161   8.412  10.891   6.205 -0.8248  0.0176  0.2757
  602MOL0     C81162   8.313  10.909   6.111 -0.4833  0.3564 -0.4639
  602MOL0     C81163   8.255  10.806   6.042 -1.2143 -0.1408  0.2057
  602MOL0     C81164   8.150  10.811   5.935 -0.6793  0.6215  0.2559
  602MOL0     O81165   8.073  10.700   5.918 -0.4432  0.2389  0.3973
  602MOL0     C81166   7.949  10.707   5.860  0.0258 -0.1381  0.5853
  602MOL0     C81167   7.896  10.596   5.791  0.6973  0.3186  0.8500
  602MOL0     C81168   7.768  10.599   5.736  0.3756 -0.0624  0.5610
  602MOL0     C81169   7.684  10.716   5.752 -1.1642  0.1077 -0.2128
  602MOL0     O81170   7.572  10.740   5.689  0.4069  0.5239  0.6417
  602MOL0     C81171   7.488  10.632   5.661  0.8175 -0.1990 -0.1772
  602MOL0     C81172   7.348  10.679   5.621 -0.2311  0.1711 -0.1954
  602MOL0     C81173   7.269  10.570   5.557  0.0055 -0.4588 -0.3052
  602MOL0     C81174   7.246  10.446   5.647  0.1881 -0.2385  0.1552
  602MOL0     C81175   7.141  10.351   5.575  0.0016  0.5544  0.3878
  602MOL0     C81176   7.118  10.236   5.677 -0.0588 -0.0114  0.5757
  602MOL0     C81177   6.995  10.156   5.641  0.7060  0.0905  0.3543
  602MOL0     C81178   6.944  10.074   5.757 -0.1642  1.0605  0.2994
  602MOL0    Cl81179   7.073   9.986   5.831  0.1987  0.2507 -0.2271
  602MOL0     C81180   7.735  10.827   5.824 -0.7388  0.6342  0.4521
  602MOL0     C81181   7.862  10.815   5.885 -1.1382  0.5117 -1.1520
  602MOL0     O81182   8.133  10.918   5.879 -0.5422 -0.1117  0.2270
  602MOL0     C81183   8.308  10.676   6.081  0.3823 -0.6446  0.4339
  602MOL0     C81184   8.407  10.650   6.171 -0.2882 -0.6005 -0.3836
  602MOL0     N81185   8.779  10.446   6.823 -0.2532  0.4796 -0.7160
  602MOL0     N81186   8.909  10.412   6.844 -0.5623  0.1895 -0.1210
  602MOL0     C81187  10.110  10.486   7.215 -0.9022 -0.0904 -0.1207
  602MOL0     C81188  10.245  10.518   7.223 -0.9086 -0.3056 -0.1988
  602MOL0     C81189  10.634  10.642   7.361  0.9374  0.8669  0.1024
  602MOL0     C81190  10.670  10.776   7.338 -0.4214  1.1458 -0.4987
  602MOL0     C81191  10.801  10.814   7.311 -0.0395 -0.5523  1.9445
  602MOL0     C81192  10.900  10.721   7.312  0.4895 -0.7592  0.0410
  602MOL0     O81193  11.031  10.759   7.290 -0.2388  0.3045 -0.4150
  602MOL0     C81194  11.079  10.817   7.412 -0.8555 -0.8119 -0.3633
  602MOL0     C81195  11.205  10.906   7.388  0.8076  0.6280  0.2722
  602MOL0     C81196  11.246  10.968   7.521  0.6727 -0.2750  0.4370
  602MOL0     C81197  11.355  11.076   7.510 -0.5785  0.5890  0.1803
  602MOL0     C81198  11.472  11.032   7.436 -0.0522  0.7092  0.0279
  602MOL0     C81199  11.570  10.987   7.392  0.1875  0.1757 -0.3304
  602MOL0     C81200  10.868  10.591   7.329  0.4240  0.2632 -0.5105
  602MOL0     C81201  10.732  10.541   7.354 -0.8020  0.4824 -0.7733
  602MOL0     C81202  10.730  10.390   7.386 -0.6226  0.5278  0.0965
  602MOL0     H81203  10.326  10.326   7.491 -1.2714 -1.7583  0.5193
  602MOL0     H81204  10.072  10.285   7.489  0.6696  1.0725  1.3814
  602MOL0     H81205   9.808  10.535   7.326 -5.0692  1.9973 -3.9678
  602MOL0     H81206   9.862  10.503   7.164 -0.5105 -1.2815 -1.1225
  602MOL0     H81207   9.694  10.311   7.333  0.5683  0.0328  0.0670
  602MOL0     H81208   9.723  10.285   7.169  1.3004  0.5015  0.4691
  602MOL0     H81209   9.558  10.439   7.097 -1.5876 -0.0049  0.1008
  602MOL0     H81210   9.556  10.525   7.250 -1.2046  0.0447  0.0020
  602MOL0     H81211   9.447  10.239   7.194 -2.1992 -0.6194  1.6038
  602MOL0     H81212   9.456  10.318   7.355  1.5706 -2.2250  0.1330
  602MOL0     H81213   9.235  10.335   7.254 -0.6767  1.1073  0.9682
  602MOL0     H81214   9.305  10.485   7.284 -2.3164 -2.1777  1.9654
  602MOL0     H81215   9.355  10.485   7.037  1.3505  1.9031  4.3502
  602MOL0     H81216   9.284  10.328   7.017 -1.6844  0.8115 -0.4747
  602MOL0     H81217   9.114  10.562   7.097  1.1940 -0.7028  3.6193
  602MOL0     H81218   9.056  10.398   7.057 -2.1242  1.3084 -0.7285
  602MOL0     H81219   9.186  10.600   6.862  2.0025  0.1988  2.5945
  602MOL0     H81220   9.186  10.429   6.832 -0.7779  1.9163 -2.8588
  602MOL0     H81221   8.961  10.724   6.806  0.7264  0.2490  0.8561
  602MOL0     H81222   8.615  10.711   6.854 -3.9184  0.0631 -3.1671
  602MOL0     H81223   8.725  10.778   6.733  0.6353 -0.6219 -1.2511
  602MOL0     H81224   8.542  10.545   6.687 -2.4010  0.7957 -1.1596
  602MOL0     H81225   8.511  10.715   6.643 -0.1915 -0.3726 -2.1930
  602MOL0     H81226   8.725  10.545   6.544  0.8805  0.3226  1.6629
  602MOL0     H81227   8.740  10.712   6.513 -0.6222  1.1439  0.4511
  602MOL0     H81228   8.489  10.586   6.421  0.2809 -0.3981 -0.8292
  602MOL0     H81229   8.643  10.578   6.329 -0.0972 -0.8604 -0.3885
  602MOL0     H81230   8.461  10.977   6.249 -1.6691 -0.2447  1.7836
  602MOL0     H81231   8.269  11.008   6.101 -3.0130 -0.7360 -0.8942
  602MOL0     H81232   7.969  10.518   5.775 -1.8544 -1.6992 -2.2596
  602MOL0     H81233   7.743  10.519   5.668 -3.2881  1.6832 -0.4187
  602MOL0     H81234   7.525  10.567   5.580 -1.8233 -2.6217  0.3780
  602MOL0     H81235   7.481  10.566   5.748  2.2642 -2.4491 -1.6500
  602MOL0     H81236   7.305  10.724   5.711  0.9005  1.9446 -0.4683
  602MOL0     H81237   7.366  10.762   5.551 -1.2112 -0.2961 -1.0297
  602MOL0     H81238   7.179  10.628   5.538 -0.1480 -1.1671 -1.8403
  602MOL0     H81239   7.314  10.554   5.459  1.4284  1.9208 -0.1012
  602MOL0     H81240   7.204  10.476   5.743  1.5114  0.6823  0.4793
  602MOL0     H81241   7.344  10.399   5.650  0.8229  1.0729  1.1138
  602MOL0     H81242   7.185  10.313   5.482  0.2171 -0.7748  1.0060
  602MOL0     H81243   7.049  10.406   5.555 -2.3919 -2.8150  1.2630
  602MOL0     H81244   7.201  10.165   5.669  1.1107  1.3868 -0.5659
  602MOL0     H81245   7.113  10.274   5.780 -1.1648 -1.4596  1.0792
  602MOL0     H81246   7.026  10.089   5.560 -1.9342  0.2578 -0.9108
  602MOL0     H81247   6.919  10.224   5.601  0.1120  1.2811  3.2589
  602MOL0     H81248   6.890  10.122   5.839 -1.8589  0.9641 -0.7031
  602MOL0     H81249   6.879  10.001   5.709  0.7234 -0.0656  0.7866
  602MOL0     H81250   7.658  10.905   5.823 -2.1380 -0.6743 -1.6408
  602MOL0     H81251   7.904  10.888   5.953 -0.9189 -1.6481  1.1906
  602MOL0     H81252   8.270  10.586   6.034 -1.6431  0.1629  0.4007
  602MOL0     H81253   8.445  10.551   6.195 -0.7920 -0.7207 -0.0630
  602MOL0     H81254  10.049  10.528   7.136 -0.8611 -0.7779 -0.5295
  602MOL0     H81255  10.291  10.592   7.160 -0.7700 -1.6767 -1.7791
  602MOL0     H81256  10.594  10.853   7.321 -0.8990  0.4186 -1.7333
  602MOL0     H81257  10.822  10.920   7.304 -1.8157 -0.1599  2.0411
  602MOL0     H81258  11.112  10.738   7.481  2.0741 -1.8043 -2.7120
  602MOL0     H81259  10.999  10.874   7.462 -2.2158 -0.5122 -2.7430
  602MOL0     H81260  11.180  10.987   7.319 -3.8521 -0.3682  0.4657
  602MOL0     H81261  11.283  10.843   7.345  1.2406  0.3448  1.4323
  602MOL0     H81262  11.287  10.892   7.588  0.3281  0.8557  2.0086
  602MOL0     H81263  11.162  11.015   7.573 -0.0890 -1.7817  0.6185
  602MOL0     H81264  11.309  11.160   7.456 -3.9326  0.5250  2.6232
  602MOL0     H81265  11.381  11.117   7.608  2.9439  1.2316 -0.8631
  602MOL0     H81266  11.651  10.932   7.349 -1.9719 -2.7694 -0.9558
  602MOL0     H81267  10.956  10.528   7.320  0.6084  0.2071  1.2607
  602MOL0     H81268  10.714  10.339   7.290 -1.6384  0.2985  0.3756
  602MOL0     H81269  10.823  10.367   7.437  0.7594 -0.1182 -2.5063
  602MOL0     H81270  10.652  10.350   7.452  2.0271 -2.6345  1.6236
  603MOL0     O81271   0.746   1.432   9.613 -0.2205  0.6885 -0.9686
  603MOL0     C81272   0.716   1.472   9.725  0.4056 -0.2272 -0.1925
  603MOL0     O81273   0.780   1.433   9.843  0.5592 -0.2037 -0.3659
  603MOL0     C81274   0.903   1.373   9.840  0.4571 -0.7780  0.3089
  603MOL0     C81275   0.900   1.232   9.821  0.2335 -0.3182  0.3869
  603MOL0     C81276   1.022   1.170   9.812 -0.7711  0.1470 -0.5939
  603MOL0     C81277   1.150   1.232   9.809 -1.0160 -0.4309  0.2396
  603MOL0     O81278   1.281   1.175   9.787  0.6443  0.4850  0.2171
  603MOL0     C81279   1.377   1.213   9.887  0.0467 -0.1579  0.2301
  603MOL0     C81280   1.483   1.117   9.938 -0.9951 -0.6341 -0.6251
  603MOL0     C81281   1.539   1.019   9.818  0.3396  0.1468 -0.5950
  603MOL0     C81282   1.629   0.914   9.886  0.3419 -0.5920  0.4335
  603MOL0     C81283   1.671   0.802   9.792  0.4375  0.6341  0.4681
  603MOL0     C81284   1.740   0.683   9.862 -0.2446 -0.2947 -0.5137
  603MOL0     C81285   1.812   0.598   9.759 -0.2145 -1.0294 -0.9873
  603MOL0     C81286   1.863   0.462   9.805  0.5369  0.2489 -0.4478
  603MOL0     N81287   2.000   0.468   9.867 -0.8385  0.0784  0.2337
  603MOL0     C81288   2.085   0.368   9.893  0.3147  0.9567  0.4655
  603MOL0     C81289   2.150   0.397  10.001 -0.6840 -0.1164 -0.6107
  603MOL0     C81290   2.246   0.311  10.081  0.3957  0.4932 -0.9818
  603MOL0     C81291   2.387   0.330  10.030  0.0209  0.3568  0.0136
  603MOL0     C81292   2.493   0.266  10.114 -0.1563 -0.1529  0.2858
  603MOL0     C81293   2.613   0.359  10.135  0.0998 -0.0107  0.4284
  603MOL0     O81294   2.694   0.359  10.012 -0.3453  0.6790 -0.4429
  603MOL0     C81295   2.830   0.359  10.031  0.5533 -0.5459  0.5350
  603MOL0     C81296   2.905   0.243  10.054 -0.2795  0.6676 -0.3038
  603MOL0     C81297   3.043   0.241  10.079 -0.2107  0.2343 -0.3302
  603MOL0     C81298   3.106   0.370  10.086 -0.4245  0.5943 -0.6394
  603MOL0     C81299   3.248   0.377  10.113  0.1679  0.3487 -0.0314
  603MOL0     O81300   3.305   0.491  10.160  0.1231 -0.5760 -0.1034
  603MOL0     C81301   3.441   0.516  10.153 -0.2323  0.2741  0.4318
  603MOL0     C81302   3.501   0.607  10.242  0.4118  0.2810  0.2678
  603MOL0     C81303   3.644   0.619  10.245  0.1909 -0.5860  0.4431
  603MOL0     C81304   3.722   0.554  10.148 -0.1708 -0.3033  0.1645
  603MOL0     O81305   3.862   0.554  10.174  0.2602 -0.3169  0.8778
  603MOL0     C81306   3.918   0.424  10.136  0.3935 -0.4810 -0.3029
  603MOL0     C81307   4.062   0.412  10.195  0.3589 -0.4480  1.0780
  603MOL0     C81308   4.150   0.341  10.091 -1.0839  0.0551 -0.0167
  603MOL0     C81309   4.291   0.320  10.134 -0.0651 -0.5718 -0.1803
  603MOL0     C81310   4.360   0.252  10.020 -0.7978 -0.0079  0.4898
  603MOL0     C81311   4.511   0.236  10.041  0.2831  0.1572  1.1710
  603MOL0     C81312   4.554   0.138  10.162  0.4679 -0.1334 -0.6092
  603MOL0     C81313   4.586  -0.009  10.128 -0.0412 -0.2309  0.6657
  603MOL0    Cl81314   4.647  -0.071  10.285  0.1565  0.3355 -0.1752
  603MOL0     C81315   3.657   0.483  10.044  0.0614  0.1785  1.0897
  603MOL0     C81316   3.517   0.467  10.049  0.1485 -0.0886 -0.6158
  603MOL0     O81317   3.303   0.265  10.102  0.4668 -0.2979  0.6817
  603MOL0     C81318   3.041   0.491  10.070  0.1655 -0.3511 -0.4031
  603MOL0     C81319   2.903   0.475  10.040 -0.3148  0.0493  0.5082
  603MOL0     N81320   2.117   0.530  10.028 -0.4658  0.0931  0.0198
  603MOL0     N81321   2.021   0.563   9.956  0.2493  0.0781 -0.3120
  603MOL0     C81322   1.146   1.366   9.830  0.4454 -0.1263  0.3246
  603MOL0     C81323   1.027   1.439   9.841  0.1540  0.3600  0.5951
  603MOL0     C81324   0.597   1.555   9.740  0.2280  0.2021  0.2978
  603MOL0     C81325   0.506   1.522   9.832  0.2332 -0.0527  0.3912
  603MOL0     C81326   0.397   1.599   9.860 -0.7448 -0.8048 -0.5028
  603MOL0     C81327   0.368   1.711   9.784 -0.6122 -0.2946 -0.1715
  603MOL0     O81328   0.252   1.778   9.803  0.1826 -0.1571  0.9050
  603MOL0     C81329   0.220   1.884   9.711  0.8602 -0.1153  0.2831
  603MOL0     C81330   0.078   1.916   9.739 -0.1079 -0.6826  0.0167
  603MOL0     C81331  -0.042   1.819   9.695 -1.3237  0.6070 -1.0267
  603MOL0     C81332  -0.030   1.674   9.724 -0.1790 -0.1976 -0.6431
  603MOL0     C81333  -0.063   1.639   9.864  0.5721 -0.3728 -0.7824
  603MOL0     C81334  -0.111   1.618   9.969  1.0113  0.5060  0.3190
  603MOL0     C81335   0.458   1.744   9.682  0.0385  0.1274 -0.2023
  603MOL0     C81336   0.572   1.672   9.658 -0.0425  0.2683 -1.2868
  603MOL0     C81337   0.652   1.735   9.539  0.2103  0.4459  0.0318
  603MOL0     H81338   0.805   1.182   9.806  0.2659  0.1780 -1.9076
  603MOL0     H81339   1.017   1.062   9.806 -1.5038  0.0111  1.7511
  603MOL0     H81340   1.434   1.292   9.837 -0.7480 -0.1280 -0.6555
  603MOL0     H81341   1.326   1.257   9.973 -0.3403 -0.0987 -0.0299
  603MOL0     H81342   1.444   1.060  10.023  0.1362 -1.5394 -0.7020
  603MOL0     H81343   1.565   1.171   9.986 -0.2446 -1.5372 -0.8726
  603MOL0     H81344   1.594   1.081   9.746  2.6714 -0.0023  0.9360
  603MOL0     H81345   1.458   0.967   9.765 -1.1551 -0.4260  2.1010
  603MOL0     H81346   1.720   0.962   9.923 -0.0865 -0.0484  0.7796
  603MOL0     H81347   1.573   0.877   9.973 -0.3105  1.6032  1.0054
  603MOL0     H81348   1.583   0.773   9.735 -1.3853  4.7183  0.8515
  603MOL0     H81349   1.741   0.844   9.718  0.9930 -1.3527 -0.1862
  603MOL0     H81350   1.813   0.729   9.929 -2.7413  1.0391  1.4465
  603MOL0     H81351   1.669   0.636   9.930  1.0073  1.4959  2.2093
  603MOL0     H81352   1.890   0.658   9.711  0.9723 -0.1849  1.8263
  603MOL0     H81353   1.750   0.575   9.672 -0.1461 -1.0454 -1.0316
  603MOL0     H81354   1.794   0.423   9.882  0.5637 -3.6683 -2.1666
  603MOL0     H81355   1.853   0.386   9.727 -2.1313 -0.3907  0.4108
  603MOL0     H81356   2.076   0.271   9.845 -2.9857  1.7345 -0.7692
  603MOL0     H81357   2.249   0.320  10.189  2.9719  0.0704 -0.9455
  603MOL0     H81358   2.219   0.205  10.068 -1.5545  0.8347 -0.0273
  603MOL0     H81359   2.396   0.287   9.930 -2.5290  1.8376 -0.9563
  603MOL0     H81360   2.408   0.437  10.027 -1.1410  0.6254  0.9372
  603MOL0     H81361   2.541   0.178  10.069  1.2142  1.0212 -0.6449
  603MOL0     H81362   2.452   0.221  10.205  1.5682 -3.7271 -0.5214
  603MOL0     H81363   2.674   0.313  10.213 -0.0709  1.0175  1.1947
  603MOL0     H81364   2.588   0.463  10.158  2.0351  0.5382  0.2176
  603MOL0     H81365   2.856   0.146  10.062 -0.2028  0.6074 -0.5431
  603MOL0     H81366   3.092   0.144  10.089 -1.0276 -0.2432 -0.7959
  603MOL0     H81367   3.432   0.641  10.319  2.2950 -0.4758  2.4077
  603MOL0     H81368   3.692   0.671  10.327  0.7542 -1.1559  0.4787
  603MOL0     H81369   3.855   0.338  10.159  0.8041 -1.7402 -3.4068
  603MOL0     H81370   3.928   0.412  10.028 -1.4079 -0.4207 -0.5091
  603MOL0     H81371   4.104   0.510  10.220  4.1363 -0.6768 -3.1248
  603MOL0     H81372   4.062   0.351  10.286  2.1219  0.7747  1.9621
  603MOL0     H81373   4.114   0.243  10.060 -1.6325 -0.0011  0.7786
  603MOL0     H81374   4.152   0.413  10.009  1.0709  1.9691  1.5751
  603MOL0     H81375   4.299   0.258  10.224  1.9290 -1.1025 -0.6672
  603MOL0     H81376   4.339   0.413  10.164 -2.7000  0.8688 -0.1178
  603MOL0     H81377   4.357   0.321   9.935 -0.0580 -0.0405  0.4291
  603MOL0     H81378   4.311   0.155  10.009  0.3730 -1.0332  3.4348
  603MOL0     H81379   4.546   0.196   9.945  0.7728  2.0536  0.5194
  603MOL0     H81380   4.556   0.335  10.050  3.1096 -1.0662  1.3344
  603MOL0     H81381   4.481   0.144  10.243  2.0459  0.2233  0.8362
  603MOL0     H81382   4.648   0.174  10.203 -1.8884  4.1618  1.7678
  603MOL0     H81383   4.500  -0.056  10.080 -0.2580  0.1704  0.6645
  603MOL0     H81384   4.666   0.006  10.055  0.7477  2.2385  1.9416
  603MOL0     H81385   3.708   0.429   9.964 -2.4209 -0.7351  0.0406
  603MOL0     H81386   3.469   0.421   9.963  1.1931 -1.2689 -0.5887
  603MOL0     H81387   3.082   0.591  10.060 -2.8514  1.0451  0.1362
  603MOL0     H81388   2.854   0.567  10.010  0.1652  0.9522  2.3024
  603MOL0     H81389   1.237   1.423   9.846  0.2748 -0.0355  1.0108
  603MOL0     H81390   1.013   1.543   9.867  0.4485 -0.5134  4.9055
  603MOL0     H81391   0.523   1.441   9.902 -0.4986  1.4432  2.4324
  603MOL0     H81392   0.338   1.578   9.949  1.9523 -0.4958  1.4891
  603MOL0     H81393   0.247   1.836   9.616  2.2736 -1.1464  1.1592
  603MOL0     H81394   0.283   1.973   9.719  0.9026 -0.3158  2.8695
  603MOL0     H81395   0.051   2.009   9.688  2.8121 -1.1680 -2.7750
  603MOL0     H81396   0.057   1.929   9.845  1.7601 -1.5529  0.5392
  603MOL0     H81397  -0.063   1.833   9.589 -2.8692  0.5645 -0.7416
  603MOL0     H81398  -0.131   1.852   9.749 -0.5613  0.2724  0.5082
  603MOL0     H81399  -0.108   1.627   9.664 -0.1207 -1.0311 -0.0858
  603MOL0     H81400   0.063   1.636   9.681  1.7497  1.8940  1.3695
  603MOL0     H81401  -0.150   1.601  10.067  3.3643  1.3982  1.4752
  603MOL0     H81402   0.450   1.842   9.635 -1.2994  1.5419  2.6647
  603MOL0     H81403   0.574   1.750   9.463  0.1043 -0.8586 -0.1323
  603MOL0     H81404   0.706   1.825   9.569 -0.7150  1.5551 -1.4680
  603MOL0     H81405   0.725   1.662   9.505  2.7668  1.5281  2.8084
  604MOL0     O81406  10.378   5.346   1.342 -0.2898 -0.4666 -0.3539
  604MOL0     C81407  10.501   5.332   1.317 -0.0267  0.4241 -0.7147
  604MOL0     O81408  10.571   5.223   1.351  0.0382  0.3634  0.4554
  604MOL0     C81409  10.520   5.119   1.428 -0.4437  0.0107 -0.2572
  604MOL0     C81410  10.477   5.013   1.343 -0.7915  0.0794 -0.3668
  604MOL0     C81411  10.418   4.902   1.403  1.0104 -0.2779 -0.2819
  604MOL0     C81412  10.394   4.903   1.544 -1.0441 -0.1429 -0.0133
  604MOL0     O81413  10.331   4.796   1.585  0.2962  0.2055  0.3107
  604MOL0     C81414  10.371   4.747   1.712  0.9445 -0.1027  0.1071
  604MOL0     C81415  10.391   4.595   1.689  0.5366  0.0265 -0.9101
  604MOL0     C81416  10.456   4.561   1.557 -0.0019 -0.5930  0.1058
  604MOL0     C81417  10.487   4.409   1.540  0.2498 -0.7393  0.0924
  604MOL0     C81418  10.553   4.383   1.404  0.2356  0.8878 -0.2774
  604MOL0     C81419  10.580   4.235   1.376  1.0350  0.3543  0.8332
  604MOL0     C81420  10.611   4.206   1.222 -0.6807 -0.0246 -0.9023
  604MOL0     C81421  10.723   4.307   1.163 -0.2571  1.0361 -0.1913
  604MOL0     N81422  10.854   4.273   1.218  0.1378 -0.6283  0.0248
  604MOL0     C81423  10.928   4.160   1.199  0.2096  0.2844 -1.1866
  604MOL0     C81424  11.001   4.154   1.311 -0.1835 -0.0773 -1.1148
  604MOL0     C81425  11.111   4.050   1.356 -0.3208 -0.6082 -0.5775
  604MOL0     C81426  11.254   4.077   1.308 -0.2746 -0.1293  0.0340
  604MOL0     C81427  11.338   4.179   1.379 -0.2316 -0.1200 -0.9078
  604MOL0     C81428  11.464   4.206   1.298 -0.3649  0.6047 -0.3019
  604MOL0     O81429  11.564   4.287   1.369  0.6008 -0.3603 -0.5870
  604MOL0     C81430  11.691   4.295   1.313  0.4922 -0.2934  0.0723
  604MOL0     C81431  11.786   4.322   1.404  0.2802  0.1152  1.1879
  604MOL0     C81432  11.921   4.295   1.369  0.7412  0.1076 -0.3494
  604MOL0     C81433  11.964   4.262   1.241 -0.0143  0.2639  0.1153
  604MOL0     C81434  12.107   4.236   1.206 -0.1741 -0.3200 -0.4417
  604MOL0     O81435  12.126   4.179   1.079 -0.1642  0.1746 -0.8449
  604MOL0     C81436  12.246   4.177   1.015  0.0695 -0.2557 -0.0189
  604MOL0     C81437  12.246   4.196   0.873 -0.4665  1.3880 -0.0599
  604MOL0     C81438  12.364   4.201   0.800 -0.2885 -0.2574  0.7754
  604MOL0     C81439  12.484   4.188   0.870 -0.0971 -1.0712  0.8301
  604MOL0     O81440  12.594   4.193   0.786 -0.0475 -0.3240 -1.5057
  604MOL0     C81441  12.724   4.185   0.844  0.3115  0.0278 -0.3328
  604MOL0     C81442  12.764   4.038   0.849  1.1361  0.5767 -0.6313
  604MOL0     C81443  12.908   4.038   0.922  0.4951  0.9724  0.2429
  604MOL0     C81444  12.975   3.898   0.954 -1.8425 -0.1712  0.0293
  604MOL0     C81445  12.921   3.838   1.077 -0.6761  0.7584 -0.2839
  604MOL0     C81446  12.983   3.701   1.113 -1.0764 -0.2444 -0.1286
  604MOL0     C81447  13.130   3.702   1.128  0.0091  0.0405 -0.3206
  604MOL0     C81448  13.178   3.567   1.161  0.6845  0.3438  0.2331
  604MOL0    Cl81449  13.356   3.562   1.175  0.1219  0.4219 -0.1316
  604MOL0     C81450  12.486   4.150   1.005 -0.0951 -0.9282  0.4422
  604MOL0     C81451  12.366   4.151   1.079 -0.7245  1.2541 -0.7127
  604MOL0     O81452  12.195   4.281   1.272 -0.9081  0.9591 -0.0570
  604MOL0     C81453  11.862   4.258   1.144  0.0405  0.9604 -0.7903
  604MOL0     C81454  11.725   4.268   1.178 -0.3919 -0.4783  0.1681
  604MOL0     N81455  10.990   4.275   1.389  0.0961  1.4773  0.7051
  604MOL0     N81456  10.903   4.345   1.322 -0.4191 -1.2610  0.0332
  604MOL0     C81457  10.433   5.011   1.630 -0.8724 -1.4432 -0.4983
  604MOL0     C81458  10.509   5.117   1.568 -0.0066  0.3267 -0.9957
  604MOL0     C81459  10.573   5.450   1.242  0.0387  0.5350 -0.3535
  604MOL0     C81460  10.502   5.573   1.236  0.7839  0.5656 -0.3943
  604MOL0     C81461  10.558   5.684   1.171  0.6884 -0.1204 -0.2797
  604MOL0     C81462  10.682   5.677   1.103 -0.3869  1.5094  0.6762
  604MOL0     O81463  10.726   5.790   1.040 -0.3748 -0.0697 -0.3790
  604MOL0     C81464  10.798   5.787   0.916 -0.2301  0.4128  0.4028
  604MOL0     C81465  10.903   5.890   0.917  0.4313 -0.2807  0.1634
  604MOL0     C81466  11.042   5.823   0.932  0.0990  0.1231 -0.1674
  604MOL0     C81467  11.150   5.930   0.963 -0.2678 -0.0931 -0.1354
  604MOL0     C81468  11.277   5.869   0.983  0.2662 -0.7061  0.3748
  604MOL0     C81469  11.389   5.820   0.994 -0.0816 -0.2043 -0.1696
  604MOL0     C81470  10.743   5.549   1.113 -0.4358  0.5417 -0.9175
  604MOL0     C81471  10.690   5.442   1.170 -0.4460  0.6098  0.2181
  604MOL0     C81472  10.784   5.318   1.166  0.1874  0.8853  0.2731
  604MOL0     H81473  10.479   5.025   1.235 -0.3411  1.2897 -0.2405
  604MOL0     H81474  10.368   4.819   1.356 -0.5562 -0.9140  2.3406
  604MOL0     H81475  10.462   4.788   1.756  1.6267 -1.0163 -0.4004
  604MOL0     H81476  10.288   4.764   1.781  1.4333 -1.8255  1.1945
  604MOL0     H81477  10.293   4.548   1.703  0.7316  0.1510  1.2171
  604MOL0     H81478  10.447   4.556   1.775 -1.5266 -0.9334  0.0782
  604MOL0     H81479  10.549   4.618   1.548 -0.1651 -0.4973 -1.1880
  604MOL0     H81480  10.393   4.596   1.475  2.5345  0.2389 -1.6024
  604MOL0     H81481  10.549   4.376   1.624 -2.4625  2.0891  3.5068
  604MOL0     H81482  10.393   4.352   1.539  1.0828 -2.1704 -0.9494
  604MOL0     H81483  10.485   4.424   1.328 -0.1374  0.2420 -0.2944
  604MOL0     H81484  10.648   4.435   1.413 -0.9816  2.8118  3.2865
  604MOL0     H81485  10.668   4.210   1.435  1.2184  1.1882  0.9236
  604MOL0     H81486  10.491   4.176   1.402  0.9345  0.7229  1.3233
  604MOL0     H81487  10.524   4.224   1.158 -0.5907 -0.0202 -1.0244
  604MOL0     H81488  10.653   4.106   1.210  0.3991  0.4248 -1.0130
  604MOL0     H81489  10.736   4.306   1.055  0.1103  2.1015 -0.1742
  604MOL0     H81490  10.696   4.412   1.182  1.8169  2.1626 -2.7614
  604MOL0     H81491  10.922   4.086   1.120  1.3234 -1.3952  0.2401
  604MOL0     H81492  11.107   4.055   1.465  1.9717 -0.0551 -0.4643
  604MOL0     H81493  11.089   3.946   1.332  0.6138 -0.6608 -1.2774
  604MOL0     H81494  11.310   3.984   1.316 -2.2577 -1.5670 -1.7737
  604MOL0     H81495  11.250   4.099   1.201  0.8630 -0.1037 -0.0155
  604MOL0     H81496  11.356   4.152   1.484  3.0490 -1.7853 -1.7527
  604MOL0     H81497  11.286   4.274   1.364  0.9008  0.3456 -2.0677
  604MOL0     H81498  11.439   4.252   1.202 -0.9719  0.9424  0.0150
  604MOL0     H81499  11.505   4.108   1.272 -0.0769  1.0866 -1.7656
  604MOL0     H81500  11.773   4.357   1.506  1.2626  1.5045  0.8726
  604MOL0     H81501  11.991   4.314   1.450 -0.8427 -0.0438  1.0883
  604MOL0     H81502  12.155   4.181   0.816 -0.5779  2.3462 -0.1510
  604MOL0     H81503  12.360   4.221   0.694 -0.4786 -0.5264  0.7333
  604MOL0     H81504  12.795   4.231   0.776 -0.3901  2.1958  0.2989
  604MOL0     H81505  12.735   4.231   0.943 -1.7053 -0.1788  0.0296
  604MOL0     H81506  12.700   3.980   0.916 -1.2674  0.0099 -3.2793
  604MOL0     H81507  12.791   3.996   0.752  0.3447 -1.7896  0.1005
  604MOL0     H81508  12.987   4.090   0.868  2.5145 -1.4091  0.7569
  604MOL0     H81509  12.894   4.097   1.014 -4.3948 -1.6485  1.5322
  604MOL0     H81510  13.082   3.914   0.974 -1.7838  2.6562 -2.0273
  604MOL0     H81511  12.966   3.829   0.869 -0.6975 -2.6711  1.7909
  604MOL0     H81512  12.815   3.819   1.058  0.1081 -0.0018 -5.5113
  604MOL0     H81513  12.942   3.897   1.166 -2.0093  2.0588 -0.8007
  604MOL0     H81514  12.935   3.672   1.207 -1.2891  0.0339 -0.1480
  604MOL0     H81515  12.947   3.634   1.035 -5.0173  1.4653 -0.0051
  604MOL0     H81516  13.161   3.765   1.212 -1.2553  1.5628 -0.9380
  604MOL0     H81517  13.177   3.727   1.032  0.3494 -2.6230 -0.9295
  604MOL0     H81518  13.140   3.541   1.261  0.2505 -2.3291 -0.5385
  604MOL0     H81519  13.145   3.497   1.084 -1.3479  2.9457 -1.4544
  604MOL0     H81520  12.581   4.118   1.047  1.3826  0.9265 -1.2782
  604MOL0     H81521  12.366   4.119   1.183 -0.5895  1.7041 -0.5717
  604MOL0     H81522  11.893   4.226   1.045  0.2140  3.6963 -1.7040
  604MOL0     H81523  11.651   4.247   1.102  0.7214 -0.7850 -0.8643
  604MOL0     H81524  10.432   5.015   1.738  4.4669 -0.1065 -0.2131
  604MOL0     H81525  10.532   5.206   1.625 -1.6669 -0.2065  0.5896
  604MOL0     H81526  10.403   5.581   1.280  0.8365 -0.3591 -0.0796
  604MOL0     H81527  10.500   5.776   1.167  1.1652  0.1427 -2.0313
  604MOL0     H81528  10.726   5.812   0.838 -0.6867 -2.6900 -0.3040
  604MOL0     H81529  10.836   5.687   0.895  0.7149  0.3900  2.0618
  604MOL0     H81530  10.887   5.957   1.001 -0.6071 -0.3182  0.0055
  604MOL0     H81531  10.898   5.950   0.826  0.9804 -1.4094 -0.6387
  604MOL0     H81532  11.084   5.764   0.850  0.9501  1.8307 -1.0210
  604MOL0     H81533  11.042   5.750   1.013 -0.3334 -1.0657 -1.2147
  604MOL0     H81534  11.155   5.987   0.869 -1.4315 -0.9190 -0.7225
  604MOL0     H81535  11.118   6.000   1.040  0.0287 -0.0056 -0.0884
  604MOL0     H81536  11.488   5.781   1.000  0.4928  1.2295 -0.0133
  604MOL0     H81537  10.843   5.544   1.070 -0.3567  1.7897 -0.9048
  604MOL0     H81538  10.773   5.260   1.258  1.5564  2.0196  1.2003
  604MOL0     H81539  10.749   5.247   1.091  2.8174 -1.3668  1.0200
  604MOL0     H81540  10.888   5.334   1.135 -0.1564  0.7387 -1.0158
  605MOL0     O81541   1.901   9.510   2.641  0.3700 -0.5819 -0.4044
  605MOL0     C81542   1.825   9.532   2.544 -0.4011 -0.6924 -0.3758
  605MOL0     O81543   1.858   9.506   2.415  0.1915  0.4790 -0.9794
  605MOL0     C81544   1.986   9.461   2.405 -0.5383 -0.7879 -0.2149
  605MOL0     C81545   2.020   9.330   2.436  0.5610 -0.7596 -0.6621
  605MOL0     C81546   2.151   9.298   2.423 -0.8883 -0.0794 -0.2630
  605MOL0     C81547   2.255   9.388   2.369  1.0677 -0.9496 -0.2949
  605MOL0     O81548   2.382   9.333   2.347  0.8665  0.6349  0.2337
  605MOL0     C81549   2.488   9.425   2.336 -0.1413 -1.4055  0.4007
  605MOL0     C81550   2.546   9.437   2.192 -0.2446  0.5581 -0.1948
  605MOL0     C81551   2.604   9.309   2.130  0.0053 -0.3258 -0.5405
  605MOL0     C81552   2.656   9.333   1.983 -0.3091  0.1083  0.1933
  605MOL0     C81553   2.691   9.201   1.905  0.8809 -1.2727  0.2304
  605MOL0     C81554   2.769   9.222   1.779  0.0476  0.3975  0.0825
  605MOL0     C81555   2.797   9.088   1.710 -0.1286  0.3396  0.5803
  605MOL0     C81556   2.830   9.118   1.566  0.9166  0.2305  0.1369
  605MOL0     N81557   2.838   9.001   1.486  0.7355 -0.1774  0.2984
  605MOL0     C81558   2.937   8.905   1.475 -0.4342 -0.0046  0.1916
  605MOL0     C81559   2.895   8.820   1.373  0.6866  0.2484 -0.7182
  605MOL0     C81560   2.961   8.703   1.318  0.3917 -0.1497  0.0038
  605MOL0     C81561   3.070   8.747   1.224  0.9373 -0.7322  0.5340
  605MOL0     C81562   3.156   8.629   1.183 -0.4690 -1.0645  1.0474
  605MOL0     C81563   3.239   8.567   1.294  0.5202 -0.0027  0.0770
  605MOL0     O81564   3.326   8.467   1.229 -0.0637  0.3988 -0.7649
  605MOL0     C81565   3.441   8.430   1.292 -0.0374 -0.3101  0.6475
  605MOL0     C81566   3.547   8.417   1.206  0.1585 -0.1660 -0.2630
  605MOL0     C81567   3.675   8.386   1.255 -0.3256 -0.2424 -0.7424
  605MOL0     C81568   3.695   8.352   1.392 -0.0412  0.2170  0.0293
  605MOL0     C81569   3.831   8.321   1.445 -0.1062 -0.4977  0.7104
  605MOL0     O81570   3.844   8.258   1.560 -0.2886  0.4383  0.2552
  605MOL0     C81571   3.969   8.204   1.602  0.7793 -0.6446  0.4016
  605MOL0     C81572   4.061   8.129   1.527 -0.1219  0.2400 -0.9024
  605MOL0     C81573   4.167   8.062   1.591  0.8983  0.2302  0.2244
  605MOL0     C81574   4.179   8.063   1.735  0.8635 -0.0615 -0.3118
  605MOL0     O81575   4.263   7.976   1.804  0.3286  0.6936 -0.4789
  605MOL0     C81576   4.393   7.972   1.758  0.0742 -0.4207  0.2857
  605MOL0     C81577   4.473   7.971   1.889 -0.5688 -0.4398 -0.1155
  605MOL0     C81578   4.617   7.924   1.863  0.2737  0.0844  0.4550
  605MOL0     C81579   4.693   7.905   1.997 -0.3844  0.7017  0.3759
  605MOL0     C81580   4.833   7.830   1.981 -0.3559  0.4500 -0.0328
  605MOL0     C81581   4.910   7.841   2.106 -0.3613 -0.0837  0.4335
  605MOL0     C81582   4.866   7.734   2.213 -0.1887 -0.0142 -0.0933
  605MOL0     C81583   4.982   7.751   2.315  0.2175 -0.7637  0.5928
  605MOL0    Cl81584   4.955   7.648   2.471  0.3410 -0.5373 -0.2408
  605MOL0     C81585   4.082   8.139   1.803 -0.2003  0.0884 -0.4201
  605MOL0     C81586   3.984   8.201   1.741  0.3035 -0.3105 -0.7119
  605MOL0     O81587   3.925   8.349   1.372 -0.6787 -0.4581  0.1786
  605MOL0     C81588   3.583   8.366   1.475 -0.8413 -0.1643  0.7322
  605MOL0     C81589   3.459   8.407   1.428 -0.1078  0.0042  0.5291
  605MOL0     N81590   2.768   8.860   1.330  0.1890 -0.4561  0.1359
  605MOL0     N81591   2.730   8.954   1.404  0.5841 -0.5871 -0.0346
  605MOL0     C81592   2.208   9.510   2.306  0.1342 -0.4545 -1.1703
  605MOL0     C81593   2.070   9.541   2.328  0.3269 -0.0510 -0.4792
  605MOL0     C81594   1.699   9.608   2.569  1.0928  0.6068  0.5510
  605MOL0     C81595   1.622   9.663   2.457 -1.0271 -0.4021 -0.2936
  605MOL0     C81596   1.510   9.742   2.475  0.8317  0.6096 -1.0474
  605MOL0     C81597   1.467   9.779   2.607  0.0597  0.6537 -0.3175
  605MOL0     O81598   1.365   9.867   2.640 -0.4168 -0.1189 -0.0171
  605MOL0     C81599   1.295   9.939   2.537 -0.3396 -0.4603 -0.5194
  605MOL0     C81600   1.199  10.034   2.612  0.6417 -0.3651  0.4435
  605MOL0     C81601   1.141  10.147   2.518 -0.1018  0.2471 -0.3699
  605MOL0     C81602   1.077  10.096   2.382 -0.3212 -0.7256  0.0819
  605MOL0     C81603   1.015  10.208   2.299  0.6118  0.5239  0.5561
  605MOL0     C81604   0.944  10.291   2.255 -0.3744 -0.7765  0.4084
  605MOL0     C81605   1.535   9.723   2.709 -0.6171  0.1063 -0.0127
  605MOL0     C81606   1.653   9.638   2.697  0.4554 -1.0121  0.5479
  605MOL0     C81607   1.698   9.565   2.821 -0.6665  0.9409 -0.8636
  605MOL0     H81608   1.943   9.268   2.479 -0.2484  1.7299  1.8003
  605MOL0     H81609   2.187   9.205   2.463 -0.9765 -1.0608 -2.3111
  605MOL0     H81610   2.470   9.529   2.367  4.6150  0.3485 -1.6373
  605MOL0     H81611   2.566   9.389   2.404  1.5626 -3.2614 -2.3363
  605MOL0     H81612   2.640   9.492   2.194  0.6760 -0.9720 -0.2744
  605MOL0     H81613   2.468   9.478   2.127  0.2317  0.7691 -0.6329
  605MOL0     H81614   2.518   9.241   2.132 -1.6648  1.6979  1.1479
  605MOL0     H81615   2.694   9.269   2.176 -0.5256 -3.3793 -1.9022
  605MOL0     H81616   2.584   9.385   1.919  0.8465  1.2459 -0.2237
  605MOL0     H81617   2.750   9.389   1.981  0.1313 -0.6068  0.3244
  605MOL0     H81618   2.747   9.128   1.963  0.9601 -1.8897 -0.6066
  605MOL0     H81619   2.592   9.159   1.886  1.2300 -2.1564  0.3602
  605MOL0     H81620   2.730   9.297   1.709 -0.8619 -1.4435 -1.4715
  605MOL0     H81621   2.869   9.250   1.814  1.0495 -2.5099 -0.2129
  605MOL0     H81622   2.698   9.041   1.701  0.8446 -1.3906 -3.6987
  605MOL0     H81623   2.871   9.025   1.760  0.2861 -0.9950 -1.5648
  605MOL0     H81624   2.745   9.177   1.529 -0.1797 -1.8761 -0.8918
  605MOL0     H81625   2.925   9.172   1.571 -0.2457  2.7777 -2.0002
  605MOL0     H81626   3.033   8.911   1.525 -0.9062  1.1885  1.0045
  605MOL0     H81627   3.014   8.656   1.402  1.1021  0.6208 -0.0004
  605MOL0     H81628   2.894   8.626   1.279  0.0158  1.1755 -2.0880
  605MOL0     H81629   3.020   8.791   1.137  0.5903  0.0428  1.1106
  605MOL0     H81630   3.138   8.828   1.250  0.1493  1.8092 -4.1534
  605MOL0     H81631   3.222   8.668   1.106 -0.9066 -0.3975  1.0027
  605MOL0     H81632   3.109   8.545   1.130  1.2955 -0.2984 -1.9735
  605MOL0     H81633   3.173   8.522   1.369 -0.8486  0.7160 -0.6593
  605MOL0     H81634   3.308   8.642   1.334 -0.7105  1.2695 -0.1146
  605MOL0     H81635   3.520   8.439   1.103 -2.7521 -2.5606 -0.1420
  605MOL0     H81636   3.757   8.389   1.184  2.6367  1.8609  2.4408
  605MOL0     H81637   4.063   8.142   1.419 -2.5366  4.6972 -0.6295
  605MOL0     H81638   4.244   8.013   1.533 -0.8884  0.7824 -2.8420
  605MOL0     H81639   4.423   7.884   1.700  2.3245 -0.7588  1.8761
  605MOL0     H81640   4.423   8.065   1.708 -1.5652 -0.3963 -0.7308
  605MOL0     H81641   4.475   8.071   1.932  2.1918 -0.3787 -0.2472
  605MOL0     H81642   4.417   7.907   1.958 -2.1253  1.0730  0.1007
  605MOL0     H81643   4.608   7.839   1.795 -2.3063  1.2796 -0.8111
  605MOL0     H81644   4.672   8.003   1.811 -1.4318 -0.7828 -2.9534
  605MOL0     H81645   4.641   7.841   2.069 -1.8428  2.0378  0.5473
  605MOL0     H81646   4.706   8.010   2.026 -0.8563  0.4489  1.5766
  605MOL0     H81647   4.889   7.873   1.897  0.4583 -0.0590  0.2406
  605MOL0     H81648   4.808   7.725   1.961  4.5404 -1.5219  2.4808
  605MOL0     H81649   5.015   7.835   2.075 -0.8796 -2.3455 -1.1735
  605MOL0     H81650   4.909   7.943   2.144  0.4396 -0.5410  1.7257
  605MOL0     H81651   4.871   7.637   2.161  0.2520 -0.2082  0.3055
  605MOL0     H81652   4.764   7.745   2.251 -0.0338 -1.8821  0.9983
  605MOL0     H81653   5.073   7.718   2.263  0.6933  0.2272  0.7722
  605MOL0     H81654   4.998   7.852   2.352  1.6330 -0.0402 -1.7529
  605MOL0     H81655   4.090   8.144   1.912 -0.5735  1.7293 -0.4430
  605MOL0     H81656   3.905   8.239   1.806  0.5295  0.3865 -0.8298
  605MOL0     H81657   3.595   8.385   1.581  1.6556  2.6300  0.0839
  605MOL0     H81658   3.379   8.415   1.501 -0.6389 -1.9732  0.2343
  605MOL0     H81659   2.271   9.581   2.254  0.3805  1.0469  1.0287
  605MOL0     H81660   2.030   9.632   2.285 -0.6602 -0.2077  0.0775
  605MOL0     H81661   1.633   9.650   2.350 -1.5933  0.5983 -0.4843
  605MOL0     H81662   1.456   9.778   2.388 -3.2960  1.6251  1.6193
  605MOL0     H81663   1.240   9.878   2.465  0.0805 -2.1698  0.5639
  605MOL0     H81664   1.359  10.008   2.482 -0.2194 -0.0951  0.0727
  605MOL0     H81665   1.236  10.077   2.706 -1.5914 -1.1289  1.7526
  605MOL0     H81666   1.125   9.969   2.660  1.4140  1.4062  4.5017
  605MOL0     H81667   1.214  10.227   2.505 -0.9700  1.0786 -0.2278
  605MOL0     H81668   1.053  10.187   2.570  1.3472  2.4381  0.5609
  605MOL0     H81669   1.153  10.046   2.321 -1.3716 -1.4730 -0.6547
  605MOL0     H81670   0.993  10.030   2.402 -1.8268  1.3115  0.7553
  605MOL0     H81671   0.898  10.377   2.212 -1.3713 -1.6278 -0.3004
  605MOL0     H81672   1.527   9.759   2.812  2.8239  0.7413  0.1735
  605MOL0     H81673   1.782   9.615   2.872 -0.5804 -0.1018  0.0582
  605MOL0     H81674   1.624   9.553   2.900 -0.6802 -2.4075 -1.2532
  605MOL0     H81675   1.716   9.459   2.800 -1.8512  0.7346 -0.8909
  606MOL0     O81676  11.255   1.113   4.274  1.1759 -0.6575  0.1582
  606MOL0     C81677  11.254   1.004   4.327  0.0324 -0.0987 -0.4831
  606MOL0     O81678  11.358   0.945   4.393 -0.1162  0.9110 -0.1151
  606MOL0     C81679  11.485   0.991   4.380  0.3061  0.4980  0.2879
  606MOL0     C81680  11.536   1.041   4.257  0.6375 -0.2685 -0.2487
  606MOL0     C81681  11.671   1.076   4.252 -0.7822 -0.5181  0.5678
  606MOL0     C81682  11.763   1.053   4.357  0.2128  0.0269 -0.1073
  606MOL0     O81683  11.899   1.074   4.340  0.7810  0.0393  0.4988
  606MOL0     C81684  11.998   1.042   4.438  0.1346 -0.2596 -0.4418
  606MOL0     C81685  12.132   1.075   4.369  0.9625 -0.0032 -0.4026
  606MOL0     C81686  12.247   1.036   4.464 -0.0821 -0.3664 -1.0883
  606MOL0     C81687  12.386   1.071   4.414  0.1604  0.3919 -0.1934
  606MOL0     C81688  12.484   1.019   4.522  0.2887  1.0519 -0.3830
  606MOL0     C81689  12.627   1.031   4.467 -0.5591  0.2259  0.8414
  606MOL0     C81690  12.739   0.982   4.558 -1.2581 -0.0577 -0.6446
  606MOL0     C81691  12.796   1.083   4.659  0.7980 -0.5915  0.2528
  606MOL0     N81692  12.914   1.024   4.734 -0.3115  0.9699 -0.4159
  606MOL0     C81693  13.047   1.057   4.704 -0.1239  0.2658 -0.2991
  606MOL0     C81694  13.112   1.002   4.802 -0.0473 -0.4259  0.4162
  606MOL0     C81695  13.257   1.016   4.831 -0.2439  0.4780 -0.1586
  606MOL0     C81696  13.347   0.896   4.857 -0.5301  0.4148 -0.1833
  606MOL0     C81697  13.347   0.797   4.744  0.3259  0.4565  0.1702
  606MOL0     C81698  13.464   0.704   4.750 -0.6920 -0.1071 -0.1427
  606MOL0     O81699  13.578   0.778   4.701  0.1072 -0.4872 -0.4227
  606MOL0     C81700  13.681   0.701   4.646 -0.3014 -0.9985  0.0531
  606MOL0     C81701  13.698   0.566   4.656  0.1132 -0.3470  0.4834
  606MOL0     C81702  13.818   0.502   4.612  0.0096  0.3056  0.2910
  606MOL0     C81703  13.914   0.573   4.540 -0.2937  0.6092  0.0741
  606MOL0     C81704  14.033   0.503   4.484 -0.4787  0.2344  0.1927
  606MOL0     O81705  14.097   0.570   4.382 -0.6406  0.3822  0.7235
  606MOL0     C81706  14.221   0.528   4.340 -0.6464  0.0911  1.0766
  606MOL0     C81707  14.333   0.615   4.343  0.3060 -0.0764  0.9790
  606MOL0     C81708  14.452   0.577   4.293 -0.3078 -0.5385  0.5110
  606MOL0     C81709  14.475   0.446   4.243 -0.2230 -0.2912 -0.1142
  606MOL0     O81710  14.595   0.401   4.205  0.3948  0.1577  0.3498
  606MOL0     C81711  14.714   0.481   4.221 -0.0148  0.0621 -0.9813
  606MOL0     C81712  14.831   0.411   4.161 -0.4497  0.4843 -0.3165
  606MOL0     C81713  14.882   0.289   4.235  0.7132 -0.0263  0.5537
  606MOL0     C81714  15.006   0.225   4.173  0.0000 -0.4914 -0.7462
  606MOL0     C81715  15.109   0.183   4.283  0.0656 -0.6397 -0.2344
  606MOL0     C81716  15.227   0.111   4.221  0.6053  0.0803  0.7564
  606MOL0     C81717  15.336   0.101   4.332  0.7485  0.5501  0.4484
  606MOL0     C81718  15.431  -0.014   4.298  1.1296  0.1243  0.1335
  606MOL0    Cl81719  15.578  -0.004   4.387  0.2763  0.1698  0.4512
  606MOL0     C81720  14.363   0.355   4.242 -0.2635  0.4968 -0.7304
  606MOL0     C81721  14.237   0.393   4.286 -0.3204 -0.8214  0.6730
  606MOL0     O81722  14.065   0.389   4.520  0.0579 -0.6989 -0.3337
  606MOL0     C81723  13.894   0.715   4.522  0.2602 -0.3726  1.3212
  606MOL0     C81724  13.775   0.778   4.566  0.5245  0.0821 -0.4425
  606MOL0     N81725  13.021   0.930   4.880 -0.5167 -0.0931 -0.0889
  606MOL0     N81726  12.897   0.942   4.839  0.0578 -1.0646  0.8353
  606MOL0     C81727  11.715   0.991   4.472  0.4856 -0.6134  0.0871
  606MOL0     C81728  11.582   0.965   4.480 -0.3475 -0.3032 -0.3044
  606MOL0     C81729  11.124   0.927   4.345  0.2444  0.1673 -0.4700
  606MOL0     C81730  11.000   0.996   4.334 -0.2748  0.2149  0.5888
  606MOL0     C81731  10.879   0.928   4.349 -0.6563 -0.9322 -0.4156
  606MOL0     C81732  10.875   0.793   4.381 -0.0986 -0.4485  0.6095
  606MOL0     O81733  10.764   0.719   4.399  0.5140 -0.4234 -0.6993
  606MOL0     C81734  10.643   0.744   4.326 -0.1572  0.4410 -0.0394
  606MOL0     C81735  10.671   0.747   4.172 -0.3410 -0.8209 -0.0558
  606MOL0     C81736  10.546   0.781   4.096 -0.2979 -0.0295  0.4000
  606MOL0     C81737  10.554   0.790   3.941  0.3159  0.5499  0.9007
  606MOL0     C81738  10.620   0.682   3.871  0.0463  0.7318 -0.9905
  606MOL0     C81739  10.675   0.592   3.811 -0.5814  0.7873  0.4997
  606MOL0     C81740  10.993   0.729   4.402 -0.8356 -0.1435 -0.1521
  606MOL0     C81741  11.118   0.782   4.378  0.2704 -1.0490 -0.1136
  606MOL0     C81742  11.227   0.687   4.396  0.4767 -0.2668 -0.1753
  606MOL0     H81743  11.477   1.051   4.166 -1.6030  2.7727  1.3822
  606MOL0     H81744  11.703   1.108   4.154 -0.3411  1.8058  1.4108
  606MOL0     H81745  11.981   1.105   4.525 -2.1727  0.6417 -1.4570
  606MOL0     H81746  11.997   0.937   4.467 -0.4998  0.5431  2.7708
  606MOL0     H81747  12.137   1.181   4.341 -1.9954  0.4344  0.3968
  606MOL0     H81748  12.127   1.016   4.277 -1.4814 -1.8455  0.7905
  606MOL0     H81749  12.244   0.930   4.489 -1.7289 -0.2744 -0.8064
  606MOL0     H81750  12.218   1.080   4.560 -1.5422 -3.6767  0.1185
  606MOL0     H81751  12.418   1.030   4.318 -0.8664 -1.1721  0.1094
  606MOL0     H81752  12.400   1.180   4.407  1.3450  0.3158  0.7035
  606MOL0     H81753  12.475   1.068   4.619  0.7138 -0.8760  0.6646
  606MOL0     H81754  12.462   0.913   4.536 -1.6053  1.2640 -1.4286
  606MOL0     H81755  12.622   0.964   4.380 -4.0426 -3.5553  3.5188
  606MOL0     H81756  12.647   1.135   4.442  0.2156 -0.2829 -0.8657
  606MOL0     H81757  12.822   0.939   4.501 -1.2733 -3.4282  1.5787
  606MOL0     H81758  12.706   0.893   4.612  2.5916 -0.6920  1.0172
  606MOL0     H81759  12.821   1.175   4.606 -2.1366  0.0056 -0.2941
  606MOL0     H81760  12.714   1.116   4.724  0.9314 -0.9743  0.6169
  606MOL0     H81761  13.087   1.103   4.614 -2.3831 -2.0627 -2.6787
  606MOL0     H81762  13.302   1.071   4.748  0.2656  0.5039  0.1343
  606MOL0     H81763  13.253   1.086   4.916 -2.3313  3.5955 -2.5715
  606MOL0     H81764  13.451   0.930   4.867  1.3022 -4.4933  0.1760
  606MOL0     H81765  13.335   0.841   4.951  1.3603  1.9226  1.0332
  606MOL0     H81766  13.353   0.844   4.645  0.9665  1.7282  0.7904
  606MOL0     H81767  13.260   0.731   4.749  3.9226 -4.7857  2.1106
  606MOL0     H81768  13.449   0.611   4.695 -0.4862 -2.0731  2.8672
  606MOL0     H81769  13.480   0.661   4.850  1.7255 -3.6717 -1.8677
  606MOL0     H81770  13.617   0.506   4.698  0.1158 -0.4597  0.3312
  606MOL0     H81771  13.822   0.394   4.618  1.6726  0.2887 -0.5714
  606MOL0     H81772  14.328   0.720   4.373  0.4552 -0.2775  1.7281
  606MOL0     H81773  14.535   0.646   4.285 -0.4063 -0.5091 -0.2674
  606MOL0     H81774  14.704   0.577   4.171  1.3824  0.2260 -0.9921
  606MOL0     H81775  14.726   0.496   4.329  4.9924 -1.6134 -1.0724
  606MOL0     H81776  14.807   0.387   4.057 -0.7207  0.4979 -0.2578
  606MOL0     H81777  14.908   0.487   4.147  0.2744 -0.8445 -5.2406
  606MOL0     H81778  14.909   0.337   4.330  1.1627  2.3113 -0.6826
  606MOL0     H81779  14.814   0.208   4.262  2.7064 -2.2982 -0.8288
  606MOL0     H81780  15.058   0.291   4.102 -2.7083 -0.6324 -3.0437
  606MOL0     H81781  14.970   0.136   4.121 -0.7968  0.5720 -2.1164
  606MOL0     H81782  15.060   0.119   4.356 -2.7422 -0.7611 -2.0634
  606MOL0     H81783  15.147   0.273   4.330  0.4150  1.2699 -3.8034
  606MOL0     H81784  15.187   0.017   4.182  0.9017  0.8035 -1.4149
  606MOL0     H81785  15.262   0.171   4.137 -0.6856  2.6696  1.9567
  606MOL0     H81786  15.293   0.084   4.431 -1.0200 -1.5969 -0.6191
  606MOL0     H81787  15.388   0.197   4.342 -1.0003  1.4847  1.0807
  606MOL0     H81788  15.379  -0.110   4.308 -0.2190  0.8007 -0.1275
  606MOL0     H81789  15.459  -0.004   4.193 -2.7230 -0.0544 -1.0463
  606MOL0     H81790  14.376   0.254   4.204 -1.9630 -0.7741  1.8064
  606MOL0     H81791  14.159   0.317   4.285  0.1046 -1.2553 -0.0839
  606MOL0     H81792  13.965   0.783   4.476  0.7875 -1.0653  1.0895
  606MOL0     H81793  13.753   0.883   4.552  0.1355  0.4181  2.2850
  606MOL0     H81794  11.778   0.958   4.553  0.3341 -2.4626 -0.5097
  606MOL0     H81795  11.559   0.906   4.568  4.3625 -0.9267  0.7553
  606MOL0     H81796  10.995   1.100   4.304 -1.5720 -0.3030 -1.2021
  606MOL0     H81797  10.783   0.977   4.337 -0.5529 -1.0194 -1.7948
  606MOL0     H81798  10.602   0.840   4.358  1.0859  0.7054  0.8107
  606MOL0     H81799  10.566   0.671   4.353 -0.1771  0.5599  0.2192
  606MOL0     H81800  10.704   0.647   4.142 -2.4139 -2.4369  2.5216
  606MOL0     H81801  10.733   0.836   4.158 -3.3087  2.0072  2.9308
  606MOL0     H81802  10.501   0.878   4.119 -2.9137 -0.1699 -3.1352
  606MOL0     H81803  10.477   0.698   4.113  1.4290 -1.6070 -0.0027
  606MOL0     H81804  10.457   0.812   3.895  0.6049  1.4308  0.6991
  606MOL0     H81805  10.603   0.883   3.911  0.9298 -0.3946 -1.2376
  606MOL0     H81806  10.732   0.514   3.765  0.7743  1.1487  1.4906
  606MOL0     H81807  10.991   0.634   4.456  1.5922  0.3044  0.8824
  606MOL0     H81808  11.297   0.730   4.468  1.3516  0.1436 -1.2507
  606MOL0     H81809  11.195   0.591   4.438  4.3083 -1.4033  0.5487
  606MOL0     H81810  11.286   0.670   4.306  1.1219 -0.2555  0.2323
  607MOL0     O81811   3.313   0.188  11.214  1.1051 -0.3895 -0.0606
  607MOL0     C81812   3.358   0.296  11.226 -0.4837 -0.4164  0.3831
  607MOL0     O81813   3.299   0.395  11.293 -0.2365  0.5166 -0.1904
  607MOL0     C81814   3.176   0.382  11.353  0.3779 -0.5420 -0.5081
  607MOL0     C81815   3.150   0.442  11.479  0.3789 -0.3712  0.8977
  607MOL0     C81816   3.021   0.436  11.532  0.6582  0.3376  1.8003
  607MOL0     C81817   2.917   0.381  11.454  0.1304 -0.4774  0.5834
  607MOL0     O81818   2.795   0.380  11.514 -0.3415  0.0587  0.4132
  607MOL0     C81819   2.679   0.400  11.424 -0.0387  1.0525  0.3880
  607MOL0     C81820   2.549   0.388  11.487  0.2461  0.1103  0.0110
  607MOL0     C81821   2.521   0.500  11.577 -0.4045  0.3251 -0.4994
  607MOL0     C81822   2.374   0.505  11.627 -0.3624  0.2812  0.8853
  607MOL0     C81823   2.371   0.593  11.746 -0.8294 -0.1108  0.1374
  607MOL0     C81824   2.231   0.603  11.807 -0.7149 -0.3116  0.1149
  607MOL0     C81825   2.193   0.476  11.881  0.2372 -0.8530 -0.0957
  607MOL0     C81826   2.056   0.497  11.946  0.3640 -0.7893  0.5784
  607MOL0     N81827   1.943   0.525  11.857  0.6144 -0.7401  0.7753
  607MOL0     C81828   1.863   0.425  11.792 -0.5799 -0.2659  0.3380
  607MOL0     C81829   1.740   0.478  11.774 -0.1070 -0.1485  0.1708
  607MOL0     C81830   1.635   0.403  11.699  0.5587  0.2859  0.1610
  607MOL0     C81831   1.506   0.478  11.686 -0.5643  0.7196  0.1971
  607MOL0     C81832   1.419   0.422  11.574  0.3349 -0.2285 -0.8396
  607MOL0     C81833   1.276   0.466  11.610  0.5521 -0.2563 -0.5467
  607MOL0     O81834   1.191   0.413  11.501 -0.4523  0.3054 -0.6622
  607MOL0     C81835   1.053   0.416  11.516  0.2503 -0.5881 -1.0430
  607MOL0     C81836   0.975   0.378  11.411  0.4722  0.1303 -0.4719
  607MOL0     C81837   0.833   0.381  11.421  0.0673 -0.3725  0.5345
  607MOL0     C81838   0.781   0.435  11.540 -0.3383  0.2378  0.6605
  607MOL0     C81839   0.632   0.459  11.540  0.4095 -0.3474  0.7898
  607MOL0     O81840   0.561   0.447  11.414  0.1231  0.0115 -0.5165
  607MOL0     C81841   0.443   0.511  11.400 -0.8301 -0.3291  0.9430
  607MOL0     C81842   0.329   0.472  11.467  0.0451 -0.1489 -0.4386
  607MOL0     C81843   0.203   0.533  11.451 -0.3877 -1.0109 -0.4843
  607MOL0     C81844   0.197   0.640  11.363  0.4641  0.2964 -0.6363
  607MOL0     O81845   0.081   0.719  11.370 -0.0392  0.5516 -0.0814
  607MOL0     C81846   0.032   0.772  11.248 -0.7516  0.2958  1.0223
  607MOL0     C81847  -0.089   0.850  11.251  0.8505  0.4937  0.4255
  607MOL0     C81848  -0.136   0.912  11.117 -0.2335 -0.1815  0.0480
  607MOL0     C81849  -0.205   0.798  11.029  0.8454 -0.2161  0.2928
  607MOL0     C81850  -0.287   0.845  10.910  0.4646 -0.4645 -0.5190
  607MOL0     C81851  -0.419   0.918  10.941 -0.1700 -0.2461  0.7595
  607MOL0     C81852  -0.483   0.960  10.809  0.1950  0.6002  0.6582
  607MOL0     C81853  -0.572   1.084  10.815 -0.1379  0.2886  0.3599
  607MOL0    Cl81854  -0.717   1.049  10.919  0.1517 -0.1111  0.0147
  607MOL0     C81855   0.307   0.678  11.287 -0.2724  0.4066 -0.3868
  607MOL0     C81856   0.429   0.610  11.306 -0.3413 -0.0580  0.0262
  607MOL0     O81857   0.569   0.471  11.648 -0.4301 -0.8907  0.9686
  607MOL0     C81858   0.863   0.469  11.642 -0.4755  0.1833 -0.4848
  607MOL0     C81859   0.994   0.458  11.634  1.2126 -1.2523  0.2058
  607MOL0     N81860   1.749   0.613  11.797 -0.0443 -0.6348 -0.1945
  607MOL0     N81861   1.863   0.640  11.853 -0.3252  0.7824 -0.1500
  607MOL0     C81862   2.945   0.337  11.324 -0.0052  0.2156  0.1539
  607MOL0     C81863   3.077   0.327  11.279  0.3618  0.6239  0.1183
  607MOL0     C81864   3.497   0.335  11.167  0.2956 -0.0685  0.3097
  607MOL0     C81865   3.560   0.456  11.192  0.2200  0.7304 -0.6973
  607MOL0     C81866   3.679   0.496  11.126  0.5289 -0.3888 -0.2371
  607MOL0     C81867   3.742   0.418  11.033  0.8095  0.5052 -0.8647
  607MOL0     O81868   3.866   0.438  10.964  0.8544 -0.7902 -0.4617
  607MOL0     C81869   3.938   0.563  10.957 -0.4087 -0.2009 -0.7665
  607MOL0     C81870   4.053   0.567  11.060 -1.0549 -0.1066  0.4455
  607MOL0     C81871   4.144   0.689  11.051  0.3638  0.4340  0.3975
  607MOL0     C81872   4.272   0.679  11.134 -0.2915 -0.1940 -0.5586
  607MOL0     C81873   4.344   0.814  11.135 -0.7030 -0.3865 -0.6888
  607MOL0     C81874   4.419   0.908  11.144 -0.0591 -0.5903 -0.3017
  607MOL0     C81875   3.672   0.309  10.992  0.5663 -0.2608 -0.5400
  607MOL0     C81876   3.557   0.257  11.062 -0.1595 -0.8687 -0.6234
  607MOL0     C81877   3.515   0.125  11.007 -0.3530  0.7413 -0.8758
  607MOL0     H81878   3.229   0.501  11.525 -1.0466  2.1859  0.2538
  607MOL0     H81879   3.000   0.472  11.632 -0.5163  1.4919  1.1675
  607MOL0     H81880   2.690   0.486  11.357 -2.1059 -0.7852 -2.5113
  607MOL0     H81881   2.670   0.309  11.365  1.0800  1.5838 -0.6550
  607MOL0     H81882   2.539   0.299  11.550 -0.5272 -0.3571 -0.7505
  607MOL0     H81883   2.474   0.390  11.407  1.0509  1.7376 -0.7518
  607MOL0     H81884   2.550   0.587  11.517 -1.9477 -0.5792 -2.6476
  607MOL0     H81885   2.578   0.488  11.670  0.0403 -0.4672 -0.8728
  607MOL0     H81886   2.304   0.550  11.556 -0.4561 -0.8314  0.2465
  607MOL0     H81887   2.335   0.403  11.639 -0.5163  0.5494  3.0094
  607MOL0     H81888   2.445   0.586  11.826  0.7547 -0.4064 -1.2988
  607MOL0     H81889   2.386   0.689  11.695  0.6580 -0.7563 -0.6855
  607MOL0     H81890   2.234   0.698  11.862 -2.6752 -0.5205  0.6350
  607MOL0     H81891   2.154   0.631  11.734 -2.9655 -1.4732  1.9186
  607MOL0     H81892   2.267   0.460  11.959 -0.5414  0.8205  1.0585
  607MOL0     H81893   2.185   0.391  11.813  0.4539 -0.0320 -1.1793
  607MOL0     H81894   2.051   0.400  11.995  3.1579 -1.7232 -0.7739
  607MOL0     H81895   2.062   0.583  12.014 -0.2303  0.0109 -0.3424
  607MOL0     H81896   1.891   0.324  11.768  0.7426  0.3705 -0.9290
  607MOL0     H81897   1.666   0.385  11.596 -1.9601 -2.7043 -0.2382
  607MOL0     H81898   1.615   0.308  11.751 -0.7003 -0.1713 -1.0991
  607MOL0     H81899   1.443   0.463  11.774 -0.3925 -2.5637 -0.1431
  607MOL0     H81900   1.529   0.584  11.672 -0.2071  0.4104 -1.8344
  607MOL0     H81901   1.437   0.314  11.567 -0.8468 -0.5081  0.0284
  607MOL0     H81902   1.451   0.469  11.481  0.1189 -0.1779 -0.8884
  607MOL0     H81903   1.265   0.574  11.598  1.6663 -0.3062 -2.4314
  607MOL0     H81904   1.238   0.436  11.708 -0.9638  0.5716 -0.8614
  607MOL0     H81905   1.018   0.364  11.312 -0.7187 -1.9918 -0.7317
  607MOL0     H81906   0.770   0.367  11.333  2.4456 -0.0646 -1.3246
  607MOL0     H81907   0.336   0.395  11.544 -0.5366  0.5639  0.3437
  607MOL0     H81908   0.115   0.515  11.512  0.0793 -0.2483  0.4303
  607MOL0     H81909   0.112   0.823  11.195  0.1564 -0.7455  1.3534
  607MOL0     H81910   0.002   0.701  11.170  4.1200  2.8082 -3.7599
  607MOL0     H81911  -0.170   0.781  11.279  0.7267 -0.7551 -2.6451
  607MOL0     H81912  -0.084   0.931  11.325 -3.0070  3.3786 -2.0572
  607MOL0     H81913  -0.214   0.982  11.148 -0.3327 -1.0270  1.8771
  607MOL0     H81914  -0.052   0.962  11.068  0.8269 -1.1033  0.8701
  607MOL0     H81915  -0.281   0.744  11.086 -1.7361 -0.1232 -2.8177
  607MOL0     H81916  -0.122   0.741  10.985  1.4061  0.4399  0.4913
  607MOL0     H81917  -0.318   0.759  10.850  1.6428 -0.3376 -1.3397
  607MOL0     H81918  -0.214   0.902  10.851  0.8272 -0.3598  0.0235
  607MOL0     H81919  -0.483   0.852  10.999 -1.6117  0.5068  0.0620
  607MOL0     H81920  -0.384   1.004  10.999  1.1258  0.5514 -1.0736
  607MOL0     H81921  -0.536   0.876  10.763 -0.5678  2.0233 -1.1941
  607MOL0     H81922  -0.397   0.980  10.744  2.0038 -3.1819  1.5579
  607MOL0     H81923  -0.517   1.173  10.847 -0.0946  0.1338  0.7166
  607MOL0     H81924  -0.610   1.103  10.714  1.6868 -0.8848 -0.5918
  607MOL0     H81925   0.294   0.767  11.227  0.5286  0.7426 -0.0755
  607MOL0     H81926   0.522   0.640  11.259 -0.0574  0.6379  1.0190
  607MOL0     H81927   0.814   0.505  11.732  2.2677 -2.0284  2.1234
  607MOL0     H81928   1.048   0.502  11.717 -1.2329  2.3852  0.1203
  607MOL0     H81929   2.867   0.286  11.267 -0.4175  0.6331  0.3330
  607MOL0     H81930   3.095   0.268  11.189 -0.5908  0.1091  0.2470
  607MOL0     H81931   3.524   0.524  11.269  2.4653 -0.1952  1.3016
  607MOL0     H81932   3.710   0.590  11.171 -1.5927  0.2451  0.0440
  607MOL0     H81933   3.866   0.644  10.976  0.2027  0.1847 -0.0261
  607MOL0     H81934   3.982   0.574  10.858  2.3158 -0.8142  0.3013
  607MOL0     H81935   4.114   0.479  11.039  0.5260  1.4735 -2.1150
  607MOL0     H81936   4.000   0.559  11.155  0.6671 -2.6980  1.2922
  607MOL0     H81937   4.095   0.782  11.081 -3.6555 -1.8227  1.5562
  607MOL0     H81938   4.167   0.703  10.945 -0.1800 -0.0981  0.2025
  607MOL0     H81939   4.245   0.654  11.237 -1.3141  1.3480 -0.4180
  607MOL0     H81940   4.329   0.598  11.089 -2.2219 -1.5451 -0.7091
  607MOL0     H81941   4.499   0.979  11.142 -0.8816  0.3861  0.3277
  607MOL0     H81942   3.715   0.249  10.912 -0.7008 -0.0950 -1.3827
  607MOL0     H81943   3.583   0.041  11.022 -3.7357 -2.1344 -0.6327
  607MOL0     H81944   3.409   0.100  11.019 -1.2297  4.4329  0.3997
  607MOL0     H81945   3.522   0.132  10.898  1.2488 -0.7653 -0.9118
  608MOL0     O81946  10.435   5.999   5.993  0.0618  0.1279  0.0195
  608MOL0     C81947  10.447   5.920   6.085 -0.0408  0.2608  0.9822
  608MOL0     O81948  10.555   5.840   6.104 -1.0987  0.4308 -0.8424
  608MOL0     C81949  10.679   5.879   6.060 -0.4058 -0.1283 -0.1928
  608MOL0     C81950  10.751   5.772   6.018 -0.6128 -0.4433  0.4392
  608MOL0     C81951  10.881   5.805   5.958  0.0494 -0.1461 -0.7738
  608MOL0     C81952  10.929   5.937   5.949  0.0921 -0.5243  0.2780
  608MOL0     O81953  11.043   5.970   5.884  0.0089 -1.2484  1.2222
  608MOL0     C81954  11.085   5.910   5.762  0.2942 -0.1618  0.3295
  608MOL0     C81955  11.220   5.972   5.706  0.5309  0.2191 -0.6037
  608MOL0     C81956  11.201   6.119   5.678 -0.5074  0.2789 -1.0356
  608MOL0     C81957  11.331   6.187   5.646 -0.4317  0.5940 -0.6643
  608MOL0     C81958  11.389   6.154   5.511  0.4924 -0.1320 -0.7961
  608MOL0     C81959  11.511   6.245   5.489 -0.5913  0.2296  0.2941
  608MOL0     C81960  11.567   6.221   5.345  0.9146  0.1207  0.4946
  608MOL0     C81961  11.676   6.334   5.323  0.5572  0.9641 -0.0098
  608MOL0     N81962  11.696   6.351   5.180  0.8663 -0.1979 -0.5036
  608MOL0     C81963  11.656   6.464   5.107 -0.1400  0.2520  0.2483
  608MOL0     C81964  11.700   6.431   4.980 -0.4562  0.1558 -0.2187
  608MOL0     C81965  11.727   6.530   4.870  0.4263 -0.3391 -0.3639
  608MOL0     C81966  11.611   6.534   4.773  0.4384  0.1037  1.3136
  608MOL0     C81967  11.610   6.659   4.675 -0.9293  0.8347 -1.3992
  608MOL0     C81968  11.729   6.665   4.581 -0.9241  0.0568 -0.0242
  608MOL0     O81969  11.847   6.695   4.655  0.6242  0.2102 -0.9069
  608MOL0     C81970  11.969   6.697   4.596 -0.1659  0.2401 -0.8007
  608MOL0     C81971  11.990   6.713   4.461 -0.3009 -0.2146 -0.2343
  608MOL0     C81972  12.117   6.691   4.408 -0.3761 -0.2136 -0.8403
  608MOL0     C81973  12.220   6.628   4.489  0.2530 -0.0200 -0.0887
  608MOL0     C81974  12.354   6.604   4.432 -0.3214 -0.5731 -0.1628
  608MOL0     O81975  12.454   6.550   4.510  0.2192  0.1400 -0.6283
  608MOL0     C81976  12.573   6.512   4.447  0.3404  0.7771  0.0404
  608MOL0     C81977  12.650   6.585   4.352  0.1634 -1.0470 -0.0635
  608MOL0     C81978  12.771   6.521   4.309 -0.3972 -0.1947  0.0775
  608MOL0     C81979  12.820   6.404   4.357 -0.0078 -0.1478  0.3208
  608MOL0     O81980  12.949   6.356   4.331 -0.4627  0.4370 -0.3641
  608MOL0     C81981  13.058   6.453   4.333  0.2023 -0.5252  0.3840
  608MOL0     C81982  13.182   6.374   4.349 -1.2244  1.1661 -0.0838
  608MOL0     C81983  13.188   6.275   4.463  0.0947 -0.2206  0.3818
  608MOL0     C81984  13.316   6.196   4.489  0.4312 -0.8420 -0.4315
  608MOL0     C81985  13.313   6.086   4.589 -0.0335 -0.7722  0.3598
  608MOL0     C81986  13.212   5.981   4.555 -0.7876  0.3719  0.5842
  608MOL0     C81987  13.207   5.896   4.688  0.1740  0.0617 -0.0278
  608MOL0     C81988  13.239   5.744   4.663  0.2137 -0.3582  0.0424
  608MOL0    Cl81989  13.406   5.733   4.612 -0.2114  0.6297 -0.3076
  608MOL0     C81990  12.745   6.339   4.459 -1.1287 -0.8670 -0.3173
  608MOL0     C81991  12.625   6.396   4.503 -0.6746 -1.0549  0.7563
  608MOL0     O81992  12.366   6.628   4.314  0.2903 -0.4949  0.0562
  608MOL0     C81993  12.196   6.616   4.624  0.5003  0.3329  0.5455
  608MOL0     C81994  12.070   6.647   4.676  0.4363 -0.1560  0.7540
  608MOL0     N81995  11.745   6.298   4.978  0.1126 -0.0871  0.1783
  608MOL0     N81996  11.732   6.245   5.102 -0.1250 -0.4002  0.2049
  608MOL0     C81997  10.844   6.042   5.995 -0.3851 -0.0827  0.5342
  608MOL0     C81998  10.726   6.012   6.053 -0.3313 -0.0248 -0.3164
  608MOL0     C81999  10.343   5.902   6.191  0.6976  0.2126  0.1867
  608MOL0     C82000  10.391   5.893   6.324 -0.8913  0.1465 -1.1088
  608MOL0     C82001  10.309   5.861   6.423  0.5313 -0.4614  0.1676
  608MOL0     C82002  10.171   5.869   6.406 -0.1519 -0.1794  0.7336
  608MOL0     O82003  10.077   5.841   6.501  0.0547 -0.5690  0.2184
  608MOL0     C82004  10.053   5.700   6.505  0.8086 -0.1978  0.1401
  608MOL0     C82005   9.956   5.642   6.390 -0.1426  0.3445 -0.5993
  608MOL0     C82006   9.807   5.696   6.384  1.4569  0.3467 -0.3229
  608MOL0     C82007   9.741   5.629   6.260 -0.0996 -0.7174 -0.6005
  608MOL0     C82008   9.793   5.677   6.133  0.1880  0.0181 -0.4247
  608MOL0     C82009   9.831   5.738   6.031 -0.1409 -0.2810  0.5452
  608MOL0     C82010  10.127   5.884   6.275 -0.4217 -0.1593  0.7015
  608MOL0     C82011  10.207   5.906   6.159  0.2995 -0.1032 -0.7305
  608MOL0     C82012  10.146   5.891   6.023  0.5522 -0.0662  0.4187
  608MOL0     H82013  10.712   5.671   6.009 -0.9188 -0.1257 -3.4388
  608MOL0     H82014  10.928   5.721   5.907 -2.2281 -3.2759  1.8262
  608MOL0     H82015  11.090   5.802   5.777  1.2923 -0.4036 -1.4053
  608MOL0     H82016  11.020   5.924   5.675  3.6050  0.4349 -2.2740
  608MOL0     H82017  11.258   5.919   5.619 -0.1547  0.0623 -0.8115
  608MOL0     H82018  11.295   5.954   5.783 -0.5472  0.9165  0.6605
  608MOL0     H82019  11.163   6.171   5.766  3.2785 -0.4974  1.2836
  608MOL0     H82020  11.132   6.134   5.595  0.2813  4.2931 -1.1440
  608MOL0     H82021  11.331   6.296   5.655 -1.1861  0.4816  1.2733
  608MOL0     H82022  11.405   6.166   5.724 -0.0101  1.3637 -0.8529
  608MOL0     H82023  11.420   6.050   5.513 -1.3971 -0.7271 -0.4302
  608MOL0     H82024  11.312   6.178   5.437  1.5306  0.0933 -1.8252
  608MOL0     H82025  11.485   6.351   5.497  1.2674  0.8311 -0.8442
  608MOL0     H82026  11.584   6.213   5.563 -0.8978 -0.9498  0.1129
  608MOL0     H82027  11.480   6.230   5.278  0.9418  0.9134  0.5521
  608MOL0     H82028  11.622   6.127   5.336  2.5137  1.0285  0.4711
  608MOL0     H82029  11.643   6.429   5.366  1.4969  1.7872 -1.0636
  608MOL0     H82030  11.763   6.300   5.380 -1.0335  0.1618  2.0854
  608MOL0     H82031  11.629   6.562   5.145 -2.1552  0.3731 -1.3221
  608MOL0     H82032  11.735   6.624   4.926 -1.9306  0.6791 -1.6196
  608MOL0     H82033  11.815   6.506   4.810 -0.4264  0.4814 -2.0130
  608MOL0     H82034  11.612   6.450   4.702 -1.7027  2.2474 -1.4786
  608MOL0     H82035  11.517   6.519   4.828  0.5864 -0.2266  1.4840
  608MOL0     H82036  11.625   6.744   4.742  2.6797 -1.5642  1.2088
  608MOL0     H82037  11.511   6.660   4.628 -2.5253 -2.2390  1.4414
  608MOL0     H82038  11.705   6.743   4.508  0.6236 -2.0193 -2.9844
  608MOL0     H82039  11.738   6.570   4.526 -1.3102  0.4689 -0.8129
  608MOL0     H82040  11.913   6.757   4.398  1.8327  1.2214 -1.9896
  608MOL0     H82041  12.131   6.706   4.302 -1.8529 -1.8161 -1.3075
  608MOL0     H82042  12.611   6.676   4.309 -0.3601 -1.5152 -0.6066
  608MOL0     H82043  12.821   6.576   4.230  0.4011 -1.2972 -0.2016
  608MOL0     H82044  13.057   6.505   4.237  1.2614  1.0222  1.1819
  608MOL0     H82045  13.057   6.516   4.422 -1.1960 -0.3915  0.2990
  608MOL0     H82046  13.193   6.320   4.254 -4.0930 -3.3065  1.7591
  608MOL0     H82047  13.264   6.443   4.367  1.0519 -1.1825 -0.7918
  608MOL0     H82048  13.162   6.328   4.555  0.6759 -2.1557  1.7498
  608MOL0     H82049  13.110   6.201   4.441 -0.1214 -0.9705  3.2386
  608MOL0     H82050  13.390   6.268   4.524 -1.1360  1.0679 -0.9082
  608MOL0     H82051  13.356   6.163   4.392 -0.2028  2.1244 -1.8177
  608MOL0     H82052  13.307   6.128   4.690  2.5700  1.7283 -0.3950
  608MOL0     H82053  13.414   6.044   4.590  1.0617  1.7309  0.2505
  608MOL0     H82054  13.113   6.026   4.546 -0.6287  0.6308  0.1249
  608MOL0     H82055  13.243   5.923   4.467  0.9706  0.2008  1.2790
  608MOL0     H82056  13.109   5.903   4.734 -0.0020  2.4225 -0.6061
  608MOL0     H82057  13.282   5.933   4.759  0.8562 -0.0253 -0.6841
  608MOL0     H82058  13.225   5.681   4.752  0.6220  0.8098  0.9724
  608MOL0     H82059  13.174   5.706   4.584 -0.0612  2.6337 -1.2996
  608MOL0     H82060  12.782   6.245   4.499 -1.3226 -1.5392 -1.6290
  608MOL0     H82061  12.560   6.356   4.581 -1.2863 -0.6812  0.4376
  608MOL0     H82062  12.273   6.578   4.691  2.5618  0.2283 -1.7469
  608MOL0     H82063  12.052   6.632   4.782 -0.4003 -2.7606  0.3104
  608MOL0     H82064  10.881   6.144   5.990  2.2890 -1.0213 -0.8974
  608MOL0     H82065  10.664   6.095   6.088  1.6823  0.8761  1.3363
  608MOL0     H82066  10.498   5.911   6.332 -1.0025 -0.0692  2.0312
  608MOL0     H82067  10.355   5.831   6.516  2.6068  0.5602 -0.4827
  608MOL0     H82068  10.008   5.681   6.602 -3.6662  1.1318 -1.4353
  608MOL0     H82069  10.149   5.648   6.493  0.7899  0.3146 -3.6020
  608MOL0     H82070   9.955   5.533   6.402  2.6432  0.2101 -0.9619
  608MOL0     H82071   9.989   5.660   6.287  0.6052 -1.4749 -0.7288
  608MOL0     H82072   9.796   5.805   6.388  0.3820  0.2689 -0.6615
  608MOL0     H82073   9.739   5.666   6.464 -1.4275  0.0530 -2.6876
  608MOL0     H82074   9.751   5.520   6.261 -1.0101 -0.8323 -1.6401
  608MOL0     H82075   9.632   5.644   6.256  0.0095  0.2857 -0.1189
  608MOL0     H82076   9.873   5.799   5.953 -5.8960  1.1352 -1.9830
  608MOL0     H82077  10.020   5.871   6.262  0.1645 -3.0790 -3.1343
  608MOL0     H82078  10.215   5.877   5.940 -0.4134 -2.8832 -0.0042
  608MOL0     H82079  10.092   5.797   6.034  3.4400 -2.0672 -1.1559
  608MOL0     H82080  10.083   5.976   5.996 -0.2615  0.2695  3.0108
  609MOL0     O82081   9.142   0.569  10.341  0.2415  0.4758 -0.5818
  609MOL0     C82082   9.258   0.544  10.309 -0.2314  0.0012 -0.5080
  609MOL0     O82083   9.300   0.476  10.199  0.0635  0.3349  0.3236
  609MOL0     C82084   9.200   0.418  10.130  0.0244  0.8716  0.5349
  609MOL0     C82085   9.134   0.465  10.019 -0.2908  0.2180  0.5877
  609MOL0     C82086   9.024   0.405   9.955 -0.6422 -0.2116  0.7550
  609MOL0     C82087   8.976   0.287  10.004 -0.1284  0.5231 -0.6651
  609MOL0     O82088   8.884   0.208   9.944 -0.1441  0.3151  0.5338
  609MOL0     C82089   8.774   0.267   9.880  1.0295 -0.1844  0.2330
  609MOL0     C82090   8.651   0.170   9.880 -0.4339 -0.2099  0.2280
  609MOL0     C82091   8.684   0.027   9.841  0.0479 -0.7161  0.0397
  609MOL0     C82092   8.731   0.022   9.690 -0.0673  0.2545  0.4582
  609MOL0     C82093   8.602   0.012   9.604 -0.5204  0.3620  0.5562
  609MOL0     C82094   8.636   0.008   9.458 -0.0530 -0.3446 -1.2209
  609MOL0     C82095   8.500  -0.006   9.383 -0.0209  0.4590  0.2178
  609MOL0     C82096   8.495   0.003   9.228  0.6471 -0.6291  0.9606
  609MOL0     N82097   8.539   0.135   9.186  1.3477  0.3915 -0.9659
  609MOL0     C82098   8.620   0.148   9.085  0.1399 -0.2183  0.6280
  609MOL0     C82099   8.628   0.284   9.061  0.3313 -0.5305 -0.1694
  609MOL0     C82100   8.717   0.349   8.956  0.8886 -0.3940  0.0221
  609MOL0     C82101   8.840   0.283   8.909  0.6055  0.0155  0.3795
  609MOL0     C82102   8.924   0.374   8.829  0.1426  0.3145  0.3675
  609MOL0     C82103   9.067   0.312   8.794 -0.3806  0.3308  0.3252
  609MOL0     O82104   9.141   0.402   8.712  0.0142 -0.3837  0.2290
  609MOL0     C82105   9.270   0.380   8.689 -0.3207  0.3492  0.5361
  609MOL0     C82106   9.354   0.490   8.678 -0.5183  0.4132  0.6609
  609MOL0     C82107   9.496   0.482   8.658  0.3058 -0.5394 -0.3619
  609MOL0     C82108   9.556   0.354   8.671  0.2045  0.3773  0.0300
  609MOL0     C82109   9.703   0.347   8.673  0.4202  0.3441 -0.5926
  609MOL0     O82110   9.772   0.456   8.648  0.5574  0.0616 -0.3984
  609MOL0     C82111   9.889   0.454   8.588 -0.1651 -0.8450  0.2251
  609MOL0     C82112   9.908   0.499   8.452 -0.2237 -0.6965 -0.0736
  609MOL0     C82113  10.041   0.510   8.393 -0.3279  0.1864 -0.8976
  609MOL0     C82114  10.153   0.482   8.476 -0.4741  0.5649  0.2431
  609MOL0     O82115  10.278   0.506   8.421  0.0018  0.4049  0.2095
  609MOL0     C82116  10.390   0.435   8.482 -0.2148  0.1258 -0.0418
  609MOL0     C82117  10.390   0.285   8.492 -0.0038  0.0925  0.0703
  609MOL0     C82118  10.537   0.232   8.513  1.2973  0.2486 -0.4671
  609MOL0     C82119  10.619   0.231   8.379  0.6976 -0.6445  0.7094
  609MOL0     C82120  10.751   0.175   8.400  0.6967  0.7179  0.2645
  609MOL0     C82121  10.770   0.042   8.475 -0.4420  0.9450  0.3652
  609MOL0     C82122  10.899  -0.027   8.444  0.4074  0.1715 -0.3456
  609MOL0     C82123  10.925  -0.147   8.532 -0.5422  0.6412 -0.1654
  609MOL0    Cl82124  11.091  -0.175   8.559  0.2028 -0.1465  0.0561
  609MOL0     C82125  10.136   0.442   8.611 -0.5047 -0.1410 -0.4935
  609MOL0     C82126  10.006   0.426   8.668 -0.4489  0.0161  0.1110
  609MOL0     O82127   9.754   0.235   8.697  0.6402  0.1624 -0.1597
  609MOL0     C82128   9.464   0.246   8.664 -0.5031  0.2221  0.5546
  609MOL0     C82129   9.328   0.255   8.664  0.3743  0.6492 -0.7008
  609MOL0     N82130   8.542   0.346   9.151  0.0491 -0.3169  0.7807
  609MOL0     N82131   8.489   0.255   9.226 -0.2267  0.1530  0.6802
  609MOL0     C82132   9.039   0.238  10.118 -0.1623 -0.1686 -0.1356
  609MOL0     C82133   9.144   0.300  10.178 -0.7635  0.2063  0.0560
  609MOL0     C82134   9.366   0.609  10.396  0.3162 -0.6662 -0.5316
  609MOL0     C82135   9.351   0.745  10.427 -1.1738 -0.3192  1.1366
  609MOL0     C82136   9.455   0.811  10.493  0.4021 -0.8121  0.2840
  609MOL0     C82137   9.573   0.750  10.543  0.2509  0.1157 -0.6852
  609MOL0     O82138   9.666   0.816  10.621 -0.0258  0.9512 -0.3511
  609MOL0     C82139   9.788   0.750  10.680  0.3624 -0.8121 -0.4459
  609MOL0     C82140   9.764   0.746  10.830  0.0636 -0.1607  0.5687
  609MOL0     C82141   9.859   0.656  10.900 -0.1017 -0.0537 -0.1429
  609MOL0     C82142   9.849   0.666  11.052  1.1818  0.1391  0.1421
  609MOL0     C82143   9.708   0.646  11.099  0.3181 -0.2456  0.4750
  609MOL0     C82144   9.603   0.635  11.156 -0.2787  0.5448  1.1039
  609MOL0     C82145   9.581   0.616  10.522 -1.3180  0.0451  0.3907
  609MOL0     C82146   9.478   0.542  10.448 -0.5988 -0.3594 -0.3395
  609MOL0     C82147   9.504   0.402  10.414  0.6779  0.4609 -1.0197
  609MOL0     H82148   9.169   0.564   9.990  0.5405 -0.0579  0.6251
  609MOL0     H82149   8.979   0.443   9.865 -1.3376 -2.7734 -0.0596
  609MOL0     H82150   8.741   0.366   9.915  2.1960  1.6256 -3.3148
  609MOL0     H82151   8.802   0.286   9.776  2.3291  0.1269  0.6124
  609MOL0     H82152   8.574   0.207   9.812  0.4600  3.6587  1.0964
  609MOL0     H82153   8.606   0.171   9.979  1.5288 -2.5781  1.2503
  609MOL0     H82154   8.598  -0.040   9.851 -1.6240  1.1640 -0.8790
  609MOL0     H82155   8.764  -0.012   9.903 -0.3308  0.3790  1.2572
  609MOL0     H82156   8.792   0.108   9.663 -0.2261 -0.5497 -2.8841
  609MOL0     H82157   8.785  -0.073   9.680 -0.3153 -0.1560  2.5351
  609MOL0     H82158   8.534  -0.070   9.628 -2.1141  0.9526 -1.6459
  609MOL0     H82159   8.539   0.101   9.612 -0.0456  1.2308 -3.4349
  609MOL0     H82160   8.688   0.102   9.439 -0.6410  0.2482  0.0397
  609MOL0     H82161   8.698  -0.081   9.443 -0.1906 -1.1576  2.1909
  609MOL0     H82162   8.430   0.068   9.424  0.3705  1.4998 -0.9311
  609MOL0     H82163   8.452  -0.101   9.407 -0.0544  0.2199 -0.7902
  609MOL0     H82164   8.576  -0.059   9.188  1.9574  2.0407 -0.7591
  609MOL0     H82165   8.405  -0.035   9.178  0.6156  2.8974 -2.0671
  609MOL0     H82166   8.666   0.082   9.012 -1.9078 -0.2866 -0.6654
  609MOL0     H82167   8.655   0.359   8.866  1.3027  0.4174 -0.1835
  609MOL0     H82168   8.729   0.442   9.012 -0.0056 -2.2434  3.5688
  609MOL0     H82169   8.892   0.241   8.996 -1.3526 -1.6211  0.8431
  609MOL0     H82170   8.810   0.200   8.844 -0.0448  2.5531 -2.8467
  609MOL0     H82171   8.936   0.462   8.893 -1.7535  1.9010 -1.3176
  609MOL0     H82172   8.884   0.404   8.732  1.7371 -1.7166 -1.0246
  609MOL0     H82173   9.058   0.217   8.740  0.4115  0.7438 -0.5703
  609MOL0     H82174   9.117   0.284   8.887  3.8729 -1.7621 -2.2994
  609MOL0     H82175   9.307   0.588   8.675  0.7541  1.1118  1.9581
  609MOL0     H82176   9.551   0.575   8.653  1.9849 -1.3418  1.7072
  609MOL0     H82177   9.822   0.523   8.391  0.1631  0.3591 -0.2147
  609MOL0     H82178  10.050   0.548   8.292 -2.3156  2.7319 -0.2241
  609MOL0     H82179  10.482   0.458   8.426  0.4852  0.0250  1.0475
  609MOL0     H82180  10.404   0.482   8.580 -0.8948  1.8860 -0.7431
  609MOL0     H82181  10.327   0.240   8.569  1.2657 -2.1891 -0.1323
  609MOL0     H82182  10.337   0.254   8.401 -0.1727 -0.3197  0.3033
  609MOL0     H82183  10.582   0.285   8.598 -0.1295  1.1038 -0.2071
  609MOL0     H82184  10.522   0.128   8.544 -1.8810 -0.3013 -3.2870
  609MOL0     H82185  10.636   0.333   8.344 -0.3917  0.4808  3.2563
  609MOL0     H82186  10.565   0.175   8.302  1.0592 -0.2971  0.1965
  609MOL0     H82187  10.811   0.242   8.462  0.3095 -0.2103  1.7006
  609MOL0     H82188  10.791   0.157   8.300 -1.2417 -3.1047 -0.0201
  609MOL0     H82189  10.752   0.063   8.581  1.1951  4.2387  0.1302
  609MOL0     H82190  10.693  -0.025   8.435  1.7660 -1.2527 -0.4440
  609MOL0     H82191  10.985   0.039   8.427  0.5273  0.2786  0.6311
  609MOL0     H82192  10.876  -0.076   8.349  0.6527 -1.2607  0.3157
  609MOL0     H82193  10.876  -0.130   8.628  0.7634  0.8748  0.4854
  609MOL0     H82194  10.888  -0.244   8.499  0.2222  0.6049 -0.9534
  609MOL0     H82195  10.225   0.422   8.671  0.3429  2.6716 -0.6634
  609MOL0     H82196   9.998   0.400   8.773  3.0075  0.2039  0.5409
  609MOL0     H82197   9.505   0.145   8.662 -3.0870 -0.9348 -1.9532
  609MOL0     H82198   9.265   0.171   8.638  1.9994 -0.9307  0.2439
  609MOL0     H82199   9.010   0.137  10.145 -0.6596  0.2280  0.8343
  609MOL0     H82200   9.191   0.253  10.263 -1.2199 -3.6720 -1.6427
  609MOL0     H82201   9.258   0.786  10.388 -0.2341 -0.4579 -1.4854
  609MOL0     H82202   9.452   0.918  10.510  2.0093 -0.9241  1.4834
  609MOL0     H82203   9.873   0.818  10.672 -1.4933  2.1466  2.4615
  609MOL0     H82204   9.807   0.650  10.639 -1.8694 -0.9233 -1.3250
  609MOL0     H82205   9.659   0.722  10.848 -1.0232  1.2651 -3.0086
  609MOL0     H82206   9.765   0.844  10.879 -1.6084 -0.4354  1.2001
  609MOL0     H82207   9.962   0.657  10.863 -0.5228 -3.3593 -1.8071
  609MOL0     H82208   9.832   0.554  10.871  3.7788 -1.3491  0.2242
  609MOL0     H82209   9.904   0.584  11.099 -0.5454 -0.7623  0.7048
  609MOL0     H82210   9.883   0.761  11.093  0.9127  0.1972  0.2366
  609MOL0     H82211   9.499   0.622  11.177 -0.9105  0.2066 -1.7340
  609MOL0     H82212   9.666   0.551  10.533 -1.0314  0.4711  0.7190
  609MOL0     H82213   9.571   0.419  10.329  2.6923 -0.7677  0.2261
  609MOL0     H82214   9.565   0.352  10.490  2.5180  1.7828 -1.5625
  609MOL0     H82215   9.414   0.346  10.388  0.7758  0.8780 -2.3471
  610MOL0     O82216   0.772   7.678   8.306 -0.0938 -0.0334  0.3450
  610MOL0     C82217   0.728   7.563   8.295 -0.1244  0.4027 -0.6428
  610MOL0     O82218   0.770   7.473   8.202 -0.2834  0.0612 -0.0456
  610MOL0     C82219   0.825   7.532   8.091  0.8129 -0.1957 -0.0172
  610MOL0     C82220   0.948   7.490   8.038  0.8054 -0.8989  0.4257
  610MOL0     C82221   0.990   7.544   7.915 -0.1945  0.0259 -0.2254
  610MOL0     C82222   0.911   7.626   7.836  0.0537  0.1612  0.1193
  610MOL0     O82223   0.945   7.644   7.704 -0.2002 -0.2770 -0.1108
  610MOL0     C82224   0.927   7.772   7.641 -0.4268 -0.3513  0.1404
  610MOL0     C82225   0.929   7.772   7.490  0.6755 -0.7835  0.3616
  610MOL0     C82226   0.903   7.908   7.422 -0.3756 -0.4692  0.4715
  610MOL0     C82227   1.017   8.015   7.432  0.1628 -0.3802 -0.1822
  610MOL0     C82228   0.966   8.156   7.387 -0.0248 -0.1042 -0.4880
  610MOL0     C82229   1.091   8.259   7.369 -0.7402 -0.3653 -0.0393
  610MOL0     C82230   1.025   8.400   7.383  0.2048  0.5811  0.3299
  610MOL0     C82231   0.950   8.448   7.263  0.2819  0.9090  0.2678
  610MOL0     N82232   0.928   8.593   7.277  0.1378  0.1841 -0.4368
  610MOL0     C82233   0.829   8.652   7.352 -0.0768 -0.5100  0.0124
  610MOL0     C82234   0.862   8.785   7.334  0.0332 -0.5056  0.3725
  610MOL0     C82235   0.774   8.895   7.382 -0.0901  0.7211 -0.9522
  610MOL0     C82236   0.819   8.965   7.521 -0.3864 -0.1084 -0.5924
  610MOL0     C82237   0.738   9.088   7.555 -0.6064 -0.3680 -0.4411
  610MOL0     C82238   0.785   9.143   7.686  0.5364 -0.2288  0.7035
  610MOL0     O82239   0.705   9.266   7.688  0.2861 -0.1644 -0.6182
  610MOL0     C82240   0.593   9.261   7.771  0.2446  0.8902 -0.5898
  610MOL0     C82241   0.548   9.386   7.808  0.4524  0.0461 -0.3019
  610MOL0     C82242   0.423   9.402   7.868 -1.0760  0.7330 -0.4954
  610MOL0     C82243   0.345   9.296   7.891 -0.7225  0.5842 -0.1101
  610MOL0     C82244   0.207   9.326   7.941  0.2584 -0.2520  0.6638
  610MOL0     O82245   0.130   9.217   7.979 -0.0488 -0.1516  0.0604
  610MOL0     C82246   0.010   9.250   8.030  0.7438 -0.0605  0.0328
  610MOL0     C82247  -0.011   9.281   8.163  0.4886 -0.8267 -0.3594
  610MOL0     C82248  -0.143   9.311   8.211 -0.0262 -0.3161 -0.5435
  610MOL0     C82249  -0.254   9.308   8.127  0.0634  1.5797 -0.8000
  610MOL0     O82250  -0.381   9.336   8.180 -0.4904  0.3306  0.1187
  610MOL0     C82251  -0.473   9.384   8.093  0.2140 -0.3714  0.7033
  610MOL0     C82252  -0.612   9.344   8.158  0.2965 -1.1082 -0.0329
  610MOL0     C82253  -0.744   9.347   8.061  0.0601 -0.1412  0.1118
  610MOL0     C82254  -0.870   9.289   8.128  0.6533  0.0994  0.7009
  610MOL0     C82255  -0.991   9.336   8.042 -0.3550  0.1302  0.6477
  610MOL0     C82256  -1.115   9.272   8.108 -0.5832 -0.4937  0.5982
  610MOL0     C82257  -1.251   9.307   8.041 -0.0029  0.1191  0.1330
  610MOL0     C82258  -1.352   9.196   8.047 -0.2154  0.1466 -0.5558
  610MOL0    Cl82259  -1.306   9.063   7.934 -0.3655 -0.1118 -0.0095
  610MOL0     C82260  -0.227   9.263   7.994 -0.5083 -0.6420 -0.7263
  610MOL0     C82261  -0.097   9.240   7.946  0.2763 -0.1982  0.0798
  610MOL0     O82262   0.162   9.444   7.952 -0.4206 -0.1678 -0.0606
  610MOL0     C82263   0.388   9.168   7.851 -0.4702  0.1924 -0.4389
  610MOL0     C82264   0.514   9.146   7.796  0.6259 -0.1513  0.8480
  610MOL0     N82265   0.975   8.810   7.252 -0.5704  0.6836  0.1578
  610MOL0     N82266   1.001   8.689   7.210 -0.2075  0.8452 -0.1777
  610MOL0     C82267   0.778   7.658   7.883 -0.3784  1.0576  0.1294
  610MOL0     C82268   0.741   7.607   8.000  0.5996 -0.2244 -0.2099
  610MOL0     C82269   0.655   7.505   8.409 -0.3729 -0.0321 -0.5189
  610MOL0     C82270   0.553   7.415   8.386 -0.1501 -0.7947  0.2210
  610MOL0     C82271   0.470   7.371   8.490  0.1355  0.9748  0.0574
  610MOL0     C82272   0.488   7.419   8.619 -0.2528 -0.0737 -0.5994
  610MOL0     O82273   0.419   7.381   8.731 -0.4335 -0.4626 -0.4691
  610MOL0     C82274   0.349   7.257   8.731  0.3233  0.1463 -0.1754
  610MOL0     C82275   0.306   7.230   8.873 -0.4889 -0.1262  1.0031
  610MOL0     C82276   0.250   7.083   8.894  0.6159  0.4677  0.2722
  610MOL0     C82277   0.180   7.076   9.036 -0.3009  0.2294  0.3460
  610MOL0     C82278   0.048   7.136   9.040  0.9122 -0.5788  0.0788
  610MOL0     C82279  -0.067   7.185   9.042 -0.4632  0.1678  0.8186
  610MOL0     C82280   0.593   7.512   8.640  0.5637 -0.2263 -0.2311
  610MOL0     C82281   0.676   7.554   8.546 -1.0396 -0.6700  0.6857
  610MOL0     C82282   0.790   7.650   8.584 -0.0583  0.0748  0.7412
  610MOL0     H82283   1.008   7.414   8.089  2.4312 -1.8045 -2.6056
  610MOL0     H82284   1.084   7.516   7.868 -1.1281  2.0786 -3.6795
  610MOL0     H82285   0.839   7.823   7.682 -0.5993  0.9843 -1.7536
  610MOL0     H82286   1.010   7.835   7.675  0.0722 -0.1358 -1.4291
  610MOL0     H82287   0.839   7.713   7.471  1.3706 -2.3357  1.6200
  610MOL0     H82288   1.006   7.718   7.435 -0.1030  2.0671 -4.0438
  610MOL0     H82289   0.808   7.945   7.464 -1.4048 -1.2001 -1.1259
  610MOL0     H82290   0.891   7.889   7.315  1.6215 -0.3671  0.2021
  610MOL0     H82291   1.054   8.022   7.535 -1.5689  1.0611  0.3961
  610MOL0     H82292   1.099   7.984   7.366  0.4914 -2.0599  0.9363
  610MOL0     H82293   0.907   8.151   7.295  1.0927 -1.8846 -1.1473
  610MOL0     H82294   0.905   8.203   7.465 -1.4634  1.6705 -2.5510
  610MOL0     H82295   1.171   8.237   7.440 -1.5944 -2.4194  0.3556
  610MOL0     H82296   1.137   8.259   7.269 -4.9668  0.2812 -2.2202
  610MOL0     H82297   1.104   8.473   7.402 -2.3913  4.4738 -2.2012
  610MOL0     H82298   0.953   8.398   7.464 -1.0794 -0.4295 -0.7900
  610MOL0     H82299   1.015   8.416   7.181  2.0050  2.6063  0.9075
  610MOL0     H82300   0.854   8.398   7.249  1.5607 -0.9821 -2.8630
  610MOL0     H82301   0.740   8.606   7.394  0.9225 -2.5831  0.0261
  610MOL0     H82302   0.763   8.961   7.296 -2.3975 -0.6743 -1.8285
  610MOL0     H82303   0.677   8.845   7.396 -0.3671  1.5621  0.2534
  610MOL0     H82304   0.802   8.899   7.607  1.1396  1.6911  1.1876
  610MOL0     H82305   0.918   9.009   7.504  0.4074 -1.4646  0.3484
  610MOL0     H82306   0.630   9.076   7.573 -1.1112  1.9386 -1.5315
  610MOL0     H82307   0.766   9.158   7.475 -1.8170  2.0356  1.0933
  610MOL0     H82308   0.893   9.160   7.673  0.6177 -1.3567 -0.2521
  610MOL0     H82309   0.764   9.072   7.767 -1.9374 -1.5155 -0.9621
  610MOL0     H82310   0.618   9.468   7.792 -0.3267  0.5621 -1.2754
  610MOL0     H82311   0.396   9.504   7.897 -0.7021  0.1449  2.1306
  610MOL0     H82312   0.070   9.294   8.235  0.8277 -0.0227 -0.8780
  610MOL0     H82313  -0.162   9.341   8.314  0.5435 -0.8303 -0.2800
  610MOL0     H82314  -0.463   9.492   8.094 -0.5503 -0.2917  0.2782
  610MOL0     H82315  -0.469   9.346   7.991  0.8179  0.8925  0.2404
  610MOL0     H82316  -0.609   9.241   8.194 -3.4648 -0.5618  2.4147
  610MOL0     H82317  -0.620   9.404   8.249  0.3283 -0.3514 -0.5254
  610MOL0     H82318  -0.763   9.451   8.033 -0.0577 -0.7809 -2.3734
  610MOL0     H82319  -0.729   9.299   7.964  0.5466  0.1956  0.0159
  610MOL0     H82320  -0.883   9.331   8.228 -5.3064  1.8542 -0.4415
  610MOL0     H82321  -0.867   9.180   8.120  0.4924  0.1600 -0.1952
  610MOL0     H82322  -0.985   9.300   7.939 -2.0774  0.0450  0.5532
  610MOL0     H82323  -0.987   9.445   8.039 -1.0969  0.1317 -2.0688
  610MOL0     H82324  -1.107   9.165   8.087  1.5929 -0.3488  0.5248
  610MOL0     H82325  -1.116   9.296   8.215 -3.3416 -0.4837  0.6580
  610MOL0     H82326  -1.238   9.335   7.936 -0.1367 -1.6211 -0.3734
  610MOL0     H82327  -1.284   9.401   8.087  0.3742  1.1521 -1.6468
  610MOL0     H82328  -1.370   9.157   8.148  1.1381 -1.2968 -0.8325
  610MOL0     H82329  -1.443   9.238   8.005 -0.0634  0.5450 -0.4927
  610MOL0     H82330  -0.306   9.266   7.920 -1.5660  1.3182  0.3820
  610MOL0     H82331  -0.093   9.209   7.842 -0.1284 -3.3012  0.8650
  610MOL0     H82332   0.342   9.070   7.859  2.5806 -1.5337 -2.3151
  610MOL0     H82333   0.539   9.042   7.779  0.9281  0.2185 -1.2516
  610MOL0     H82334   0.711   7.714   7.819  0.0800  1.5607  0.0855
  610MOL0     H82335   0.641   7.620   8.040  0.9248  0.8373  0.3051
  610MOL0     H82336   0.548   7.395   8.279 -0.8219  0.3900  0.0098
  610MOL0     H82337   0.403   7.290   8.465  0.0617  0.2598  2.3334
  610MOL0     H82338   0.405   7.169   8.697 -0.3612 -2.8641  5.1813
  610MOL0     H82339   0.257   7.259   8.672 -0.0267 -1.6815  0.2500
  610MOL0     H82340   0.225   7.300   8.894 -0.1621  0.4703  0.3262
  610MOL0     H82341   0.396   7.253   8.931  0.0046  1.7878 -0.4465
  610MOL0     H82342   0.323   7.002   8.892  0.7734  0.6243 -0.2982
  610MOL0     H82343   0.166   7.060   8.828 -1.3771  0.9358  2.4703
  610MOL0     H82344   0.161   6.973   9.065 -2.5151  0.7270  0.8062
  610MOL0     H82345   0.247   7.121   9.110  2.3700  2.8650 -3.2534
  610MOL0     H82346  -0.163   7.227   9.064 -0.5034  0.6264 -0.2041
  610MOL0     H82347   0.605   7.553   8.739 -1.4696 -3.1032  1.3791
  610MOL0     H82348   0.875   7.619   8.523 -0.9315 -1.9425  0.4585
  610MOL0     H82349   0.775   7.757   8.571 -0.3268  0.2529  2.3305
  610MOL0     H82350   0.824   7.638   8.687 -0.5356  1.0111  1.0212
  611MOL0     O82351   3.144   5.148   1.453  0.5095 -0.0512 -0.3518
  611MOL0     C82352   3.053   5.122   1.377 -0.2568  0.4807 -0.6381
  611MOL0     O82353   3.064   5.100   1.240  0.2764  0.3097 -0.1486
  611MOL0     C82354   3.187   5.124   1.186  1.0014  0.2429  0.6881
  611MOL0     C82355   3.264   5.019   1.142 -0.5833 -0.0006 -0.0720
  611MOL0     C82356   3.388   5.044   1.072 -0.3861 -0.1282 -0.3686
  611MOL0     C82357   3.428   5.178   1.053 -1.0473 -0.6390  0.8759
  611MOL0     O82358   3.546   5.204   0.988  0.1344  0.1541  0.7677
  611MOL0     C82359   3.661   5.184   1.076  0.0136 -0.9516 -0.5380
  611MOL0     C82360   3.790   5.197   0.999  0.1557  0.5178 -0.7749
  611MOL0     C82361   3.892   5.098   1.056 -0.3268  0.0464  0.2592
  611MOL0     C82362   4.041   5.144   1.025 -0.0828  0.5585  0.2513
  611MOL0     C82363   4.146   5.030   1.050 -0.0830 -1.0797 -0.6220
  611MOL0     C82364   4.282   5.098   1.078 -0.2244 -0.7508  0.7914
  611MOL0     C82365   4.378   4.984   1.101  0.4643 -1.4431 -0.3325
  611MOL0     C82366   4.519   5.035   1.154  0.5067 -0.7287 -1.1577
  611MOL0     N82367   4.587   5.124   1.071  0.3217  0.1315 -0.2586
  611MOL0     C82368   4.657   5.237   1.113  0.6878  0.3899 -0.2384
  611MOL0     C82369   4.711   5.290   1.004 -0.1734  0.5425  0.0108
  611MOL0     C82370   4.804   5.411   0.984 -0.4086 -0.3952 -1.1339
  611MOL0     C82371   4.949   5.373   0.977  0.0747  0.3679 -0.0798
  611MOL0     C82372   5.034   5.493   1.003  0.0130 -0.4380 -0.7924
  611MOL0     C82373   5.177   5.479   0.948  0.6542  0.3152 -0.2508
  611MOL0     O82374   5.234   5.371   1.009 -0.6112  0.1076  0.2058
  611MOL0     C82375   5.367   5.359   0.984  0.3339 -0.0107  0.8263
  611MOL0     C82376   5.430   5.260   1.057  0.3423  0.3315  0.0343
  611MOL0     C82377   5.570   5.253   1.060 -0.3548  0.1844  0.1807
  611MOL0     C82378   5.648   5.334   0.983 -0.3681 -0.6853 -0.5577
  611MOL0     C82379   5.793   5.328   0.992  0.3439  0.0464 -0.8563
  611MOL0     O82380   5.848   5.209   1.042  0.1439  0.1868 -0.2128
  611MOL0     C82381   5.976   5.170   1.011 -0.1950 -0.2955  0.1807
  611MOL0     C82382   5.995   5.062   0.935 -1.0573  0.4684 -0.7948
  611MOL0     C82383   6.122   5.024   0.887  0.9291 -0.6661 -1.1370
  611MOL0     C82384   6.233   5.093   0.923  0.3153  0.6920  0.5023
  611MOL0     O82385   6.345   5.053   0.863  0.2809 -0.1660  0.9789
  611MOL0     C82386   6.464   5.075   0.944 -0.5612  0.7615 -0.6809
  611MOL0     C82387   6.580   4.994   0.884  0.0059  0.6475 -0.2800
  611MOL0     C82388   6.564   4.845   0.914  0.2807  0.2317  0.0604
  611MOL0     C82389   6.696   4.775   0.876  0.1492  0.1116 -0.0729
  611MOL0     C82390   6.668   4.628   0.868 -0.4033 -0.9325 -0.1801
  611MOL0     C82391   6.611   4.579   0.726 -0.5525 -0.2518  0.3693
  611MOL0     C82392   6.717   4.602   0.623 -0.0827 -0.5487 -0.0214
  611MOL0     C82393   6.671   4.699   0.519 -0.7340 -0.0922  0.8376
  611MOL0    Cl82394   6.548   4.622   0.423  0.0781 -0.2034  0.4930
  611MOL0     C82395   6.212   5.213   0.996 -0.2177 -0.1140 -0.7041
  611MOL0     C82396   6.081   5.255   1.036 -0.6419 -0.1392  0.9484
  611MOL0     O82397   5.856   5.423   0.949  0.0615  0.0275  0.6620
  611MOL0     C82398   5.583   5.436   0.913  0.9033 -0.5737 -0.0855
  611MOL0     C82399   5.445   5.442   0.904 -1.0155 -0.0720  0.0938
  611MOL0     N82400   4.662   5.215   0.893 -0.2349 -0.1863 -0.1889
  611MOL0     N82401   4.595   5.118   0.935  0.3593 -0.3803  0.9084
  611MOL0     C82402   3.343   5.278   1.089 -0.2824 -0.6404  0.3723
  611MOL0     C82403   3.221   5.249   1.147  0.5818 -0.7381 -0.5722
  611MOL0     C82404   2.918   5.081   1.433  0.0324  0.9346  0.0604
  611MOL0     C82405   2.830   4.998   1.356  0.7845 -0.6066 -0.4460
  611MOL0     C82406   2.700   4.973   1.403 -0.0791 -0.1391 -1.0517
  611MOL0     C82407   2.663   5.021   1.524  0.2295 -0.3572 -0.4104
  611MOL0     O82408   2.535   4.979   1.561 -0.5716 -0.3764  0.5267
  611MOL0     C82409   2.532   4.908   1.684  0.7089  0.0066 -0.4882
  611MOL0     C82410   2.595   4.776   1.680 -0.1730  0.9942 -0.7863
  611MOL0     C82411   2.608   4.729   1.829 -0.1681 -0.3979 -0.4362
  611MOL0     C82412   2.691   4.594   1.824  0.7166  0.1302  0.6871
  611MOL0     C82413   2.678   4.527   1.953  0.0509  0.6615 -0.2074
  611MOL0     C82414   2.648   4.466   2.057  0.4285  0.9522 -0.1401
  611MOL0     C82415   2.740   5.114   1.596  0.4592  0.9465  0.5243
  611MOL0     C82416   2.870   5.140   1.556 -0.5219 -0.1125  0.1607
  611MOL0     C82417   2.940   5.245   1.636  0.3753 -0.5554  0.6504
  611MOL0     H82418   3.232   4.917   1.160  0.0173 -0.4399 -1.3486
  611MOL0     H82419   3.447   4.957   1.044 -1.8620 -0.8567 -1.3051
  611MOL0     H82420   3.669   5.269   1.144  0.0330  0.0513 -1.7630
  611MOL0     H82421   3.653   5.088   1.129  0.9027 -1.2061 -0.8502
  611MOL0     H82422   3.832   5.298   1.000 -0.9602  0.9994 -1.0736
  611MOL0     H82423   3.772   5.166   0.895 -0.0289  0.3576 -0.6959
  611MOL0     H82424   3.885   4.997   1.015 -1.7824 -0.6303  2.0437
  611MOL0     H82425   3.882   5.093   1.165 -0.5598  4.5468  0.6109
  611MOL0     H82426   4.049   5.175   0.921  0.7368 -0.6033 -0.0549
  611MOL0     H82427   4.069   5.224   1.095  0.9946 -2.9265  4.2275
  611MOL0     H82428   4.119   4.986   1.147 -0.3715  4.4055  2.2307
  611MOL0     H82429   4.152   4.965   0.963  0.5132  1.5892 -2.7010
  611MOL0     H82430   4.318   5.164   1.000  2.2047 -1.3100  1.3681
  611MOL0     H82431   4.270   5.160   1.167 -1.2121  0.6354 -0.2619
  611MOL0     H82432   4.399   4.948   1.000 -2.0281  0.7116 -1.7441
  611MOL0     H82433   4.334   4.900   1.155  0.6868 -1.3312  0.0247
  611MOL0     H82434   4.496   5.087   1.247 -4.3472 -0.7675 -2.0723
  611MOL0     H82435   4.582   4.950   1.182  0.6249 -0.5888 -0.9969
  611MOL0     H82436   4.665   5.281   1.212  1.9231  2.4976 -1.2110
  611MOL0     H82437   4.782   5.467   0.893 -2.7175  2.2596  0.8575
  611MOL0     H82438   4.778   5.477   1.067  1.2481 -1.7138  0.5249
  611MOL0     H82439   4.974   5.298   1.053 -0.8169  1.1888  1.0583
  611MOL0     H82440   4.981   5.321   0.886 -0.8958 -0.9033  0.2766
  611MOL0     H82441   5.031   5.500   1.112 -1.6324 -2.6698 -0.6317
  611MOL0     H82442   4.984   5.583   0.966 -2.8295 -1.1821  0.9552
  611MOL0     H82443   5.233   5.562   0.994  0.5615 -0.9416  2.3015
  611MOL0     H82444   5.188   5.463   0.841  1.1333 -0.2883 -0.1159
  611MOL0     H82445   5.368   5.186   1.106 -0.9053  3.1145  2.9749
  611MOL0     H82446   5.617   5.173   1.117 -1.0325 -0.4854 -0.1919
  611MOL0     H82447   5.915   4.989   0.928 -1.2456  0.5535  0.3274
  611MOL0     H82448   6.147   4.928   0.842  2.2525 -2.0174  2.1302
  611MOL0     H82449   6.489   5.181   0.948  0.8243  0.4430 -0.2420
  611MOL0     H82450   6.451   5.041   1.047 -0.4701  0.5869 -0.7266
  611MOL0     H82451   6.605   5.012   0.779  0.3357 -0.2541 -0.3682
  611MOL0     H82452   6.662   5.042   0.938 -0.1195 -0.0727  0.5782
  611MOL0     H82453   6.554   4.835   1.023  2.8714  0.9916  0.4300
  611MOL0     H82454   6.476   4.795   0.871  1.0470 -1.0067 -0.1180
  611MOL0     H82455   6.756   4.778   0.968 -1.3308  1.1423  0.9154
  611MOL0     H82456   6.749   4.823   0.794 -1.9911 -0.9291 -2.1896
  611MOL0     H82457   6.591   4.606   0.943 -3.2551  2.7785 -1.6972
  611MOL0     H82458   6.752   4.562   0.892  0.1908  0.0542  0.5778
  611MOL0     H82459   6.610   4.469   0.726  0.3309 -0.3273 -1.9963
  611MOL0     H82460   6.511   4.617   0.704 -1.1951 -2.7717 -1.5775
  611MOL0     H82461   6.740   4.512   0.565 -1.8888  0.4412 -2.4455
  611MOL0     H82462   6.812   4.622   0.674 -1.3362 -3.4428  3.9811
  611MOL0     H82463   6.633   4.795   0.555 -1.7525 -0.8366  1.8393
  611MOL0     H82464   6.753   4.724   0.451  2.8235 -1.8597  4.0755
  611MOL0     H82465   6.292   5.280   1.026  0.8396 -1.8473  0.5615
  611MOL0     H82466   6.055   5.353   1.074  1.3934  1.6424 -1.8818
  611MOL0     H82467   5.641   5.501   0.849 -0.9976 -0.4190 -1.7738
  611MOL0     H82468   5.406   5.526   0.849 -1.5408 -1.1984 -1.3406
  611MOL0     H82469   3.366   5.384   1.081 -0.0264 -0.6906  0.4177
  611MOL0     H82470   3.152   5.327   1.177 -2.9775 -3.6780 -0.3355
  611MOL0     H82471   2.862   4.952   1.263 -0.7893  1.4208 -2.0819
  611MOL0     H82472   2.634   4.910   1.344 -0.0043 -1.2049 -0.0325
  611MOL0     H82473   2.428   4.884   1.707  0.7526  1.1019  1.0220
  611MOL0     H82474   2.591   4.965   1.757  2.8244 -2.1562 -0.3764
  611MOL0     H82475   2.696   4.779   1.638 -0.5747  4.3866 -1.8435
  611MOL0     H82476   2.544   4.709   1.610  0.0898 -0.3285  0.2541
  611MOL0     H82477   2.508   4.700   1.864  1.2292 -1.4763  3.1169
  611MOL0     H82478   2.659   4.805   1.889 -0.7665 -1.5234  1.5750
  611MOL0     H82479   2.653   4.531   1.742 -0.9703  1.7532  0.1614
  611MOL0     H82480   2.797   4.614   1.801  1.9833 -3.0355  3.0488
  611MOL0     H82481   2.613   4.398   2.132 -1.4449  1.3501 -0.6024
  611MOL0     H82482   2.700   5.168   1.681 -0.0035  3.1011 -0.9832
  611MOL0     H82483   2.891   5.266   1.732 -2.3588 -0.5923 -0.6385
  611MOL0     H82484   3.043   5.214   1.654  0.7485  0.0194 -0.3920
  611MOL0     H82485   2.949   5.337   1.578 -0.3041 -0.4134  0.7587
  612MOL0     O82486   2.333   4.698  10.037 -0.1243 -0.4705 -0.3187
  612MOL0     C82487   2.362   4.768   9.937 -0.3163  0.0075  0.5217
  612MOL0     O82488   2.277   4.769   9.827 -0.2254 -0.0204  0.4489
  612MOL0     C82489   2.164   4.696   9.825 -0.6327  0.4026  0.1834
  612MOL0     C82490   2.044   4.755   9.781 -0.5687 -0.1029 -0.6261
  612MOL0     C82491   1.935   4.671   9.755 -0.1513  0.0965 -0.2420
  612MOL0     C82492   1.934   4.530   9.769  1.0001  0.0311  0.4149
  612MOL0     O82493   1.837   4.453   9.722  0.4381  0.4912  0.4186
  612MOL0     C82494   1.869   4.368   9.609 -0.3505  0.0670  0.9480
  612MOL0     C82495   1.898   4.466   9.488  0.3606 -1.0223 -0.8288
  612MOL0     C82496   1.778   4.544   9.436 -0.0185  0.6250  0.1641
  612MOL0     C82497   1.648   4.476   9.400 -0.7247 -0.3530  0.0531
  612MOL0     C82498   1.546   4.573   9.349  0.1971 -0.0184  0.1467
  612MOL0     C82499   1.416   4.503   9.316 -0.2557 -0.6120  0.3351
  612MOL0     C82500   1.291   4.583   9.361 -0.0422  0.2357 -0.4696
  612MOL0     C82501   1.275   4.718   9.291  0.1992  0.6508  0.6364
  612MOL0     N82502   1.140   4.768   9.310  0.8875 -0.5248 -0.1643
  612MOL0     C82503   1.095   4.837   9.422 -0.7832 -0.2961  0.8091
  612MOL0     C82504   0.975   4.880   9.391 -0.0967 -0.4943 -0.0822
  612MOL0     C82505   0.894   4.952   9.491  0.0763 -0.2132  0.0804
  612MOL0     C82506   0.942   5.096   9.492  0.7642 -0.6318 -0.2058
  612MOL0     C82507   0.845   5.190   9.567  0.6363 -0.7381 -0.5033
  612MOL0     C82508   0.918   5.327   9.595 -0.0513 -0.7431 -0.2253
  612MOL0     O82509   1.047   5.298   9.656 -0.1534  0.6232 -0.0816
  612MOL0     C82510   1.154   5.361   9.599  0.1103  0.3805  0.7472
  612MOL0     C82511   1.242   5.431   9.684 -0.2440 -0.1642  0.8019
  612MOL0     C82512   1.357   5.493   9.646 -0.1301 -0.0696  0.1753
  612MOL0     C82513   1.387   5.487   9.506  0.7404 -0.1406 -0.0102
  612MOL0     C82514   1.511   5.550   9.458 -0.5276  1.0872  1.2109
  612MOL0     O82515   1.568   5.633   9.542  0.0125  0.0728 -0.1851
  612MOL0     C82516   1.658   5.730   9.501 -1.1173  0.1967  0.3918
  612MOL0     C82517   1.777   5.741   9.573  0.2156 -0.1329  0.2301
  612MOL0     C82518   1.872   5.841   9.544 -0.1340 -0.0393  0.3576
  612MOL0     C82519   1.862   5.933   9.437 -0.1348 -0.5497  0.2734
  612MOL0     O82520   1.965   6.022   9.409 -0.7462 -0.1355  0.1345
  612MOL0     C82521   1.953   6.093   9.288 -0.8972 -0.2236  0.0201
  612MOL0     C82522   2.091   6.167   9.263  1.1446 -0.4526  1.0386
  612MOL0     C82523   2.215   6.086   9.222 -0.4830 -0.4165  0.5534
  612MOL0     C82524   2.343   6.176   9.199 -0.3491 -0.2913 -0.1148
  612MOL0     C82525   2.446   6.137   9.096 -0.7430  0.2228  0.7612
  612MOL0     C82526   2.579   6.219   9.102  0.2396 -0.3046 -0.6466
  612MOL0     C82527   2.673   6.155   9.004  0.1975  0.5067 -0.2769
  612MOL0     C82528   2.805   6.221   9.017 -0.1608 -1.5235  0.2201
  612MOL0    Cl82529   2.807   6.388   8.945  0.4684  0.0641 -0.5273
  612MOL0     C82530   1.738   5.929   9.373  0.0221 -0.0594  0.2902
  612MOL0     C82531   1.645   5.823   9.405 -0.0282  0.0937 -0.4201
  612MOL0     O82532   1.549   5.529   9.342 -0.5460  0.7024  0.0058
  612MOL0     C82533   1.298   5.414   9.420 -1.5263  0.0902 -0.4453
  612MOL0     C82534   1.181   5.355   9.469 -0.0182 -0.4543 -0.0785
  612MOL0     N82535   0.958   4.849   9.257  0.2290  0.1038 -0.7343
  612MOL0     N82536   1.047   4.770   9.211 -0.2199  0.1360  0.1243
  612MOL0     C82537   2.050   4.478   9.833 -0.4818  0.2249 -0.3393
  612MOL0     C82538   2.168   4.553   9.854  0.1613 -0.5399 -0.4858
  612MOL0     C82539   2.489   4.842   9.922 -0.2469 -0.0903  0.2232
  612MOL0     C82540   2.547   4.855   9.795  0.2599 -0.2753  0.4234
  612MOL0     C82541   2.661   4.938   9.779  0.2975 -0.3855  0.1869
  612MOL0     C82542   2.726   4.994   9.890  0.0408  0.1965 -0.1542
  612MOL0     O82543   2.844   5.058   9.871 -0.3321 -0.0689  0.2758
  612MOL0     C82544   2.951   4.972   9.836  0.4987  0.4077  0.3095
  612MOL0     C82545   3.047   4.940   9.940 -0.0746  0.2360  0.2793
  612MOL0     C82546   3.097   5.070  10.019  0.1789 -0.1880 -0.3911
  612MOL0     C82547   3.211   5.043  10.113 -0.4208 -0.2131  0.5059
  612MOL0     C82548   3.327   4.978  10.049  0.3530  0.3744 -0.7302
  612MOL0     C82549   3.420   4.912  10.006 -0.1228  0.7472 -0.5439
  612MOL0     C82550   2.667   4.980  10.015  0.8825  0.4630  0.5438
  612MOL0     C82551   2.550   4.907  10.036 -0.5835  0.8356  0.2629
  612MOL0     C82552   2.482   4.917  10.174 -0.6892 -0.0171 -0.6157
  612MOL0     H82553   2.051   4.860   9.754  2.3153 -0.4522 -1.5488
  612MOL0     H82554   1.843   4.714   9.716  0.0414 -0.4282 -1.3336
  612MOL0     H82555   1.958   4.306   9.618  0.0624  0.4612 -0.2030
  612MOL0     H82556   1.781   4.308   9.584  0.6245 -0.8904 -0.2923
  612MOL0     H82557   1.934   4.412   9.400 -1.1704  1.2333 -2.9732
  612MOL0     H82558   1.964   4.548   9.515  0.5859 -1.1345 -1.0409
  612MOL0     H82559   1.811   4.605   9.352  0.2425  2.4957  1.5622
  612MOL0     H82560   1.769   4.628   9.505  4.5593  0.4806  1.2528
  612MOL0     H82561   1.658   4.389   9.333 -1.9256  0.4682 -1.2694
  612MOL0     H82562   1.606   4.432   9.491  0.6619 -1.0109  0.3976
  612MOL0     H82563   1.533   4.665   9.406 -1.3501 -0.5673  0.7168
  612MOL0     H82564   1.597   4.617   9.262 -0.5247  2.0943  0.7259
  612MOL0     H82565   1.411   4.506   9.207  1.1376 -0.5057  0.2575
  612MOL0     H82566   1.419   4.399   9.350 -0.8042 -0.5072  0.7214
  612MOL0     H82567   1.294   4.601   9.469 -0.3000  0.0044 -0.4225
  612MOL0     H82568   1.204   4.526   9.326  0.5728  0.8574 -3.2558
  612MOL0     H82569   1.351   4.781   9.337  1.5174 -0.1120 -0.4183
  612MOL0     H82570   1.297   4.715   9.183  0.1820  1.1984  0.6124
  612MOL0     H82571   1.144   4.864   9.515 -1.2057  1.3764  0.5959
  612MOL0     H82572   0.789   4.933   9.466  0.0976  0.6008 -0.6427
  612MOL0     H82573   0.903   4.904   9.589  3.1865  0.5430  0.2378
  612MOL0     H82574   1.044   5.097   9.533  0.1515  2.4423  1.5139
  612MOL0     H82575   0.933   5.130   9.388 -1.8098 -1.4002 -0.3081
  612MOL0     H82576   0.831   5.138   9.663  1.9342 -1.9382 -0.9402
  612MOL0     H82577   0.754   5.213   9.510  0.4666  3.5885  1.1836
  612MOL0     H82578   0.845   5.379   9.659  1.4329  0.2753  0.6967
  612MOL0     H82579   0.928   5.377   9.498  2.2632 -2.1875 -0.8125
  612MOL0     H82580   1.206   5.432   9.787  1.8792 -4.1270  1.8080
  612MOL0     H82581   1.411   5.547   9.722 -1.3694 -0.0942  1.0989
  612MOL0     H82582   1.793   5.664   9.648 -2.5261 -0.2041  0.8567
  612MOL0     H82583   1.964   5.833   9.601 -0.8146  0.6679  1.6077
  612MOL0     H82584   1.945   6.021   9.206 -1.5129 -2.5723  2.0299
  612MOL0     H82585   1.879   6.173   9.298 -0.4510  0.1876  0.0743
  612MOL0     H82586   2.079   6.239   9.181 -0.6384 -1.1860  0.6137
  612MOL0     H82587   2.117   6.219   9.355  0.5003  2.5837 -0.3623
  612MOL0     H82588   2.224   6.007   9.297 -4.3401 -1.0549  0.5422
  612MOL0     H82589   2.195   6.035   9.127 -0.4571  1.1519 -0.3217
  612MOL0     H82590   2.403   6.179   9.291  3.7512  2.0745 -2.5257
  612MOL0     H82591   2.326   6.276   9.158  4.0015  0.3649 -0.8829
  612MOL0     H82592   2.420   6.149   8.990  2.4558  1.3526 -0.0117
  612MOL0     H82593   2.468   6.031   9.110  0.9391  0.2500 -1.1013
  612MOL0     H82594   2.549   6.321   9.075 -5.4059 -0.9936  1.5740
  612MOL0     H82595   2.618   6.213   9.204 -2.6242 -2.7321  0.4635
  612MOL0     H82596   2.642   6.158   8.899 -1.0047 -0.8214 -0.0050
  612MOL0     H82597   2.687   6.052   9.040 -0.6165  0.7726  0.8590
  612MOL0     H82598   2.835   6.226   9.122  0.1791 -0.1022  0.0758
  612MOL0     H82599   2.882   6.156   8.974  1.0574  0.1517 -0.2556
  612MOL0     H82600   1.718   5.988   9.285  3.6360  0.1378 -0.5835
  612MOL0     H82601   1.550   5.821   9.352 -1.8337 -1.0741  2.6068
  612MOL0     H82602   1.314   5.389   9.316 -0.6449  0.9592 -0.5255
  612MOL0     H82603   1.128   5.285   9.405 -2.3461 -1.2422  2.5465
  612MOL0     H82604   2.054   4.373   9.860  1.3855  0.4778  0.5798
  612MOL0     H82605   2.249   4.501   9.905  3.5311  1.6775 -3.1760
  612MOL0     H82606   2.481   4.817   9.718 -1.7913  2.0370  0.9134
  612MOL0     H82607   2.696   4.964   9.680  2.4503  0.4684  1.0954
  612MOL0     H82608   3.003   5.028   9.759  0.2260 -0.8888 -0.8643
  612MOL0     H82609   2.919   4.885   9.777 -0.3078  0.8564  0.0718
  612MOL0     H82610   3.131   4.902   9.880  0.0957  2.1919 -0.7981
  612MOL0     H82611   3.027   4.863  10.015  1.7693 -2.3186 -1.6460
  612MOL0     H82612   3.010   5.127  10.052 -0.7147 -1.2155 -0.8814
  612MOL0     H82613   3.141   5.138   9.945  1.3031 -0.0664  0.3686
  612MOL0     H82614   3.259   5.132  10.153 -1.9442  1.8018 -1.8467
  612MOL0     H82615   3.177   4.973  10.190  0.1099 -1.4500 -0.3536
  612MOL0     H82616   3.503   4.861   9.962 -1.3622 -1.6922 -0.2299
  612MOL0     H82617   2.708   5.036  10.098  1.7495  2.2480 -1.0303
  612MOL0     H82618   2.376   4.887  10.171 -1.2123  1.7758 -1.3730
  612MOL0     H82619   2.541   4.863  10.249  1.3445 -0.1261 -2.2185
  612MOL0     H82620   2.489   5.024  10.194 -0.4511 -0.0460 -0.5505
  613MOL0     O82621   6.744   9.006  10.526  0.2524 -0.4411  0.2990
  613MOL0     C82622   6.675   9.081  10.449 -0.3982 -0.3194  0.6520
  613MOL0     O82623   6.707   9.115  10.322 -0.3797 -0.1812  0.1745
  613MOL0     C82624   6.828   9.070  10.262  0.3312  0.2725 -0.2139
  613MOL0     C82625   6.910   9.168  10.225 -0.8066 -0.2472 -0.2349
  613MOL0     C82626   7.026   9.138  10.159  1.2137  0.3685  0.0438
  613MOL0     C82627   7.061   9.007  10.139  0.1857 -0.2906  0.0547
  613MOL0     O82628   7.166   8.991  10.051  0.6651 -0.5009 -0.3235
  613MOL0     C82629   7.212   8.855  10.039  0.6204  0.5256 -0.3546
  613MOL0     C82630   7.309   8.833  10.155 -0.3150 -0.2369  0.0057
  613MOL0     C82631   7.446   8.913  10.141  0.1271  0.2745 -0.3693
  613MOL0     C82632   7.530   8.893  10.264  1.0618 -0.5269 -0.1565
  613MOL0     C82633   7.649   8.985  10.266 -0.6819 -0.7700 -0.4447
  613MOL0     C82634   7.754   8.960  10.159  0.3728  0.6491 -0.0338
  613MOL0     C82635   7.876   9.053  10.184  0.1548 -0.0234  0.4221
  613MOL0     C82636   7.981   9.028  10.075 -0.9897  0.8973  0.2212
  613MOL0     N82637   7.942   9.088   9.939 -0.2934  0.0131 -0.1773
  613MOL0     C82638   7.941   9.224   9.913  0.1351  0.6455 -0.1479
  613MOL0     C82639   7.869   9.248   9.804  0.2265  0.0159  0.0017
  613MOL0     C82640   7.823   9.382   9.753  0.1535  0.0105  0.6882
  613MOL0     C82641   7.945   9.460   9.739 -0.5403  0.0251  0.2224
  613MOL0     C82642   7.915   9.586   9.654 -0.0852  0.7976 -0.3139
  613MOL0     C82643   8.048   9.642   9.603  0.3144 -0.8098  0.9964
  613MOL0     O82644   8.023   9.773   9.551 -1.3696  0.0811  0.3084
  613MOL0     C82645   8.134   9.840   9.502 -0.2796 -0.1683  0.6431
  613MOL0     C82646   8.123   9.973   9.464 -0.6238  0.4959 -0.1586
  613MOL0     C82647   8.229  10.052   9.421 -0.2550  0.1112  0.4511
  613MOL0     C82648   8.365   9.991   9.421  0.3804  0.0064 -0.5598
  613MOL0     C82649   8.486  10.071   9.385  0.4243 -0.0366 -0.9928
  613MOL0     O82650   8.593   9.997   9.361  0.6267  0.1673  0.0531
  613MOL0     C82651   8.705  10.065   9.316  0.9907 -0.8868  0.5435
  613MOL0     C82652   8.790   9.993   9.234  0.6316  0.6528 -0.0662
  613MOL0     C82653   8.912  10.033   9.187 -0.5016 -0.0288  0.2124
  613MOL0     C82654   8.952  10.170   9.209 -0.5852  0.8554  0.3935
  613MOL0     O82655   9.078  10.206   9.164 -0.5515 -0.3900  0.2704
  613MOL0     C82656   9.100  10.348   9.149  0.0184  0.7771 -0.4142
  613MOL0     C82657   9.243  10.380   9.134  0.4562  0.2316 -0.4597
  613MOL0     C82658   9.297  10.339   8.996 -0.7048 -0.5868 -0.0572
  613MOL0     C82659   9.453  10.354   9.002 -0.4361  0.9838  0.2861
  613MOL0     C82660   9.515  10.370   8.859 -0.3542 -0.4772 -0.8827
  613MOL0     C82661   9.658  10.425   8.852  0.1370 -0.5430  0.1234
  613MOL0     C82662   9.749  10.320   8.921  0.1892  0.0821 -0.1005
  613MOL0     C82663   9.896  10.334   8.873 -0.8829  0.8809 -0.5282
  613MOL0    Cl82664   9.970  10.492   8.876 -0.1148  0.2219 -0.1751
  613MOL0     C82665   8.866  10.250   9.280  0.0823  0.2456  0.3850
  613MOL0     C82666   8.752  10.198   9.350 -0.4125  0.8634  0.5994
  613MOL0     O82667   8.476  10.193   9.373  0.3698 -1.0583 -0.3916
  613MOL0     C82668   8.385   9.861   9.462  0.0723  0.8209 -0.0827
  613MOL0     C82669   8.268   9.784   9.496  0.1084 -0.9459 -1.0201
  613MOL0     N82670   7.821   9.123   9.749  0.0822 -0.1957 -0.5423
  613MOL0     N82671   7.865   9.034   9.837 -0.5072  0.0753 -0.8560
  613MOL0     C82672   6.987   8.906  10.208  0.7588  0.8365 -0.3004
  613MOL0     C82673   6.865   8.938  10.262  0.0075  0.3224 -0.0587
  613MOL0     C82674   6.539   9.106  10.482  0.4473 -0.6108 -0.5273
  613MOL0     C82675   6.453   9.101  10.375  0.5154 -0.4854  0.3723
  613MOL0     C82676   6.317   9.118  10.396 -0.1248 -0.7424 -0.1722
  613MOL0     C82677   6.268   9.140  10.528 -0.0812  0.4497  0.2341
  613MOL0     O82678   6.140   9.149  10.569  0.4776 -0.2882 -0.3311
  613MOL0     C82679   6.043   9.122  10.468  0.0831 -0.5658 -0.8100
  613MOL0     C82680   5.900   9.183  10.498 -0.4411 -0.2178 -0.4849
  613MOL0     C82681   5.865   9.166  10.644 -0.3934 -0.3299  0.0554
  613MOL0     C82682   5.718   9.125  10.659  0.5508  0.3056 -0.8507
  613MOL0     C82683   5.684   8.985  10.617  0.6969 -0.0008 -0.2762
  613MOL0     C82684   5.665   8.871  10.576  0.9648  0.8947  0.2734
  613MOL0     C82685   6.362   9.132  10.639  0.4360 -1.2760  0.6708
  613MOL0     C82686   6.493   9.116  10.619 -0.5670  1.6114 -0.6331
  613MOL0     C82687   6.586   9.132  10.750 -0.4279 -0.1741  0.3543
  613MOL0     H82688   6.879   9.271  10.242  2.6820  0.8958  0.0020
  613MOL0     H82689   7.084   9.216  10.113  1.8273  1.2745  2.2142
  613MOL0     H82690   7.131   8.782  10.040 -0.5399  1.7469 -1.1724
  613MOL0     H82691   7.262   8.859   9.942 -1.7003  1.9401 -1.6045
  613MOL0     H82692   7.334   8.728  10.140  1.5030  0.2913 -1.1022
  613MOL0     H82693   7.251   8.843  10.247 -1.0249 -3.6686  0.0700
  613MOL0     H82694   7.431   9.021  10.127  2.2437  0.2574 -4.3353
  613MOL0     H82695   7.492   8.887  10.045 -1.8068 -0.3746 -1.1652
  613MOL0     H82696   7.477   8.926  10.353  0.8777  0.2596 -0.5478
  613MOL0     H82697   7.540   8.785  10.279  2.3764 -0.7844 -2.4466
  613MOL0     H82698   7.592   9.078  10.258 -0.7664 -0.4260  2.8331
  613MOL0     H82699   7.696   8.985  10.365 -1.8819 -0.1136  0.1461
  613MOL0     H82700   7.789   8.857  10.162  2.5733  1.3196 -0.6671
  613MOL0     H82701   7.723   8.980  10.055 -0.9113 -1.0527 -0.0206
  613MOL0     H82702   7.918   9.035  10.283 -1.6144 -0.4067  1.1401
  613MOL0     H82703   7.848   9.158  10.188 -0.7616 -0.1551  6.3386
  613MOL0     H82704   8.066   9.082  10.118 -0.4648  0.4972 -0.2971
  613MOL0     H82705   8.002   8.921  10.072  2.9502  1.5164 -2.8228
  613MOL0     H82706   7.971   9.309   9.974  1.7206  1.1922 -1.6139
  613MOL0     H82707   7.774   9.364   9.656  1.2520 -3.1144  0.5788
  613MOL0     H82708   7.752   9.428   9.823  2.2398 -0.6960  3.4287
  613MOL0     H82709   7.990   9.490   9.834 -1.6079  1.3939  0.3263
  613MOL0     H82710   8.027   9.403   9.693  0.4012  3.8612 -3.5291
  613MOL0     H82711   7.876   9.661   9.723  0.1920 -0.2423  1.0107
  613MOL0     H82712   7.853   9.572   9.565 -0.5926  0.8883  0.0264
  613MOL0     H82713   8.100   9.581   9.529  1.5768  0.8430  0.4479
  613MOL0     H82714   8.111   9.657   9.691 -0.6218  1.8786  1.3011
  613MOL0     H82715   8.020  10.002   9.447  0.0960  2.5197 -1.3979
  613MOL0     H82716   8.210  10.148   9.375 -0.5063 -0.2398 -0.1896
  613MOL0     H82717   8.757   9.892   9.208  2.9788 -0.6568  1.6573
  613MOL0     H82718   8.984   9.973   9.133  1.3809  2.6194 -0.4238
  613MOL0     H82719   9.048  10.388   9.062 -0.4094 -0.9505 -0.9914
  613MOL0     H82720   9.062  10.414   9.227  2.2289  3.4755 -1.4775
  613MOL0     H82721   9.272  10.485   9.144  2.2902 -0.2158 -0.6341
  613MOL0     H82722   9.291  10.343   9.225 -2.1025 -0.2423  0.7622
  613MOL0     H82723   9.260  10.242   8.964 -0.7483 -0.0407 -1.7570
  613MOL0     H82724   9.258  10.423   8.938  0.7560  1.8519  2.2267
  613MOL0     H82725   9.490  10.264   9.053 -3.2619 -0.8903 -0.7084
  613MOL0     H82726   9.492  10.431   9.069  2.2752 -1.8532  2.2746
  613MOL0     H82727   9.458  10.445   8.803  1.0330  0.0266 -1.6799
  613MOL0     H82728   9.515  10.275   8.805 -0.7261 -1.2762  0.4736
  613MOL0     H82729   9.699  10.436   8.751 -0.3924 -1.8866 -0.2553
  613MOL0     H82730   9.668  10.521   8.904  0.0766  0.7656 -2.1544
  613MOL0     H82731   9.716  10.217   8.906 -1.6303  0.5052  0.6918
  613MOL0     H82732   9.732  10.328   9.029 -2.2684 -0.6309 -0.3743
  613MOL0     H82733   9.950  10.269   8.942 -2.5948 -0.5509 -0.4477
  613MOL0     H82734   9.907  10.295   8.771 -0.5023  1.3398 -0.6617
  613MOL0     H82735   8.907  10.349   9.300  0.5984 -0.0872  1.0015
  613MOL0     H82736   8.711  10.260   9.430 -1.7064  1.4623 -0.4814
  613MOL0     H82737   8.481   9.811   9.453 -0.0763  0.0034  2.3221
  613MOL0     H82738   8.285   9.684   9.536  1.7630  0.5607  2.3714
  613MOL0     H82739   7.009   8.800  10.198 -0.4898  0.5445 -0.1189
  613MOL0     H82740   6.807   8.861  10.311  0.2216 -1.1106 -1.9282
  613MOL0     H82741   6.484   9.090  10.272  0.2043 -1.3029  0.3577
  613MOL0     H82742   6.253   9.121  10.308  0.5547 -1.2626 -0.6867
  613MOL0     H82743   6.041   9.014  10.448  0.8526 -0.7228 -0.0809
  613MOL0     H82744   6.073   9.178  10.379  0.4968  0.8810  0.2131
  613MOL0     H82745   5.823   9.144  10.431  1.4047  1.0384 -3.5710
  613MOL0     H82746   5.909   9.291  10.480 -0.9113 -0.4419 -2.2657
  613MOL0     H82747   5.887   9.257  10.700  1.9180 -0.2123 -0.9179
  613MOL0     H82748   5.922   9.091  10.701 -3.6604 -1.6954  1.8344
  613MOL0     H82749   5.692   9.125  10.765 -1.0302 -0.6124 -1.2071
  613MOL0     H82750   5.642   9.184  10.607  2.0141  1.7166 -1.4956
  613MOL0     H82751   5.632   8.780  10.531 -0.6034  1.4785  0.2024
  613MOL0     H82752   6.328   9.141  10.742  3.2743  1.5082  1.5191
  613MOL0     H82753   6.668   9.203  10.739 -1.1838  0.3764 -2.7038
  613MOL0     H82754   6.525   9.178  10.828  0.3960  3.8754 -1.1615
  613MOL0     H82755   6.624   9.037  10.789  1.0199  1.1496  2.3502
  614MOL0     O82756   8.797   5.496   9.161 -0.6094  0.2523  0.1893
  614MOL0     C82757   8.797   5.617   9.145  0.3264 -0.2496  0.2074
  614MOL0     O82758   8.890   5.701   9.197  0.4102  0.4517 -0.1780
  614MOL0     C82759   9.015   5.662   9.227 -0.2875  0.5196 -0.8110
  614MOL0     C82760   9.070   5.738   9.330 -1.0386 -0.7581  0.6962
  614MOL0     C82761   9.197   5.709   9.381  0.1994 -0.3013  0.5096
  614MOL0     C82762   9.279   5.603   9.325 -0.5369 -0.6089  0.4971
  614MOL0     O82763   9.408   5.575   9.369 -0.1705 -0.5055  0.0465
  614MOL0     C82764   9.506   5.659   9.306  0.4712  0.2089  0.4069
  614MOL0     C82765   9.606   5.692   9.422  0.0723  0.1876  0.3805
  614MOL0     C82766   9.718   5.763   9.368 -0.5504 -0.7186  0.5380
  614MOL0     C82767   9.837   5.774   9.455 -0.6977 -0.1997  0.3602
  614MOL0     C82768   9.950   5.864   9.394 -1.1134 -0.6410 -0.1139
  614MOL0     C82769  10.086   5.822   9.460 -0.7185  0.7232  1.1699
  614MOL0     C82770  10.203   5.919   9.423 -0.6767  0.0300 -1.1419
  614MOL0     C82771  10.264   5.897   9.280 -0.5700  0.1433 -0.2159
  614MOL0     N82772  10.371   5.796   9.275 -1.0168 -0.3027 -0.6032
  614MOL0     C82773  10.430   5.731   9.383  0.5618  0.3109 -0.6123
  614MOL0     C82774  10.527   5.653   9.330 -0.1512 -0.2248 -0.1023
  614MOL0     C82775  10.611   5.550   9.400  0.8263  0.1289 -0.6459
  614MOL0     C82776  10.758   5.565   9.365  0.6043 -0.6982  1.1594
  614MOL0     C82777  10.825   5.647   9.478 -0.3105 -0.1628 -0.5473
  614MOL0     C82778  10.976   5.675   9.444  0.2419 -0.1244 -0.3680
  614MOL0     O82779  11.049   5.568   9.492 -0.0379  0.1853  0.2488
  614MOL0     C82780  11.184   5.577   9.458 -0.5284  0.7211 -1.3611
  614MOL0     C82781  11.254   5.684   9.401 -0.1844  0.2530  0.3166
  614MOL0     C82782  11.387   5.679   9.397  0.2663  0.2942 -0.9113
  614MOL0     C82783  11.463   5.570   9.441 -0.2251  0.1070 -0.1292
  614MOL0     C82784  11.607   5.572   9.439 -1.0333 -0.6835  1.0083
  614MOL0     O82785  11.657   5.678   9.368  0.5190  0.0304 -0.0340
  614MOL0     C82786  11.795   5.686   9.360  0.9387 -0.2289 -0.0140
  614MOL0     C82787  11.879   5.589   9.294  0.3139 -0.3195 -0.0846
  614MOL0     C82788  12.021   5.606   9.296 -0.3392 -0.1042 -0.0982
  614MOL0     C82789  12.065   5.734   9.344  0.4266 -0.2515  0.3896
  614MOL0     O82790  12.192   5.757   9.321  0.2362  0.2172 -0.2506
  614MOL0     C82791  12.279   5.681   9.392  0.5756  0.2489 -0.9162
  614MOL0     C82792  12.283   5.743   9.535  0.2462 -0.6381  0.1698
  614MOL0     C82793  12.400   5.691   9.628  0.5620  0.8422 -0.2749
  614MOL0     C82794  12.405   5.791   9.743  0.0178 -0.2507  0.7090
  614MOL0     C82795  12.483   5.738   9.864 -0.1820 -0.1335 -0.1503
  614MOL0     C82796  12.396   5.638   9.947  0.8400 -0.2487  0.5271
  614MOL0     C82797  12.472   5.579  10.066 -0.3805  0.2006  0.7639
  614MOL0     C82798  12.379   5.483  10.142  0.3390  0.4683 -0.4409
  614MOL0    Cl82799  12.245   5.559  10.228  0.3864 -0.1843  0.3106
  614MOL0     C82800  11.987   5.828   9.399  0.1745 -0.4266  0.2615
  614MOL0     C82801  11.850   5.802   9.409 -1.2407 -0.3737  0.8587
  614MOL0     O82802  11.680   5.481   9.481  0.9560  0.0086  0.4629
  614MOL0     C82803  11.395   5.453   9.486  0.3066 -0.0221  0.1311
  614MOL0     C82804  11.254   5.461   9.494  0.4958  0.0885  0.1279
  614MOL0     N82805  10.517   5.672   9.197  0.7217  0.8889 -0.1006
  614MOL0     N82806  10.431   5.761   9.162  0.5051 -1.0979 -0.6354
  614MOL0     C82807   9.214   5.524   9.222  0.3316  0.6651  0.0501
  614MOL0     C82808   9.088   5.552   9.176  0.0713 -0.6431  0.2623
  614MOL0     C82809   8.684   5.673   9.077  0.9784 -0.1195 -0.4287
  614MOL0     C82810   8.560   5.601   9.085  0.4063  0.0773 -0.4718
  614MOL0     C82811   8.434   5.636   9.029 -0.5315 -0.6794 -0.8319
  614MOL0     C82812   8.441   5.755   8.945 -0.1810 -0.0111  0.5981
  614MOL0     O82813   8.338   5.782   8.866  0.2643 -0.6743  0.2722
  614MOL0     C82814   8.321   5.917   8.815  0.3689 -0.1759 -0.8622
  614MOL0     C82815   8.271   6.020   8.923 -0.0356 -0.5153 -0.0008
  614MOL0     C82816   8.207   6.150   8.867  0.5425  0.5030 -1.0877
  614MOL0     C82817   8.305   6.225   8.773 -0.0756 -0.0731 -0.1517
  614MOL0     C82818   8.430   6.268   8.843  0.2876 -0.3237  0.0265
  614MOL0     C82819   8.525   6.315   8.906  0.4897  0.4855  0.0679
  614MOL0     C82820   8.561   5.830   8.938  1.0356  1.0270 -0.0421
  614MOL0     C82821   8.679   5.789   8.999 -1.1637 -0.6466  0.4807
  614MOL0     C82822   8.804   5.879   8.990 -0.3029 -0.0195  0.4334
  614MOL0     H82823   9.022   5.819   9.384  2.8179  2.5903 -0.3365
  614MOL0     H82824   9.228   5.770   9.465 -0.4796  0.8079 -0.0188
  614MOL0     H82825   9.548   5.605   9.220  1.8450  1.1436  0.4618
  614MOL0     H82826   9.466   5.752   9.266  0.2973  0.4447  1.1281
  614MOL0     H82827   9.646   5.598   9.461 -0.7141  0.1088  1.0327
  614MOL0     H82828   9.547   5.749   9.495 -2.6588 -1.1154 -0.6492
  614MOL0     H82829   9.685   5.861   9.333 -1.7893 -1.1963  0.3310
  614MOL0     H82830   9.753   5.703   9.283  0.6767  1.2409 -0.4249
  614MOL0     H82831   9.809   5.816   9.552 -2.7200  3.1024 -1.4450
  614MOL0     H82832   9.880   5.676   9.475 -1.0639 -0.5991 -0.7327
  614MOL0     H82833   9.960   5.862   9.285  4.3888  2.3755 -0.0103
  614MOL0     H82834   9.928   5.967   9.423  3.0847  0.5450 -0.4054
  614MOL0     H82835  10.075   5.815   9.568  4.6820 -0.2406  1.9310
  614MOL0     H82836  10.108   5.719   9.430  0.1141  1.0717  0.5402
  614MOL0     H82837  10.271   5.905   9.508 -0.4537  1.5999 -1.0357
  614MOL0     H82838  10.177   6.025   9.430  3.8109  1.4058 -1.9720
  614MOL0     H82839  10.201   5.865   9.196  1.8965 -1.5737 -1.5426
  614MOL0     H82840  10.310   5.988   9.239 -0.2046 -0.4894 -1.2318
  614MOL0     H82841  10.398   5.736   9.487  2.4355  0.6547 -0.0150
  614MOL0     H82842  10.598   5.566   9.507  1.0459  1.2933 -0.7808
  614MOL0     H82843  10.594   5.448   9.365  0.0606  0.9185 -2.7074
  614MOL0     H82844  10.811   5.472   9.341  1.6649  0.5108 -1.6833
  614MOL0     H82845  10.770   5.622   9.272  1.8532 -1.0320  1.1001
  614MOL0     H82846  10.818   5.589   9.570 -0.1325  0.6389 -0.0207
  614MOL0     H82847  10.768   5.740   9.490  1.9562  1.6146 -2.4524
  614MOL0     H82848  11.004   5.756   9.512 -0.4675 -1.1670  1.2064
  614MOL0     H82849  10.989   5.698   9.338 -0.8140  0.7941 -0.3282
  614MOL0     H82850  11.191   5.760   9.355 -0.9346 -0.3695  0.2922
  614MOL0     H82851  11.437   5.770   9.367  0.3192  1.1484  1.5587
  614MOL0     H82852  11.843   5.495   9.254  0.2843 -0.2260 -0.2794
  614MOL0     H82853  12.082   5.523   9.262  0.9950  0.8881 -0.1759
  614MOL0     H82854  12.254   5.575   9.382 -1.6359  0.9034 -3.3260
  614MOL0     H82855  12.377   5.681   9.343 -1.4559 -4.0742 -6.0946
  614MOL0     H82856  12.299   5.850   9.521  3.0972 -1.1642 -1.2474
  614MOL0     H82857  12.185   5.730   9.583 -1.0653 -3.7562 -2.9015
  614MOL0     H82858  12.372   5.591   9.664  2.1705  0.7166  0.7149
  614MOL0     H82859  12.493   5.674   9.573  0.4578 -3.8776  0.6144
  614MOL0     H82860  12.302   5.808   9.778 -0.1771  0.6632 -0.2750
  614MOL0     H82861  12.451   5.884   9.710 -0.6648 -0.6263 -1.4444
  614MOL0     H82862  12.487   5.820   9.936 -0.0486 -1.6428  1.6395
  614MOL0     H82863  12.583   5.707   9.830 -0.1426  1.2702 -1.4178
  614MOL0     H82864  12.308   5.687   9.989 -2.7947 -4.8393 -0.8735
  614MOL0     H82865  12.355   5.560   9.883 -3.1550  0.4263  1.9873
  614MOL0     H82866  12.499   5.666  10.125 -0.0183  0.4461  0.2429
  614MOL0     H82867  12.565   5.531  10.035 -1.2518  0.0434 -1.8593
  614MOL0     H82868  12.340   5.403  10.078  3.8516 -0.8820 -1.1250
  614MOL0     H82869  12.449   5.433  10.209 -0.3988  0.7274  0.5420
  614MOL0     H82870  12.027   5.924   9.429 -0.8619 -0.7262  2.7936
  614MOL0     H82871  11.800   5.880   9.465 -1.1460 -0.7414  1.4649
  614MOL0     H82872  11.443   5.360   9.516 -1.1297 -0.9447 -0.3717
  614MOL0     H82873  11.201   5.372   9.524  1.0982 -0.1260  0.5726
  614MOL0     H82874   9.267   5.440   9.178  1.0772  0.8813  0.5133
  614MOL0     H82875   9.035   5.503   9.094  2.1902  0.4049 -1.8427
  614MOL0     H82876   8.562   5.500   9.125 -1.8622 -0.5049 -1.6310
  614MOL0     H82877   8.344   5.578   9.049 -2.3415  2.2465  0.0583
  614MOL0     H82878   8.241   5.912   8.741 -0.3743  1.6274 -0.2344
  614MOL0     H82879   8.411   5.969   8.780 -0.1551  0.8129 -0.7830
  614MOL0     H82880   8.358   6.044   8.985  0.6464  1.0878 -1.5046
  614MOL0     H82881   8.192   5.969   8.979 -0.8533 -1.1043 -1.6032
  614MOL0     H82882   8.190   6.208   8.958 -1.9435 -2.9567  0.9212
  614MOL0     H82883   8.115   6.112   8.820 -0.8815 -0.8360  2.3924
  614MOL0     H82884   8.339   6.161   8.691 -0.9569  0.0859 -0.6470
  614MOL0     H82885   8.263   6.317   8.731 -0.9104 -1.5683 -2.8164
  614MOL0     H82886   8.604   6.363   8.961 -0.0397  1.2192  0.2116
  614MOL0     H82887   8.570   5.924   8.885  0.9958  0.8070 -0.4453
  614MOL0     H82888   8.832   5.909   9.091 -0.0670 -2.1981  1.0638
  614MOL0     H82889   8.875   5.807   8.949 -0.9656 -1.0754  1.0893
  614MOL0     H82890   8.794   5.963   8.921  0.1752 -1.3163 -1.2868
  615MOL0     O82891   5.060   6.251   9.717 -0.7897 -0.4261 -0.7739
  615MOL0     C82892   5.042   6.302   9.603  1.3287  0.0839 -0.2272
  615MOL0     O82893   5.003   6.228   9.495  0.0121  0.1849  0.2870
  615MOL0     C82894   5.065   6.101   9.498 -0.1943  0.3922 -0.5953
  615MOL0     C82895   5.209   6.085   9.482  0.7788  0.3665 -0.2726
  615MOL0     C82896   5.252   5.956   9.472  1.1437  0.8633  0.2387
  615MOL0     C82897   5.168   5.840   9.488  0.1039 -0.1049  0.0797
  615MOL0     O82898   5.248   5.722   9.487  0.7248  0.1576 -0.0045
  615MOL0     C82899   5.186   5.592   9.512 -0.1484 -0.7017  0.6996
  615MOL0     C82900   5.285   5.473   9.489 -0.5511  0.2447 -0.2170
  615MOL0     C82901   5.361   5.497   9.358 -0.2817  0.1428  0.6324
  615MOL0     C82902   5.422   5.371   9.308 -0.4322  0.0785  0.9489
  615MOL0     C82903   5.493   5.387   9.170  0.1117 -0.7195  0.2982
  615MOL0     C82904   5.390   5.424   9.063  0.1007 -0.5686  0.1840
  615MOL0     C82905   5.449   5.424   8.919 -0.2802  0.4683  0.6826
  615MOL0     C82906   5.354   5.482   8.811  0.0650 -0.9566  0.1694
  615MOL0     N82907   5.401   5.452   8.680 -0.6886  0.3910  0.2243
  615MOL0     C82908   5.380   5.337   8.598  0.1047 -0.3927 -0.0561
  615MOL0     C82909   5.455   5.352   8.484  1.0872  0.7791  1.2846
  615MOL0     C82910   5.474   5.244   8.389  0.5198  0.6888 -0.6660
  615MOL0     C82911   5.534   5.109   8.450 -0.3249  0.0233  0.3360
  615MOL0     C82912   5.664   5.133   8.543  0.1670  0.0467 -0.6325
  615MOL0     C82913   5.666   5.001   8.628  0.9146 -0.7719 -0.0013
  615MOL0     O82914   5.639   4.885   8.546 -0.3647  0.6798 -0.5180
  615MOL0     C82915   5.752   4.837   8.493  0.2024  0.1372  0.2813
  615MOL0     C82916   5.745   4.818   8.354 -0.5492 -0.6099 -0.4731
  615MOL0     C82917   5.853   4.773   8.281 -0.5079  0.2288  0.0069
  615MOL0     C82918   5.973   4.728   8.347  0.5741  0.5180 -0.8001
  615MOL0     C82919   6.083   4.665   8.275 -0.1760  1.7881 -0.0954
  615MOL0     O82920   6.201   4.664   8.342 -0.1349  0.3912 -0.6399
  615MOL0     C82921   6.320   4.611   8.288 -0.1095 -0.1445 -0.0265
  615MOL0     C82922   6.441   4.674   8.306 -1.5820  0.3426  0.2873
  615MOL0     C82923   6.561   4.601   8.281 -1.1702 -0.5685 -0.1475
  615MOL0     C82924   6.566   4.477   8.226 -0.8215  0.8781  0.6590
  615MOL0     O82925   6.684   4.421   8.197 -0.2392 -0.5815  0.1875
  615MOL0     C82926   6.723   4.305   8.272 -0.1176  0.3975  0.1636
  615MOL0     C82927   6.874   4.275   8.244  0.2272  0.7024  0.4232
  615MOL0     C82928   6.916   4.266   8.098  0.5785 -0.4506 -0.5978
  615MOL0     C82929   7.056   4.218   8.085  1.2227  1.2545  0.6707
  615MOL0     C82930   7.101   4.232   7.932 -0.1454 -0.5767 -0.2142
  615MOL0     C82931   7.249   4.181   7.915  0.4648 -0.6395 -0.1037
  615MOL0     C82932   7.354   4.273   7.988  0.5248  0.3174 -0.8794
  615MOL0     C82933   7.488   4.204   7.977 -0.6277 -0.0961  0.3746
  615MOL0    Cl82934   7.544   4.175   7.806 -0.0574 -0.3011 -0.2423
  615MOL0     C82935   6.443   4.411   8.212 -0.2556  0.7502  0.5670
  615MOL0     C82936   6.323   4.474   8.244 -0.8898  0.0417 -0.8141
  615MOL0     O82937   6.061   4.616   8.162 -0.0574  0.2919  0.1089
  615MOL0     C82938   5.980   4.740   8.481  0.2772  0.3036 -0.5174
  615MOL0     C82939   5.874   4.809   8.559 -0.2311  0.3628  0.5812
  615MOL0     N82940   5.522   5.477   8.485  0.1651 -0.1777  0.0284
  615MOL0     N82941   5.481   5.529   8.600 -0.2266 -0.9847 -0.2041
  615MOL0     C82942   5.033   5.860   9.508 -0.2385  1.1525 -0.3721
  615MOL0     C82943   4.979   5.990   9.509  0.3763 -0.4604 -0.6330
  615MOL0     C82944   5.064   6.447   9.579 -0.5581  0.9383 -0.8863
  615MOL0     C82945   5.053   6.512   9.457 -0.0080  0.5019 -0.3321
  615MOL0     C82946   5.096   6.638   9.430 -0.1979 -1.4665 -0.4590
  615MOL0     C82947   5.141   6.717   9.535 -0.1289 -0.9792 -0.5595
  615MOL0     O82948   5.199   6.845   9.521 -0.1557  0.2540  0.2445
  615MOL0     C82949   5.214   6.903   9.393 -0.6363 -0.2095  0.1914
  615MOL0     C82950   5.243   7.054   9.396  0.5907  0.3486  0.9464
  615MOL0     C82951   5.275   7.110   9.255 -0.0996 -1.0266 -0.4117
  615MOL0     C82952   5.332   7.264   9.259 -0.1117  1.0221 -0.3244
  615MOL0     C82953   5.318   7.333   9.135  0.2914  0.1709  1.6361
  615MOL0     C82954   5.301   7.392   9.029 -0.6448 -0.0984  0.1199
  615MOL0     C82955   5.127   6.668   9.665  0.1713 -0.0450  0.1967
  615MOL0     C82956   5.098   6.530   9.688  0.3845 -0.2783  0.1483
  615MOL0     C82957   5.091   6.499   9.834  0.1579 -0.3379 -1.3787
  615MOL0     H82958   5.283   6.163   9.468 -1.2135  2.0705 -2.1442
  615MOL0     H82959   5.357   5.938   9.455  1.5207  3.5445 -0.7415
  615MOL0     H82960   5.150   5.577   9.615 -1.2708 -4.6096 -0.0870
  615MOL0     H82961   5.108   5.574   9.437  2.9546 -3.1083 -2.2731
  615MOL0     H82962   5.233   5.377   9.490 -2.7534  1.3190  2.7488
  615MOL0     H82963   5.354   5.463   9.573 -1.2112 -2.4195  0.0839
  615MOL0     H82964   5.441   5.571   9.365  0.9153 -0.9264 -0.8647
  615MOL0     H82965   5.287   5.532   9.285  0.1422 -1.8700 -0.8707
  615MOL0     H82966   5.489   5.342   9.389  0.2735 -0.6123  0.1479
  615MOL0     H82967   5.344   5.295   9.304 -2.6126  2.1901  1.1720
  615MOL0     H82968   5.568   5.467   9.167 -1.6445  0.9980  0.1193
  615MOL0     H82969   5.539   5.294   9.137 -1.2654  0.1959 -5.1109
  615MOL0     H82970   5.311   5.349   9.073 -0.4579  0.1185  1.1222
  615MOL0     H82971   5.360   5.528   9.082  1.4758  0.3466 -2.1809
  615MOL0     H82972   5.458   5.319   8.891  0.8008  0.4999  0.8558
  615MOL0     H82973   5.541   5.483   8.920 -0.9003  1.4620  1.5676
  615MOL0     H82974   5.251   5.444   8.806 -0.9172  1.5801 -0.4892
  615MOL0     H82975   5.346   5.591   8.823 -0.3943 -0.7337 -1.8284
  615MOL0     H82976   5.315   5.256   8.627 -1.0576  0.8465  0.9583
  615MOL0     H82977   5.373   5.222   8.352  0.3254  0.9225 -0.2819
  615MOL0     H82978   5.543   5.274   8.310  2.0074 -1.7752 -0.3753
  615MOL0     H82979   5.458   5.065   8.514 -0.2768 -1.4429 -0.5614
  615MOL0     H82980   5.568   5.039   8.372  0.9376  0.1124  0.7890
  615MOL0     H82981   5.637   5.217   8.607  0.9051 -2.7232  3.7756
  615MOL0     H82982   5.759   5.152   8.493  1.3346 -0.6645  1.2107
  615MOL0     H82983   5.592   4.995   8.708  0.5804 -1.1827 -0.3429
  615MOL0     H82984   5.761   4.985   8.681 -0.2602 -1.2247  2.0600
  615MOL0     H82985   5.660   4.847   8.292  1.4065 -0.1588 -3.1085
  615MOL0     H82986   5.859   4.770   8.173 -0.6411 -1.2739  0.0199
  615MOL0     H82987   6.438   4.778   8.338 -2.8745  0.8855 -1.4549
  615MOL0     H82988   6.654   4.648   8.311 -2.5371  1.8514  0.5996
  615MOL0     H82989   6.712   4.326   8.379 -1.5211  1.4424 -0.1640
  615MOL0     H82990   6.670   4.214   8.243 -0.1557  0.7176 -0.8196
  615MOL0     H82991   6.929   4.353   8.297  0.3617  1.3634 -0.6430
  615MOL0     H82992   6.897   4.178   8.288  0.2159  0.4413 -0.1417
  615MOL0     H82993   6.850   4.204   8.037  0.4845 -0.9397 -0.0096
  615MOL0     H82994   6.909   4.367   8.056  3.5623  0.3815  0.6512
  615MOL0     H82995   7.066   4.111   8.106  0.3596  0.4222 -2.6841
  615MOL0     H82996   7.116   4.267   8.163  2.7959 -0.4746  0.6178
  615MOL0     H82997   7.098   4.337   7.899  2.1169  0.2003  1.7519
  615MOL0     H82998   7.037   4.167   7.872 -0.3511 -0.8369  0.2821
  615MOL0     H82999   7.259   4.076   7.946  0.5001 -0.7182 -0.3773
  615MOL0     H83000   7.284   4.187   7.811  0.6801  0.1029  0.0026
  615MOL0     H83001   7.333   4.289   8.094 -2.3735  0.9083 -1.4562
  615MOL0     H83002   7.355   4.374   7.945  0.6488  0.4593 -0.5452
  615MOL0     H83003   7.560   4.271   8.025 -0.3126  0.5256 -0.9197
  615MOL0     H83004   7.487   4.110   8.033 -0.3779 -0.3858 -0.1048
  615MOL0     H83005   6.453   4.306   8.186  0.0063  1.0419 -0.5556
  615MOL0     H83006   6.227   4.424   8.250 -0.7596 -0.1320  4.0904
  615MOL0     H83007   6.069   4.725   8.541  0.1400  1.8197  0.1035
  615MOL0     H83008   5.871   4.833   8.665 -2.6110  1.1009  0.4058
  615MOL0     H83009   4.967   5.773   9.510 -0.3097  1.0795 -2.9921
  615MOL0     H83010   4.875   6.020   9.518 -0.5262 -3.7942  2.9035
  615MOL0     H83011   5.025   6.446   9.376 -0.5195 -1.0068  1.0425
  615MOL0     H83012   5.098   6.677   9.329 -0.3715 -0.9525 -0.2712
  615MOL0     H83013   5.121   6.887   9.339 -1.4973  0.5842  1.3970
  615MOL0     H83014   5.304   6.855   9.354  1.4962  2.1011  1.9113
  615MOL0     H83015   5.319   7.081   9.470  4.0862 -3.0365 -1.0410
  615MOL0     H83016   5.152   7.108   9.423 -0.2527 -1.2427  1.4167
  615MOL0     H83017   5.177   7.124   9.209  0.6495  0.6498 -1.5970
  615MOL0     H83018   5.334   7.038   9.199  1.4556  0.3884 -0.6770
  615MOL0     H83019   5.276   7.315   9.337  2.2385 -0.4021  2.4860
  615MOL0     H83020   5.435   7.262   9.295 -0.9923  1.6147  2.4064
  615MOL0     H83021   5.282   7.465   8.953 -2.2926  1.6168  2.0384
  615MOL0     H83022   5.138   6.747   9.739  1.5436  2.0454 -2.0787
  615MOL0     H83023   5.081   6.597   9.883 -0.8619  0.3207 -2.8357
  615MOL0     H83024   4.990   6.463   9.857  0.5633  0.2095  1.7391
  615MOL0     H83025   5.162   6.428   9.877 -0.8017 -0.8369 -0.5826
  616MOL0     O83026   3.567   4.157   3.679  0.3299 -0.4278 -0.5175
  616MOL0     C83027   3.528   4.250   3.759 -1.4015 -0.3813 -0.5783
  616MOL0     O83028   3.599   4.362   3.786  0.0522  0.5467 -0.3459
  616MOL0     C83029   3.716   4.390   3.716 -0.2839  0.3221 -0.6037
  616MOL0     C83030   3.736   4.525   3.685  0.4078 -0.2627  0.8125
  616MOL0     C83031   3.854   4.566   3.638  0.3429 -0.0153  0.7274
  616MOL0     C83032   3.961   4.473   3.617 -0.7858 -0.0122 -1.2483
  616MOL0     O83033   4.089   4.512   3.583  0.1282  0.1675 -0.1793
  616MOL0     C83034   4.135   4.645   3.624  0.4671 -0.3020 -0.4908
  616MOL0     C83035   4.270   4.655   3.565  0.1374  0.2395  0.4248
  616MOL0     C83036   4.361   4.553   3.632 -0.8638 -0.3852 -0.6114
  616MOL0     C83037   4.460   4.633   3.733  0.1998  0.1347  0.1191
  616MOL0     C83038   4.599   4.572   3.719  1.7367 -0.2435  0.3895
  616MOL0     C83039   4.673   4.608   3.851  0.2082 -0.1717  0.5964
  616MOL0     C83040   4.823   4.576   3.819 -1.4408 -0.0286 -0.0312
  616MOL0     C83041   4.906   4.677   3.730 -0.9866  0.1962 -0.1621
  616MOL0     N83042   5.023   4.615   3.673 -0.1267 -0.4446 -0.5326
  616MOL0     C83043   5.093   4.506   3.722  0.1339  0.2611  1.0795
  616MOL0     C83044   5.192   4.497   3.631  0.1104  0.0387 -0.1651
  616MOL0     C83045   5.300   4.388   3.629  0.2331  0.7668  0.3052
  616MOL0     C83046   5.412   4.425   3.722  0.0409  0.1113  0.0349
  616MOL0     C83047   5.503   4.307   3.752  0.4582 -0.0319  0.5969
  616MOL0     C83048   5.611   4.335   3.846 -0.5765 -0.8437  0.0677
  616MOL0     O83049   5.706   4.427   3.780 -0.2375 -0.6338 -0.4507
  616MOL0     C83050   5.811   4.494   3.837  0.3404 -0.6473 -0.3476
  616MOL0     C83051   5.905   4.547   3.745  0.7575 -0.0560 -0.4854
  616MOL0     C83052   6.022   4.611   3.795  0.1070  0.7843 -0.0771
  616MOL0     C83053   6.050   4.604   3.937  0.4045 -0.4098  0.2816
  616MOL0     C83054   6.172   4.663   3.995 -0.0656 -0.4729  0.2664
  616MOL0     O83055   6.260   4.730   3.913  0.0500 -0.1426 -0.6361
  616MOL0     C83056   6.391   4.712   3.941 -0.3095 -0.3180 -0.7326
  616MOL0     C83057   6.464   4.825   3.979 -0.0941 -0.2131 -0.4983
  616MOL0     C83058   6.598   4.811   4.015  1.4887  0.2501 -0.6958
  616MOL0     C83059   6.668   4.681   4.018 -0.6959 -0.1291  0.3577
  616MOL0     O83060   6.798   4.655   4.040 -0.6690 -0.2929 -0.1979
  616MOL0     C83061   6.841   4.745   4.151 -0.2056  0.0253 -0.0653
  616MOL0     C83062   6.987   4.705   4.159 -0.4395  0.0542  0.3002
  616MOL0     C83063   7.039   4.763   4.289  0.3217  0.3876  0.1047
  616MOL0     C83064   7.000   4.676   4.414 -0.2860  0.2434 -0.4380
  616MOL0     C83065   7.116   4.691   4.518 -0.7290 -0.3373  0.1872
  616MOL0     C83066   7.249   4.630   4.471  0.4634  0.3473 -0.1083
  616MOL0     C83067   7.340   4.596   4.588 -0.3085 -0.1359  0.3314
  616MOL0     C83068   7.468   4.525   4.527 -0.1058 -0.5107 -1.2959
  616MOL0    Cl83069   7.424   4.364   4.480  0.2224 -0.1550 -0.0309
  616MOL0     C83070   6.594   4.564   3.969 -0.3339 -0.4057  0.5129
  616MOL0     C83071   6.455   4.585   3.940  0.1358 -0.0774  0.2039
  616MOL0     O83072   6.194   4.650   4.114 -0.4651 -0.1618 -0.4151
  616MOL0     C83073   5.954   4.544   4.023  0.0357 -0.3170  0.1511
  616MOL0     C83074   5.839   4.491   3.971 -0.4863  0.7952  0.3669
  616MOL0     N83075   5.183   4.603   3.539  0.2527  0.7528 -0.0319
  616MOL0     N83076   5.084   4.669   3.565  0.7099 -0.1452 -0.6679
  616MOL0     C83077   3.946   4.339   3.657 -0.0685  0.2812 -0.5037
  616MOL0     C83078   3.828   4.299   3.701  0.8817 -0.2205 -0.2780
  616MOL0     C83079   3.393   4.229   3.814  0.7296  0.1102  0.1660
  616MOL0     C83080   3.317   4.339   3.870 -0.3960 -0.9256 -0.1257
  616MOL0     C83081   3.191   4.328   3.934  0.7683 -1.4127  0.2942
  616MOL0     C83082   3.128   4.203   3.929  0.3162 -0.1294 -0.7065
  616MOL0     O83083   3.009   4.184   3.986 -0.8284  0.0311  0.1021
  616MOL0     C83084   2.911   4.129   3.901  0.8828 -0.1504  0.6425
  616MOL0     C83085   2.789   4.205   3.929 -1.1162  0.7772 -0.8570
  616MOL0     C83086   2.659   4.140   3.871 -0.7344  0.7881  0.0775
  616MOL0     C83087   2.530   4.203   3.906  0.4403 -0.6676  1.0383
  616MOL0     C83088   2.519   4.324   3.831  0.9842  0.1661  1.1239
  616MOL0     C83089   2.497   4.430   3.775 -0.3447 -0.6442  0.3065
  616MOL0     C83090   3.190   4.104   3.860  0.0396  1.1666  0.1397
  616MOL0     C83091   3.314   4.111   3.804  0.2238  0.2838 -0.1448
  616MOL0     C83092   3.360   3.972   3.743  0.5728 -0.9045 -0.1316
  616MOL0     H83093   3.672   4.608   3.715 -1.7447 -0.8943 -1.6960
  616MOL0     H83094   3.868   4.668   3.605  0.6491 -0.2177  0.2236
  616MOL0     H83095   4.075   4.723   3.575  1.3412  1.5621  1.2377
  616MOL0     H83096   4.145   4.658   3.732 -1.5144 -1.1294 -0.1701
  616MOL0     H83097   4.319   4.751   3.580  0.8123 -0.2350  1.3365
  616MOL0     H83098   4.263   4.650   3.456 -1.7446  2.3819  0.3799
  616MOL0     H83099   4.419   4.499   3.557  0.5669  1.3217 -0.7916
  616MOL0     H83100   4.294   4.487   3.689 -0.8748  1.6609  1.9524
  616MOL0     H83101   4.466   4.738   3.705  0.4272  0.2489  0.5906
  616MOL0     H83102   4.429   4.630   3.838  1.6952  0.0876  0.5818
  616MOL0     H83103   4.589   4.464   3.709  0.0277 -0.1137  0.4828
  616MOL0     H83104   4.652   4.618   3.635 -0.0350  2.2171  0.5189
  616MOL0     H83105   4.663   4.712   3.884  1.1931 -0.4889  1.9805
  616MOL0     H83106   4.631   4.543   3.929 -2.5171 -0.5259 -1.0309
  616MOL0     H83107   4.822   4.474   3.779  1.4187  0.5484 -1.8691
  616MOL0     H83108   4.880   4.576   3.912 -2.8743 -0.8365  0.8906
  616MOL0     H83109   4.843   4.712   3.647 -0.2980  0.2410 -0.6744
  616MOL0     H83110   4.936   4.759   3.796  0.3927 -0.7820  0.4750
  616MOL0     H83111   5.069   4.445   3.809 -0.0389 -1.2829 -0.0110
  616MOL0     H83112   5.267   4.297   3.681  3.0739 -0.1872  0.6435
  616MOL0     H83113   5.340   4.366   3.530  2.0076  0.7488  0.9770
  616MOL0     H83114   5.465   4.515   3.689 -2.3900  1.4561 -0.5080
  616MOL0     H83115   5.368   4.458   3.817 -1.3817  1.3477 -1.0009
  616MOL0     H83116   5.549   4.270   3.660 -0.7881  1.8385 -0.8408
  616MOL0     H83117   5.450   4.223   3.798 -1.2912  1.0834  0.6900
  616MOL0     H83118   5.650   4.243   3.890  2.3169 -0.5466 -1.5942
  616MOL0     H83119   5.575   4.373   3.942  0.2805  1.6646 -0.5129
  616MOL0     H83120   5.880   4.558   3.640  1.3531 -1.9061 -0.8669
  616MOL0     H83121   6.082   4.654   3.715  0.3772 -2.2507 -1.6469
  616MOL0     H83122   6.398   4.912   3.973 -2.5532 -1.8808  0.8028
  616MOL0     H83123   6.639   4.909   4.039 -2.4229  1.7510  0.7782
  616MOL0     H83124   6.852   4.853   4.139  3.2823  0.2545  3.3858
  616MOL0     H83125   6.797   4.729   4.249  1.2488  0.4122  0.6804
  616MOL0     H83126   7.006   4.599   4.142  0.6530  0.5039 -1.4789
  616MOL0     H83127   7.039   4.756   4.078  0.9959  0.2021  1.2789
  616MOL0     H83128   7.147   4.773   4.278  0.3193  0.2821 -0.0088
  616MOL0     H83129   7.004   4.865   4.308 -0.3396 -0.1469  1.9831
  616MOL0     H83130   7.002   4.568   4.392  1.8686  0.1854 -0.0838
  616MOL0     H83131   6.913   4.704   4.474  1.6044  2.9153  1.2847
  616MOL0     H83132   7.089   4.628   4.604  0.7785 -0.8810  0.2944
  616MOL0     H83133   7.112   4.796   4.548  1.5568 -0.2245  0.2419
  616MOL0     H83134   7.224   4.540   4.414 -0.3142  0.2405  0.3827
  616MOL0     H83135   7.299   4.707   4.413  2.0343 -0.1839  0.4879
  616MOL0     H83136   7.300   4.530   4.666  0.3514 -0.7210  0.1830
  616MOL0     H83137   7.354   4.694   4.634 -2.6502  0.7228 -0.6313
  616MOL0     H83138   7.504   4.583   4.442  1.0018  1.5783  0.4793
  616MOL0     H83139   7.549   4.523   4.601 -0.0497 -1.3313 -1.3722
  616MOL0     H83140   6.623   4.460   3.964 -2.2161 -0.9247 -1.0611
  616MOL0     H83141   6.400   4.498   3.904  0.5567 -0.5900  0.7826
  616MOL0     H83142   5.964   4.546   4.131 -0.0719  1.5271  0.1585
  616MOL0     H83143   5.767   4.452   4.042 -2.1474 -1.3877 -2.3134
  616MOL0     H83144   4.024   4.267   3.638  1.9908  1.9289  1.2150
  616MOL0     H83145   3.821   4.194   3.725  0.7685 -0.0938  0.2585
  616MOL0     H83146   3.371   4.433   3.866  1.4349 -1.9130  0.3909
  616MOL0     H83147   3.154   4.418   3.983  0.9211 -1.6877  0.9235
  616MOL0     H83148   2.886   4.027   3.931  0.1731  0.6166  2.8673
  616MOL0     H83149   2.943   4.143   3.798 -1.0883 -1.0064 -0.1144
  616MOL0     H83150   2.797   4.308   3.891  2.5563  0.8978 -0.1897
  616MOL0     H83151   2.774   4.202   4.037 -0.0180 -2.1578 -0.7059
  616MOL0     H83152   2.653   4.038   3.908 -1.2806  1.3832  1.7009
  616MOL0     H83153   2.666   4.143   3.762  0.3911 -0.1753  0.1015
  616MOL0     H83154   2.444   4.138   3.889  1.2436 -1.8409  1.2371
  616MOL0     H83155   2.524   4.211   4.015  1.5859 -1.2226  1.1702
  616MOL0     H83156   2.462   4.521   3.730 -0.8047 -1.2012 -0.4769
  616MOL0     H83157   3.132   4.012   3.863  1.3364  0.3398  0.8112
  616MOL0     H83158   3.457   3.948   3.787 -0.4367  0.1775  2.9408
  616MOL0     H83159   3.286   3.893   3.762 -1.2668  0.7904  0.0948
  616MOL0     H83160   3.358   3.977   3.633 -1.5844  0.7095 -0.0961
  617MOL0     O83161   4.152   8.487   7.929  0.0895  0.8272 -0.0354
  617MOL0     C83162   4.159   8.589   7.991  0.1941 -1.5017 -0.0321
  617MOL0     O83163   4.269   8.671   8.005 -0.0875 -0.3456  0.1198
  617MOL0     C83164   4.395   8.625   7.971 -0.7235 -0.8184 -0.2645
  617MOL0     C83165   4.438   8.493   7.950  0.0933 -0.7578  0.1358
  617MOL0     C83166   4.567   8.467   7.902 -0.4525  0.2252 -0.3560
  617MOL0     C83167   4.660   8.565   7.886 -1.0930 -0.7192  0.0890
  617MOL0     O83168   4.783   8.536   7.821  0.2862  0.1556 -0.1680
  617MOL0     C83169   4.887   8.492   7.911  0.5687  0.7930 -0.9653
  617MOL0     C83170   5.024   8.489   7.840  0.7622 -0.0185  0.0842
  617MOL0     C83171   5.093   8.632   7.835 -0.7330  0.5167  0.8495
  617MOL0     C83172   5.244   8.608   7.813 -0.3901 -0.1665 -0.7697
  617MOL0     C83173   5.315   8.745   7.834 -0.6304 -0.0501 -0.4935
  617MOL0     C83174   5.454   8.731   7.774 -0.1922 -0.0925 -0.1023
  617MOL0     C83175   5.531   8.855   7.793  0.1096 -0.3461 -0.3568
  617MOL0     C83176   5.678   8.846   7.727 -0.5159 -0.3022  0.3774
  617MOL0     N83177   5.762   8.968   7.733  0.9133 -0.1668  0.2947
  617MOL0     C83178   5.761   9.075   7.643  0.8249  0.0901 -0.4140
  617MOL0     C83179   5.863   9.159   7.681  0.3486 -0.2498 -0.4718
  617MOL0     C83180   5.896   9.297   7.621  0.8164 -0.5497  0.4685
  617MOL0     C83181   5.776   9.400   7.608 -0.4390  0.0968  0.8032
  617MOL0     C83182   5.810   9.523   7.526  0.6586 -0.3978 -0.1589
  617MOL0     C83183   5.686   9.585   7.453 -0.5960 -0.5704  1.7602
  617MOL0     O83184   5.599   9.648   7.546  0.3546  0.3899  0.1615
  617MOL0     C83185   5.464   9.629   7.528  0.3745 -0.1484  0.2426
  617MOL0     C83186   5.389   9.592   7.641  0.1254 -0.1785  0.1348
  617MOL0     C83187   5.253   9.571   7.637  0.2070  0.6412  0.5569
  617MOL0     C83188   5.186   9.563   7.511 -0.4272 -0.4566 -0.2274
  617MOL0     C83189   5.042   9.509   7.507 -0.1987 -0.2078  0.2084
  617MOL0     O83190   4.976   9.498   7.632  0.4799  0.1088 -0.3661
  617MOL0     C83191   4.841   9.489   7.643  1.1557 -0.7860  0.5144
  617MOL0     C83192   4.752   9.545   7.547  0.1373  0.5350  0.7314
  617MOL0     C83193   4.612   9.540   7.565 -0.2918 -0.1467 -0.3919
  617MOL0     C83194   4.552   9.486   7.678  0.1977  0.3674 -0.9188
  617MOL0     O83195   4.415   9.487   7.708 -0.6111  0.3253 -0.4065
  617MOL0     C83196   4.328   9.496   7.590 -0.3363 -0.2169 -0.2806
  617MOL0     C83197   4.191   9.484   7.636  0.6512 -0.1645 -0.4266
  617MOL0     C83198   4.090   9.473   7.516  0.5238 -0.2954 -0.9689
  617MOL0     C83199   3.943   9.500   7.558 -0.9480 -0.7887  0.7497
  617MOL0     C83200   3.841   9.488   7.452  0.6483  0.0899 -0.3930
  617MOL0     C83201   3.812   9.350   7.405 -0.6337  0.2706  0.2433
  617MOL0     C83202   3.686   9.355   7.312 -0.5660  0.4046  0.4388
  617MOL0     C83203   3.680   9.241   7.211  0.0821 -0.1837  0.3768
  617MOL0    Cl83204   3.621   9.105   7.310 -0.0425 -0.3786  0.2117
  617MOL0     C83205   4.635   9.440   7.780 -0.2378 -0.3406 -0.0185
  617MOL0     C83206   4.780   9.450   7.764 -0.1938  0.3622  0.0558
  617MOL0     O83207   4.993   9.476   7.399 -0.1015  0.0511 -0.2818
  617MOL0     C83208   5.263   9.599   7.395  0.3059  0.3187  0.7020
  617MOL0     C83209   5.408   9.623   7.397 -0.6230  0.4503 -0.7365
  617MOL0     N83210   5.921   9.096   7.786  0.1160 -0.0592  0.4118
  617MOL0     N83211   5.871   8.980   7.810 -0.0717  0.2215  0.5237
  617MOL0     C83212   4.619   8.702   7.909  0.5157  0.6584  1.0972
  617MOL0     C83213   4.492   8.724   7.971 -0.6469  0.9618  0.1747
  617MOL0     C83214   4.032   8.658   8.048 -0.7439 -0.0123  1.1982
  617MOL0     C83215   3.943   8.586   8.130  0.0426 -0.1341 -0.6173
  617MOL0     C83216   3.820   8.643   8.147  0.2080 -0.4363  0.1045
  617MOL0     C83217   3.785   8.769   8.112 -0.0779 -0.0431 -0.3466
  617MOL0     O83218   3.661   8.813   8.150 -0.8036 -0.3729 -0.9292
  617MOL0     C83219   3.620   8.952   8.128  0.5245  1.4601  0.0477
  617MOL0     C83220   3.480   8.961   8.206  0.0648  0.4672  0.6731
  617MOL0     C83221   3.431   9.108   8.178 -0.1675  0.1465  0.2646
  617MOL0     C83222   3.305   9.141   8.259 -0.8493  0.5908  0.3282
  617MOL0     C83223   3.250   9.268   8.206 -0.3697 -0.5661  0.0337
  617MOL0     C83224   3.197   9.377   8.170 -0.1753  0.3005  0.0528
  617MOL0     C83225   3.879   8.841   8.042  0.2283  0.0726  0.2768
  617MOL0     C83226   3.999   8.787   8.001  0.4686  0.1895  0.3867
  617MOL0     C83227   4.077   8.856   7.887  0.9508 -0.8141  0.7097
  617MOL0     H83228   4.376   8.408   7.974  2.7246 -2.0067  3.2009
  617MOL0     H83229   4.605   8.370   7.873  2.5645  1.8794 -2.4515
  617MOL0     H83230   4.890   8.557   7.999  4.6359 -0.1613 -0.2275
  617MOL0     H83231   4.870   8.389   7.944 -2.5614  0.4585 -3.0874
  617MOL0     H83232   5.004   8.456   7.738  1.5584 -0.4033  0.0531
  617MOL0     H83233   5.093   8.419   7.886 -1.7759 -2.3898  0.5583
  617MOL0     H83234   5.073   8.670   7.936  0.0997 -0.8860  1.5846
  617MOL0     H83235   5.046   8.688   7.754  0.3362  0.2756  0.0440
  617MOL0     H83236   5.276   8.529   7.881 -2.0121  0.1564  0.4246
  617MOL0     H83237   5.260   8.570   7.712 -0.6668  0.2295 -0.9654
  617MOL0     H83238   5.265   8.835   7.796  0.2158  0.3870 -0.5872
  617MOL0     H83239   5.332   8.759   7.941 -1.7574  0.8158 -0.4073
  617MOL0     H83240   5.508   8.651   7.824  1.5125 -1.7178 -4.1211
  617MOL0     H83241   5.445   8.712   7.666 -2.9658 -2.4162  0.4125
  617MOL0     H83242   5.549   8.889   7.896 -0.3809  1.1786 -0.7581
  617MOL0     H83243   5.484   8.950   7.766  0.7298  0.0344 -0.1213
  617MOL0     H83244   5.725   8.764   7.783 -0.6835 -1.4907 -1.1536
  617MOL0     H83245   5.669   8.815   7.623  1.7625  0.1959 -0.0189
  617MOL0     H83246   5.691   9.084   7.561 -0.1545  1.4662  0.5206
  617MOL0     H83247   5.987   9.334   7.668  1.0649 -0.8894  0.2565
  617MOL0     H83248   5.940   9.273   7.524 -1.0931 -0.3350 -0.4962
  617MOL0     H83249   5.686   9.353   7.569 -0.7915 -0.1970  1.9154
  617MOL0     H83250   5.746   9.426   7.711 -1.5549 -0.8242  0.7239
  617MOL0     H83251   5.896   9.494   7.465  0.8506 -1.9764  0.7992
  617MOL0     H83252   5.839   9.604   7.593  0.2903 -0.5067  0.1413
  617MOL0     H83253   5.640   9.505   7.396  1.2082 -2.1652  2.4401
  617MOL0     H83254   5.717   9.668   7.389 -0.7760  0.2656  2.7198
  617MOL0     H83255   5.437   9.585   7.738 -2.1667  2.2409  1.5659
  617MOL0     H83256   5.203   9.535   7.726  3.4152 -2.5409  1.2964
  617MOL0     H83257   4.790   9.576   7.451 -0.9262 -0.7590 -0.1500
  617MOL0     H83258   4.549   9.580   7.487 -1.5710 -3.0119 -0.9462
  617MOL0     H83259   4.350   9.593   7.545 -0.5104  0.1690  0.4606
  617MOL0     H83260   4.349   9.420   7.514 -2.3680 -2.5260  1.3098
  617MOL0     H83261   4.171   9.405   7.708 -1.1220  0.1401 -0.5561
  617MOL0     H83262   4.166   9.575   7.691 -4.9698 -0.0866 -2.5428
  617MOL0     H83263   4.117   9.554   7.447 -1.8134  0.9594 -0.5054
  617MOL0     H83264   4.095   9.379   7.460  0.8549 -1.7607  1.4047
  617MOL0     H83265   3.935   9.606   7.583  0.9959 -0.2976 -0.4805
  617MOL0     H83266   3.920   9.425   7.634 -2.5770 -1.1670 -0.0758
  617MOL0     H83267   3.873   9.549   7.368 -0.8713  2.5693  0.7067
  617MOL0     H83268   3.750   9.528   7.497  0.2183  1.2396 -2.1889
  617MOL0     H83269   3.892   9.322   7.335  0.5277  3.7657 -0.0013
  617MOL0     H83270   3.806   9.275   7.485  1.4034 -2.0847 -1.6368
  617MOL0     H83271   3.703   9.447   7.255  2.9308 -0.8405 -0.7936
  617MOL0     H83272   3.588   9.372   7.359 -2.3765  1.5633 -3.2760
  617MOL0     H83273   3.607   9.274   7.136 -1.4715 -0.1507  1.8487
  617MOL0     H83274   3.774   9.218   7.161 -0.5250 -0.8855 -0.4850
  617MOL0     H83275   4.584   9.411   7.871 -1.8068  2.0524 -0.0353
  617MOL0     H83276   4.847   9.415   7.843  0.9052  2.6988  0.2522
  617MOL0     H83277   5.203   9.597   7.305 -1.1304  1.4214  1.5919
  617MOL0     H83278   5.462   9.632   7.303  0.5967  2.7570  0.1143
  617MOL0     H83279   4.691   8.782   7.894 -0.4319  1.3987  0.3097
  617MOL0     H83280   4.454   8.822   7.997  0.5646  1.4411  0.1932
  617MOL0     H83281   3.961   8.489   8.175 -1.2648 -0.4348 -0.7059
  617MOL0     H83282   3.750   8.593   8.213  0.4635 -0.2972  0.4804
  617MOL0     H83283   3.622   8.970   8.020 -1.9758 -2.1165 -0.7685
  617MOL0     H83284   3.705   8.999   8.178  0.2845  0.3411  1.5983
  617MOL0     H83285   3.507   8.945   8.311  4.0779  0.6045 -0.1763
  617MOL0     H83286   3.397   8.898   8.172 -1.7575  3.0340  0.0869
  617MOL0     H83287   3.410   9.129   8.073 -0.3791  2.4265  0.7293
  617MOL0     H83288   3.519   9.167   8.206  0.5865 -1.5017  1.6207
  617MOL0     H83289   3.231   9.061   8.247  0.2787 -0.9102  2.7123
  617MOL0     H83290   3.332   9.144   8.365 -4.0101  2.1123  1.1939
  617MOL0     H83291   3.131   9.453   8.131 -2.1045 -2.2782 -2.0684
  617MOL0     H83292   3.850   8.941   8.010 -2.4056 -0.4810  0.6390
  617MOL0     H83293   4.138   8.789   7.826 -2.0783 -1.4608 -1.8977
  617MOL0     H83294   4.007   8.899   7.815  0.1991 -2.3378  0.4938
  617MOL0     H83295   4.136   8.932   7.939  0.1596 -1.4358  2.6200
  618MOL0     O83296   8.918   2.822   1.613  0.7772  0.1467  0.1231
  618MOL0     C83297   8.942   2.710   1.666 -0.6157 -0.3721  0.1490
  618MOL0     O83298   9.040   2.615   1.621  0.0626  0.2960  0.3685
  618MOL0     C83299   9.118   2.661   1.512  0.4483  0.4606 -0.3915
  618MOL0     C83300   9.065   2.676   1.383  0.3063  0.0080 -0.2916
  618MOL0     C83301   9.151   2.731   1.290  1.0399  0.4609  1.1212
  618MOL0     C83302   9.283   2.770   1.316  0.4517  0.3030 -0.0631
  618MOL0     O83303   9.348   2.844   1.225 -0.2080  0.0685  0.1883
  618MOL0     C83304   9.487   2.829   1.213 -0.6363  0.2638  0.0030
  618MOL0     C83305   9.530   2.875   1.063  0.1829  0.0815  0.8555
  618MOL0     C83306   9.451   2.804   0.950  0.2840 -0.1527  0.1409
  618MOL0     C83307   9.539   2.761   0.833 -0.0855 -0.0493  0.0061
  618MOL0     C83308   9.661   2.667   0.855 -0.2440  0.5232  0.9590
  618MOL0     C83309   9.733   2.628   0.729  0.0170  0.3115 -0.1791
  618MOL0     C83310   9.840   2.519   0.746  0.7053 -0.4449  0.0796
  618MOL0     C83311   9.928   2.501   0.621 -0.6857  0.0187  0.0604
  618MOL0     N83312  10.024   2.391   0.648 -0.1221 -0.4716  0.2857
  618MOL0     C83313  10.038   2.284   0.571 -0.4720 -0.7725 -0.2439
  618MOL0     C83314  10.120   2.197   0.628 -1.3953  0.3026  0.3203
  618MOL0     C83315  10.161   2.063   0.575  0.5872 -0.0004  0.0571
  618MOL0     C83316  10.281   2.079   0.485 -0.7226 -0.6248 -0.3814
  618MOL0     C83317  10.406   2.110   0.577  1.8420 -0.1603 -0.0457
  618MOL0     C83318  10.542   2.116   0.506  0.2673  0.4207  0.1428
  618MOL0     O83319  10.570   2.255   0.468  0.2109 -0.3259 -0.7138
  618MOL0     C83320  10.645   2.280   0.356  0.1211 -0.8684  0.2456
  618MOL0     C83321  10.645   2.416   0.313  0.6370  0.3256 -0.7072
  618MOL0     C83322  10.720   2.462   0.214 -0.4200 -0.6975  0.9319
  618MOL0     C83323  10.817   2.385   0.154 -0.3929 -0.3215 -0.2978
  618MOL0     C83324  10.921   2.442   0.060 -0.9698  0.4436  0.3565
  618MOL0     O83325  10.897   2.572   0.030  0.2355 -0.8969 -0.2632
  618MOL0     C83326  10.994   2.635  -0.043  0.3250  1.2229 -0.5332
  618MOL0     C83327  11.110   2.675   0.022 -0.0262  0.1396 -0.2183
  618MOL0     C83328  11.209   2.743  -0.055 -0.2736 -0.4279 -0.7739
  618MOL0     C83329  11.193   2.766  -0.193  0.4048 -0.1450 -0.0699
  618MOL0     O83330  11.274   2.852  -0.266 -0.1351 -0.3656  0.2540
  618MOL0     C83331  11.412   2.849  -0.230 -0.1978  0.0559  0.1187
  618MOL0     C83332  11.464   2.954  -0.335  0.8590  0.9600 -0.1416
  618MOL0     C83333  11.612   2.948  -0.357  0.4074 -0.0612 -0.5410
  618MOL0     C83334  11.658   3.072  -0.421 -0.0767 -0.0029  0.0989
  618MOL0     C83335  11.803   3.065  -0.443 -0.4129 -0.4550  0.6334
  618MOL0     C83336  11.862   3.173  -0.540 -0.2696 -0.0472 -0.3390
  618MOL0     C83337  11.974   3.128  -0.633 -0.9198  0.0156  0.4054
  618MOL0     C83338  12.036   3.242  -0.715  1.2307  0.0881  0.0848
  618MOL0    Cl83339  12.157   3.321  -0.624 -0.0981 -0.4682  0.0530
  618MOL0     C83340  11.080   2.719  -0.260 -1.2165 -1.4752 -0.4236
  618MOL0     C83341  10.980   2.660  -0.186 -0.1032  0.4228  0.1578
  618MOL0     O83342  11.024   2.375   0.031  0.3781 -0.2800  0.1141
  618MOL0     C83343  10.824   2.248   0.195  0.5463 -0.1260  0.1907
  618MOL0     C83344  10.738   2.191   0.291 -0.1611  0.1016 -0.3256
  618MOL0     N83345  10.158   2.246   0.754  0.2753 -0.3385  0.2542
  618MOL0     N83346  10.104   2.366   0.758  1.2586 -0.2197 -0.5836
  618MOL0     C83347   9.332   2.732   1.439 -0.1462  0.2936 -0.6268
  618MOL0     C83348   9.253   2.681   1.539  0.5420 -0.0524 -0.0551
  618MOL0     C83349   8.889   2.700   1.803  1.0193  0.0982  0.3572
  618MOL0     C83350   8.795   2.794   1.857 -0.6124  1.0553 -0.1156
  618MOL0     C83351   8.739   2.776   1.979  0.5393 -0.0206  1.2330
  618MOL0     C83352   8.787   2.681   2.069  0.4205 -1.1749 -0.5517
  618MOL0     O83353   8.747   2.691   2.201  0.0609  0.3880 -0.3045
  618MOL0     C83354   8.809   2.604   2.291  0.1386  0.5631  1.1700
  618MOL0     C83355   8.739   2.640   2.426  0.1859 -0.2296 -0.2389
  618MOL0     C83356   8.582   2.601   2.414 -0.1821 -0.3449  0.3324
  618MOL0     C83357   8.506   2.606   2.544  1.0138  0.0107 -0.3291
  618MOL0     C83358   8.514   2.732   2.614 -0.6170  0.3347 -0.0548
  618MOL0     C83359   8.487   2.827   2.689 -0.1652 -0.1387 -0.7106
  618MOL0     C83360   8.897   2.610   2.028  0.9360 -0.5163 -0.3211
  618MOL0     C83361   8.948   2.618   1.900  0.5609  0.2754 -0.5006
  618MOL0     C83362   9.064   2.516   1.875  0.0315 -0.0297  0.8040
  618MOL0     H83363   8.966   2.634   1.364  0.1121  1.0487 -1.7559
  618MOL0     H83364   9.116   2.740   1.187 -3.7417 -0.8491  2.3706
  618MOL0     H83365   9.531   2.890   1.293 -0.6622 -1.9387  1.8262
  618MOL0     H83366   9.523   2.726   1.222 -1.0182  0.0659 -0.6709
  618MOL0     H83367   9.637   2.851   1.059 -0.0249 -0.7655 -0.2299
  618MOL0     H83368   9.510   2.980   1.039 -0.8250 -0.0996  0.8685
  618MOL0     H83369   9.379   2.879   0.915  0.1304 -0.1842  0.3827
  618MOL0     H83370   9.399   2.713   0.982  1.2689 -1.2702 -1.3272
  618MOL0     H83371   9.472   2.713   0.761  1.5684 -1.7270 -0.4965
  618MOL0     H83372   9.590   2.848   0.789 -1.0446  0.2867 -0.4641
  618MOL0     H83373   9.733   2.713   0.923 -0.1028  1.9180 -0.0780
  618MOL0     H83374   9.621   2.574   0.896 -1.5082 -1.1646 -3.5273
  618MOL0     H83375   9.668   2.602   0.645 -0.3770  0.0668  0.1906
  618MOL0     H83376   9.771   2.721   0.688 -4.1594  0.7377 -3.7765
  618MOL0     H83377   9.785   2.425   0.757 -0.0115 -0.1739 -0.9534
  618MOL0     H83378   9.904   2.542   0.832  2.7269 -0.8987 -1.2293
  618MOL0     H83379   9.869   2.475   0.533 -1.5568 -2.8311  1.3414
  618MOL0     H83380   9.973   2.598   0.598 -1.5007  1.0098  2.3249
  618MOL0     H83381  10.001   2.265   0.470  1.4676 -0.6075 -1.0303
  618MOL0     H83382  10.151   1.992   0.658 -2.3823  2.4201  2.0047
  618MOL0     H83383  10.080   2.035   0.507  2.5522 -1.7850 -1.6969
  618MOL0     H83384  10.309   1.990   0.429  2.0748 -1.8102  2.6185
  618MOL0     H83385  10.267   2.168   0.422  0.4841  0.2997  0.6071
  618MOL0     H83386  10.415   2.030   0.651 -3.1160 -0.2743  0.7643
  618MOL0     H83387  10.396   2.208   0.626 -3.1071  0.8882 -2.5530
  618MOL0     H83388  10.535   2.053   0.417 -2.9140 -0.2877  0.7795
  618MOL0     H83389  10.620   2.071   0.567  0.3202 -2.1029 -1.6214
  618MOL0     H83390  10.582   2.482   0.373 -0.2689 -1.7644  0.7832
  618MOL0     H83391  10.704   2.563   0.178 -2.4201 -1.1929  0.3534
  618MOL0     H83392  11.120   2.679   0.130 -0.6880  0.1327 -0.1555
  618MOL0     H83393  11.307   2.762  -0.013  0.4328  2.8079 -3.4133
  618MOL0     H83394  11.438   2.873  -0.127  0.9013 -5.4385  1.4262
  618MOL0     H83395  11.448   2.749  -0.257  0.8407  0.1135  1.2286
  618MOL0     H83396  11.416   2.940  -0.432 -0.0445  3.3714 -0.1130
  618MOL0     H83397  11.427   3.048  -0.294  1.2270  1.6084 -1.2502
  618MOL0     H83398  11.659   2.928  -0.261 -2.7273 -0.1766  1.0632
  618MOL0     H83399  11.630   2.873  -0.434 -0.2932  0.2254 -0.9948
  618MOL0     H83400  11.655   3.165  -0.363 -0.5305 -0.0624  0.1720
  618MOL0     H83401  11.597   3.084  -0.512  1.1339  1.1201 -0.6023
  618MOL0     H83402  11.827   2.971  -0.493 -0.9848 -1.2136  1.7508
  618MOL0     H83403  11.860   3.053  -0.351 -1.6984 -4.9150  1.0565
  618MOL0     H83404  11.776   3.204  -0.600 -0.1177  2.7480  0.6987
  618MOL0     H83405  11.888   3.264  -0.485 -1.5148  0.2951 -0.2949
  618MOL0     H83406  11.931   3.058  -0.704  2.0086 -1.1215 -0.4063
  618MOL0     H83407  12.052   3.068  -0.583  1.0062  0.4678 -1.8900
  618MOL0     H83408  12.094   3.210  -0.803 -0.8336  1.2602 -1.8068
  618MOL0     H83409  11.959   3.312  -0.749  1.7849  1.0967  0.8746
  618MOL0     H83410  11.084   2.739  -0.367 -1.6325 -0.6309 -0.2928
  618MOL0     H83411  10.890   2.616  -0.228  1.6847 -1.5011 -2.0191
  618MOL0     H83412  10.899   2.180   0.155  0.1765 -1.8518  2.2293
  618MOL0     H83413  10.752   2.087   0.319  2.4909  0.9531  1.9689
  618MOL0     H83414   9.435   2.760   1.454 -0.1049 -0.4138  0.4419
  618MOL0     H83415   9.302   2.660   1.634  0.8860 -1.3012 -0.4824
  618MOL0     H83416   8.756   2.877   1.798  2.3342  2.0338 -0.8385
  618MOL0     H83417   8.655   2.832   2.019 -0.7610 -2.3967  2.0347
  618MOL0     H83418   8.917   2.616   2.298  0.2279 -0.3529  1.5741
  618MOL0     H83419   8.800   2.498   2.264  3.3877  0.6279 -0.6516
  618MOL0     H83420   8.764   2.745   2.442  0.7490 -0.4903  0.6632
  618MOL0     H83421   8.789   2.582   2.504 -0.1010 -1.5745 -1.0099
  618MOL0     H83422   8.570   2.499   2.375 -1.4686  0.0462 -0.3388
  618MOL0     H83423   8.527   2.668   2.348 -1.9658 -0.4354  1.6425
  618MOL0     H83424   8.402   2.590   2.516  1.2325 -0.8048 -0.7077
  618MOL0     H83425   8.536   2.525   2.610 -4.2990 -1.1923  1.0436
  618MOL0     H83426   8.476   2.910   2.756 -0.1990 -2.0346  1.7771
  618MOL0     H83427   8.954   2.538   2.086  0.9122  0.1222  0.5097
  618MOL0     H83428   9.021   2.445   1.803  0.4577  0.5276 -0.0055
  618MOL0     H83429   9.142   2.569   1.821 -0.3219  0.9712  1.2566
  618MOL0     H83430   9.094   2.463   1.966  0.8335 -3.5086 -1.2866
  619MOL0     O83431  10.285   9.936  10.961  0.0330 -0.2402 -0.5732
  619MOL0     C83432  10.200   9.849  10.986  0.3697 -0.0639 -0.2186
  619MOL0     O83433  10.219   9.719  10.953  0.0717  0.3848  0.7690
  619MOL0     C83434  10.324   9.687  10.881 -0.8009 -0.7691  1.1993
  619MOL0     C83435  10.436   9.632  10.945 -0.0115  0.5461  0.2345
  619MOL0     C83436  10.547   9.581  10.876 -0.6179  0.3944  0.1185
  619MOL0     C83437  10.541   9.587  10.736  0.1177  1.3374 -0.3083
  619MOL0     O83438  10.638   9.543  10.650  1.0721 -0.2271 -0.1096
  619MOL0     C83439  10.744   9.464  10.706 -0.5417 -0.1839 -0.1331
  619MOL0     C83440  10.844   9.407  10.604 -0.7361  0.5028 -0.2892
  619MOL0     C83441  10.936   9.519  10.546 -0.9268 -0.5375  0.3300
  619MOL0     C83442  11.021   9.456  10.430 -0.0643 -0.2042  0.1261
  619MOL0     C83443  11.138   9.549  10.404 -0.0752  0.0653 -0.3268
  619MOL0     C83444  11.255   9.476  10.336 -0.2984 -0.5126 -0.3867
  619MOL0     C83445  11.377   9.575  10.306  0.1774 -0.2474 -0.0410
  619MOL0     C83446  11.486   9.494  10.232  0.2543  0.3367  0.0752
  619MOL0     N83447  11.602   9.575  10.219 -0.1721 -0.3009  0.0012
  619MOL0     C83448  11.715   9.528  10.159 -0.3431 -0.2972  0.4498
  619MOL0     C83449  11.811   9.632  10.164 -0.6030 -0.1257 -0.1875
  619MOL0     C83450  11.957   9.637  10.119  0.6420 -0.3600 -0.0067
  619MOL0     C83451  12.052   9.606  10.238 -0.2732 -0.6581  0.1872
  619MOL0     C83452  12.190   9.556  10.191  0.7346  0.4730 -0.3505
  619MOL0     C83453  12.271   9.680  10.149 -0.2904 -0.0497 -0.4570
  619MOL0     O83454  12.370   9.642  10.052  0.4738  0.3158  0.1044
  619MOL0     C83455  12.481   9.726  10.031  0.4458  0.8453 -0.1759
  619MOL0     C83456  12.595   9.672   9.977 -0.0694  0.0897 -0.0422
  619MOL0     C83457  12.717   9.743   9.957  0.7696 -0.1692 -0.0639
  619MOL0     C83458  12.716   9.881   9.972 -0.7081 -0.5697 -0.6465
  619MOL0     C83459  12.820   9.976   9.936  0.2126 -0.6334  0.7895
  619MOL0     O83460  12.830  10.089  10.000  0.0848  0.1851  0.0455
  619MOL0     C83461  12.910  10.190   9.950  0.6338  0.0963  0.6577
  619MOL0     C83462  12.991  10.252  10.045  0.1015  0.5595  1.0961
  619MOL0     C83463  13.069  10.367  10.016  0.6235  0.1295  0.7255
  619MOL0     C83464  13.063  10.409   9.884 -1.5009  0.9820 -0.3947
  619MOL0     O83465  13.125  10.525   9.856 -0.6284 -0.3372  0.3468
  619MOL0     C83466  13.047  10.636   9.879  0.3611  0.7948  0.3533
  619MOL0     C83467  13.132  10.762   9.892  1.1708  0.1383  0.8129
  619MOL0     C83468  13.233  10.766  10.010 -0.3759  0.5538 -0.3686
  619MOL0     C83469  13.250  10.911  10.049  0.8731  1.0302 -0.1178
  619MOL0     C83470  13.368  10.914  10.144  0.0271 -0.1612 -0.8438
  619MOL0     C83471  13.376  11.049  10.226 -0.3728  0.3126  0.5564
  619MOL0     C83472  13.252  11.070  10.315 -0.1625  0.9586  0.2235
  619MOL0     C83473  13.283  11.151  10.441 -0.8490  0.1757 -0.4617
  619MOL0    Cl83474  13.137  11.203  10.528 -0.0345  0.1905  0.1225
  619MOL0     C83475  12.989  10.343   9.788 -0.7357  0.4447  0.4047
  619MOL0     C83476  12.903  10.245   9.820 -0.1739 -0.2163  0.3069
  619MOL0     O83477  12.895   9.942   9.839  0.4331  0.0594 -0.0642
  619MOL0     C83478  12.600   9.938  10.022  0.1272  0.9339 -0.7489
  619MOL0     C83479  12.479   9.867  10.051 -1.1765  0.4654 -0.4718
  619MOL0     N83480  11.757   9.743  10.226  0.6021  1.0209 -0.2159
  619MOL0     N83481  11.636   9.704  10.261  0.0377  0.5652  0.0780
  619MOL0     C83482  10.421   9.634  10.674 -0.4934  0.1882  0.1656
  619MOL0     C83483  10.317   9.688  10.748  0.2155  0.1321 -0.2350
  619MOL0     C83484  10.080   9.885  11.059 -0.9495 -0.2417 -0.7993
  619MOL0     C83485  10.097   9.972  11.169 -0.3246  0.0598  0.3659
  619MOL0     C83486   9.987   9.992  11.258  0.2262 -0.6048  0.2763
  619MOL0     C83487   9.864   9.948  11.225 -0.9456  0.7098  0.2570
  619MOL0     O83488   9.755   9.968  11.299  0.0194 -1.0653  0.0982
  619MOL0     C83489   9.742   9.883  11.411  0.4049  0.2690  0.1564
  619MOL0     C83490   9.602   9.868  11.474 -0.2657 -0.5415  0.2237
  619MOL0     C83491   9.559   9.997  11.541  0.0268 -0.6717  0.6469
  619MOL0     C83492   9.406  10.001  11.568  0.0172  0.3328 -0.1139
  619MOL0     C83493   9.365   9.881  11.641  0.1559  0.9728  0.8783
  619MOL0     C83494   9.338   9.768  11.690  0.1913 -0.1499 -0.2320
  619MOL0     C83495   9.854   9.871  11.115  0.5373 -0.4715 -0.1709
  619MOL0     C83496   9.958   9.828  11.039 -0.1527 -0.4793 -0.0157
  619MOL0     C83497   9.931   9.710  10.946 -0.5584 -0.2234 -0.4637
  619MOL0     H83498  10.443   9.636  11.053 -0.1380 -0.5114  0.2895
  619MOL0     H83499  10.634   9.544  10.929 -0.5215  0.3713 -0.0578
  619MOL0     H83500  10.795   9.530  10.776  0.5913 -0.9148 -0.2331
  619MOL0     H83501  10.702   9.379  10.760  0.2291 -0.7524 -0.4098
  619MOL0     H83502  10.796   9.351  10.523 -0.2961  1.6475 -1.3859
  619MOL0     H83503  10.899   9.329  10.657  0.0287 -0.2666 -2.1210
  619MOL0     H83504  11.000   9.551  10.628 -0.4355  0.2894 -0.3587
  619MOL0     H83505  10.880   9.604  10.506  1.9799  0.9604 -0.7764
  619MOL0     H83506  11.064   9.365  10.473  1.5768  0.6614  0.4084
  619MOL0     H83507  10.968   9.428  10.338  2.6671 -0.9384 -1.3332
  619MOL0     H83508  11.110   9.637  10.345 -0.5599  3.2619  4.1870
  619MOL0     H83509  11.173   9.589  10.499  0.7960  0.7890 -0.9279
  619MOL0     H83510  11.283   9.395  10.405  1.4371  0.6397  0.3249
  619MOL0     H83511  11.224   9.448  10.235  1.6244  1.1556 -1.4927
  619MOL0     H83512  11.422   9.623  10.394  1.5861  0.5447 -1.1374
  619MOL0     H83513  11.339   9.655  10.242 -1.9513 -0.5014  0.8284
  619MOL0     H83514  11.512   9.402  10.285 -1.0301 -0.0850  0.0080
  619MOL0     H83515  11.452   9.449  10.139  0.6331 -3.6749  1.6857
  619MOL0     H83516  11.734   9.423  10.139 -0.3460 -0.9181  3.3770
  619MOL0     H83517  11.974   9.561  10.042 -0.6539  0.2030 -0.8803
  619MOL0     H83518  11.969   9.737  10.076 -0.3703 -0.0081  0.5109
  619MOL0     H83519  12.061   9.691  10.306  0.7370  0.6130 -1.4294
  619MOL0     H83520  12.005   9.526  10.296 -1.1813 -1.5170 -1.6471
  619MOL0     H83521  12.172   9.482  10.112  0.5315 -0.0361  0.1607
  619MOL0     H83522  12.241   9.503  10.273  2.6356  0.3235 -1.5553
  619MOL0     H83523  12.327   9.724  10.233  0.1456  0.0602 -0.8051
  619MOL0     H83524  12.210   9.757  10.100 -2.3862 -1.0528  0.4272
  619MOL0     H83525  12.597   9.566   9.957  0.6766 -0.1206  1.0590
  619MOL0     H83526  12.812   9.695   9.934  1.2324  0.5580  0.2799
  619MOL0     H83527  12.988  10.219  10.148  0.1650  1.1255  1.2825
  619MOL0     H83528  13.133  10.418  10.087  3.6438  0.4963 -2.0178
  619MOL0     H83529  12.983  10.647   9.791  1.1735 -2.4973 -0.7878
  619MOL0     H83530  12.987  10.633   9.970 -0.9822  0.4901 -0.4942
  619MOL0     H83531  13.182  10.780   9.796  0.1839  0.7672  0.3983
  619MOL0     H83532  13.060  10.845   9.901  1.2857  0.6539 -2.0234
  619MOL0     H83533  13.183  10.710  10.090  3.4797  0.0912  1.9467
  619MOL0     H83534  13.325  10.713   9.984  0.3256  1.7269 -0.3581
  619MOL0     H83535  13.151  10.934  10.087  1.4780  1.6705  1.1363
  619MOL0     H83536  13.261  10.961   9.953 -2.4056  0.3255 -0.9612
  619MOL0     H83537  13.462  10.899  10.089  1.0255  1.9099  0.1774
  619MOL0     H83538  13.359  10.826  10.208 -2.7951  0.5385 -0.1563
  619MOL0     H83539  13.467  11.046  10.286 -1.0838  0.9895  1.6954
  619MOL0     H83540  13.395  11.127  10.151 -0.9725 -0.7323 -0.7156
  619MOL0     H83541  13.203  10.983  10.360 -2.2173  2.3260  0.7793
  619MOL0     H83542  13.185  11.130  10.253  0.5519  0.4032 -1.1241
  619MOL0     H83543  13.343  11.092  10.511 -0.4292 -0.5264 -1.3972
  619MOL0     H83544  13.346  11.238  10.420  1.4644 -1.2482  0.3003
  619MOL0     H83545  12.990  10.402   9.696 -1.5185  3.4361  2.1742
  619MOL0     H83546  12.834  10.209   9.744 -2.3349 -0.3503  2.2292
  619MOL0     H83547  12.574  10.040  10.049 -1.3852  0.8557 -1.7241
  619MOL0     H83548  12.395   9.915  10.100 -0.5049  1.4564 -0.2833
  619MOL0     H83549  10.401   9.639  10.568  1.1609  0.6875 -0.1453
  619MOL0     H83550  10.238   9.729  10.686  2.1870  2.9474 -1.0786
  619MOL0     H83551  10.197  10.008  11.188  0.1311 -1.2826  0.6334
  619MOL0     H83552   9.995  10.064  11.338 -0.2953  0.5201 -0.6582
  619MOL0     H83553   9.797   9.929  11.493 -3.1727  1.6197  2.0233
  619MOL0     H83554   9.772   9.780  11.393 -2.9709 -0.9972  0.8951
  619MOL0     H83555   9.597   9.793  11.554  0.2202 -0.8705 -0.0504
  619MOL0     H83556   9.539   9.849  11.387  1.2881  2.3276 -1.7073
  619MOL0     H83557   9.577  10.080  11.472 -0.5195 -1.1654 -0.0915
  619MOL0     H83558   9.627  10.015  11.625 -0.4903 -0.3001  0.9955
  619MOL0     H83559   9.395  10.095  11.623  1.3434  1.0279 -1.0006
  619MOL0     H83560   9.352  10.019  11.475  1.6361 -1.4119 -1.4798
  619MOL0     H83561   9.309   9.672  11.728 -1.4965  1.2808  2.4136
  619MOL0     H83562   9.757   9.837  11.080  1.0419  0.5276 -2.6952
  619MOL0     H83563   9.826   9.681  10.935 -1.4291  2.1214  0.8620
  619MOL0     H83564   9.977   9.722  10.847  2.1189 -2.7447  0.3319
  619MOL0     H83565   9.973   9.624  10.999 -3.2965 -0.0735  2.2011
  620MOL0     O83566   3.069   5.715   3.307 -0.1403  0.0662  0.1138
  620MOL0     C83567   3.056   5.765   3.192 -0.1833  0.6183 -0.6522
  620MOL0     O83568   3.116   5.879   3.146  0.1806 -0.5531 -0.0898
  620MOL0     C83569   3.151   5.982   3.230 -0.1023 -0.2757  0.6327
  620MOL0     C83570   3.285   5.997   3.256  0.1791  0.2636  0.8744
  620MOL0     C83571   3.319   6.111   3.329 -0.4314  0.1541  0.5843
  620MOL0     C83572   3.227   6.204   3.383 -0.9685 -0.8035 -0.0099
  620MOL0     O83573   3.263   6.317   3.452 -0.1909  1.3870  0.1881
  620MOL0     C83574   3.400   6.358   3.455 -0.5666  0.1032 -0.2534
  620MOL0     C83575   3.410   6.488   3.534 -0.8342 -0.0442  0.1926
  620MOL0     C83576   3.339   6.592   3.455  0.0834 -0.3379  0.4024
  620MOL0     C83577   3.369   6.725   3.527 -0.3623 -1.4123 -0.0016
  620MOL0     C83578   3.285   6.844   3.461 -0.3468 -0.3896 -0.3037
  620MOL0     C83579   3.312   6.982   3.512 -1.0064  0.0499  0.0709
  620MOL0     C83580   3.219   7.086   3.446  0.7375 -1.4821  0.0575
  620MOL0     C83581   3.069   7.091   3.483  0.7561 -0.6812 -0.6374
  620MOL0     N83582   3.056   7.125   3.624  0.4565  0.9665 -0.8614
  620MOL0     C83583   3.063   7.251   3.683  0.2736 -0.2948 -0.3459
  620MOL0     C83584   3.035   7.227   3.815  0.7632 -0.1217 -0.4711
  620MOL0     C83585   3.065   7.308   3.938 -0.7537 -0.8727  0.3924
  620MOL0     C83586   3.084   7.458   3.884 -0.6668 -0.4480 -1.1923
  620MOL0     C83587   3.236   7.483   3.854  0.4792  0.8389 -0.7578
  620MOL0     C83588   3.257   7.631   3.822 -0.1426  0.5623 -0.2366
  620MOL0     O83589   3.204   7.710   3.925  0.1058 -0.4835  0.1356
  620MOL0     C83590   3.291   7.810   3.966  0.1104  0.2005 -0.1958
  620MOL0     C83591   3.283   7.933   3.901  0.5337  0.3967 -0.1497
  620MOL0     C83592   3.375   8.035   3.930 -0.5553 -0.0252 -0.6997
  620MOL0     C83593   3.477   8.010   4.030 -0.0567  0.2190  0.6035
  620MOL0     C83594   3.570   8.117   4.069  0.8601  0.5045 -0.5315
  620MOL0     O83595   3.651   8.092   4.178  0.8624 -0.3711  0.2907
  620MOL0     C83596   3.759   8.167   4.202 -0.1237  0.3948  0.2519
  620MOL0     C83597   3.796   8.188   4.337  0.5083 -0.0391 -0.5507
  620MOL0     C83598   3.903   8.266   4.375 -1.1531 -0.8922 -0.6118
  620MOL0     C83599   3.976   8.330   4.276 -1.0877 -0.0264 -0.1776
  620MOL0     O83600   4.077   8.418   4.306  0.4300  0.5686 -0.3181
  620MOL0     C83601   4.170   8.381   4.411 -0.2547 -0.4946  0.0688
  620MOL0     C83602   4.191   8.493   4.507  0.1280  0.0163  0.6613
  620MOL0     C83603   4.310   8.484   4.599  0.3721  0.8428 -0.5203
  620MOL0     C83604   4.442   8.527   4.536  0.2500  0.2995 -0.7298
  620MOL0     C83605   4.574   8.492   4.617  0.0548 -1.0765  0.1353
  620MOL0     C83606   4.595   8.342   4.636 -0.5921  0.7130 -0.2005
  620MOL0     C83607   4.727   8.320   4.710  0.6679  0.2190 -0.3725
  620MOL0     C83608   4.753   8.166   4.712  0.5436 -0.4315  0.3503
  620MOL0    Cl83609   4.931   8.151   4.713 -0.1266  0.5095 -0.9374
  620MOL0     C83610   3.954   8.300   4.144  0.1131  0.5914 -0.0932
  620MOL0     C83611   3.840   8.227   4.103  1.1107 -0.9301  0.4138
  620MOL0     O83612   3.568   8.217   4.006 -0.1934  0.1820 -0.0206
  620MOL0     C83613   3.476   7.888   4.097 -0.3582 -0.5738  0.2323
  620MOL0     C83614   3.387   7.786   4.061 -0.2458 -0.1773 -0.9411
  620MOL0     N83615   2.993   7.096   3.824 -0.7534 -0.1966 -0.1348
  620MOL0     N83616   3.009   7.039   3.718  0.4670  0.4017  0.7216
  620MOL0     C83617   3.094   6.179   3.361 -0.5584  0.9121  0.2247
  620MOL0     C83618   3.058   6.072   3.283  0.5941 -0.5784  0.5940
  620MOL0     C83619   2.957   5.703   3.100  0.1745  0.3735 -1.1436
  620MOL0     C83620   2.853   5.629   3.170  0.4769  0.3895 -0.2712
  620MOL0     C83621   2.758   5.558   3.103 -0.7453  0.7626 -0.1597
  620MOL0     C83622   2.759   5.559   2.961 -0.6620  0.7019 -0.3404
  620MOL0     O83623   2.669   5.508   2.872 -0.4858 -0.2564  0.7012
  620MOL0     C83624   2.572   5.416   2.924  0.5133 -0.2719  0.0253
  620MOL0     C83625   2.473   5.373   2.818 -0.6869  0.4425 -0.3554
  620MOL0     C83626   2.376   5.273   2.877  0.0120  0.1634  0.1055
  620MOL0     C83627   2.282   5.235   2.772 -0.2525 -0.3178  0.4822
  620MOL0     C83628   2.182   5.140   2.817  1.5960  0.3843  0.8532
  620MOL0     C83629   2.106   5.053   2.853 -0.4624  1.4174 -0.9270
  620MOL0     C83630   2.862   5.620   2.897 -0.2503  0.7511  0.8412
  620MOL0     C83631   2.966   5.695   2.961 -0.0046  0.1351  0.4410
  620MOL0     C83632   3.091   5.739   2.883  0.7296  0.1191 -0.1534
  620MOL0     H83633   3.355   5.921   3.224 -1.3586 -0.8982  0.0989
  620MOL0     H83634   3.423   6.129   3.352 -0.9497  1.9000  1.7594
  620MOL0     H83635   3.464   6.281   3.500  2.3430  1.9215 -0.9959
  620MOL0     H83636   3.439   6.379   3.355  1.6028  0.8511  0.6918
  620MOL0     H83637   3.517   6.508   3.550 -0.6415  0.4856 -1.5878
  620MOL0     H83638   3.375   6.470   3.637  2.6714  0.0176  1.5294
  620MOL0     H83639   3.232   6.569   3.450  0.0650 -0.2694  0.4718
  620MOL0     H83640   3.380   6.607   3.354 -0.8506 -0.9561 -0.0806
  620MOL0     H83641   3.346   6.731   3.634  0.6841  2.3916  0.1549
  620MOL0     H83642   3.475   6.750   3.520 -0.6035  0.6188  2.2463
  620MOL0     H83643   3.300   6.831   3.353 -0.9245 -3.6185 -0.0898
  620MOL0     H83644   3.179   6.827   3.480 -0.3205 -2.3000 -1.5953
  620MOL0     H83645   3.294   6.985   3.620 -4.1592  2.6734 -0.3613
  620MOL0     H83646   3.413   7.014   3.486 -0.4226 -1.8361 -0.1553
  620MOL0     H83647   3.236   7.079   3.338 -1.3002 -0.6968 -0.3650
  620MOL0     H83648   3.261   7.186   3.467 -0.7826 -0.4795 -1.4391
  620MOL0     H83649   3.017   7.164   3.419 -1.4172 -2.1821 -0.7140
  620MOL0     H83650   3.026   6.992   3.463 -0.7072 -0.6544  1.9845
  620MOL0     H83651   3.121   7.336   3.649  0.7993 -0.7811 -0.6905
  620MOL0     H83652   2.978   7.309   4.004 -0.7236  0.1509  0.4253
  620MOL0     H83653   3.154   7.278   3.995  0.1132  1.1342  0.1771
  620MOL0     H83654   3.023   7.480   3.795 -0.4564  2.3398 -0.7334
  620MOL0     H83655   3.044   7.516   3.967 -0.0402  0.1022 -1.2736
  620MOL0     H83656   3.269   7.412   3.778 -0.2058 -1.0139  0.5980
  620MOL0     H83657   3.287   7.464   3.949 -1.5263  0.1771  0.2322
  620MOL0     H83658   3.200   7.657   3.732  0.2637  0.8245 -0.4217
  620MOL0     H83659   3.363   7.653   3.804  1.1893 -3.2128  1.7690
  620MOL0     H83660   3.193   7.945   3.842 -2.9847 -0.6659  4.4410
  620MOL0     H83661   3.361   8.130   3.879 -0.2426  0.0651 -0.6216
  620MOL0     H83662   3.721   8.150   4.406 -0.6942  1.6957 -0.8359
  620MOL0     H83663   3.925   8.272   4.481  1.1574 -1.2298 -1.0149
  620MOL0     H83664   4.150   8.293   4.472 -2.2473 -0.5067 -0.5320
  620MOL0     H83665   4.266   8.366   4.359  0.5977 -0.0775  1.4706
  620MOL0     H83666   4.208   8.582   4.447  2.6597 -2.3635 -2.4872
  620MOL0     H83667   4.106   8.511   4.575  1.1825  0.1319  1.9862
  620MOL0     H83668   4.286   8.543   4.688  1.9128 -0.1075  0.5776
  620MOL0     H83669   4.322   8.383   4.641  0.8016  0.1535 -2.2338
  620MOL0     H83670   4.429   8.631   4.504 -4.1878  0.1150 -0.0316
  620MOL0     H83671   4.463   8.480   4.439  0.9271 -0.7423 -0.1048
  620MOL0     H83672   4.569   8.541   4.715  0.0077 -0.0284 -0.3766
  620MOL0     H83673   4.665   8.525   4.565  1.6197 -1.0177  2.7413
  620MOL0     H83674   4.527   8.291   4.705  2.0780  0.5410  2.5119
  620MOL0     H83675   4.574   8.288   4.543  0.7218 -0.3327  0.0807
  620MOL0     H83676   4.733   8.355   4.814  0.8251 -0.4714 -0.1395
  620MOL0     H83677   4.794   8.371   4.641 -2.0835  2.3691 -1.6080
  620MOL0     H83678   4.719   8.116   4.803  0.9513  1.8540  1.8124
  620MOL0     H83679   4.714   8.104   4.630 -0.6380 -0.8779  1.2218
  620MOL0     H83680   4.008   8.363   4.075 -1.9729 -0.3102 -2.7119
  620MOL0     H83681   3.817   8.210   3.998  0.5349 -2.7460  0.7903
  620MOL0     H83682   3.553   7.878   4.172  0.9689 -2.0917 -1.2478
  620MOL0     H83683   3.398   7.687   4.104 -4.4998 -1.6081 -2.5943
  620MOL0     H83684   3.031   6.255   3.406  0.4152  0.8962  1.6736
  620MOL0     H83685   2.958   6.072   3.241  1.8016  3.3325 -3.0081
  620MOL0     H83686   2.837   5.628   3.278  1.0111 -0.2277 -0.1911
  620MOL0     H83687   2.670   5.515   3.151 -0.8582  4.1376  3.1038
  620MOL0     H83688   2.516   5.460   3.008  1.3876 -0.8688  0.9406
  620MOL0     H83689   2.622   5.336   2.979 -2.0470  0.0401  3.1261
  620MOL0     H83690   2.532   5.324   2.741 -0.0990  0.8608 -0.1826
  620MOL0     H83691   2.430   5.462   2.771 -0.8616  1.9221  2.3639
  620MOL0     H83692   2.324   5.309   2.966 -0.6919 -1.1952  0.2723
  620MOL0     H83693   2.431   5.186   2.914 -1.6700 -1.5315 -1.1628
  620MOL0     H83694   2.227   5.322   2.737  0.3591  0.1032  0.5462
  620MOL0     H83695   2.342   5.191   2.692 -0.2396  2.5519 -1.2134
  620MOL0     H83696   2.027   4.989   2.887 -2.3579  3.2643 -1.6139
  620MOL0     H83697   2.866   5.611   2.789  1.5523 -0.5275  0.9769
  620MOL0     H83698   3.090   5.687   2.787  0.4898  4.2085 -2.6180
  620MOL0     H83699   3.090   5.848   2.872  0.5278  0.5717  3.1890
  620MOL0     H83700   3.181   5.715   2.940  0.4541  0.3117  0.3705
  621MOL0     O83701   9.342   1.756   8.886 -0.1026  0.2567  0.3328
  621MOL0     C83702   9.262   1.760   8.792  0.0640 -0.1710  0.7143
  621MOL0     O83703   9.262   1.863   8.700  0.2733 -0.3711  0.2343
  621MOL0     C83704   9.349   1.964   8.717  0.7375 -0.2112  0.0365
  621MOL0     C83705   9.440   1.990   8.622  0.7623  0.4153  0.8396
  621MOL0     C83706   9.536   2.095   8.638  0.3202  0.2803 -0.2016
  621MOL0     C83707   9.541   2.165   8.756  0.3733 -0.8231 -0.5081
  621MOL0     O83708   9.650   2.251   8.769 -0.1406  0.4706 -1.0453
  621MOL0     C83709   9.658   2.345   8.877 -0.4640  0.1611  0.3167
  621MOL0     C83710   9.779   2.439   8.860  0.3189 -0.5230  0.0205
  621MOL0     C83711   9.916   2.370   8.894  0.6536 -0.9912 -0.1565
  621MOL0     C83712  10.034   2.455   8.856  0.3148 -0.5543 -0.6606
  621MOL0     C83713  10.159   2.395   8.924 -0.1891  0.2317 -0.4725
  621MOL0     C83714  10.280   2.498   8.935 -0.9870 -0.4880  0.6358
  621MOL0     C83715  10.405   2.425   8.995 -0.4140 -0.0520 -0.5181
  621MOL0     C83716  10.540   2.513   9.014  0.1625  0.4585 -0.9032
  621MOL0     N83717  10.658   2.424   9.027 -0.2958  0.4212  0.0945
  621MOL0     C83718  10.731   2.374   8.919  0.3437 -0.6209 -0.0404
  621MOL0     C83719  10.821   2.301   8.973 -0.3439  0.7154 -1.0630
  621MOL0     C83720  10.919   2.233   8.891 -0.0549  0.4210 -0.3445
  621MOL0     C83721  11.069   2.264   8.944 -0.2265 -0.5702 -0.3326
  621MOL0     C83722  11.171   2.240   8.837  0.2713 -0.1015  0.5462
  621MOL0     C83723  11.323   2.263   8.895 -0.4002  0.7646  0.3612
  621MOL0     O83724  11.419   2.258   8.786  0.4030  0.3648  0.5993
  621MOL0     C83725  11.556   2.238   8.806 -0.0575  0.2796  0.7182
  621MOL0     C83726  11.633   2.209   8.695 -0.3925 -0.1329 -0.3040
  621MOL0     C83727  11.767   2.189   8.699 -0.4219 -0.1927  0.6718
  621MOL0     C83728  11.833   2.178   8.829  0.1749 -0.4045  0.7855
  621MOL0     C83729  11.978   2.155   8.835  1.1297 -0.6497 -0.4223
  621MOL0     O83730  12.034   2.081   8.738 -0.1925  0.1779 -0.5067
  621MOL0     C83731  12.173   2.056   8.750 -0.3446 -0.2665  0.3039
  621MOL0     C83732  12.209   1.947   8.829 -0.0182  0.4626  0.6950
  621MOL0     C83733  12.338   1.919   8.860  0.3809 -0.0896  0.1199
  621MOL0     C83734  12.436   1.991   8.804 -0.2342  0.1155  0.3618
  621MOL0     O83735  12.571   1.986   8.827  0.0858 -0.6878  0.3725
  621MOL0     C83736  12.636   1.874   8.874 -0.4248 -0.0986  0.6332
  621MOL0     C83737  12.766   1.911   8.943 -0.7265  0.1162  0.1580
  621MOL0     C83738  12.869   1.801   8.967  1.0213 -0.2409  0.4448
  621MOL0     C83739  13.011   1.853   8.987  0.2854  0.2905 -0.7270
  621MOL0     C83740  13.023   1.874   9.139 -0.2217 -0.1609 -0.5434
  621MOL0     C83741  13.162   1.925   9.182 -1.0373 -0.1271  0.5661
  621MOL0     C83742  13.152   1.951   9.339 -0.3362 -0.5530  0.4094
  621MOL0     C83743  13.262   2.048   9.387  0.3522  0.5080 -0.3072
  621MOL0    Cl83744  13.433   1.976   9.354 -0.2011  0.3525  0.2922
  621MOL0     C83745  12.405   2.108   8.723  0.0768  0.3445 -0.0080
  621MOL0     C83746  12.275   2.132   8.695  0.1747  0.1645  0.0347
  621MOL0     O83747  12.032   2.208   8.930  0.0893  0.8350 -0.6978
  621MOL0     C83748  11.757   2.192   8.942 -1.0608  0.3571  0.3526
  621MOL0     C83749  11.619   2.226   8.933 -0.9127  0.9266 -0.0425
  621MOL0     N83750  10.815   2.308   9.112 -0.2423  0.2629  0.3662
  621MOL0     N83751  10.729   2.389   9.137 -0.2400 -0.8253 -0.0750
  621MOL0     C83752   9.450   2.151   8.854 -0.2907  0.3270  0.4445
  621MOL0     C83753   9.362   2.042   8.838 -0.3283  0.2089 -0.5408
  621MOL0     C83754   9.173   1.644   8.766 -0.0861  0.6830  0.4182
  621MOL0     C83755   9.097   1.646   8.645  0.8701 -0.4158 -0.3261
  621MOL0     C83756   9.005   1.545   8.610 -1.8237  0.0638  0.5494
  621MOL0     C83757   8.988   1.431   8.688 -0.5879 -0.0272  0.1392
  621MOL0     O83758   8.908   1.335   8.629  0.3580 -0.2551 -0.5203
  621MOL0     C83759   8.920   1.196   8.677 -0.0330  0.9503 -0.0289
  621MOL0     C83760   8.811   1.158   8.778  0.7766  0.0894  0.0996
  621MOL0     C83761   8.678   1.138   8.716  0.0018 -0.5213 -0.1650
  621MOL0     C83762   8.663   1.013   8.632 -0.4169  0.4684 -0.5326
  621MOL0     C83763   8.533   1.001   8.582  0.4388  0.2229  0.1129
  621MOL0     C83764   8.421   0.993   8.537  0.1105 -0.4440  0.0508
  621MOL0     C83765   9.051   1.431   8.814  0.1419  0.1189  0.7569
  621MOL0     C83766   9.145   1.531   8.848  0.1853 -1.5620  0.4400
  621MOL0     C83767   9.205   1.528   8.978  0.7707 -0.3978 -0.7957
  621MOL0     H83768   9.436   1.939   8.526  2.8123  0.1280  0.8499
  621MOL0     H83769   9.613   2.104   8.562  1.3527 -4.5266 -0.0097
  621MOL0     H83770   9.572   2.412   8.868 -0.2246  0.6262  1.4466
  621MOL0     H83771   9.663   2.294   8.973  2.5802 -1.7559 -0.7260
  621MOL0     H83772   9.758   2.523   8.928 -2.5704 -2.2165  1.4798
  621MOL0     H83773   9.792   2.478   8.759 -0.5717 -1.4083 -0.4544
  621MOL0     H83774   9.913   2.271   8.847 -0.3945 -0.1717 -1.9293
  621MOL0     H83775   9.913   2.348   9.001 -0.6031 -0.3627 -0.0440
  621MOL0     H83776  10.053   2.441   8.750 -0.5287 -2.2980 -0.6140
  621MOL0     H83777  10.026   2.561   8.883  0.9770 -0.4235 -0.9574
  621MOL0     H83778  10.140   2.363   9.027  3.5039 -2.5958 -0.4248
  621MOL0     H83779  10.200   2.306   8.875  2.1494  0.0275  1.6534
  621MOL0     H83780  10.306   2.547   8.841  2.7798 -1.7697  0.8287
  621MOL0     H83781  10.250   2.581   8.999  2.6663  2.1567 -0.7675
  621MOL0     H83782  10.432   2.340   8.931  3.3019  1.5897 -1.4161
  621MOL0     H83783  10.378   2.392   9.095 -0.6839  4.6606  1.2216
  621MOL0     H83784  10.556   2.578   8.928  1.1089 -0.9997 -1.8732
  621MOL0     H83785  10.536   2.574   9.104  0.4702 -2.4237  1.1918
  621MOL0     H83786  10.737   2.394   8.813  5.3563 -3.8330 -0.6721
  621MOL0     H83787  10.906   2.129   8.922  0.6210  1.2148  2.9730
  621MOL0     H83788  10.904   2.255   8.785  0.4880 -2.0682 -0.9930
  621MOL0     H83789  11.067   2.367   8.981 -1.5902  0.8882 -4.0645
  621MOL0     H83790  11.104   2.203   9.029  2.1119 -1.0117 -1.5343
  621MOL0     H83791  11.141   2.299   8.749 -0.0425  0.7709  1.2166
  621MOL0     H83792  11.160   2.138   8.799 -5.0912  0.5662 -0.5823
  621MOL0     H83793  11.345   2.181   8.964  0.7578  0.6905 -0.0664
  621MOL0     H83794  11.317   2.362   8.942 -2.4804  0.4143  0.9302
  621MOL0     H83795  11.593   2.209   8.594 -0.1698  3.3873 -0.5172
  621MOL0     H83796  11.820   2.181   8.604 -1.6394 -0.0395 -0.0423
  621MOL0     H83797  12.138   1.873   8.863 -1.1926  0.9524 -0.5965
  621MOL0     H83798  12.361   1.831   8.919  2.7198  0.5752  0.3104
  621MOL0     H83799  12.577   1.815   8.943 -1.9602  0.5633 -0.0763
  621MOL0     H83800  12.658   1.820   8.781 -0.6059  1.9970 -0.7184
  621MOL0     H83801  12.826   1.986   8.890  0.5666 -0.0440  1.3181
  621MOL0     H83802  12.737   1.955   9.039 -1.3233  0.8459 -0.3379
  621MOL0     H83803  12.824   1.742   9.048 -0.4745  2.4864  1.7489
  621MOL0     H83804  12.861   1.739   8.878 -2.4655 -3.0561  2.4550
  621MOL0     H83805  13.043   1.945   8.937 -0.4636  0.9866  0.0317
  621MOL0     H83806  13.081   1.770   8.975  2.0162  1.3777  1.2455
  621MOL0     H83807  12.999   1.781   9.190  0.1906  0.0654  0.0687
  621MOL0     H83808  12.943   1.947   9.158 -1.3499 -1.0052 -1.8364
  621MOL0     H83809  13.235   1.846   9.163  0.6044  1.7606 -1.6249
  621MOL0     H83810  13.194   2.016   9.130 -0.9393 -0.0819  0.7041
  621MOL0     H83811  13.161   1.856   9.394  1.1741  0.3862  1.8910
  621MOL0     H83812  13.051   1.992   9.350 -0.6349 -0.9938 -0.5494
  621MOL0     H83813  13.246   2.142   9.331 -1.7193  1.1355  1.2167
  621MOL0     H83814  13.247   2.062   9.494 -1.5742  1.7409 -0.6877
  621MOL0     H83815  12.493   2.166   8.694 -0.1514  1.3381  1.1803
  621MOL0     H83816  12.254   2.207   8.619  0.5497  0.6850  0.4436
  621MOL0     H83817  11.811   2.186   9.036 -0.5505  3.0781  0.2991
  621MOL0     H83818  11.551   2.239   9.017 -2.3784 -0.4912 -0.9364
  621MOL0     H83819   9.438   2.214   8.941 -0.2144  0.4600  0.3592
  621MOL0     H83820   9.291   2.020   8.916  0.4675  1.0499  0.4499
  621MOL0     H83821   9.104   1.724   8.569 -1.0992  0.3392  0.2019
  621MOL0     H83822   8.964   1.551   8.509 -1.7111  1.1227  0.5499
  621MOL0     H83823   9.017   1.176   8.723  0.2097  2.3446  0.1159
  621MOL0     H83824   8.906   1.131   8.590 -3.6652  0.4640  0.7507
  621MOL0     H83825   8.793   1.240   8.848 -0.5808  1.4586 -1.7383
  621MOL0     H83826   8.840   1.068   8.831 -0.8072 -1.8828 -2.1584
  621MOL0     H83827   8.660   1.234   8.665 -0.1811 -1.5174 -2.0592
  621MOL0     H83828   8.606   1.132   8.798  0.0459 -0.2800 -0.1077
  621MOL0     H83829   8.737   1.030   8.553  1.4875  1.4254  1.3657
  621MOL0     H83830   8.695   0.916   8.671  0.3259  0.7445 -0.4330
  621MOL0     H83831   8.327   0.993   8.485 -0.0547  0.1696  0.3439
  621MOL0     H83832   9.036   1.351   8.886  3.9436  0.5683  2.2701
  621MOL0     H83833   9.312   1.550   8.984  0.8617 -0.6007 -1.5758
  621MOL0     H83834   9.168   1.602   9.049  0.6143 -2.0001  0.8778
  621MOL0     H83835   9.188   1.430   9.024  0.5415  1.2046  2.8900
  622MOL0     O83836   1.026   9.500   6.525  0.4396 -0.4998 -0.4838
  622MOL0     C83837   1.021   9.489   6.649 -0.8999 -0.0440  0.0246
  622MOL0     O83838   1.126   9.452   6.725 -0.1524 -0.1019 -0.0596
  622MOL0     C83839   1.241   9.414   6.664  1.0363  0.1668 -0.4303
  622MOL0     C83840   1.277   9.278   6.655  0.5908 -0.6244  0.3755
  622MOL0     C83841   1.390   9.233   6.576  0.8735 -0.2870 -0.6173
  622MOL0     C83842   1.473   9.321   6.516 -0.2174 -0.3127 -0.0285
  622MOL0     O83843   1.577   9.286   6.436 -0.2733 -0.8087 -0.2079
  622MOL0     C83844   1.653   9.176   6.486 -0.1848 -1.0610 -0.2939
  622MOL0     C83845   1.788   9.170   6.413 -0.3272  0.4948 -0.2548
  622MOL0     C83846   1.776   9.138   6.262  0.6139 -0.3875  0.4533
  622MOL0     C83847   1.898   9.203   6.190  0.1814 -0.1855 -1.4737
  622MOL0     C83848   1.886   9.359   6.162 -0.2597 -0.0738  0.2723
  622MOL0     C83849   1.953   9.414   6.034 -0.0191  0.0766 -0.1165
  622MOL0     C83850   2.107   9.376   6.029 -0.4961  0.3175  0.4343
  622MOL0     C83851   2.202   9.413   6.149  1.3397 -0.1227 -0.3015
  622MOL0     N83852   2.336   9.349   6.122 -0.5999  0.2899  0.2052
  622MOL0     C83853   2.366   9.218   6.089  0.6592 -0.3695  0.8315
  622MOL0     C83854   2.502   9.208   6.088  0.6630 -0.4548  0.3177
  622MOL0     C83855   2.591   9.084   6.074  0.0694 -0.4658  0.2341
  622MOL0     C83856   2.735   9.115   6.084  1.3044  0.4920 -0.0458
  622MOL0     C83857   2.783   9.196   5.965 -0.7690 -0.6469  0.0896
  622MOL0     C83858   2.874   9.115   5.871  0.5419 -0.3421 -0.8113
  622MOL0     O83859   2.924   9.200   5.772 -0.9938  0.5105  0.4310
  622MOL0     C83860   3.062   9.239   5.764  0.3022 -0.3368 -0.4204
  622MOL0     C83861   3.144   9.251   5.878  0.7897 -0.2762 -1.1843
  622MOL0     C83862   3.275   9.302   5.857 -0.5330  0.7304  0.4334
  622MOL0     C83863   3.321   9.345   5.734 -0.1433  0.3310  0.0892
  622MOL0     C83864   3.466   9.382   5.715  0.1480  0.6653 -0.5401
  622MOL0     O83865   3.485   9.461   5.610 -0.2373  0.3945  0.9994
  622MOL0     C83866   3.608   9.526   5.600  0.6586 -0.3788  0.6959
  622MOL0     C83867   3.728   9.470   5.582  0.4409 -0.1777 -0.2278
  622MOL0     C83868   3.837   9.552   5.576  0.4381  0.6812 -0.7961
  622MOL0     C83869   3.834   9.689   5.580  0.0214  0.2573 -0.6344
  622MOL0     O83870   3.946   9.768   5.580 -0.9209  0.0115 -0.5444
  622MOL0     C83871   4.071   9.718   5.568 -1.2388  0.0080 -0.1446
  622MOL0     C83872   4.179   9.823   5.575  1.3025 -0.0277  0.6187
  622MOL0     C83873   4.309   9.757   5.616  0.0898  1.1285  0.8874
  622MOL0     C83874   4.416   9.869   5.621 -0.7554 -0.0477  0.0394
  622MOL0     C83875   4.557   9.801   5.640 -0.2820  0.1798  0.0176
  622MOL0     C83876   4.677   9.894   5.669 -0.8751 -0.9274 -0.3836
  622MOL0     C83877   4.657   9.976   5.793 -0.4709  0.9381 -0.0440
  622MOL0     C83878   4.791  10.031   5.843  0.5552  0.0072 -0.2880
  622MOL0    Cl83879   4.753  10.151   5.980  0.2397 -0.4862  0.4299
  622MOL0     C83880   3.711   9.744   5.592  0.0723 -0.2981  0.0717
  622MOL0     C83881   3.595   9.666   5.590  0.0417  0.1092 -0.1627
  622MOL0     O83882   3.549   9.358   5.802 -0.6894  0.0871  0.7262
  622MOL0     C83883   3.241   9.321   5.621 -0.1952 -0.5250 -0.4595
  622MOL0     C83884   3.105   9.271   5.636 -0.3259 -0.0521  0.3635
  622MOL0     N83885   2.550   9.339   6.121  0.1941 -0.0307 -0.2999
  622MOL0     N83886   2.452   9.423   6.138  0.6529  0.3974 -0.0484
  622MOL0     C83887   1.432   9.459   6.537 -0.7545  0.7538 -0.0188
  622MOL0     C83888   1.316   9.508   6.599 -0.7618  0.1664 -0.0412
  622MOL0     C83889   0.902   9.532   6.725  0.5554 -0.8043  0.7095
  622MOL0     C83890   0.890   9.528   6.861  0.0832  0.0546 -0.0325
  622MOL0     C83891   0.771   9.566   6.930 -0.2501 -0.0038 -0.0882
  622MOL0     C83892   0.660   9.612   6.867  0.9929 -1.0381  0.2417
  622MOL0     O83893   0.541   9.646   6.928  0.6811 -0.1574 -0.5698
  622MOL0     C83894   0.514   9.597   7.069 -0.2458 -0.7108  0.0964
  622MOL0     C83895   0.532   9.705   7.175 -0.1505 -0.2398  0.1691
  622MOL0     C83896   0.396   9.772   7.199 -0.5164 -0.5665  0.3107
  622MOL0     C83897   0.296   9.707   7.294 -0.5204  0.3222  0.2105
  622MOL0     C83898   0.225   9.596   7.225  1.0094 -0.1056 -0.0944
  622MOL0     C83899   0.153   9.517   7.175 -0.5575 -0.7930  0.2119
  622MOL0     C83900   0.676   9.621   6.737 -0.2357 -0.2049 -0.2113
  622MOL0     C83901   0.797   9.594   6.659  0.5453 -0.1041 -0.5157
  622MOL0     C83902   0.782   9.626   6.509  0.1314 -0.0080 -0.5242
  622MOL0     H83903   1.222   9.210   6.719 -1.0244  1.1413  0.9373
  622MOL0     H83904   1.418   9.128   6.563  1.6062 -0.2509  0.5226
  622MOL0     H83905   1.674   9.188   6.593  3.2146 -1.2190 -0.8410
  622MOL0     H83906   1.596   9.083   6.479  1.4222 -2.2500  1.4553
  622MOL0     H83907   1.851   9.092   6.455  4.0770  4.2312  0.8879
  622MOL0     H83908   1.837   9.264   6.441 -0.4496  0.0993  1.3841
  622MOL0     H83909   1.678   9.172   6.226  0.1404 -1.7637  0.3516
  622MOL0     H83910   1.780   9.028   6.264  2.2649 -0.3454  1.6105
  622MOL0     H83911   1.990   9.162   6.231  0.6066  0.9416 -1.2706
  622MOL0     H83912   1.901   9.159   6.089 -0.7424  0.6686 -1.8854
  622MOL0     H83913   1.780   9.383   6.152 -0.2087  0.8303  1.6969
  622MOL0     H83914   1.920   9.413   6.251  1.5892 -0.4486 -0.1713
  622MOL0     H83915   1.902   9.369   5.948 -0.0619  0.1295 -0.1191
  622MOL0     H83916   1.950   9.523   6.031  1.9000  0.2119  1.3994
  622MOL0     H83917   2.153   9.429   5.945  0.1017 -3.0480 -1.5240
  622MOL0     H83918   2.104   9.269   6.010 -2.0118  0.2290  0.9930
  622MOL0     H83919   2.204   9.522   6.155 -0.5162 -0.1507  3.1036
  622MOL0     H83920   2.160   9.386   6.246 -3.4322  0.9738 -1.8026
  622MOL0     H83921   2.296   9.137   6.074  0.5272 -0.2169  0.6310
  622MOL0     H83922   2.562   9.020   6.158 -1.2231  1.0849  1.0217
  622MOL0     H83923   2.560   9.028   5.986 -0.4555  0.1463  0.0186
  622MOL0     H83924   2.756   9.174   6.174  2.0057  0.0823  0.0651
  622MOL0     H83925   2.764   9.010   6.080 -1.0487 -0.1971 -2.8439
  622MOL0     H83926   2.829   9.282   6.014  0.6789 -1.4621  0.2212
  622MOL0     H83927   2.703   9.241   5.905  0.1750  0.8212 -0.1134
  622MOL0     H83928   2.823   9.025   5.834  2.8137 -2.1507  0.2203
  622MOL0     H83929   2.950   9.077   5.939 -0.2460 -1.5272 -0.5535
  622MOL0     H83930   3.116   9.207   5.973 -0.6199 -0.4736 -1.6703
  622MOL0     H83931   3.350   9.297   5.935  2.3905  1.8866 -2.1063
  622MOL0     H83932   3.740   9.362   5.577 -0.3168 -0.4240  1.9512
  622MOL0     H83933   3.932   9.501   5.569 -0.0459 -0.4897  0.6154
  622MOL0     H83934   4.085   9.664   5.662 -0.9933 -0.3321 -0.3732
  622MOL0     H83935   4.085   9.657   5.479 -1.9356 -0.8825  0.3421
  622MOL0     H83936   4.192   9.874   5.479 -3.2784  0.1870 -0.1316
  622MOL0     H83937   4.140   9.891   5.651 -2.2452 -1.2306  0.0817
  622MOL0     H83938   4.291   9.706   5.711  2.0849 -0.7093  0.3594
  622MOL0     H83939   4.340   9.679   5.545  1.4764 -0.0129  2.6817
  622MOL0     H83940   4.391   9.933   5.705 -0.8815 -0.6123  0.4360
  622MOL0     H83941   4.402   9.930   5.531 -0.1135 -1.8172 -1.3288
  622MOL0     H83942   4.571   9.754   5.542  2.6026 -0.4520  0.6552
  622MOL0     H83943   4.545   9.725   5.718 -0.9920  3.2000  3.0933
  622MOL0     H83944   4.763   9.828   5.682 -0.0920  0.1755  0.3017
  622MOL0     H83945   4.695   9.955   5.580  3.5184 -2.3759 -0.7311
  622MOL0     H83946   4.613   9.928   5.881  1.3148 -2.2839 -0.7665
  622MOL0     H83947   4.588  10.057   5.767 -0.4489  0.9190 -0.1650
  622MOL0     H83948   4.858   9.951   5.878 -0.2924 -0.1066  1.1502
  622MOL0     H83949   4.835  10.091   5.762  0.8567 -0.8525 -0.7697
  622MOL0     H83950   3.705   9.853   5.593 -1.9188 -0.3652 -0.2588
  622MOL0     H83951   3.490   9.694   5.593 -0.5416 -1.6633 -1.8687
  622MOL0     H83952   3.272   9.351   5.522 -3.6818  2.4179 -0.8774
  622MOL0     H83953   3.038   9.262   5.552  0.8564 -1.5771 -0.4604
  622MOL0     H83954   1.500   9.536   6.501 -0.6937  0.9791  0.5682
  622MOL0     H83955   1.304   9.616   6.602 -0.9836  0.2052 -1.7093
  622MOL0     H83956   0.962   9.467   6.915 -0.8650  0.5646  1.8984
  622MOL0     H83957   0.773   9.553   7.038  1.5068  1.4286  0.1112
  622MOL0     H83958   0.574   9.509   7.094  1.3861  0.4387  0.4066
  622MOL0     H83959   0.416   9.548   7.074  0.6549 -2.6819 -0.3163
  622MOL0     H83960   0.582   9.789   7.125 -0.7860  0.9200  1.4218
  622MOL0     H83961   0.580   9.667   7.265  1.7120 -1.7208 -1.3457
  622MOL0     H83962   0.338   9.781   7.106  1.0957 -2.8828 -1.0371
  622MOL0     H83963   0.426   9.868   7.240  2.2970 -0.7984 -0.9843
  622MOL0     H83964   0.349   9.672   7.383  0.9971  4.2390  1.0458
  622MOL0     H83965   0.220   9.780   7.323 -0.0205  0.8638  0.1782
  622MOL0     H83966   0.113   9.429   7.130  0.8345 -1.6787  0.6326
  622MOL0     H83967   0.599   9.674   6.681  0.7544 -0.7530 -2.1679
  622MOL0     H83968   0.758   9.536   6.451 -1.4113 -1.5692  2.3271
  622MOL0     H83969   0.710   9.707   6.504  0.6582  0.8326  2.9311
  622MOL0     H83970   0.869   9.673   6.462 -1.1534  1.6791 -1.2877
  623MOL0     O83971   6.374   3.715   8.629 -0.1558 -1.1865 -0.1687
  623MOL0     C83972   6.389   3.651   8.731 -0.4203  0.1590 -0.1497
  623MOL0     O83973   6.488   3.559   8.757 -0.4570 -0.1703  0.4257
  623MOL0     C83974   6.592   3.524   8.672 -0.1992 -0.8692  0.7031
  623MOL0     C83975   6.687   3.437   8.714 -0.6025 -0.2165 -0.4301
  623MOL0     C83976   6.811   3.412   8.649  0.6059 -0.1676 -0.3987
  623MOL0     C83977   6.822   3.456   8.514  0.2033  0.4606 -1.0126
  623MOL0     O83978   6.933   3.440   8.435 -0.2261 -0.0705 -0.3516
  623MOL0     C83979   7.047   3.367   8.481 -0.2325  0.5324 -0.6740
  623MOL0     C83980   7.154   3.375   8.379 -0.6386  0.6838  0.5569
  623MOL0     C83981   7.272   3.294   8.417 -0.1247 -0.4179  0.4453
  623MOL0     C83982   7.382   3.318   8.313 -0.1314 -0.7986 -0.8369
  623MOL0     C83983   7.523   3.265   8.357 -0.6059  0.1360 -0.4459
  623MOL0     C83984   7.638   3.325   8.273 -0.1071 -0.4470  0.0792
  623MOL0     C83985   7.772   3.246   8.295  0.3317 -0.7057  0.5001
  623MOL0     C83986   7.870   3.317   8.221 -0.5795  0.3467  0.7270
  623MOL0     N83987   7.997   3.252   8.225  0.3903 -0.1200 -0.8860
  623MOL0     C83988   8.014   3.119   8.187  0.4097 -0.1822 -0.4046
  623MOL0     C83989   8.137   3.100   8.151  0.7103  0.0213 -0.3699
  623MOL0     C83990   8.212   2.977   8.095  0.1920 -0.3294  0.2759
  623MOL0     C83991   8.320   2.994   7.985  0.0997 -0.9765 -0.1597
  623MOL0     C83992   8.459   3.049   8.023 -0.5099 -0.3594  0.1803
  623MOL0     C83993   8.544   3.063   7.892 -0.5528 -0.5752  0.1257
  623MOL0     O83994   8.511   3.171   7.810  0.0536 -0.4396 -0.1724
  623MOL0     C83995   8.605   3.211   7.724  0.5856 -0.2879 -0.6553
  623MOL0     C83996   8.600   3.175   7.587  0.0452  0.8018 -0.0006
  623MOL0     C83997   8.691   3.228   7.500 -0.0399 -0.2463  0.3055
  623MOL0     C83998   8.793   3.317   7.535  0.6472 -0.8894 -1.0095
  623MOL0     C83999   8.900   3.361   7.441  0.2031  0.8614 -0.6105
  623MOL0     O84000   8.873   3.340   7.304  0.0122  0.4931  0.4399
  623MOL0     C84001   8.958   3.387   7.205 -0.4512 -0.4689 -0.1922
  623MOL0     C84002   8.904   3.437   7.096  0.4122 -0.9975  0.0571
  623MOL0     C84003   8.986   3.494   7.000  0.7734 -0.2461 -0.6416
  623MOL0     C84004   9.119   3.477   6.995 -0.6727 -0.5540 -0.6737
  623MOL0     O84005   9.189   3.516   6.879  0.4562  0.5810  0.0435
  623MOL0     C84006   9.313   3.469   6.848  1.1081 -0.3023 -0.5413
  623MOL0     C84007   9.416   3.582   6.848 -0.0177  0.2737  0.5035
  623MOL0     C84008   9.406   3.703   6.749  0.0504 -0.0747  0.5555
  623MOL0     C84009   9.507   3.811   6.766  0.0925  0.3044  0.2958
  623MOL0     C84010   9.652   3.775   6.758 -0.7260  0.6072  0.4967
  623MOL0     C84011   9.742   3.900   6.752 -0.2269 -0.3946 -0.5021
  623MOL0     C84012   9.891   3.861   6.763 -0.6420  1.1015 -0.8113
  623MOL0     C84013   9.976   3.972   6.711 -0.7797  0.3218  0.3587
  623MOL0    Cl84014  10.138   3.946   6.784 -0.0562 -0.0965  0.0047
  623MOL0     C84015   9.176   3.415   7.106 -0.1793 -0.3372 -0.5050
  623MOL0     C84016   9.104   3.379   7.223  0.6361  0.1334  0.0733
  623MOL0     O84017   8.999   3.408   7.492 -0.4925  0.2090  0.3213
  623MOL0     C84018   8.809   3.341   7.676  0.8316 -0.2454 -0.3902
  623MOL0     C84019   8.716   3.293   7.767 -0.1328  0.0940  0.6015
  623MOL0     N84020   8.201   3.221   8.163  0.7854  0.4955  0.4410
  623MOL0     N84021   8.114   3.309   8.222 -0.8871  1.3434 -0.2501
  623MOL0     C84022   6.723   3.542   8.466  0.1106 -0.5240 -0.1163
  623MOL0     C84023   6.608   3.574   8.544  0.8054  0.4273 -0.2855
  623MOL0     C84024   6.290   3.667   8.839  0.1281  0.2679  0.3582
  623MOL0     C84025   6.272   3.569   8.939 -0.0509  0.4175  0.0645
  623MOL0     C84026   6.158   3.576   9.024 -0.3708 -0.3966 -0.2643
  623MOL0     C84027   6.087   3.690   9.034  0.8605  0.3159  0.0015
  623MOL0     O84028   5.993   3.694   9.120 -0.0576 -0.7467 -0.4469
  623MOL0     C84029   5.866   3.732   9.072  0.2432  0.1130 -0.4938
  623MOL0     C84030   5.752   3.634   9.111 -0.0088  0.5331 -0.0540
  623MOL0     C84031   5.754   3.614   9.251  0.4662  0.1006 -0.1323
  623MOL0     C84032   5.684   3.726   9.334  0.1723 -0.2682 -0.4336
  623MOL0     C84033   5.537   3.711   9.331 -0.1569  0.4743  0.8973
  623MOL0     C84034   5.416   3.720   9.310 -0.8125 -0.0356 -0.1947
  623MOL0     C84035   6.123   3.802   8.954 -0.2827  0.5749  0.0213
  623MOL0     C84036   6.222   3.790   8.857 -0.1565 -0.6828  0.6958
  623MOL0     C84037   6.246   3.917   8.772  0.6272  0.2064 -0.1736
  623MOL0     H84038   6.676   3.393   8.812  0.2355  0.5117  0.0110
  623MOL0     H84039   6.884   3.343   8.690 -0.7768 -0.8634  0.9672
  623MOL0     H84040   7.073   3.394   8.584 -0.3299  0.0051 -0.5125
  623MOL0     H84041   7.021   3.261   8.476 -3.1038  0.9818  1.8979
  623MOL0     H84042   7.179   3.482   8.379 -0.6641  0.6897  0.6325
  623MOL0     H84043   7.120   3.340   8.281  5.0613 -1.4429 -1.0852
  623MOL0     H84044   7.264   3.184   8.419 -2.5571 -0.3102 -0.4965
  623MOL0     H84045   7.314   3.337   8.509  0.5993  0.4792 -0.2862
  623MOL0     H84046   7.355   3.291   8.211  0.2585 -1.0460 -0.8761
  623MOL0     H84047   7.396   3.426   8.298  1.2502 -0.7851  0.2671
  623MOL0     H84048   7.539   3.284   8.463 -0.1865 -1.5327 -0.1741
  623MOL0     H84049   7.517   3.156   8.346  1.3882  0.0474 -1.1280
  623MOL0     H84050   7.606   3.322   8.169 -0.5558 -2.1752  0.2239
  623MOL0     H84051   7.648   3.429   8.306  1.1456 -1.4611  3.3239
  623MOL0     H84052   7.766   3.144   8.257 -0.4975 -1.2592  2.0164
  623MOL0     H84053   7.815   3.246   8.396  2.5826 -1.6659 -0.4060
  623MOL0     H84054   7.857   3.318   8.113 -0.1970 -2.8856  0.5680
  623MOL0     H84055   7.883   3.420   8.256  1.8990  2.1439 -4.5221
  623MOL0     H84056   7.936   3.045   8.173 -0.0059 -0.2399  1.9473
  623MOL0     H84057   8.265   2.927   8.177  0.6247 -0.0095  0.1944
  623MOL0     H84058   8.138   2.902   8.065 -0.8959 -0.6445  3.3432
  623MOL0     H84059   8.334   2.888   7.960 -2.9708 -2.2789  2.8661
  623MOL0     H84060   8.278   3.061   7.909  0.0158 -1.8768 -0.9265
  623MOL0     H84061   8.504   2.976   8.091  0.5821  2.1315  2.3014
  623MOL0     H84062   8.458   3.146   8.073 -1.5465 -0.8668  1.2050
  623MOL0     H84063   8.526   2.974   7.831  1.0894 -0.1991 -0.9596
  623MOL0     H84064   8.648   3.067   7.925 -0.8160  0.2432  0.8843
  623MOL0     H84065   8.521   3.121   7.537  0.3590  0.4138 -0.0880
  623MOL0     H84066   8.678   3.202   7.396  1.0216  0.9015 -0.1400
  623MOL0     H84067   8.795   3.441   7.094  0.3769 -0.0566  1.8868
  623MOL0     H84068   8.943   3.523   6.904  0.6528 -0.3783 -0.6277
  623MOL0     H84069   9.354   3.389   6.910 -0.9741 -0.6517  0.4765
  623MOL0     H84070   9.312   3.427   6.747 -2.4326 -1.5048 -0.1269
  623MOL0     H84071   9.415   3.618   6.951 -3.2101 -0.6217  0.8960
  623MOL0     H84072   9.512   3.533   6.829 -0.1100  1.3431 -3.8492
  623MOL0     H84073   9.402   3.672   6.644  0.8981  0.4217  0.3665
  623MOL0     H84074   9.311   3.750   6.776 -0.7799 -2.2063  1.5199
  623MOL0     H84075   9.487   3.871   6.856 -1.8947 -0.5640  0.4943
  623MOL0     H84076   9.500   3.876   6.679  0.2202 -0.3922 -0.2398
  623MOL0     H84077   9.677   3.711   6.672 -0.9660 -0.7915  1.4379
  623MOL0     H84078   9.685   3.712   6.841 -0.7442 -0.3955 -0.2356
  623MOL0     H84079   9.719   3.952   6.659  3.9339  1.1786 -0.8611
  623MOL0     H84080   9.721   3.971   6.832  0.7695  1.1433 -1.5464
  623MOL0     H84081   9.908   3.762   6.721 -0.2795  0.4236  0.8754
  623MOL0     H84082   9.913   3.852   6.869  0.0166 -0.2857 -1.0557
  623MOL0     H84083   9.991   3.959   6.603  0.5648  0.4818  0.5114
  623MOL0     H84084   9.935   4.071   6.734 -2.8405 -0.7455  1.5487
  623MOL0     H84085   9.284   3.410   7.113 -0.1062  0.6514 -0.6770
  623MOL0     H84086   9.145   3.334   7.313  0.3126 -0.2501  0.0263
  623MOL0     H84087   8.891   3.400   7.713  1.3083  2.2737 -4.7508
  623MOL0     H84088   8.720   3.328   7.869 -5.0260 -1.7608  1.7457
  623MOL0     H84089   6.723   3.581   8.365  3.4971 -0.7956 -0.3248
  623MOL0     H84090   6.555   3.658   8.499  3.0968  1.6570 -0.8619
  623MOL0     H84091   6.321   3.473   8.943 -3.1438 -1.2474  1.1184
  623MOL0     H84092   6.140   3.491   9.088 -2.0913 -1.3196 -1.8674
  623MOL0     H84093   5.861   3.755   8.965 -1.1528  2.5592  0.0092
  623MOL0     H84094   5.843   3.832   9.111 -0.5858  0.0102 -0.7012
  623MOL0     H84095   5.759   3.538   9.058  2.2950  0.9181 -0.5616
  623MOL0     H84096   5.652   3.668   9.084 -0.9796 -2.3719 -0.4127
  623MOL0     H84097   5.855   3.611   9.294  0.6178  2.9461 -0.0886
  623MOL0     H84098   5.702   3.518   9.250 -3.6190  2.1097 -0.3283
  623MOL0     H84099   5.703   3.708   9.440  2.2019  4.2729  0.1943
  623MOL0     H84100   5.717   3.827   9.309 -0.7122  0.0783 -0.2396
  623MOL0     H84101   5.310   3.729   9.302 -0.7158 -0.4127 -2.5370
  623MOL0     H84102   6.077   3.898   8.974 -0.6915  0.4037 -0.0922
  623MOL0     H84103   6.170   3.991   8.797 -0.6749 -1.7984  2.3554
  623MOL0     H84104   6.347   3.949   8.796  1.9297 -2.9218 -0.9918
  623MOL0     H84105   6.234   3.892   8.666 -2.6886  0.1995  0.1035
  624MOL0     O84106   7.857   1.659  11.021 -0.0100  0.5151 -0.8162
  624MOL0     C84107   7.759   1.576  11.038 -0.4755 -0.3062 -0.7731
  624MOL0     O84108   7.754   1.461  11.121  0.2407  0.4460  0.8271
  624MOL0     C84109   7.879   1.418  11.157 -0.0656  0.0961 -0.8563
  624MOL0     C84110   7.965   1.346  11.075 -0.2926  0.4852  0.4884
  624MOL0     C84111   8.102   1.311  11.114  0.8191 -0.2487  0.7507
  624MOL0     C84112   8.143   1.356  11.242  0.3303  0.7966  0.2678
  624MOL0     O84113   8.279   1.342  11.286  0.3707  0.1617  0.2642
  624MOL0     C84114   8.377   1.309  11.188 -1.6255 -0.2778  0.9938
  624MOL0     C84115   8.506   1.389  11.224  0.6823 -0.3064 -0.7616
  624MOL0     C84116   8.471   1.527  11.270 -0.0099 -0.5530  0.4766
  624MOL0     C84117   8.593   1.619  11.288  0.1973 -0.3662  0.2032
  624MOL0     C84118   8.551   1.750  11.365 -0.4819 -0.3031 -0.2547
  624MOL0     C84119   8.678   1.834  11.412 -0.0779  0.8369  0.3499
  624MOL0     C84120   8.630   1.969  11.476  0.3094  0.0996 -0.7585
  624MOL0     C84121   8.585   2.070  11.379 -0.1931 -0.3609  0.1647
  624MOL0     N84122   8.700   2.131  11.306 -0.4043 -0.7970  0.9566
  624MOL0     C84123   8.806   2.195  11.365  0.0387 -1.3412  0.1018
  624MOL0     C84124   8.872   2.258  11.267 -0.2575 -0.0698  0.4933
  624MOL0     C84125   8.985   2.355  11.276  0.0596  0.8300  0.2016
  624MOL0     C84126   9.050   2.376  11.132 -0.9799  0.6748 -1.0021
  624MOL0     C84127   9.144   2.499  11.131 -0.0784 -0.4870  0.6149
  624MOL0     C84128   9.189   2.502  10.983  0.9931 -0.5985 -1.0078
  624MOL0     O84129   9.277   2.613  10.955 -0.4253 -0.2620 -0.7457
  624MOL0     C84130   9.416   2.579  10.952 -0.3254  0.5555  0.0658
  624MOL0     C84131   9.495   2.686  10.914 -0.3462  0.1703 -0.7682
  624MOL0     C84132   9.640   2.674  10.912 -0.4008 -0.6953  0.0031
  624MOL0     C84133   9.699   2.566  10.964 -0.0465  0.7283  0.0637
  624MOL0     C84134   9.842   2.558  10.978 -0.3128  0.0108  1.0189
  624MOL0     O84135   9.922   2.664  10.945 -0.1481 -0.6807  0.2139
  624MOL0     C84136  10.059   2.653  10.990 -0.3033 -0.1537 -0.4568
  624MOL0     C84137  10.097   2.648  11.126  0.5719 -0.3414  0.1903
  624MOL0     C84138  10.231   2.659  11.164 -0.3341  0.8595  0.9142
  624MOL0     C84139  10.333   2.678  11.058 -0.5355  0.4129  0.0759
  624MOL0     O84140  10.464   2.700  11.093  0.5056 -0.3038  0.3388
  624MOL0     C84141  10.577   2.693  10.999  0.7693 -0.0543 -0.0021
  624MOL0     C84142  10.678   2.801  11.037  0.0949 -0.5553 -0.0521
  624MOL0     C84143  10.620   2.943  11.023 -0.2707 -0.5838  0.3143
  624MOL0     C84144  10.715   3.049  11.074  0.9198 -0.7651  0.3837
  624MOL0     C84145  10.847   3.059  10.996  0.0565 -0.6459  0.1728
  624MOL0     C84146  10.941   3.153  11.074  0.5358  0.9375 -0.7194
  624MOL0     C84147  11.086   3.142  11.022 -0.6183  0.2212 -0.8640
  624MOL0     C84148  11.187   3.216  11.114 -0.4378 -0.1783  0.4025
  624MOL0    Cl84149  11.320   3.270  11.011  0.3979  0.1389 -0.3348
  624MOL0     C84150  10.290   2.672  10.926 -0.0741  0.5230 -0.2156
  624MOL0     C84151  10.152   2.657  10.891  0.9273  0.0848  0.2384
  624MOL0     O84152   9.879   2.452  11.026 -0.1252 -0.0309 -0.2591
  624MOL0     C84153   9.621   2.457  10.992  0.7508  0.2877 -0.5470
  624MOL0     C84154   9.477   2.462  10.987 -0.9502 -0.1499  0.3888
  624MOL0     N84155   8.813   2.220  11.142  0.4995 -0.7055  0.0856
  624MOL0     N84156   8.715   2.140  11.171 -0.3692  0.4150 -0.9560
  624MOL0     C84157   8.051   1.422  11.326  0.0651 -0.7829  0.0177
  624MOL0     C84158   7.921   1.452  11.284 -0.4893 -0.3445  0.7062
  624MOL0     C84159   7.634   1.624  10.974 -0.8134  0.5019  0.8612
  624MOL0     C84160   7.622   1.756  10.923  0.1725  0.6080 -0.9221
  624MOL0     C84161   7.513   1.805  10.862  0.0685 -0.0752  0.6764
  624MOL0     C84162   7.407   1.723  10.831 -0.1529 -0.7280  0.2680
  624MOL0     O84163   7.294   1.775  10.774  0.4795 -0.7365  0.6263
  624MOL0     C84164   7.165   1.750  10.828 -0.6926  0.1038 -0.3860
  624MOL0     C84165   7.092   1.654  10.735 -0.4150  0.3145  0.4392
  624MOL0     C84166   6.945   1.682  10.724  0.4367 -1.0048  0.6471
  624MOL0     C84167   6.873   1.659  10.857  0.1626 -0.4357  0.1789
  624MOL0     C84168   6.734   1.713  10.852 -1.1403  0.4302 -0.2430
  624MOL0     C84169   6.623   1.764  10.846  0.5037 -0.3009  0.4789
  624MOL0     C84170   7.410   1.592  10.879  0.2138  0.0496 -0.2427
  624MOL0     C84171   7.521   1.537  10.943  0.3135  0.3941 -0.2727
  624MOL0     C84172   7.515   1.392  10.982  0.8199 -0.5408 -1.2184
  624MOL0     H84173   7.922   1.319  10.979 -2.6410  1.4982  1.1858
  624MOL0     H84174   8.165   1.258  11.043 -0.8596  1.8896 -2.6158
  624MOL0     H84175   8.389   1.200  11.182 -4.4123 -0.6539  0.5846
  624MOL0     H84176   8.358   1.350  11.088  0.1282  0.7663  1.0480
  624MOL0     H84177   8.577   1.399  11.142  1.9132  3.1568  0.5306
  624MOL0     H84178   8.553   1.332  11.305  0.7493  1.5718  0.5913
  624MOL0     H84179   8.428   1.505  11.368  1.2630 -3.4245  0.4823
  624MOL0     H84180   8.396   1.583  11.212 -2.3471  1.0361  4.5937
  624MOL0     H84181   8.675   1.564  11.335  0.5531  1.7536  2.2086
  624MOL0     H84182   8.633   1.641  11.188 -1.0098 -4.4734 -1.4215
  624MOL0     H84183   8.503   1.828  11.305  0.6179 -0.2561 -1.0826
  624MOL0     H84184   8.485   1.725  11.449  1.0652 -1.4243  0.6817
  624MOL0     H84185   8.728   1.771  11.486 -0.9990 -1.7055 -1.0583
  624MOL0     H84186   8.739   1.857  11.324  0.2479  0.9712  0.6126
  624MOL0     H84187   8.704   2.013  11.544  1.6156  2.8184 -3.6914
  624MOL0     H84188   8.543   1.947  11.539  0.0758 -0.3512 -1.2290
  624MOL0     H84189   8.512   2.031  11.307 -1.9731 -0.7545  2.0759
  624MOL0     H84190   8.547   2.154  11.438  1.1264  1.6333 -1.6586
  624MOL0     H84191   8.820   2.207  11.472  3.1079 -0.6703 -0.2966
  624MOL0     H84192   8.950   2.456  11.300 -3.4474  0.7142 -3.4226
  624MOL0     H84193   9.065   2.333  11.347 -0.8179  2.8323  1.8818
  624MOL0     H84194   9.109   2.289  11.102  0.2206 -0.5444  4.0274
  624MOL0     H84195   8.972   2.402  11.060 -0.9672  3.6946 -0.0560
  624MOL0     H84196   9.230   2.482  11.197 -1.8543  3.2590  4.4395
  624MOL0     H84197   9.112   2.594  11.176 -1.8104 -0.2836 -0.9388
  624MOL0     H84198   9.099   2.514  10.922  1.0597  2.2055 -0.6959
  624MOL0     H84199   9.231   2.405  10.956 -1.2056 -3.3644  4.1407
  624MOL0     H84200   9.460   2.787  10.897  1.7182  0.9996 -0.3517
  624MOL0     H84201   9.699   2.758  10.879 -1.5790  0.0393 -0.3232
  624MOL0     H84202  10.009   2.656  11.189  0.1490  1.1386 -0.5369
  624MOL0     H84203  10.268   2.656  11.266  0.3230 -0.6247  0.6544
  624MOL0     H84204  10.614   2.591  11.013  0.1038 -0.4765 -1.1683
  624MOL0     H84205  10.554   2.712  10.894 -0.2476  0.6960  0.3437
  624MOL0     H84206  10.713   2.780  11.139  0.9153  3.5151  0.6667
  624MOL0     H84207  10.765   2.790  10.972  3.1934  2.3501  3.1481
  624MOL0     H84208  10.599   2.967  10.918 -0.9147 -2.5635 -0.0516
  624MOL0     H84209  10.524   2.950  11.075 -1.0430 -1.0508 -0.9784
  624MOL0     H84210  10.732   3.035  11.181  0.2551 -2.1274  0.3386
  624MOL0     H84211  10.658   3.140  11.048  1.8799 -0.6476 -1.4415
  624MOL0     H84212  10.833   3.088  10.892  1.6664  0.3642  0.2009
  624MOL0     H84213  10.905   2.967  10.996  2.5991  0.8512 -1.6130
  624MOL0     H84214  10.918   3.259  11.064  0.1379  0.8617 -0.6136
  624MOL0     H84215  10.933   3.124  11.179 -0.8326  0.2043 -0.9995
  624MOL0     H84216  11.091   3.181  10.919  0.7937  3.5789  0.3243
  624MOL0     H84217  11.114   3.037  11.019  0.0110  0.3307  0.4883
  624MOL0     H84218  11.137   3.301  11.161 -1.3869  0.3576 -1.4893
  624MOL0     H84219  11.209   3.147  11.196  3.1591 -2.0028 -1.8185
  624MOL0     H84220  10.346   2.713  10.842 -0.9499  0.7176 -0.7172
  624MOL0     H84221  10.117   2.658  10.788 -0.2327  0.9091  0.6192
  624MOL0     H84222   9.661   2.367  11.039  2.6606  1.1174 -0.5143
  624MOL0     H84223   9.414   2.383  11.026 -0.6834 -0.3472  0.4272
  624MOL0     H84224   8.078   1.471  11.419 -1.7734  4.5586 -1.9042
  624MOL0     H84225   7.857   1.513  11.346  0.9982 -0.5202  2.5146
  624MOL0     H84226   7.694   1.826  10.963 -1.3555  1.2932  0.8351
  624MOL0     H84227   7.506   1.912  10.841  2.0394  0.1212  0.8597
  624MOL0     H84228   7.112   1.845  10.836  2.0573  1.6042  1.6336
  624MOL0     H84229   7.174   1.719  10.933 -0.9384  1.3277  0.0134
  624MOL0     H84230   7.111   1.549  10.758  0.5008  0.3522 -0.1036
  624MOL0     H84231   7.137   1.657  10.636  5.3931  1.1370  2.7343
  624MOL0     H84232   6.901   1.626  10.640 -0.6745  1.1696 -0.2927
  624MOL0     H84233   6.926   1.785  10.694  0.3085 -1.0374  0.6161
  624MOL0     H84234   6.871   1.552  10.879 -0.1276 -0.1058  1.8578
  624MOL0     H84235   6.928   1.720  10.929 -0.8012  0.2501  0.3513
  624MOL0     H84236   6.528   1.806  10.822 -0.2562 -1.6939  0.8955
  624MOL0     H84237   7.329   1.526  10.850  1.2971 -1.4500  0.0097
  624MOL0     H84238   7.609   1.341  10.962  1.1362 -1.0372  1.1755
  624MOL0     H84239   7.504   1.385  11.091  0.7640  2.3962 -0.9468
  624MOL0     H84240   7.434   1.338  10.933 -1.2146 -1.4136  2.6617
  625MOL0     O84241   6.520   4.891   8.990  0.3654  0.2213 -0.1400
  625MOL0     C84242   6.640   4.875   8.967 -0.1128  0.0462  0.4944
  625MOL0     O84243   6.728   4.971   8.935 -0.0114  0.7136 -0.8210
  625MOL0     C84244   6.693   5.101   8.930 -0.4229 -0.1028  0.4032
  625MOL0     C84245   6.732   5.182   8.822 -0.4158 -0.2669  0.5000
  625MOL0     C84246   6.697   5.327   8.815  0.0807 -0.8058 -0.4170
  625MOL0     C84247   6.608   5.379   8.910  0.8281 -0.4772 -0.0484
  625MOL0     O84248   6.555   5.501   8.906 -0.2738 -0.3023 -0.0461
  625MOL0     C84249   6.575   5.594   8.802  0.1572 -0.3670 -0.1329
  625MOL0     C84250   6.497   5.569   8.678  0.1206 -0.2065  0.5074
  625MOL0     C84251   6.341   5.542   8.689 -0.4666 -0.5069 -0.2293
  625MOL0     C84252   6.274   5.654   8.773  0.0881  0.0852  0.0002
  625MOL0     C84253   6.126   5.663   8.744  0.1143  0.1756  0.5478
  625MOL0     C84254   6.056   5.527   8.758  1.0925  0.5235 -0.1901
  625MOL0     C84255   5.915   5.533   8.699 -1.0418  0.6714  0.3772
  625MOL0     C84256   5.851   5.401   8.670 -1.1687 -0.2243  0.2538
  625MOL0     N84257   5.886   5.320   8.787 -0.4193 -0.0229 -0.2773
  625MOL0     C84258   5.843   5.350   8.918 -0.3040 -0.0113 -0.3458
  625MOL0     C84259   5.869   5.237   8.992  0.7199  0.5194  0.6569
  625MOL0     C84260   5.855   5.232   9.140  0.1197 -0.2274  0.4102
  625MOL0     C84261   5.978   5.286   9.207  0.0890  0.4254  0.1550
  625MOL0     C84262   6.076   5.171   9.233 -0.5058  0.3343 -0.5966
  625MOL0     C84263   6.192   5.211   9.326  1.2627 -0.5824  0.4435
  625MOL0     O84264   6.290   5.111   9.312 -0.2177 -0.2395  1.0220
  625MOL0     C84265   6.418   5.130   9.352 -0.3422 -0.1384 -0.6877
  625MOL0     C84266   6.459   5.252   9.409  0.6159 -0.5116 -0.2089
  625MOL0     C84267   6.596   5.254   9.440  0.0545  0.5204 -0.2315
  625MOL0     C84268   6.670   5.136   9.471 -0.9103  0.4759 -0.1054
  625MOL0     C84269   6.811   5.149   9.532  0.4450  0.0679 -0.3966
  625MOL0     O84270   6.888   5.034   9.556 -0.2877 -0.5220 -0.5078
  625MOL0     C84271   7.006   5.072   9.608  0.0320 -0.6726  0.2052
  625MOL0     C84272   7.110   5.102   9.518 -0.3721  0.6668 -0.4807
  625MOL0     C84273   7.233   5.150   9.558  0.2137 -0.1205 -0.0209
  625MOL0     C84274   7.256   5.167   9.693  0.2655 -0.3007 -0.7828
  625MOL0     O84275   7.380   5.209   9.735 -0.4198 -0.5084  0.2576
  625MOL0     C84276   7.502   5.138   9.680  0.6579 -0.3357  0.7145
  625MOL0     C84277   7.521   5.004   9.744  0.5653  0.2827 -1.5671
  625MOL0     C84278   7.645   4.931   9.693 -0.2845 -0.8510 -0.4739
  625MOL0     C84279   7.696   4.817   9.788 -0.0498  0.4004 -0.2990
  625MOL0     C84280   7.800   4.735   9.709  0.7972 -0.7927  0.1106
  625MOL0     C84281   7.843   4.623   9.792  0.3985  0.5072 -0.9120
  625MOL0     C84282   7.963   4.559   9.725  0.6127 -0.1133 -0.1416
  625MOL0     C84283   8.007   4.420   9.763  0.2049 -0.6712 -0.4700
  625MOL0    Cl84284   8.185   4.421   9.755  0.3724  0.0213 -0.6236
  625MOL0     C84285   7.163   5.132   9.792 -0.5532 -1.1857  0.5221
  625MOL0     C84286   7.039   5.081   9.748 -0.1546  0.2672 -0.2019
  625MOL0     O84287   6.844   5.263   9.563  0.0344  0.4608  0.4216
  625MOL0     C84288   6.621   5.018   9.433  0.3533 -0.1916 -0.2717
  625MOL0     C84289   6.496   5.022   9.373  0.1591 -0.1570  0.9879
  625MOL0     N84290   5.919   5.135   8.913  0.2824 -0.3725 -0.6189
  625MOL0     N84291   5.925   5.185   8.786 -0.1290  0.1312 -0.5690
  625MOL0     C84292   6.573   5.300   9.016 -0.3311  0.3331  0.4146
  625MOL0     C84293   6.615   5.162   9.032 -0.7544 -0.7879  1.0682
  625MOL0     C84294   6.694   4.741   8.987 -0.1454  0.7119  0.0666
  625MOL0     C84295   6.819   4.709   8.934 -0.8994 -0.1591  1.1678
  625MOL0     C84296   6.881   4.584   8.947 -0.6108  0.6984 -0.4997
  625MOL0     C84297   6.812   4.482   9.024  0.0110 -0.0437  0.5847
  625MOL0     O84298   6.882   4.362   9.045  0.2170  0.5241 -0.5839
  625MOL0     C84299   6.832   4.265   9.137 -0.2742  0.2309 -0.5103
  625MOL0     C84300   6.934   4.153   9.133  0.2536 -0.3829  0.5405
  625MOL0     C84301   7.078   4.179   9.204  0.5389 -0.7388  1.0766
  625MOL0     C84302   7.181   4.084   9.147  0.9071  0.3094  0.0902
  625MOL0     C84303   7.170   3.939   9.199  0.5864  0.5847 -0.4999
  625MOL0     C84304   7.138   3.833   9.250 -0.6529 -0.0221  0.4530
  625MOL0     C84305   6.682   4.504   9.067  0.6171 -0.2241  1.0769
  625MOL0     C84306   6.620   4.635   9.055 -0.2489 -1.0111  0.5574
  625MOL0     C84307   6.482   4.638   9.125 -0.3952 -0.2748  0.3491
  625MOL0     H84308   6.799   5.136   8.750 -0.2863  1.1206 -0.3060
  625MOL0     H84309   6.730   5.391   8.733  1.3516  2.0210  2.0966
  625MOL0     H84310   6.543   5.693   8.838  2.5222 -0.3189  2.1913
  625MOL0     H84311   6.682   5.612   8.791  0.2333  1.4249  2.5358
  625MOL0     H84312   6.541   5.487   8.619  2.0011  1.8934 -1.2075
  625MOL0     H84313   6.514   5.660   8.620 -1.3542  0.0295  0.4017
  625MOL0     H84314   6.328   5.448   8.743  1.1592 -0.2806  0.6428
  625MOL0     H84315   6.295   5.517   8.594  3.0114 -3.9388 -1.2814
  625MOL0     H84316   6.290   5.623   8.877  1.5382 -0.5298 -0.3862
  625MOL0     H84317   6.321   5.750   8.750  1.2429 -1.4851 -5.4453
  625MOL0     H84318   6.083   5.738   8.811 -0.0212  0.9878 -0.4216
  625MOL0     H84319   6.111   5.686   8.638 -1.4488 -2.5401  0.0943
  625MOL0     H84320   6.108   5.453   8.696 -1.1815 -1.1954 -0.1485
  625MOL0     H84321   6.063   5.487   8.859 -2.4468  0.8469  0.2838
  625MOL0     H84322   5.920   5.577   8.599 -1.3968 -0.0996  0.0089
  625MOL0     H84323   5.854   5.597   8.764  0.0966  3.1578 -0.8271
  625MOL0     H84324   5.744   5.420   8.660 -1.1144  1.5084  2.2292
  625MOL0     H84325   5.891   5.358   8.578 -0.2390 -1.9768  1.4178
  625MOL0     H84326   5.807   5.445   8.957 -2.5174 -0.6702 -0.6650
  625MOL0     H84327   5.765   5.288   9.167 -0.5445 -0.4209 -1.2318
  625MOL0     H84328   5.838   5.129   9.172 -3.0985  0.3400  0.9433
  625MOL0     H84329   6.029   5.365   9.151 -1.6613  2.2913  1.0330
  625MOL0     H84330   5.949   5.318   9.307 -1.2061  1.2255 -0.4447
  625MOL0     H84331   6.116   5.147   9.134 -0.0176  1.0543 -0.5878
  625MOL0     H84332   6.025   5.085   9.278  0.9050  0.7388  2.0071
  625MOL0     H84333   6.157   5.217   9.430  3.3671 -0.1047  1.1586
  625MOL0     H84334   6.229   5.310   9.298  0.2340 -0.5511 -0.9218
  625MOL0     H84335   6.398   5.341   9.416  1.2888  0.1657 -2.3483
  625MOL0     H84336   6.648   5.349   9.450  3.1039 -1.1017  0.7521
  625MOL0     H84337   7.078   5.093   9.415 -0.0549 -1.3375 -0.4434
  625MOL0     H84338   7.307   5.171   9.481 -1.0966 -0.0511 -1.3175
  625MOL0     H84339   7.502   5.123   9.572  1.3165  0.5957  0.5712
  625MOL0     H84340   7.587   5.204   9.702 -0.3955  1.3123  0.0501
  625MOL0     H84341   7.526   5.016   9.853 -2.1253  1.9105 -1.5302
  625MOL0     H84342   7.438   4.937   9.722  2.6091 -3.5333  1.2409
  625MOL0     H84343   7.623   4.885   9.596 -1.4475  2.3820 -1.8755
  625MOL0     H84344   7.738   4.989   9.692 -0.2326 -0.9414 -1.1808
  625MOL0     H84345   7.612   4.756   9.824 -1.1815  0.5566 -2.5250
  625MOL0     H84346   7.741   4.861   9.878 -2.0909 -0.5694  1.2981
  625MOL0     H84347   7.884   4.805   9.709  0.1396  0.0074  0.7225
  625MOL0     H84348   7.769   4.711   9.607 -0.5303  0.9616  0.0755
  625MOL0     H84349   7.853   4.658   9.895  1.2078 -1.6885 -0.1769
  625MOL0     H84350   7.770   4.543   9.778 -3.6388  3.5926  0.6208
  625MOL0     H84351   8.051   4.624   9.731  1.4363 -1.1336 -0.8285
  625MOL0     H84352   7.928   4.557   9.621 -1.4016  1.0346  0.4663
  625MOL0     H84353   7.977   4.396   9.865  0.9110 -0.9662 -0.3252
  625MOL0     H84354   7.982   4.336   9.697  1.5331 -0.0249 -1.8618
  625MOL0     H84355   7.184   5.142   9.898 -0.2690 -1.2138  0.4707
  625MOL0     H84356   6.959   5.058   9.817 -1.2110  3.7105 -0.1028
  625MOL0     H84357   6.679   4.930   9.460 -2.7281 -2.2023  0.2777
  625MOL0     H84358   6.461   4.927   9.333 -1.9046 -0.5779  3.4870
  625MOL0     H84359   6.516   5.348   9.095  2.2066  1.6964  1.5565
  625MOL0     H84360   6.566   5.103   9.108  1.6713 -1.3396  2.2924
  625MOL0     H84361   6.885   4.774   8.877  1.5758 -2.2098  1.4501
  625MOL0     H84362   6.978   4.560   8.906  1.0798  2.7146  1.9880
  625MOL0     H84363   6.733   4.222   9.118 -1.5109  1.7746  1.8529
  625MOL0     H84364   6.826   4.302   9.240 -0.7005 -1.7351  0.2185
  625MOL0     H84365   6.945   4.123   9.029  0.0179 -2.3459  1.0524
  625MOL0     H84366   6.886   4.068   9.181 -0.0551  0.0942  1.0939
  625MOL0     H84367   7.080   4.165   9.312  2.0566  1.2266  1.3602
  625MOL0     H84368   7.119   4.277   9.177  1.6590 -1.3570  0.4300
  625MOL0     H84369   7.180   4.087   9.037 -1.6266  1.0440  0.0695
  625MOL0     H84370   7.282   4.108   9.181  1.3783 -0.3620 -0.8177
  625MOL0     H84371   7.109   3.738   9.291  0.6842 -1.7760 -2.3860
  625MOL0     H84372   6.625   4.436   9.130 -4.2041  0.8491 -1.5991
  625MOL0     H84373   6.399   4.633   9.054  0.4398  0.6452 -0.7350
  625MOL0     H84374   6.475   4.554   9.195 -0.8233 -2.0420 -1.7215
  625MOL0     H84375   6.478   4.739   9.168 -0.2807  0.1964 -0.7235
  626MOL0     O84376   7.882   9.030   0.754 -0.6789 -0.5223  0.5876
  626MOL0     C84377   7.835   9.016   0.860  0.1051 -0.2921 -0.5183
  626MOL0     O84378   7.898   8.953   0.966  0.7062  0.0837 -0.6406
  626MOL0     C84379   8.027   8.926   0.988  0.8814  0.2113 -0.2763
  626MOL0     C84380   8.124   8.925   0.898 -0.1600 -0.2943 -0.0399
  626MOL0     C84381   8.261   8.908   0.942 -0.0059  0.3957 -0.2791
  626MOL0     C84382   8.291   8.888   1.082  0.2376  0.6823  0.9586
  626MOL0     O84383   8.423   8.887   1.119  0.0983  0.2252 -0.3411
  626MOL0     C84384   8.490   8.779   1.075 -0.6716  0.6458 -0.0445
  626MOL0     C84385   8.613   8.758   1.153 -0.9822  0.3794 -0.6217
  626MOL0     C84386   8.679   8.621   1.141 -0.2193 -0.0720  0.4202
  626MOL0     C84387   8.658   8.530   1.020  0.1416 -0.0417 -0.1200
  626MOL0     C84388   8.761   8.424   1.022  0.4402  0.3692 -0.4143
  626MOL0     C84389   8.736   8.326   1.143 -0.0428  0.8982  0.3066
  626MOL0     C84390   8.846   8.213   1.140 -0.8485  0.0636 -0.4013
  626MOL0     C84391   8.833   8.120   1.023  0.0784  0.0934 -0.3270
  626MOL0     N84392   8.782   7.997   1.070 -0.0324  0.4981  0.8591
  626MOL0     C84393   8.664   7.940   1.030  0.2606 -0.3979  0.4445
  626MOL0     C84394   8.660   7.826   1.103 -0.8476  1.0100  0.2472
  626MOL0     C84395   8.549   7.717   1.086 -0.5488 -0.0257 -0.1404
  626MOL0     C84396   8.493   7.701   0.954  0.4232 -0.2041 -0.6855
  626MOL0     C84397   8.354   7.650   0.979  0.1696 -0.0390 -0.1250
  626MOL0     C84398   8.264   7.651   0.852  0.9871 -1.1210 -0.4385
  626MOL0     O84399   8.128   7.621   0.882  0.5833 -0.7183  0.5453
  626MOL0     C84400   8.036   7.616   0.782 -0.0198 -0.5878  0.4350
  626MOL0     C84401   7.918   7.544   0.810  0.2315  0.5211 -0.2420
  626MOL0     C84402   7.830   7.513   0.706 -0.1084 -0.0792 -0.5754
  626MOL0     C84403   7.853   7.557   0.571 -0.8933 -0.5776 -0.3195
  626MOL0     C84404   7.766   7.531   0.454  0.5285  0.4818  0.2916
  626MOL0     O84405   7.674   7.436   0.472 -0.6427 -0.9279  0.0114
  626MOL0     C84406   7.549   7.440   0.416  0.7654 -0.4351 -0.0006
  626MOL0     C84407   7.487   7.314   0.397 -0.4957  0.4550  0.0734
  626MOL0     C84408   7.355   7.290   0.354  0.2525 -0.4718  0.4840
  626MOL0     C84409   7.290   7.405   0.315 -0.7124  1.0506  0.7346
  626MOL0     O84410   7.157   7.410   0.271  0.6205 -0.4520 -0.9493
  626MOL0     C84411   7.068   7.294   0.274 -0.7525  0.1879 -0.3962
  626MOL0     C84412   6.925   7.341   0.272 -0.5639 -0.4856 -0.5269
  626MOL0     C84413   6.832   7.232   0.302 -0.2932  0.3420 -0.3914
  626MOL0     C84414   6.696   7.301   0.318 -1.1347  0.1779 -0.3129
  626MOL0     C84415   6.593   7.203   0.335 -0.1793  0.5353 -0.2913
  626MOL0     C84416   6.449   7.262   0.344 -1.2009 -1.1309  0.2956
  626MOL0     C84417   6.423   7.377   0.447 -0.7621  0.1404  0.4887
  626MOL0     C84418   6.275   7.399   0.475  0.5761 -0.2662  1.1508
  626MOL0    Cl84419   6.195   7.494   0.347 -0.2195  0.0407 -0.3144
  626MOL0     C84420   7.350   7.529   0.326  0.1036 -0.2562  0.2934
  626MOL0     C84421   7.468   7.547   0.383 -0.7516  0.8738 -0.2313
  626MOL0     O84422   7.786   7.585   0.352  0.1266  0.2169  0.2818
  626MOL0     C84423   7.970   7.623   0.550 -1.3581 -1.0327  0.8133
  626MOL0     C84424   8.059   7.653   0.650  0.1523  0.4554 -0.2213
  626MOL0     N84425   8.776   7.800   1.175  0.1005  0.3403  1.3065
  626MOL0     N84426   8.850   7.903   1.140 -0.1226 -0.4296 -0.7585
  626MOL0     C84427   8.185   8.879   1.178 -0.5821  0.3823 -0.6610
  626MOL0     C84428   8.055   8.892   1.126  0.2884  0.2584  1.0983
  626MOL0     C84429   7.686   9.047   0.873  0.9385  0.6544  0.0111
  626MOL0     C84430   7.624   8.985   0.983  0.8105 -0.2940 -0.4416
  626MOL0     C84431   7.487   9.006   1.007  0.5762  0.2486 -0.4500
  626MOL0     C84432   7.406   9.084   0.916  0.6412 -1.0821  0.1167
  626MOL0     O84433   7.268   9.091   0.919  0.5951  1.1769  0.5547
  626MOL0     C84434   7.194   9.059   1.031  0.1804 -0.5991  0.7459
  626MOL0     C84435   7.056   9.117   1.013 -0.4939 -0.0502  0.6457
  626MOL0     C84436   6.965   9.020   0.922  0.4179 -0.0784 -0.3884
  626MOL0     C84437   6.857   9.097   0.837 -0.0400  0.5275  0.8613
  626MOL0     C84438   6.748   9.152   0.923 -0.9212  0.4040 -0.2629
  626MOL0     C84439   6.665   9.209   0.992 -0.5397 -0.1110  0.2800
  626MOL0     C84440   7.474   9.144   0.808  0.1276  0.4728  0.7145
  626MOL0     C84441   7.608   9.131   0.791  0.2707 -0.0757  0.0014
  626MOL0     C84442   7.661   9.196   0.671 -0.3703  0.3763 -0.1457
  626MOL0     H84443   8.112   8.940   0.791  3.0801 -0.0763 -0.4921
  626MOL0     H84444   8.325   8.908   0.855 -2.1208  0.9554 -1.9270
  626MOL0     H84445   8.429   8.688   1.081  0.0770 -0.0645 -2.1260
  626MOL0     H84446   8.523   8.788   0.971 -0.6106 -2.4692 -0.4046
  626MOL0     H84447   8.590   8.777   1.258 -1.5983 -0.8825 -0.5068
  626MOL0     H84448   8.679   8.837   1.117 -0.6992  1.0672  1.3286
  626MOL0     H84449   8.637   8.568   1.227  0.0143  0.5250  0.9127
  626MOL0     H84450   8.788   8.621   1.158 -0.1650 -0.9881  0.1160
  626MOL0     H84451   8.559   8.484   1.025 -0.1999  0.5708 -0.8912
  626MOL0     H84452   8.666   8.598   0.934  1.3555  2.1918  1.6454
  626MOL0     H84453   8.768   8.369   0.928 -1.7629  0.0813 -0.4647
  626MOL0     H84454   8.859   8.473   1.023  2.3079 -2.9870 -1.7011
  626MOL0     H84455   8.751   8.371   1.242 -0.1407 -4.0397  2.8568
  626MOL0     H84456   8.637   8.283   1.130  0.0563  1.0874 -1.2919
  626MOL0     H84457   8.847   8.158   1.234  2.1636  2.6963  1.2894
  626MOL0     H84458   8.941   8.267   1.141  0.6795 -2.3314 -2.3768
  626MOL0     H84459   8.779   8.161   0.937 -0.2385  0.9195  0.2529
  626MOL0     H84460   8.937   8.105   0.995  0.6682  1.9631  0.7024
  626MOL0     H84461   8.593   7.990   0.965  2.0426  1.7441  0.0108
  626MOL0     H84462   8.583   7.615   1.104 -4.4464 -1.5113 -0.1727
  626MOL0     H84463   8.470   7.736   1.160 -1.3835 -0.2456 -0.9485
  626MOL0     H84464   8.484   7.794   0.898  0.8205  0.2230 -0.0534
  626MOL0     H84465   8.543   7.625   0.893 -0.5977 -0.8548 -0.7471
  626MOL0     H84466   8.300   7.718   1.045  1.2702  3.0686 -2.1964
  626MOL0     H84467   8.344   7.553   1.028 -2.6458  0.5156  0.5716
  626MOL0     H84468   8.305   7.578   0.783  0.8075 -1.3867 -0.2638
  626MOL0     H84469   8.262   7.750   0.804 -4.6818 -0.2309  0.9252
  626MOL0     H84470   7.880   7.523   0.909 -4.0476 -1.0629 -1.9445
  626MOL0     H84471   7.743   7.452   0.725  0.8044 -1.5735 -1.0364
  626MOL0     H84472   7.551   7.231   0.424 -1.2926  0.0541  0.7662
  626MOL0     H84473   7.311   7.191   0.344  2.1715 -1.2632 -0.8846
  626MOL0     H84474   7.086   7.227   0.189  0.8227  0.4664 -0.3235
  626MOL0     H84475   7.080   7.239   0.368 -1.0917 -0.7868 -0.9070
  626MOL0     H84476   6.917   7.423   0.344  1.2473 -3.1661  3.0502
  626MOL0     H84477   6.913   7.380   0.171 -2.8429  3.0016  0.9178
  626MOL0     H84478   6.843   7.163   0.218 -1.3516  0.2057 -0.4285
  626MOL0     H84479   6.851   7.182   0.397 -3.6775 -0.3060  0.0694
  626MOL0     H84480   6.677   7.366   0.232  1.4298  3.5845  1.4649
  626MOL0     H84481   6.695   7.371   0.402 -0.5460  0.5322 -0.5918
  626MOL0     H84482   6.618   7.148   0.425  1.3657 -0.9724 -1.5754
  626MOL0     H84483   6.599   7.140   0.245 -1.3175  0.5944 -0.4204
  626MOL0     H84484   6.426   7.307   0.247 -0.9230 -0.5216  0.5058
  626MOL0     H84485   6.374   7.184   0.357  0.8541 -3.2358  0.1808
  626MOL0     H84486   6.464   7.471   0.406 -2.9534  1.2887  0.7735
  626MOL0     H84487   6.473   7.356   0.541  0.6879  0.3243 -0.2077
  626MOL0     H84488   6.226   7.301   0.478 -3.8010  1.5147 -1.8380
  626MOL0     H84489   6.256   7.455   0.567 -1.4050 -0.7276  1.0736
  626MOL0     H84490   7.296   7.612   0.279  2.3698 -1.5096 -5.3167
  626MOL0     H84491   7.506   7.647   0.406 -1.0417  1.0297 -0.4231
  626MOL0     H84492   8.004   7.652   0.451  1.7445 -2.1757  1.4415
  626MOL0     H84493   8.160   7.684   0.625  0.2124 -1.0413 -2.0166
  626MOL0     H84494   8.217   8.868   1.281 -2.5849  0.5172  0.0049
  626MOL0     H84495   7.966   8.881   1.187  0.7259 -1.1143  1.5270
  626MOL0     H84496   7.665   8.925   1.064 -0.8309 -2.6573 -1.2664
  626MOL0     H84497   7.442   8.947   1.086  3.5950 -1.1100  0.3975
  626MOL0     H84498   7.248   9.097   1.118  0.8554 -1.4646  0.7205
  626MOL0     H84499   7.190   8.950   1.040 -0.9041 -0.9716 -2.6760
  626MOL0     H84500   7.066   9.209   0.954  0.1709 -0.8727 -0.5664
  626MOL0     H84501   7.001   9.144   1.103  0.3587 -0.2772  1.2442
  626MOL0     H84502   6.915   8.957   0.996 -0.8620  3.0850  1.6373
  626MOL0     H84503   7.024   8.963   0.850  0.5493  1.2375 -1.3525
  626MOL0     H84504   6.907   9.179   0.785 -3.2133  1.2662 -1.3031
  626MOL0     H84505   6.804   9.042   0.759  0.7936  1.0442 -0.0902
  626MOL0     H84506   6.596   9.266   1.051  0.4829  0.1489  1.2560
  626MOL0     H84507   7.409   9.203   0.743  2.9679  2.4223 -0.5468
  626MOL0     H84508   7.579   9.238   0.611 -0.2743  3.1701  1.5066
  626MOL0     H84509   7.729   9.278   0.695 -0.3373  0.2091  0.3403
  626MOL0     H84510   7.708   9.121   0.606 -0.9382  0.6209 -0.8567
  627MOL0     O84511   6.436  10.270   1.055  0.5697 -0.3766 -0.0594
  627MOL0     C84512   6.489  10.225   1.150 -0.1432  0.7366 -0.8720
  627MOL0     O84513   6.592  10.278   1.221  0.4664  0.4403  0.0635
  627MOL0     C84514   6.689  10.338   1.142  0.4137 -0.4064  0.3507
  627MOL0     C84515   6.750  10.454   1.193 -0.6780 -0.6783  0.4546
  627MOL0     C84516   6.819  10.549   1.115 -0.8252 -0.7015 -0.6500
  627MOL0     C84517   6.860  10.513   0.994  0.0661 -0.1587  0.6006
  627MOL0     O84518   6.936  10.591   0.903  0.1872  0.1436  0.4719
  627MOL0     C84519   7.036  10.665   0.971 -0.5937  0.1479  0.3548
  627MOL0     C84520   7.005  10.809   0.985  0.0991  0.6435  0.3278
  627MOL0     C84521   6.987  10.887   0.851  0.2985  0.8908 -1.1628
  627MOL0     C84522   7.082  10.836   0.748 -0.5592 -0.5424 -0.3845
  627MOL0     C84523   7.103  10.936   0.633  0.2946 -0.8346 -0.0791
  627MOL0     C84524   7.229  10.917   0.537 -0.0558  0.1329  0.0203
  627MOL0     C84525   7.239  11.019   0.425  0.4816  0.0706 -0.2055
  627MOL0     C84526   7.342  10.966   0.321 -0.4354 -0.0928  1.1116
  627MOL0     N84527   7.472  10.974   0.377  0.9249  0.1296 -0.0660
  627MOL0     C84528   7.531  11.089   0.414  0.2481 -0.4099 -0.0279
  627MOL0     C84529   7.632  11.045   0.498 -0.4166 -0.2437 -0.4639
  627MOL0     C84530   7.731  11.128   0.583 -0.6444  0.9730 -0.4141
  627MOL0     C84531   7.815  11.035   0.674 -0.5790  0.3049  0.3576
  627MOL0     C84532   7.876  11.099   0.801  0.6033  0.1915  1.0974
  627MOL0     C84533   8.002  11.183   0.779  0.3172  0.4110  0.2532
  627MOL0     O84534   8.109  11.093   0.736 -0.2663  0.7646  0.0374
  627MOL0     C84535   8.239  11.130   0.774 -0.6298  0.1524 -0.4657
  627MOL0     C84536   8.288  11.211   0.878 -0.8474 -0.3681  0.8478
  627MOL0     C84537   8.424  11.227   0.902  0.4392  0.9103 -0.2252
  627MOL0     C84538   8.524  11.168   0.826 -0.6640 -0.5943 -0.1342
  627MOL0     C84539   8.658  11.212   0.841  0.1299  0.7399  0.6639
  627MOL0     O84540   8.691  11.324   0.917 -0.0147  0.2099 -0.4278
  627MOL0     C84541   8.823  11.364   0.917 -0.0653  0.1469  0.0634
  627MOL0     C84542   8.885  11.398   1.034  0.2473  0.6872  0.0253
  627MOL0     C84543   9.020  11.445   1.047  0.3659  0.1764 -0.0717
  627MOL0     C84544   9.093  11.467   0.926 -0.3263 -0.1844  0.5684
  627MOL0     O84545   9.229  11.489   0.915  0.3519 -0.1853 -0.3820
  627MOL0     C84546   9.298  11.523   1.033 -0.1917 -0.3015 -0.5556
  627MOL0     C84547   9.442  11.555   0.988 -0.5724  0.5235  0.0281
  627MOL0     C84548   9.531  11.622   1.092  0.2052  0.3582 -0.3604
  627MOL0     C84549   9.663  11.650   1.027 -0.7409  0.0684 -0.7953
  627MOL0     C84550   9.773  11.729   1.111  0.5661 -0.7396 -0.0437
  627MOL0     C84551   9.894  11.774   1.034 -0.5375  0.3854 -0.9437
  627MOL0     C84552   9.983  11.884   1.100  0.0630  0.3299 -0.5885
  627MOL0     C84553  10.115  11.825   1.125  0.0457  0.1259  0.4646
  627MOL0    Cl84554  10.234  11.947   1.181 -0.2603 -0.0095 -0.2400
  627MOL0     C84555   9.043  11.429   0.802  0.1962 -0.7765  0.4700
  627MOL0     C84556   8.906  11.384   0.802 -0.2627  0.8800 -0.2731
  627MOL0     O84557   8.747  11.129   0.799  0.2760 -0.2442  0.2171
  627MOL0     C84558   8.474  11.073   0.730 -0.1021  0.4376 -0.1291
  627MOL0     C84559   8.342  11.055   0.709  0.5407  0.9350  0.0931
  627MOL0     N84560   7.627  10.906   0.503  0.6148  0.0125  0.0365
  627MOL0     N84561   7.531  10.873   0.431 -0.0013  0.2239  0.7219
  627MOL0     C84562   6.817  10.390   0.946 -0.4234 -0.2197  0.0174
  627MOL0     C84563   6.730  10.306   1.014 -0.2041  0.2119 -0.3033
  627MOL0     C84564   6.441  10.090   1.201  0.2225  0.7464 -0.8249
  627MOL0     C84565   6.520  10.029   1.304  0.2557 -0.4576 -0.5588
  627MOL0     C84566   6.498   9.899   1.352 -0.1607 -0.6372  0.5383
  627MOL0     C84567   6.395   9.820   1.292  0.0833  0.1626 -0.2270
  627MOL0     O84568   6.380   9.692   1.345  0.0870  0.1703  0.0402
  627MOL0     C84569   6.382   9.582   1.254 -0.2591  0.2393  0.1648
  627MOL0     C84570   6.524   9.525   1.226  0.5388 -0.2040  0.0547
  627MOL0     C84571   6.593   9.467   1.347 -0.0688 -0.0721 -0.0206
  627MOL0     C84572   6.663   9.573   1.427 -0.0320  0.3775  0.1731
  627MOL0     C84573   6.704   9.534   1.562  0.3614 -0.6309 -0.5636
  627MOL0     C84574   6.722   9.522   1.685 -0.1424  0.6234  0.7302
  627MOL0     C84575   6.311   9.875   1.191 -0.3165 -0.6715 -0.2746
  627MOL0     C84576   6.339  10.006   1.141 -0.2430  0.4420 -0.7709
  627MOL0     C84577   6.273  10.037   1.007  0.4174  0.0879 -0.5214
  627MOL0     H84578   6.716  10.475   1.294  0.7059 -0.4570  0.8973
  627MOL0     H84579   6.844  10.649   1.149  2.0553 -1.0024 -1.6279
  627MOL0     H84580   7.057  10.636   1.075 -0.0403  1.8198  0.7331
  627MOL0     H84581   7.132  10.642   0.924 -0.1947  0.0303  1.2000
  627MOL0     H84582   7.082  10.862   1.042 -0.8964  1.5882  0.8339
  627MOL0     H84583   6.910  10.814   1.040 -0.3733  0.3662 -0.4542
  627MOL0     H84584   7.003  10.992   0.879 -2.0387  0.3820  2.9536
  627MOL0     H84585   6.880  10.876   0.831 -0.2432  0.6926  1.4394
  627MOL0     H84586   7.180  10.813   0.791 -0.8189  1.8076  1.6708
  627MOL0     H84587   7.043  10.744   0.705 -2.1659  0.5456 -1.3828
  627MOL0     H84588   7.008  10.929   0.579 -2.0248  2.0852  3.1586
  627MOL0     H84589   7.109  11.034   0.681 -1.2895 -0.7441  0.0004
  627MOL0     H84590   7.319  10.926   0.598  1.0028  0.2007 -1.5164
  627MOL0     H84591   7.227  10.811   0.508  0.7557 -0.1958  1.1019
  627MOL0     H84592   7.266  11.118   0.465 -0.5779 -0.2672  1.4989
  627MOL0     H84593   7.143  11.039   0.376  0.9079  0.7972 -0.7543
  627MOL0     H84594   7.324  10.866   0.280 -0.4587  1.4805 -3.2703
  627MOL0     H84595   7.336  11.035   0.236 -3.4917  0.7618  1.9170
  627MOL0     H84596   7.527  11.195   0.393  2.6374 -0.2387  0.1644
  627MOL0     H84597   7.803  11.184   0.523  1.6199 -0.3365  0.9181
  627MOL0     H84598   7.674  11.191   0.652 -0.9472 -0.0726  0.3157
  627MOL0     H84599   7.760  10.951   0.716  2.2347 -0.2188  3.3253
  627MOL0     H84600   7.890  10.981   0.616 -2.1889 -0.0975 -1.4326
  627MOL0     H84601   7.909  11.016   0.864 -2.6095 -0.7442  1.7114
  627MOL0     H84602   7.796  11.158   0.846 -0.2100 -0.1051  0.0933
  627MOL0     H84603   8.024  11.228   0.877  0.4716  1.6082 -0.3129
  627MOL0     H84604   7.991  11.255   0.698  0.5792  1.1083  0.8282
  627MOL0     H84605   8.210  11.258   0.938 -1.1236 -0.4358  0.5456
  627MOL0     H84606   8.460  11.279   0.990  0.7333 -0.8809  0.7672
  627MOL0     H84607   8.810  11.399   1.113 -1.9315 -0.7870 -1.9014
  627MOL0     H84608   9.059  11.441   1.148 -0.6197 -4.8025  0.3506
  627MOL0     H84609   9.259  11.619   1.068 -0.4601 -0.4220 -0.5133
  627MOL0     H84610   9.295  11.451   1.115 -0.9745 -0.7599 -0.9658
  627MOL0     H84611   9.491  11.461   0.958 -2.1327 -1.4596  3.1877
  627MOL0     H84612   9.429  11.619   0.900 -1.9119  2.4122  1.5189
  627MOL0     H84613   9.482  11.716   1.118 -2.2766 -0.5218 -1.5865
  627MOL0     H84614   9.541  11.548   1.172 -0.5466  0.9716  0.3218
  627MOL0     H84615   9.659  11.702   0.931  0.1538 -2.6825 -2.4361
  627MOL0     H84616   9.707  11.554   0.999  0.6876  0.3504  0.3394
  627MOL0     H84617   9.806  11.675   1.200  1.6010  1.2896  0.8725
  627MOL0     H84618   9.724  11.820   1.146  2.7132  1.0175 -1.3569
  627MOL0     H84619   9.954  11.683   1.027  1.3924  1.1277  3.0612
  627MOL0     H84620   9.867  11.804   0.933  0.1302  0.8802 -0.9771
  627MOL0     H84621   9.940  11.903   1.199 -0.2873  3.3539 -1.2288
  627MOL0     H84622   9.987  11.979   1.048 -1.5017 -0.8214 -2.9688
  627MOL0     H84623  10.111  11.745   1.199 -0.8331 -1.2329 -0.9777
  627MOL0     H84624  10.148  11.792   1.026  0.3271  0.7979  0.3234
  627MOL0     H84625   9.107  11.440   0.716  0.5235 -1.1543  0.6648
  627MOL0     H84626   8.865  11.342   0.711 -1.2622 -3.7442  1.9971
  627MOL0     H84627   8.553  11.020   0.677 -0.6689  0.0365 -0.5759
  627MOL0     H84628   8.304  10.986   0.635  0.7037 -0.1528  0.9988
  627MOL0     H84629   6.855  10.363   0.848  1.0250 -0.4298  0.6014
  627MOL0     H84630   6.697  10.213   0.968 -1.9455  0.6856 -0.0822
  627MOL0     H84631   6.597  10.090   1.350 -1.1308  2.7073 -2.0908
  627MOL0     H84632   6.574   9.873   1.425  2.8497  0.2955 -2.0391
  627MOL0     H84633   6.340   9.604   1.155 -2.3030  1.3179  1.2217
  627MOL0     H84634   6.318   9.506   1.300  0.1308  0.7337  1.5640
  627MOL0     H84635   6.593   9.601   1.190  1.6129 -1.2500 -0.1405
  627MOL0     H84636   6.519   9.448   1.148  1.3485  3.0718 -3.4959
  627MOL0     H84637   6.655   9.380   1.324 -0.4250 -0.2370 -0.3785
  627MOL0     H84638   6.513   9.416   1.402  1.2742 -1.7156  0.5092
  627MOL0     H84639   6.747   9.604   1.363 -0.7567  1.6613 -0.2062
  627MOL0     H84640   6.604   9.665   1.434  0.0568  0.6479 -1.7919
  627MOL0     H84641   6.731   9.526   1.791 -0.0352 -1.3559  0.8319
  627MOL0     H84642   6.239   9.809   1.144 -0.3810 -1.1800  0.5177
  627MOL0     H84643   6.219  10.132   1.012  2.5626  1.4539 -1.7676
  627MOL0     H84644   6.333  10.048   0.917 -1.2983 -0.9794 -1.8726
  627MOL0     H84645   6.192   9.967   0.983 -1.8233  1.9568  1.1766
  628MOL0     O84646  10.478   0.243   1.816 -0.2893 -0.0791  0.0356
  628MOL0     C84647  10.436   0.149   1.751 -0.3165 -0.0263  0.1331
  628MOL0     O84648  10.511   0.068   1.670 -0.0204 -0.8382  0.4117
  628MOL0     C84649  10.642   0.104   1.642  0.5734  0.2872  0.6505
  628MOL0     C84650  10.678   0.113   1.506 -0.6740 -0.3898 -0.3670
  628MOL0     C84651  10.806   0.159   1.482  0.4196 -0.1718  0.5379
  628MOL0     C84652  10.900   0.175   1.578  0.8539 -0.6447  0.9544
  628MOL0     O84653  11.025   0.224   1.545 -0.1796  0.3851 -0.3851
  628MOL0     C84654  11.134   0.249   1.636 -0.6507  0.6239  0.0423
  628MOL0     C84655  11.113   0.375   1.721 -0.2297 -0.5014 -0.0803
  628MOL0     C84656  11.119   0.499   1.627  0.0295 -0.0809  1.5809
  628MOL0     C84657  11.073   0.629   1.700 -0.2109  1.0301  0.4647
  628MOL0     C84658  11.070   0.738   1.596  0.4350 -0.1789 -0.6276
  628MOL0     C84659  11.003   0.866   1.649 -0.0824  0.0820 -0.3044
  628MOL0     C84660  11.083   0.931   1.758 -0.1564  0.2293 -0.3651
  628MOL0     C84661  11.029   1.063   1.794 -0.5533  0.2941  0.0528
  628MOL0     N84662  11.101   1.148   1.895  0.7223 -0.9880  0.5787
  628MOL0     C84663  11.084   1.146   2.035 -0.0045 -0.1890 -0.1800
  628MOL0     C84664  11.142   1.259   2.082  0.5814 -0.0325  0.9069
  628MOL0     C84665  11.146   1.293   2.229  0.2197  0.3854  0.9994
  628MOL0     C84666  11.191   1.431   2.252 -0.1513 -0.2546 -0.3390
  628MOL0     C84667  11.196   1.454   2.405  0.1792 -0.9278  0.2551
  628MOL0     C84668  11.241   1.591   2.449 -0.7935 -0.0635 -0.1821
  628MOL0     O84669  11.206   1.607   2.577  0.0893  0.5234 -0.3327
  628MOL0     C84670  11.198   1.732   2.634  0.4385  0.0025 -0.9787
  628MOL0     C84671  11.121   1.836   2.577 -0.4512  0.1300  0.1415
  628MOL0     C84672  11.128   1.960   2.640  0.2868  0.1475 -0.3441
  628MOL0     C84673  11.206   1.975   2.754  0.5189 -0.2817 -0.3900
  628MOL0     C84674  11.205   2.111   2.823  1.0599  0.0056 -0.2309
  628MOL0     O84675  11.311   2.149   2.891 -0.1067  0.2348  0.1903
  628MOL0     C84676  11.296   2.256   2.976 -0.2895  0.1566  0.3765
  628MOL0     C84677  11.220   2.261   3.089 -1.3458 -0.2769 -0.0944
  628MOL0     C84678  11.219   2.364   3.177 -0.5460 -0.6330 -0.6984
  628MOL0     C84679  11.297   2.474   3.158 -0.1400  0.0202  0.0439
  628MOL0     O84680  11.313   2.583   3.237  0.1728 -0.3568 -0.0629
  628MOL0     C84681  11.262   2.573   3.378  0.8862  0.1913  0.2788
  628MOL0     C84682  11.291   2.701   3.448 -0.0083 -0.3113  0.1218
  628MOL0     C84683  11.243   2.831   3.381 -0.5660 -0.4878  0.5367
  628MOL0     C84684  11.092   2.856   3.395 -0.0294 -0.1041  0.1405
  628MOL0     C84685  11.055   2.988   3.455 -0.6026  0.1628 -1.1183
  628MOL0     C84686  11.086   3.099   3.362 -0.9882  0.0618  0.5018
  628MOL0     C84687  11.016   3.225   3.420 -0.3573 -0.0132  0.2986
  628MOL0     C84688  11.023   3.348   3.324  0.1555 -0.1636 -0.2184
  628MOL0    Cl84689  10.906   3.314   3.188 -0.5810 -0.1621  0.0063
  628MOL0     C84690  11.370   2.477   3.034  0.7611  0.6756  0.6925
  628MOL0     C84691  11.367   2.368   2.946  0.3162 -0.7366  0.1217
  628MOL0     O84692  11.110   2.186   2.799 -0.3794  0.2138 -0.2468
  628MOL0     C84693  11.286   1.878   2.809 -0.1653 -0.5529 -0.0228
  628MOL0     C84694  11.284   1.752   2.744  0.3411  0.2344 -0.1521
  628MOL0     N84695  11.199   1.331   1.973  0.6062 -0.2017  0.0582
  628MOL0     N84696  11.167   1.268   1.861 -0.2981  0.0565 -0.5136
  628MOL0     C84697  10.861   0.154   1.713 -0.1903  0.6392  0.0470
  628MOL0     C84698  10.732   0.118   1.742 -0.5164 -0.4101 -0.2713
  628MOL0     C84699  10.291   0.121   1.752  0.9702  0.6025  0.2043
  628MOL0     C84700  10.236   0.023   1.668 -0.6191 -0.4214  0.0333
  628MOL0     C84701  10.106  -0.024   1.674 -1.2488  0.0953  0.7562
  628MOL0     C84702  10.031   0.034   1.768 -0.4658  0.9727 -1.1641
  628MOL0     O84703   9.906  -0.030   1.772  0.7402 -1.1265  0.4827
  628MOL0     C84704   9.819  -0.004   1.885 -0.8892 -0.0065 -0.0126
  628MOL0     C84705   9.784  -0.140   1.944  1.3438 -0.3211 -0.6115
  628MOL0     C84706   9.703  -0.219   1.841 -0.3187  0.0119 -0.3451
  628MOL0     C84707   9.649  -0.345   1.908  0.1482 -0.2175 -0.0629
  628MOL0     C84708   9.581  -0.420   1.802 -0.5848  0.0930  0.7633
  628MOL0     C84709   9.524  -0.462   1.700 -0.7985  1.3535  0.3055
  628MOL0     C84710  10.077   0.135   1.858  0.3504 -0.6118 -0.9015
  628MOL0     C84711  10.202   0.188   1.848  0.5869  0.1209  0.5217
  628MOL0     C84712  10.242   0.305   1.938  0.0011  0.3915 -1.0446
  628MOL0     H84713  10.611   0.082   1.427  1.2843  0.4227 -2.4524
  628MOL0     H84714  10.832   0.166   1.377 -1.8980 -1.8379 -0.2318
  628MOL0     H84715  11.151   0.164   1.703 -1.1675 -1.4466 -2.2671
  628MOL0     H84716  11.223   0.265   1.575 -0.4728  3.7183  0.9776
  628MOL0     H84717  11.192   0.398   1.792 -1.2117 -0.0112  0.8794
  628MOL0     H84718  11.016   0.374   1.772  0.2978 -0.4524  0.9319
  628MOL0     H84719  11.067   0.479   1.533  0.9668 -0.7001  1.1776
  628MOL0     H84720  11.226   0.515   1.609 -0.0521 -1.2019 -0.0817
  628MOL0     H84721  10.975   0.605   1.741 -1.0015 -1.1180 -2.3274
  628MOL0     H84722  11.142   0.648   1.783  1.4737 -0.4273 -0.5333
  628MOL0     H84723  11.173   0.761   1.568  0.1589 -0.2739 -1.8114
  628MOL0     H84724  11.022   0.702   1.505  0.2790  1.1146 -1.0867
  628MOL0     H84725  10.995   0.938   1.568 -0.7770  1.3333  0.8331
  628MOL0     H84726  10.904   0.841   1.688  0.4792  0.3487  1.3636
  628MOL0     H84727  11.184   0.948   1.717 -0.4775  2.6404 -0.2967
  628MOL0     H84728  11.079   0.868   1.848 -0.8306 -0.0499 -0.5907
  628MOL0     H84729  11.043   1.115   1.698 -1.2888  1.2364  0.4485
  628MOL0     H84730  10.925   1.060   1.826 -0.4647  2.3917  0.6332
  628MOL0     H84731  11.036   1.066   2.091  0.6170 -0.2780  0.2408
  628MOL0     H84732  11.046   1.277   2.270  0.7067  0.8622  2.4419
  628MOL0     H84733  11.212   1.223   2.281 -0.8298 -1.5483 -0.1521
  628MOL0     H84734  11.289   1.448   2.206 -0.5300  2.5472 -0.2768
  628MOL0     H84735  11.122   1.500   2.204  1.8694 -0.3202 -3.6536
  628MOL0     H84736  11.259   1.373   2.444 -0.1349 -1.3481 -0.0860
  628MOL0     H84737  11.094   1.442   2.444  0.1324  4.0681  2.3353
  628MOL0     H84738  11.191   1.657   2.378 -0.1998  0.5908 -0.0022
  628MOL0     H84739  11.348   1.600   2.433 -0.8508 -1.8932 -2.1340
  628MOL0     H84740  11.069   1.815   2.484  0.4537  0.4724 -0.4490
  628MOL0     H84741  11.082   2.046   2.593  3.2578  2.9123  1.3894
  628MOL0     H84742  11.182   2.164   3.121  2.6888 -2.1363 -0.2875
  628MOL0     H84743  11.146   2.362   3.257  0.2139 -2.7384  0.0068
  628MOL0     H84744  11.152   2.579   3.378  0.9601  2.1267  0.0520
  628MOL0     H84745  11.301   2.496   3.444 -1.3685  0.2403  1.7867
  628MOL0     H84746  11.263   2.687   3.553 -0.3902 -1.8350 -0.1534
  628MOL0     H84747  11.401   2.704   3.451 -0.0446  0.8773  1.4587
  628MOL0     H84748  11.280   2.915   3.440 -2.0501  0.4516  0.1897
  628MOL0     H84749  11.271   2.840   3.275  0.5061 -0.1013  0.8401
  628MOL0     H84750  11.047   2.771   3.447 -0.5291 -0.3256 -0.6282
  628MOL0     H84751  11.044   2.866   3.297 -1.1392  0.3870  0.7126
  628MOL0     H84752  11.108   2.999   3.550 -2.1978 -0.9860 -0.0383
  628MOL0     H84753  10.952   2.983   3.492  0.2828 -0.2286  1.5557
  628MOL0     H84754  11.193   3.117   3.347 -1.4483  0.7052 -2.9858
  628MOL0     H84755  11.056   3.079   3.259 -1.8403  1.2903  0.4901
  628MOL0     H84756  11.063   3.258   3.513  0.3273  1.4890 -0.5321
  628MOL0     H84757  10.913   3.206   3.451  0.2748  2.1815  4.4379
  628MOL0     H84758  11.008   3.441   3.379  3.1927  0.2406  0.1356
  628MOL0     H84759  11.121   3.357   3.276 -0.8352 -0.9561 -2.5398
  628MOL0     H84760  11.438   2.558   3.010  2.8663 -1.1894 -0.0051
  628MOL0     H84761  11.427   2.373   2.855  0.5200  0.1469  0.2902
  628MOL0     H84762  11.348   1.892   2.897 -0.1942 -0.7474  0.0303
  628MOL0     H84763  11.342   1.670   2.785  0.2255  0.1625 -0.1345
  628MOL0     H84764  10.918   0.171   1.804 -1.0717  2.1504  0.3506
  628MOL0     H84765  10.704   0.112   1.847 -0.0221 -0.5701 -0.1476
  628MOL0     H84766  10.292  -0.044   1.603  1.1447 -0.6896  1.7535
  628MOL0     H84767  10.074  -0.105   1.610  0.3120  1.3322 -1.7492
  628MOL0     H84768   9.734   0.050   1.844 -2.4438 -1.1072  1.6274
  628MOL0     H84769   9.858   0.052   1.971  1.7673  0.8218 -1.6414
  628MOL0     H84770   9.717  -0.126   2.029 -0.3657 -0.8814 -1.8173
  628MOL0     H84771   9.875  -0.198   1.962  0.1094 -2.0969  0.2043
  628MOL0     H84772   9.783  -0.258   1.777  0.7506  0.3688  0.7301
  628MOL0     H84773   9.624  -0.156   1.800  0.4296 -0.6574 -3.0288
  628MOL0     H84774   9.727  -0.403   1.958 -0.5629 -0.2611  1.0244
  628MOL0     H84775   9.572  -0.322   1.982  0.0870 -1.5994  0.3282
  628MOL0     H84776   9.468  -0.507   1.621 -1.8467  0.5619  1.4745
  628MOL0     H84777  10.012   0.182   1.932 -1.1566 -0.7009 -2.1067
  628MOL0     H84778  10.303   0.265   2.019 -4.6168 -0.8782  2.2332
  628MOL0     H84779  10.288   0.387   1.882 -0.3468 -0.6369 -2.9153
  628MOL0     H84780  10.154   0.355   1.980 -1.7241 -2.4304 -1.0432
  629MOL0     O84781   9.487   2.169   7.704  0.4988  0.1551  0.3026
  629MOL0     C84782   9.569   2.072   7.689 -0.2294  0.3091  0.6722
  629MOL0     O84783   9.539   1.944   7.670 -0.3951  0.2620  0.8210
  629MOL0     C84784   9.416   1.893   7.622  0.8555 -0.1704  0.0158
  629MOL0     C84785   9.302   1.959   7.577  0.0964  0.8823 -0.4328
  629MOL0     C84786   9.192   1.890   7.534 -0.3227 -0.0799 -0.5518
  629MOL0     C84787   9.175   1.748   7.555 -1.0934 -0.0370 -0.1425
  629MOL0     O84788   9.056   1.673   7.536  0.4315 -0.2193  0.7617
  629MOL0     C84789   9.013   1.697   7.409  0.5926  0.0217  0.0208
  629MOL0     C84790   8.903   1.589   7.385  0.2627 -0.2991 -0.3789
  629MOL0     C84791   8.839   1.616   7.247  0.3312 -0.1320  1.1402
  629MOL0     C84792   8.733   1.513   7.191 -0.1218 -1.0826  0.1015
  629MOL0     C84793   8.691   1.534   7.042 -0.4713  0.1823  0.0341
  629MOL0     C84794   8.796   1.574   6.938 -0.4167 -0.3513 -0.2350
  629MOL0     C84795   8.900   1.459   6.926  0.2077  0.1590 -0.1286
  629MOL0     C84796   9.038   1.499   6.847  0.0096  0.4406  0.2802
  629MOL0     N84797   9.027   1.544   6.707  0.3850  0.2096  0.2814
  629MOL0     C84798   8.964   1.668   6.675 -0.3418  0.6979 -0.3987
  629MOL0     C84799   9.009   1.699   6.552  1.2041 -0.5029 -0.2552
  629MOL0     C84800   8.965   1.832   6.481 -0.5793 -0.4448 -0.3359
  629MOL0     C84801   9.070   1.911   6.386  0.1937  0.4838 -0.6966
  629MOL0     C84802   9.109   2.041   6.451 -0.2344  0.9043 -0.2346
  629MOL0     C84803   9.191   2.006   6.584 -0.0864 -0.1622  0.7298
  629MOL0     O84804   9.232   2.136   6.647  0.4390 -0.2464  0.9943
  629MOL0     C84805   9.360   2.169   6.667 -0.1225  0.0860 -0.3922
  629MOL0     C84806   9.462   2.070   6.688  0.9766  0.2816 -0.3918
  629MOL0     C84807   9.598   2.109   6.727  0.8240  0.9209 -0.2367
  629MOL0     C84808   9.631   2.246   6.741  0.5212  0.5509 -0.4136
  629MOL0     C84809   9.762   2.293   6.778 -0.2846  0.7925 -0.1698
  629MOL0     O84810   9.848   2.194   6.831 -0.8939 -1.0865  0.3552
  629MOL0     C84811   9.985   2.210   6.851 -0.1801 -0.3144  0.3282
  629MOL0     C84812  10.047   2.114   6.926 -0.0709  0.1762  0.4849
  629MOL0     C84813  10.186   2.102   6.929  0.7832  0.4385  0.2161
  629MOL0     C84814  10.269   2.201   6.880  0.4543  0.1549  0.0407
  629MOL0     O84815  10.406   2.186   6.898 -0.7510  0.0762  0.2588
  629MOL0     C84816  10.487   2.234   6.788  0.6011 -0.5396  0.3741
  629MOL0     C84817  10.633   2.211   6.816 -0.4896  0.3461 -0.1330
  629MOL0     C84818  10.725   2.233   6.698  0.1266  0.0074 -0.5147
  629MOL0     C84819  10.873   2.220   6.737  0.0079  0.0978  0.5522
  629MOL0     C84820  10.933   2.330   6.826 -1.0435  1.4927  0.3132
  629MOL0     C84821  10.897   2.471   6.791  0.5662 -0.1102 -0.4877
  629MOL0     C84822  10.955   2.518   6.655  0.3137 -0.9421  0.3952
  629MOL0     C84823  10.940   2.666   6.624 -0.2840  0.7281 -0.5439
  629MOL0    Cl84824  11.013   2.670   6.471  0.0127 -0.1045  0.2517
  629MOL0     C84825  10.208   2.308   6.811 -0.2320 -0.6988  0.9109
  629MOL0     C84826  10.068   2.315   6.798 -0.1163 -0.2582 -0.7991
  629MOL0     O84827   9.784   2.409   6.765  0.6141 -0.1318 -0.6196
  629MOL0     C84828   9.522   2.338   6.729 -0.2906  0.2814  0.5690
  629MOL0     C84829   9.398   2.302   6.693 -0.5201 -0.0889  0.1659
  629MOL0     N84830   9.103   1.603   6.522 -0.2313 -0.7785 -0.6485
  629MOL0     N84831   9.105   1.505   6.601 -0.3383  0.3108  0.1108
  629MOL0     C84832   9.296   1.687   7.585  0.1638  0.3897  0.4022
  629MOL0     C84833   9.413   1.752   7.627  0.2996 -0.2650 -0.3805
  629MOL0     C84834   9.711   2.091   7.694 -0.8356  0.5069  0.1282
  629MOL0     C84835   9.804   1.981   7.735 -0.1681 -0.9060 -0.3217
  629MOL0     C84836   9.940   2.010   7.746 -0.5077  0.0987  0.6764
  629MOL0     C84837   9.998   2.135   7.722  1.1171 -0.5219 -0.1656
  629MOL0     O84838  10.133   2.167   7.712 -0.3974 -0.4366 -0.2864
  629MOL0     C84839  10.223   2.105   7.814  0.6053  0.3067 -0.2567
  629MOL0     C84840  10.361   2.165   7.828 -0.5181 -0.0557  0.0057
  629MOL0     C84841  10.357   2.310   7.889 -0.6439  1.0600 -0.0341
  629MOL0     C84842  10.482   2.391   7.848  0.5116 -0.0274 -0.5464
  629MOL0     C84843  10.618   2.354   7.887  0.0532 -0.0618 -0.9305
  629MOL0     C84844  10.733   2.314   7.929 -0.2144  1.0793 -0.3218
  629MOL0     C84845   9.915   2.234   7.674  0.8391 -0.0858  0.1048
  629MOL0     C84846   9.770   2.215   7.659 -1.1073 -0.7299 -0.3866
  629MOL0     C84847   9.693   2.343   7.610  0.1629  1.2536  0.3283
  629MOL0     H84848   9.309   2.065   7.553  2.1418  0.8394 -0.2213
  629MOL0     H84849   9.106   1.938   7.489 -0.0769  0.9409  0.0176
  629MOL0     H84850   8.980   1.801   7.398  1.3790  0.4279  1.3323
  629MOL0     H84851   9.092   1.691   7.334  3.0822  0.7542  2.4545
  629MOL0     H84852   8.821   1.621   7.449 -1.6625  0.5075 -3.0358
  629MOL0     H84853   8.935   1.485   7.398 -2.0892 -1.2597 -1.6336
  629MOL0     H84854   8.916   1.606   7.169 -1.1618  0.3885 -0.4522
  629MOL0     H84855   8.795   1.716   7.246 -1.3833 -0.8100  2.9339
  629MOL0     H84856   8.777   1.414   7.207 -0.2340 -1.1522 -0.0128
  629MOL0     H84857   8.646   1.517   7.258 -2.3378  0.1713 -2.6259
  629MOL0     H84858   8.633   1.448   7.006 -2.8507  1.5893  0.2885
  629MOL0     H84859   8.631   1.626   7.044  0.5863  0.9159  3.2120
  629MOL0     H84860   8.750   1.593   6.840 -0.7695 -1.0977 -0.2201
  629MOL0     H84861   8.845   1.668   6.967  1.3224 -1.7837  1.7445
  629MOL0     H84862   8.846   1.385   6.867  0.0896  0.8609 -0.9143
  629MOL0     H84863   8.926   1.420   7.025  0.8204  2.1039  0.5215
  629MOL0     H84864   9.082   1.580   6.905  0.6565  0.6162 -0.4437
  629MOL0     H84865   9.101   1.411   6.858 -0.5525  0.1579  1.3839
  629MOL0     H84866   8.886   1.727   6.723  0.0107  2.1447 -1.5273
  629MOL0     H84867   8.884   1.803   6.412 -0.4415  0.0728 -0.7253
  629MOL0     H84868   8.913   1.890   6.557 -1.4624 -1.6024 -0.0164
  629MOL0     H84869   9.154   1.843   6.372  0.1903 -0.2150  1.9932
  629MOL0     H84870   9.029   1.932   6.287 -1.4455  0.1812 -0.1084
  629MOL0     H84871   9.014   2.086   6.482 -1.2209 -1.9444  1.2223
  629MOL0     H84872   9.173   2.106   6.390  1.3004  0.5479  0.9043
  629MOL0     H84873   9.276   1.945   6.550 -3.0968 -2.3163 -3.9385
  629MOL0     H84874   9.136   1.945   6.655 -2.6610 -1.6539 -2.2977
  629MOL0     H84875   9.435   1.965   6.683  1.0774  0.2777 -0.8189
  629MOL0     H84876   9.670   2.027   6.726  0.4606  0.4996  2.2963
  629MOL0     H84877   9.982   2.044   6.976  0.3111  0.0059  0.7533
  629MOL0     H84878  10.216   2.010   6.980 -3.0303 -0.2847  1.5349
  629MOL0     H84879  10.471   2.188   6.690  3.6022  0.5960 -0.7717
  629MOL0     H84880  10.490   2.343   6.777  1.1075 -0.5134  0.7402
  629MOL0     H84881  10.660   2.277   6.898  1.2028  0.7868 -1.0123
  629MOL0     H84882  10.642   2.108   6.854 -0.4761  0.5969  0.5565
  629MOL0     H84883  10.712   2.146   6.632  2.0253 -1.0040  0.3723
  629MOL0     H84884  10.703   2.326   6.645 -0.7651 -1.0374 -2.0569
  629MOL0     H84885  10.933   2.226   6.646  1.1778  0.3606  1.3188
  629MOL0     H84886  10.885   2.120   6.780 -2.7384 -0.5444  0.0111
  629MOL0     H84887  11.042   2.327   6.813 -1.0812  5.7184 -3.4182
  629MOL0     H84888  10.905   2.306   6.929 -2.7262 -0.8258 -0.6069
  629MOL0     H84889  10.789   2.483   6.784  0.4414 -1.9619 -3.9386
  629MOL0     H84890  10.925   2.546   6.866 -0.9286  0.0869 -0.0902
  629MOL0     H84891  10.890   2.471   6.581 -0.4744  1.1817 -0.3215
  629MOL0     H84892  11.058   2.484   6.635  0.4210 -0.4408  0.0825
  629MOL0     H84893  10.841   2.713   6.611 -0.7542 -0.0268  0.1875
  629MOL0     H84894  10.999   2.723   6.695 -0.1169 -2.4006  2.0720
  629MOL0     H84895  10.260   2.402   6.797 -0.7015 -0.2442  2.0815
  629MOL0     H84896  10.026   2.404   6.754  1.8195  2.2316  1.9913
  629MOL0     H84897   9.519   2.443   6.753 -0.2859 -0.0044  1.8744
  629MOL0     H84898   9.316   2.373   6.696 -1.8971 -1.5271 -1.3876
  629MOL0     H84899   9.317   1.581   7.587 -0.6422  0.2065 -0.2815
  629MOL0     H84900   9.490   1.685   7.664 -0.1669 -1.2790 -1.1595
  629MOL0     H84901   9.772   1.883   7.768  0.0398 -0.6755  0.6065
  629MOL0     H84902  10.001   1.923   7.768 -0.3734 -0.8100 -2.7058
  629MOL0     H84903  10.243   2.002   7.785  1.9046  1.0623 -2.2735
  629MOL0     H84904  10.171   2.120   7.910 -0.5293 -1.1811 -0.6050
  629MOL0     H84905  10.397   2.160   7.725 -2.9599 -3.7917 -0.8706
  629MOL0     H84906  10.427   2.111   7.896  2.7200  2.3322 -1.0074
  629MOL0     H84907  10.346   2.304   7.998 -2.3273  1.0567 -0.1771
  629MOL0     H84908  10.267   2.361   7.854 -1.1946 -0.2958 -0.6589
  629MOL0     H84909  10.486   2.390   7.739  1.9493  2.2901 -0.5920
  629MOL0     H84910  10.468   2.496   7.878 -0.3126 -0.2747 -0.0376
  629MOL0     H84911  10.830   2.294   7.971 -1.4535  1.2123  2.9332
  629MOL0     H84912   9.960   2.327   7.641 -0.0135 -0.7715 -3.4788
  629MOL0     H84913   9.647   2.313   7.516  2.6099 -0.0736 -0.5126
  629MOL0     H84914   9.627   2.383   7.688  0.5321  0.7378  0.9216
  629MOL0     H84915   9.760   2.426   7.585 -0.5358  2.1130  1.1942
  630MOL0     O84916  10.459   4.324   5.036  0.5737  0.2337  0.1931
  630MOL0     C84917  10.409   4.240   5.108 -0.2179 -0.2768 -0.3755
  630MOL0     O84918  10.474   4.192   5.211  0.4712  0.4604 -0.8033
  630MOL0     C84919  10.611   4.216   5.229 -0.2305 -0.4861  0.4876
  630MOL0     C84920  10.668   4.347   5.218  0.4845  0.2696  0.1259
  630MOL0     C84921  10.805   4.369   5.219  0.4623 -0.4672 -0.6282
  630MOL0     C84922  10.886   4.266   5.268 -0.6638  0.3622  0.8514
  630MOL0     O84923  11.021   4.266   5.285 -0.1846 -0.5539 -0.1645
  630MOL0     C84924  11.097   4.383   5.255  0.5567  0.2342 -0.6666
  630MOL0     C84925  11.248   4.354   5.284 -0.0603  0.5226  0.1849
  630MOL0     C84926  11.301   4.248   5.184  0.1785 -1.0267 -0.6767
  630MOL0     C84927  11.452   4.227   5.199 -0.0014 -0.8931 -0.9052
  630MOL0     C84928  11.508   4.107   5.124  0.4304  0.7536 -0.1866
  630MOL0     C84929  11.669   4.091   5.143 -0.3347  0.4796 -0.0824
  630MOL0     C84930  11.707   3.985   5.038  0.6501 -0.5596  1.1928
  630MOL0     C84931  11.828   3.917   5.089 -0.9519 -0.0704 -0.3781
  630MOL0     N84932  11.945   4.016   5.082 -0.5821  0.4860  0.0728
  630MOL0     C84933  11.967   4.105   4.977  0.2319 -0.1457  0.0815
  630MOL0     C84934  12.086   4.168   4.997 -0.0799  0.9743 -0.4502
  630MOL0     C84935  12.137   4.281   4.913 -1.1898  1.1773 -0.3008
  630MOL0     C84936  12.199   4.230   4.778  0.2718  0.3119  1.3043
  630MOL0     C84937  12.314   4.140   4.799 -0.0309  0.4151 -0.2858
  630MOL0     C84938  12.434   4.202   4.718 -0.4604 -0.6062 -1.8704
  630MOL0     O84939  12.397   4.162   4.586  0.5316  0.6773  0.9054
  630MOL0     C84940  12.482   4.170   4.480 -0.1284  0.6098 -0.1935
  630MOL0     C84941  12.424   4.135   4.351 -0.0476 -0.7768  0.6328
  630MOL0     C84942  12.494   4.140   4.228  0.2864 -0.5966 -0.0676
  630MOL0     C84943  12.633   4.171   4.227 -0.0969 -1.1735  0.8285
  630MOL0     C84944  12.709   4.165   4.098  0.2465 -0.4889 -0.0076
  630MOL0     O84945  12.837   4.188   4.112 -0.0130 -0.6971 -0.2290
  630MOL0     C84946  12.921   4.156   4.013 -0.6863  0.0593 -0.2921
  630MOL0     C84947  13.041   4.095   4.049  0.2701 -0.2374 -0.1357
  630MOL0     C84948  13.133   4.062   3.949 -0.6569  0.1311  0.3531
  630MOL0     C84949  13.109   4.088   3.814  0.1698  0.2799  0.3744
  630MOL0     O84950  13.206   4.060   3.723  0.0700  0.5639  0.5775
  630MOL0     C84951  13.151   4.013   3.596 -0.3732  0.5677 -0.2248
  630MOL0     C84952  13.242   3.904   3.529 -0.4834  0.2552 -0.2938
  630MOL0     C84953  13.367   3.953   3.468 -0.1510  0.0035 -0.7885
  630MOL0     C84954  13.464   3.841   3.439  0.0871  0.4426  0.3640
  630MOL0     C84955  13.599   3.906   3.407  0.1579 -0.7290 -0.7951
  630MOL0     C84956  13.696   3.801   3.359  0.5303 -0.0475  0.7829
  630MOL0     C84957  13.663   3.754   3.213  0.3385 -0.1456  0.4637
  630MOL0     C84958  13.787   3.728   3.125 -0.1361 -0.8035 -0.0283
  630MOL0    Cl84959  13.728   3.656   2.975  0.0233 -0.7060 -0.2129
  630MOL0     C84960  12.987   4.149   3.779  0.8937  0.4115  0.0735
  630MOL0     C84961  12.896   4.184   3.880 -1.0211  0.2175  1.2871
  630MOL0     O84962  12.655   4.104   4.008 -0.9042  0.4599  0.0976
  630MOL0     C84963  12.688   4.217   4.347 -0.4439  0.0516 -0.3286
  630MOL0     C84964  12.620   4.217   4.471 -0.6196 -0.2781 -0.1933
  630MOL0     N84965  12.134   4.120   5.112  1.1554 -0.3331  0.3707
  630MOL0     N84966  12.054   4.019   5.163  0.1932 -0.6892 -0.4120
  630MOL0     C84967  10.835   4.137   5.293 -0.1228  0.1753  0.1326
  630MOL0     C84968  10.703   4.110   5.262 -0.5565 -0.4219  0.2460
  630MOL0     C84969  10.271   4.197   5.087  0.3789  0.8996 -0.2032
  630MOL0     C84970  10.194   4.145   5.198  0.1113  0.1802  0.0228
  630MOL0     C84971  10.059   4.109   5.185 -0.7316  0.2176  0.8354
  630MOL0     C84972   9.996   4.133   5.059  0.2576  0.6117 -1.2169
  630MOL0     O84973   9.858   4.108   5.038 -0.1209 -0.0664  0.1732
  630MOL0     C84974   9.762   4.150   5.139 -0.6094  0.7522 -0.3416
  630MOL0     C84975   9.617   4.116   5.101  0.3965 -0.9744  0.7570
  630MOL0     C84976   9.566   3.969   5.128 -0.9821  0.0089 -1.4512
  630MOL0     C84977   9.418   3.973   5.083  0.4766  0.0073 -0.4326
  630MOL0     C84978   9.325   4.047   5.169 -0.1113 -0.3058  1.0956
  630MOL0     C84979   9.254   4.107   5.254 -0.2400 -0.9503  0.0169
  630MOL0     C84980  10.075   4.166   4.951  0.5329  1.0153  0.1219
  630MOL0     C84981  10.214   4.193   4.958  0.3461 -0.0049 -0.3343
  630MOL0     C84982  10.288   4.227   4.833 -0.4497  0.2438 -0.6801
  630MOL0     H84983  10.598   4.428   5.197 -0.6695 -0.3407  1.4779
  630MOL0     H84984  10.840   4.471   5.213 -3.0650  0.9585  0.1143
  630MOL0     H84985  11.070   4.409   5.152 -1.7596  1.0102  0.0583
  630MOL0     H84986  11.077   4.470   5.318  1.2599  0.9447 -1.3984
  630MOL0     H84987  11.252   4.314   5.385  0.8890  1.8210  0.6826
  630MOL0     H84988  11.301   4.450   5.289 -1.5225  1.3186  2.4099
  630MOL0     H84989  11.282   4.304   5.092 -4.8162 -1.0386  0.0820
  630MOL0     H84990  11.250   4.152   5.191 -0.0810 -0.8555 -0.2256
  630MOL0     H84991  11.516   4.316   5.189  1.4348 -1.4031  2.3316
  630MOL0     H84992  11.466   4.210   5.306 -2.4169  1.1646 -0.1529
  630MOL0     H84993  11.463   4.011   5.153  0.9156  0.5504 -0.0966
  630MOL0     H84994  11.487   4.115   5.017 -0.2119 -0.8817 -0.2128
  630MOL0     H84995  11.720   4.186   5.124  0.0749  0.7062  1.9324
  630MOL0     H84996  11.696   4.054   5.242 -1.1290  0.7116  0.2279
  630MOL0     H84997  11.718   4.044   4.947  0.1518  0.1691  1.5912
  630MOL0     H84998  11.634   3.905   5.021  0.7816 -0.6144  0.8937
  630MOL0     H84999  11.819   3.872   5.188  0.3805  1.1390  0.3371
  630MOL0     H85000  11.861   3.835   5.024 -3.8833 -1.6054 -0.0603
  630MOL0     H85001  11.906   4.127   4.891 -3.2650 -4.3202  1.1132
  630MOL0     H85002  12.053   4.341   4.877 -2.1220 -0.1671 -0.4666
  630MOL0     H85003  12.201   4.340   4.978  0.9043 -1.5733  0.3042
  630MOL0     H85004  12.127   4.177   4.715  0.4346 -0.7385  1.9824
  630MOL0     H85005  12.228   4.320   4.723  1.1433 -0.7773 -0.0929
  630MOL0     H85006  12.307   4.037   4.761  3.4945 -0.5571  1.2993
  630MOL0     H85007  12.334   4.144   4.906 -0.2898 -0.1950 -0.2117
  630MOL0     H85008  12.519   4.142   4.754 -1.2319 -0.2987  0.7044
  630MOL0     H85009  12.445   4.311   4.723 -0.4801 -0.4189 -4.6090
  630MOL0     H85010  12.320   4.106   4.343  0.9465 -5.0083  0.7767
  630MOL0     H85011  12.440   4.115   4.137  0.6144  0.2095 -0.4912
  630MOL0     H85012  13.066   4.062   4.150  1.3763  1.5887  0.2343
  630MOL0     H85013  13.226   4.015   3.982 -0.6191  0.3277  0.5275
  630MOL0     H85014  13.056   3.960   3.604 -1.1760  1.9315 -0.4160
  630MOL0     H85015  13.153   4.102   3.532  3.4778  1.8801  1.3972
  630MOL0     H85016  13.273   3.828   3.601 -0.8419 -0.0867 -0.4993
  630MOL0     H85017  13.181   3.853   3.454 -1.1913 -1.0331  1.1098
  630MOL0     H85018  13.351   4.011   3.377  2.5915  1.7337 -0.2756
  630MOL0     H85019  13.414   4.030   3.530  1.6055 -1.9726  0.4468
  630MOL0     H85020  13.428   3.780   3.356  0.5388 -2.2149  2.0066
  630MOL0     H85021  13.482   3.772   3.521  1.7924  0.0698 -0.2887
  630MOL0     H85022  13.640   3.945   3.501 -1.4374  1.4583 -0.9459
  630MOL0     H85023  13.597   3.994   3.342  1.8029 -0.0221  0.0421
  630MOL0     H85024  13.801   3.832   3.361  0.9010 -1.2321  0.5432
  630MOL0     H85025  13.690   3.714   3.424 -0.8663  0.7739  1.7989
  630MOL0     H85026  13.610   3.838   3.168 -0.2918 -0.8691 -0.1803
  630MOL0     H85027  13.599   3.666   3.207 -0.2581  0.3711 -2.0496
  630MOL0     H85028  13.832   3.827   3.109 -0.9892 -0.6625 -1.8516
  630MOL0     H85029  13.853   3.669   3.189  0.7740  0.9306  0.6883
  630MOL0     H85030  12.956   4.170   3.678  2.1645 -0.0592 -0.4324
  630MOL0     H85031  12.802   4.229   3.850 -0.0014  1.4244 -0.2645
  630MOL0     H85032  12.796   4.227   4.359 -0.6218 -0.0674  1.7633
  630MOL0     H85033  12.669   4.252   4.561 -1.2328 -0.8593  0.3779
  630MOL0     H85034  10.907   4.060   5.319 -0.6146 -0.0418  0.8960
  630MOL0     H85035  10.674   4.005   5.271 -1.4804 -0.4394 -2.1573
  630MOL0     H85036  10.250   4.143   5.291  0.8724  0.1569 -0.4257
  630MOL0     H85037   9.996   4.070   5.264 -0.2600 -2.3143  0.0301
  630MOL0     H85038   9.767   4.256   5.165 -0.3964  0.6078  0.2072
  630MOL0     H85039   9.784   4.104   5.235 -5.8707 -1.2754  0.2236
  630MOL0     H85040   9.600   4.121   4.993  2.5175 -0.9109  0.3784
  630MOL0     H85041   9.557   4.199   5.140 -1.4774 -1.4106 -1.0297
  630MOL0     H85042   9.587   3.939   5.231 -0.4859 -1.5189 -1.9603
  630MOL0     H85043   9.623   3.897   5.068 -1.8898 -0.7244 -1.4507
  630MOL0     H85044   9.413   4.017   4.983  1.2334 -1.4951 -1.1787
  630MOL0     H85045   9.377   3.872   5.071 -2.1703  1.1629 -1.8583
  630MOL0     H85046   9.186   4.168   5.310  1.8052  0.5215  1.0171
  630MOL0     H85047  10.030   4.171   4.853 -1.2425 -0.0571  0.8410
  630MOL0     H85048  10.319   4.332   4.826 -1.2474  0.3963 -3.2470
  630MOL0     H85049  10.379   4.167   4.835 -1.6496 -1.6106  0.4363
  630MOL0     H85050  10.218   4.217   4.749 -0.2144 -0.8970 -0.7447
  631MOL0     O85051  10.890   7.602   4.014 -0.6812  0.8405  0.5703
  631MOL0     C85052  10.808   7.691   4.026 -0.8734 -0.1255  0.5148
  631MOL0     O85053  10.795   7.761   4.137  0.4346 -0.5107 -0.2116
  631MOL0     C85054  10.855   7.730   4.257 -0.3340 -0.2803 -0.3487
  631MOL0     C85055  10.911   7.825   4.351 -0.1662 -0.5908 -0.6610
  631MOL0     C85056  10.955   7.783   4.479  0.3040 -1.4816  0.7208
  631MOL0     C85057  10.957   7.657   4.520 -0.3938 -0.3464  0.2216
  631MOL0     O85058  11.020   7.634   4.642  0.7041  0.3966  0.3644
  631MOL0     C85059  11.150   7.691   4.657  0.7521  0.6605  0.2500
  631MOL0     C85060  11.138   7.772   4.786  0.1308  0.0902  0.3057
  631MOL0     C85061  11.269   7.858   4.812  0.2400 -0.2832 -0.5997
  631MOL0     C85062  11.366   7.756   4.879  0.2704 -0.9176 -0.1902
  631MOL0     C85063  11.506   7.827   4.882 -0.2234 -0.1266 -0.2084
  631MOL0     C85064  11.527   7.958   4.972  0.6071  0.7733 -0.4583
  631MOL0     C85065  11.677   7.992   4.984  0.2980 -0.2182 -0.0273
  631MOL0     C85066  11.711   8.111   5.078  1.2896 -0.2860 -0.0737
  631MOL0     N85067  11.854   8.136   5.064  0.0211  0.1746  0.0148
  631MOL0     C85068  11.921   8.171   4.954 -0.2479 -0.6683  0.3929
  631MOL0     C85069  12.055   8.192   4.993 -0.5821  1.0674 -1.4346
  631MOL0     C85070  12.159   8.254   4.916  0.8585  0.2411 -0.0847
  631MOL0     C85071  12.237   8.344   5.014 -0.0613 -0.6051  0.4363
  631MOL0     C85072  12.368   8.284   5.069 -0.3580 -0.5109  0.2977
  631MOL0     C85073  12.446   8.385   5.160  0.0639 -0.4294 -0.0615
  631MOL0     O85074  12.363   8.455   5.255  0.4505  0.3506  0.3604
  631MOL0     C85075  12.305   8.392   5.370 -0.0438  1.1167 -0.1949
  631MOL0     C85076  12.201   8.459   5.420  0.5545  0.8673 -0.1592
  631MOL0     C85077  12.125   8.412   5.524  0.7326 -0.3221 -0.4663
  631MOL0     C85078  12.181   8.309   5.607 -0.0214 -0.5708 -0.4267
  631MOL0     C85079  12.116   8.271   5.739 -0.1778 -0.4966 -0.6524
  631MOL0     O85080  11.987   8.323   5.767 -0.4553  0.6982 -0.0899
  631MOL0     C85081  11.918   8.311   5.882 -1.2927  0.6097 -0.2844
  631MOL0     C85082  11.967   8.347   6.004  0.0773 -1.1473 -0.8132
  631MOL0     C85083  11.895   8.341   6.123  0.5556  0.1940 -0.4203
  631MOL0     C85084  11.768   8.283   6.125  0.3809  0.2189 -1.0081
  631MOL0     O85085  11.701   8.278   6.248  0.1834 -0.0406 -0.3705
  631MOL0     C85086  11.557   8.293   6.240 -0.0511 -0.4032  0.2345
  631MOL0     C85087  11.516   8.444   6.205  0.2521  0.1126  0.3734
  631MOL0     C85088  11.380   8.493   6.257  0.9575 -0.6239  0.5538
  631MOL0     C85089  11.272   8.396   6.184 -0.6089  0.8615 -0.6994
  631MOL0     C85090  11.125   8.452   6.198 -0.2122  0.0730  0.4236
  631MOL0     C85091  11.017   8.363   6.134  0.3508 -0.1891 -0.3877
  631MOL0     C85092  10.879   8.417   6.170 -0.1877  0.3439  0.4780
  631MOL0     C85093  10.772   8.325   6.114 -0.1351  0.0479  0.3785
  631MOL0    Cl85094  10.618   8.377   6.167  0.2679  0.2015  0.1362
  631MOL0     C85095  11.717   8.241   5.997 -0.1687  0.4745 -0.2139
  631MOL0     C85096  11.792   8.255   5.880 -0.4979  0.1626 -0.5287
  631MOL0     O85097  12.173   8.194   5.808  0.3000 -0.1588  0.3876
  631MOL0     C85098  12.289   8.240   5.553  0.3510  0.0364 -0.6597
  631MOL0     C85099  12.356   8.282   5.434  0.2510  0.2893  0.6698
  631MOL0     N85100  12.062   8.154   5.126 -0.0879  0.4941 -0.6841
  631MOL0     N85101  11.942   8.126   5.166  0.3047  0.1177  0.1265
  631MOL0     C85102  10.890   7.565   4.440  0.1364 -0.1127  1.4184
  631MOL0     C85103  10.839   7.597   4.315  0.2222 -0.1685  1.3579
  631MOL0     C85104  10.751   7.739   3.897  0.7634  0.2979 -0.0478
  631MOL0     C85105  10.726   7.649   3.797 -1.4882  0.7724 -0.5128
  631MOL0     C85106  10.685   7.685   3.668  1.4126 -1.0062 -0.4855
  631MOL0     C85107  10.650   7.823   3.643  0.4107  0.5383 -0.8467
  631MOL0     O85108  10.634   7.880   3.518  0.4521  0.4983  0.0182
  631MOL0     C85109  10.660   7.808   3.402  0.4118 -0.3657 -0.1852
  631MOL0     C85110  10.633   7.900   3.291 -0.0596 -0.8029 -0.2656
  631MOL0     C85111  10.600   7.825   3.160  0.7117 -0.3242 -0.3474
  631MOL0     C85112  10.549   7.911   3.054  0.9299  0.0051 -0.1077
  631MOL0     C85113  10.560   7.843   2.925 -0.1067 -0.4951 -0.6929
  631MOL0     C85114  10.576   7.797   2.817  0.5274  1.0110  0.2067
  631MOL0     C85115  10.661   7.912   3.753 -0.0155 -0.1516 -0.0836
  631MOL0     C85116  10.712   7.869   3.873 -0.6943 -0.2961  0.6803
  631MOL0     C85117  10.719   7.976   3.979  0.2983 -0.6095 -0.2668
  631MOL0     H85118  10.912   7.928   4.316 -1.3138 -0.9760 -1.9379
  631MOL0     H85119  11.003   7.857   4.541  2.9317 -1.8888 -0.6862
  631MOL0     H85120  11.218   7.607   4.675 -0.4129 -0.3102  0.2471
  631MOL0     H85121  11.178   7.755   4.573 -5.3172  1.6701 -1.4383
  631MOL0     H85122  11.115   7.696   4.861 -3.8324 -3.7888 -4.2025
  631MOL0     H85123  11.045   7.826   4.767 -0.2833 -0.6800  0.1323
  631MOL0     H85124  11.245   7.936   4.883  3.7328 -0.9349  1.5145
  631MOL0     H85125  11.307   7.891   4.715 -0.5791  0.2768 -0.7345
  631MOL0     H85126  11.319   7.735   4.976 -3.5266  0.9031 -1.4439
  631MOL0     H85127  11.370   7.669   4.813 -0.1878  1.0092 -2.9468
  631MOL0     H85128  11.579   7.752   4.915 -1.4992 -0.9126  0.9415
  631MOL0     H85129  11.534   7.853   4.780  2.1288 -0.6843  0.2255
  631MOL0     H85130  11.464   8.044   4.946  0.0502  1.4351  2.6253
  631MOL0     H85131  11.485   7.923   5.067 -2.4217  2.3924 -1.0686
  631MOL0     H85132  11.717   8.026   4.888  0.2732  2.6937  0.8826
  631MOL0     H85133  11.744   7.918   5.028  1.6703  1.2569  0.4809
  631MOL0     H85134  11.654   8.202   5.057 -0.0334 -1.0649 -0.0051
  631MOL0     H85135  11.675   8.091   5.180  0.2301 -1.4298 -0.6456
  631MOL0     H85136  11.883   8.192   4.855  2.6207  0.3734 -0.5798
  631MOL0     H85137  12.227   8.188   4.862  0.9003 -0.3322  0.6512
  631MOL0     H85138  12.108   8.321   4.846 -2.3012 -0.2032  1.6287
  631MOL0     H85139  12.276   8.424   4.949 -0.7364 -0.2203  0.4986
  631MOL0     H85140  12.176   8.396   5.088  0.6308  0.0467  0.5630
  631MOL0     H85141  12.436   8.272   4.985 -0.5936 -1.2794  0.1997
  631MOL0     H85142  12.358   8.193   5.130  1.7307 -2.2676 -1.8008
  631MOL0     H85143  12.503   8.462   5.109 -0.1647  2.5065  3.6677
  631MOL0     H85144  12.527   8.324   5.202  1.3887  0.3258 -1.4295
  631MOL0     H85145  12.168   8.546   5.365 -3.2443  0.9663  1.9042
  631MOL0     H85146  12.040   8.475   5.549  1.4810  0.4039  0.2710
  631MOL0     H85147  12.064   8.396   6.005 -0.0136 -0.8999  1.6418
  631MOL0     H85148  11.931   8.386   6.215  1.0862 -2.0527  0.5417
  631MOL0     H85149  11.513   8.223   6.168 -0.0775 -2.7587  2.4055
  631MOL0     H85150  11.518   8.272   6.340  1.9943  0.4946  1.2599
  631MOL0     H85151  11.605   8.501   6.233  0.9493 -0.5782 -0.3679
  631MOL0     H85152  11.502   8.456   6.097 -2.7345 -0.1791  0.6272
  631MOL0     H85153  11.358   8.491   6.364 -2.4708 -3.7266  0.0108
  631MOL0     H85154  11.367   8.596   6.223 -1.1918  0.2203  3.5461
  631MOL0     H85155  11.272   8.294   6.223 -1.1994  0.8945 -0.6061
  631MOL0     H85156  11.294   8.391   6.077  2.9199  0.9131 -0.0728
  631MOL0     H85157  11.123   8.551   6.151  0.5411 -1.3732 -2.9606
  631MOL0     H85158  11.103   8.451   6.305  0.6527 -2.4379  0.6427
  631MOL0     H85159  11.026   8.356   6.025 -1.9593  1.6605 -0.7780
  631MOL0     H85160  11.027   8.268   6.186 -3.2649 -0.8154 -0.5646
  631MOL0     H85161  10.869   8.519   6.132 -0.0456 -0.8324 -3.1087
  631MOL0     H85162  10.857   8.410   6.277 -0.5321  0.0414  0.3897
  631MOL0     H85163  10.778   8.327   6.005  0.7900 -1.3930  0.3752
  631MOL0     H85164  10.785   8.221   6.146  1.3730  0.8964  2.7673
  631MOL0     H85165  11.629   8.177   5.991 -0.7908  1.0093  2.1669
  631MOL0     H85166  11.754   8.225   5.783 -0.2989  3.9934 -1.9523
  631MOL0     H85167  12.319   8.154   5.612 -3.0306 -1.5396 -1.0200
  631MOL0     H85168  12.442   8.236   5.386 -1.0642  0.6647 -2.2925
  631MOL0     H85169  10.872   7.463   4.471 -4.1652 -0.5378 -1.5725
  631MOL0     H85170  10.794   7.520   4.254  0.2382  1.4420 -0.8041
  631MOL0     H85171  10.759   7.547   3.818 -3.1853  0.8851  3.5093
  631MOL0     H85172  10.679   7.609   3.591  1.8604  0.6484 -2.2480
  631MOL0     H85173  10.606   7.713   3.396  2.4484 -1.6162 -0.0995
  631MOL0     H85174  10.767   7.783   3.398  0.5966 -0.2458  2.4124
  631MOL0     H85175  10.720   7.966   3.287  0.3483 -1.1354  1.9086
  631MOL0     H85176  10.551   7.967   3.315  0.3299 -0.6927  0.7986
  631MOL0     H85177  10.527   7.744   3.175  1.1093 -0.2845  2.3083
  631MOL0     H85178  10.693   7.782   3.122  0.9648  1.0713 -1.3654
  631MOL0     H85179  10.445   7.937   3.075  0.3630 -1.1778 -1.3066
  631MOL0     H85180  10.608   8.003   3.055 -0.7237  1.1047  0.3956
  631MOL0     H85181  10.592   7.746   2.724  0.1015  1.7967 -0.3078
  631MOL0     H85182  10.636   8.017   3.743  1.5201  0.0505 -2.9978
  631MOL0     H85183  10.643   7.951   4.054 -2.9048  2.1787 -2.2668
  631MOL0     H85184  10.817   7.976   4.027  1.5178  1.1106 -2.6049
  631MOL0     H85185  10.691   8.073   3.936  1.3595 -1.2071 -2.4219
  632MOL0     O85186   4.490   8.834   8.457  0.2867 -0.4408 -0.6784
  632MOL0     C85187   4.434   8.836   8.569 -0.0716 -0.1837  0.6657
  632MOL0     O85188   4.498   8.868   8.688 -0.0470  0.7418 -0.3755
  632MOL0     C85189   4.627   8.889   8.669  0.4214 -0.8515 -0.2262
  632MOL0     C85190   4.728   8.799   8.687  0.3701  1.2632 -0.1425
  632MOL0     C85191   4.866   8.825   8.668  0.3948 -0.2325  0.4983
  632MOL0     C85192   4.900   8.958   8.640  0.4302  0.4444  0.2217
  632MOL0     O85193   5.026   9.005   8.627 -0.1485 -0.5004 -0.2953
  632MOL0     C85194   5.144   8.923   8.644 -0.2407 -0.1058 -0.1519
  632MOL0     C85195   5.288   9.004   8.632  0.1629 -0.0020 -0.6757
  632MOL0     C85196   5.262   9.159   8.587 -0.1162 -0.3569 -0.0439
  632MOL0     C85197   5.387   9.216   8.524  0.0600 -0.3312 -0.6035
  632MOL0     C85198   5.363   9.346   8.471  0.5312  1.0969  0.3405
  632MOL0     C85199   5.489   9.406   8.407  0.3377 -0.4820  0.1885
  632MOL0     C85200   5.457   9.538   8.331  0.5359 -0.4264 -0.0478
  632MOL0     C85201   5.413   9.643   8.430 -0.3632 -0.4650 -0.0102
  632MOL0     N85202   5.526   9.683   8.512  0.5560  0.0394 -0.2667
  632MOL0     C85203   5.640   9.749   8.472  0.2232 -0.1096 -0.6898
  632MOL0     C85204   5.708   9.770   8.584  0.2062 -0.4159 -0.7080
  632MOL0     C85205   5.841   9.843   8.599  0.3413  0.3356 -0.3115
  632MOL0     C85206   5.874   9.918   8.730  0.0886 -0.0864 -1.0756
  632MOL0     C85207   6.029   9.955   8.734  0.1956  0.1649  0.5846
  632MOL0     C85208   6.076   9.977   8.878  0.2488 -1.0052 -0.5684
  632MOL0     O85209   6.223   9.976   8.861  0.3707 -0.0350  0.2948
  632MOL0     C85210   6.293   9.969   8.977  0.1313 -0.9648 -0.9936
  632MOL0     C85211   6.357  10.087   9.025  0.2951  0.0638 -0.2248
  632MOL0     C85212   6.433  10.082   9.143 -0.2945  0.1874 -0.1515
  632MOL0     C85213   6.451   9.959   9.213  0.9367  0.4604 -0.0544
  632MOL0     C85214   6.529   9.954   9.332 -0.2930 -0.5833  0.1431
  632MOL0     O85215   6.547  10.068   9.409  0.4529 -0.3005 -0.2566
  632MOL0     C85216   6.597  10.054   9.539 -0.3523  0.1897 -0.3440
  632MOL0     C85217   6.569   9.949   9.630  0.4592 -0.3528  0.0358
  632MOL0     C85218   6.627   9.940   9.757  0.0703 -0.4458  0.4180
  632MOL0     C85219   6.701  10.051   9.805  0.6513 -0.7688  0.1973
  632MOL0     O85220   6.767  10.065   9.929 -0.8714 -0.1559  0.2264
  632MOL0     C85221   6.771   9.960  10.026 -0.4029 -0.0714  0.5346
  632MOL0     C85222   6.873   9.987  10.138  0.5623 -0.7338  0.7505
  632MOL0     C85223   6.818   9.916  10.264 -0.7329 -0.3632  0.1269
  632MOL0     C85224   6.857   9.987  10.392 -0.2585 -0.7056  0.0341
  632MOL0     C85225   6.816   9.918  10.523 -0.4996 -0.0799  0.0937
  632MOL0     C85226   6.872   9.779  10.547 -0.6430 -0.2554  0.0811
  632MOL0     C85227   7.022   9.769  10.593  0.3225  0.2887 -0.2714
  632MOL0     C85228   7.072   9.852  10.708  0.1064  0.1583  0.7197
  632MOL0    Cl85229   7.255   9.865  10.716  0.1140  0.3819  0.3220
  632MOL0     C85230   6.729  10.151   9.720  1.2252  0.6565  0.2477
  632MOL0     C85231   6.671  10.157   9.591 -0.4189 -0.1323 -0.2534
  632MOL0     O85232   6.578   9.845   9.361 -0.2823 -0.3192 -0.6124
  632MOL0     C85233   6.395   9.841   9.162  0.2422  0.3576 -1.0841
  632MOL0     C85234   6.308   9.846   9.052  0.2720 -0.1036  0.3414
  632MOL0     N85235   5.621   9.748   8.688 -0.4089 -0.2539 -0.1129
  632MOL0     N85236   5.518   9.684   8.646  0.4216 -0.0963 -0.1715
  632MOL0     C85237   4.811   9.058   8.622  0.5058 -0.4884  0.3036
  632MOL0     C85238   4.671   9.021   8.633  0.0015 -0.0617 -0.6790
  632MOL0     C85239   4.292   8.796   8.586  0.1107  1.2913  0.5144
  632MOL0     C85240   4.238   8.796   8.714 -0.1522  1.3010 -1.3659
  632MOL0     C85241   4.104   8.759   8.742 -0.7681 -0.5942  0.1912
  632MOL0     C85242   4.018   8.723   8.643 -0.2452 -0.4905  1.1507
  632MOL0     O85243   3.886   8.703   8.682  0.1182 -0.6165  0.4091
  632MOL0     C85244   3.804   8.796   8.620 -0.3485 -0.7719  0.0270
  632MOL0     C85245   3.662   8.751   8.651 -0.2456  0.4587  0.1575
  632MOL0     C85246   3.564   8.820   8.554 -0.3176 -0.5958  0.6352
  632MOL0     C85247   3.431   8.748   8.559  0.0090  0.2435 -0.1703
  632MOL0     C85248   3.442   8.607   8.530 -0.3280  0.8471 -0.7116
  632MOL0     C85249   3.470   8.490   8.515 -0.2138 -1.0535 -0.0705
  632MOL0     C85250   4.068   8.710   8.512 -0.3085  0.0061 -1.0776
  632MOL0     C85251   4.204   8.746   8.482 -0.1176 -0.7606  0.1767
  632MOL0     C85252   4.246   8.726   8.341 -0.3881  0.1680  0.8891
  632MOL0     H85253   4.714   8.695   8.712  2.4917  0.7920 -0.6461
  632MOL0     H85254   4.929   8.737   8.681 -0.2733 -0.3989  3.0365
  632MOL0     H85255   5.135   8.863   8.735 -0.9106 -2.4216 -1.6746
  632MOL0     H85256   5.148   8.862   8.553  0.2509  1.0916 -0.9570
  632MOL0     H85257   5.344   8.950   8.556  1.8191  0.4546  0.1727
  632MOL0     H85258   5.344   8.995   8.726 -2.2940  0.4792  0.9531
  632MOL0     H85259   5.214   9.222   8.662  2.4922 -0.8665  2.1703
  632MOL0     H85260   5.182   9.143   8.514  1.8521 -2.6990 -1.8875
  632MOL0     H85261   5.460   9.223   8.604 -0.0450 -1.8261 -0.3376
  632MOL0     H85262   5.424   9.143   8.451 -2.6280 -0.6225 -1.7930
  632MOL0     H85263   5.276   9.342   8.406 -1.3939  0.9329  2.7734
  632MOL0     H85264   5.327   9.409   8.553 -2.3831  0.8843 -0.6579
  632MOL0     H85265   5.575   9.417   8.473 -0.7313  1.2698  1.3786
  632MOL0     H85266   5.522   9.322   8.345  2.0510  1.2466 -1.3278
  632MOL0     H85267   5.371   9.516   8.267  1.9791  2.2211 -3.1500
  632MOL0     H85268   5.524   9.591   8.263 -1.7104  1.8012 -0.6572
  632MOL0     H85269   5.379   9.731   8.375  1.1376  0.1899  0.0630
  632MOL0     H85270   5.328   9.608   8.489 -0.2185  0.6691  0.9024
  632MOL0     H85271   5.663   9.769   8.368  0.9287 -1.4166 -0.8138
  632MOL0     H85272   5.917   9.765   8.590 -0.3826 -0.7506  1.9432
  632MOL0     H85273   5.839   9.909   8.512  1.9144 -1.4587 -1.7738
  632MOL0     H85274   5.809  10.005   8.743 -3.2053 -2.6615  1.6996
  632MOL0     H85275   5.853   9.860   8.820  2.7930 -1.4835 -1.2460
  632MOL0     H85276   6.035  10.052   8.685  0.2828  1.0130  2.1961
  632MOL0     H85277   6.096   9.884   8.685 -0.8067 -0.1350 -0.3869
  632MOL0     H85278   6.046   9.900   8.950 -3.6749  1.0881  0.3276
  632MOL0     H85279   6.041  10.075   8.911  0.8211 -1.5779  2.0240
  632MOL0     H85280   6.353  10.179   8.968  2.4767 -0.1049 -0.7114
  632MOL0     H85281   6.487  10.169   9.181 -1.6837  0.4644  1.3525
  632MOL0     H85282   6.511   9.867   9.588 -0.6669 -0.5838  1.9074
  632MOL0     H85283   6.605   9.859   9.827 -0.8041  0.3287  1.0627
  632MOL0     H85284   6.671   9.957  10.071 -0.3621  0.8055  0.7061
  632MOL0     H85285   6.806   9.869   9.977 -1.7443 -1.0592  1.3523
  632MOL0     H85286   6.974   9.952  10.115  0.6768  0.4732 -0.7774
  632MOL0     H85287   6.868  10.093  10.164 -0.0922 -0.7533  0.7321
  632MOL0     H85288   6.709   9.911  10.262 -0.7275 -4.7886 -2.1752
  632MOL0     H85289   6.866   9.818  10.274 -0.1853 -0.0343  0.8280
  632MOL0     H85290   6.810  10.086  10.389  0.4734 -0.3616 -0.4123
  632MOL0     H85291   6.966  10.000  10.399 -0.0710 -2.4150  0.6643
  632MOL0     H85292   6.707   9.910  10.529 -0.6198 -1.5289 -2.5213
  632MOL0     H85293   6.843   9.990  10.601  0.1684  0.9134 -1.0177
  632MOL0     H85294   6.809   9.737  10.625 -0.2195 -2.2365 -0.5921
  632MOL0     H85295   6.855   9.712  10.462 -2.3488  0.4839 -0.2083
  632MOL0     H85296   7.081   9.809  10.510  2.3928 -0.6092  0.6872
  632MOL0     H85297   7.048   9.663  10.601  1.1437  0.6008  1.6314
  632MOL0     H85298   7.024   9.950  10.697 -1.7822 -0.9761 -2.6462
  632MOL0     H85299   7.039   9.807  10.803  2.4669 -1.8896  0.6523
  632MOL0     H85300   6.783  10.239   9.753 -1.2868  1.8833  1.3532
  632MOL0     H85301   6.690  10.247   9.533 -1.6597 -1.1825 -2.3664
  632MOL0     H85302   6.415   9.746   9.212  0.8625  1.0680  0.0537
  632MOL0     H85303   6.250   9.765   9.008  0.6453 -0.2383  0.0899
  632MOL0     H85304   4.835   9.164   8.622  1.5323 -0.6712  2.2907
  632MOL0     H85305   4.600   9.099   8.608 -0.1165  0.0990  0.1144
  632MOL0     H85306   4.306   8.823   8.794  4.2133 -2.1802 -3.3864
  632MOL0     H85307   4.066   8.760   8.844 -0.7950  0.5376  0.1841
  632MOL0     H85308   3.826   8.782   8.514 -1.7043 -5.0257  0.1256
  632MOL0     H85309   3.832   8.895   8.659  0.4570 -1.9267  2.5988
  632MOL0     H85310   3.645   8.782   8.755 -0.4947 -3.9970  1.6295
  632MOL0     H85311   3.662   8.643   8.637 -4.2466 -0.0924  2.8201
  632MOL0     H85312   3.611   8.819   8.455 -0.6504  1.4705  0.3997
  632MOL0     H85313   3.556   8.926   8.582  0.8265 -0.2571 -0.2272
  632MOL0     H85314   3.395   8.742   8.662  2.1174 -1.5314  0.5548
  632MOL0     H85315   3.356   8.795   8.495 -0.3311 -0.7623 -0.5371
  632MOL0     H85316   3.482   8.385   8.494  0.1671 -0.9794 -0.2257
  632MOL0     H85317   4.001   8.664   8.440 -2.1572  0.1698  0.4631
  632MOL0     H85318   4.321   8.793   8.298 -2.3612  1.1958 -1.1741
  632MOL0     H85319   4.282   8.622   8.340  5.5384  1.8630  0.5631
  632MOL0     H85320   4.160   8.726   8.273  0.1921  0.3107  0.1335
  633MOL0     O85321   1.254   3.290   6.023 -0.1095 -0.1948  0.4702
  633MOL0     C85322   1.168   3.203   6.059  0.3112 -0.4054  0.8478
  633MOL0     O85323   1.195   3.082   6.108  0.0120  0.3238 -0.1342
  633MOL0     C85324   1.330   3.041   6.108  0.4369  0.0629 -0.1181
  633MOL0     C85325   1.386   2.988   6.227  0.2206  0.5142  1.1175
  633MOL0     C85326   1.519   2.934   6.222 -0.3677  0.3803 -0.3528
  633MOL0     C85327   1.609   2.956   6.113  0.2722 -0.1985  0.2738
  633MOL0     O85328   1.742   2.928   6.131 -0.3940 -0.4973 -0.1031
  633MOL0     C85329   1.821   2.886   6.017 -0.5865  0.1033  0.3999
  633MOL0     C85330   1.923   2.780   6.054 -0.9385 -0.1145 -0.8148
  633MOL0     C85331   2.054   2.774   5.975  0.3166 -0.2936  0.0709
  633MOL0     C85332   2.174   2.698   6.036 -0.4637  0.4821 -0.2734
  633MOL0     C85333   2.287   2.684   5.932 -0.0004 -0.1711 -0.4116
  633MOL0     C85334   2.428   2.648   5.996  0.7579  0.3784  0.3640
  633MOL0     C85335   2.539   2.618   5.896 -0.4306 -0.4294  0.2428
  633MOL0     C85336   2.681   2.592   5.960  0.2570 -0.3533 -0.0258
  633MOL0     N85337   2.774   2.605   5.847 -0.2482  1.1065  0.5111
  633MOL0     C85338   2.844   2.717   5.811  0.2418 -0.4494 -0.5839
  633MOL0     C85339   2.931   2.680   5.720  0.0857 -0.5979 -0.4401
  633MOL0     C85340   3.012   2.777   5.647 -0.4475 -0.1986 -0.1644
  633MOL0     C85341   3.154   2.762   5.697 -1.4492 -0.2980 -0.3139
  633MOL0     C85342   3.245   2.874   5.655  0.0967  0.6123 -0.0198
  633MOL0     C85343   3.385   2.866   5.715 -0.2669  1.1033  0.0122
  633MOL0     O85344   3.479   2.954   5.664  0.2782 -0.3922  0.2594
  633MOL0     C85345   3.619   2.922   5.655 -0.0483  0.0112  0.6741
  633MOL0     C85346   3.697   3.003   5.573  0.4593  0.2866  0.6378
  633MOL0     C85347   3.829   2.981   5.551  0.5332  0.4496  0.1952
  633MOL0     C85348   3.895   2.883   5.636  0.0672  0.4909  0.1138
  633MOL0     C85349   4.037   2.861   5.627 -0.6462 -0.4379  0.5555
  633MOL0     O85350   4.092   2.752   5.670 -0.0121  0.8663 -0.5660
  633MOL0     C85351   4.225   2.747   5.655  0.1098  1.2824 -0.1473
  633MOL0     C85352   4.275   2.683   5.540 -0.4781  1.4959  0.0404
  633MOL0     C85353   4.415   2.673   5.536 -0.5090  0.3051  0.2931
  633MOL0     C85354   4.502   2.728   5.621 -0.9900 -1.1747 -0.6133
  633MOL0     O85355   4.640   2.722   5.587  0.6149  0.2877 -0.9257
  633MOL0     C85356   4.706   2.845   5.622 -0.0529 -0.7660 -0.4846
  633MOL0     C85357   4.846   2.842   5.570  0.6776  0.1203 -0.0966
  633MOL0     C85358   4.921   2.976   5.586  0.1437 -0.3806 -0.8902
  633MOL0     C85359   5.051   2.983   5.495 -0.2711 -0.3716 -0.0677
  633MOL0     C85360   5.072   3.124   5.438 -0.4695 -0.4521 -0.2806
  633MOL0     C85361   5.111   3.219   5.550  0.0884 -0.1389  0.4459
  633MOL0     C85362   5.251   3.201   5.595 -0.0822  0.4015  0.0154
  633MOL0     C85363   5.297   3.309   5.699 -0.4727 -0.0588 -0.0364
  633MOL0    Cl85364   5.262   3.256   5.866 -0.5878 -0.0972 -0.0620
  633MOL0     C85365   4.442   2.805   5.724 -0.4827  0.3889 -0.1634
  633MOL0     C85366   4.306   2.808   5.740  0.2572 -0.2259 -0.2483
  633MOL0     O85367   4.093   2.947   5.557  0.1360 -0.8207 -0.0294
  633MOL0     C85368   3.826   2.800   5.720 -0.0630 -0.6022 -0.0901
  633MOL0     C85369   3.683   2.823   5.727 -0.9000 -0.3112 -0.0132
  633MOL0     N85370   2.937   2.544   5.707  0.7723  0.0257 -0.1679
  633MOL0     N85371   2.834   2.498   5.787 -1.0261 -0.3566  0.2015
  633MOL0     C85372   1.549   3.013   6.003 -0.2272  0.1555  0.5288
  633MOL0     C85373   1.412   3.047   6.004  0.3534  0.2481  0.0279
  633MOL0     C85374   1.030   3.241   6.063  0.4426  0.0811 -0.1872
  633MOL0     C85375   0.934   3.131   6.089 -0.4862  0.0381 -0.0855
  633MOL0     C85376   0.798   3.153   6.090 -0.8947 -0.7943  0.3266
  633MOL0     C85377   0.743   3.272   6.043  0.9105 -0.9107 -0.5549
  633MOL0     O85378   0.607   3.290   6.027 -0.1682  0.3889  0.0737
  633MOL0     C85379   0.519   3.265   6.143 -0.5085 -0.6970  0.3298
  633MOL0     C85380   0.520   3.374   6.239  0.3437 -0.2293  1.2325
  633MOL0     C85381   0.492   3.513   6.170 -0.0063  0.0307 -0.6915
  633MOL0     C85382   0.352   3.524   6.107 -0.1355  0.1000 -0.2052
  633MOL0     C85383   0.243   3.457   6.166  0.8352 -0.5680 -0.2505
  633MOL0     C85384   0.166   3.380   6.211 -0.3328  0.5291 -0.4931
  633MOL0     C85385   0.834   3.376   6.007  0.2474  0.0569  0.9824
  633MOL0     C85386   0.972   3.367   6.020 -0.0034  0.3284 -0.4210
  633MOL0     C85387   1.057   3.488   5.983 -0.1446  0.4513  0.0415
  633MOL0     H85388   1.311   2.980   6.306 -1.9448 -1.5038 -0.9695
  633MOL0     H85389   1.566   2.881   6.305 -0.3098  0.1078 -0.5594
  633MOL0     H85390   1.759   2.838   5.941 -1.4952 -1.1400  1.8719
  633MOL0     H85391   1.871   2.969   5.966 -1.0109 -2.1081 -4.1530
  633MOL0     H85392   1.885   2.677   6.054 -0.1115 -0.5116  1.8831
  633MOL0     H85393   1.944   2.801   6.160 -0.9531 -2.2152 -0.3398
  633MOL0     H85394   2.100   2.872   5.957  0.2909 -0.7410 -2.8244
  633MOL0     H85395   2.024   2.738   5.877  2.9310  1.0102 -1.3060
  633MOL0     H85396   2.203   2.755   6.125  0.9904 -1.5563  0.6373
  633MOL0     H85397   2.146   2.601   6.077 -0.4805  0.3595 -0.5726
  633MOL0     H85398   2.260   2.603   5.864  2.4249  0.5611 -2.3938
  633MOL0     H85399   2.287   2.767   5.861 -1.2760 -1.4946 -2.0219
  633MOL0     H85400   2.458   2.732   6.060  1.3563 -0.2791  0.9556
  633MOL0     H85401   2.422   2.560   6.061 -0.8111 -0.1986 -0.4995
  633MOL0     H85402   2.548   2.693   5.816  0.4826 -1.1202 -0.3322
  633MOL0     H85403   2.514   2.528   5.839 -0.1460  0.0521 -0.6730
  633MOL0     H85404   2.713   2.659   6.040  2.7345 -2.1891  0.6393
  633MOL0     H85405   2.689   2.492   6.003  1.0625  0.9681  3.1837
  633MOL0     H85406   2.805   2.818   5.821 -0.4470 -0.5839 -1.7778
  633MOL0     H85407   3.002   2.739   5.545  0.4330 -1.4391  0.1943
  633MOL0     H85408   2.980   2.882   5.654  2.3849  0.7271  0.2719
  633MOL0     H85409   3.159   2.764   5.807  0.3804  0.8845 -0.3600
  633MOL0     H85410   3.193   2.666   5.661  0.1529  1.1159 -2.6376
  633MOL0     H85411   3.216   2.974   5.690  4.4346  2.2649 -0.4569
  633MOL0     H85412   3.250   2.880   5.546 -0.8004 -0.0209 -0.1118
  633MOL0     H85413   3.418   2.763   5.697 -0.9448  1.3128 -3.0657
  633MOL0     H85414   3.371   2.891   5.820  2.6591 -1.6815  1.2322
  633MOL0     H85415   3.651   3.091   5.530  0.9390  0.0955 -0.3183
  633MOL0     H85416   3.880   3.057   5.493 -0.9849  3.3228  2.3769
  633MOL0     H85417   4.202   2.652   5.465  0.8370 -0.0102 -0.6576
  633MOL0     H85418   4.445   2.617   5.448 -0.1402 -0.7736  1.0858
  633MOL0     H85419   4.655   2.933   5.584  2.8033  1.6498  0.8092
  633MOL0     H85420   4.711   2.845   5.731  0.4692  2.3241 -0.4280
  633MOL0     H85421   4.892   2.761   5.628  0.3609 -1.1561 -1.5689
  633MOL0     H85422   4.838   2.804   5.468  0.3719 -3.2912  1.0920
  633MOL0     H85423   4.859   3.063   5.562  2.5573  2.0169  0.8610
  633MOL0     H85424   4.946   2.989   5.692 -4.5170  1.3420  0.2147
  633MOL0     H85425   5.042   2.904   5.419 -0.6082 -0.3154 -0.0882
  633MOL0     H85426   5.136   2.947   5.554 -0.3995 -1.4462 -0.5199
  633MOL0     H85427   4.989   3.161   5.376  2.2186  2.9717 -2.2442
  633MOL0     H85428   5.159   3.124   5.371  0.5607  4.2049  0.6619
  633MOL0     H85429   5.095   3.316   5.501  1.2784 -0.6724 -1.0717
  633MOL0     H85430   5.046   3.204   5.637 -0.7161  1.8820  0.2415
  633MOL0     H85431   5.319   3.216   5.511 -0.4075 -0.6167 -0.4492
  633MOL0     H85432   5.266   3.098   5.629  0.0276 -0.1870 -1.7133
  633MOL0     H85433   5.403   3.333   5.688 -0.4100 -0.1894  0.2756
  633MOL0     H85434   5.247   3.401   5.666 -1.7160 -1.3101 -1.8413
  633MOL0     H85435   4.506   2.873   5.779 -1.5015 -0.0078  1.5882
  633MOL0     H85436   4.252   2.864   5.816  0.5495 -0.5735  0.2255
  633MOL0     H85437   3.873   2.716   5.770  1.2902 -0.5037 -1.1441
  633MOL0     H85438   3.637   2.745   5.787 -0.6125 -2.7774 -2.7735
  633MOL0     H85439   1.617   3.035   5.921  2.2387  0.5240  2.5353
  633MOL0     H85440   1.371   3.091   5.914 -1.1830 -1.1119  0.0192
  633MOL0     H85441   0.969   3.031   6.114  1.3732  0.6315 -0.1270
  633MOL0     H85442   0.727   3.076   6.121  0.3057 -1.5681  1.2638
  633MOL0     H85443   0.550   3.180   6.204 -2.6634  0.4753  3.2646
  633MOL0     H85444   0.418   3.246   6.106  0.1992  0.1870 -2.3196
  633MOL0     H85445   0.620   3.381   6.283  0.1677 -1.4239  1.8703
  633MOL0     H85446   0.451   3.356   6.323 -3.8825  2.0016 -1.3767
  633MOL0     H85447   0.570   3.544   6.099  1.3568 -0.7222  0.4449
  633MOL0     H85448   0.507   3.576   6.259  1.6294  1.1493 -1.6974
  633MOL0     H85449   0.331   3.632   6.104 -0.4833  0.0198 -0.7831
  633MOL0     H85450   0.359   3.482   6.006 -3.7112  4.1710 -2.4918
  633MOL0     H85451   0.093   3.312   6.250 -0.9940  0.7125 -1.3846
  633MOL0     H85452   0.799   3.466   5.958  0.7562 -0.5463 -0.5581
  633MOL0     H85453   1.000   3.573   5.944 -1.0285 -0.8331 -1.5812
  633MOL0     H85454   1.113   3.531   6.067  0.9282 -0.6646 -0.0770
  633MOL0     H85455   1.118   3.456   5.898 -0.0290  2.9760 -0.9034
  634MOL0     O85456   8.216   5.012   3.088 -0.1376 -0.4837 -0.4875
  634MOL0     C85457   8.140   4.922   3.125  0.0709  0.0737 -0.7787
  634MOL0     O85458   8.169   4.809   3.189 -0.4137  0.0566  0.0419
  634MOL0     C85459   8.307   4.796   3.219  0.1020  0.9735 -1.0856
  634MOL0     C85460   8.387   4.688   3.174 -0.5019 -0.1776  0.1437
  634MOL0     C85461   8.514   4.678   3.233  0.1530  0.1416  0.4297
  634MOL0     C85462   8.563   4.758   3.332 -0.1678  1.1940  0.0327
  634MOL0     O85463   8.678   4.724   3.395 -0.2410  0.1279  0.4805
  634MOL0     C85464   8.762   4.838   3.428 -1.3488  0.4990 -0.1522
  634MOL0     C85465   8.922   4.805   3.405  1.0283  0.6730  0.1631
  634MOL0     C85466   8.947   4.815   3.262 -0.8397 -0.4511 -0.5001
  634MOL0     C85467   9.079   4.747   3.216 -0.4038  0.8825  0.2849
  634MOL0     C85468   9.204   4.803   3.290 -0.2385  0.0558 -0.6571
  634MOL0     C85469   9.342   4.746   3.246 -0.9430 -1.1989  0.2603
  634MOL0     C85470   9.445   4.834   3.324 -0.8806 -0.0911  0.3963
  634MOL0     C85471   9.581   4.780   3.282  0.6126  0.0865  0.3249
  634MOL0     N85472   9.685   4.874   3.325  0.1752 -0.5944  0.1456
  634MOL0     C85473   9.703   5.004   3.266  0.8131 -0.2959  0.0427
  634MOL0     C85474   9.808   5.056   3.331  0.1946 -0.1875 -0.5834
  634MOL0     C85475   9.877   5.189   3.306  0.6279 -0.0196 -0.8519
  634MOL0     C85476   9.954   5.196   3.167  0.6996  0.1661  0.0402
  634MOL0     C85477  10.035   5.324   3.167  0.3985  1.0045  0.8026
  634MOL0     C85478  10.130   5.353   3.051  0.6371  0.3321  0.5109
  634MOL0     O85479  10.204   5.243   3.012  1.0934 -0.0560 -0.1613
  634MOL0     C85480  10.325   5.264   2.945 -0.0257  0.0215 -1.0306
  634MOL0     C85481  10.360   5.381   2.870  0.9259  0.0661 -0.0349
  634MOL0     C85482  10.479   5.395   2.798  0.2102 -0.0615  0.1244
  634MOL0     C85483  10.568   5.282   2.797  0.5211 -0.2395  0.6343
  634MOL0     C85484  10.703   5.287   2.723 -0.3845  0.4159  0.5217
  634MOL0     O85485  10.732   5.400   2.657 -0.2644 -0.8563  0.3512
  634MOL0     C85486  10.823   5.409   2.540 -0.0564 -0.1553 -0.2201
  634MOL0     C85487  10.880   5.306   2.465 -0.1038 -0.4134  0.0628
  634MOL0     C85488  10.953   5.328   2.345 -0.7719 -0.0913 -0.2627
  634MOL0     C85489  10.987   5.452   2.308  0.1097 -0.0918 -0.3561
  634MOL0     O85490  11.068   5.458   2.209 -0.8193  0.0262 -0.4164
  634MOL0     C85491  11.112   5.586   2.161  0.8354  0.3305 -0.7465
  634MOL0     C85492  11.221   5.575   2.047 -0.0508  0.4771  1.3117
  634MOL0     C85493  11.151   5.530   1.917 -0.2390 -0.5036 -0.1298
  634MOL0     C85494  11.263   5.490   1.822 -0.0003  0.0797  0.4110
  634MOL0     C85495  11.218   5.509   1.671  0.2301  0.8543 -0.6248
  634MOL0     C85496  11.096   5.432   1.643  0.0108  0.3814 -0.0126
  634MOL0     C85497  11.039   5.449   1.496 -0.6487 -0.3257 -0.9828
  634MOL0     C85498  11.142   5.399   1.396  0.1187 -0.0169  0.3197
  634MOL0    Cl85499  11.146   5.221   1.387 -0.3060  0.2991 -0.2370
  634MOL0     C85500  10.948   5.560   2.387 -0.2988 -0.0545 -0.7724
  634MOL0     C85501  10.854   5.542   2.501  0.6482  0.7812 -0.1956
  634MOL0     O85502  10.767   5.188   2.725 -0.4247  1.1371  0.2937
  634MOL0     C85503  10.534   5.164   2.875 -0.4016 -0.3664 -0.4708
  634MOL0     C85504  10.421   5.167   2.950  0.1168  0.2172 -0.5798
  634MOL0     N85505   9.850   4.963   3.427 -0.6593 -0.2543 -0.2252
  634MOL0     N85506   9.778   4.854   3.417 -0.3988  0.5246  0.1527
  634MOL0     C85507   8.484   4.864   3.371 -0.0273  0.4669 -0.5776
  634MOL0     C85508   8.352   4.880   3.321 -0.5808  0.0594  0.9817
  634MOL0     C85509   8.000   4.930   3.078 -0.2936  0.0367 -0.3009
  634MOL0     C85510   7.953   4.824   3.001  0.2817 -0.4893  0.3086
  634MOL0     C85511   7.822   4.827   2.945 -0.5491  0.3455  0.2755
  634MOL0     C85512   7.734   4.933   2.977  0.7469 -0.1107 -0.8850
  634MOL0     O85513   7.610   4.953   2.926 -0.2765 -0.8319 -0.9488
  634MOL0     C85514   7.551   4.841   2.870  0.7675  0.7684 -0.1501
  634MOL0     C85515   7.414   4.887   2.825 -0.3364 -0.0629  0.1340
  634MOL0     C85516   7.327   4.932   2.939  0.2698 -0.1593  0.7065
  634MOL0     C85517   7.184   4.888   2.914 -0.1348 -0.8191 -0.3709
  634MOL0     C85518   7.092   4.962   3.005  0.1744  0.5060 -0.6009
  634MOL0     C85519   7.014   5.021   3.076 -0.1961 -0.2591 -0.2244
  634MOL0     C85520   7.778   5.041   3.055 -0.4650 -0.7545  1.1853
  634MOL0     C85521   7.922   5.045   3.094  0.3715  0.3290  0.0014
  634MOL0     C85522   7.972   5.172   3.168  0.9902  0.4650 -0.0512
  634MOL0     H85523   8.353   4.613   3.105  1.7980  0.6412 -2.0382
  634MOL0     H85524   8.579   4.592   3.224  1.2196  1.0362 -0.6875
  634MOL0     H85525   8.730   4.932   3.382  0.3186  0.2869 -1.9231
  634MOL0     H85526   8.762   4.844   3.537  0.0945  0.3961 -0.1164
  634MOL0     H85527   8.928   4.696   3.419 -2.1301 -0.1311 -3.3721
  634MOL0     H85528   9.002   4.854   3.462  0.1528  2.6194 -0.2147
  634MOL0     H85529   8.956   4.922   3.243 -1.0661 -0.7933 -2.7500
  634MOL0     H85530   8.867   4.781   3.195 -2.7929 -1.2024  2.0236
  634MOL0     H85531   9.078   4.642   3.245  2.9873  1.2250  2.2648
  634MOL0     H85532   9.090   4.758   3.108 -2.3409 -0.8947 -0.1425
  634MOL0     H85533   9.216   4.911   3.274  2.0576  0.2118  1.4003
  634MOL0     H85534   9.198   4.789   3.399  0.2220  2.5944 -0.2225
  634MOL0     H85535   9.354   4.642   3.279 -1.5624 -0.6794  2.3117
  634MOL0     H85536   9.336   4.757   3.137 -4.1600  1.0772  0.5366
  634MOL0     H85537   9.421   4.836   3.430  0.8720  2.4979  0.8472
  634MOL0     H85538   9.447   4.939   3.292  0.7515 -0.6339 -1.4729
  634MOL0     H85539   9.604   4.685   3.329  1.6223  0.8885  1.5140
  634MOL0     H85540   9.576   4.776   3.172 -0.2518  3.0679  0.1580
  634MOL0     H85541   9.644   5.056   3.191  2.6502 -1.5842 -2.4562
  634MOL0     H85542   9.797   5.263   3.307 -1.1598 -1.8557 -0.1866
  634MOL0     H85543   9.939   5.219   3.391 -1.4593 -0.3315  0.8658
  634MOL0     H85544  10.020   5.110   3.161 -1.8962 -1.8402 -1.9331
  634MOL0     H85545   9.885   5.201   3.082  0.1215  0.0794  0.4935
  634MOL0     H85546  10.101   5.326   3.255  1.4956 -0.2924  0.0594
  634MOL0     H85547   9.966   5.408   3.172 -0.8402  0.1209 -0.5352
  634MOL0     H85548  10.194   5.439   3.074  1.1278  0.4042 -1.0222
  634MOL0     H85549  10.069   5.396   2.971 -0.5895  1.8922  2.2063
  634MOL0     H85550  10.285   5.460   2.867  3.0570  2.1985 -0.4589
  634MOL0     H85551  10.492   5.488   2.743 -0.3143 -0.4718 -0.7282
  634MOL0     H85552  10.868   5.203   2.498  0.0175  0.0183  1.5476
  634MOL0     H85553  10.975   5.240   2.285 -1.8500 -0.9708  0.5963
  634MOL0     H85554  11.033   5.652   2.123 -1.6299  0.1737  3.4962
  634MOL0     H85555  11.148   5.640   2.249 -1.2501  0.9314 -0.1937
  634MOL0     H85556  11.264   5.673   2.026 -2.2391  0.6250 -3.8118
  634MOL0     H85557  11.299   5.505   2.078  1.1156  1.5783  0.9211
  634MOL0     H85558  11.075   5.454   1.937 -2.0027  0.0678 -3.8154
  634MOL0     H85559  11.101   5.618   1.876 -0.0614  0.1395  0.9699
  634MOL0     H85560  11.294   5.386   1.837  0.9610  0.0458 -1.4366
  634MOL0     H85561  11.352   5.552   1.837 -0.9768  0.9313  3.2040
  634MOL0     H85562  11.305   5.475   1.613 -0.6983 -0.7739 -1.1095
  634MOL0     H85563  11.205   5.614   1.644  1.4177  1.2259  0.1618
  634MOL0     H85564  11.116   5.326   1.660  1.6666  0.8637  1.3627
  634MOL0     H85565  11.014   5.460   1.709  0.3027 -3.4688  2.2524
  634MOL0     H85566  11.024   5.557   1.485  1.0993  0.1025  0.4936
  634MOL0     H85567  10.946   5.394   1.481  0.5407 -2.6888 -0.1296
  634MOL0     H85568  11.119   5.435   1.295 -0.4060  1.1684  0.8526
  634MOL0     H85569  11.240   5.439   1.423  0.5970  1.0997 -2.6979
  634MOL0     H85570  10.967   5.665   2.369  0.4253  0.0368  0.4132
  634MOL0     H85571  10.815   5.625   2.561 -3.8718 -0.0512 -1.5702
  634MOL0     H85572  10.610   5.089   2.894  0.7344  1.2861  1.9353
  634MOL0     H85573  10.384   5.080   3.003 -1.0453  0.2938 -1.2337
  634MOL0     H85574   8.517   4.923   3.456 -1.5562  0.5478 -0.0005
  634MOL0     H85575   8.293   4.958   3.369  0.2316  1.0836  0.3704
  634MOL0     H85576   8.016   4.741   2.969  3.4663  1.2135  1.6905
  634MOL0     H85577   7.803   4.750   2.871  1.8446  0.4789 -0.5621
  634MOL0     H85578   7.545   4.766   2.949 -0.3192 -0.5029 -1.3816
  634MOL0     H85579   7.613   4.820   2.782  2.8352  1.8181  0.9714
  634MOL0     H85580   7.360   4.802   2.783 -0.0275  0.4893 -1.4583
  634MOL0     H85581   7.432   4.967   2.753  1.9353  1.7656  2.5200
  634MOL0     H85582   7.333   5.041   2.947  1.2935 -0.1422 -0.0848
  634MOL0     H85583   7.365   4.889   3.032  0.7171 -0.2978  0.4670
  634MOL0     H85584   7.156   4.906   2.810  2.2985  0.3790 -0.8904
  634MOL0     H85585   7.186   4.779   2.926  1.7148 -0.6123  1.9585
  634MOL0     H85586   6.953   5.074   3.146 -1.6869 -2.8582  0.5879
  634MOL0     H85587   7.713   5.125   3.076  0.1691  0.2011 -0.4270
  634MOL0     H85588   8.046   5.217   3.101 -0.1198  0.7850 -1.1011
  634MOL0     H85589   7.892   5.246   3.182 -0.0716 -0.7938  0.8902
  634MOL0     H85590   8.022   5.151   3.263  1.7398  1.0582 -0.3038
  635MOL0     O85591   3.620   8.392   5.118  0.5906 -0.7002 -0.2933
  635MOL0     C85592   3.590   8.416   5.000  0.2421 -0.0701  0.3230
  635MOL0     O85593   3.674   8.392   4.891  0.0194  0.2885 -0.3325
  635MOL0     C85594   3.787   8.313   4.909 -0.1917  0.5154 -0.3842
  635MOL0     C85595   3.823   8.238   4.795 -0.2698 -0.0205 -0.6629
  635MOL0     C85596   3.923   8.147   4.803 -1.1104 -0.9069  0.3676
  635MOL0     C85597   4.000   8.135   4.917 -0.2293  1.2278 -0.0139
  635MOL0     O85598   4.086   8.032   4.902 -0.2770 -0.0827  0.8434
  635MOL0     C85599   4.177   8.012   5.013 -0.0772  0.6481 -0.1416
  635MOL0     C85600   4.255   7.884   4.962 -0.0813  0.4203  0.5659
  635MOL0     C85601   4.372   7.858   5.053 -0.1901  0.1675 -0.0719
  635MOL0     C85602   4.444   7.725   5.016 -0.0129  0.5613 -0.3446
  635MOL0     C85603   4.565   7.698   5.116  0.2530 -0.5612  0.9682
  635MOL0     C85604   4.640   7.572   5.090 -1.0977 -0.0506 -0.6915
  635MOL0     C85605   4.705   7.568   4.941 -0.3729 -0.3816 -0.0334
  635MOL0     C85606   4.790   7.446   4.899 -0.9847  0.1797 -0.1613
  635MOL0     N85607   4.919   7.445   4.973 -0.4601  0.8808  1.2375
  635MOL0     C85608   5.018   7.536   4.950  0.4093 -0.1424  0.1338
  635MOL0     C85609   5.107   7.507   5.042  0.2773  0.2450 -0.2770
  635MOL0     C85610   5.233   7.582   5.063  0.2876  0.0409  0.0597
  635MOL0     C85611   5.290   7.652   4.938 -0.3141 -0.5534  0.5134
  635MOL0     C85612   5.325   7.565   4.820 -0.2200 -0.2049 -0.0420
  635MOL0     C85613   5.473   7.588   4.780  0.1416  0.3306  0.5276
  635MOL0     O85614   5.490   7.712   4.722 -0.4494 -0.4505 -0.2261
  635MOL0     C85615   5.614   7.727   4.657  1.1275 -0.2496 -0.0205
  635MOL0     C85616   5.724   7.658   4.686  0.7259 -0.4252 -0.0613
  635MOL0     C85617   5.850   7.680   4.626 -0.2371 -0.2755 -0.2633
  635MOL0     C85618   5.866   7.778   4.520  0.9558  0.1509  0.7136
  635MOL0     C85619   5.986   7.785   4.446 -0.0205 -0.1559  0.1604
  635MOL0     O85620   6.097   7.746   4.511 -0.2823  0.6857 -0.1471
  635MOL0     C85621   6.226   7.763   4.466  0.5636 -0.3435 -0.3320
  635MOL0     C85622   6.331   7.793   4.552  0.3435 -0.2669  0.3262
  635MOL0     C85623   6.465   7.812   4.510 -0.5579 -0.2415  0.6274
  635MOL0     C85624   6.497   7.808   4.374  0.1447 -0.4336  0.2613
  635MOL0     O85625   6.629   7.815   4.349 -0.4834 -0.2051 -0.0867
  635MOL0     C85626   6.670   7.813   4.214 -0.5575  0.8222  0.5485
  635MOL0     C85627   6.826   7.820   4.209  0.3604  0.0168 -0.6126
  635MOL0     C85628   6.881   7.692   4.273 -0.2004  0.1213 -0.1246
  635MOL0     C85629   7.029   7.681   4.235 -0.6410  0.7476  0.6853
  635MOL0     C85630   7.093   7.565   4.322  0.6594 -0.9014  0.1318
  635MOL0     C85631   7.228   7.513   4.275 -0.1034 -0.3591  0.4615
  635MOL0     C85632   7.287   7.422   4.380 -0.0051  0.3393 -1.3146
  635MOL0     C85633   7.430   7.433   4.414 -0.3283  0.5852  0.2419
  635MOL0    Cl85634   7.475   7.291   4.507 -0.2273 -0.0965 -0.1652
  635MOL0     C85635   6.391   7.783   4.286  0.4658 -0.1351  0.2660
  635MOL0     C85636   6.259   7.762   4.332 -0.5407  0.5892  0.5752
  635MOL0     O85637   5.978   7.829   4.328  0.2189  0.1482 -0.1591
  635MOL0     C85638   5.747   7.850   4.481 -0.1094 -0.5440  0.5961
  635MOL0     C85639   5.631   7.832   4.560  1.0906  0.2215 -0.1458
  635MOL0     N85640   5.077   7.387   5.096  0.5716  0.1154  0.0561
  635MOL0     N85641   4.962   7.341   5.050 -0.5373  1.0807 -0.4036
  635MOL0     C85642   3.986   8.209   5.028 -0.1491  0.0558 -0.0732
  635MOL0     C85643   3.876   8.293   5.020 -0.0283 -0.1534  0.1620
  635MOL0     C85644   3.449   8.462   4.975  0.0668  0.2392 -0.0246
  635MOL0     C85645   3.360   8.483   5.087 -0.3605 -0.4727 -0.2332
  635MOL0     C85646   3.226   8.523   5.073  0.2788  0.9183  0.3128
  635MOL0     C85647   3.175   8.549   4.947 -0.4276  0.5680 -0.9468
  635MOL0     O85648   3.044   8.584   4.944  0.0439 -0.5623  0.6129
  635MOL0     C85649   2.988   8.599   4.808  0.4877 -0.4297  0.7245
  635MOL0     C85650   2.849   8.665   4.816  1.2066 -0.3767 -0.4576
  635MOL0     C85651   2.847   8.809   4.866 -0.0248 -0.0674  0.1043
  635MOL0     C85652   2.710   8.867   4.909 -0.6956 -0.8943  0.8595
  635MOL0     C85653   2.651   8.803   5.027  0.5553  0.0426  0.0987
  635MOL0     C85654   2.612   8.757   5.132 -0.8688  0.1229 -0.4845
  635MOL0     C85655   3.264   8.531   4.834  0.6755  1.4296 -0.0389
  635MOL0     C85656   3.403   8.494   4.844  0.8584  0.2753 -0.4723
  635MOL0     C85657   3.482   8.476   4.716  0.1504 -0.6193 -0.3604
  635MOL0     H85658   3.761   8.258   4.708  0.0825  1.0181 -0.6870
  635MOL0     H85659   3.953   8.104   4.708 -2.1362  1.0470 -0.9080
  635MOL0     H85660   4.234   8.103   5.036 -0.1627  0.6001  0.2676
  635MOL0     H85661   4.126   7.983   5.106 -1.4374 -2.7821 -1.8099
  635MOL0     H85662   4.300   7.904   4.864  1.8131  0.9954  1.4959
  635MOL0     H85663   4.182   7.803   4.957 -4.1913  3.8325 -2.1609
  635MOL0     H85664   4.342   7.847   5.158 -0.3431  0.6997 -0.0595
  635MOL0     H85665   4.438   7.944   5.039  1.0895 -0.0059  3.6525
  635MOL0     H85666   4.375   7.642   5.001 -1.7066  2.0330 -1.0566
  635MOL0     H85667   4.482   7.742   4.914  2.2706  1.2199  0.5421
  635MOL0     H85668   4.633   7.782   5.106  0.9248 -1.2290 -0.4586
  635MOL0     H85669   4.538   7.696   5.222  1.7947 -0.9044  1.3760
  635MOL0     H85670   4.705   7.558   5.177 -3.2680  0.4068  1.0580
  635MOL0     H85671   4.569   7.490   5.100 -3.1168  1.8224  1.3162
  635MOL0     H85672   4.763   7.658   4.921 -1.8114  0.7155  0.5188
  635MOL0     H85673   4.629   7.590   4.866  0.6403  1.1494 -0.6579
  635MOL0     H85674   4.744   7.350   4.923  0.4441  0.4552  4.7977
  635MOL0     H85675   4.818   7.449   4.793 -2.3686 -1.9703 -0.6507
  635MOL0     H85676   5.019   7.624   4.887  0.6910  1.6389  2.4794
  635MOL0     H85677   5.223   7.640   5.156  3.0273 -0.6408  0.8772
  635MOL0     H85678   5.297   7.495   5.082 -1.1700 -1.1859 -0.4110
  635MOL0     H85679   5.210   7.717   4.902  0.1579 -0.3273 -0.1416
  635MOL0     H85680   5.375   7.712   4.971  0.2718 -2.3079  2.3642
  635MOL0     H85681   5.271   7.602   4.732  2.7204  0.1550 -1.8444
  635MOL0     H85682   5.298   7.461   4.842 -0.0789  0.0650  1.5054
  635MOL0     H85683   5.507   7.513   4.708  2.4595  0.5386  1.3120
  635MOL0     H85684   5.529   7.570   4.872 -2.4123 -0.9558  1.9261
  635MOL0     H85685   5.722   7.581   4.763  0.0658  1.9350  2.4164
  635MOL0     H85686   5.935   7.625   4.665 -0.0790 -0.4611 -0.8653
  635MOL0     H85687   6.318   7.817   4.657 -3.0483  0.8990 -0.2392
  635MOL0     H85688   6.539   7.829   4.588 -0.3167 -0.1326  0.3740
  635MOL0     H85689   6.643   7.716   4.171  0.3240  0.6003  0.4769
  635MOL0     H85690   6.630   7.897   4.156  1.9764  0.4335 -2.0232
  635MOL0     H85691   6.863   7.849   4.110  1.6650  3.6280  0.7716
  635MOL0     H85692   6.846   7.902   4.278 -0.1368  0.0498 -0.5029
  635MOL0     H85693   6.859   7.694   4.381  2.3203 -0.4915  0.4632
  635MOL0     H85694   6.821   7.603   4.251 -0.9465  0.2979  1.0910
  635MOL0     H85695   7.077   7.778   4.245  0.0500  0.7501 -1.8983
  635MOL0     H85696   7.032   7.668   4.126  0.0907 -0.2896  0.8188
  635MOL0     H85697   7.024   7.480   4.320 -0.8284  0.1334  2.6601
  635MOL0     H85698   7.092   7.600   4.426  0.7552  0.9680 -0.4517
  635MOL0     H85699   7.226   7.455   4.182  1.1720  0.3371 -0.0221
  635MOL0     H85700   7.296   7.596   4.256  1.0124 -0.9668  1.5712
  635MOL0     H85701   7.261   7.322   4.343 -1.7702  0.6863 -1.0967
  635MOL0     H85702   7.233   7.438   4.474 -1.3104 -0.2162 -1.9489
  635MOL0     H85703   7.489   7.436   4.321  2.6169 -2.0881  1.8325
  635MOL0     H85704   7.451   7.528   4.464  1.6428  1.6463 -2.3368
  635MOL0     H85705   6.409   7.765   4.180 -1.5210 -2.5855  0.2411
  635MOL0     H85706   6.182   7.744   4.257  0.7986 -2.1056 -0.2670
  635MOL0     H85707   5.755   7.913   4.393 -0.9133  0.0059  0.9043
  635MOL0     H85708   5.547   7.883   4.512  0.7497 -1.8452 -1.8896
  635MOL0     H85709   4.045   8.191   5.118  0.5052 -2.3719 -0.9086
  635MOL0     H85710   3.857   8.356   5.106 -1.0015 -0.6677  0.3375
  635MOL0     H85711   3.392   8.467   5.190 -2.0424 -0.9972  0.2384
  635MOL0     H85712   3.163   8.522   5.161 -1.1229 -1.3010 -0.6388
  635MOL0     H85713   2.978   8.500   4.762 -0.7843  0.0901 -0.1757
  635MOL0     H85714   3.052   8.666   4.750  1.3460  0.5472  2.7024
  635MOL0     H85715   2.793   8.605   4.888 -0.3323  2.0994  0.5067
  635MOL0     H85716   2.784   8.654   4.728 -0.2825  0.3533  0.5248
  635MOL0     H85717   2.884   8.862   4.778  0.2978 -1.3832 -0.5798
  635MOL0     H85718   2.932   8.823   4.933  1.8808  1.4642 -2.4981
  635MOL0     H85719   2.721   8.975   4.921  2.9944 -1.0185 -0.0618
  635MOL0     H85720   2.646   8.850   4.821  0.4142 -1.7884  0.1929
  635MOL0     H85721   2.573   8.726   5.227  1.4785 -1.0957  0.1811
  635MOL0     H85722   3.230   8.564   4.736  0.3561  1.9068  0.2323
  635MOL0     H85723   3.427   8.514   4.629 -0.8188  0.5242  0.7140
  635MOL0     H85724   3.567   8.542   4.734 -2.0476  1.8718  1.8636
  635MOL0     H85725   3.521   8.377   4.692  1.1030 -1.1341  2.8681
  636MOL0     O85726   3.102  11.030   0.630  0.6408 -0.5711  0.2470
  636MOL0     C85727   3.191  11.057   0.711 -0.3748 -0.5833 -0.5114
  636MOL0     O85728   3.161  11.114   0.833  0.2397 -0.2485 -1.5270
  636MOL0     C85729   3.039  11.176   0.850 -0.3186  0.0677 -0.3840
  636MOL0     C85730   2.975  11.159   0.967 -0.4008 -0.2201 -0.1435
  636MOL0     C85731   2.854  11.209   0.996 -0.8143  0.5054  0.3246
  636MOL0     C85732   2.795  11.298   0.906  0.6943 -0.1012 -0.3240
  636MOL0     O85733   2.684  11.384   0.924 -0.2228  0.4320  0.2355
  636MOL0     C85734   2.601  11.350   1.038 -0.1018 -0.6946 -0.7038
  636MOL0     C85735   2.520  11.221   1.031 -0.1201  0.1513  0.5818
  636MOL0     C85736   2.425  11.221   0.908  0.1755  0.0635 -0.5373
  636MOL0     C85737   2.369  11.078   0.891 -0.0822 -0.1096  0.1265
  636MOL0     C85738   2.243  11.093   0.815  0.5753 -0.1720 -0.8368
  636MOL0     C85739   2.162  10.958   0.823 -0.3800 -0.8580  0.1778
  636MOL0     C85740   2.053  10.968   0.718 -0.3740 -0.3206 -0.0088
  636MOL0     C85741   1.951  10.850   0.717 -0.0868  0.3093 -0.5874
  636MOL0     N85742   2.007  10.730   0.666 -0.0911  0.2504  0.5527
  636MOL0     C85743   2.098  10.720   0.562  0.2456 -0.3316 -0.7425
  636MOL0     C85744   2.170  10.607   0.597 -0.4215 -0.9852 -0.4620
  636MOL0     C85745   2.307  10.580   0.538  0.1798  0.3445  0.4523
  636MOL0     C85746   2.422  10.672   0.578 -0.2322 -0.2099  0.5480
  636MOL0     C85747   2.460  10.661   0.732  0.1638 -1.1915  0.8982
  636MOL0     C85748   2.595  10.720   0.763  0.8335  0.0004  0.5947
  636MOL0     O85749   2.672  10.623   0.836 -1.0826 -0.5882 -0.1453
  636MOL0     C85750   2.767  10.664   0.920 -0.6534  0.4973  0.1407
  636MOL0     C85751   2.839  10.782   0.904 -0.1195 -0.8876 -0.0060
  636MOL0     C85752   2.944  10.814   0.992 -0.9055 -0.4805  0.1836
  636MOL0     C85753   2.972  10.735   1.104  0.0757 -0.2033  0.5696
  636MOL0     C85754   3.091  10.762   1.197  0.3644  0.3549 -0.2078
  636MOL0     O85755   3.095  10.890   1.237 -0.7722 -0.0814  0.1298
  636MOL0     C85756   3.204  10.967   1.282 -0.7002  0.1202  0.1083
  636MOL0     C85757   3.332  10.914   1.270  0.4369 -0.1306 -0.0521
  636MOL0     C85758   3.450  10.989   1.291 -0.0037  0.1389  0.4016
  636MOL0     C85759   3.432  11.119   1.345 -0.2981 -0.2930 -0.4811
  636MOL0     O85760   3.543  11.195   1.372 -0.5064 -0.4350  0.7482
  636MOL0     C85761   3.676  11.136   1.371  0.3168  0.1444 -0.2821
  636MOL0     C85762   3.775  11.244   1.369 -0.2641 -0.9526 -0.2133
  636MOL0     C85763   3.839  11.270   1.509  1.1401 -0.1974  0.9274
  636MOL0     C85764   3.732  11.322   1.606  0.2772  0.0054  0.1714
  636MOL0     C85765   3.673  11.217   1.692 -0.2570  0.2785 -0.8218
  636MOL0     C85766   3.626  11.270   1.823  1.0744  0.0799  0.0333
  636MOL0     C85767   3.528  11.178   1.886  0.6709  0.7588  0.2771
  636MOL0     C85768   3.496  11.214   2.028  0.4854 -0.0429  0.3330
  636MOL0    Cl85769   3.374  11.106   2.100  0.2985  0.2500 -0.1574
  636MOL0     C85770   3.309  11.173   1.367 -0.2948  0.4998 -0.1819
  636MOL0     C85771   3.198  11.102   1.325  1.0615  0.3637 -0.7416
  636MOL0     O85772   3.155  10.670   1.247 -0.3711  0.0169 -0.4885
  636MOL0     C85773   2.903  10.620   1.121 -0.3351 -0.2683 -0.4655
  636MOL0     C85774   2.807  10.582   1.025  0.1534  0.6890  0.0452
  636MOL0     N85775   2.107  10.539   0.706 -0.0664 -0.0315  0.0109
  636MOL0     N85776   2.014  10.618   0.742  0.2723 -0.3712 -0.0029
  636MOL0     C85777   2.856  11.320   0.787  0.2855 -0.7852  1.6076
  636MOL0     C85778   2.976  11.256   0.758  0.5119  0.6197  0.3046
  636MOL0     C85779   3.329  11.020   0.682 -0.6660  0.1045 -0.2423
  636MOL0     C85780   3.363  11.016   0.546 -0.2079 -0.1908  1.2215
  636MOL0     C85781   3.492  10.995   0.495 -0.1340 -0.2120  0.1611
  636MOL0     C85782   3.594  10.989   0.592  0.2511 -0.7552 -0.7115
  636MOL0     O85783   3.729  10.962   0.556 -0.0992 -0.4757  0.5130
  636MOL0     C85784   3.802  11.079   0.531 -0.3067 -0.6153 -0.6155
  636MOL0     C85785   3.945  11.048   0.502  0.0961  0.0720  0.4049
  636MOL0     C85786   4.049  11.166   0.489  0.3642  0.2303  0.4740
  636MOL0     C85787   4.089  11.200   0.344 -0.1683 -0.5758 -0.5806
  636MOL0     C85788   4.188  11.308   0.347 -0.2870 -0.2644  0.7730
  636MOL0     C85789   4.268  11.398   0.339 -0.0755 -0.9777  0.3718
  636MOL0     C85790   3.566  10.987   0.729  0.3868 -0.2838  0.3306
  636MOL0     C85791   3.433  10.993   0.779 -0.1775 -0.3378 -0.6191
  636MOL0     C85792   3.410  10.976   0.925  0.1892 -0.5174  0.4988
  636MOL0     H85793   3.028  11.092   1.034 -1.0541 -1.2147 -0.5887
  636MOL0     H85794   2.807  11.186   1.091 -0.5291 -1.8645 -0.0457
  636MOL0     H85795   2.665  11.347   1.126 -0.5802  0.0119 -0.3250
  636MOL0     H85796   2.531  11.433   1.047 -0.3646 -0.9175 -0.6749
  636MOL0     H85797   2.468  11.211   1.126  1.2925  1.0576  1.4960
  636MOL0     H85798   2.586  11.134   1.034 -1.6167 -1.0419  0.0022
  636MOL0     H85799   2.470  11.245   0.811  0.0081  0.1414 -0.5964
  636MOL0     H85800   2.353  11.302   0.924  1.7205  1.3842 -0.0201
  636MOL0     H85801   2.433  11.006   0.840  2.8922  1.0529  1.9665
  636MOL0     H85802   2.352  11.035   0.989  3.3343 -0.8750  0.5019
  636MOL0     H85803   2.172  11.163   0.859 -2.2961 -2.4239 -1.5699
  636MOL0     H85804   2.269  11.117   0.712  1.8274 -1.8893 -0.9761
  636MOL0     H85805   2.214  10.867   0.793 -0.5763 -1.9193  2.7409
  636MOL0     H85806   2.122  10.952   0.925 -2.2343 -0.4759 -0.4746
  636MOL0     H85807   2.093  10.982   0.617 -1.4495  1.3234 -0.2263
  636MOL0     H85808   1.994  11.058   0.736  0.2163  0.6597 -2.5716
  636MOL0     H85809   1.921  10.833   0.820  1.7847 -2.0758 -0.3296
  636MOL0     H85810   1.862  10.880   0.661 -0.1045  4.6046  1.3056
  636MOL0     H85811   2.117  10.795   0.486  1.3321  0.2487  0.0682
  636MOL0     H85812   2.345  10.478   0.553  2.0264  0.7172 -1.1904
  636MOL0     H85813   2.281  10.584   0.431  1.2842 -0.8898  0.1102
  636MOL0     H85814   2.510  10.660   0.514 -0.8505  2.4537 -0.9421
  636MOL0     H85815   2.386  10.771   0.550  1.2165  0.6407  1.5911
  636MOL0     H85816   2.459  10.556   0.764 -0.1118 -1.4200  0.1526
  636MOL0     H85817   2.381  10.716   0.785 -0.2041 -0.4997 -0.3468
  636MOL0     H85818   2.576  10.810   0.822 -1.8052 -1.5100  2.2392
  636MOL0     H85819   2.649  10.749   0.672 -0.5068 -0.1614 -0.2753
  636MOL0     H85820   2.807  10.857   0.833 -1.5457 -0.1245  1.3744
  636MOL0     H85821   3.003  10.904   0.980 -1.8615  0.2227  0.5939
  636MOL0     H85822   3.356  10.810   1.249  0.2588 -0.6205  2.0318
  636MOL0     H85823   3.545  10.938   1.281 -0.7214 -1.5394  1.6406
  636MOL0     H85824   3.696  11.058   1.446  0.6478  0.7658  0.2862
  636MOL0     H85825   3.691  11.095   1.271 -0.5536  1.1656 -0.8395
  636MOL0     H85826   3.856  11.214   1.304 -0.3610  1.3629 -1.5092
  636MOL0     H85827   3.722  11.335   1.339 -1.9131 -0.7831  2.7913
  636MOL0     H85828   3.892  11.184   1.552 -2.5980 -3.2549  0.0113
  636MOL0     H85829   3.912  11.349   1.490  1.1034 -0.4845 -0.5736
  636MOL0     H85830   3.660  11.386   1.554 -0.5677  2.9921  4.5008
  636MOL0     H85831   3.788  11.391   1.668  0.8553  2.4349 -2.8105
  636MOL0     H85832   3.757  11.153   1.722 -0.6788  0.5542  1.0961
  636MOL0     H85833   3.587  11.171   1.644 -1.7552  2.8419 -0.7647
  636MOL0     H85834   3.711  11.288   1.889  1.0833  0.5468 -0.1023
  636MOL0     H85835   3.586  11.370   1.802  1.5402  0.0082 -1.2939
  636MOL0     H85836   3.573  11.078   1.879 -0.6820  0.2618 -3.0079
  636MOL0     H85837   3.434  11.167   1.831  1.3180 -2.7464 -0.3915
  636MOL0     H85838   3.591  11.214   2.081  1.7497 -0.1973 -1.7983
  636MOL0     H85839   3.463  11.318   2.019  3.3821  0.8530 -0.9959
  636MOL0     H85840   3.317  11.271   1.411  3.7147  0.8477 -1.3025
  636MOL0     H85841   3.105  11.158   1.326  2.5618  3.1106  1.5075
  636MOL0     H85842   2.911  10.556   1.208  0.1310  0.6824  0.2135
  636MOL0     H85843   2.765  10.483   1.032  0.5915  0.4846 -0.1457
  636MOL0     H85844   2.815  11.394   0.720  2.8862  0.0176  0.7537
  636MOL0     H85845   3.028  11.275   0.664 -0.8972 -3.7070 -1.5941
  636MOL0     H85846   3.285  11.026   0.471  1.5083  2.3841 -0.3572
  636MOL0     H85847   3.516  10.978   0.390  1.9084 -1.7689  0.8281
  636MOL0     H85848   3.796  11.144   0.619 -0.4598 -2.0560  0.4847
  636MOL0     H85849   3.756  11.120   0.441  3.4024  1.0989 -1.9359
  636MOL0     H85850   3.956  10.995   0.407  0.2197 -1.0759  1.0422
  636MOL0     H85851   3.980  10.973   0.573 -3.4336 -1.7752  0.4334
  636MOL0     H85852   4.138  11.133   0.544 -0.3962  1.2244  2.3974
  636MOL0     H85853   4.009  11.254   0.541 -0.3060  1.5154 -2.0279
  636MOL0     H85854   4.134  11.114   0.294  2.6885  0.8469 -0.6679
  636MOL0     H85855   4.000  11.239   0.295 -1.1624 -3.0414 -0.8744
  636MOL0     H85856   4.336  11.480   0.350 -2.9058  1.6940 -0.6460
  636MOL0     H85857   3.646  10.981   0.802 -3.3720 -1.5321  4.8380
  636MOL0     H85858   3.414  11.071   0.978 -2.5902 -0.2090  0.2867
  636MOL0     H85859   3.309  10.936   0.931  0.5988 -2.3486 -2.5008
  636MOL0     H85860   3.474  10.896   0.964  1.8412 -0.0942 -1.1819
  637MOL0     O85861  10.179   1.162   2.036 -0.9361 -0.0644  0.2200
  637MOL0     C85862  10.279   1.125   1.978 -0.9062 -0.2399 -0.3093
  637MOL0     O85863  10.315   0.991   1.965  1.0500 -0.5110  0.2227
  637MOL0     C85864  10.217   0.890   1.980  0.3498 -0.8647  0.4291
  637MOL0     C85865  10.078   0.899   1.957  0.0812  0.0204  0.6367
  637MOL0     C85866   9.984   0.803   1.969 -0.4900  0.1466 -0.4189
  637MOL0     C85867  10.027   0.675   2.013  0.4475  0.6785 -0.0322
  637MOL0     O85868   9.944   0.580   2.053 -0.4589  0.7803 -0.4423
  637MOL0     C85869   9.818   0.599   2.104  0.2631 -0.5687 -0.1992
  637MOL0     C85870   9.772   0.463   2.156 -0.1877  0.2198 -0.7346
  637MOL0     C85871   9.707   0.374   2.048  0.6608  0.0225 -0.2320
  637MOL0     C85872   9.553   0.393   2.056 -0.1789 -0.1979 -0.0789
  637MOL0     C85873   9.468   0.350   1.927 -1.0109 -0.0235  0.7421
  637MOL0     C85874   9.455   0.199   1.910 -0.0218  0.1009 -0.5510
  637MOL0     C85875   9.367   0.165   1.789 -0.2622  0.0430  0.8954
  637MOL0     C85876   9.361   0.010   1.786  0.1765  0.3472 -0.7729
  637MOL0     N85877   9.300  -0.051   1.910 -0.0196 -0.3275  0.1673
  637MOL0     C85878   9.169  -0.046   1.931 -0.0860  0.2355  0.0678
  637MOL0     C85879   9.152  -0.136   2.030 -0.9995 -0.2805 -0.6086
  637MOL0     C85880   9.024  -0.168   2.100  0.7761  0.0938  0.0202
  637MOL0     C85881   8.946  -0.043   2.158  0.1106 -0.0180  0.6723
  637MOL0     C85882   8.862  -0.064   2.279  0.7671 -0.6162 -0.8650
  637MOL0     C85883   8.727  -0.142   2.253  0.1552 -0.3704  0.4832
  637MOL0     O85884   8.641  -0.046   2.186 -0.0386 -0.3238  0.8090
  637MOL0     C85885   8.527  -0.103   2.131 -0.2131 -1.5101  0.9690
  637MOL0     C85886   8.408  -0.048   2.171 -0.2188 -0.0924  0.5113
  637MOL0     C85887   8.287  -0.101   2.122  0.5202  0.3889  0.2767
  637MOL0     C85888   8.284  -0.203   2.023 -0.9600 -0.7913 -1.0348
  637MOL0     C85889   8.164  -0.261   1.960  1.0502  0.2736  0.1304
  637MOL0     O85890   8.177  -0.377   1.878  0.0824  0.4374  0.1552
  637MOL0     C85891   8.059  -0.428   1.821  0.1109  0.1406  0.5763
  637MOL0     C85892   7.966  -0.345   1.759 -0.0032  0.6646  0.5620
  637MOL0     C85893   7.860  -0.399   1.683  0.7010  0.1933  0.3848
  637MOL0     C85894   7.837  -0.541   1.681  0.2360 -0.4120  0.5647
  637MOL0     O85895   7.730  -0.606   1.618 -0.1400  0.9096  0.6175
  637MOL0     C85896   7.599  -0.542   1.611  0.5515  0.8496  0.2256
  637MOL0     C85897   7.527  -0.544   1.477  0.3406 -0.5226 -0.4682
  637MOL0     C85898   7.379  -0.527   1.511  0.5358  0.0327 -0.6103
  637MOL0     C85899   7.305  -0.498   1.377  0.8371 -0.4460  0.2068
  637MOL0     C85900   7.155  -0.480   1.376 -0.1188  0.3672  0.9115
  637MOL0     C85901   7.091  -0.596   1.454 -0.4471  0.5925 -0.2534
  637MOL0     C85902   6.946  -0.611   1.424  0.4866 -0.7941  0.0658
  637MOL0     C85903   6.854  -0.515   1.515  0.5135  0.8801  0.6852
  637MOL0    Cl85904   6.708  -0.609   1.541  0.0197 -0.1265  0.0469
  637MOL0     C85905   7.938  -0.621   1.733 -0.4326 -0.0862 -0.3854
  637MOL0     C85906   8.048  -0.561   1.801  0.0477  0.9692 -0.0379
  637MOL0     O85907   8.061  -0.197   1.989 -0.9254  0.1271  0.9523
  637MOL0     C85908   8.412  -0.250   1.974  0.2512  0.4999 -0.1265
  637MOL0     C85909   8.536  -0.205   2.028  0.0048  0.4213 -0.0926
  637MOL0     N85910   9.277  -0.200   2.058 -0.4447  0.5884  0.4656
  637MOL0     N85911   9.359  -0.152   1.976  0.3933  0.2716 -0.4288
  637MOL0     C85912  10.162   0.656   2.027 -0.1705  0.9288 -0.2021
  637MOL0     C85913  10.251   0.756   2.008  0.1923 -0.0639 -0.6976
  637MOL0     C85914  10.383   1.228   1.932 -0.0198  0.4366  0.4317
  637MOL0     C85915  10.516   1.192   1.913  0.8822  1.1096  0.6126
  637MOL0     C85916  10.617   1.278   1.872 -0.5946  0.0743 -1.0820
  637MOL0     C85917  10.596   1.416   1.871 -0.4118 -0.5490 -0.5253
  637MOL0     O85918  10.700   1.501   1.838 -0.2094  0.1029  0.0101
  637MOL0     C85919  10.666   1.624   1.766 -0.3120  1.2204 -0.1116
  637MOL0     C85920  10.694   1.740   1.853  1.0025  0.0723  0.2077
  637MOL0     C85921  10.838   1.794   1.848 -0.4336  0.3731 -0.1397
  637MOL0     C85922  10.919   1.711   1.948 -0.1827 -0.0666 -0.3363
  637MOL0     C85923  11.065   1.734   1.951  1.1936 -0.0190  0.3486
  637MOL0     C85924  11.185   1.748   1.958 -0.3197 -0.0186  0.4583
  637MOL0     C85925  10.468   1.459   1.906 -0.0640  0.0155  0.3084
  637MOL0     C85926  10.369   1.372   1.941  0.0488  0.6062  0.1222
  637MOL0     C85927  10.230   1.425   1.978 -0.1630  0.1690 -0.1003
  637MOL0     H85928  10.028   0.993   1.935 -0.5134 -0.2313  0.9005
  637MOL0     H85929   9.876   0.817   1.966 -0.3728  1.6269  0.8847
  637MOL0     H85930   9.826   0.669   2.188 -0.8355  1.9608 -2.0600
  637MOL0     H85931   9.740   0.628   2.032  1.8122  1.5825 -1.0954
  637MOL0     H85932   9.694   0.470   2.233  1.2415 -2.1254  1.0618
  637MOL0     H85933   9.859   0.415   2.201 -0.2714  0.0425 -0.7617
  637MOL0     H85934   9.742   0.271   2.062 -0.2685 -0.4555 -1.2672
  637MOL0     H85935   9.741   0.398   1.947 -1.6186  1.1546 -0.7925
  637MOL0     H85936   9.519   0.341   2.147  0.5114  0.4965  0.5936
  637MOL0     H85937   9.527   0.498   2.070 -1.9291 -0.4691 -1.0524
  637MOL0     H85938   9.366   0.388   1.933 -1.5775 -1.6162  2.5347
  637MOL0     H85939   9.520   0.391   1.840 -3.7086  1.2563 -0.3853
  637MOL0     H85940   9.558   0.170   1.888  0.2395  1.9064 -1.8834
  637MOL0     H85941   9.421   0.146   2.000  4.3322  1.6244  2.3091
  637MOL0     H85942   9.409   0.201   1.694 -0.4326 -0.1721  0.7371
  637MOL0     H85943   9.264   0.201   1.798  0.8990  4.4666 -0.5655
  637MOL0     H85944   9.316  -0.028   1.694  1.5761 -1.5486 -0.7281
  637MOL0     H85945   9.464  -0.028   1.783  0.1128  0.1379 -0.3267
  637MOL0     H85946   9.104   0.012   1.866  1.3780  1.5734 -0.2472
  637MOL0     H85947   8.952  -0.216   2.033  3.4487 -4.6698  0.1509
  637MOL0     H85948   9.043  -0.240   2.180 -0.6527  0.0705  0.3594
  637MOL0     H85949   9.022   0.028   2.190  0.2346  0.2494 -0.2131
  637MOL0     H85950   8.885  -0.002   2.078  3.0455  2.0151 -0.6805
  637MOL0     H85951   8.818   0.035   2.298  0.9413 -0.2825 -2.1514
  637MOL0     H85952   8.914  -0.099   2.369 -3.1494  0.8916  2.2967
  637MOL0     H85953   8.683  -0.172   2.349  0.6672  1.6092  1.4020
  637MOL0     H85954   8.743  -0.236   2.200  1.7093 -1.2664  2.3993
  637MOL0     H85955   8.407   0.024   2.252  2.2006 -0.2729  0.7726
  637MOL0     H85956   8.192  -0.062   2.157  0.0127 -0.1574 -0.4632
  637MOL0     H85957   7.980  -0.238   1.760 -2.1377  1.0361 -1.1830
  637MOL0     H85958   7.793  -0.327   1.637  1.1857  1.0648  1.0156
  637MOL0     H85959   7.535  -0.600   1.679  1.0552 -1.3312 -1.0656
  637MOL0     H85960   7.598  -0.440   1.650  0.2365  0.0120  2.5590
  637MOL0     H85961   7.568  -0.476   1.402 -1.6283 -0.1154 -1.2096
  637MOL0     H85962   7.533  -0.643   1.430 -1.2056 -0.0082 -1.8134
  637MOL0     H85963   7.348  -0.623   1.553  2.2210 -1.2486 -2.1520
  637MOL0     H85964   7.363  -0.453   1.589 -0.0487 -2.3350  1.6610
  637MOL0     H85965   7.322  -0.576   1.302 -1.0534  1.4342 -2.3820
  637MOL0     H85966   7.344  -0.404   1.338  0.1569  1.7621  4.3004
  637MOL0     H85967   7.118  -0.473   1.274 -0.0581 -0.2014  0.8474
  637MOL0     H85968   7.125  -0.383   1.416 -2.3693 -0.3799  1.1786
  637MOL0     H85969   7.142  -0.687   1.419  1.7157  1.2460  0.9926
  637MOL0     H85970   7.112  -0.592   1.561 -0.7569  0.8533 -0.2046
  637MOL0     H85971   6.910  -0.713   1.442  1.6167 -1.0561  0.9385
  637MOL0     H85972   6.922  -0.577   1.323  1.0143  0.0303  0.2125
  637MOL0     H85973   6.891  -0.487   1.613 -1.3141  0.0856  1.6513
  637MOL0     H85974   6.830  -0.426   1.456  0.2105 -0.4658 -1.3489
  637MOL0     H85975   7.931  -0.729   1.727 -1.7778 -0.1141  0.9853
  637MOL0     H85976   8.134  -0.623   1.826  1.0739  1.8485 -1.2973
  637MOL0     H85977   8.420  -0.319   1.891 -1.8102  0.6553 -0.5036
  637MOL0     H85978   8.629  -0.243   1.988 -0.3099 -0.2871 -0.1724
  637MOL0     H85979  10.194   0.556   2.052 -2.3909  0.1624 -0.1985
  637MOL0     H85980  10.354   0.726   2.024  0.1982  0.4647  0.3724
  637MOL0     H85981  10.545   1.089   1.927 -0.6195  0.0254 -3.0877
  637MOL0     H85982  10.711   1.240   1.835  0.1061  0.7602 -0.0622
  637MOL0     H85983  10.560   1.623   1.739 -0.4955 -1.8529  0.4567
  637MOL0     H85984  10.729   1.629   1.677 -0.4858  1.4260 -0.2238
  637MOL0     H85985  10.663   1.709   1.953 -0.5031  0.3819 -0.1492
  637MOL0     H85986  10.631   1.825   1.824 -0.5122 -0.7652  0.9224
  637MOL0     H85987  10.837   1.897   1.884  0.1354 -0.5954  2.8826
  637MOL0     H85988  10.887   1.800   1.750  1.1438  1.4008  0.6680
  637MOL0     H85989  10.883   1.721   2.051  0.5856  2.9722 -0.2733
  637MOL0     H85990  10.913   1.605   1.922  0.7323 -0.1960 -0.0800
  637MOL0     H85991  11.290   1.766   1.961 -0.3434 -0.0002  2.1421
  637MOL0     H85992  10.442   1.564   1.896  3.0529  1.0880  2.0833
  637MOL0     H85993  10.209   1.397   2.082 -1.4179  1.2626 -0.0449
  637MOL0     H85994  10.228   1.533   1.961 -0.5437  0.0366 -0.9470
  637MOL0     H85995  10.146   1.389   1.918 -1.1946  2.8418 -0.3976
  638MOL0     O85996  10.305   5.574   3.312 -0.8001  0.0858 -0.0994
  638MOL0     C85997  10.321   5.507   3.414 -0.1690 -0.3635 -1.2212
  638MOL0     O85998  10.433   5.444   3.451 -0.7560  0.2728 -0.2881
  638MOL0     C85999  10.548   5.457   3.379  0.5676  0.3940 -0.0396
  638MOL0     C86000  10.673   5.478   3.443  0.6476 -1.3766 -0.9793
  638MOL0     C86001  10.789   5.496   3.367  0.3886  0.2822 -0.9199
  638MOL0     C86002  10.785   5.484   3.228  0.3172 -0.4875  0.5208
  638MOL0     O86003  10.893   5.522   3.154 -0.1679 -0.4391  0.4304
  638MOL0     C86004  10.902   5.476   3.007  0.2602  0.1771 -0.4753
  638MOL0     C86005  11.043   5.488   2.954 -1.2677 -1.1241  0.2302
  638MOL0     C86006  11.047   5.447   2.807 -0.7157 -0.4996  0.6020
  638MOL0     C86007  11.203   5.434   2.776 -0.2868 -0.1223  0.1197
  638MOL0     C86008  11.220   5.394   2.627  0.1046 -0.3970  0.3782
  638MOL0     C86009  11.359   5.345   2.605 -0.0041  0.6690  1.0602
  638MOL0     C86010  11.375   5.278   2.467 -0.5200 -0.0913  0.2487
  638MOL0     C86011  11.527   5.238   2.457  0.5842  1.0889  0.7122
  638MOL0     N86012  11.561   5.174   2.325  0.3547 -0.5636 -0.1406
  638MOL0     C86013  11.557   5.047   2.281  0.6637 -0.4695 -0.0936
  638MOL0     C86014  11.628   5.042   2.169  0.0780  0.3039  1.2023
  638MOL0     C86015  11.635   4.921   2.078 -0.0665 -0.8992  1.0074
  638MOL0     C86016  11.769   4.920   1.999  0.5908 -0.4304  1.2719
  638MOL0     C86017  11.875   4.895   2.105 -0.4503  0.9092 -0.0162
  638MOL0     C86018  12.008   4.882   2.035 -0.4328 -0.1071 -0.0663
  638MOL0     O86019  12.115   4.899   2.137  0.6433  0.5567  0.0826
  638MOL0     C86020  12.240   4.892   2.078 -0.6800 -0.6255 -0.4400
  638MOL0     C86021  12.351   4.946   2.156  0.2524 -0.3616 -0.2546
  638MOL0     C86022  12.478   4.954   2.102 -0.1707  0.0925  0.0755
  638MOL0     C86023  12.516   4.908   1.977 -0.7645 -0.3560 -0.3868
  638MOL0     C86024  12.659   4.900   1.940  0.5031  0.7569 -0.0102
  638MOL0     O86025  12.744   4.939   2.034  0.2066  0.0188 -0.4089
  638MOL0     C86026  12.880   4.919   2.026  0.1714 -0.1887 -0.0432
  638MOL0     C86027  12.943   4.792   2.002  0.2097  0.1308 -0.5600
  638MOL0     C86028  13.085   4.777   1.994  0.6874  0.0315 -0.5157
  638MOL0     C86029  13.162   4.880   2.047 -0.4371  0.8735 -0.1978
  638MOL0     O86030  13.298   4.860   2.034 -0.2822  0.4372 -0.1829
  638MOL0     C86031  13.394   4.958   2.053  0.3762  0.5012 -0.4075
  638MOL0     C86032  13.532   4.886   2.030  0.5162  0.1236  0.7029
  638MOL0     C86033  13.552   4.766   2.129  1.0932 -0.4229 -0.4378
  638MOL0     C86034  13.693   4.715   2.133 -0.8158 -0.0874 -0.7888
  638MOL0     C86035  13.712   4.594   2.223 -0.1176  0.7184  0.1599
  638MOL0     C86036  13.696   4.620   2.378  0.1444 -0.0667 -0.5424
  638MOL0     C86037  13.706   4.487   2.454  0.3476 -0.0163  0.0531
  638MOL0     C86038  13.833   4.399   2.440  0.0040 -0.6727  0.2455
  638MOL0    Cl86039  13.982   4.494   2.494 -0.0609 -0.2703 -0.0070
  638MOL0     C86040  13.105   5.006   2.066 -0.0723  0.0792 -0.4400
  638MOL0     C86041  12.969   5.020   2.063 -0.2227  0.6268 -0.2996
  638MOL0     O86042  12.696   4.843   1.838  0.1947 -0.2516  0.0103
  638MOL0     C86043  12.415   4.862   1.897 -0.6850  0.5090 -0.0168
  638MOL0     C86044  12.278   4.856   1.948  0.6313  0.6107  0.3651
  638MOL0     N86045  11.658   5.171   2.129 -0.4788  0.0029  0.0850
  638MOL0     N86046  11.601   5.246   2.221  0.8716 -0.7086 -0.8677
  638MOL0     C86047  10.661   5.454   3.162 -0.1160  0.2215 -1.3002
  638MOL0     C86048  10.545   5.446   3.245  0.2179  0.0882  0.6331
  638MOL0     C86049  10.209   5.485   3.507  0.5034 -0.4936  0.9215
  638MOL0     C86050  10.225   5.400   3.617 -0.2811  0.1323  0.2600
  638MOL0     C86051  10.128   5.369   3.705 -0.8037 -0.0350 -0.7037
  638MOL0     C86052   9.999   5.432   3.696  0.0947 -0.2226  1.3535
  638MOL0     O86053   9.910   5.387   3.787 -0.3934 -0.4319 -0.1894
  638MOL0     C86054   9.778   5.435   3.791 -0.5710 -0.7364 -0.2467
  638MOL0     C86055   9.690   5.374   3.685 -0.1708  0.2899  1.0052
  638MOL0     C86056   9.717   5.219   3.658 -0.9744  0.1822  0.1745
  638MOL0     C86057   9.591   5.134   3.604  0.2576  0.1517 -0.0924
  638MOL0     C86058   9.488   5.128   3.709  0.4840  0.0294  0.5765
  638MOL0     C86059   9.404   5.128   3.795  0.0296 -0.0226  0.3265
  638MOL0     C86060   9.985   5.532   3.598 -0.6931  0.8129 -0.8796
  638MOL0     C86061  10.081   5.556   3.499 -0.3323  0.1572 -0.3227
  638MOL0     C86062  10.059   5.677   3.408 -0.4766  0.0514 -0.0472
  638MOL0     H86063  10.675   5.480   3.551  0.0236 -2.6301 -0.9247
  638MOL0     H86064  10.886   5.524   3.406  0.9131 -0.3498 -1.7292
  638MOL0     H86065  10.886   5.369   2.995 -0.0840  0.0461  0.9709
  638MOL0     H86066  10.832   5.536   2.948  0.0596  0.9648  0.5420
  638MOL0     H86067  11.110   5.427   3.015  2.2010  1.5240 -0.5557
  638MOL0     H86068  11.079   5.591   2.962 -0.9359 -1.0929 -1.2683
  638MOL0     H86069  11.010   5.527   2.742  0.8659  0.3757  0.7298
  638MOL0     H86070  11.001   5.350   2.788  1.4334 -1.5105  0.3393
  638MOL0     H86071  11.251   5.531   2.793 -0.4621  0.7848 -3.5725
  638MOL0     H86072  11.246   5.359   2.842  1.6961  2.7122  2.2749
  638MOL0     H86073  11.145   5.319   2.602 -0.4983  0.9964 -2.4184
  638MOL0     H86074  11.198   5.480   2.563  6.1211  1.6834  0.4423
  638MOL0     H86075  11.420   5.436   2.606  2.1910 -0.5416 -2.6712
  638MOL0     H86076  11.387   5.271   2.681 -0.4350 -1.2794 -0.5758
  638MOL0     H86077  11.341   5.344   2.387  1.2749  0.5652 -0.0070
  638MOL0     H86078  11.316   5.186   2.466  1.4830 -1.4563  0.9697
  638MOL0     H86079  11.590   5.327   2.463  1.6968  0.3412  0.3849
  638MOL0     H86080  11.561   5.182   2.544  0.0362  1.3898  1.1234
  638MOL0     H86081  11.510   4.964   2.332  1.1104 -0.9425 -0.4393
  638MOL0     H86082  11.627   4.833   2.144  0.2524  0.1498  2.4951
  638MOL0     H86083  11.546   4.912   2.016 -1.2055 -2.2301  2.7287
  638MOL0     H86084  11.770   4.856   1.911  2.3895  0.3836  0.6585
  638MOL0     H86085  11.782   5.016   1.947 -4.5061 -0.8122 -1.3355
  638MOL0     H86086  11.843   4.798   2.146 -1.7241 -0.4239 -3.7066
  638MOL0     H86087  11.880   4.969   2.185 -2.0077  1.4802 -0.4002
  638MOL0     H86088  12.031   4.955   1.957  4.1174 -1.0362  0.1690
  638MOL0     H86089  12.019   4.784   1.989 -2.4333 -1.2561  1.7208
  638MOL0     H86090  12.336   5.000   2.249  1.1067 -0.4515 -0.0605
  638MOL0     H86091  12.555   4.996   2.167 -0.5782  2.8966 -1.0815
  638MOL0     H86092  12.876   4.711   1.975 -1.2458  0.7527  0.9951
  638MOL0     H86093  13.131   4.686   1.957  3.3293  2.0321 -2.5746
  638MOL0     H86094  13.371   5.044   1.989 -5.5469  1.1862  2.0422
  638MOL0     H86095  13.383   4.992   2.156 -2.4751 -2.1631  0.3169
  638MOL0     H86096  13.551   4.845   1.930 -1.9473  1.2812 -0.3141
  638MOL0     H86097  13.610   4.961   2.046 -2.2698  3.2008  0.9141
  638MOL0     H86098  13.520   4.810   2.224 -2.4277  1.9647 -2.4862
  638MOL0     H86099  13.479   4.693   2.092 -0.2049  1.0871 -0.9689
  638MOL0     H86100  13.747   4.804   2.164 -3.2792  2.0391 -2.1935
  638MOL0     H86101  13.730   4.674   2.039  3.0229  3.2089 -0.9653
  638MOL0     H86102  13.813   4.554   2.211 -0.1931  0.3907  0.5749
  638MOL0     H86103  13.651   4.509   2.191  0.8697  0.5538 -1.3788
  638MOL0     H86104  13.770   4.695   2.407  0.5220 -0.4663 -0.4604
  638MOL0     H86105  13.597   4.659   2.400  1.0783  2.4716 -0.4892
  638MOL0     H86106  13.616   4.427   2.444 -0.0917  0.3736  1.3962
  638MOL0     H86107  13.703   4.525   2.557  0.8683  0.3554 -0.0665
  638MOL0     H86108  13.819   4.313   2.506 -0.0022  0.0891  1.2642
  638MOL0     H86109  13.857   4.378   2.335 -3.2132 -1.5579 -0.4226
  638MOL0     H86110  13.171   5.091   2.070  1.7710 -1.1575 -2.4164
  638MOL0     H86111  12.924   5.111   2.099 -2.7489  0.0705 -1.8541
  638MOL0     H86112  12.431   4.840   1.791 -1.7071 -2.2589  0.3192
  638MOL0     H86113  12.195   4.823   1.886 -0.2089 -0.9772  2.2080
  638MOL0     H86114  10.649   5.441   3.055  0.4646  0.3424 -1.3823
  638MOL0     H86115  10.454   5.428   3.187  2.2810 -2.0110 -2.2405
  638MOL0     H86116  10.321   5.350   3.614  1.2520  2.8740 -0.9712
  638MOL0     H86117  10.122   5.285   3.774  0.3636 -0.0066 -0.5486
  638MOL0     H86118   9.771   5.543   3.783 -1.3399 -0.8112 -0.6866
  638MOL0     H86119   9.737   5.408   3.889  1.5028 -0.4643  0.7585
  638MOL0     H86120   9.710   5.423   3.590  2.4285  0.8040  1.7391
  638MOL0     H86121   9.583   5.389   3.705 -0.7465  0.0378 -1.6106
  638MOL0     H86122   9.757   5.175   3.750  1.0083  2.4957  0.5123
  638MOL0     H86123   9.789   5.220   3.576 -0.8167  2.1940  0.2941
  638MOL0     H86124   9.546   5.169   3.511  0.6379 -2.5989 -1.4089
  638MOL0     H86125   9.628   5.033   3.583 -2.0058 -0.8195  0.3489
  638MOL0     H86126   9.317   5.125   3.858 -0.0876 -0.6972  0.1410
  638MOL0     H86127   9.898   5.597   3.592 -0.6761  1.1199  1.2529
  638MOL0     H86128   9.951   5.696   3.413 -1.0038 -2.8627  1.9767
  638MOL0     H86129  10.122   5.760   3.443  0.6000 -1.2020  1.1056
  638MOL0     H86130  10.079   5.656   3.303  1.9770 -2.6125  0.8182
  639MOL0     O86131   6.998   5.102   1.080  0.0149  0.0203 -0.7440
  639MOL0     C86132   7.070   5.052   0.994  0.6070 -0.7288 -0.2214
  639MOL0     O86133   7.151   4.947   1.016  0.1189  0.3828 -0.1030
  639MOL0     C86134   7.146   4.881   1.142  0.4709 -0.2061  0.5717
  639MOL0     C86135   7.024   4.833   1.198  0.3628  0.3590 -0.6357
  639MOL0     C86136   7.027   4.764   1.319  0.7397  0.8691  0.2054
  639MOL0     C86137   7.152   4.702   1.361 -0.3114 -0.7899 -0.0181
  639MOL0     O86138   7.172   4.602   1.455  0.1136  0.1985 -0.0070
  639MOL0     C86139   7.056   4.537   1.506  1.0472 -0.4522  0.4501
  639MOL0     C86140   7.103   4.413   1.575 -0.1156  0.5351  0.0036
  639MOL0     C86141   7.119   4.309   1.470  0.7667  0.0277  0.3194
  639MOL0     C86142   7.222   4.206   1.504 -0.0296 -1.0600 -0.4305
  639MOL0     C86143   7.189   4.072   1.439 -1.1627 -0.1730  0.1825
  639MOL0     C86144   7.311   3.975   1.442 -0.3321 -0.1586 -0.3386
  639MOL0     C86145   7.343   3.920   1.584 -0.8006 -0.1774  0.0141
  639MOL0     C86146   7.483   3.856   1.585  0.4205 -0.5383 -1.3200
  639MOL0     N86147   7.589   3.954   1.570 -0.2147  1.2231  0.8115
  639MOL0     C86148   7.604   4.065   1.650  0.2073 -0.4723  0.4326
  639MOL0     C86149   7.701   4.131   1.588  0.0484  0.2778  0.3351
  639MOL0     C86150   7.753   4.264   1.631 -0.2356 -0.5334  0.3506
  639MOL0     C86151   7.910   4.267   1.648  1.0720  0.1734 -0.0484
  639MOL0     C86152   7.944   4.409   1.672 -0.3554  0.1784  0.8873
  639MOL0     C86153   8.082   4.430   1.653 -0.3221  0.2383 -0.6595
  639MOL0     O86154   8.134   4.538   1.735  0.5177 -0.6941 -0.2861
  639MOL0     C86155   8.271   4.548   1.749 -0.5973 -0.4782 -0.1530
  639MOL0     C86156   8.371   4.461   1.695 -0.6263  0.2732 -0.5933
  639MOL0     C86157   8.509   4.483   1.711 -0.2115 -0.1493  0.0021
  639MOL0     C86158   8.556   4.595   1.786 -0.2158 -0.0986  0.4289
  639MOL0     C86159   8.695   4.617   1.814 -1.5144 -0.9901 -0.1642
  639MOL0     O86160   8.774   4.510   1.781  0.4910  0.3420  0.9316
  639MOL0     C86161   8.903   4.502   1.821  0.3214 -0.1897 -0.7541
  639MOL0     C86162   8.999   4.496   1.720 -1.5602  0.1323  0.4034
  639MOL0     C86163   9.138   4.496   1.762  0.0974  0.0973  0.2357
  639MOL0     C86164   9.175   4.520   1.897  1.0402 -0.5379 -0.3659
  639MOL0     O86165   9.309   4.543   1.924  0.7808  0.4243  0.0311
  639MOL0     C86166   9.336   4.598   2.057  0.0924 -0.6689  0.2065
  639MOL0     C86167   9.477   4.667   2.064 -0.3134 -0.5481 -0.5571
  639MOL0     C86168   9.563   4.623   2.183 -0.0010  0.6672  0.0614
  639MOL0     C86169   9.630   4.489   2.157  1.0000 -0.2519  0.5534
  639MOL0     C86170   9.731   4.456   2.252 -0.1587 -0.9686 -0.3543
  639MOL0     C86171   9.797   4.324   2.222  0.1236  0.0973  0.7002
  639MOL0     C86172   9.911   4.301   2.318  0.0206 -0.2870  0.3070
  639MOL0     C86173   9.968   4.159   2.307 -0.2122 -0.6045 -0.0315
  639MOL0    Cl86174  10.037   4.097   2.460  0.4048 -0.3926  0.0541
  639MOL0     C86175   9.076   4.500   1.991  0.0034  0.6031  0.4554
  639MOL0     C86176   8.942   4.491   1.957  0.6145 -0.1673 -0.1854
  639MOL0     O86177   8.737   4.717   1.886 -0.1371  0.0140  0.4636
  639MOL0     C86178   8.454   4.687   1.832 -0.6384  0.2759 -0.3526
  639MOL0     C86179   8.318   4.660   1.820  0.1999  0.6668  0.2605
  639MOL0     N86180   7.735   4.058   1.471 -0.5365 -0.2483  0.1286
  639MOL0     N86181   7.658   3.962   1.455 -0.0977  0.8027  0.2781
  639MOL0     C86182   7.262   4.742   1.300 -0.1502 -0.5305 -0.2290
  639MOL0     C86183   7.269   4.836   1.195  0.4620 -0.8054  0.2971
  639MOL0     C86184   7.069   5.101   0.852 -0.4092  0.2207  0.2203
  639MOL0     C86185   7.167   5.045   0.761  0.6604 -0.2708 -0.3848
  639MOL0     C86186   7.179   5.070   0.629 -0.5947  1.1743 -0.0613
  639MOL0     C86187   7.100   5.174   0.571 -0.1040  0.3259  0.8751
  639MOL0     O86188   7.140   5.208   0.438 -0.2483  0.3763 -0.2186
  639MOL0     C86189   7.048   5.287   0.366  0.1445  0.3964  0.2646
  639MOL0     C86190   6.919   5.210   0.310 -0.8547 -0.4407  0.1482
  639MOL0     C86191   6.954   5.083   0.235  0.0307 -0.1209  0.3640
  639MOL0     C86192   6.828   5.033   0.149  0.3585 -0.0749 -0.0865
  639MOL0     C86193   6.849   4.894   0.088 -0.7163 -0.5026 -0.1710
  639MOL0     C86194   6.871   4.791   0.028 -0.2526 -0.1271 -0.1135
  639MOL0     C86195   7.010   5.237   0.651 -0.3372 -0.1617  0.2312
  639MOL0     C86196   6.990   5.207   0.786  0.2975  0.8132 -0.8678
  639MOL0     C86197   6.888   5.281   0.871  0.9661  0.8667 -0.0635
  639MOL0     H86198   6.930   4.855   1.148 -0.6649 -0.9073  0.6796
  639MOL0     H86199   6.930   4.738   1.361  0.9887 -0.8809 -0.2345
  639MOL0     H86200   7.004   4.600   1.578  1.4273 -1.0011  1.2145
  639MOL0     H86201   6.982   4.514   1.428  1.0576 -2.1163  0.8953
  639MOL0     H86202   7.024   4.386   1.645 -2.5446  2.4110 -1.8077
  639MOL0     H86203   7.200   4.433   1.620  1.3667  0.5798 -2.9421
  639MOL0     H86204   7.148   4.360   1.378  1.3589  0.6357  0.8417
  639MOL0     H86205   7.020   4.264   1.456  0.0782  1.1666  1.3317
  639MOL0     H86206   7.314   4.255   1.472 -1.3245  0.5183 -1.9251
  639MOL0     H86207   7.236   4.200   1.612 -4.0438 -1.9149  0.1915
  639MOL0     H86208   7.098   4.035   1.487  0.3640 -1.7643  1.9899
  639MOL0     H86209   7.150   4.094   1.339 -0.6011  1.9261  0.3757
  639MOL0     H86210   7.299   3.890   1.373 -1.2088 -1.1700  1.0154
  639MOL0     H86211   7.395   4.038   1.412  0.3916 -0.4048  1.1235
  639MOL0     H86212   7.265   3.845   1.599 -1.4517  0.4138 -0.3902
  639MOL0     H86213   7.353   3.997   1.661  0.5988  0.6839 -0.9672
  639MOL0     H86214   7.500   3.813   1.684 -0.7806  0.3523 -0.7001
  639MOL0     H86215   7.500   3.777   1.511  2.4353 -0.0326 -1.4723
  639MOL0     H86216   7.561   4.092   1.746  0.6016 -0.1773  0.5295
  639MOL0     H86217   7.725   4.336   1.554  1.3711  1.1650  1.2845
  639MOL0     H86218   7.701   4.302   1.719  0.7265 -0.9383  1.1063
  639MOL0     H86219   7.944   4.197   1.726 -1.5625 -1.4231 -0.2201
  639MOL0     H86220   7.952   4.219   1.559  1.3923 -2.0824  1.2333
  639MOL0     H86221   7.914   4.437   1.774 -0.1134 -1.3047  1.3896
  639MOL0     H86222   7.889   4.473   1.603  0.1290  1.0035  1.2529
  639MOL0     H86223   8.107   4.440   1.547  0.0677  0.0532 -0.5889
  639MOL0     H86224   8.125   4.334   1.682  0.7686  0.2657 -2.0429
  639MOL0     H86225   8.327   4.372   1.650 -1.0466  0.3256 -0.2905
  639MOL0     H86226   8.574   4.408   1.668  2.9171  1.7722  1.0687
  639MOL0     H86227   8.965   4.491   1.617 -0.8715  0.4511  0.1516
  639MOL0     H86228   9.213   4.500   1.683  0.3635  0.9620  0.5195
  639MOL0     H86229   9.259   4.672   2.083 -0.9891 -0.2519 -3.5972
  639MOL0     H86230   9.338   4.513   2.125  2.0997 -1.8176 -1.1896
  639MOL0     H86231   9.526   4.648   1.968 -2.5536  0.4192 -1.9798
  639MOL0     H86232   9.479   4.775   2.083  3.5405 -0.6537  0.6299
  639MOL0     H86233   9.636   4.703   2.188  1.9610 -0.8473 -1.9890
  639MOL0     H86234   9.504   4.612   2.274  1.5338  2.5418  1.3572
  639MOL0     H86235   9.684   4.476   2.062 -0.0848 -0.8308  0.0059
  639MOL0     H86236   9.562   4.404   2.161  3.2014 -2.0789  1.9321
  639MOL0     H86237   9.684   4.454   2.351  2.3936  1.6694  1.0426
  639MOL0     H86238   9.807   4.535   2.249  0.7679 -1.8647 -0.9541
  639MOL0     H86239   9.722   4.245   2.231 -1.7640  1.8921  1.3242
  639MOL0     H86240   9.835   4.309   2.121  1.7054 -3.0070  1.5907
  639MOL0     H86241   9.854   4.311   2.411 -0.4795  1.9884 -0.1857
  639MOL0     H86242   9.984   4.382   2.309 -1.2635  0.6462 -3.8764
  639MOL0     H86243   9.891   4.091   2.270 -2.9069  0.4622  3.1407
  639MOL0     H86244  10.049   4.164   2.234  0.6185 -0.1394  0.8964
  639MOL0     H86245   9.107   4.504   2.095  2.9475 -0.4297 -0.2954
  639MOL0     H86246   8.880   4.490   2.046  1.2095  2.6564  0.3566
  639MOL0     H86247   8.483   4.770   1.895 -2.4599  0.4790  0.2776
  639MOL0     H86248   8.241   4.723   1.863  1.0222  1.4810  0.5651
  639MOL0     H86249   7.362   4.721   1.339 -0.4275 -0.2204  0.6855
  639MOL0     H86250   7.360   4.873   1.148 -0.1546  0.3021 -0.0631
  639MOL0     H86251   7.228   4.961   0.793 -0.8219 -1.4107 -0.4730
  639MOL0     H86252   7.244   5.009   0.567  0.4677 -0.8407  2.8057
  639MOL0     H86253   7.105   5.328   0.282  0.9276 -2.9291 -0.9693
  639MOL0     H86254   7.019   5.370   0.432 -2.2173  0.1269 -0.3704
  639MOL0     H86255   6.868   5.284   0.248  1.3352  1.3033  0.3252
  639MOL0     H86256   6.860   5.189   0.400 -1.2153  1.8225  0.4830
  639MOL0     H86257   6.966   5.002   0.308 -3.9403 -0.9937  0.2969
  639MOL0     H86258   7.033   5.109   0.164 -0.5135  2.5409  0.6255
  639MOL0     H86259   6.736   5.038   0.208  0.1819  1.7118 -0.4562
  639MOL0     H86260   6.804   5.097   0.064  2.5205  0.3809 -0.4163
  639MOL0     H86261   6.894   4.707  -0.034 -4.1841 -0.4001 -1.5130
  639MOL0     H86262   6.944   5.315   0.614 -5.0167 -3.4840  0.6013
  639MOL0     H86263   6.797   5.221   0.877  0.3430  1.2004 -3.7537
  639MOL0     H86264   6.915   5.316   0.971 -2.9201  0.6340  1.2459
  639MOL0     H86265   6.868   5.377   0.822 -3.3773  0.4147  0.4818
  640MOL0     O86266   8.788   1.001   0.881 -0.0309 -0.6096  0.2477
  640MOL0     C86267   8.727   0.908   0.829  0.9902 -0.6144  0.3197
  640MOL0     O86268   8.649   0.815   0.894 -0.3829  0.8706 -0.8088
  640MOL0     C86269   8.669   0.797   1.030  0.6173 -0.9067  0.5937
  640MOL0     C86270   8.623   0.892   1.109 -0.5592 -0.6734  0.2647
  640MOL0     C86271   8.597   0.863   1.243 -0.6273 -0.6339  0.0244
  640MOL0     C86272   8.653   0.754   1.304  1.2773 -0.2128  0.2196
  640MOL0     O86273   8.662   0.740   1.446  0.1343  0.0666  0.4553
  640MOL0     C86274   8.781   0.689   1.492 -0.2678 -0.1085  0.4176
  640MOL0     C86275   8.817   0.740   1.626 -0.0293 -0.3126 -0.8514
  640MOL0     C86276   8.853   0.896   1.636  0.4944 -0.3846 -0.1156
  640MOL0     C86277   8.940   0.942   1.524  0.0672 -0.2722  0.5213
  640MOL0     C86278   8.960   1.094   1.525  0.2778  0.6494  0.0849
  640MOL0     C86279   9.064   1.146   1.628 -0.1322  0.6750 -0.0768
  640MOL0     C86280   9.110   1.285   1.596 -0.6311  0.1062 -0.0952
  640MOL0     C86281   9.016   1.397   1.634 -0.4700 -0.5591 -0.1445
  640MOL0     N86282   9.043   1.522   1.553  0.8950 -0.1007 -0.1783
  640MOL0     C86283   8.950   1.593   1.476  0.7755 -0.3310 -0.5489
  640MOL0     C86284   9.020   1.703   1.447 -0.5129 -0.0123  1.1971
  640MOL0     C86285   8.956   1.827   1.389  0.0051 -0.0476  0.7029
  640MOL0     C86286   9.021   1.886   1.254  0.5616 -0.2727  0.3607
  640MOL0     C86287   9.141   1.973   1.276 -0.4804 -0.2212 -1.5767
  640MOL0     C86288   9.272   1.909   1.224  0.2678  0.3860  0.6256
  640MOL0     O86289   9.251   1.892   1.082 -0.2572 -0.2878  0.4354
  640MOL0     C86290   9.358   1.828   1.010  0.5818 -0.2477 -0.1217
  640MOL0     C86291   9.488   1.880   1.010 -0.6287 -0.0699  0.4776
  640MOL0     C86292   9.590   1.827   0.924  0.7393  0.6610 -0.4690
  640MOL0     C86293   9.558   1.727   0.837  0.1044  0.3323  0.4161
  640MOL0     C86294   9.670   1.670   0.747  0.3215 -0.0520  0.4851
  640MOL0     O86295   9.803   1.705   0.769  2.1378 -0.0618  0.5962
  640MOL0     C86296   9.897   1.653   0.689  0.2146 -0.8109  0.9521
  640MOL0     C86297   9.949   1.522   0.715 -0.3052  0.6034 -0.6151
  640MOL0     C86298  10.039   1.463   0.630  0.3225 -0.7402  0.4898
  640MOL0     C86299  10.089   1.541   0.514 -0.1368  0.0750 -0.4047
  640MOL0     O86300  10.182   1.483   0.429  0.1703  0.0907 -0.2286
  640MOL0     C86301  10.298   1.558   0.407  0.4483 -0.3703 -0.4578
  640MOL0     C86302  10.389   1.477   0.316  0.2319  0.4779 -0.1614
  640MOL0     C86303  10.503   1.565   0.263  0.3107 -0.7379 -0.0491
  640MOL0     C86304  10.632   1.485   0.217  0.8270 -0.3007  0.2011
  640MOL0     C86305  10.740   1.573   0.146  0.0756 -0.0717 -0.0641
  640MOL0     C86306  10.848   1.482   0.098 -0.0623 -0.9515  0.2267
  640MOL0     C86307  10.950   1.564   0.015  0.0731 -0.3725 -0.0435
  640MOL0     C86308  11.084   1.498   0.009  0.3732  0.6317 -0.5400
  640MOL0    Cl86309  11.219   1.587   0.091 -0.0399 -0.4676  0.2750
  640MOL0     C86310  10.041   1.672   0.492 -0.5168 -0.0101 -0.7587
  640MOL0     C86311   9.937   1.720   0.575  0.1788  0.9518 -0.1616
  640MOL0     O86312   9.629   1.591   0.662  0.2842  0.6350  0.1222
  640MOL0     C86313   9.424   1.676   0.829 -0.0418 -0.4848  0.2661
  640MOL0     C86314   9.331   1.726   0.920  0.2250 -0.0629 -0.0446
  640MOL0     N86315   9.147   1.689   1.502 -0.1890  0.7513  0.1142
  640MOL0     N86316   9.165   1.575   1.552  0.4174 -0.3705 -0.2770
  640MOL0     C86317   8.706   0.650   1.224  0.1683  0.1289 -0.3102
  640MOL0     C86318   8.699   0.672   1.080 -0.7728  0.0380 -0.9140
  640MOL0     C86319   8.710   0.908   0.687 -0.5773 -0.4102 -0.7315
  640MOL0     C86320   8.643   0.797   0.620 -0.9377 -0.4334 -0.7981
  640MOL0     C86321   8.615   0.795   0.494  0.3685  0.9710  1.3979
  640MOL0     C86322   8.632   0.904   0.412  0.5791  0.1179  0.3869
  640MOL0     O86323   8.588   0.889   0.282  1.0641 -0.1453  0.2750
  640MOL0     C86324   8.570   1.008   0.208 -0.2663  0.6670  0.1101
  640MOL0     C86325   8.445   1.078   0.266  0.0796 -0.3813 -0.5597
  640MOL0     C86326   8.331   0.977   0.280  0.8349 -0.3490  0.3336
  640MOL0     C86327   8.195   1.040   0.283  0.7651  0.8192  0.4714
  640MOL0     C86328   8.088   0.931   0.292 -0.2699  0.6164  0.4821
  640MOL0     C86329   8.004   0.842   0.284 -0.3191 -0.2724  0.3102
  640MOL0     C86330   8.703   1.016   0.465  0.4004 -0.8129  0.9766
  640MOL0     C86331   8.740   1.023   0.598  0.1203 -0.6380 -0.6415
  640MOL0     C86332   8.797   1.154   0.651 -0.0594 -0.1902 -0.0430
  640MOL0     H86333   8.589   0.981   1.058  1.4790 -2.3491 -4.5109
  640MOL0     H86334   8.566   0.940   1.313 -0.3565 -3.1841  3.2158
  640MOL0     H86335   8.770   0.581   1.486 -1.7311  0.0923 -1.6005
  640MOL0     H86336   8.866   0.706   1.426 -1.0262 -1.8825 -1.1031
  640MOL0     H86337   8.893   0.677   1.674  1.7958  2.5459  0.2165
  640MOL0     H86338   8.727   0.742   1.689  0.1826  2.6522 -0.5279
  640MOL0     H86339   8.912   0.898   1.728  1.5374  0.3387 -0.7793
  640MOL0     H86340   8.770   0.967   1.633  1.6779  1.0551  0.4600
  640MOL0     H86341   9.035   0.888   1.517 -0.4719 -1.4966  2.0960
  640MOL0     H86342   8.881   0.927   1.433 -0.5568  0.7333  0.7489
  640MOL0     H86343   8.992   1.134   1.429  2.3550  0.5817  0.6980
  640MOL0     H86344   8.862   1.142   1.534 -0.4910  0.6174 -5.0266
  640MOL0     H86345   9.017   1.133   1.726 -0.4552  1.7024 -0.0888
  640MOL0     H86346   9.157   1.089   1.619  1.4714  3.1758 -0.1267
  640MOL0     H86347   9.124   1.291   1.487  1.8298  0.7720  0.1952
  640MOL0     H86348   9.210   1.304   1.636 -0.3039 -2.4729  0.4587
  640MOL0     H86349   8.916   1.362   1.605  0.2066 -0.5951 -2.6833
  640MOL0     H86350   9.017   1.416   1.742 -3.7761  1.0142 -0.2720
  640MOL0     H86351   8.845   1.568   1.465 -0.1987  1.2254  3.3238
  640MOL0     H86352   8.851   1.805   1.367  0.5806 -1.3075 -0.9825
  640MOL0     H86353   8.959   1.909   1.461 -0.6628 -0.8939  1.7143
  640MOL0     H86354   9.042   1.800   1.190 -1.2001  0.9905 -2.0894
  640MOL0     H86355   8.938   1.945   1.214  1.3163 -0.8511 -2.2351
  640MOL0     H86356   9.140   1.999   1.382  1.0958 -0.4862 -1.4766
  640MOL0     H86357   9.127   2.075   1.238 -1.0428 -0.2251 -1.3976
  640MOL0     H86358   9.279   1.808   1.264 -2.7238 -0.1615 -0.0289
  640MOL0     H86359   9.367   1.960   1.242  0.2211  0.9235 -0.5636
  640MOL0     H86360   9.499   1.967   1.075  2.9896 -1.1153  1.4981
  640MOL0     H86361   9.693   1.859   0.923  1.4286 -1.1732  2.1225
  640MOL0     H86362   9.909   1.467   0.799 -1.3109 -0.8914 -2.0218
  640MOL0     H86363  10.061   1.357   0.633  0.9513 -0.8366 -2.9768
  640MOL0     H86364  10.264   1.646   0.351 -0.0591 -1.4550 -1.9360
  640MOL0     H86365  10.352   1.583   0.498  0.6780 -4.8643  0.8879
  640MOL0     H86366  10.426   1.391   0.373 -0.1378  1.4384  1.6035
  640MOL0     H86367  10.327   1.440   0.233 -1.1601  0.6432  0.7751
  640MOL0     H86368  10.451   1.625   0.188 -1.2687 -0.2945  1.3404
  640MOL0     H86369  10.539   1.634   0.341  1.9720  0.1107 -1.5116
  640MOL0     H86370  10.609   1.400   0.151  1.8911  0.0106 -0.5986
  640MOL0     H86371  10.679   1.441   0.305  1.2866 -1.2052 -0.4793
  640MOL0     H86372  10.785   1.651   0.209  1.4959 -0.4939 -0.5304
  640MOL0     H86373  10.693   1.635   0.068  1.5843  3.2941  1.4738
  640MOL0     H86374  10.898   1.420   0.173  2.2748 -1.0198 -1.3153
  640MOL0     H86375  10.806   1.399   0.040  0.3847 -2.0381  1.3938
  640MOL0     H86376  10.958   1.667   0.051 -0.5567  1.3537 -4.1840
  640MOL0     H86377  10.922   1.579  -0.090  2.7302 -0.0030 -0.7945
  640MOL0     H86378  11.088   1.403   0.062  2.1816  0.2885 -1.2349
  640MOL0     H86379  11.120   1.474  -0.091  4.9059 -0.0215  1.0024
  640MOL0     H86380  10.073   1.724   0.402  0.5186 -1.4755 -1.2656
  640MOL0     H86381   9.898   1.820   0.559  1.0483  1.7542  2.3570
  640MOL0     H86382   9.395   1.590   0.770 -0.5279  0.0244 -0.2560
  640MOL0     H86383   9.227   1.698   0.902 -0.4368  1.5729  0.9898
  640MOL0     H86384   8.751   0.560   1.264 -2.5920 -0.6580  1.3209
  640MOL0     H86385   8.705   0.592   1.007 -1.7810 -1.8850  0.9872
  640MOL0     H86386   8.620   0.712   0.684 -0.7120 -1.2547 -1.7819
  640MOL0     H86387   8.560   0.710   0.457  1.4526 -0.4970  2.9946
  640MOL0     H86388   8.544   0.985   0.105  0.2779  2.2403 -0.4052
  640MOL0     H86389   8.659   1.070   0.213 -0.7145  1.2272  2.5181
  640MOL0     H86390   8.405   1.161   0.206  0.1377  0.0185 -0.0564
  640MOL0     H86391   8.475   1.111   0.366  1.4404 -3.3880  0.1235
  640MOL0     H86392   8.339   0.912   0.367  0.1345  1.7826  2.0911
  640MOL0     H86393   8.336   0.919   0.187 -3.0336 -0.0142 -0.2495
  640MOL0     H86394   8.190   1.109   0.369  2.9042  1.9921 -0.2662
  640MOL0     H86395   8.194   1.098   0.190  0.7633  1.0797  0.6321
  640MOL0     H86396   7.917   0.779   0.279 -1.9558  1.9199 -0.9494
  640MOL0     H86397   8.728   1.100   0.401 -0.5631 -1.4202 -0.2532
  640MOL0     H86398   8.725   1.210   0.711  0.2412 -0.5388  0.6530
  640MOL0     H86399   8.885   1.139   0.714  0.1988 -1.8034 -0.7393
  640MOL0     H86400   8.825   1.216   0.566 -1.0040 -1.7011 -1.5146
  641MOL0     O86401   1.085   8.001   4.295  0.8253  0.0097  0.5410
  641MOL0     C86402   0.990   8.081   4.295  0.2360  0.4369  0.4862
  641MOL0     O86403   1.001   8.212   4.325  0.4664  0.4992  0.0761
  641MOL0     C86404   1.122   8.250   4.364  0.3337  0.6926 -0.1171
  641MOL0     C86405   1.142   8.242   4.504  0.0213  0.0668  1.2221
  641MOL0     C86406   1.262   8.293   4.563  0.2699  1.2333  1.1872
  641MOL0     C86407   1.359   8.346   4.477  0.0913 -0.1373 -0.6484
  641MOL0     O86408   1.477   8.386   4.545  0.1924 -0.6510  0.1042
  641MOL0     C86409   1.596   8.400   4.475 -0.2452 -1.0641 -0.0740
  641MOL0     C86410   1.690   8.489   4.564  0.0459  0.7956  1.0010
  641MOL0     C86411   1.834   8.472   4.511  0.8130 -0.3163 -0.6495
  641MOL0     C86412   1.894   8.338   4.570 -0.1230  0.1106 -0.4964
  641MOL0     C86413   1.942   8.347   4.722  0.0140 -0.2240 -0.1580
  641MOL0     C86414   2.029   8.227   4.761  1.0034 -0.0299 -0.1309
  641MOL0     C86415   2.006   8.209   4.917 -0.4763 -0.0130  0.1209
  641MOL0     C86416   1.898   8.105   4.939 -0.0678 -0.4618 -0.2272
  641MOL0     N86417   1.890   8.099   5.089 -1.1027 -0.0595  0.4065
  641MOL0     C86418   1.864   8.199   5.183 -0.6893  0.5476 -0.5610
  641MOL0     C86419   1.893   8.155   5.306  0.2531  0.2666  0.0311
  641MOL0     C86420   1.881   8.237   5.432 -0.1067  0.0987  0.1827
  641MOL0     C86421   2.017   8.294   5.481  0.4276  0.3241 -0.3747
  641MOL0     C86422   1.995   8.417   5.569 -0.4298 -0.3063  0.5432
  641MOL0     C86423   1.884   8.397   5.679  0.1061  0.4101  1.2306
  641MOL0     O86424   1.755   8.420   5.627 -0.1413  0.1930  0.4745
  641MOL0     C86425   1.637   8.379   5.695 -0.6788  0.0899 -0.3844
  641MOL0     C86426   1.528   8.348   5.627  0.4875  0.0712 -0.4001
  641MOL0     C86427   1.419   8.304   5.694  0.6120 -0.1489 -0.1491
  641MOL0     C86428   1.406   8.304   5.833  0.5384  0.0335  0.4262
  641MOL0     C86429   1.279   8.259   5.895 -0.1908 -0.1412 -0.6172
  641MOL0     O86430   1.300   8.226   6.027  0.5924  0.5120 -0.1112
  641MOL0     C86431   1.204   8.174   6.112  0.5662  0.0996  0.7996
  641MOL0     C86432   1.240   8.138   6.243  0.7544 -0.2870  0.1245
  641MOL0     C86433   1.144   8.072   6.328 -1.0652 -0.0167  0.8601
  641MOL0     C86434   1.016   8.035   6.286  0.6964  0.0714 -1.0354
  641MOL0     O86435   0.934   7.969   6.380 -0.1773  0.4590  0.6922
  641MOL0     C86436   0.811   7.908   6.339  0.5120  1.0016 -1.3264
  641MOL0     C86437   0.690   7.999   6.347 -0.9705 -0.1449  0.6390
  641MOL0     C86438   0.709   8.117   6.445  0.8454 -0.4168  0.9282
  641MOL0     C86439   0.572   8.198   6.461 -0.5163 -0.6557 -0.7235
  641MOL0     C86440   0.483   8.158   6.579  0.1033 -0.0521 -0.2274
  641MOL0     C86441   0.368   8.250   6.603  0.6135 -0.9649 -0.0268
  641MOL0     C86442   0.284   8.181   6.716  0.3688  0.6127  0.1798
  641MOL0     C86443   0.180   8.073   6.666  0.1006  0.0703 -0.0920
  641MOL0    Cl86444   0.250   7.918   6.614 -0.0146  0.2218  0.0383
  641MOL0     C86445   0.979   8.075   6.154 -0.5863  0.7238 -0.4975
  641MOL0     C86446   1.072   8.140   6.065  0.0950  0.6647 -0.2751
  641MOL0     O86447   1.179   8.248   5.833  0.2351 -0.7001  0.5415
  641MOL0     C86448   1.521   8.339   5.906 -0.3932 -0.4198 -0.4191
  641MOL0     C86449   1.638   8.372   5.835 -0.5297 -0.2682 -0.2975
  641MOL0     N86450   1.943   8.022   5.283 -0.1884  0.4646 -0.0298
  641MOL0     N86451   1.926   7.987   5.152  0.2666  0.0170 -0.1476
  641MOL0     C86452   1.332   8.358   4.339  0.0859  0.3508 -0.1659
  641MOL0     C86453   1.218   8.309   4.280  0.7879  0.1161 -0.0635
  641MOL0     C86454   0.868   8.026   4.243  0.5105  0.6307 -0.9347
  641MOL0     C86455   0.765   8.120   4.202 -0.5343  0.1069  0.2771
  641MOL0     C86456   0.645   8.090   4.145  0.1931 -0.0711  0.3928
  641MOL0     C86457   0.611   7.954   4.129  0.5277 -0.2124  0.2718
  641MOL0     O86458   0.498   7.914   4.071  0.4493 -0.2125  0.2990
  641MOL0     C86459   0.478   7.968   3.938  0.5425  0.1518  0.0159
  641MOL0     C86460   0.335   7.925   3.905 -0.0751  0.1606 -0.5545
  641MOL0     C86461   0.318   7.769   3.905 -0.6795 -0.4858  0.4693
  641MOL0     C86462   0.201   7.718   3.843 -0.1579 -0.4449 -1.4041
  641MOL0     C86463   0.179   7.566   3.860  0.1751  0.1982  0.3648
  641MOL0     C86464   0.146   7.447   3.857 -0.0971  0.4132 -0.4477
  641MOL0     C86465   0.706   7.864   4.166 -0.3434  1.0752 -0.0002
  641MOL0     C86466   0.832   7.892   4.225 -0.0662 -0.2119 -0.0751
  641MOL0     C86467   0.923   7.771   4.255  0.1986 -0.5290 -0.7345
  641MOL0     H86468   1.073   8.202   4.578 -0.4274 -0.7080  0.3939
  641MOL0     H86469   1.278   8.289   4.670 -0.5453 -2.1800  1.2871
  641MOL0     H86470   1.643   8.302   4.461 -0.2006 -1.1743  0.7773
  641MOL0     H86471   1.568   8.454   4.385  0.2183 -0.7680 -0.0442
  641MOL0     H86472   1.697   8.483   4.673  2.1671  2.0337  0.9896
  641MOL0     H86473   1.656   8.590   4.538  1.6304  0.8893 -0.9862
  641MOL0     H86474   1.886   8.560   4.551 -1.0954  1.9177 -2.7528
  641MOL0     H86475   1.837   8.471   4.402  1.4304 -0.1256 -0.6415
  641MOL0     H86476   1.831   8.252   4.545  0.9984 -0.9760  0.2876
  641MOL0     H86477   1.990   8.335   4.517  0.0188 -0.2770 -0.2219
  641MOL0     H86478   1.996   8.443   4.726  2.1784 -1.2490 -2.0233
  641MOL0     H86479   1.854   8.350   4.787 -0.7304 -0.5779 -1.1314
  641MOL0     H86480   1.997   8.141   4.702  0.4546 -1.5868  2.2663
  641MOL0     H86481   2.133   8.256   4.742  0.7839  1.1879  0.4097
  641MOL0     H86482   1.993   8.305   4.967  1.8376  0.1415  0.5457
  641MOL0     H86483   2.091   8.157   4.963 -1.0025 -0.4797  0.5957
  641MOL0     H86484   1.803   8.137   4.896 -0.0546 -1.4900 -1.0645
  641MOL0     H86485   1.922   8.006   4.899 -1.4354  0.7378 -4.5918
  641MOL0     H86486   1.827   8.299   5.166  0.0626  0.4089 -3.7309
  641MOL0     H86487   1.816   8.321   5.405 -0.0056 -0.1973 -1.0890
  641MOL0     H86488   1.838   8.165   5.502  0.5131 -0.2091  0.2627
  641MOL0     H86489   2.073   8.217   5.534  1.3232  1.9878  1.2047
  641MOL0     H86490   2.075   8.323   5.393 -0.1542  0.5350 -0.6973
  641MOL0     H86491   1.975   8.503   5.505 -0.3712 -0.6221  0.0988
  641MOL0     H86492   2.093   8.432   5.615 -0.3964 -0.8573  0.6582
  641MOL0     H86493   1.902   8.463   5.764 -0.4528 -0.1753  1.8136
  641MOL0     H86494   1.896   8.292   5.707  3.9004 -0.4291 -2.4481
  641MOL0     H86495   1.524   8.348   5.519  1.1640  0.7261 -0.4302
  641MOL0     H86496   1.330   8.269   5.643  0.7605  0.9848 -1.2277
  641MOL0     H86497   1.341   8.157   6.277  0.9008  0.0285 -0.4824
  641MOL0     H86498   1.166   8.042   6.430  0.0700 -0.7889  0.4006
  641MOL0     H86499   0.823   7.859   6.242 -0.9012 -3.5694  0.5467
  641MOL0     H86500   0.790   7.824   6.405 -1.9460  3.1628  0.9120
  641MOL0     H86501   0.658   8.026   6.246  0.9051 -3.6324 -1.0765
  641MOL0     H86502   0.614   7.928   6.382  0.4990 -2.6894 -1.0363
  641MOL0     H86503   0.748   8.087   6.542  2.2578 -4.5695 -0.6967
  641MOL0     H86504   0.790   8.181   6.409  2.1565 -2.4920  0.0127
  641MOL0     H86505   0.527   8.207   6.361 -0.2152  0.8397 -0.7392
  641MOL0     H86506   0.602   8.299   6.490  2.5390 -1.3103 -1.2788
  641MOL0     H86507   0.546   8.156   6.668 -0.2175 -0.5405 -0.0034
  641MOL0     H86508   0.430   8.063   6.565 -4.5510  1.9826  1.6460
  641MOL0     H86509   0.410   8.337   6.656  2.3074 -2.2130  0.7593
  641MOL0     H86510   0.310   8.281   6.516  0.8054  0.5301  0.3372
  641MOL0     H86511   0.225   8.254   6.773  1.0601  0.9474  0.4723
  641MOL0     H86512   0.346   8.139   6.796  0.4647 -0.1087 -0.2651
  641MOL0     H86513   0.112   8.056   6.749 -2.5096  0.8438 -1.9427
  641MOL0     H86514   0.121   8.114   6.584  1.0426  1.2239 -0.2277
  641MOL0     H86515   0.888   8.053   6.099  0.3758  0.6641 -2.1181
  641MOL0     H86516   1.019   8.163   5.973 -0.6991  4.3366  0.9107
  641MOL0     H86517   1.516   8.350   6.014 -1.3566  1.9717 -0.6518
  641MOL0     H86518   1.727   8.388   5.895 -0.0210  0.8176 -1.3083
  641MOL0     H86519   1.411   8.398   4.277  0.8600  1.6892  1.6234
  641MOL0     H86520   1.208   8.328   4.173  1.9245  0.3528 -0.1418
  641MOL0     H86521   0.787   8.226   4.214  1.5711 -0.4711  2.4522
  641MOL0     H86522   0.573   8.165   4.112 -0.4528 -0.9329 -0.2194
  641MOL0     H86523   0.547   7.915   3.871 -0.3549 -1.6383  0.4367
  641MOL0     H86524   0.490   8.077   3.937  0.5715  0.1502 -0.6233
  641MOL0     H86525   0.303   7.958   3.806 -1.1913 -0.3449 -0.3732
  641MOL0     H86526   0.267   7.967   3.979  0.7676  1.0489 -0.2674
  641MOL0     H86527   0.302   7.732   4.007  3.0621 -0.3577  1.2472
  641MOL0     H86528   0.410   7.722   3.868  0.5577  1.1796  1.2417
  641MOL0     H86529   0.118   7.769   3.892  1.8203  2.0759 -0.4293
  641MOL0     H86530   0.200   7.748   3.738  0.7484 -2.3720 -2.0211
  641MOL0     H86531   0.119   7.344   3.848 -2.2431  1.0449 -1.9176
  641MOL0     H86532   0.672   7.762   4.153 -1.6740  1.6488 -1.1544
  641MOL0     H86533   0.864   7.681   4.236  1.0418 -1.5047  1.0151
  641MOL0     H86534   1.012   7.769   4.191 -0.9269  1.0035 -2.4541
  641MOL0     H86535   0.945   7.770   4.362  2.7508  0.5616 -1.1623
  642MOL0     O86536   8.812  10.533   2.720  0.0813  0.0857 -0.4416
  642MOL0     C86537   8.818  10.654   2.695 -0.1771 -0.6952 -0.4951
  642MOL0     O86538   8.916  10.737   2.740 -0.7270  0.2534 -0.4247
  642MOL0     C86539   9.047  10.693   2.763  0.0459 -1.0582 -0.5545
  642MOL0     C86540   9.126  10.779   2.831  0.1577 -0.0763  0.0308
  642MOL0     C86541   9.266  10.752   2.848  0.1689 -0.0960  0.6996
  642MOL0     C86542   9.315  10.626   2.808 -0.5499  0.2936  0.2594
  642MOL0     O86543   9.452  10.594   2.817  0.3259  0.9368 -0.0660
  642MOL0     C86544   9.481  10.452   2.827 -0.6544  0.0965  0.4257
  642MOL0     C86545   9.628  10.425   2.844 -0.4735 -0.3435 -0.4137
  642MOL0     C86546   9.692  10.526   2.938  0.2430  0.4785  0.4856
  642MOL0     C86547   9.807  10.449   3.018  0.1463 -0.6669  0.8935
  642MOL0     C86548   9.944  10.422   2.941  0.5958  0.2554 -0.6636
  642MOL0     C86549  10.029  10.542   2.898  0.4040 -0.3848 -1.3730
  642MOL0     C86550  10.182  10.518   2.900 -0.3298  0.8687  0.3644
  642MOL0     C86551  10.263  10.635   2.962 -0.2492 -0.8279  0.6320
  642MOL0     N86552  10.408  10.604   2.957 -0.7637  0.5596 -0.4413
  642MOL0     C86553  10.500  10.677   2.893  0.8752 -0.7438 -0.5523
  642MOL0     C86554  10.615  10.618   2.929  0.2297  0.4858  0.0680
  642MOL0     C86555  10.743  10.661   2.861 -0.3348 -0.0216 -0.0931
  642MOL0     C86556  10.838  10.541   2.840  0.2731  0.1025  0.1958
  642MOL0     C86557  10.967  10.575   2.763  0.3141  0.4335  0.2027
  642MOL0     C86558  11.081  10.470   2.784 -0.0408  0.2071  0.3700
  642MOL0     O86559  11.196  10.508   2.719 -1.1009 -0.6151  0.0749
  642MOL0     C86560  11.300  10.425   2.699  0.3421 -0.6605  0.5583
  642MOL0     C86561  11.418  10.486   2.644  0.0910 -0.7620 -0.2075
  642MOL0     C86562  11.533  10.405   2.627  0.3479 -0.0987  0.4453
  642MOL0     C86563  11.538  10.269   2.661  0.6922 -0.0503 -0.2358
  642MOL0     C86564  11.655  10.185   2.630 -0.2780  0.1511  0.8429
  642MOL0     O86565  11.756  10.238   2.548  0.0930 -0.8725  0.0758
  642MOL0     C86566  11.865  10.157   2.527  0.2961  0.7243  0.2306
  642MOL0     C86567  11.960  10.174   2.622  0.0397 -0.7611  0.4467
  642MOL0     C86568  12.069  10.082   2.628  0.2216 -0.0666 -0.8263
  642MOL0     C86569  12.080   9.985   2.532  0.3989  0.4094 -0.4554
  642MOL0     O86570  12.187   9.891   2.541 -0.1729 -0.1957 -0.9562
  642MOL0     C86571  12.161   9.782   2.630 -0.2928 -0.7161  0.7692
  642MOL0     C86572  12.279   9.692   2.650 -0.5695  0.3898  0.4646
  642MOL0     C86573  12.342   9.630   2.524 -0.3401 -0.1556  0.4351
  642MOL0     C86574  12.418   9.504   2.559 -0.4675  0.6786 -0.1734
  642MOL0     C86575  12.554   9.520   2.616 -0.3040  0.0019  0.3758
  642MOL0     C86576  12.618   9.386   2.642  0.5141  0.0946 -0.0505
  642MOL0     C86577  12.754   9.396   2.710 -1.1819 -0.3987  0.6074
  642MOL0     C86578  12.868   9.330   2.619 -0.1132 -0.1080  0.1182
  642MOL0    Cl86579  12.858   9.372   2.444 -0.1193  0.2567 -0.0734
  642MOL0     C86580  11.984   9.969   2.428  0.5797  0.0333  0.4330
  642MOL0     C86581  11.876  10.057   2.424  0.9769 -0.1910 -0.2184
  642MOL0     O86582  11.657  10.073   2.676 -0.9683 -0.3409  0.2955
  642MOL0     C86583  11.433  10.215   2.722  0.9066  0.2721  0.4435
  642MOL0     C86584  11.312  10.290   2.747 -1.8924 -1.1100 -0.2257
  642MOL0     N86585  10.598  10.531   3.036 -0.3197 -0.7001  1.1338
  642MOL0     N86586  10.469  10.521   3.046 -0.0065 -0.5027  0.2839
  642MOL0     C86587   9.231  10.540   2.740  0.0125 -0.2585  0.9033
  642MOL0     C86588   9.099  10.574   2.716 -0.5515 -0.2088  0.3772
  642MOL0     C86589   8.728  10.711   2.597 -0.0264  0.1190 -1.5569
  642MOL0     C86590   8.608  10.646   2.563 -0.5157 -0.1643 -0.8681
  642MOL0     C86591   8.516  10.693   2.471 -0.6045 -0.7321  0.3287
  642MOL0     C86592   8.540  10.816   2.409  0.0790  0.9540 -1.2711
  642MOL0     O86593   8.460  10.873   2.316  0.4597  0.3929 -0.4446
  642MOL0     C86594   8.332  10.832   2.307  0.6537 -0.3345 -0.3424
  642MOL0     C86595   8.255  10.908   2.203 -1.0660 -0.1023 -0.6597
  642MOL0     C86596   8.098  10.895   2.213  0.6798  0.2821 -0.2336
  642MOL0     C86597   8.030  10.762   2.254 -0.3374 -0.3822  0.7105
  642MOL0     C86598   7.895  10.751   2.205  0.1376 -0.1338 -0.3675
  642MOL0     C86599   7.783  10.730   2.168  0.1397  0.0235  0.3872
  642MOL0     C86600   8.655  10.881   2.434 -0.0502 -0.9407  0.7571
  642MOL0     C86601   8.758  10.834   2.522  1.0083  0.2055  0.0166
  642MOL0     C86602   8.884  10.920   2.538  0.1306  0.6376  0.3949
  642MOL0     H86603   9.083  10.874   2.861 -1.1316  0.3477 -2.7804
  642MOL0     H86604   9.340  10.814   2.898  1.3084 -2.1926  1.7102
  642MOL0     H86605   9.425  10.432   2.919 -3.9651 -1.2002 -1.6772
  642MOL0     H86606   9.437  10.386   2.752  0.5455 -0.3983  0.1220
  642MOL0     H86607   9.675  10.438   2.746 -0.5680 -1.0990 -0.5666
  642MOL0     H86608   9.631  10.325   2.888  0.5260  1.6813  4.8038
  642MOL0     H86609   9.615  10.559   3.008 -0.6661  1.3754 -0.8900
  642MOL0     H86610   9.727  10.615   2.886  1.1497 -0.1237  0.0307
  642MOL0     H86611   9.829  10.511   3.106  2.4890  3.3964 -2.2326
  642MOL0     H86612   9.755  10.359   3.053  0.2295 -1.0813 -0.0113
  642MOL0     H86613  10.002  10.352   3.002 -0.9819 -1.6438 -1.2154
  642MOL0     H86614   9.918  10.355   2.858 -3.6452 -0.8428  1.3125
  642MOL0     H86615   9.995  10.579   2.800 -0.1801  0.4387 -0.8730
  642MOL0     H86616  10.014  10.630   2.962  5.1049  0.5634 -1.1994
  642MOL0     H86617  10.217  10.496   2.799 -2.8878  1.4789 -0.7253
  642MOL0     H86618  10.214  10.430   2.957  1.3480  0.9943 -0.3255
  642MOL0     H86619  10.245  10.727   2.907 -1.3234  1.0746  3.9111
  642MOL0     H86620  10.225  10.660   3.062 -3.6035  0.7130 -0.8794
  642MOL0     H86621  10.496  10.766   2.830  1.9476  1.1516  1.9182
  642MOL0     H86622  10.731  10.703   2.761  1.0576 -1.1784 -0.7719
  642MOL0     H86623  10.793  10.730   2.929 -0.5621 -2.5465  2.8324
  642MOL0     H86624  10.861  10.505   2.941  0.7668  0.6232  0.2741
  642MOL0     H86625  10.785  10.461   2.787  0.6260  0.0035 -0.0127
  642MOL0     H86626  11.003  10.674   2.793  0.0771  0.8013 -0.7045
  642MOL0     H86627  10.942  10.581   2.657  0.5419  1.2369  0.1920
  642MOL0     H86628  11.053  10.379   2.730 -0.4688  1.4628 -1.5831
  642MOL0     H86629  11.104  10.451   2.890 -0.9315 -0.4906  0.4570
  642MOL0     H86630  11.420  10.590   2.613  4.8141 -0.0272  1.6739
  642MOL0     H86631  11.625  10.449   2.588 -0.6806  1.1851 -0.6606
  642MOL0     H86632  11.947  10.259   2.688 -0.5340  0.0426 -0.6675
  642MOL0     H86633  12.156  10.082   2.693  1.8770 -0.1363 -2.9509
  642MOL0     H86634  12.125   9.820   2.726 -1.2044 -0.7980  0.4720
  642MOL0     H86635  12.077   9.724   2.590 -0.9080  1.7410 -1.8215
  642MOL0     H86636  12.360   9.734   2.711 -0.2389 -2.5796  2.2715
  642MOL0     H86637  12.248   9.601   2.702 -0.4908  0.2397  0.2502
  642MOL0     H86638  12.266   9.601   2.450 -2.0203  1.5816  1.3889
  642MOL0     H86639  12.399   9.705   2.469  1.3324 -2.5194 -1.2753
  642MOL0     H86640  12.445   9.455   2.464  1.6575 -1.8762  1.5955
  642MOL0     H86641  12.359   9.428   2.610  1.9601 -0.9896  0.3731
  642MOL0     H86642  12.557   9.572   2.712 -0.3958 -0.7122  0.7697
  642MOL0     H86643  12.616   9.579   2.547  0.5542 -0.9930  0.2853
  642MOL0     H86644  12.557   9.332   2.715 -1.1133  0.2614 -1.2448
  642MOL0     H86645  12.633   9.330   2.549  3.1974  4.2436 -2.4069
  642MOL0     H86646  12.746   9.347   2.807 -0.9982 -2.1123 -0.2130
  642MOL0     H86647  12.780   9.500   2.732  0.1822 -1.0030  2.0146
  642MOL0     H86648  12.968   9.344   2.660  0.7345 -2.8817 -0.7777
  642MOL0     H86649  12.862   9.221   2.617 -3.9327 -0.0271  0.3582
  642MOL0     H86650  11.973   9.888   2.357  1.5206  1.8864 -1.9366
  642MOL0     H86651  11.802  10.057   2.345  0.0508  0.0645  0.6365
  642MOL0     H86652  11.415  10.112   2.748 -2.0474  1.1885  2.5415
  642MOL0     H86653  11.229  10.233   2.787 -0.7469 -2.0169  0.9457
  642MOL0     H86654   9.256  10.445   2.694 -0.8283  0.2113 -0.6144
  642MOL0     H86655   9.033  10.512   2.656  0.1770 -0.1091 -0.5394
  642MOL0     H86656   8.584  10.550   2.606  0.1270 -0.8509 -2.0122
  642MOL0     H86657   8.437  10.624   2.444 -0.0535 -2.6938  3.2878
  642MOL0     H86658   8.283  10.833   2.404  0.9218 -1.0586 -0.1872
  642MOL0     H86659   8.342  10.728   2.273  0.4673 -0.7451  0.8164
  642MOL0     H86660   8.300  10.875   2.108  3.8222  2.5038  0.3788
  642MOL0     H86661   8.288  11.012   2.199 -0.1271 -0.4160 -2.4370
  642MOL0     H86662   8.054  10.908   2.114  1.0252 -1.3833 -0.6368
  642MOL0     H86663   8.068  10.982   2.272  2.6337  3.8123 -3.9644
  642MOL0     H86664   8.091  10.675   2.228  0.9257  0.6580  0.0964
  642MOL0     H86665   8.023  10.758   2.363  0.2935  1.3524  0.8401
  642MOL0     H86666   7.687  10.714   2.124  0.7025  0.7271 -1.1840
  642MOL0     H86667   8.687  10.975   2.391  0.9025 -1.6914 -0.2049
  642MOL0     H86668   8.895  10.995   2.459 -0.5013  2.3727  1.8922
  642MOL0     H86669   8.877  10.980   2.629 -0.0102  1.4067 -0.1161
  642MOL0     H86670   8.976  10.861   2.540  1.2109  2.2481  0.1420
  643MOL0     O86671   6.404   8.405  10.147 -0.3235 -0.1674  0.5849
  643MOL0     C86672   6.298   8.359  10.179  0.9237  0.7057 -0.4202
  643MOL0     O86673   6.274   8.237  10.240  0.6353  0.7439 -0.2145
  643MOL0     C86674   6.369   8.136  10.228  0.1886  0.1451 -0.8250
  643MOL0     C86675   6.335   8.007  10.186  0.0220 -0.9244  0.1207
  643MOL0     C86676   6.425   7.903  10.175 -0.5334  0.4101 -0.5366
  643MOL0     C86677   6.560   7.922  10.220  0.6831  1.0562  0.6282
  643MOL0     O86678   6.657   7.820  10.207 -0.3263 -0.2845 -0.0274
  643MOL0     C86679   6.685   7.748  10.330  0.7692  0.3300  0.4610
  643MOL0     C86680   6.789   7.817  10.421 -0.2146  0.1040  0.9455
  643MOL0     C86681   6.918   7.858  10.349  0.2901  0.1510  0.5764
  643MOL0     C86682   7.004   7.732  10.298 -0.1362  0.2799  0.3312
  643MOL0     C86683   7.144   7.786  10.279  0.4861  0.4793  0.7477
  643MOL0     C86684   7.217   7.693  10.172  0.4281  0.6065 -0.9300
  643MOL0     C86685   7.372   7.697  10.161 -0.2850 -0.5369 -0.5817
  643MOL0     C86686   7.443   7.670  10.288 -0.3582  0.2894  0.0081
  643MOL0     N86687   7.584   7.647  10.264 -0.4533 -0.1420  0.2488
  643MOL0     C86688   7.674   7.745  10.231  0.2969  0.1274 -0.7696
  643MOL0     C86689   7.790   7.672  10.226 -0.3793 -0.2604  0.3735
  643MOL0     C86690   7.916   7.731  10.183 -0.6624  0.7113 -0.7882
  643MOL0     C86691   8.036   7.693  10.274 -0.1950 -0.0074  0.3365
  643MOL0     C86692   8.017   7.759  10.417 -0.8069  0.2452 -0.5291
  643MOL0     C86693   8.152   7.750  10.492  0.1861 -0.5576 -0.1949
  643MOL0     O86694   8.149   7.823  10.614 -0.4089  0.6829  0.7456
  643MOL0     C86695   8.259   7.825  10.693  0.2838  0.8938  0.0977
  643MOL0     C86696   8.259   7.897  10.813  0.2450  0.1829  0.1363
  643MOL0     C86697   8.367   7.892  10.902  1.6283  0.4864  0.1078
  643MOL0     C86698   8.477   7.810  10.876 -0.2677  0.1643 -0.2499
  643MOL0     C86699   8.579   7.802  10.985  0.2872  0.3617  0.2560
  643MOL0     O86700   8.684   7.713  10.966 -0.9828 -0.2045 -1.0611
  643MOL0     C86701   8.789   7.705  11.051 -0.1888 -0.8876 -0.5542
  643MOL0     C86702   8.845   7.815  11.126  0.4493 -0.1285 -0.4368
  643MOL0     C86703   8.947   7.797  11.220 -0.1195 -0.3221 -0.2744
  643MOL0     C86704   9.012   7.667  11.238  0.2440  0.0854  0.5778
  643MOL0     O86705   9.131   7.635  11.306 -0.3459  0.3427  1.0927
  643MOL0     C86706   9.220   7.743  11.343 -0.2197  0.2794 -1.3968
  643MOL0     C86707   9.353   7.684  11.384  0.3445  0.1161  0.1962
  643MOL0     C86708   9.349   7.616  11.524 -0.3047 -0.2502 -0.0708
  643MOL0     C86709   9.483   7.554  11.563  0.1565  0.0806  0.2486
  643MOL0     C86710   9.485   7.470  11.698 -0.1446  0.0340  0.1627
  643MOL0     C86711   9.435   7.556  11.816 -0.2893 -0.4666 -0.0741
  643MOL0     C86712   9.416   7.479  11.938  0.0361 -0.2949 -0.4988
  643MOL0     C86713   9.287   7.397  11.945  0.0720 -0.3445 -0.0893
  643MOL0    Cl86714   9.146   7.511  11.918 -0.0994 -0.0388 -0.1379
  643MOL0     C86715   8.965   7.570  11.149 -0.5882 -0.7184 -0.1625
  643MOL0     C86716   8.862   7.587  11.055  0.1458  0.2218 -0.0403
  643MOL0     O86717   8.569   7.879  11.079  0.7520 -0.6597  0.3903
  643MOL0     C86718   8.482   7.731  10.757  0.1451  0.6227 -1.3448
  643MOL0     C86719   8.367   7.738  10.676 -0.3209 -0.2464  0.7234
  643MOL0     N86720   7.770   7.537  10.261  0.1795  0.5793  0.6333
  643MOL0     N86721   7.642   7.522  10.264 -0.3622 -0.1076  0.3272
  643MOL0     C86722   6.593   8.044  10.262 -0.5100  0.4854  0.1903
  643MOL0     C86723   6.509   8.154  10.258  0.0050 -0.1389 -0.0153
  643MOL0     C86724   6.180   8.443  10.160  0.0333 -0.1557 -0.1198
  643MOL0     C86725   6.191   8.581  10.200 -0.2979 -0.3882  0.0907
  643MOL0     C86726   6.075   8.661  10.209  0.5094  0.4195  0.5872
  643MOL0     C86727   5.948   8.615  10.167 -0.3056  0.1144  0.4884
  643MOL0     O86728   5.858   8.718  10.181  0.8141  0.5629 -1.5613
  643MOL0     C86729   5.729   8.687  10.133  0.0322 -0.0010  0.0724
  643MOL0     C86730   5.657   8.816  10.106  0.5136  0.2808  0.1562
  643MOL0     C86731   5.612   8.871  10.242 -0.1001 -0.0061 -0.0897
  643MOL0     C86732   5.534   8.997  10.233 -0.0567  0.8626 -0.5650
  643MOL0     C86733   5.434   8.990  10.132  0.1814  0.5657  0.8188
  643MOL0     C86734   5.350   8.984  10.042  0.2554  0.7266 -0.4760
  643MOL0     C86735   5.940   8.482  10.124  0.1365 -0.0341  0.4719
  643MOL0     C86736   6.052   8.389  10.126 -0.2055  0.0154 -0.1873
  643MOL0     C86737   6.035   8.244  10.080 -0.3966  0.4458  0.3003
  643MOL0     H86738   6.230   8.002  10.157 -0.1078 -1.6977  0.6895
  643MOL0     H86739   6.391   7.807  10.137  0.2922  0.6376 -1.9517
  643MOL0     H86740   6.589   7.732  10.380  1.6012  2.0744  2.7549
  643MOL0     H86741   6.722   7.650  10.301 -0.0581  0.1457 -0.0223
  643MOL0     H86742   6.809   7.744  10.500  1.3633  2.1311  2.5288
  643MOL0     H86743   6.737   7.903  10.466 -1.0544  1.2685 -2.0276
  643MOL0     H86744   6.968   7.916  10.427 -0.7171  1.9837 -0.0954
  643MOL0     H86745   6.901   7.929  10.268  2.2925  0.7266  0.6113
  643MOL0     H86746   7.004   7.668  10.387  0.9609  0.4053  0.4450
  643MOL0     H86747   6.967   7.684  10.207 -0.9598 -1.4396  1.5311
  643MOL0     H86748   7.133   7.892  10.253 -1.6195  1.0561  3.4928
  643MOL0     H86749   7.197   7.780  10.375  1.0613  0.1902  0.4195
  643MOL0     H86750   7.192   7.587  10.182  3.9634 -0.1745  0.9780
  643MOL0     H86751   7.177   7.724  10.075 -1.2011 -0.3270 -0.6014
  643MOL0     H86752   7.405   7.792  10.116 -2.0223  0.0295 -0.7327
  643MOL0     H86753   7.407   7.622  10.089 -1.3165 -0.7556 -0.8706
  643MOL0     H86754   7.432   7.747  10.365 -2.3630 -0.6786  0.7671
  643MOL0     H86755   7.401   7.576  10.326  0.4489  0.4039  1.2153
  643MOL0     H86756   7.659   7.852  10.222 -0.6703 -0.0699 -1.6400
  643MOL0     H86757   7.937   7.700  10.080 -2.2948  1.1750 -1.2847
  643MOL0     H86758   7.905   7.839  10.186 -2.1692  0.5491  0.2182
  643MOL0     H86759   8.063   7.587  10.269 -1.4921 -0.3705  0.8270
  643MOL0     H86760   8.120   7.749  10.230  1.1558 -0.9451  1.6126
  643MOL0     H86761   7.940   7.708  10.476 -1.5483  2.6664  0.6910
  643MOL0     H86762   7.981   7.861  10.403 -4.2454 -0.7297  0.0201
  643MOL0     H86763   8.236   7.795  10.438 -1.4076  2.6119 -0.3135
  643MOL0     H86764   8.163   7.645  10.521 -1.7807 -1.0441 -1.0171
  643MOL0     H86765   8.190   7.977  10.836  1.5193  1.0474  1.0658
  643MOL0     H86766   8.348   7.944  10.996 -1.4050  0.0870 -0.1899
  643MOL0     H86767   8.802   7.915  11.125  1.1960  0.2160  0.3482
  643MOL0     H86768   8.979   7.883  11.277 -0.5757 -0.9034  0.8936
  643MOL0     H86769   9.242   7.808  11.258  2.4703 -1.0362 -1.7901
  643MOL0     H86770   9.173   7.805  11.421 -0.0896 -0.0661 -1.0419
  643MOL0     H86771   9.374   7.605  11.311 -0.0927  1.7892 -1.8360
  643MOL0     H86772   9.434   7.757  11.382 -0.5227  1.0696 -1.1080
  643MOL0     H86773   9.318   7.696  11.592  0.2132 -1.6399  1.9040
  643MOL0     H86774   9.271   7.542  11.542  0.0071  0.3855  5.9239
  643MOL0     H86775   9.549   7.642  11.565 -2.3799  2.0917  0.8697
  643MOL0     H86776   9.517   7.483  11.487 -1.9842 -1.9948  1.1229
  643MOL0     H86777   9.588   7.436  11.709  0.1234  0.5046 -0.7848
  643MOL0     H86778   9.430   7.378  11.675 -0.4574  0.9439 -3.2159
  643MOL0     H86779   9.520   7.625  11.820 -0.4427 -0.2653 -0.2438
  643MOL0     H86780   9.340   7.605  11.793  0.3097  0.6172 -0.2933
  643MOL0     H86781   9.413   7.556  12.017  1.2503  0.6571 -1.3540
  643MOL0     H86782   9.500   7.410  11.951 -1.2743 -1.7466  0.7446
  643MOL0     H86783   9.289   7.324  11.863 -0.9665  0.1141 -0.5514
  643MOL0     H86784   9.275   7.355  12.045  0.5257  3.4224  1.7338
  643MOL0     H86785   9.025   7.479  11.151  1.0562  0.1917 -3.0065
  643MOL0     H86786   8.824   7.513  10.986 -1.8856 -0.2815  1.5288
  643MOL0     H86787   8.552   7.656  10.723 -2.3373 -0.9539 -3.3758
  643MOL0     H86788   8.369   7.676  10.587 -1.1144  1.5792 -0.6202
  643MOL0     H86789   6.691   8.070  10.301 -1.1028  2.5204  0.4363
  643MOL0     H86790   6.552   8.250  10.281  2.0736 -0.6225 -1.6128
  643MOL0     H86791   6.285   8.622  10.236 -1.2326  1.3093  0.6593
  643MOL0     H86792   6.080   8.762  10.247 -0.2564  0.8998 -0.5568
  643MOL0     H86793   5.668   8.646  10.215 -0.6357  1.2583  0.2282
  643MOL0     H86794   5.734   8.624  10.044  0.2645  1.5831 -1.0658
  643MOL0     H86795   5.566   8.786  10.053  0.9165  1.0355 -0.9850
  643MOL0     H86796   5.730   8.879  10.055  0.4873 -0.9181 -1.4655
  643MOL0     H86797   5.695   8.882  10.312 -0.1238 -2.9321  0.5339
  643MOL0     H86798   5.551   8.788  10.280  0.4367 -0.4343 -0.1470
  643MOL0     H86799   5.484   9.022  10.327  1.3044  0.1169  0.3869
  643MOL0     H86800   5.598   9.085  10.224  1.5925  0.1590  2.6620
  643MOL0     H86801   5.287   8.972   9.956  3.5861  2.9683 -3.5142
  643MOL0     H86802   5.848   8.431  10.100 -0.6666  1.9023 -0.7605
  643MOL0     H86803   6.095   8.220   9.992 -0.5551 -2.4205  0.8988
  643MOL0     H86804   6.062   8.170  10.155  0.2029  0.4245  0.0734
  643MOL0     H86805   5.932   8.217  10.055 -0.0608  1.0182 -1.9902
  644MOL0     O86806   9.334   6.100   7.340  0.0245  0.0588  0.1865
  644MOL0     C86807   9.334   5.998   7.262  0.1280 -0.3389  0.0925
  644MOL0     O86808   9.358   5.868   7.300 -0.1768  0.8777 -0.0279
  644MOL0     C86809   9.392   5.840   7.424  0.1763  0.3776  0.3970
  644MOL0     C86810   9.316   5.885   7.536  0.0377 -0.4111  0.2395
  644MOL0     C86811   9.359   5.849   7.671  0.3496  0.2754 -0.4076
  644MOL0     C86812   9.480   5.777   7.689 -0.5984  0.1623  1.2513
  644MOL0     O86813   9.539   5.744   7.810 -0.5069  0.4586  0.5291
  644MOL0     C86814   9.456   5.736   7.930 -0.4690  0.0434  0.1261
  644MOL0     C86815   9.483   5.854   8.027 -0.1638  1.2965  0.1450
  644MOL0     C86816   9.631   5.873   8.054 -0.4596  0.2308 -0.3635
  644MOL0     C86817   9.679   5.776   8.157 -0.2761  0.3346 -0.7954
  644MOL0     C86818   9.831   5.801   8.177 -1.3637 -0.6619 -0.6799
  644MOL0     C86819   9.904   5.691   8.255  0.4314  0.4184 -0.4578
  644MOL0     C86820   9.861   5.667   8.397  0.7672  0.5058  0.3736
  644MOL0     C86821   9.930   5.538   8.454  0.3711 -0.3384 -0.1020
  644MOL0     N86822  10.075   5.562   8.455 -0.2275 -0.8428  0.0245
  644MOL0     C86823  10.161   5.507   8.359  0.2337  0.6283  0.5080
  644MOL0     C86824  10.287   5.536   8.396  0.8616  0.4321  0.6691
  644MOL0     C86825  10.416   5.466   8.352  0.0830 -0.6082  0.4039
  644MOL0     C86826  10.433   5.328   8.428  1.1374  0.5889  0.0420
  644MOL0     C86827  10.567   5.260   8.409 -0.0884 -0.0269  0.2456
  644MOL0     C86828  10.692   5.342   8.451  0.1616  0.9061  0.1485
  644MOL0     O86829  10.807   5.257   8.435 -0.1689  0.4494  0.0617
  644MOL0     C86830  10.903   5.285   8.334  0.5378  0.0536 -0.1015
  644MOL0     C86831  11.032   5.242   8.362  0.6293  0.3132 -0.6717
  644MOL0     C86832  11.142   5.261   8.275  1.4270  0.7382  0.1813
  644MOL0     C86833  11.122   5.323   8.149 -0.0899  0.5297  0.4953
  644MOL0     C86834  11.237   5.331   8.057 -0.6350  0.3086  0.1393
  644MOL0     O86835  11.338   5.235   8.075  0.3933 -0.9048  0.4505
  644MOL0     C86836  11.436   5.229   7.977 -0.5975  0.1129  0.0956
  644MOL0     C86837  11.423   5.229   7.840  0.0993 -0.1721  1.2728
  644MOL0     C86838  11.526   5.213   7.743 -0.4687  0.7898 -0.4878
  644MOL0     C86839  11.659   5.221   7.793 -0.5795  0.2553  0.2469
  644MOL0     O86840  11.777   5.215   7.717  0.1502 -0.4259  0.0445
  644MOL0     C86841  11.781   5.185   7.579  0.5654 -0.5242 -0.5693
  644MOL0     C86842  11.908   5.250   7.519 -0.0106  0.0273 -0.4338
  644MOL0     C86843  12.046   5.207   7.576 -0.5500  0.8423 -0.5840
  644MOL0     C86844  12.166   5.259   7.497  0.2966 -0.3321  0.1963
  644MOL0     C86845  12.302   5.232   7.568 -1.3602 -0.1156 -0.3774
  644MOL0     C86846  12.441   5.286   7.500  0.3715 -0.2207  0.1957
  644MOL0     C86847  12.554   5.220   7.563  0.4349 -1.1176 -0.3988
  644MOL0     C86848  12.689   5.267   7.508 -0.0505  0.0607 -0.2706
  644MOL0    Cl86849  12.828   5.198   7.608 -0.1193 -0.2652  0.1682
  644MOL0     C86850  11.686   5.230   7.923  0.0319 -1.1696 -0.4753
  644MOL0     C86851  11.576   5.228   8.015  0.0474 -1.1235 -0.0002
  644MOL0     O86852  11.237   5.424   7.979  0.1626 -0.1600 -0.4954
  644MOL0     C86853  10.988   5.362   8.119  0.0139 -1.1416 -0.7948
  644MOL0     C86854  10.875   5.347   8.207 -0.0712 -0.0028  0.0599
  644MOL0     N86855  10.271   5.617   8.510  0.8708  0.4615  0.1199
  644MOL0     N86856  10.146   5.619   8.551  0.2876  0.0565  0.3971
  644MOL0     C86857   9.551   5.741   7.572  0.2050  0.0703 -0.4677
  644MOL0     C86858   9.509   5.775   7.446  0.2803  1.4799  0.5302
  644MOL0     C86859   9.306   6.027   7.121 -0.4597 -0.0274 -0.0928
  644MOL0     C86860   9.374   6.137   7.062  0.2581  0.0332 -0.0106
  644MOL0     C86861   9.355   6.165   6.929  0.9138 -0.4023  0.4398
  644MOL0     C86862   9.264   6.094   6.849 -0.0157  0.8641  0.1630
  644MOL0     O86863   9.229   6.141   6.719 -0.1000 -0.5744 -0.1162
  644MOL0     C86864   9.154   6.070   6.634  0.1577  0.1544 -0.2818
  644MOL0     C86865   9.149   6.129   6.490 -0.2062 -0.2275  0.6730
  644MOL0     C86866   9.072   6.034   6.397  0.6139  0.9105 -0.3224
  644MOL0     C86867   9.041   6.085   6.260  0.4834  0.6313  0.0514
  644MOL0     C86868   9.149   6.092   6.171 -0.0598 -0.2214  0.9071
  644MOL0     C86869   9.226   6.107   6.077 -0.4545  0.3610 -0.1667
  644MOL0     C86870   9.189   5.985   6.911 -0.0658 -0.5163 -0.5127
  644MOL0     C86871   9.209   5.952   7.048  0.5308 -0.0572 -0.3613
  644MOL0     C86872   9.129   5.829   7.093  0.1106  0.4066 -0.7418
  644MOL0     H86873   9.225   5.939   7.513  1.9153  2.9705  0.2618
  644MOL0     H86874   9.291   5.866   7.754  1.1663 -0.6487  0.4987
  644MOL0     H86875   9.348   5.729   7.915 -0.4297  1.1369 -0.7834
  644MOL0     H86876   9.489   5.646   7.983 -1.0500  0.2204  0.7900
  644MOL0     H86877   9.424   5.839   8.118 -1.4103 -1.7275 -1.0337
  644MOL0     H86878   9.434   5.944   7.987 -2.3691  0.0277 -0.1875
  644MOL0     H86879   9.652   5.976   8.087  0.5771 -0.2654  0.5715
  644MOL0     H86880   9.692   5.856   7.964  0.6197 -0.8211  0.5415
  644MOL0     H86881   9.619   5.790   8.247  1.3002  3.1960 -0.0585
  644MOL0     H86882   9.670   5.673   8.121  1.9576  0.1626 -1.0371
  644MOL0     H86883   9.884   5.813   8.082 -1.6563  1.1240 -0.6477
  644MOL0     H86884   9.837   5.898   8.227 -1.5581 -0.6741 -0.6333
  644MOL0     H86885   9.895   5.597   8.199 -1.3432  1.1119 -1.4130
  644MOL0     H86886  10.009   5.720   8.267  0.3599  0.2533  0.7224
  644MOL0     H86887   9.753   5.653   8.398  0.6974  0.9170  2.7009
  644MOL0     H86888   9.893   5.747   8.464 -2.1978  1.1704  1.1403
  644MOL0     H86889   9.887   5.508   8.550 -1.4561 -0.9027 -1.0438
  644MOL0     H86890   9.911   5.450   8.392  1.0611  1.0013 -2.3051
  644MOL0     H86891  10.129   5.452   8.272 -0.9369  2.5556 -0.3293
  644MOL0     H86892  10.405   5.460   8.243  1.6765  0.2540  0.1527
  644MOL0     H86893  10.492   5.545   8.362 -0.3056  0.2598 -2.4209
  644MOL0     H86894  10.411   5.339   8.535 -1.3011 -1.3144 -0.1597
  644MOL0     H86895  10.343   5.273   8.400  0.6197  0.5354  1.7128
  644MOL0     H86896  10.573   5.214   8.310  0.6393 -4.9391  2.2713
  644MOL0     H86897  10.560   5.171   8.473 -0.1901  2.1619  3.5174
  644MOL0     H86898  10.684   5.363   8.558  3.1182  2.9654  0.0981
  644MOL0     H86899  10.695   5.440   8.401 -2.5192  0.2780 -1.4677
  644MOL0     H86900  11.058   5.208   8.461  4.3891 -1.7837 -2.1773
  644MOL0     H86901  11.233   5.207   8.296 -0.3484 -2.3650  0.4842
  644MOL0     H86902  11.322   5.236   7.799  1.3478 -2.6655 -2.8560
  644MOL0     H86903  11.491   5.211   7.641  0.1924  2.6486 -0.7771
  644MOL0     H86904  11.784   5.078   7.558 -3.4376 -0.7459 -0.7094
  644MOL0     H86905  11.694   5.225   7.527  0.4196  0.2988  0.2831
  644MOL0     H86906  11.896   5.251   7.411  0.7487  0.2047 -0.5191
  644MOL0     H86907  11.893   5.354   7.549  0.6987  0.0802 -0.2661
  644MOL0     H86908  12.034   5.239   7.680  0.6717  0.5165 -0.3281
  644MOL0     H86909  12.049   5.098   7.570 -1.0846  0.7607  0.4270
  644MOL0     H86910  12.154   5.365   7.474 -0.7304 -0.6971 -1.0983
  644MOL0     H86911  12.181   5.208   7.402 -0.6866 -2.5793  1.1676
  644MOL0     H86912  12.313   5.128   7.601 -3.1534  0.7658  3.7571
  644MOL0     H86913  12.284   5.290   7.660 -2.6309 -0.1477 -0.5777
  644MOL0     H86914  12.433   5.284   7.391 -1.2666 -0.3735  0.3004
  644MOL0     H86915  12.460   5.391   7.523 -0.7545 -0.1505  0.8608
  644MOL0     H86916  12.556   5.113   7.539 -1.9886 -1.2715 -0.1263
  644MOL0     H86917  12.534   5.226   7.671 -0.8499  1.1206 -0.6959
  644MOL0     H86918  12.687   5.230   7.405 -3.3541 -0.4184 -0.1567
  644MOL0     H86919  12.698   5.375   7.514  1.8960 -0.1412  4.3619
  644MOL0     H86920  11.787   5.260   7.948 -0.1112  0.5447 -1.7213
  644MOL0     H86921  11.590   5.225   8.122  1.6859  2.0992 -0.0073
  644MOL0     H86922  10.964   5.403   8.021  0.5994 -0.8732 -0.8267
  644MOL0     H86923  10.770   5.358   8.180 -0.0378  1.6964  0.5033
  644MOL0     H86924   9.646   5.688   7.580 -0.6461 -1.6124 -0.9534
  644MOL0     H86925   9.572   5.742   7.363  0.2562 -0.6574  1.2938
  644MOL0     H86926   9.442   6.197   7.121 -0.0524 -1.3801  1.8938
  644MOL0     H86927   9.403   6.250   6.880  3.6846 -1.9081  0.3081
  644MOL0     H86928   9.055   6.055   6.678  1.0373  2.0282  2.6251
  644MOL0     H86929   9.192   5.968   6.628 -0.5734 -0.0807 -4.9384
  644MOL0     H86930   9.251   6.133   6.451 -0.9878 -1.9423 -1.8385
  644MOL0     H86931   9.112   6.232   6.489  3.1418  1.0999  1.3757
  644MOL0     H86932   8.979   6.014   6.451  2.5753  0.1066  3.0695
  644MOL0     H86933   9.126   5.939   6.390  0.7950  1.1327 -2.6279
  644MOL0     H86934   8.968   6.015   6.219  1.1576 -0.0532 -0.0029
  644MOL0     H86935   8.996   6.185   6.264 -1.7931 -0.3471  0.3214
  644MOL0     H86936   9.277   6.128   5.985 -0.0581 -0.4593 -0.1393
  644MOL0     H86937   9.119   5.924   6.853 -0.4147 -0.8448  0.2441
  644MOL0     H86938   9.104   5.838   7.199  2.8801  1.1637 -0.0921
  644MOL0     H86939   9.032   5.828   7.042 -0.7418 -0.4794  0.8337
  644MOL0     H86940   9.185   5.739   7.067 -1.1775  0.2948 -3.5005
  645MOL0     O86941   6.244  11.188   7.091 -0.5010  0.0725  0.2329
  645MOL0     C86942   6.198  11.075   7.076 -1.1230  0.0169 -0.3722
  645MOL0     O86943   6.248  10.959   7.140  0.5242  0.2381  0.4157
  645MOL0     C86944   6.350  10.960   7.239  0.1690 -0.6688  0.0676
  645MOL0     C86945   6.480  11.001   7.208  0.3689  1.4206 -0.9473
  645MOL0     C86946   6.581  11.002   7.308 -0.1939 -0.5038 -0.2043
  645MOL0     C86947   6.544  10.982   7.442 -0.0411 -0.5843 -0.0408
  645MOL0     O86948   6.657  10.994   7.527 -0.0933 -0.5247  0.0586
  645MOL0     C86949   6.664  10.927   7.659  0.8132  0.1906  0.6573
  645MOL0     C86950   6.672  10.770   7.663  0.1963 -0.6829 -0.3276
  645MOL0     C86951   6.814  10.728   7.667  0.1240 -0.6226 -0.1554
  645MOL0     C86952   6.881  10.732   7.809  0.2061  0.0960  0.1436
  645MOL0     C86953   7.014  10.664   7.787 -0.1503  0.3691  0.9504
  645MOL0     C86954   7.087  10.671   7.922  0.3882 -0.2596 -0.2410
  645MOL0     C86955   7.223  10.610   7.903 -0.2692  0.5636 -0.1379
  645MOL0     C86956   7.305  10.621   8.035  0.2033 -0.4162 -0.6586
  645MOL0     N86957   7.438  10.557   8.006 -0.1592  0.6770 -0.8744
  645MOL0     C86958   7.543  10.611   7.936 -0.2324  1.0071  0.4635
  645MOL0     C86959   7.645  10.529   7.965  0.0286 -0.3866  0.2931
  645MOL0     C86960   7.785  10.544   7.919 -0.3170 -0.0706 -0.1956
  645MOL0     C86961   7.819  10.466   7.789 -0.8776 -0.1510 -0.4974
  645MOL0     C86962   7.881  10.328   7.807 -0.3426 -0.4034  0.1440
  645MOL0     C86963   8.009  10.316   7.894 -0.2928 -1.1166 -0.4147
  645MOL0     O86964   8.109  10.395   7.835  0.2060  0.4834  0.4472
  645MOL0     C86965   8.244  10.373   7.852  0.5014 -0.0583  0.4162
  645MOL0     C86966   8.298  10.290   7.952  0.1377 -0.0957  0.0714
  645MOL0     C86967   8.438  10.270   7.942 -0.3149  0.4259  0.6745
  645MOL0     C86968   8.527  10.347   7.863  0.2408  0.6029  0.3727
  645MOL0     C86969   8.676  10.349   7.890  0.2003  0.8829  0.0914
  645MOL0     O86970   8.732  10.280   7.994 -0.7736  0.3976 -0.1691
  645MOL0     C86971   8.864  10.293   8.034 -0.1931  1.1009  0.6585
  645MOL0     C86972   8.971  10.341   7.960 -0.0320  0.4086 -0.2374
  645MOL0     C86973   9.099  10.358   8.013 -0.0883  0.3434 -0.1842
  645MOL0     C86974   9.122  10.324   8.153  0.5865  0.0583 -0.1237
  645MOL0     O86975   9.235  10.338   8.230  0.2022  0.4930 -0.0147
  645MOL0     C86976   9.284  10.471   8.216  0.1870 -0.0925  1.2513
  645MOL0     C86977   9.380  10.528   8.314 -2.1634 -0.7131 -0.1024
  645MOL0     C86978   9.493  10.428   8.351 -0.0437  0.5382 -0.8449
  645MOL0     C86979   9.636  10.496   8.369 -0.0242  0.6108 -0.1912
  645MOL0     C86980   9.697  10.534   8.239 -0.6151 -0.0130 -0.4351
  645MOL0     C86981   9.778  10.407   8.189  0.4188 -0.2235 -0.0944
  645MOL0     C86982   9.827  10.418   8.043 -0.0447  0.2103  0.6393
  645MOL0     C86983   9.982  10.448   8.038  0.5132  0.6381  0.1968
  645MOL0    Cl86984  10.060  10.290   8.072  0.1450  0.1397  0.6886
  645MOL0     C86985   9.013  10.273   8.218 -0.1487  0.4443 -0.1637
  645MOL0     C86986   8.891  10.247   8.157  0.3476  0.0313  0.0495
  645MOL0     O86987   8.737  10.398   7.798 -0.3401  0.6323  0.0513
  645MOL0     C86988   8.467  10.435   7.777  0.1502  0.0764  0.6437
  645MOL0     C86989   8.328  10.450   7.768  0.6963 -0.2230  0.4100
  645MOL0     N86990   7.607  10.424   8.042 -0.3145 -0.2495 -0.0026
  645MOL0     N86991   7.482  10.439   8.064  0.9054 -0.1794  0.2382
  645MOL0     C86992   6.408  10.948   7.468  0.8306 -0.3572  0.0331
  645MOL0     C86993   6.318  10.929   7.366 -0.2492 -0.8268  0.3609
  645MOL0     C86994   6.086  11.056   6.980 -0.1356  0.7281 -0.2907
  645MOL0     C86995   6.024  10.930   6.975 -0.1415  0.0155 -1.0302
  645MOL0     C86996   5.906  10.895   6.902 -0.2012 -0.0217 -0.0076
  645MOL0     C86997   5.849  10.986   6.819  0.0532 -0.3444 -0.2928
  645MOL0     O86998   5.734  10.958   6.760  0.3887 -0.1449  0.7683
  645MOL0     C86999   5.649  11.058   6.696 -0.1892  0.0390 -0.2717
  645MOL0     C87000   5.508  11.004   6.683 -0.6702  0.5610 -0.4344
  645MOL0     C87001   5.443  11.002   6.819  0.5499 -0.0704 -0.0941
  645MOL0     C87002   5.303  10.936   6.814  0.3182 -0.3543  0.4463
  645MOL0     C87003   5.302  10.791   6.785  0.2317 -0.0193  0.0540
  645MOL0     C87004   5.287  10.672   6.764  0.3163  0.3532 -0.3660
  645MOL0     C87005   5.906  11.116   6.823 -0.3049 -0.1820  0.0803
  645MOL0     C87006   6.024  11.153   6.902 -0.3481 -1.1919  0.4129
  645MOL0     C87007   6.073  11.293   6.863 -0.3798  1.0374  0.1537
  645MOL0     H87008   6.503  11.014   7.103 -2.1573 -0.3301 -1.8290
  645MOL0     H87009   6.685  11.026   7.286  0.0583  1.0866  2.3375
  645MOL0     H87010   6.746  10.969   7.720  1.2962  0.6448 -0.2863
  645MOL0     H87011   6.579  10.954   7.721  0.3316  0.6357 -0.1903
  645MOL0     H87012   6.623  10.734   7.572  0.9295 -4.1612  0.4932
  645MOL0     H87013   6.620  10.742   7.755 -0.2569  0.7756 -0.1141
  645MOL0     H87014   6.863  10.804   7.605 -3.0898  1.4958 -0.3914
  645MOL0     H87015   6.819  10.626   7.628 -2.5012 -1.6094  1.8164
  645MOL0     H87016   6.890  10.832   7.851  2.2643 -0.6274  1.5712
  645MOL0     H87017   6.819  10.675   7.880  0.6178 -0.2987  0.1842
  645MOL0     H87018   6.995  10.560   7.761 -3.1773  0.1326  3.5383
  645MOL0     H87019   7.074  10.699   7.703  1.8417 -0.4836  1.9430
  645MOL0     H87020   7.096  10.776   7.950 -3.1766  0.7000 -2.0709
  645MOL0     H87021   7.021  10.621   7.994  2.0112 -1.0777  0.7197
  645MOL0     H87022   7.264  10.653   7.811  1.8071 -0.3926  0.2771
  645MOL0     H87023   7.199  10.504   7.885 -0.1644  0.6359 -0.7420
  645MOL0     H87024   7.324  10.726   8.058  4.7827 -1.2815  0.5210
  645MOL0     H87025   7.256  10.570   8.118  1.7708 -6.1770 -2.7279
  645MOL0     H87026   7.548  10.703   7.879 -2.0244 -0.6017 -2.5755
  645MOL0     H87027   7.797  10.652   7.904  2.3091 -0.3896 -0.9327
  645MOL0     H87028   7.848  10.520   8.005  2.8854 -1.6856 -2.7482
  645MOL0     H87029   7.731  10.462   7.725 -0.0405  0.2848 -1.7339
  645MOL0     H87030   7.898  10.529   7.745  3.1419 -3.7747  0.7775
  645MOL0     H87031   7.891  10.283   7.708  0.3534  0.2315 -0.0855
  645MOL0     H87032   7.804  10.268   7.857  0.7843 -2.0899 -0.0794
  645MOL0     H87033   8.051  10.215   7.891  1.6264 -0.3464 -1.1544
  645MOL0     H87034   8.000  10.343   8.000 -2.1787  1.5017 -1.1650
  645MOL0     H87035   8.237  10.231   8.019 -1.8202  2.4457  0.6850
  645MOL0     H87036   8.483  10.189   7.997 -0.8039 -0.4729 -0.2116
  645MOL0     H87037   8.959  10.372   7.856 -4.8206  2.3006  0.6012
  645MOL0     H87038   9.181  10.380   7.946  0.5980 -2.4900 -0.4355
  645MOL0     H87039   9.345  10.461   8.126  0.3844  4.0222  0.7358
  645MOL0     H87040   9.208  10.545   8.190 -1.5224 -2.0404  0.4345
  645MOL0     H87041   9.428  10.616   8.270  0.6703 -0.9284  2.2552
  645MOL0     H87042   9.336  10.555   8.411 -0.3177  0.5633  0.4257
  645MOL0     H87043   9.471  10.397   8.454  1.6923  1.6261 -0.0961
  645MOL0     H87044   9.495  10.343   8.282  1.0464  1.0991 -1.5242
  645MOL0     H87045   9.699  10.425   8.423 -1.1588  1.6288  2.7067
  645MOL0     H87046   9.632  10.584   8.434  0.5081  1.2777 -1.0495
  645MOL0     H87047   9.759  10.624   8.249  0.8526 -1.1534  1.4109
  645MOL0     H87048   9.628  10.567   8.161  1.1850  0.8161 -1.7612
  645MOL0     H87049   9.856  10.384   8.262  0.0512 -0.0001  0.3766
  645MOL0     H87050   9.711  10.321   8.197 -1.0352  0.7448 -1.3057
  645MOL0     H87051   9.779  10.500   7.989 -0.4513 -1.0716 -1.0682
  645MOL0     H87052   9.805  10.322   7.995  0.4163 -0.1386  1.1123
  645MOL0     H87053  10.019  10.479   7.940 -0.1851 -2.4156 -1.1479
  645MOL0     H87054  10.000  10.526   8.113 -1.2701  0.7541  0.5542
  645MOL0     H87055   9.018  10.245   8.323 -3.2984  2.3380  0.6566
  645MOL0     H87056   8.807  10.225   8.223  1.4144 -2.8834  0.6097
  645MOL0     H87057   8.523  10.500   7.711 -2.9464  0.6168 -1.6963
  645MOL0     H87058   8.289  10.520   7.695  2.3754 -0.3492 -0.6854
  645MOL0     H87059   6.363  10.927   7.565 -1.2133 -1.4406 -1.0760
  645MOL0     H87060   6.224  10.885   7.396 -0.5952  0.8119  1.8393
  645MOL0     H87061   6.062  10.847   7.034 -1.7486 -0.7414 -1.0051
  645MOL0     H87062   5.863  10.795   6.903  0.8521 -0.4866  0.2757
  645MOL0     H87063   5.685  11.082   6.596 -0.1737  0.8067 -0.0881
  645MOL0     H87064   5.647  11.149   6.756  0.3377 -1.3467  1.9505
  645MOL0     H87065   5.524  10.904   6.643  2.1903  1.5162 -2.0069
  645MOL0     H87066   5.458  11.058   6.603 -1.2083  2.0667  0.8626
  645MOL0     H87067   5.441  11.106   6.853  0.1336 -0.3798  0.8419
  645MOL0     H87068   5.495  10.944   6.895 -3.1798 -2.0038  1.2123
  645MOL0     H87069   5.264  10.950   6.916  0.6051  1.4893  0.3297
  645MOL0     H87070   5.230  10.994   6.757  1.4630  0.3187 -0.3773
  645MOL0     H87071   5.284  10.566   6.748  2.9047  0.0118  0.8863
  645MOL0     H87072   5.855  11.183   6.754 -1.9698 -2.9058 -1.5182
  645MOL0     H87073   6.079  11.303   6.754 -1.5096 -0.0835 -0.0357
  645MOL0     H87074   6.008  11.371   6.904 -0.5707 -0.9166  3.9304
  645MOL0     H87075   6.173  11.295   6.907 -0.5846 -2.7889  1.0949
  646MOL0     O87076   9.129  11.245   1.329  0.1902  0.3408  0.2230
  646MOL0     C87077   9.213  11.255   1.419 -1.1738 -0.2189  0.2641
  646MOL0     O87078   9.217  11.187   1.526 -0.2350  0.7017 -0.4175
  646MOL0     C87079   9.150  11.063   1.520  0.1534 -0.4988  0.2822
  646MOL0     C87080   9.228  10.952   1.488 -0.9253 -0.5300  0.4618
  646MOL0     C87081   9.155  10.841   1.466 -0.6501  0.5772 -0.9556
  646MOL0     C87082   9.013  10.830   1.463  0.6141  0.1771  0.5216
  646MOL0     O87083   8.940  10.718   1.427 -0.0830 -0.4820 -0.0773
  646MOL0     C87084   9.007  10.595   1.445 -0.6275  0.5348 -0.4046
  646MOL0     C87085   8.909  10.492   1.462 -0.6422  0.3046 -0.8506
  646MOL0     C87086   8.833  10.507   1.594  0.1150 -0.0455 -0.4303
  646MOL0     C87087   8.736  10.398   1.622  0.7266 -0.0541 -1.1232
  646MOL0     C87088   8.674  10.407   1.762 -0.3519 -0.4652  0.1529
  646MOL0     C87089   8.584  10.521   1.787 -0.1056  0.2601  0.0157
  646MOL0     C87090   8.515  10.522   1.926  1.1251  0.5079  0.0658
  646MOL0     C87091   8.436  10.387   1.948 -0.0363  0.1756  0.0411
  646MOL0     N87092   8.349  10.374   2.068  0.4198  0.0703 -0.1695
  646MOL0     C87093   8.358  10.261   2.150  0.4321 -0.1070  0.6576
  646MOL0     C87094   8.268  10.296   2.251 -0.2254  0.5373 -0.7605
  646MOL0     C87095   8.245  10.219   2.376  0.4763  0.1779  1.0376
  646MOL0     C87096   8.372  10.171   2.451 -0.6057 -0.5431  0.3633
  646MOL0     C87097   8.464  10.288   2.479  0.7372  0.2155 -0.7565
  646MOL0     C87098   8.565  10.258   2.595 -0.4094  0.0742 -0.3044
  646MOL0     O87099   8.653  10.155   2.554 -0.3713 -0.0218  0.2849
  646MOL0     C87100   8.773  10.136   2.614 -0.0547  0.8320 -0.1197
  646MOL0     C87101   8.850  10.031   2.557  0.3155  0.1373 -0.4692
  646MOL0     C87102   8.989  10.017   2.593  0.2251  0.1423 -0.0376
  646MOL0     C87103   9.044  10.100   2.693  0.8115  0.5928 -0.5098
  646MOL0     C87104   9.187  10.092   2.730 -0.1202 -0.7325 -0.1616
  646MOL0     O87105   9.254   9.981   2.707 -0.1794  0.4038 -0.1501
  646MOL0     C87106   9.392   9.992   2.713 -0.7004 -0.1254  0.6735
  646MOL0     C87107   9.480  10.082   2.643 -0.0193  0.0327  0.0375
  646MOL0     C87108   9.622  10.057   2.617  0.3571 -0.3721  0.4536
  646MOL0     C87109   9.681   9.948   2.675 -0.8375  0.7837  0.7422
  646MOL0     O87110   9.816   9.916   2.680  0.8643  0.1118 -0.2849
  646MOL0     C87111   9.913   9.997   2.620 -0.3819 -0.4493  0.3319
  646MOL0     C87112   9.970  10.106   2.706  0.1432 -0.6065  0.1982
  646MOL0     C87113  10.083  10.185   2.634 -0.4926  0.3138  0.1812
  646MOL0     C87114  10.230  10.176   2.714  0.6682  0.0578 -0.4928
  646MOL0     C87115  10.338  10.217   2.608  0.6174 -0.7994 -0.4841
  646MOL0     C87116  10.466  10.230   2.685 -0.3327 -0.6515 -0.4005
  646MOL0     C87117  10.574  10.289   2.596 -0.6102 -0.6140  1.0340
  646MOL0     C87118  10.548  10.412   2.520 -0.7395 -0.6543  0.8927
  646MOL0    Cl87119  10.708  10.426   2.427 -0.0050 -0.0304  0.2168
  646MOL0     C87120   9.603   9.862   2.744  0.4000  0.4332 -0.0286
  646MOL0     C87121   9.462   9.880   2.766  0.4293 -0.1718 -0.1372
  646MOL0     O87122   9.234  10.196   2.781  0.2865  0.2290  0.0275
  646MOL0     C87123   8.959  10.197   2.756  0.0766 -0.4112 -0.5781
  646MOL0     C87124   8.833  10.214   2.716 -0.3375  0.2149 -0.9133
  646MOL0     N87125   8.202  10.414   2.216  0.8161 -1.0199 -1.0324
  646MOL0     N87126   8.260  10.471   2.115  0.2272  0.4619 -0.8270
  646MOL0     C87127   8.940  10.949   1.491 -0.2462  0.0001 -0.3664
  646MOL0     C87128   9.016  11.060   1.525  0.1521 -0.6277  1.0746
  646MOL0     C87129   9.308  11.363   1.408 -0.4636  0.1342 -0.0228
  646MOL0     C87130   9.258  11.492   1.386  0.4593  0.7084 -0.7728
  646MOL0     C87131   9.353  11.596   1.383  0.2463  0.2283  0.7195
  646MOL0     C87132   9.491  11.579   1.409  0.3067  0.2839  0.2771
  646MOL0     O87133   9.590  11.677   1.402 -0.6256  0.5521 -0.1478
  646MOL0     C87134   9.557  11.799   1.465 -0.4533  0.0932 -0.3691
  646MOL0     C87135   9.694  11.863   1.506  1.1570  0.2625 -0.3005
  646MOL0     C87136   9.787  11.771   1.587  1.2006  0.5385  0.3588
  646MOL0     C87137   9.871  11.838   1.685 -1.1077 -0.4115 -0.2812
  646MOL0     C87138   9.978  11.907   1.612  0.6994  0.8044  0.3492
  646MOL0     C87139  10.075  11.954   1.556  0.2163 -0.6888  0.3985
  646MOL0     C87140   9.532  11.449   1.440  0.4531 -0.7002 -0.7080
  646MOL0     C87141   9.449  11.340   1.425 -0.2239  0.0698 -0.0332
  646MOL0     C87142   9.511  11.205   1.426  0.2833 -0.3916 -0.8984
  646MOL0     H87143   9.335  10.965   1.477 -1.0807  2.1904  1.3355
  646MOL0     H87144   9.211  10.755   1.432 -0.1218  0.7450 -0.5145
  646MOL0     H87145   9.059  10.549   1.360 -1.6526 -0.8400 -0.3210
  646MOL0     H87146   9.077  10.592   1.529 -0.2294 -0.1713 -0.7508
  646MOL0     H87147   8.952  10.391   1.458 -3.0117 -1.1721  3.3672
  646MOL0     H87148   8.833  10.495   1.383  1.3083 -1.4475 -2.9381
  646MOL0     H87149   8.777  10.601   1.592  1.4703  0.7904 -0.1589
  646MOL0     H87150   8.897  10.513   1.683  0.3093 -1.1003 -0.4929
  646MOL0     H87151   8.661  10.404   1.543 -0.2630  1.4935 -0.1299
  646MOL0     H87152   8.790  10.303   1.627  2.1740  0.7940  2.1308
  646MOL0     H87153   8.627  10.310   1.779 -1.4014 -0.0246 -0.1879
  646MOL0     H87154   8.760  10.412   1.830  0.3310 -2.2020 -0.5331
  646MOL0     H87155   8.646  10.610   1.774 -0.6547  0.7879  0.9226
  646MOL0     H87156   8.507  10.503   1.711  0.3854  0.2613 -0.4921
  646MOL0     H87157   8.455  10.613   1.939  1.7351  0.6397  2.5712
  646MOL0     H87158   8.589  10.517   2.006  0.7863 -1.6987  0.3027
  646MOL0     H87159   8.372  10.372   1.860 -1.9620  4.1341  0.5233
  646MOL0     H87160   8.510  10.307   1.956  2.3670  2.1880 -0.9579
  646MOL0     H87161   8.414  10.168   2.155  0.0327 -0.3746  0.1977
  646MOL0     H87162   8.195  10.287   2.446 -1.1649 -1.6152  1.7059
  646MOL0     H87163   8.179  10.133   2.358  0.4493  1.0342 -4.4157
  646MOL0     H87164   8.351  10.117   2.544 -1.0916  0.1337  0.6500
  646MOL0     H87165   8.421  10.101   2.382 -1.2239  0.8528 -1.5697
  646MOL0     H87166   8.401  10.368   2.519 -1.1594 -0.4904 -2.2117
  646MOL0     H87167   8.513  10.316   2.386 -1.1227 -2.9048 -2.8638
  646MOL0     H87168   8.518  10.236   2.691 -1.4928 -3.7371 -1.5643
  646MOL0     H87169   8.626  10.347   2.618  1.7126 -1.9142  2.5682
  646MOL0     H87170   8.816   9.965   2.478 -1.2218 -0.4409  0.6310
  646MOL0     H87171   9.045   9.941   2.538 -2.9427 -0.0582 -3.3932
  646MOL0     H87172   9.428  10.168   2.603 -0.0151  1.7700  3.4220
  646MOL0     H87173   9.670  10.116   2.539 -3.9574 -1.1101 -3.1629
  646MOL0     H87174   9.998   9.940   2.580 -1.9381 -1.2790 -1.9987
  646MOL0     H87175   9.872  10.040   2.528 -0.4076  3.7505  2.0654
  646MOL0     H87176   9.890  10.178   2.725 -1.3257 -1.8923 -0.8272
  646MOL0     H87177   9.992  10.063   2.804 -0.9510 -1.5690  0.0582
  646MOL0     H87178  10.093  10.137   2.536 -0.0068 -0.5618  0.6451
  646MOL0     H87179  10.045  10.284   2.606 -1.1841 -0.0405 -0.1547
  646MOL0     H87180  10.249  10.072   2.739  0.5187  0.0439 -0.4378
  646MOL0     H87181  10.231  10.234   2.807 -3.1319  2.8387 -1.9091
  646MOL0     H87182  10.314  10.314   2.563  0.2448  0.2614  1.8356
  646MOL0     H87183  10.341  10.138   2.533 -3.0024 -1.7396  0.1868
  646MOL0     H87184  10.453  10.297   2.770  1.4039 -1.1811  0.3274
  646MOL0     H87185  10.508  10.138   2.727  1.7736 -0.0907 -1.1313
  646MOL0     H87186  10.587  10.206   2.526 -1.0755 -0.0463  0.2669
  646MOL0     H87187  10.668  10.303   2.651  1.0396  1.9466 -2.0571
  646MOL0     H87188  10.466  10.425   2.449  2.5337  6.0978 -2.6633
  646MOL0     H87189  10.547  10.504   2.580 -1.0526  1.5211 -2.1966
  646MOL0     H87190   9.660   9.779   2.783  2.0840  1.7370  0.4325
  646MOL0     H87191   9.409   9.803   2.820 -2.2315  0.7740 -1.2213
  646MOL0     H87192   9.010  10.264   2.824  3.9010 -0.4141 -3.1703
  646MOL0     H87193   8.764  10.284   2.761 -2.3585 -2.8855  1.1522
  646MOL0     H87194   8.832  10.951   1.486 -0.4557  0.7486  2.7112
  646MOL0     H87195   8.954  11.145   1.552 -3.7258 -2.6571 -0.6976
  646MOL0     H87196   9.153  11.507   1.362  1.0646  0.9052 -3.6900
  646MOL0     H87197   9.332  11.700   1.360  0.1873  0.0452 -0.0703
  646MOL0     H87198   9.493  11.790   1.553  2.0143  0.1415  1.5540
  646MOL0     H87199   9.499  11.864   1.398  0.0877  0.7230 -0.2356
  646MOL0     H87200   9.670  11.957   1.557 -0.3553 -0.1827 -0.1336
  646MOL0     H87201   9.750  11.894   1.417  3.3591  1.5538  1.4198
  646MOL0     H87202   9.838  11.706   1.515  1.2242  3.0830 -2.1120
  646MOL0     H87203   9.724  11.702   1.643  2.7102  0.6747  2.3607
  646MOL0     H87204   9.812  11.919   1.729  0.1739 -0.5099  1.7497
  646MOL0     H87205   9.906  11.772   1.764 -2.0721 -0.7894 -0.1548
  646MOL0     H87206  10.166  11.995   1.518 -1.2456  2.0199 -0.4761
  646MOL0     H87207   9.633  11.430   1.475 -0.4075 -3.5491  0.4992
  646MOL0     H87208   9.456  11.137   1.360 -1.7267 -0.6331  0.9135
  646MOL0     H87209   9.615  11.206   1.393  1.3088  2.6170  1.9359
  646MOL0     H87210   9.504  11.183   1.532 -1.6321  2.4751 -0.3167
  647MOL0     O87211  10.823   0.060   5.528  0.1484  0.1856 -0.2105
  647MOL0     C87212  10.760  -0.017   5.603  0.3487  0.3290 -0.0337
  647MOL0     O87213  10.800  -0.061   5.722 -0.1787 -0.3462  0.4653
  647MOL0     C87214  10.929  -0.023   5.760  0.7839 -0.0348 -0.2112
  647MOL0     C87215  11.025  -0.096   5.700  0.5689  0.4865  0.5210
  647MOL0     C87216  11.157  -0.072   5.729  0.2916 -0.2026 -0.4439
  647MOL0     C87217  11.198   0.032   5.814  0.4993  0.2241  1.6971
  647MOL0     O87218  11.327   0.038   5.852  0.7731 -0.1471  0.3179
  647MOL0     C87219  11.432   0.005   5.765  0.5876  0.9767  1.4319
  647MOL0     C87220  11.564   0.049   5.818 -1.2797  0.5603  0.3995
  647MOL0     C87221  11.675   0.048   5.713 -0.0768 -1.3169 -0.2583
  647MOL0     C87222  11.809   0.091   5.773  0.3251 -0.4893  0.4378
  647MOL0     C87223  11.927   0.075   5.670 -0.5187  0.1679  0.4546
  647MOL0     C87224  11.966  -0.066   5.621 -0.1546  0.3056 -0.3097
  647MOL0     C87225  12.039  -0.144   5.743  0.6282 -0.8951  0.8981
  647MOL0     C87226  12.085  -0.290   5.714  0.1824  0.5207  0.1035
  647MOL0     N87227  12.178  -0.292   5.606 -0.3816 -0.4061 -0.2790
  647MOL0     C87228  12.300  -0.216   5.612  1.0934  0.6016  0.0717
  647MOL0     C87229  12.349  -0.227   5.485  0.1461 -0.3100 -0.6365
  647MOL0     C87230  12.482  -0.162   5.440  0.0037 -0.1553  0.6194
  647MOL0     C87231  12.581  -0.276   5.406 -0.2334 -0.7254 -0.5211
  647MOL0     C87232  12.559  -0.313   5.260  0.2394 -0.4656 -0.4978
  647MOL0     C87233  12.558  -0.464   5.230  0.6857  0.2326 -0.4521
  647MOL0     O87234  12.655  -0.541   5.308 -0.3865  0.0219 -0.2945
  647MOL0     C87235  12.763  -0.587   5.233  0.7562  0.4466  0.6143
  647MOL0     C87236  12.783  -0.720   5.228 -0.2111  0.8428  0.5287
  647MOL0     C87237  12.886  -0.780   5.151 -0.0301  0.2213 -0.4595
  647MOL0     C87238  12.972  -0.699   5.085 -0.5254  0.2963  0.9130
  647MOL0     C87239  13.090  -0.753   4.991  0.5489  0.1713  0.2509
  647MOL0     O87240  13.176  -0.661   4.970 -0.7392 -0.3195  0.2822
  647MOL0     C87241  13.271  -0.679   4.874  0.4039  0.2220  0.1758
  647MOL0     C87242  13.235  -0.684   4.736 -0.1781 -0.5634 -0.4315
  647MOL0     C87243  13.324  -0.720   4.638  0.3421  0.2146  0.6983
  647MOL0     C87244  13.457  -0.769   4.671  1.0293  0.3853  0.0886
  647MOL0     O87245  13.540  -0.801   4.564 -0.7110  0.5658 -0.8315
  647MOL0     C87246  13.684  -0.778   4.593  0.0139 -0.3333 -0.2057
  647MOL0     C87247  13.764  -0.782   4.455  0.0765 -0.1050 -0.1899
  647MOL0     C87248  13.915  -0.825   4.467  0.2984  0.3134 -0.2605
  647MOL0     C87249  14.003  -0.776   4.353  0.3450 -0.3143 -1.1078
  647MOL0     C87250  14.152  -0.770   4.390  0.5923 -0.0545 -0.4482
  647MOL0     C87251  14.239  -0.695   4.285 -0.4393  0.0561 -0.4921
  647MOL0     C87252  14.387  -0.715   4.326  0.0999 -0.0382 -0.6604
  647MOL0     C87253  14.499  -0.682   4.227 -0.6598 -0.6959  0.5459
  647MOL0    Cl87254  14.488  -0.808   4.085 -0.2687 -0.1396 -0.5740
  647MOL0     C87255  13.494  -0.757   4.806  0.2136  0.3280 -0.3536
  647MOL0     C87256  13.406  -0.704   4.904  1.0606 -0.1420 -0.3396
  647MOL0     O87257  13.103  -0.875   4.964 -0.4536 -0.2776 -0.7400
  647MOL0     C87258  12.948  -0.568   5.083  1.0157 -0.4210 -0.9176
  647MOL0     C87259  12.848  -0.504   5.162 -0.1606  0.1653 -0.4521
  647MOL0     N87260  12.260  -0.308   5.412  0.0204 -0.4792  0.4361
  647MOL0     N87261  12.164  -0.351   5.484  0.1109 -0.3709 -0.9822
  647MOL0     C87262  11.096   0.111   5.867  0.5007  0.1735 -0.3612
  647MOL0     C87263  10.961   0.079   5.846  0.8296  1.1115 -0.2524
  647MOL0     C87264  10.618  -0.060   5.559 -0.2321 -0.8221 -0.4845
  647MOL0     C87265  10.586  -0.054   5.422 -0.3441  0.5987  1.1775
  647MOL0     C87266  10.463  -0.098   5.367  0.9459  0.8606  0.3729
  647MOL0     C87267  10.364  -0.129   5.454 -0.2116  0.0081 -0.1551
  647MOL0     O87268  10.239  -0.178   5.425 -1.0302 -0.3374 -0.7819
  647MOL0     C87269  10.144  -0.076   5.391 -0.2685 -0.8371  0.1124
  647MOL0     C87270  10.064  -0.127   5.270 -0.5404 -0.4522 -0.5044
  647MOL0     C87271  10.151  -0.130   5.141 -0.3358 -0.2842 -0.6069
  647MOL0     C87272  10.175   0.009   5.078  1.0096  0.5967 -0.2800
  647MOL0     C87273  10.060   0.047   4.996  0.4346  0.7022  0.1547
  647MOL0     C87274   9.967   0.062   4.918 -0.0996 -1.3967 -0.0496
  647MOL0     C87275  10.394  -0.141   5.586 -0.3122 -0.3166 -0.4655
  647MOL0     C87276  10.522  -0.109   5.644  0.3785 -0.8472  0.2543
  647MOL0     C87277  10.542  -0.151   5.785 -0.9034  0.0069 -0.4916
  647MOL0     H87278  11.004  -0.183   5.638 -1.2667 -0.0145  1.7749
  647MOL0     H87279  11.239  -0.133   5.693  1.1063 -1.2643  2.8626
  647MOL0     H87280  11.430  -0.104   5.750  2.1974  0.8493  1.9230
  647MOL0     H87281  11.399   0.055   5.674 -3.5861  0.1464  2.2858
  647MOL0     H87282  11.582  -0.004   5.912  0.1797  0.2071 -0.0449
  647MOL0     H87283  11.553   0.156   5.841 -3.7969  1.2188 -3.0078
  647MOL0     H87284  11.652   0.126   5.640 -3.6272 -1.3572  0.5872
  647MOL0     H87285  11.679  -0.052   5.668 -1.1351 -0.3639 -2.6309
  647MOL0     H87286  11.801   0.199   5.788  1.9300 -0.1458 -0.8474
  647MOL0     H87287  11.830   0.029   5.860 -2.0922 -0.8950  0.7876
  647MOL0     H87288  11.919   0.135   5.579  2.1854 -2.0486 -1.4300
  647MOL0     H87289  12.021   0.112   5.713 -2.3478  1.9125  3.3098
  647MOL0     H87290  11.880  -0.121   5.581 -3.0713  1.1257  4.1275
  647MOL0     H87291  12.026  -0.055   5.530  0.2826  0.4170 -0.0119
  647MOL0     H87292  11.970  -0.144   5.827 -0.5440  0.9718  0.0131
  647MOL0     H87293  12.129  -0.084   5.759  0.0660  1.8873 -4.0991
  647MOL0     H87294  12.131  -0.320   5.808 -4.0788 -0.4227  2.1143
  647MOL0     H87295  12.008  -0.363   5.690  2.2692 -1.5016 -0.9117
  647MOL0     H87296  12.342  -0.162   5.696  1.4420  0.3608  0.0562
  647MOL0     H87297  12.471  -0.082   5.367 -1.2649 -2.1490 -1.5256
  647MOL0     H87298  12.536  -0.112   5.521  0.8466 -1.2585  0.7711
  647MOL0     H87299  12.683  -0.241   5.425 -1.0925  3.6243 -2.7894
  647MOL0     H87300  12.550  -0.354   5.477 -0.1464 -2.8229 -2.6803
  647MOL0     H87301  12.640  -0.276   5.197 -0.0401  2.3974  0.6698
  647MOL0     H87302  12.467  -0.266   5.224  0.6124  0.3037 -0.4595
  647MOL0     H87303  12.565  -0.482   5.123  0.8977 -1.0250 -0.2372
  647MOL0     H87304  12.456  -0.486   5.262  0.2408  1.7902 -0.6954
  647MOL0     H87305  12.711  -0.789   5.269 -2.1079  0.8625 -2.4653
  647MOL0     H87306  12.889  -0.888   5.144  2.6177  0.2935 -2.5626
  647MOL0     H87307  13.133  -0.657   4.714 -0.6327  3.4772  4.6216
  647MOL0     H87308  13.284  -0.740   4.540 -1.0420 -0.2294  1.3243
  647MOL0     H87309  13.708  -0.687   4.649 -1.4532  0.0016 -0.0731
  647MOL0     H87310  13.714  -0.865   4.653  3.1627  0.5366 -0.3269
  647MOL0     H87311  13.709  -0.858   4.398  0.1756  0.7335 -1.4559
  647MOL0     H87312  13.753  -0.681   4.414  0.2547 -0.8683 -2.2694
  647MOL0     H87313  13.951  -0.807   4.568  0.6057 -0.9739 -0.1275
  647MOL0     H87314  13.921  -0.934   4.458  0.4298  0.2900  0.1139
  647MOL0     H87315  13.962  -0.679   4.323  0.1910 -0.8862 -2.9102
  647MOL0     H87316  13.992  -0.838   4.263 -3.3536 -1.6365  0.0698
  647MOL0     H87317  14.193  -0.871   4.397 -3.8676 -2.0387  1.3420
  647MOL0     H87318  14.162  -0.726   4.490  0.8436 -1.5966  0.2394
  647MOL0     H87319  14.209  -0.740   4.190 -1.1523 -1.6658  0.5071
  647MOL0     H87320  14.221  -0.588   4.271  1.4286  0.3338 -1.0522
  647MOL0     H87321  14.403  -0.820   4.354  0.0793  0.1121 -0.0853
  647MOL0     H87322  14.407  -0.659   4.417  5.2210  0.3539 -1.7203
  647MOL0     H87323  14.495  -0.578   4.195 -0.7724 -0.5775  0.9444
  647MOL0     H87324  14.595  -0.697   4.279 -0.9064  1.2931  1.6695
  647MOL0     H87325  13.600  -0.774   4.823  0.6430  1.7059 -1.4367
  647MOL0     H87326  13.436  -0.690   5.008  1.9352 -0.3157 -0.5584
  647MOL0     H87327  13.012  -0.501   5.027  1.2174  1.4574  1.4083
  647MOL0     H87328  12.827  -0.398   5.172  0.9302  0.2732  1.0699
  647MOL0     H87329  11.125   0.195   5.930  0.7163 -0.1786  0.0193
  647MOL0     H87330  10.876   0.130   5.889 -0.4781 -1.1081 -0.0374
  647MOL0     H87331  10.650  -0.024   5.340  1.4078 -1.7794  1.5577
  647MOL0     H87332  10.459  -0.086   5.260 -0.9428 -0.9142  0.1888
  647MOL0     H87333  10.189   0.023   5.380  0.3345 -1.1358 -0.1623
  647MOL0     H87334  10.074  -0.067   5.475  1.9314  2.5862  1.7906
  647MOL0     H87335   9.974  -0.065   5.265 -0.8597 -0.6385  1.7351
  647MOL0     H87336  10.039  -0.231   5.291 -1.0749 -0.4755 -1.2252
  647MOL0     H87337  10.101  -0.192   5.065 -0.6113 -1.1350  0.2351
  647MOL0     H87338  10.249  -0.173   5.164 -0.9829 -3.6099 -3.2258
  647MOL0     H87339  10.211   0.088   5.144  0.6168  0.2187  0.4001
  647MOL0     H87340  10.256  -0.012   5.008 -0.2462  0.2320 -1.6816
  647MOL0     H87341   9.889   0.083   4.848  0.0994 -1.5317 -0.3154
  647MOL0     H87342  10.313  -0.186   5.642  0.3595 -2.8095 -1.3734
  647MOL0     H87343  10.453  -0.206   5.817 -3.0023  2.2476 -2.0825
  647MOL0     H87344  10.629  -0.216   5.796  2.0539  3.8513  1.2572
  647MOL0     H87345  10.559  -0.063   5.848  0.2368 -1.0877  0.7898
  648MOL0     O87346   1.394   2.419   7.773  0.4046  0.3378 -0.0712
  648MOL0     C87347   1.335   2.345   7.847 -0.1746 -0.3647 -0.5837
  648MOL0     O87348   1.397   2.257   7.923  0.0000  0.9089  0.2798
  648MOL0     C87349   1.526   2.259   7.974 -0.0038  0.6172 -0.5551
  648MOL0     C87350   1.549   2.165   8.075 -0.5448 -1.3835  0.1075
  648MOL0     C87351   1.675   2.167   8.138  0.0148  0.8211 -0.4487
  648MOL0     C87352   1.773   2.268   8.106  0.1539  0.1992 -0.3903
  648MOL0     O87353   1.889   2.268   8.177 -0.4974 -0.2324 -0.0067
  648MOL0     C87354   1.951   2.399   8.182 -0.5458  0.2066 -0.5884
  648MOL0     C87355   2.057   2.388   8.289  0.0728  0.2448 -0.1221
  648MOL0     C87356   2.117   2.525   8.307  0.0318  0.0868 -0.7902
  648MOL0     C87357   2.228   2.525   8.412 -0.3388  0.0611 -0.1804
  648MOL0     C87358   2.282   2.663   8.431 -1.1549 -0.4630 -0.8706
  648MOL0     C87359   2.415   2.668   8.522  0.0420 -0.1321 -0.3652
  648MOL0     C87360   2.496   2.797   8.502 -0.2935  0.6361  0.6456
  648MOL0     C87361   2.599   2.820   8.618 -0.2334 -0.2793  0.0512
  648MOL0     N87362   2.655   2.960   8.594  0.2948 -0.1401 -0.1120
  648MOL0     C87363   2.716   3.002   8.475 -0.5829  0.3074  0.3874
  648MOL0     C87364   2.739   3.136   8.491 -0.1943  0.0198  0.0806
  648MOL0     C87365   2.812   3.231   8.401  0.2836 -0.3417 -0.2823
  648MOL0     C87366   2.949   3.191   8.358  0.0882  0.4242 -0.3050
  648MOL0     C87367   3.039   3.123   8.455  0.9405  0.3197  0.7344
  648MOL0     C87368   3.084   3.218   8.565 -0.8516  0.5112  0.1145
  648MOL0     O87369   3.158   3.317   8.497 -0.1071 -0.0508  0.2461
  648MOL0     C87370   3.284   3.351   8.531  0.2502 -1.2120 -0.1895
  648MOL0     C87371   3.342   3.350   8.654  1.0438  0.2506 -0.3117
  648MOL0     C87372   3.468   3.398   8.675 -0.1111 -0.7265  0.0180
  648MOL0     C87373   3.539   3.455   8.575 -0.5733 -0.0564  0.4113
  648MOL0     C87374   3.681   3.486   8.601  0.1041  1.3565  0.1562
  648MOL0     O87375   3.750   3.518   8.496 -0.4103 -1.3593  0.0866
  648MOL0     C87376   3.892   3.528   8.494  0.8713 -0.8932  1.1555
  648MOL0     C87377   3.940   3.659   8.468 -0.1086  0.6912 -0.2656
  648MOL0     C87378   4.076   3.687   8.459  0.6516 -0.0098 -0.2500
  648MOL0     C87379   4.168   3.593   8.490 -0.3313  0.4544  0.0700
  648MOL0     O87380   4.300   3.628   8.488  0.0649  1.0736 -0.0276
  648MOL0     C87381   4.383   3.548   8.407  0.3934 -0.0166 -0.4888
  648MOL0     C87382   4.509   3.514   8.490 -0.2781 -0.0782  0.0925
  648MOL0     C87383   4.589   3.647   8.541  0.0477  1.0104  0.6436
  648MOL0     C87384   4.649   3.636   8.685  0.4909 -0.1335  0.0035
  648MOL0     C87385   4.795   3.619   8.673 -0.0816  0.6067  0.3326
  648MOL0     C87386   4.860   3.610   8.807 -0.2972 -0.2399 -0.2262
  648MOL0     C87387   5.004   3.574   8.783 -0.2733  0.3304 -0.6916
  648MOL0     C87388   5.066   3.546   8.917 -0.8043 -0.3149  0.9092
  648MOL0    Cl87389   5.236   3.489   8.881 -0.0566  0.0317 -0.0193
  648MOL0     C87390   4.124   3.467   8.526  0.2787 -0.6125  0.1334
  648MOL0     C87391   3.987   3.432   8.526  0.6475 -0.4818 -0.5275
  648MOL0     O87392   3.721   3.490   8.720 -0.1614 -0.0913  0.1408
  648MOL0     C87393   3.472   3.481   8.453  0.3967 -0.4125 -0.6529
  648MOL0     C87394   3.351   3.423   8.428  0.4408  0.4033  0.0510
  648MOL0     N87395   2.691   3.160   8.621  0.9486 -0.7184 -0.0263
  648MOL0     N87396   2.658   3.056   8.685 -0.0721  0.9406  0.1897
  648MOL0     C87397   1.753   2.362   8.003  0.9762 -0.1649 -0.2203
  648MOL0     C87398   1.626   2.352   7.943  1.5254 -0.6563 -0.4553
  648MOL0     C87399   1.190   2.353   7.864 -0.4473  0.3750 -0.3948
  648MOL0     C87400   1.126   2.228   7.887 -0.1696  0.5258  0.3287
  648MOL0     C87401   0.984   2.222   7.904  0.4188 -0.0490 -0.3578
  648MOL0     C87402   0.900   2.326   7.886 -0.2538 -0.7948  0.0765
  648MOL0     O87403   0.770   2.318   7.913 -0.3401 -0.5753  0.3091
  648MOL0     C87404   0.711   2.193   7.909 -0.0090  0.2161  0.4629
  648MOL0     C87405   0.568   2.224   7.899 -0.3509  0.4094 -0.1191
  648MOL0     C87406   0.473   2.104   7.862 -0.0303 -0.3698 -0.4424
  648MOL0     C87407   0.451   2.095   7.711 -0.4785  0.0116 -0.1107
  648MOL0     C87408   0.562   2.033   7.641  0.4445  0.4483 -0.5058
  648MOL0     C87409   0.659   1.994   7.579 -0.2672  0.0129  0.0167
  648MOL0     C87410   0.965   2.451   7.874 -0.9263  0.1423  0.0044
  648MOL0     C87411   1.100   2.470   7.852  0.7688 -0.1882  0.3643
  648MOL0     C87412   1.157   2.606   7.827  0.0242  0.5821 -0.1996
  648MOL0     H87413   1.468   2.098   8.104 -2.1814  0.3331 -0.2907
  648MOL0     H87414   1.690   2.101   8.223 -1.0331  1.2898  0.1187
  648MOL0     H87415   2.000   2.429   8.089  1.5024  0.8775  0.6661
  648MOL0     H87416   1.880   2.476   8.215 -0.5631  1.0487 -2.4620
  648MOL0     H87417   2.131   2.325   8.238  2.0957  1.2308  1.4484
  648MOL0     H87418   2.022   2.349   8.386  0.2663 -1.0964 -0.5644
  648MOL0     H87419   2.032   2.588   8.333 -1.8178 -2.1275 -1.1786
  648MOL0     H87420   2.159   2.553   8.210  0.0536 -1.6761 -1.3368
  648MOL0     H87421   2.195   2.490   8.510 -1.4195  0.0690 -0.5222
  648MOL0     H87422   2.309   2.463   8.372 -2.0069 -0.6059 -2.7601
  648MOL0     H87423   2.309   2.698   8.331 -0.2629 -0.4817 -0.6456
  648MOL0     H87424   2.203   2.728   8.469 -1.1076 -0.9732  0.1494
  648MOL0     H87425   2.387   2.662   8.627 -2.0961 -0.8043 -0.9319
  648MOL0     H87426   2.483   2.586   8.494  1.4436 -0.9833  4.6117
  648MOL0     H87427   2.424   2.880   8.493 -0.5697  0.3352  0.0755
  648MOL0     H87428   2.547   2.806   8.406 -2.0727 -1.1066 -0.5405
  648MOL0     H87429   2.547   2.810   8.714 -3.6158  0.0102 -1.5953
  648MOL0     H87430   2.688   2.757   8.617  0.8837  1.2323 -0.4147
  648MOL0     H87431   2.729   2.938   8.388 -0.7248 -2.7549  2.4474
  648MOL0     H87432   2.755   3.248   8.309  0.0086  0.1714 -0.0240
  648MOL0     H87433   2.830   3.326   8.453  3.3394 -1.4078  0.7824
  648MOL0     H87434   2.939   3.112   8.282 -0.2207  1.4714 -1.3772
  648MOL0     H87435   3.006   3.268   8.305 -2.6884  1.0794 -2.5828
  648MOL0     H87436   3.131   3.083   8.413  1.2139 -0.2600  1.8456
  648MOL0     H87437   2.989   3.031   8.486  1.0776 -0.6924 -1.8246
  648MOL0     H87438   3.157   3.164   8.627  1.7594  2.8114 -0.7825
  648MOL0     H87439   2.994   3.249   8.619 -2.1898 -0.9891 -1.1378
  648MOL0     H87440   3.288   3.310   8.739 -0.3284  2.4270 -0.0833
  648MOL0     H87441   3.501   3.385   8.778 -3.9781  0.0917  1.5262
  648MOL0     H87442   3.866   3.732   8.438  0.3032  0.0604 -3.1597
  648MOL0     H87443   4.117   3.784   8.434  2.2999 -0.6346 -0.1084
  648MOL0     H87444   4.340   3.457   8.364  2.8979 -0.1034 -3.1149
  648MOL0     H87445   4.419   3.609   8.323  2.1258 -0.2571  0.0356
  648MOL0     H87446   4.486   3.443   8.570 -0.8027 -1.1014 -0.9354
  648MOL0     H87447   4.579   3.462   8.424  1.8143  3.6938 -0.9977
  648MOL0     H87448   4.671   3.673   8.473  3.4830 -0.2004  3.9524
  648MOL0     H87449   4.519   3.730   8.557 -0.7473  0.2596  1.1770
  648MOL0     H87450   4.605   3.549   8.735  0.8372 -2.4670 -3.4016
  648MOL0     H87451   4.623   3.723   8.745  2.3607  1.6126 -1.5840
  648MOL0     H87452   4.841   3.707   8.628  0.0515  1.4610  2.0748
  648MOL0     H87453   4.824   3.531   8.614 -2.9689 -0.5913  0.5617
  648MOL0     H87454   4.853   3.706   8.859 -0.5695  0.0730 -0.8353
  648MOL0     H87455   4.811   3.540   8.876  0.7634  2.4165  3.5354
  648MOL0     H87456   5.065   3.650   8.732 -2.4498  2.8414  0.2223
  648MOL0     H87457   5.006   3.479   8.729 -1.7524 -1.0267  1.5086
  648MOL0     H87458   5.053   3.634   8.981 -0.2659  0.6726 -0.3050
  648MOL0     H87459   5.022   3.457   8.962 -0.1666  0.0189  2.2384
  648MOL0     H87460   4.197   3.392   8.556  1.5025 -0.0562 -1.3236
  648MOL0     H87461   3.963   3.334   8.567  0.7385 -0.6619 -0.9014
  648MOL0     H87462   3.530   3.530   8.375  2.7860  0.7852  1.7035
  648MOL0     H87463   3.309   3.427   8.328  0.7131  1.4791 -0.0282
  648MOL0     H87464   1.823   2.426   7.950 -1.2908 -0.0007 -3.3445
  648MOL0     H87465   1.600   2.431   7.873  0.0561 -0.7699 -0.0610
  648MOL0     H87466   1.181   2.138   7.913  1.5227  1.4762  0.1917
  648MOL0     H87467   0.953   2.132   7.956  0.5702  0.8630  1.3713
  648MOL0     H87468   0.726   2.138   8.002  0.6418 -1.1135 -0.3982
  648MOL0     H87469   0.744   2.127   7.829  1.5847  0.8678  0.5523
  648MOL0     H87470   0.564   2.300   7.821  3.7491 -1.4607 -2.4867
  648MOL0     H87471   0.534   2.254   7.999 -1.2241 -0.1547 -0.2419
  648MOL0     H87472   0.379   2.135   7.908  0.7641 -0.6196  1.4230
  648MOL0     H87473   0.506   2.008   7.904  3.0545  1.1667  1.0214
  648MOL0     H87474   0.356   2.045   7.688 -1.0309  1.1318 -0.3530
  648MOL0     H87475   0.441   2.195   7.668 -4.8652 -0.2638 -0.1828
  648MOL0     H87476   0.741   1.943   7.533  1.9768  0.2405  3.3937
  648MOL0     H87477   0.905   2.542   7.875  0.3281  1.1306 -3.2266
  648MOL0     H87478   1.263   2.608   7.801  0.5060 -0.2716  1.5387
  648MOL0     H87479   1.099   2.657   7.750 -2.9979 -3.9842 -1.4148
  648MOL0     H87480   1.150   2.659   7.922 -0.6030  1.2244 -0.5999
  649MOL0     O87481  10.330   5.053   3.785 -0.1982 -0.7049  0.4109
  649MOL0     C87482  10.233   5.004   3.726  0.0365  0.3305  0.1454
  649MOL0     O87483  10.232   4.947   3.600 -0.5595  0.9977  0.3739
  649MOL0     C87484  10.346   4.948   3.525 -0.1194 -0.5318 -0.1336
  649MOL0     C87485  10.375   5.056   3.436  0.7641 -0.5125 -0.2214
  649MOL0     C87486  10.504   5.072   3.384 -0.1331 -0.0711  0.2109
  649MOL0     C87487  10.597   4.978   3.419 -0.0255  0.1701 -0.4376
  649MOL0     O87488  10.726   5.013   3.371  0.2756  0.9438  0.5080
  649MOL0     C87489  10.830   4.960   3.450  0.0035 -0.3503 -0.0481
  649MOL0     C87490  10.951   5.040   3.410  1.0880  0.4429  1.2568
  649MOL0     C87491  10.985   5.003   3.266  0.1048 -0.7552 -0.6556
  649MOL0     C87492  11.124   5.059   3.222 -0.4216 -0.0981 -0.2312
  649MOL0     C87493  11.165   4.981   3.096 -0.4836 -0.5396 -0.0414
  649MOL0     C87494  11.115   5.068   2.978 -0.3122 -0.6206 -0.6778
  649MOL0     C87495  11.155   5.033   2.838  0.1565  0.2603 -0.4739
  649MOL0     C87496  11.305   5.013   2.807  0.1372 -0.0905 -0.4905
  649MOL0     N87497  11.327   4.952   2.678 -0.6455 -0.2421  0.4419
  649MOL0     C87498  11.247   4.959   2.566  0.2070 -0.0915 -0.0211
  649MOL0     C87499  11.296   4.862   2.481 -0.4487  0.6404 -0.2475
  649MOL0     C87500  11.230   4.814   2.350 -0.3175 -0.4454  0.3501
  649MOL0     C87501  11.179   4.943   2.286  0.0055  0.0733 -0.2196
  649MOL0     C87502  11.187   4.934   2.133 -0.5872 -0.5457  0.1195
  649MOL0     C87503  11.137   5.059   2.064  0.2964 -0.1229 -0.0704
  649MOL0     O87504  11.147   5.051   1.926  0.3395 -0.1013  0.2821
  649MOL0     C87505  11.265   5.088   1.864  0.3849 -0.8178  0.7924
  649MOL0     C87506  11.384   5.122   1.917  0.1768 -0.5049 -1.1642
  649MOL0     C87507  11.502   5.152   1.848 -1.0971 -0.1399 -0.1152
  649MOL0     C87508  11.504   5.134   1.706 -1.1204  0.1017 -0.0211
  649MOL0     C87509  11.631   5.149   1.631 -0.5107  0.5579  0.4342
  649MOL0     O87510  11.749   5.159   1.706  0.8281  0.2341  0.1384
  649MOL0     C87511  11.876   5.151   1.657 -0.0241  0.0726  0.3586
  649MOL0     C87512  11.970   5.155   1.754  0.0684 -0.9724 -0.2270
  649MOL0     C87513  12.106   5.167   1.723 -0.1464  0.1396 -0.2124
  649MOL0     C87514  12.149   5.163   1.591 -0.8124 -0.3271  0.2901
  649MOL0     O87515  12.288   5.171   1.575 -0.6362  0.2122 -0.2544
  649MOL0     C87516  12.368   5.119   1.462  0.8306  0.5191 -0.0021
  649MOL0     C87517  12.490   5.051   1.515  0.8123  0.1348 -0.0503
  649MOL0     C87518  12.564   4.953   1.411 -0.3673  0.1575 -0.3441
  649MOL0     C87519  12.691   4.878   1.474  0.3412  0.0188  0.2555
  649MOL0     C87520  12.772   4.812   1.364  0.4109 -0.8156  0.6214
  649MOL0     C87521  12.913   4.786   1.412  0.0042  0.3496  0.9641
  649MOL0     C87522  12.988   4.746   1.292 -0.1366  0.8170  0.4101
  649MOL0     C87523  13.133   4.766   1.321  0.1605 -0.5566  0.5685
  649MOL0    Cl87524  13.245   4.712   1.179  0.1067 -0.5267 -0.1814
  649MOL0     C87525  12.058   5.150   1.484 -0.2338 -0.5423  0.1462
  649MOL0     C87526  11.920   5.137   1.523 -0.4413 -0.5668 -0.2083
  649MOL0     O87527  11.620   5.142   1.512 -0.8801 -0.4858 -0.2643
  649MOL0     C87528  11.383   5.104   1.646 -0.4533 -0.3711 -0.2305
  649MOL0     C87529  11.266   5.088   1.724 -0.0378  0.1445  0.4840
  649MOL0     N87530  11.410   4.800   2.547 -0.3000  0.0362  0.9966
  649MOL0     N87531  11.430   4.867   2.650 -1.1766 -0.7684 -1.8763
  649MOL0     C87532  10.566   4.867   3.493 -0.3245 -0.1502  0.7788
  649MOL0     C87533  10.445   4.850   3.559 -0.1374 -0.3685 -0.8703
  649MOL0     C87534  10.114   4.976   3.809 -0.1342 -0.6288  0.2017
  649MOL0     C87535   9.996   4.936   3.737  0.0251 -0.9397 -0.2676
  649MOL0     C87536   9.879   4.905   3.808  0.0780  0.2472  0.8497
  649MOL0     C87537   9.863   4.939   3.941 -0.0400  1.2058  0.3005
  649MOL0     O87538   9.752   4.899   4.016 -0.0819 -0.0133  0.4424
  649MOL0     C87539   9.662   4.801   3.967  0.4976 -0.2207 -0.9927
  649MOL0     C87540   9.584   4.751   4.086  0.0668 -0.2172  0.5540
  649MOL0     C87541   9.487   4.857   4.139 -0.6383  0.0264 -0.2674
  649MOL0     C87542   9.455   4.852   4.287  0.0308 -0.2448 -0.2151
  649MOL0     C87543   9.401   4.721   4.332  0.6691  0.0522 -0.1209
  649MOL0     C87544   9.347   4.617   4.362  0.1278 -0.1919 -0.0412
  649MOL0     C87545   9.962   5.010   4.003 -0.0874 -0.7145  0.4627
  649MOL0     C87546  10.091   5.018   3.939 -0.2169  0.1614  0.0376
  649MOL0     C87547  10.203   5.078   4.024 -0.4050  0.1255 -0.8708
  649MOL0     H87548  10.296   5.127   3.417  0.7297 -0.8995 -1.6232
  649MOL0     H87549  10.529   5.146   3.309 -2.6354  1.3547  0.6477
  649MOL0     H87550  10.812   4.975   3.557 -0.2860  2.4821 -0.4097
  649MOL0     H87551  10.839   4.852   3.437  1.0548 -0.7348  2.9719
  649MOL0     H87552  11.028   5.014   3.483  0.8850 -0.7778  1.0534
  649MOL0     H87553  10.921   5.145   3.421  1.7147  0.8929 -0.9686
  649MOL0     H87554  10.909   5.047   3.201 -0.0293 -0.3627 -0.2414
  649MOL0     H87555  10.990   4.897   3.241 -0.9112 -0.7541 -0.8969
  649MOL0     H87556  11.105   5.164   3.199  0.9768  0.1277 -0.4511
  649MOL0     H87557  11.199   5.047   3.301  3.7812 -2.3574 -4.1395
  649MOL0     H87558  11.273   4.974   3.087 -0.1585  2.0052  0.9079
  649MOL0     H87559  11.120   4.882   3.084 -1.8767  0.1515 -0.8671
  649MOL0     H87560  11.005   5.067   2.980 -0.3636 -2.3747 -2.1904
  649MOL0     H87561  11.153   5.169   2.994  1.0374 -1.6288  4.1213
  649MOL0     H87562  11.119   5.121   2.783  2.3310  0.9500 -0.9181
  649MOL0     H87563  11.102   4.944   2.806  0.6779  0.0056 -0.6328
  649MOL0     H87564  11.351   5.109   2.830 -1.0613  0.2606  0.5432
  649MOL0     H87565  11.345   4.944   2.881 -1.6749 -0.7483 -0.0684
  649MOL0     H87566  11.151   5.008   2.554  0.2850  0.2495  0.6941
  649MOL0     H87567  11.298   4.755   2.287 -0.7815  0.5220 -1.0991
  649MOL0     H87568  11.145   4.747   2.368 -2.6076  2.7238  2.3708
  649MOL0     H87569  11.075   4.963   2.313  0.6347  0.6359  1.9865
  649MOL0     H87570  11.248   5.022   2.316  0.2107  0.3664 -1.4149
  649MOL0     H87571  11.133   4.846   2.099 -1.6105  0.2544 -0.3739
  649MOL0     H87572  11.289   4.918   2.095  0.2424  1.0681  1.5015
  649MOL0     H87573  11.172   5.151   2.111  0.7143  0.3144 -1.2088
  649MOL0     H87574  11.030   5.053   2.086  0.3216 -1.8581 -0.3002
  649MOL0     H87575  11.387   5.121   2.026  0.6022  0.4631 -1.1574
  649MOL0     H87576  11.589   5.181   1.906 -1.0246  0.2918 -0.4292
  649MOL0     H87577  11.936   5.167   1.857  0.2647 -1.7807 -0.0589
  649MOL0     H87578  12.182   5.176   1.800  2.9750 -0.5275 -2.9819
  649MOL0     H87579  12.308   5.055   1.396  1.8346  0.2191 -0.6507
  649MOL0     H87580  12.399   5.193   1.388  0.0424  1.9062  1.0141
  649MOL0     H87581  12.557   5.128   1.556  2.0772 -0.6272 -0.6016
  649MOL0     H87582  12.457   4.989   1.599 -0.1493  1.2873  0.4502
  649MOL0     H87583  12.502   4.873   1.370  1.0206  0.0448 -2.4098
  649MOL0     H87584  12.577   5.015   1.321 -1.5592  2.4716  0.9774
  649MOL0     H87585  12.650   4.808   1.547  2.7307 -0.4620  1.2128
  649MOL0     H87586  12.757   4.945   1.529  1.1890 -0.0209 -0.6853
  649MOL0     H87587  12.788   4.878   1.279  0.1657 -2.6594 -0.9339
  649MOL0     H87588  12.721   4.726   1.319  3.8540 -1.8342 -1.7340
  649MOL0     H87589  12.954   4.877   1.456 -1.5748  1.4977  0.1299
  649MOL0     H87590  12.933   4.705   1.483  2.8676 -0.3966 -0.5081
  649MOL0     H87591  12.965   4.807   1.204 -1.3970 -0.6032 -0.3032
  649MOL0     H87592  12.962   4.642   1.269 -1.6877  1.7852 -2.8437
  649MOL0     H87593  13.134   4.875   1.333 -1.9836 -0.4168 -0.1744
  649MOL0     H87594  13.166   4.726   1.417  1.0828  1.1212  0.9950
  649MOL0     H87595  12.088   5.149   1.379  1.5655 -2.5869  0.6151
  649MOL0     H87596  11.847   5.125   1.443 -0.9850  2.4095 -0.2798
  649MOL0     H87597  11.381   5.087   1.539  0.5159  2.4600 -0.8032
  649MOL0     H87598  11.174   5.070   1.669 -0.5024  0.5163  1.1236
  649MOL0     H87599  10.637   4.785   3.504 -0.7159 -0.5609  0.2907
  649MOL0     H87600  10.430   4.776   3.637 -0.6772  0.0927 -0.5280
  649MOL0     H87601   9.999   4.910   3.632  2.2167 -1.2405 -0.1763
  649MOL0     H87602   9.796   4.872   3.745 -3.0378  5.1814  1.8344
  649MOL0     H87603   9.712   4.716   3.921  1.0861 -1.0368  1.0243
  649MOL0     H87604   9.590   4.847   3.899 -2.1608 -1.9616  0.4362
  649MOL0     H87605   9.653   4.719   4.165  2.2462  1.1092 -0.7200
  649MOL0     H87606   9.526   4.662   4.058  0.8029 -1.2422  2.1571
  649MOL0     H87607   9.392   4.856   4.086 -0.7313 -0.9637 -0.1034
  649MOL0     H87608   9.527   4.956   4.114  1.5772 -0.4899  0.9269
  649MOL0     H87609   9.541   4.876   4.350  0.0137 -0.4268 -0.1202
  649MOL0     H87610   9.378   4.921   4.322  2.2148  1.2854  1.8591
  649MOL0     H87611   9.278   4.538   4.381  1.9413 -1.3011  2.4421
  649MOL0     H87612   9.932   5.026   4.107 -0.1880  3.0958 -0.0370
  649MOL0     H87613  10.299   5.026   4.015 -0.3069  0.6441 -6.5506
  649MOL0     H87614  10.236   5.175   3.984  1.9227  1.0994  2.8894
  649MOL0     H87615  10.173   5.099   4.127  3.1872  1.8214 -0.0042
  650MOL0     O87616   4.039   6.244   9.371 -0.2226  0.3082  0.6291
  650MOL0     C87617   4.032   6.164   9.283 -1.0110  0.6541 -0.9490
  650MOL0     O87618   4.105   6.170   9.169  0.0564 -0.3730  0.5880
  650MOL0     C87619   4.175   6.290   9.138 -0.0970 -0.3332 -0.4067
  650MOL0     C87620   4.302   6.292   9.080  0.0223 -0.2872 -1.0494
  650MOL0     C87621   4.367   6.423   9.036 -0.1807  0.1312 -0.3039
  650MOL0     C87622   4.312   6.539   9.084 -0.3630  0.3069 -0.2143
  650MOL0     O87623   4.379   6.658   9.063  0.9108 -0.2168 -0.1010
  650MOL0     C87624   4.414   6.736   9.177 -0.2400 -0.3278  0.4491
  650MOL0     C87625   4.564   6.715   9.209  0.1267 -0.4063  0.6361
  650MOL0     C87626   4.656   6.764   9.085  0.1882  0.1268 -0.3275
  650MOL0     C87627   4.807   6.735   9.108  0.1323  0.2495  0.2432
  650MOL0     C87628   4.891   6.685   8.983  0.7935  0.1861  0.5269
  650MOL0     C87629   4.929   6.791   8.882  0.6257  0.1695 -0.0503
  650MOL0     C87630   5.000   6.723   8.765 -0.6059 -0.0786 -0.0360
  650MOL0     C87631   5.026   6.815   8.651  0.2857 -0.5180  0.6298
  650MOL0     N87632   5.111   6.764   8.541 -0.1923  0.4748  0.4578
  650MOL0     C87633   5.170   6.641   8.528  0.1124  0.4830  0.2215
  650MOL0     C87634   5.263   6.651   8.427  0.1753  0.7406 -0.9936
  650MOL0     C87635   5.352   6.543   8.379  0.3087 -0.1373  0.1194
  650MOL0     C87636   5.277   6.431   8.294 -0.3037 -0.5418  0.5625
  650MOL0     C87637   5.367   6.305   8.294  0.4780  0.5948 -0.3478
  650MOL0     C87638   5.486   6.327   8.200 -0.2996  0.4162  0.2073
  650MOL0     O87639   5.548   6.199   8.198  0.1538 -0.3040  0.9440
  650MOL0     C87640   5.667   6.192   8.143 -0.3281 -0.0794 -0.3499
  650MOL0     C87641   5.700   6.255   8.026 -0.1614  0.1059  1.0208
  650MOL0     C87642   5.834   6.267   7.997 -0.2189  0.4279  0.3300
  650MOL0     C87643   5.940   6.194   8.060  0.6857 -0.9351  0.3086
  650MOL0     C87644   6.073   6.200   7.996 -0.3338 -0.1447  0.4105
  650MOL0     O87645   6.130   6.312   7.944 -0.5313 -0.6236  0.1994
  650MOL0     C87646   6.260   6.319   7.937 -0.2351 -0.6964 -0.6643
  650MOL0     C87647   6.329   6.250   7.826 -0.3663 -0.7038  0.0802
  650MOL0     C87648   6.467   6.267   7.815 -0.5294  0.4831  0.8947
  650MOL0     C87649   6.541   6.336   7.914  0.2913 -1.0649 -0.1233
  650MOL0     O87650   6.674   6.348   7.892 -0.0143 -0.2519  0.2482
  650MOL0     C87651   6.756   6.438   7.960 -0.5907 -0.2909 -0.0039
  650MOL0     C87652   6.896   6.454   7.889  1.2154 -0.0010 -0.1109
  650MOL0     C87653   6.985   6.499   8.005  0.2808  0.0436  0.4673
  650MOL0     C87654   7.109   6.551   7.931  1.1861 -0.3428  0.3566
  650MOL0     C87655   7.213   6.630   8.020  0.5807  0.9243 -1.3240
  650MOL0     C87656   7.311   6.710   7.938  0.9433 -0.2424  0.2475
  650MOL0     C87657   7.411   6.624   7.862 -0.2472  0.1206 -0.2542
  650MOL0     C87658   7.525   6.699   7.796  0.9152  0.2137 -0.6464
  650MOL0    Cl87659   7.466   6.749   7.640  0.3637 -0.3014 -0.2292
  650MOL0     C87660   6.480   6.395   8.027  0.3314  0.3694 -1.4438
  650MOL0     C87661   6.336   6.391   8.035 -0.3751  0.2265  0.4276
  650MOL0     O87662   6.139   6.100   8.015  0.0255 -0.5095  0.3913
  650MOL0     C87663   5.906   6.141   8.182 -0.6542 -0.0356 -0.5064
  650MOL0     C87664   5.771   6.140   8.232 -0.2512  0.4166 -0.3004
  650MOL0     N87665   5.260   6.783   8.389 -0.4540 -0.5367 -0.1987
  650MOL0     N87666   5.174   6.852   8.458  0.7446  0.4875 -0.3799
  650MOL0     C87667   4.178   6.532   9.131 -0.6847 -0.5088  0.6898
  650MOL0     C87668   4.108   6.415   9.144 -0.2411 -0.0401 -0.1562
  650MOL0     C87669   3.955   6.040   9.312 -0.1362 -0.1796  0.7032
  650MOL0     C87670   3.978   5.938   9.216 -1.2574 -0.1281 -0.5499
  650MOL0     C87671   3.904   5.822   9.206 -0.6253 -0.6576 -0.6737
  650MOL0     C87672   3.809   5.792   9.303  0.5064 -1.5062  0.7119
  650MOL0     O87673   3.741   5.675   9.305 -0.6889 -0.4236  0.3312
  650MOL0     C87674   3.663   5.646   9.188 -0.7091  0.0664 -0.2731
  650MOL0     C87675   3.561   5.545   9.224  0.2440 -0.3078  0.3801
  650MOL0     C87676   3.466   5.569   9.341  0.0399  0.3015  0.5832
  650MOL0     C87677   3.358   5.465   9.341  0.3008 -0.1508  0.5933
  650MOL0     C87678   3.258   5.497   9.247  0.3971 -0.2947  0.0585
  650MOL0     C87679   3.172   5.528   9.166  0.0423 -0.6862 -0.9324
  650MOL0     C87680   3.792   5.890   9.406  0.9270 -0.4278 -0.0497
  650MOL0     C87681   3.852   6.016   9.405  0.3850 -0.0044  0.1007
  650MOL0     C87682   3.801   6.122   9.508 -0.3259  0.3124 -0.1624
  650MOL0     H87683   4.351   6.196   9.083 -1.5771 -1.1123  1.0055
  650MOL0     H87684   4.464   6.427   8.988 -0.9036 -3.9825 -2.6194
  650MOL0     H87685   4.380   6.839   9.162 -0.5431 -0.0588  2.5926
  650MOL0     H87686   4.355   6.703   9.263  0.1315 -0.9474  0.4699
  650MOL0     H87687   4.576   6.607   9.216  1.4206 -0.1569  4.1375
  650MOL0     H87688   4.588   6.762   9.305  2.3097 -1.1402  0.4929
  650MOL0     H87689   4.640   6.869   9.060 -0.2701  0.0240 -0.4826
  650MOL0     H87690   4.633   6.709   8.994 -3.8425  1.5481 -0.3523
  650MOL0     H87691   4.860   6.822   9.147  2.0029 -1.0243  0.7381
  650MOL0     H87692   4.820   6.660   9.187 -1.4626  3.8158  4.2803
  650MOL0     H87693   4.983   6.632   9.009  0.6576 -0.2338  0.1692
  650MOL0     H87694   4.831   6.603   8.941 -1.4146  0.2126  3.3312
  650MOL0     H87695   4.839   6.842   8.848 -1.0798 -0.6365  2.8480
  650MOL0     H87696   4.980   6.875   8.930 -1.5460  0.4449  1.9503
  650MOL0     H87697   4.939   6.641   8.723  0.0785 -1.5253  1.6688
  650MOL0     H87698   5.100   6.684   8.788  0.2173  1.2576 -1.1659
  650MOL0     H87699   4.930   6.847   8.610  1.6841  4.0095  0.3274
  650MOL0     H87700   5.059   6.910   8.695  0.0532  1.2282 -2.6101
  650MOL0     H87701   5.150   6.545   8.575 -1.5340  1.3370  1.3310
  650MOL0     H87702   5.429   6.580   8.311 -1.0770  0.6805 -1.0691
  650MOL0     H87703   5.384   6.495   8.472 -3.8132 -1.8348  0.8508
  650MOL0     H87704   5.182   6.405   8.340 -2.0354  0.2101 -2.3519
  650MOL0     H87705   5.244   6.468   8.197  0.6585 -3.6114 -1.0834
  650MOL0     H87706   5.319   6.213   8.258 -0.9515  0.4738  1.6617
  650MOL0     H87707   5.399   6.281   8.396 -3.1455 -1.9171  0.4113
  650MOL0     H87708   5.561   6.397   8.237 -1.8849  2.0527  0.4904
  650MOL0     H87709   5.457   6.347   8.096  1.7029 -1.3805 -0.7778
  650MOL0     H87710   5.629   6.293   7.953  2.6643  0.5002 -1.7234
  650MOL0     H87711   5.853   6.316   7.902  0.0166 -2.3899 -1.1784
  650MOL0     H87712   6.276   6.180   7.762 -4.3911  0.9631  1.2742
  650MOL0     H87713   6.513   6.241   7.720  1.2332  0.3825  1.7333
  650MOL0     H87714   6.708   6.536   7.952  1.0065  0.5335 -0.0421
  650MOL0     H87715   6.777   6.399   8.060  0.5901 -1.5105 -0.6884
  650MOL0     H87716   6.937   6.363   7.843  2.7629 -1.5562  3.8602
  650MOL0     H87717   6.887   6.538   7.821 -2.3041  0.3565  0.5987
  650MOL0     H87718   6.946   6.579   8.069 -0.9763 -0.0573 -0.1523
  650MOL0     H87719   7.013   6.413   8.067 -2.2309 -1.4770 -0.3468
  650MOL0     H87720   7.074   6.618   7.852 -1.3018 -1.4103  0.4891
  650MOL0     H87721   7.167   6.477   7.874  1.9613  0.6934 -0.2278
  650MOL0     H87722   7.273   6.558   8.076 -1.5044 -0.7831 -1.1532
  650MOL0     H87723   7.168   6.696   8.095  2.7362 -0.9482  1.8568
  650MOL0     H87724   7.253   6.772   7.869  2.9866 -0.6210 -1.9238
  650MOL0     H87725   7.367   6.780   8.001  0.1718  1.6784 -1.0928
  650MOL0     H87726   7.356   6.557   7.795 -2.1222  0.5247  0.8072
  650MOL0     H87727   7.468   6.564   7.934  1.3873 -0.5162 -1.9883
  650MOL0     H87728   7.562   6.778   7.861  0.8320 -1.2420  1.2423
  650MOL0     H87729   7.613   6.635   7.784 -0.3387 -1.8656  0.7207
  650MOL0     H87730   6.534   6.442   8.108  1.0781 -1.7619 -0.6269
  650MOL0     H87731   6.291   6.435   8.123 -2.6640 -1.4390  0.1667
  650MOL0     H87732   5.988   6.112   8.246  0.9188 -1.6930 -3.1044
  650MOL0     H87733   5.745   6.111   8.334 -1.6108 -0.7316 -0.9500
  650MOL0     H87734   4.122   6.622   9.154 -2.3334 -0.3148 -3.1831
  650MOL0     H87735   4.001   6.420   9.161 -0.1189 -1.8048  1.4152
  650MOL0     H87736   4.054   5.944   9.139 -1.8868 -0.6400 -1.2265
  650MOL0     H87737   3.927   5.756   9.123 -0.0612  0.5988 -1.5573
  650MOL0     H87738   3.733   5.617   9.109  1.2215 -0.3008  1.4754
  650MOL0     H87739   3.614   5.740   9.164 -2.9038 -0.6338  1.1307
  650MOL0     H87740   3.617   5.454   9.246  3.8397  1.4653 -0.7119
  650MOL0     H87741   3.494   5.534   9.137 -1.6844 -0.4421  1.8183
  650MOL0     H87742   3.429   5.671   9.331 -1.2489 -0.1720  0.4209
  650MOL0     H87743   3.518   5.555   9.436 -0.8444 -2.6687  0.7503
  650MOL0     H87744   3.389   5.362   9.322 -2.0692 -0.5119 -1.8964
  650MOL0     H87745   3.308   5.468   9.439  0.7254  3.9228  0.8345
  650MOL0     H87746   3.091   5.569   9.108  0.4049 -0.5318 -1.3347
  650MOL0     H87747   3.709   5.869   9.474  0.8094  0.7216  0.1779
  650MOL0     H87748   3.744   6.078   9.591  1.2281  1.5951  1.6910
  650MOL0     H87749   3.888   6.162   9.560 -0.8744 -2.7660  3.5653
  650MOL0     H87750   3.741   6.194   9.451 -0.4033 -0.4685 -1.0770
  651MOL0     O87751   3.800   9.072   2.905  0.0286 -0.2312  0.0416
  651MOL0     C87752   3.748   8.971   2.953 -0.5637 -0.2662  0.5192
  651MOL0     O87753   3.804   8.908   3.060  0.3206 -0.1745 -0.3321
  651MOL0     C87754   3.919   8.960   3.106  0.1073  0.1619 -0.4482
  651MOL0     C87755   4.041   8.912   3.058 -0.1186 -1.0074  0.2652
  651MOL0     C87756   4.167   8.974   3.101  0.2767  0.2756 -0.1458
  651MOL0     C87757   4.171   9.067   3.202  1.0136  0.1122 -0.3965
  651MOL0     O87758   4.297   9.097   3.253  0.2440  0.9261 -0.0874
  651MOL0     C87759   4.306   9.197   3.353  0.0705  0.4011  0.3944
  651MOL0     C87760   4.435   9.275   3.337 -0.1557 -0.0671 -0.5624
  651MOL0     C87761   4.493   9.326   3.466  0.5762  0.6613  0.2053
  651MOL0     C87762   4.622   9.404   3.442  0.3313  0.5338  0.9142
  651MOL0     C87763   4.603   9.531   3.354  0.1115 -0.2050 -0.0452
  651MOL0     C87764   4.533   9.643   3.428 -0.2864  1.0637 -0.8048
  651MOL0     C87765   4.532   9.775   3.352  0.3810 -0.1093 -0.1698
  651MOL0     C87766   4.426   9.792   3.241 -0.1891  0.0380  0.1761
  651MOL0     N87767   4.298   9.762   3.307  0.3885 -0.4033  0.2026
  651MOL0     C87768   4.223   9.653   3.271 -0.0496 -1.6842 -0.2586
  651MOL0     C87769   4.109   9.660   3.347 -0.4778 -0.2680 -0.2856
  651MOL0     C87770   3.997   9.566   3.315 -0.0412 -0.5062 -0.3209
  651MOL0     C87771   3.898   9.638   3.220 -0.0441  0.0425  0.0626
  651MOL0     C87772   3.789   9.708   3.301 -0.8309 -0.6943  0.0813
  651MOL0     C87773   3.701   9.778   3.207 -0.4575  0.0578 -0.2950
  651MOL0     O87774   3.587   9.695   3.173  0.0663 -0.6852  0.1215
  651MOL0     C87775   3.487   9.757   3.096  0.5227 -0.3260 -0.5156
  651MOL0     C87776   3.466   9.885   3.086  0.3376 -0.5466  0.4773
  651MOL0     C87777   3.349   9.931   3.024 -0.5810  0.2901 -0.5408
  651MOL0     C87778   3.252   9.845   2.965 -0.2335  0.4392 -0.1586
  651MOL0     C87779   3.116   9.894   2.922 -0.5679  0.0415  0.5589
  651MOL0     O87780   3.023   9.799   2.900  0.2707  0.0045  0.2508
  651MOL0     C87781   2.908   9.832   2.830  0.1284  0.4161 -0.5418
  651MOL0     C87782   2.781   9.792   2.882  0.3570  0.8524 -0.2940
  651MOL0     C87783   2.663   9.816   2.806  0.1526  0.5572 -0.9475
  651MOL0     C87784   2.661   9.883   2.684 -0.8627 -1.0429  0.3652
  651MOL0     O87785   2.534   9.901   2.628  0.2851  0.0624  0.1079
  651MOL0     C87786   2.518  10.015   2.528 -0.9633  0.8785  0.0009
  651MOL0     C87787   2.372  10.017   2.499  0.0627 -0.2179  0.2921
  651MOL0     C87788   2.331   9.913   2.390 -0.0838 -0.3883  0.9759
  651MOL0     C87789   2.182   9.932   2.356  0.2464 -0.4814  0.6532
  651MOL0     C87790   2.092   9.934   2.476  0.1246  0.2347 -1.0328
  651MOL0     C87791   2.048  10.074   2.519 -0.0311 -0.8921 -0.3766
  651MOL0     C87792   1.960  10.066   2.637  0.0656 -0.4172  0.1754
  651MOL0     C87793   1.835   9.979   2.619  0.8415  1.0775  0.4217
  651MOL0    Cl87794   1.730  10.012   2.767 -0.5940 -0.1808  0.1759
  651MOL0     C87795   2.785   9.905   2.626 -0.6753  0.1708 -1.0473
  651MOL0     C87796   2.903   9.877   2.698 -0.0463  0.1238  0.2014
  651MOL0     O87797   3.110  10.011   2.887  0.7704 -0.3716 -0.0902
  651MOL0     C87798   3.281   9.702   2.974 -0.0066 -0.2477  0.1734
  651MOL0     C87799   3.400   9.660   3.043  0.0258 -0.3908 -0.2746
  651MOL0     N87800   4.119   9.769   3.433 -0.3407  0.8906 -0.3889
  651MOL0     N87801   4.231   9.819   3.411 -0.2455 -0.2053 -0.5506
  651MOL0     C87802   4.045   9.101   3.255  0.6939 -0.0612  0.4313
  651MOL0     C87803   3.921   9.054   3.210  0.2181 -0.0258 -0.3807
  651MOL0     C87804   3.629   8.914   2.888 -0.2333  0.5870 -0.0731
  651MOL0     C87805   3.558   8.828   2.965  0.9968 -0.3646  0.0097
  651MOL0     C87806   3.443   8.761   2.914 -0.1327  0.0893 -0.1835
  651MOL0     C87807   3.396   8.778   2.788  0.0527  0.1215 -0.2622
  651MOL0     O87808   3.282   8.731   2.730 -0.2677  0.2334 -0.5787
  651MOL0     C87809   3.203   8.638   2.798  0.3680 -0.5165 -0.1666
  651MOL0     C87810   3.067   8.612   2.729  0.4841 -1.1251  1.2262
  651MOL0     C87811   3.001   8.739   2.680 -0.2260  0.5096 -0.0434
  651MOL0     C87812   2.872   8.702   2.601  0.5501 -0.1211  0.1432
  651MOL0     C87813   2.751   8.672   2.684 -0.0220 -0.0637 -0.5845
  651MOL0     C87814   2.668   8.634   2.772 -0.2460 -0.7637 -0.1554
  651MOL0     C87815   3.473   8.861   2.703 -0.2699  0.3093  0.5631
  651MOL0     C87816   3.583   8.930   2.752 -0.0436 -0.3820 -0.5075
  651MOL0     C87817   3.661   9.021   2.660  0.6139 -0.4475 -0.1069
  651MOL0     H87818   4.045   8.832   2.984  0.4409  1.0960 -2.0941
  651MOL0     H87819   4.261   8.954   3.051 -0.6291 -0.5160 -1.5898
  651MOL0     H87820   4.233   9.277   3.362  0.2399  0.6254 -0.1764
  651MOL0     H87821   4.313   9.132   3.441  1.6791  0.6018  0.4414
  651MOL0     H87822   4.395   9.369   3.296  2.6225  1.4981  0.1221
  651MOL0     H87823   4.513   9.232   3.273  2.1944  0.8081  1.5669
  651MOL0     H87824   4.525   9.241   3.527  1.5638  0.7994 -0.1073
  651MOL0     H87825   4.417   9.378   3.525 -1.0960 -0.9663 -0.4109
  651MOL0     H87826   4.663   9.447   3.534  1.0012  0.6443  0.5723
  651MOL0     H87827   4.698   9.338   3.400 -1.3530  0.7001 -2.8078
  651MOL0     H87828   4.704   9.563   3.327  0.6013 -1.9478 -0.3785
  651MOL0     H87829   4.548   9.504   3.263 -3.2272  0.9639  1.4683
  651MOL0     H87830   4.433   9.601   3.439 -0.2374  0.4139 -2.5341
  651MOL0     H87831   4.561   9.664   3.532 -0.2968  4.5301 -1.3672
  651MOL0     H87832   4.631   9.804   3.313 -0.1910  2.4646  0.0892
  651MOL0     H87833   4.511   9.857   3.422 -0.4808 -0.6762  0.2491
  651MOL0     H87834   4.432   9.888   3.189 -1.5202 -0.6300 -1.2966
  651MOL0     H87835   4.447   9.722   3.160  0.3488 -0.9431  1.1327
  651MOL0     H87836   4.236   9.591   3.183  2.6656  1.9658 -2.7321
  651MOL0     H87837   4.027   9.468   3.277  2.7518  0.1047  0.0961
  651MOL0     H87838   3.953   9.550   3.413  1.5598  0.7924  0.6556
  651MOL0     H87839   3.951   9.708   3.155 -0.9088  0.0195 -0.6841
  651MOL0     H87840   3.851   9.566   3.152  0.7587 -0.2339 -0.2191
  651MOL0     H87841   3.833   9.785   3.365  0.4168 -2.7077  1.7665
  651MOL0     H87842   3.738   9.638   3.368  2.2829 -1.9333  1.3197
  651MOL0     H87843   3.750   9.814   3.116  1.5559 -0.0590  0.6949
  651MOL0     H87844   3.670   9.868   3.261 -0.2844 -0.4627  0.6914
  651MOL0     H87845   3.531   9.953   3.139  3.2072 -3.6008  1.2690
  651MOL0     H87846   3.333  10.038   3.033  0.2586  0.3644  0.1726
  651MOL0     H87847   2.786   9.750   2.982  0.8524 -1.9698 -1.3992
  651MOL0     H87848   2.567   9.787   2.848  0.6010 -1.3549 -1.1342
  651MOL0     H87849   2.557  10.105   2.577 -0.9848  0.0608  1.5930
  651MOL0     H87850   2.580  10.002   2.439 -2.2521  0.7202 -0.9022
  651MOL0     H87851   2.331  10.011   2.600  0.3650 -0.2333  0.4123
  651MOL0     H87852   2.334  10.115   2.470 -1.3657 -1.1103 -1.0514
  651MOL0     H87853   2.392   9.916   2.299 -2.8702  1.0006 -1.0026
  651MOL0     H87854   2.346   9.814   2.435 -1.7119 -2.5527 -2.7832
  651MOL0     H87855   2.155   9.843   2.297  2.0182 -1.9700  1.9990
  651MOL0     H87856   2.174  10.024   2.297  1.5763  0.6889  2.2127
  651MOL0     H87857   2.141   9.886   2.561 -0.7784 -1.7881 -1.5793
  651MOL0     H87858   1.999   9.879   2.458 -1.4902  1.1014  3.5009
  651MOL0     H87859   2.136  10.133   2.548 -1.6448  1.0167  0.9343
  651MOL0     H87860   1.995  10.127   2.440 -0.2735 -0.8417 -0.1801
  651MOL0     H87861   1.938  10.172   2.641  0.2171 -0.4127  1.3672
  651MOL0     H87862   2.016  10.039   2.727 -0.7770 -2.7244  0.0771
  651MOL0     H87863   1.776   9.993   2.528  1.1701  2.2825  0.3845
  651MOL0     H87864   1.862   9.873   2.625  0.7237  1.0295  0.0900
  651MOL0     H87865   2.787   9.936   2.522 -0.6295 -0.0826 -1.1231
  651MOL0     H87866   3.000   9.891   2.651 -0.2694 -2.7614 -1.3244
  651MOL0     H87867   3.223   9.624   2.926  1.4907 -0.2625 -1.7301
  651MOL0     H87868   3.420   9.554   3.061  0.3634 -0.0073  1.8619
  651MOL0     H87869   4.054   9.188   3.320  2.0828 -1.2112  1.8595
  651MOL0     H87870   3.827   9.067   3.263  1.1384  0.5962  1.1557
  651MOL0     H87871   3.591   8.812   3.067  0.7214  3.1472  0.7902
  651MOL0     H87872   3.398   8.701   2.992 -1.2116 -2.1443 -2.3891
  651MOL0     H87873   3.172   8.676   2.896 -0.2211 -0.9445 -0.1742
  651MOL0     H87874   3.248   8.538   2.805 -2.4213 -1.9344 -0.7173
  651MOL0     H87875   3.001   8.556   2.797 -1.0613 -0.5634  0.2438
  651MOL0     H87876   3.075   8.552   2.638  1.1986  0.9308 -0.1283
  651MOL0     H87877   3.074   8.789   2.615  0.5662  1.4538  1.5256
  651MOL0     H87878   2.976   8.804   2.765 -2.9289 -0.9962  0.4177
  651MOL0     H87879   2.851   8.781   2.528  0.3088  0.2765  0.6359
  651MOL0     H87880   2.894   8.615   2.538 -1.2941  1.5846 -3.1031
  651MOL0     H87881   2.610   8.584   2.846  1.3209 -2.2631  0.1107
  651MOL0     H87882   3.436   8.894   2.606 -2.0818 -0.3153  1.0030
  651MOL0     H87883   3.682   9.121   2.698  3.9367 -1.8058  2.1819
  651MOL0     H87884   3.759   8.972   2.659 -0.0716 -1.8794 -1.4696
  651MOL0     H87885   3.615   9.027   2.561 -1.0400  1.7874  0.7161
  652MOL0     O87886   9.316   8.367   4.144 -0.3723  0.5412  0.7823
  652MOL0     C87887   9.419   8.348   4.207  0.3032 -0.1038  0.6487
  652MOL0     O87888   9.457   8.424   4.318  0.0464 -0.7132 -0.2771
  652MOL0     C87889   9.375   8.531   4.351  0.0927  0.7586  0.4203
  652MOL0     C87890   9.356   8.642   4.265  1.4923 -0.2622 -0.3313
  652MOL0     C87891   9.263   8.743   4.304  0.3491 -0.2448  0.6863
  652MOL0     C87892   9.196   8.732   4.431  0.4719  0.5648 -0.7614
  652MOL0     O87893   9.114   8.833   4.482 -0.0147 -0.6771  0.3050
  652MOL0     C87894   8.987   8.824   4.408 -0.8950  0.3649 -0.6469
  652MOL0     C87895   8.871   8.817   4.508  0.0903  1.0996  0.3627
  652MOL0     C87896   8.739   8.828   4.425 -0.5241  0.6198  0.0235
  652MOL0     C87897   8.631   8.900   4.504  0.8384  0.7345 -0.1030
  652MOL0     C87898   8.504   8.906   4.420 -0.5434 -0.1799 -0.2721
  652MOL0     C87899   8.400   8.994   4.487 -0.4206 -0.0125 -0.2735
  652MOL0     C87900   8.259   9.000   4.413  0.4331 -0.1814 -0.1403
  652MOL0     C87901   8.157   9.102   4.481 -1.1608  0.4351  0.4509
  652MOL0     N87902   8.020   9.073   4.435  0.6149 -0.6517 -0.5518
  652MOL0     C87903   7.956   9.149   4.343 -1.0894  0.3454  0.0257
  652MOL0     C87904   7.828   9.100   4.356  0.9414  0.0908 -0.1448
  652MOL0     C87905   7.716   9.136   4.249 -0.7855  0.3390  0.3294
  652MOL0     C87906   7.580   9.105   4.308  0.8550 -0.1708  0.6872
  652MOL0     C87907   7.459   9.136   4.218  0.6718  0.3136 -0.1222
  652MOL0     C87908   7.327   9.091   4.300 -0.1474 -0.1683  0.6864
  652MOL0     O87909   7.221   9.143   4.227  0.4807  0.7671  0.6367
  652MOL0     C87910   7.102   9.088   4.265 -0.0211  0.5781  1.1007
  652MOL0     C87911   7.062   8.963   4.215  0.3598 -0.3742 -0.0440
  652MOL0     C87912   6.934   8.915   4.236  0.7843  0.3245  0.3029
  652MOL0     C87913   6.843   8.989   4.317 -0.4496 -0.5351  0.6620
  652MOL0     C87914   6.710   8.952   4.338 -0.2227 -0.8332 -0.4021
  652MOL0     O87915   6.644   9.015   4.441 -0.2445 -0.1451 -0.0392
  652MOL0     C87916   6.530   8.957   4.497 -0.3604 -0.1628 -0.0537
  652MOL0     C87917   6.538   8.905   4.629  0.1714  0.3322  0.9903
  652MOL0     C87918   6.429   8.839   4.697 -0.5605 -0.2454  0.3542
  652MOL0     C87919   6.307   8.824   4.633  0.3026  0.2291 -0.2569
  652MOL0     O87920   6.205   8.757   4.696  0.1667  0.3466  0.5780
  652MOL0     C87921   6.073   8.762   4.639 -0.4751 -0.1271  0.1615
  652MOL0     C87922   5.972   8.674   4.714  0.4752 -0.7568  0.3388
  652MOL0     C87923   5.871   8.760   4.799 -0.5435 -0.6353  0.3499
  652MOL0     C87924   5.768   8.674   4.858  0.1797 -0.1250 -0.1189
  652MOL0     C87925   5.646   8.761   4.906  0.5774  0.7859 -0.0490
  652MOL0     C87926   5.569   8.669   5.004  0.1719  0.2883  0.0845
  652MOL0     C87927   5.451   8.745   5.067  1.3520 -0.1060  0.3662
  652MOL0     C87928   5.316   8.728   4.987 -0.4580 -1.2720 -0.1401
  652MOL0    Cl87929   5.259   8.575   4.984  0.1925  0.2879  0.3859
  652MOL0     C87930   6.297   8.876   4.495 -0.5862  0.2037  0.1022
  652MOL0     C87931   6.400   8.946   4.434  0.2949 -0.4322  0.7341
  652MOL0     O87932   6.659   8.857   4.277 -0.6443  0.5942  0.1408
  652MOL0     C87933   6.893   9.107   4.381 -0.9886  0.8256  1.1102
  652MOL0     C87934   7.019   9.155   4.356 -0.2860  0.9923  0.2726
  652MOL0     N87935   7.822   9.003   4.458 -0.4875  0.0573  0.2295
  652MOL0     N87936   7.940   8.989   4.499 -0.1620 -0.1292 -0.3080
  652MOL0     C87937   9.222   8.621   4.510  0.0451 -0.2936 -0.3280
  652MOL0     C87938   9.314   8.531   4.474  0.0980 -0.1611 -0.0221
  652MOL0     C87939   9.509   8.251   4.149 -0.5675 -0.1868 -1.2711
  652MOL0     C87940   9.506   8.216   4.014 -0.7039 -0.2948  0.3308
  652MOL0     C87941   9.586   8.125   3.958  0.3209  0.5036 -0.5596
  652MOL0     C87942   9.679   8.062   4.029 -0.7728 -0.9199 -0.2668
  652MOL0     O87943   9.781   7.985   3.962 -0.1227 -0.0078  0.2062
  652MOL0     C87944   9.914   8.012   4.001 -0.2987  0.3233 -0.0607
  652MOL0     C87945  10.012   7.910   3.956  0.2849 -0.8094 -0.3792
  652MOL0     C87946  10.043   7.906   3.803  0.2348  0.3353  0.2676
  652MOL0     C87947  10.185   7.938   3.768  0.2155  0.0959 -0.1565
  652MOL0     C87948  10.267   7.830   3.825  0.1359 -0.2891 -0.5052
  652MOL0     C87949  10.335   7.752   3.894 -0.2903 -0.4421  0.6009
  652MOL0     C87950   9.689   8.083   4.172  0.4232 -0.7341  1.0865
  652MOL0     C87951   9.605   8.184   4.229 -0.2652  0.0140 -0.0540
  652MOL0     C87952   9.606   8.196   4.378 -0.0726 -0.0532  0.4120
  652MOL0     H87953   9.408   8.642   4.170 -0.4420 -0.4788 -1.4340
  652MOL0     H87954   9.251   8.831   4.242  0.3313 -0.4440  0.4061
  652MOL0     H87955   8.978   8.925   4.367  3.3496  2.0098  1.8520
  652MOL0     H87956   8.980   8.745   4.333 -3.0264 -0.3728  0.2324
  652MOL0     H87957   8.874   8.904   4.574  0.3725  1.4010 -0.0457
  652MOL0     H87958   8.869   8.722   4.561 -0.0607  1.3031  0.7254
  652MOL0     H87959   8.705   8.730   4.391  1.7840 -0.1709 -0.1560
  652MOL0     H87960   8.755   8.895   4.340 -1.2224 -0.5085 -1.0322
  652MOL0     H87961   8.614   8.844   4.596 -0.4951 -1.4528 -1.5988
  652MOL0     H87962   8.656   9.004   4.529  1.2309  1.5166 -3.3488
  652MOL0     H87963   8.519   8.945   4.319  2.4243 -0.2914  0.0395
  652MOL0     H87964   8.449   8.812   4.410 -1.6616  0.3886  0.2993
  652MOL0     H87965   8.379   8.946   4.583 -4.4176 -0.5386 -1.2291
  652MOL0     H87966   8.432   9.097   4.509  0.5974 -0.9226  3.0563
  652MOL0     H87967   8.209   8.903   4.413  1.6858 -0.9638 -3.4280
  652MOL0     H87968   8.266   9.027   4.307  3.8336 -2.4183 -0.6294
  652MOL0     H87969   8.168   9.093   4.590  0.0195 -2.3140  0.1680
  652MOL0     H87970   8.196   9.200   4.451 -1.2369  0.4442  0.3858
  652MOL0     H87971   7.990   9.218   4.267  3.9621  2.0973  3.2904
  652MOL0     H87972   7.721   9.244   4.231 -0.2806 -0.1689 -3.4268
  652MOL0     H87973   7.734   9.078   4.158 -1.6060  2.9182 -1.5941
  652MOL0     H87974   7.587   9.002   4.344  3.2645  1.2761  5.0697
  652MOL0     H87975   7.575   9.171   4.395 -0.4807  1.9350 -0.8794
  652MOL0     H87976   7.460   9.089   4.119 -1.7986 -0.2417  0.0537
  652MOL0     H87977   7.451   9.245   4.220  1.4907  0.4371  4.1941
  652MOL0     H87978   7.333   9.115   4.407  2.0028 -1.8634  1.0367
  652MOL0     H87979   7.310   8.983   4.304 -1.8786  0.1056  2.0428
  652MOL0     H87980   7.126   8.918   4.140 -0.7570 -2.0587 -0.0398
  652MOL0     H87981   6.914   8.818   4.194  1.9758  0.0536  0.3323
  652MOL0     H87982   6.637   8.915   4.672 -0.2226  1.5332  1.6560
  652MOL0     H87983   6.454   8.791   4.791  1.6650  1.7822  0.9026
  652MOL0     H87984   6.045   8.867   4.630  2.8320  0.8792  0.3866
  652MOL0     H87985   6.066   8.733   4.533  0.5157  0.8511 -0.1835
  652MOL0     H87986   5.908   8.623   4.641 -3.1138  2.9430  0.5470
  652MOL0     H87987   6.027   8.597   4.768  0.7707 -1.1698 -0.5265
  652MOL0     H87988   5.927   8.815   4.875  1.1569  2.3175 -2.7137
  652MOL0     H87989   5.827   8.834   4.730  0.5522 -1.5166 -1.3582
  652MOL0     H87990   5.811   8.620   4.943  1.5245  2.6053  1.1006
  652MOL0     H87991   5.738   8.598   4.786 -1.3877 -0.2068  0.5792
  652MOL0     H87992   5.585   8.789   4.820  0.8244  0.8425 -0.2069
  652MOL0     H87993   5.688   8.845   4.963 -0.6172 -0.5951  3.0550
  652MOL0     H87994   5.533   8.581   4.950 -0.0264  0.0875  0.5408
  652MOL0     H87995   5.638   8.646   5.085  1.8921 -0.5433 -1.5412
  652MOL0     H87996   5.463   8.854   5.071 -0.6248  0.3438 -2.6191
  652MOL0     H87997   5.438   8.696   5.164  4.6032 -1.6399  0.1748
  652MOL0     H87998   5.241   8.789   5.038  0.1327  0.2625 -1.0665
  652MOL0     H87999   5.334   8.769   4.888 -0.6672  0.3140  0.4477
  652MOL0     H88000   6.207   8.869   4.435 -0.2055  0.1471 -0.4722
  652MOL0     H88001   6.392   8.993   4.337  0.6388  2.6988  2.1040
  652MOL0     H88002   6.821   9.168   4.434 -3.1610  0.6767 -1.4419
  652MOL0     H88003   7.045   9.246   4.410 -0.1945  1.3900 -0.4302
  652MOL0     H88004   9.162   8.613   4.601 -1.1651  0.3005 -1.0367
  652MOL0     H88005   9.321   8.452   4.548 -0.8268 -0.4155 -0.1969
  652MOL0     H88006   9.453   8.275   3.940  0.9285  2.3010  1.0761
  652MOL0     H88007   9.584   8.116   3.850 -0.7750  0.1130 -0.5103
  652MOL0     H88008   9.920   7.997   4.109 -0.2895 -0.6719 -0.1881
  652MOL0     H88009   9.947   8.115   3.985  2.3715 -0.5515 -0.6664
  652MOL0     H88010   9.977   7.811   3.984  0.7542 -1.0147 -0.5002
  652MOL0     H88011  10.103   7.924   4.016  2.7139  0.1802 -3.9442
  652MOL0     H88012   9.999   7.986   3.743  3.1864  1.6677 -0.3125
  652MOL0     H88013  10.013   7.805   3.774 -0.9253  0.0701  2.2586
  652MOL0     H88014  10.207   7.930   3.661  3.7323 -2.6612  0.5848
  652MOL0     H88015  10.216   8.036   3.804 -2.0622  1.4003 -1.5131
  652MOL0     H88016  10.393   7.667   3.926 -1.2513 -1.7595 -0.9802
  652MOL0     H88017   9.749   8.023   4.240  0.0786 -2.5614 -0.1828
  652MOL0     H88018   9.652   8.107   4.422 -0.4429 -0.6646 -0.4033
  652MOL0     H88019   9.652   8.290   4.408  2.4375 -0.7989 -0.8448
  652MOL0     H88020   9.505   8.185   4.419  0.7433 -3.6592  1.8211
  653MOL0     O88021   2.343   6.704   2.661  0.8310 -0.1045  0.7771
  653MOL0     C88022   2.355   6.581   2.652 -0.3902 -1.2946  0.7313
  653MOL0     O88023   2.253   6.492   2.652  0.6085  0.1022  0.0868
  653MOL0     C88024   2.120   6.532   2.674  0.0603  0.6007 -0.5821
  653MOL0     C88025   2.027   6.458   2.591 -0.4085 -0.4243  0.1273
  653MOL0     C88026   1.887   6.475   2.613  0.2495 -0.4613  0.0133
  653MOL0     C88027   1.834   6.569   2.693 -0.2368 -0.1571 -0.5605
  653MOL0     O88028   1.698   6.591   2.714  0.6579  0.5650  1.0350
  653MOL0     C88029   1.633   6.615   2.590  0.3775 -0.3965  0.2805
  653MOL0     C88030   1.518   6.723   2.614 -1.4813  0.1380 -0.7942
  653MOL0     C88031   1.421   6.681   2.733 -0.0107 -0.7049  0.2443
  653MOL0     C88032   1.318   6.797   2.753  0.8780  0.9480 -0.2151
  653MOL0     C88033   1.274   6.779   2.903 -0.2860 -0.3360  0.3266
  653MOL0     C88034   1.140   6.833   2.936  1.0067  0.9906  0.9299
  653MOL0     C88035   1.133   6.816   3.084 -0.1817 -0.5185 -0.2782
  653MOL0     C88036   0.998   6.875   3.151  1.0125  0.1942 -0.2920
  653MOL0     N88037   0.880   6.790   3.123 -0.5109 -0.2529 -0.0481
  653MOL0     C88038   0.847   6.681   3.196  0.0172 -0.4786 -0.5444
  653MOL0     C88039   0.735   6.638   3.151 -0.1865 -0.2506  0.1593
  653MOL0     C88040   0.647   6.544   3.235 -0.2436 -0.6698 -0.9676
  653MOL0     C88041   0.508   6.515   3.200 -0.3013 -0.1132  0.6406
  653MOL0     C88042   0.439   6.430   3.295  0.9002  0.7398  0.0363
  653MOL0     C88043   0.309   6.371   3.256 -0.6009 -0.0539 -0.0273
  653MOL0     O88044   0.250   6.315   3.371  0.3583  0.9297  1.2457
  653MOL0     C88045   0.165   6.389   3.451  0.0819  0.1550  1.0813
  653MOL0     C88046   0.103   6.334   3.565  0.4641 -0.7193  0.3060
  653MOL0     C88047   0.015   6.410   3.636 -0.2186 -0.0539 -0.4882
  653MOL0     C88048  -0.010   6.544   3.607 -1.1844  0.6055  0.7831
  653MOL0     C88049  -0.102   6.618   3.695 -0.3590  0.1632  1.1173
  653MOL0     O88050  -0.168   6.545   3.782  0.1145  0.3701 -0.2953
  653MOL0     C88051  -0.259   6.598   3.869 -0.3716  0.6054 -0.2239
  653MOL0     C88052  -0.258   6.558   4.005 -0.8034 -0.3805 -0.3294
  653MOL0     C88053  -0.330   6.633   4.100  0.0442 -0.5387 -0.6493
  653MOL0     C88054  -0.433   6.715   4.054  0.6569  0.6245 -0.0373
  653MOL0     O88055  -0.493   6.809   4.139 -0.1769 -0.1770 -0.4717
  653MOL0     C88056  -0.494   6.802   4.290  0.2977  1.0199  0.7418
  653MOL0     C88057  -0.589   6.900   4.341 -0.8151  0.1325  0.7902
  653MOL0     C88058  -0.727   6.843   4.295 -0.3890  1.0335  1.2446
  653MOL0     C88059  -0.845   6.935   4.353 -0.4846  0.0527 -0.2616
  653MOL0     C88060  -0.980   6.875   4.322  0.3236  0.5772 -0.1106
  653MOL0     C88061  -1.025   6.919   4.185  0.6165  0.6643  0.6944
  653MOL0     C88062  -1.183   6.906   4.158  0.3003 -0.4844 -1.1569
  653MOL0     C88063  -1.273   6.961   4.271 -0.5952  0.7349  0.7991
  653MOL0    Cl88064  -1.450   6.909   4.259  0.2396  0.1990  0.3089
  653MOL0     C88065  -0.460   6.724   3.920 -0.4918 -0.5957 -0.2142
  653MOL0     C88066  -0.379   6.653   3.825  0.5697 -0.7835  0.2540
  653MOL0     O88067  -0.108   6.744   3.677  0.0130  1.2559 -0.9577
  653MOL0     C88068   0.055   6.607   3.497  1.1805 -0.4079 -0.4742
  653MOL0     C88069   0.136   6.524   3.417 -0.1340  0.6689 -0.5305
  653MOL0     N88070   0.693   6.723   3.045 -0.1692  0.4271 -0.8879
  653MOL0     N88071   0.780   6.806   3.033  0.0287  0.0242  0.4172
  653MOL0     C88072   1.930   6.636   2.778  0.0314  0.1117  0.7442
  653MOL0     C88073   2.063   6.613   2.769 -0.4670 -0.1894 -0.0707
  653MOL0     C88074   2.496   6.540   2.669 -0.0843 -0.0010 -0.5873
  653MOL0     C88075   2.592   6.628   2.736  0.3975 -0.1873  0.4059
  653MOL0     C88076   2.714   6.577   2.760 -0.8151  0.0599  0.1693
  653MOL0     C88077   2.759   6.453   2.705 -1.0920 -1.1395 -0.0292
  653MOL0     O88078   2.885   6.399   2.732 -0.2135  0.1352  0.0378
  653MOL0     C88079   2.967   6.361   2.615  0.0525  0.3743 -0.5465
  653MOL0     C88080   3.043   6.478   2.570 -0.1640  0.2813  0.1314
  653MOL0     C88081   3.073   6.461   2.419 -0.4829  0.3298 -0.1415
  653MOL0     C88082   3.158   6.574   2.373 -0.3209 -0.5332 -0.3563
  653MOL0     C88083   3.096   6.710   2.390 -0.9247 -0.0934  0.0060
  653MOL0     C88084   3.039   6.818   2.395  0.4168  0.1647  0.5953
  653MOL0     C88085   2.670   6.384   2.632 -0.3824 -0.0318  0.1577
  653MOL0     C88086   2.533   6.414   2.622 -0.7266 -0.1546  0.3694
  653MOL0     C88087   2.451   6.309   2.540  0.0464 -0.8098  0.4970
  653MOL0     H88088   2.055   6.382   2.518 -2.2682 -1.1320  0.0944
  653MOL0     H88089   1.815   6.412   2.561 -0.7892 -0.9130  1.9168
  653MOL0     H88090   1.703   6.665   2.522  0.8624  2.9810  2.9273
  653MOL0     H88091   1.591   6.528   2.541 -1.7232  1.9208 -2.3755
  653MOL0     H88092   1.450   6.746   2.532 -3.6444  3.5215  1.6683
  653MOL0     H88093   1.569   6.817   2.638 -2.5435  1.4523 -3.3359
  653MOL0     H88094   1.482   6.654   2.820 -0.4006 -2.7536 -0.0690
  653MOL0     H88095   1.370   6.587   2.713 -1.5292 -1.0035  4.5693
  653MOL0     H88096   1.368   6.894   2.744  2.3377  0.2025 -0.3961
  653MOL0     H88097   1.230   6.786   2.688  1.1234  0.3266 -0.4471
  653MOL0     H88098   1.272   6.673   2.931 -3.9435 -0.8042 -1.0957
  653MOL0     H88099   1.340   6.836   2.969 -2.3235  2.0532  0.4366
  653MOL0     H88100   1.120   6.931   2.893 -0.8338  0.6313  0.8766
  653MOL0     H88101   1.060   6.773   2.891  0.0295  2.2064  1.0210
  653MOL0     H88102   1.208   6.875   3.136 -1.2186 -2.1843  3.5078
  653MOL0     H88103   1.142   6.711   3.115  0.1100 -0.1307  1.0033
  653MOL0     H88104   0.995   6.881   3.260 -3.2745 -2.9320  0.0511
  653MOL0     H88105   0.979   6.971   3.103  0.2423 -0.1680 -0.7436
  653MOL0     H88106   0.900   6.660   3.288 -1.5693  0.6416  0.6863
  653MOL0     H88107   0.706   6.453   3.252  0.6025  0.0600  0.1195
  653MOL0     H88108   0.643   6.592   3.333 -1.1535 -3.6497  0.6057
  653MOL0     H88109   0.463   6.614   3.183 -0.7177 -0.4894 -0.5423
  653MOL0     H88110   0.494   6.479   3.098 -4.0971  1.4892  0.4464
  653MOL0     H88111   0.425   6.502   3.377  0.6231  0.0451  0.6031
  653MOL0     H88112   0.509   6.350   3.319 -0.3431 -0.8794 -1.5559
  653MOL0     H88113   0.340   6.288   3.192  1.1081  1.6379 -1.5171
  653MOL0     H88114   0.249   6.442   3.196  1.9111  1.6942 -0.6186
  653MOL0     H88115   0.111   6.228   3.588  1.6166 -0.2641  2.2211
  653MOL0     H88116  -0.038   6.357   3.714  1.9736 -0.8926  0.5450
  653MOL0     H88117  -0.176   6.494   4.035  0.2454  1.8367  1.8789
  653MOL0     H88118  -0.299   6.638   4.204  1.2436  2.3680 -1.0449
  653MOL0     H88119  -0.509   6.703   4.333  3.8013 -0.6653 -1.4200
  653MOL0     H88120  -0.395   6.843   4.313  0.2767  2.4511 -1.3729
  653MOL0     H88121  -0.585   6.926   4.447  2.8857  2.0410  0.3319
  653MOL0     H88122  -0.564   6.992   4.288  0.2206  0.3892  1.6909
  653MOL0     H88123  -0.729   6.837   4.186 -0.0794  0.9072  1.2453
  653MOL0     H88124  -0.742   6.738   4.322  0.8821  0.8255  1.2178
  653MOL0     H88125  -0.844   7.041   4.329 -4.2314  0.2952  0.0534
  653MOL0     H88126  -0.838   6.935   4.462 -1.9916  5.8994  0.1233
  653MOL0     H88127  -1.036   6.917   4.406  0.4069  0.6256 -0.0797
  653MOL0     H88128  -0.983   6.766   4.334 -1.2511  0.9413  6.3624
  653MOL0     H88129  -0.993   7.021   4.162  0.8278  0.4178 -0.1362
  653MOL0     H88130  -0.981   6.858   4.106 -0.2207  0.5840  0.2895
  653MOL0     H88131  -1.196   6.797   4.158  1.7349 -0.6922 -2.2449
  653MOL0     H88132  -1.212   6.943   4.060 -0.2896  1.4333 -0.3080
  653MOL0     H88133  -1.238   6.935   4.371  4.1083  3.6345  0.2495
  653MOL0     H88134  -1.262   7.070   4.276 -0.3872  0.7376  0.3838
  653MOL0     H88135  -0.540   6.791   3.892  2.1767  2.4856 -1.0896
  653MOL0     H88136  -0.418   6.653   3.723 -1.0741 -1.3191  0.8398
  653MOL0     H88137   0.025   6.709   3.472  2.2566  0.8768  2.8717
  653MOL0     H88138   0.152   6.572   3.321 -1.1142  1.4154 -0.3383
  653MOL0     H88139   1.880   6.704   2.846 -2.3373  1.0166 -1.7438
  653MOL0     H88140   2.111   6.689   2.830 -4.1395  2.4110 -0.0555
  653MOL0     H88141   2.559   6.722   2.780  0.7269 -0.9440  2.3835
  653MOL0     H88142   2.773   6.637   2.828  0.4779 -1.2561  0.2727
  653MOL0     H88143   2.902   6.324   2.535 -1.5735  2.3741 -0.2584
  653MOL0     H88144   3.046   6.292   2.645 -0.2453  0.7139  1.1261
  653MOL0     H88145   3.126   6.502   2.637 -2.7176  2.6315  2.7242
  653MOL0     H88146   2.977   6.563   2.591  1.1891  1.3330  0.3016
  653MOL0     H88147   2.981   6.444   2.362 -2.8498  2.2690  2.7912
  653MOL0     H88148   3.125   6.365   2.427 -0.1990  0.3526 -1.5499
  653MOL0     H88149   3.258   6.570   2.419 -0.1013  2.3120 -0.4149
  653MOL0     H88150   3.170   6.575   2.265 -1.9430  4.4589 -0.7500
  653MOL0     H88151   2.993   6.915   2.398 -1.3421 -0.5453 -1.1896
  653MOL0     H88152   2.686   6.280   2.606 -3.3415 -0.6439  0.4021
  653MOL0     H88153   2.390   6.244   2.603 -0.9913 -0.4473 -0.0981
  653MOL0     H88154   2.394   6.365   2.465  0.0652  0.1600  1.1979
  653MOL0     H88155   2.505   6.242   2.472 -0.4545  0.0239 -0.7681
  654MOL0     O88156  10.420  10.937   9.118 -0.8906 -0.7260 -0.0719
  654MOL0     C88157  10.380  11.037   9.181  0.0130 -0.2612  0.2216
  654MOL0     O88158  10.465  11.136   9.227 -0.4688  0.1035 -0.0192
  654MOL0     C88159  10.595  11.122   9.200  0.0847  0.3265 -0.2770
  654MOL0     C88160  10.651  11.233   9.152 -0.7765 -0.7278  0.7265
  654MOL0     C88161  10.789  11.249   9.118  0.5489  0.1747  0.1525
  654MOL0     C88162  10.876  11.138   9.127 -0.4957 -1.3436  0.4267
  654MOL0     O88163  11.007  11.136   9.095  1.0889 -0.4464  0.0579
  654MOL0     C88164  11.070  11.260   9.052  0.2985  0.3972  0.3851
  654MOL0     C88165  11.219  11.223   9.026  0.2328 -0.6710 -0.1592
  654MOL0     C88166  11.285  11.354   8.974 -0.6173  0.0613 -0.0768
  654MOL0     C88167  11.432  11.324   8.936  0.3322 -0.5407  0.2949
  654MOL0     C88168  11.512  11.455   8.920 -0.2815  1.3809  0.0658
  654MOL0     C88169  11.490  11.504   8.781 -0.1143  0.3377 -0.5866
  654MOL0     C88170  11.554  11.637   8.739 -0.2041 -0.5258  0.2362
  654MOL0     C88171  11.518  11.762   8.825  0.3591  0.7160 -0.1968
  654MOL0     N88172  11.581  11.880   8.778  0.5696 -0.0282 -0.3618
  654MOL0     C88173  11.717  11.911   8.792  0.8047 -0.3551 -0.6671
  654MOL0     C88174  11.739  11.990   8.685  0.3450 -0.4569 -0.8411
  654MOL0     C88175  11.872  12.053   8.657 -0.0845  0.2130 -0.4461
  654MOL0     C88176  11.931  11.967   8.543 -0.3222 -1.1366  0.3406
  654MOL0     C88177  11.977  11.832   8.596 -0.4246 -0.1018 -0.5269
  654MOL0     C88178  12.019  11.735   8.487  0.7591 -0.1078  1.5222
  654MOL0     O88179  12.096  11.625   8.538  0.1763 -0.0709 -0.1385
  654MOL0     C88180  12.040  11.507   8.572 -0.1580 -0.3545 -0.1950
  654MOL0     C88181  12.037  11.461   8.706  0.3687  0.2475 -0.0667
  654MOL0     C88182  11.953  11.361   8.758 -0.3263  0.8792  0.4146
  654MOL0     C88183  11.872  11.296   8.662  0.0274  0.5832  0.3049
  654MOL0     C88184  11.785  11.184   8.708  0.2647 -0.4268 -0.0098
  654MOL0     O88185  11.692  11.133   8.621  0.4459 -0.0106 -0.2796
  654MOL0     C88186  11.599  11.036   8.658  0.2904  0.0532 -0.2150
  654MOL0     C88187  11.518  10.995   8.551 -0.0902  0.3383 -0.6155
  654MOL0     C88188  11.421  10.897   8.568  0.1168  0.5603  0.4231
  654MOL0     C88189  11.390  10.838   8.694 -1.3199  1.0531  0.8604
  654MOL0     O88190  11.300  10.739   8.694  0.0249 -0.4278 -0.1837
  654MOL0     C88191  11.210  10.740   8.796  0.0292  0.1402  0.4811
  654MOL0     C88192  11.089  10.826   8.754 -0.4030 -0.6127 -0.3534
  654MOL0     C88193  10.975  10.834   8.853  0.6629 -0.5266  0.1764
  654MOL0     C88194  10.866  10.732   8.814  0.2898  0.5247  0.2728
  654MOL0     C88195  10.728  10.743   8.890 -0.8171 -1.0357  0.1279
  654MOL0     C88196  10.631  10.620   8.864 -0.5903  0.1918 -0.8095
  654MOL0     C88197  10.496  10.651   8.926 -0.0891  0.2809 -0.6971
  654MOL0     C88198  10.384  10.553   8.912 -0.1524 -0.9265  0.3413
  654MOL0    Cl88199  10.434  10.390   8.969  0.1704  0.1672  0.2470
  654MOL0     C88200  11.460  10.882   8.807 -1.2762  0.2480  0.3828
  654MOL0     C88201  11.560  10.987   8.790  0.2049 -0.4228 -0.0954
  654MOL0     O88202  11.819  11.135   8.817  0.3742  0.6438 -0.3195
  654MOL0     C88203  11.877  11.331   8.531  0.0425 -0.0019 -0.3137
  654MOL0     C88204  11.952  11.436   8.490  0.5252 -0.7514  1.1209
  654MOL0     N88205  11.621  12.017   8.620 -0.1459 -0.1650 -1.2097
  654MOL0     N88206  11.525  11.944   8.672 -0.6787  0.3296  0.6928
  654MOL0     C88207  10.831  11.026   9.198  0.0761 -0.7130 -0.0155
  654MOL0     C88208  10.689  11.015   9.232 -0.1586 -0.4906  0.7441
  654MOL0     C88209  10.235  11.041   9.229 -1.0414 -0.3349  0.0568
  654MOL0     C88210  10.201  11.143   9.330 -0.0873  1.1077 -0.1483
  654MOL0     C88211  10.074  11.165   9.375 -0.6139 -0.0161 -0.2882
  654MOL0     C88212   9.973  11.079   9.344  0.0436 -0.3817 -0.9073
  654MOL0     O88213   9.854  11.091   9.406 -0.5905 -0.5838 -0.3900
  654MOL0     C88214   9.743  11.013   9.368  0.4607 -0.4077  0.3477
  654MOL0     C88215   9.740  10.881   9.442  0.4802 -0.3165  0.2045
  654MOL0     C88216   9.616  10.795   9.407 -0.3761  0.2285 -0.6653
  654MOL0     C88217   9.614  10.746   9.260 -0.2488 -0.0388  0.1305
  654MOL0     C88218   9.726  10.662   9.229 -0.1749  0.5246  0.7848
  654MOL0     C88219   9.816  10.590   9.189  0.5315  0.3578  0.7329
  654MOL0     C88220  10.005  10.978   9.255 -0.4669  0.5086 -0.2339
  654MOL0     C88221  10.129  10.956   9.192  0.3824  0.4325  0.2100
  654MOL0     C88222  10.137  10.845   9.092  0.1185  0.0792 -1.0221
  654MOL0     H88223  10.587  11.320   9.144 -1.0459 -1.0043 -0.2696
  654MOL0     H88224  10.815  11.348   9.080  1.2675 -0.3818 -0.8491
  654MOL0     H88225  11.026  11.317   8.970  3.6403  3.2251  0.3458
  654MOL0     H88226  11.079  11.333   9.133  5.1730 -1.3352  1.7466
  654MOL0     H88227  11.231  11.149   8.946  1.3271  1.8887 -2.5493
  654MOL0     H88228  11.270  11.187   9.115  1.3785  2.7464  0.7093
  654MOL0     H88229  11.275  11.428   9.054 -1.6698  0.9089 -0.9642
  654MOL0     H88230  11.228  11.391   8.888 -2.4075  0.1156  1.0633
  654MOL0     H88231  11.473  11.265   9.019  0.6975  1.5992  1.7384
  654MOL0     H88232  11.418  11.275   8.839  1.7747  0.1685 -0.2986
  654MOL0     H88233  11.475  11.522   8.997 -0.7429 -1.7628  2.8236
  654MOL0     H88234  11.621  11.449   8.928 -0.1924 -0.2799 -1.5939
  654MOL0     H88235  11.531  11.427   8.714 -1.0796 -0.0372 -0.7749
  654MOL0     H88236  11.382  11.512   8.763 -0.0368 -0.3288 -1.4005
  654MOL0     H88237  11.523  11.648   8.635  1.8821 -1.1609 -0.5033
  654MOL0     H88238  11.663  11.630   8.742 -0.0057 -0.1530 -2.6997
  654MOL0     H88239  11.410  11.779   8.823  0.5965  2.3518 -1.5342
  654MOL0     H88240  11.553  11.739   8.926  2.0148 -0.4397 -0.9995
  654MOL0     H88241  11.791  11.869   8.860  2.1121  4.2467  1.1164
  654MOL0     H88242  11.854  12.157   8.629  0.0266  0.2997 -0.1945
  654MOL0     H88243  11.932  12.040   8.747  0.8251 -2.0903 -1.3205
  654MOL0     H88244  11.858  11.947   8.464 -4.3292  1.2566  3.1275
  654MOL0     H88245  12.013  12.021   8.493 -1.3307  0.2475  0.1290
  654MOL0     H88246  11.894  11.786   8.649  0.7013  1.9891  3.4418
  654MOL0     H88247  12.058  11.842   8.669  0.2685 -1.9314 -0.9905
  654MOL0     H88248  12.073  11.781   8.403  1.4759 -2.2623  0.7212
  654MOL0     H88249  11.931  11.708   8.429  1.3281 -1.2147  1.1348
  654MOL0     H88250  12.083  11.510   8.791 -0.6783 -1.7719  1.7666
  654MOL0     H88251  11.973  11.328   8.860  0.5636  0.5975  0.1606
  654MOL0     H88252  11.542  11.038   8.454 -0.6923 -1.7087 -1.7074
  654MOL0     H88253  11.359  10.874   8.482  0.6630  1.5571 -0.2516
  654MOL0     H88254  11.177  10.636   8.796  0.3870 -0.0702 -2.8170
  654MOL0     H88255  11.246  10.768   8.895  0.8632 -1.5760  0.6999
  654MOL0     H88256  11.126  10.929   8.758 -1.2030 -0.2808  3.5810
  654MOL0     H88257  11.051  10.803   8.655 -2.4602  0.2147  0.1971
  654MOL0     H88258  11.012  10.820   8.955  0.2937  3.0461  0.9316
  654MOL0     H88259  10.922  10.930   8.855 -2.2471 -2.0109  0.0119
  654MOL0     H88260  10.908  10.637   8.848 -0.6217 -0.2581 -0.7346
  654MOL0     H88261  10.850  10.728   8.706 -0.3793 -2.9828  0.3848
  654MOL0     H88262  10.680  10.835   8.856  0.0871 -0.2802  0.8682
  654MOL0     H88263  10.759  10.754   8.994 -1.9303 -0.2522  0.4016
  654MOL0     H88264  10.627  10.601   8.757  2.7334  1.8642 -1.3510
  654MOL0     H88265  10.677  10.538   8.921 -1.0792  0.6628  0.2903
  654MOL0     H88266  10.468  10.747   8.881 -2.8888 -0.1714 -0.0868
  654MOL0     H88267  10.518  10.676   9.030 -0.2056 -0.0525 -0.5902
  654MOL0     H88268  10.295  10.593   8.963 -0.6881  1.2534 -2.0826
  654MOL0     H88269  10.370  10.538   8.805  1.1661 -2.7170  0.3722
  654MOL0     H88270  11.437  10.844   8.906 -2.3284 -1.2877 -0.4099
  654MOL0     H88271  11.609  11.019   8.881 -0.4333  0.1281  0.0603
  654MOL0     H88272  11.820  11.278   8.456 -0.0429 -0.3120 -0.0289
  654MOL0     H88273  11.952  11.464   8.385 -0.1655 -1.7725  0.8276
  654MOL0     H88274  10.897  10.940   9.207 -0.8366 -1.4315 -0.0484
  654MOL0     H88275  10.649  10.935   9.294 -0.6762  0.6472  1.9337
  654MOL0     H88276  10.279  11.195   9.384 -0.3814  1.5008 -0.0920
  654MOL0     H88277  10.065  11.231   9.461  1.6667  1.0537 -0.7946
  654MOL0     H88278   9.729  11.003   9.260 -0.3765  0.5036  0.3589
  654MOL0     H88279   9.649  11.067   9.386  1.4974  2.2432 -1.5988
  654MOL0     H88280   9.737  10.900   9.549  0.5149 -2.4725  0.6315
  654MOL0     H88281   9.832  10.826   9.418  0.5654 -0.1695  0.1918
  654MOL0     H88282   9.529  10.857   9.431  2.0941  3.9956 -0.4699
  654MOL0     H88283   9.611  10.711   9.476 -0.3904  1.6434  1.1128
  654MOL0     H88284   9.532  10.674   9.246 -0.2230 -0.3177  1.3078
  654MOL0     H88285   9.608  10.832   9.192  0.8531  1.3012  1.6610
  654MOL0     H88286   9.897  10.523   9.170  0.9100  0.6365  1.3171
  654MOL0     H88287   9.939  10.893   9.239  2.4611 -2.3241  1.5919
  654MOL0     H88288  10.073  10.760   9.120 -0.2675  1.3069  2.3043
  654MOL0     H88289  10.111  10.886   8.994  1.7677  3.0188 -0.3342
  654MOL0     H88290  10.235  10.802   9.068  0.3883  0.5805 -0.8276
  655MOL0     O88291   2.788   6.258   2.185  0.4719 -0.8233  0.1009
  655MOL0     C88292   2.731   6.163   2.141 -0.3494  0.1809  0.4981
  655MOL0     O88293   2.785   6.053   2.077 -0.2969 -0.2277  0.2040
  655MOL0     C88294   2.925   6.040   2.048  0.4908  0.2195  0.3617
  655MOL0     C88295   3.022   6.139   2.042  0.9322  0.1727  1.1971
  655MOL0     C88296   3.154   6.107   2.024  0.4080 -0.2646 -0.8414
  655MOL0     C88297   3.195   5.978   1.997 -1.1670  0.5300  0.0792
  655MOL0     O88298   3.326   5.959   1.974  0.5721 -0.0867  0.6237
  655MOL0     C88299   3.361   5.847   1.892 -0.5915  0.6131  0.3666
  655MOL0     C88300   3.511   5.835   1.892  0.2376 -0.2444  0.0528
  655MOL0     C88301   3.561   5.789   1.758  0.0087  0.2558 -0.4205
  655MOL0     C88302   3.713   5.793   1.752 -0.2853 -0.3642 -0.8965
  655MOL0     C88303   3.753   5.726   1.623  0.1934  0.1668 -0.4422
  655MOL0     C88304   3.899   5.723   1.618  0.6784 -0.4485 -0.1300
  655MOL0     C88305   3.936   5.630   1.502  0.0199  0.6139  0.8555
  655MOL0     C88306   4.088   5.604   1.505  0.0568 -0.1123  0.2138
  655MOL0     N88307   4.133   5.548   1.377  0.4737 -0.2538  0.2949
  655MOL0     C88308   4.128   5.601   1.249 -0.2056  0.2683  0.3656
  655MOL0     C88309   4.190   5.511   1.167  0.5884 -0.2206  0.1474
  655MOL0     C88310   4.222   5.534   1.020  0.4693  0.1711  0.2457
  655MOL0     C88311   4.352   5.488   0.964 -0.9579 -0.3368 -0.3001
  655MOL0     C88312   4.338   5.457   0.817  0.6279  0.8197  0.4965
  655MOL0     C88313   4.453   5.497   0.736  0.2007 -0.4056  0.8850
  655MOL0     O88314   4.459   5.644   0.723 -0.4829  0.1068  0.0062
  655MOL0     C88315   4.584   5.703   0.732  0.7092 -0.0307  0.0879
  655MOL0     C88316   4.687   5.687   0.634  1.1732  0.0293  0.8197
  655MOL0     C88317   4.815   5.742   0.662 -0.1118  0.9144 -0.3823
  655MOL0     C88318   4.842   5.811   0.784 -0.7981 -0.1460 -1.4822
  655MOL0     C88319   4.978   5.853   0.819  0.9389  0.7975  0.6053
  655MOL0     O88320   5.077   5.820   0.737  0.0639  0.3530 -0.2706
  655MOL0     C88321   5.194   5.897   0.753 -0.1636  0.2593  1.3894
  655MOL0     C88322   5.285   5.870   0.853  0.4031  0.6954 -0.2799
  655MOL0     C88323   5.405   5.941   0.861 -0.5643 -0.3754  0.4799
  655MOL0     C88324   5.443   6.033   0.762  0.6202  0.1004  0.0653
  655MOL0     O88325   5.564   6.108   0.776 -0.2993  0.9545 -0.5390
  655MOL0     C88326   5.593   6.226   0.692 -0.5385 -0.9820 -0.1797
  655MOL0     C88327   5.679   6.319   0.769 -1.0574 -0.4914  0.2384
  655MOL0     C88328   5.640   6.332   0.914  1.2837 -0.0632  0.4767
  655MOL0     C88329   5.486   6.366   0.937  0.4050  0.4154 -0.5310
  655MOL0     C88330   5.456   6.429   1.075  0.2677  0.4682 -0.6012
  655MOL0     C88331   5.529   6.558   1.100 -0.7488  0.0312  1.0724
  655MOL0     C88332   5.480   6.628   1.231 -0.6217  0.1448 -0.5714
  655MOL0     C88333   5.565   6.749   1.262 -0.8482  0.9860  0.1532
  655MOL0    Cl88334   5.448   6.839   1.374  0.0333  0.4561 -0.3086
  655MOL0     C88335   5.353   6.052   0.649 -0.2247 -0.3969  0.4328
  655MOL0     C88336   5.236   5.980   0.647  0.0237 -0.7441 -0.3271
  655MOL0     O88337   4.993   5.906   0.930 -0.3620  0.0091  0.1527
  655MOL0     C88338   4.736   5.830   0.872  0.0589 -0.3729  0.8855
  655MOL0     C88339   4.608   5.783   0.842 -0.0467 -0.8990 -0.9237
  655MOL0     N88340   4.243   5.410   1.242 -0.4042  0.0040 -0.5443
  655MOL0     N88341   4.205   5.432   1.362 -0.3587 -0.0796  0.1074
  655MOL0     C88342   3.101   5.879   1.986  0.3498  0.3754 -0.1175
  655MOL0     C88343   2.968   5.911   2.026 -0.3766  0.9515 -0.1906
  655MOL0     C88344   2.589   6.148   2.172  0.8418  0.3518  0.3574
  655MOL0     C88345   2.514   6.264   2.154  0.7142  0.3666  0.3508
  655MOL0     C88346   2.372   6.267   2.187 -0.0600 -0.1817  1.0263
  655MOL0     C88347   2.307   6.152   2.222 -0.2388  1.0172 -0.2537
  655MOL0     O88348   2.172   6.157   2.250  0.4596  0.0163  0.2822
  655MOL0     C88349   2.102   6.048   2.318  0.4008  0.5267 -0.6974
  655MOL0     C88350   1.952   6.064   2.290  0.0321 -0.3747 -0.0848
  655MOL0     C88351   1.892   6.195   2.347 -0.3657 -0.3603 -0.6196
  655MOL0     C88352   1.737   6.216   2.361  0.6595  1.3196 -0.2862
  655MOL0     C88353   1.665   6.177   2.239 -0.1160  0.0304 -0.2976
  655MOL0     C88354   1.606   6.157   2.132  0.0896  0.4183 -0.4078
  655MOL0     C88355   2.383   6.037   2.245 -0.0613 -0.2944  1.4430
  655MOL0     C88356   2.523   6.034   2.214 -0.5393  0.4338 -0.9112
  655MOL0     C88357   2.592   5.905   2.238  0.7375 -0.4427 -0.4324
  655MOL0     H88358   2.992   6.242   2.056 -1.8975  0.1803 -3.1064
  655MOL0     H88359   3.228   6.186   2.031 -2.4051  2.5129 -0.5568
  655MOL0     H88360   3.317   5.753   1.926  0.9459 -0.1301  0.3411
  655MOL0     H88361   3.322   5.853   1.790  0.8571 -4.3295 -0.7472
  655MOL0     H88362   3.543   5.774   1.977  0.3101  2.3266  2.0123
  655MOL0     H88363   3.557   5.931   1.917  1.6965 -1.6091  3.2466
  655MOL0     H88364   3.512   5.862   1.692  0.7067  2.2764  1.1698
  655MOL0     H88365   3.520   5.689   1.743  1.2582 -0.3592  0.1122
  655MOL0     H88366   3.739   5.899   1.751 -2.8211  0.3361 -0.2233
  655MOL0     H88367   3.753   5.756   1.847  0.0090  0.9095 -0.5003
  655MOL0     H88368   3.715   5.624   1.630 -0.0391  0.3625  2.6778
  655MOL0     H88369   3.699   5.771   1.539 -2.2705 -1.3947  0.1778
  655MOL0     H88370   3.953   5.815   1.591  2.2177 -1.0746  0.7010
  655MOL0     H88371   3.956   5.688   1.704  0.8206  2.3716  1.0213
  655MOL0     H88372   3.903   5.678   1.410 -0.2374  0.7100  0.9961
  655MOL0     H88373   3.888   5.532   1.509 -1.7935  1.3302 -0.7120
  655MOL0     H88374   4.147   5.691   1.534 -1.9479  1.4351 -0.1008
  655MOL0     H88375   4.108   5.522   1.574 -0.5350 -0.5781 -0.1546
  655MOL0     H88376   4.091   5.698   1.217  0.8473  0.6015  0.0962
  655MOL0     H88377   4.139   5.480   0.974  1.7948 -2.1357  0.4258
  655MOL0     H88378   4.211   5.640   0.995 -0.9612 -0.5771 -2.6670
  655MOL0     H88379   4.427   5.567   0.976 -0.2211 -1.2348  1.2930
  655MOL0     H88380   4.390   5.398   1.013  1.4250  0.4786 -0.5166
  655MOL0     H88381   4.252   5.505   0.770 -0.2416  0.0716  1.2744
  655MOL0     H88382   4.326   5.348   0.808 -0.0957  0.8471  1.0265
  655MOL0     H88383   4.452   5.449   0.638  4.7652  0.1442  0.3500
  655MOL0     H88384   4.549   5.461   0.774  2.1374  0.6874 -2.5519
  655MOL0     H88385   4.669   5.636   0.540 -0.0473  0.5210  0.7732
  655MOL0     H88386   4.882   5.752   0.577 -1.5466 -0.3302 -1.7078
  655MOL0     H88387   5.269   5.795   0.930  2.9190  1.1102  0.7368
  655MOL0     H88388   5.470   5.923   0.946  1.2294  0.3427 -0.6749
  655MOL0     H88389   5.642   6.201   0.598  0.2035  0.0497 -0.0841
  655MOL0     H88390   5.509   6.296   0.681  1.0736  2.4518  5.1736
  655MOL0     H88391   5.783   6.283   0.768 -1.0710 -0.5483  0.6165
  655MOL0     H88392   5.686   6.425   0.746 -0.0657  0.1536  3.0992
  655MOL0     H88393   5.678   6.249   0.975 -0.0073 -1.5825 -0.7079
  655MOL0     H88394   5.697   6.416   0.954  0.3769  1.0070 -0.4363
  655MOL0     H88395   5.421   6.278   0.934  0.7112  0.2215 -2.4783
  655MOL0     H88396   5.454   6.440   0.863 -0.4187  2.0104  1.3185
  655MOL0     H88397   5.489   6.367   1.159 -1.4165 -0.2649 -0.4258
  655MOL0     H88398   5.348   6.446   1.086  0.1832 -0.4327  0.1484
  655MOL0     H88399   5.637   6.543   1.111 -0.9167 -0.1506  2.6989
  655MOL0     H88400   5.502   6.623   1.016  0.0941 -0.2537  0.5732
  655MOL0     H88401   5.462   6.559   1.314  0.9476  0.6835  0.2581
  655MOL0     H88402   5.377   6.657   1.210 -0.0498  2.1500 -0.8228
  655MOL0     H88403   5.657   6.710   1.305 -2.5686 -4.4471 -0.3393
  655MOL0     H88404   5.597   6.799   1.170  0.4289  0.2562  0.1818
  655MOL0     H88405   5.376   6.122   0.569 -1.5089 -0.6051 -0.1489
  655MOL0     H88406   5.160   5.991   0.571 -0.4293 -0.8945  0.0978
  655MOL0     H88407   4.755   5.872   0.970 -0.9789 -0.5208  1.1570
  655MOL0     H88408   4.529   5.805   0.913 -0.8419  0.8967 -2.2836
  655MOL0     H88409   3.128   5.777   1.962 -2.7627 -0.8309  0.9642
  655MOL0     H88410   2.887   5.839   2.037 -1.4147  2.2438  0.9534
  655MOL0     H88411   2.560   6.359   2.129  2.6788 -0.6271  0.0319
  655MOL0     H88412   2.311   6.351   2.155 -0.8182 -1.5207 -1.2923
  655MOL0     H88413   2.131   6.046   2.424 -1.8086 -1.1980 -0.0553
  655MOL0     H88414   2.129   5.951   2.277 -0.4532 -0.8578  1.7907
  655MOL0     H88415   1.896   5.982   2.336 -0.2203 -1.6531 -2.5224
  655MOL0     H88416   1.921   6.074   2.186  0.2263  0.9560 -0.0306
  655MOL0     H88417   1.921   6.276   2.279 -0.2864 -0.4231 -0.6597
  655MOL0     H88418   1.931   6.218   2.446 -1.0162  2.2376 -0.8931
  655MOL0     H88419   1.693   6.145   2.433 -2.2026  0.9973 -2.1918
  655MOL0     H88420   1.699   6.317   2.378 -0.0348  1.1108 -0.5471
  655MOL0     H88421   1.559   6.130   2.039  0.8965 -0.7932 -0.4966
  655MOL0     H88422   2.356   5.940   2.285  3.2669 -2.1350 -0.3118
  655MOL0     H88423   2.609   5.850   2.145  1.0427  0.9724 -1.2357
  655MOL0     H88424   2.692   5.911   2.281  0.1780 -2.6244  1.4067
  655MOL0     H88425   2.544   5.837   2.309  1.4137 -0.4071  0.0557
  656MOL0     O88426   9.352   3.167  11.367  0.1815  0.1849 -0.2840
  656MOL0     C88427   9.337   3.283  11.323  0.1633  0.2339  0.2288
  656MOL0     O88428   9.227   3.361  11.337 -0.2700  0.3888  0.4109
  656MOL0     C88429   9.105   3.293  11.345 -0.1183 -0.9767 -0.2883
  656MOL0     C88430   9.025   3.254  11.234  0.1907 -0.3679 -0.1285
  656MOL0     C88431   8.895   3.200  11.261  0.7461  0.2366 -0.1708
  656MOL0     C88432   8.860   3.174  11.395  0.1830 -0.3394  0.4228
  656MOL0     O88433   8.745   3.093  11.405 -0.0752  0.4040 -0.4842
  656MOL0     C88434   8.690   3.075  11.532 -0.5027  1.3200  0.1075
  656MOL0     C88435   8.585   2.965  11.535  0.1921 -0.7815  1.2552
  656MOL0     C88436   8.538   2.938  11.682  0.4235 -0.0637 -0.3693
  656MOL0     C88437   8.416   2.840  11.665 -0.5789 -0.6119 -0.0906
  656MOL0     C88438   8.368   2.795  11.800  0.6098  0.0361  0.6134
  656MOL0     C88439   8.255   2.697  11.778  0.1263  0.3573 -0.2897
  656MOL0     C88440   8.166   2.688  11.896  0.1740 -0.8284 -1.0112
  656MOL0     C88441   8.032   2.748  11.881  0.4503  0.1457 -0.3119
  656MOL0     N88442   8.037   2.889  11.845 -0.5898  0.1923 -0.1915
  656MOL0     C88443   8.071   2.993  11.924 -0.0420  0.4211 -0.2867
  656MOL0     C88444   8.044   3.101  11.848  0.5013  0.4856 -0.2952
  656MOL0     C88445   8.098   3.237  11.883 -0.0807  0.4436 -0.2912
  656MOL0     C88446   8.247   3.251  11.850  0.1371  0.3597 -0.1852
  656MOL0     C88447   8.296   3.392  11.854  0.5684  0.2615 -0.3568
  656MOL0     C88448   8.438   3.411  11.898  0.3612 -0.5324 -0.4279
  656MOL0     O88449   8.537   3.388  11.797  0.4460 -0.1532  0.3084
  656MOL0     C88450   8.669   3.406  11.826  0.2395  1.0438 -0.2523
  656MOL0     C88451   8.748   3.454  11.715  0.6117  0.8570  0.1492
  656MOL0     C88452   8.882   3.493  11.737  0.7423  0.3570 -0.0608
  656MOL0     C88453   8.945   3.469  11.864 -0.3566  0.3405  0.9305
  656MOL0     C88454   9.091   3.501  11.890  0.3020  1.3001  0.3777
  656MOL0     O88455   9.186   3.499  11.786 -0.1961 -0.4828  0.3533
  656MOL0     C88456   9.321   3.520  11.811 -0.1564  0.4428  0.3866
  656MOL0     C88457   9.395   3.570  11.705  0.4604 -0.2844 -0.1873
  656MOL0     C88458   9.530   3.591  11.708 -0.3100  0.6541  0.8929
  656MOL0     C88459   9.601   3.569  11.818  0.1398  0.7125 -0.4358
  656MOL0     O88460   9.733   3.586  11.812 -0.2795  0.7755 -0.2136
  656MOL0     C88461   9.788   3.643  11.932 -0.6706  0.4544 -0.0809
  656MOL0     C88462   9.927   3.689  11.891 -0.3985 -0.0047 -0.3350
  656MOL0     C88463  10.005   3.755  12.007  0.2700 -0.2082 -0.5127
  656MOL0     C88464  10.123   3.839  11.938  0.5036 -0.2405 -0.2711
  656MOL0     C88465  10.217   3.896  12.053  0.0969  0.4420 -0.2330
  656MOL0     C88466  10.320   3.991  11.998  0.1913  0.1636  0.0491
  656MOL0     C88467  10.432   4.015  12.100 -0.0096 -0.5132  0.2504
  656MOL0     C88468  10.511   4.145  12.059 -0.4704 -0.7561  0.7403
  656MOL0    Cl88469  10.654   4.179  12.160  0.2529  0.2996  0.0917
  656MOL0     C88470   9.536   3.508  11.929 -1.1235 -0.6380  0.1882
  656MOL0     C88471   9.395   3.488  11.922 -0.2581 -0.1761 -0.8686
  656MOL0     O88472   9.115   3.532  12.005  0.5198  0.4355 -0.5019
  656MOL0     C88473   8.864   3.417  11.970 -0.0399 -0.1093  0.5193
  656MOL0     C88474   8.729   3.391  11.951  0.2176  0.0845  0.3613
  656MOL0     N88475   7.997   3.056  11.725  0.7397 -0.5244  0.5756
  656MOL0     N88476   8.003   2.930  11.722  0.5979  0.0673  0.3766
  656MOL0     C88477   8.947   3.208  11.501  0.2384 -0.4994  1.0766
  656MOL0     C88478   9.063   3.283  11.479  1.5089  0.4365  0.4273
  656MOL0     C88479   9.458   3.335  11.255 -0.4257 -0.6601  0.6708
  656MOL0     C88480   9.542   3.241  11.185 -1.2588  0.1584  0.0990
  656MOL0     C88481   9.659   3.275  11.123  0.0759  0.1512  1.0392
  656MOL0     C88482   9.692   3.412  11.108  0.4411  0.1799  0.0893
  656MOL0     O88483   9.799   3.462  11.044  0.5611 -0.4476  0.4180
  656MOL0     C88484   9.908   3.371  11.021  0.2644 -0.9203 -0.7929
  656MOL0     C88485  10.037   3.456  11.005  0.5050  0.3597  0.0844
  656MOL0     C88486  10.024   3.602  11.074  0.4324  0.1388 -0.2063
  656MOL0     C88487  10.161   3.673  11.070  0.6277 -0.1367  0.0303
  656MOL0     C88488  10.162   3.801  11.135  0.5100  0.5678  0.0358
  656MOL0     C88489  10.169   3.910  11.185 -0.6488  0.3087 -0.5276
  656MOL0     C88490   9.604   3.510  11.164 -0.7216  0.5614 -0.1172
  656MOL0     C88491   9.490   3.477  11.241 -0.6241 -0.4934  0.3543
  656MOL0     C88492   9.401   3.592  11.292 -0.3180 -0.6295 -0.6016
  656MOL0     H88493   9.063   3.270  11.134 -0.5962  1.6638 -0.1460
  656MOL0     H88494   8.830   3.169  11.180 -0.1123 -0.0750  0.6163
  656MOL0     H88495   8.771   3.044  11.599 -2.5801 -0.6256  1.9318
  656MOL0     H88496   8.656   3.171  11.571  1.8886  1.6215  1.6615
  656MOL0     H88497   8.616   2.872  11.487 -2.3974 -1.0817 -0.0166
  656MOL0     H88498   8.505   2.996  11.467  0.9886 -0.2936  0.5120
  656MOL0     H88499   8.514   3.032  11.734  3.2080  0.9713 -0.8207
  656MOL0     H88500   8.606   2.885  11.749 -0.1767  1.0646  1.2159
  656MOL0     H88501   8.330   2.894  11.625 -0.1371  0.1696 -0.0160
  656MOL0     H88502   8.449   2.751  11.610 -1.4727 -1.8425  1.3014
  656MOL0     H88503   8.441   2.739  11.859 -0.4188 -0.0547  1.8549
  656MOL0     H88504   8.333   2.886  11.850  2.9113  0.6258  1.2679
  656MOL0     H88505   8.200   2.708  11.683 -0.9087 -3.2112 -0.2426
  656MOL0     H88506   8.298   2.597  11.763 -0.0414  0.2000  0.2621
  656MOL0     H88507   8.212   2.730  11.985 -2.4872  2.5176 -1.0192
  656MOL0     H88508   8.145   2.582  11.913 -3.2691 -0.2759 -1.1003
  656MOL0     H88509   7.986   2.681  11.807 -0.4013 -1.4746  1.6016
  656MOL0     H88510   7.975   2.743  11.974 -1.2840  1.2550 -1.2526
  656MOL0     H88511   8.121   2.998  12.020 -0.7734  0.0392  0.1248
  656MOL0     H88512   8.049   3.313  11.821  0.0072  0.4203 -0.3889
  656MOL0     H88513   8.075   3.262  11.987 -0.4161  0.5262 -0.3823
  656MOL0     H88514   8.301   3.181  11.914 -1.9303 -0.2501  1.0079
  656MOL0     H88515   8.262   3.196  11.756  0.9122  0.3139 -0.0407
  656MOL0     H88516   8.239   3.461  11.916  1.3855  0.5721  0.0730
  656MOL0     H88517   8.285   3.433  11.753 -2.0383 -2.7676 -1.4594
  656MOL0     H88518   8.463   3.349  11.985  1.1947  1.8842  1.1771
  656MOL0     H88519   8.446   3.515  11.930 -0.9807 -0.4192 -0.4093
  656MOL0     H88520   8.705   3.464  11.615 -2.9431 -1.2809  1.2815
  656MOL0     H88521   8.944   3.530  11.655  1.7068 -2.3893 -0.6587
  656MOL0     H88522   9.336   3.597  11.618 -1.1188  0.6158  1.0961
  656MOL0     H88523   9.578   3.613  11.613  3.4379 -3.1720  1.5882
  656MOL0     H88524   9.739   3.732  11.973  1.2446  0.1351  3.3181
  656MOL0     H88525   9.799   3.562  12.006  0.9067 -0.3203 -1.0940
  656MOL0     H88526   9.984   3.604  11.851 -4.2411 -1.8160 -2.6549
  656MOL0     H88527   9.909   3.763  11.813  0.4867  1.1733  0.5538
  656MOL0     H88528   9.936   3.828  12.052 -0.5406  3.5890 -6.7715
  656MOL0     H88529  10.039   3.674  12.073 -3.2562 -1.3669  0.1132
  656MOL0     H88530  10.075   3.928  11.898  0.7125  0.6934  1.4747
  656MOL0     H88531  10.175   3.783  11.859  0.4088 -1.6513  0.6237
  656MOL0     H88532  10.272   3.820  12.109 -1.1534  1.0237  1.8768
  656MOL0     H88533  10.160   3.948  12.131  1.0032  1.6637 -0.3546
  656MOL0     H88534  10.367   3.952  11.907  0.3259 -1.3354  0.7303
  656MOL0     H88535  10.285   4.089  11.966  0.2877 -0.5091 -2.2692
  656MOL0     H88536  10.505   3.933  12.096  1.7193  0.9337  0.7210
  656MOL0     H88537  10.405   4.039  12.203  3.4797  2.1801  0.7397
  656MOL0     H88538  10.546   4.145  11.956  0.4612  0.8495  1.0218
  656MOL0     H88539  10.448   4.234  12.069  1.9289  1.3542 -1.5199
  656MOL0     H88540   9.598   3.480  12.014  1.7382  0.7548 -1.2841
  656MOL0     H88541   9.346   3.463  12.016  2.2319  0.9626  0.8431
  656MOL0     H88542   8.898   3.393  12.070  1.2646  0.8974  0.3446
  656MOL0     H88543   8.663   3.352  12.028 -2.8119  2.1528 -1.0279
  656MOL0     H88544   8.928   3.169  11.601  1.4386  0.2407  1.6143
  656MOL0     H88545   9.118   3.329  11.560  0.0556  1.0003  1.1265
  656MOL0     H88546   9.525   3.134  11.190 -0.9820  0.0056 -1.6956
  656MOL0     H88547   9.723   3.201  11.077  2.0238  2.9821 -1.2091
  656MOL0     H88548   9.889   3.298  10.942 -2.6146  0.1710 -1.2715
  656MOL0     H88549   9.917   3.315  11.114 -1.0251  0.1421  0.0113
  656MOL0     H88550  10.058   3.466  10.899  0.4721  0.7614  0.1137
  656MOL0     H88551  10.117   3.402  11.057  1.0966  0.4268 -0.7382
  656MOL0     H88552   9.981   3.591  11.175 -4.0833  3.5446 -1.4261
  656MOL0     H88553   9.946   3.658  11.022  0.8505  0.3940 -0.5592
  656MOL0     H88554  10.241   3.608  11.108 -0.0694 -0.7253  0.5092
  656MOL0     H88555  10.189   3.685  10.965 -0.0589 -1.9856 -0.4050
  656MOL0     H88556  10.163   4.010  11.223  2.0626 -0.6957  3.0926
  656MOL0     H88557   9.637   3.613  11.155  1.3600 -0.1628 -1.5364
  656MOL0     H88558   9.427   3.609  11.397  1.5707 -0.9214 -0.9874
  656MOL0     H88559   9.424   3.682  11.235  1.4766 -0.9879 -0.5021
  656MOL0     H88560   9.296   3.572  11.269 -0.8405 -0.4502  1.3744
  657MOL0     O88561   5.709   9.028   5.474  0.1900 -0.8447  0.6520
  657MOL0     C88562   5.679   8.929   5.406  0.1320 -0.1217 -0.3026
  657MOL0     O88563   5.761   8.883   5.314  0.2067 -0.1069 -0.3031
  657MOL0     C88564   5.890   8.923   5.300 -0.0237 -0.4076  0.2889
  657MOL0     C88565   5.930   8.909   5.166  0.4258 -0.4801 -0.6727
  657MOL0     C88566   6.049   8.957   5.118  0.4537  0.0202  0.4478
  657MOL0     C88567   6.147   9.015   5.201  0.0025 -0.7772 -0.5881
  657MOL0     O88568   6.266   9.055   5.138 -0.1655 -0.5880  0.2490
  657MOL0     C88569   6.393   9.045   5.201 -0.5893 -0.1517 -1.4164
  657MOL0     C88570   6.518   9.057   5.109  0.8445  0.7744  0.1034
  657MOL0     C88571   6.556   9.196   5.049  0.3620  0.3285 -0.3050
  657MOL0     C88572   6.702   9.194   4.996  0.2948 -0.1477  0.0346
  657MOL0     C88573   6.734   9.098   4.880 -0.8364 -0.0216  0.8359
  657MOL0     C88574   6.837   9.156   4.777 -0.9944 -0.5443 -0.4746
  657MOL0     C88575   6.951   9.237   4.836 -0.7072  0.0183 -0.0981
  657MOL0     C88576   7.059   9.263   4.738 -0.3738 -0.4282 -0.0578
  657MOL0     N88577   7.166   9.354   4.787  0.2018  1.3021  1.0641
  657MOL0     C88578   7.211   9.464   4.715  0.4290  0.4017 -0.0921
  657MOL0     C88579   7.304   9.520   4.797  0.3167  0.5882 -0.2685
  657MOL0     C88580   7.380   9.634   4.751 -0.4098  0.3480 -1.0163
  657MOL0     C88581   7.514   9.611   4.687 -0.9224  0.2548 -0.6458
  657MOL0     C88582   7.493   9.569   4.534 -0.1380  0.0537  0.1441
  657MOL0     C88583   7.603   9.478   4.490 -0.4674 -0.4491  0.0121
  657MOL0     O88584   7.605   9.482   4.345  1.3384 -0.4428 -0.4968
  657MOL0     C88585   7.708   9.541   4.283  0.8228  1.0754 -0.3277
  657MOL0     C88586   7.687   9.656   4.211 -0.8417 -1.1811  0.2909
  657MOL0     C88587   7.794   9.721   4.134 -0.5841  0.3635  0.0993
  657MOL0     C88588   7.923   9.661   4.133  0.5373  0.4579  0.0265
  657MOL0     C88589   8.033   9.711   4.051  0.5127 -0.0437  0.0853
  657MOL0     O88590   8.131   9.634   4.037 -0.5984  0.0697 -0.4770
  657MOL0     C88591   8.237   9.676   3.958 -0.8189 -0.1288 -0.5824
  657MOL0     C88592   8.271   9.620   3.831  0.4578 -0.7039 -0.2765
  657MOL0     C88593   8.392   9.630   3.777 -0.0727  0.1251  0.2616
  657MOL0     C88594   8.489   9.699   3.841 -0.6428 -0.2917  0.7344
  657MOL0     O88595   8.615   9.701   3.780 -0.5927  0.0249  0.3994
  657MOL0     C88596   8.723   9.774   3.842 -0.4883 -0.4865 -0.6064
  657MOL0     C88597   8.852   9.733   3.778  0.5106 -0.5170  0.5094
  657MOL0     C88598   8.980   9.807   3.823  1.1529 -0.3290 -0.0832
  657MOL0     C88599   9.096   9.773   3.735  1.1257  0.2730 -0.0540
  657MOL0     C88600   9.201   9.883   3.746 -0.1393 -0.6872 -0.3067
  657MOL0     C88601   9.340   9.836   3.680 -0.2122 -0.5293  0.2343
  657MOL0     C88602   9.444   9.945   3.714  0.2030  1.6308  0.6078
  657MOL0     C88603   9.570   9.917   3.640  0.1291 -0.1838  0.0916
  657MOL0    Cl88604   9.682   9.916   3.769 -0.0805  0.4362  0.0076
  657MOL0     C88605   8.461   9.772   3.958  0.3543 -0.1224 -1.3592
  657MOL0     C88606   8.331   9.751   4.015 -1.0473  0.4096  0.9485
  657MOL0     O88607   8.018   9.821   3.997  0.3787  0.8724 -0.2222
  657MOL0     C88608   7.932   9.542   4.210  0.4645  0.3967 -0.3643
  657MOL0     C88609   7.834   9.483   4.290  1.1945 -0.6689  0.6058
  657MOL0     N88610   7.309   9.451   4.914  0.3787 -0.0125 -1.5722
  657MOL0     N88611   7.241   9.351   4.903 -0.2876  0.0474 -0.2243
  657MOL0     C88612   6.103   9.033   5.335  0.8707 -0.8368  0.0944
  657MOL0     C88613   5.978   8.996   5.378  0.2039  0.3885  0.2074
  657MOL0     C88614   5.553   8.858   5.442 -0.2025  0.3795 -0.4105
  657MOL0     C88615   5.433   8.933   5.455 -1.4129 -0.5691  0.1780
  657MOL0     C88616   5.318   8.859   5.472  0.2217 -0.4763  0.2837
  657MOL0     C88617   5.321   8.720   5.473 -0.1536  0.1066 -0.1157
  657MOL0     O88618   5.202   8.651   5.488 -0.0958 -0.1390  0.5540
  657MOL0     C88619   5.068   8.713   5.482 -0.2747 -0.4448  0.9755
  657MOL0     C88620   5.040   8.764   5.342  0.1327 -0.4078 -0.6744
  657MOL0     C88621   4.886   8.762   5.311  0.4802 -0.8966 -0.1866
  657MOL0     C88622   4.826   8.632   5.255 -0.2792 -0.0391  0.1863
  657MOL0     C88623   4.876   8.606   5.124  0.3454  0.0488  0.0057
  657MOL0     C88624   4.911   8.602   5.009 -0.6278  0.6331  0.5275
  657MOL0     C88625   5.434   8.652   5.459  0.1692  0.4380  0.4758
  657MOL0     C88626   5.559   8.715   5.435  0.0934  0.3197  0.1003
  657MOL0     C88627   5.682   8.617   5.422  0.8456 -0.2307  0.4953
  657MOL0     H88628   5.860   8.859   5.100  1.7332 -0.7355 -1.9078
  657MOL0     H88629   6.070   8.939   5.013 -0.8413  0.4251  0.1010
  657MOL0     H88630   6.406   9.115   5.284 -2.0496 -2.0671  0.5386
  657MOL0     H88631   6.397   8.948   5.251  0.5863 -0.4023 -1.9713
  657MOL0     H88632   6.511   8.983   5.029 -3.4618 -0.7767  1.6256
  657MOL0     H88633   6.611   9.017   5.152  0.7222 -1.8248 -1.8487
  657MOL0     H88634   6.537   9.269   5.128  1.6776 -1.9751  2.3303
  657MOL0     H88635   6.506   9.221   4.955 -0.8652  1.8115  0.6810
  657MOL0     H88636   6.712   9.288   4.941 -2.3630 -0.4036 -1.0314
  657MOL0     H88637   6.782   9.187   5.071  2.0213  0.8565 -1.6207
  657MOL0     H88638   6.762   9.000   4.919 -0.1973 -0.2044 -0.0444
  657MOL0     H88639   6.642   9.074   4.826 -1.0309 -0.3519  1.3050
  657MOL0     H88640   6.870   9.075   4.711  0.0316  0.5717 -1.3819
  657MOL0     H88641   6.788   9.231   4.716 -2.4155 -1.1676 -0.1320
  657MOL0     H88642   6.999   9.183   4.918 -2.3815 -1.7120 -0.1912
  657MOL0     H88643   6.921   9.336   4.870  0.4517  0.6249 -0.7689
  657MOL0     H88644   7.095   9.161   4.719  0.1602  0.0749 -1.8808
  657MOL0     H88645   7.025   9.295   4.640  0.7966  0.8252 -0.0834
  657MOL0     H88646   7.180   9.494   4.616 -0.6440 -0.4295 -0.0218
  657MOL0     H88647   7.309   9.699   4.699 -3.1214 -1.5598  0.0769
  657MOL0     H88648   7.407   9.679   4.847  0.7928 -2.8605  0.2832
  657MOL0     H88649   7.568   9.706   4.693 -3.7944  1.9494  0.1962
  657MOL0     H88650   7.560   9.530   4.743 -1.6578 -0.0581 -0.4875
  657MOL0     H88651   7.490   9.664   4.480 -2.5863  2.2840  3.8205
  657MOL0     H88652   7.398   9.519   4.515  0.2521 -0.9162  0.7029
  657MOL0     H88653   7.587   9.391   4.555  4.0748 -0.5345  1.4078
  657MOL0     H88654   7.700   9.508   4.531 -1.1479 -1.0066  2.1311
  657MOL0     H88655   7.590   9.705   4.214 -0.6896 -0.8504 -0.0834
  657MOL0     H88656   7.754   9.804   4.076 -1.7254  0.2917  0.7623
  657MOL0     H88657   8.194   9.563   3.780 -2.7006  0.6457  2.5668
  657MOL0     H88658   8.417   9.568   3.691 -2.7523  0.1803 -0.6650
  657MOL0     H88659   8.725   9.884   3.840  4.1970 -0.2025  2.9581
  657MOL0     H88660   8.733   9.745   3.947 -1.3781  0.3833 -0.2631
  657MOL0     H88661   8.867   9.630   3.810 -3.2097 -1.0157  1.0928
  657MOL0     H88662   8.840   9.741   3.670 -2.4211 -0.2498  0.7645
  657MOL0     H88663   8.957   9.912   3.804  0.1490 -0.7902 -1.5666
  657MOL0     H88664   8.999   9.794   3.930 -4.1713 -1.4510  0.9894
  657MOL0     H88665   9.066   9.754   3.631  0.4607  0.1784  0.1510
  657MOL0     H88666   9.133   9.674   3.764  0.1309 -0.6473 -1.7539
  657MOL0     H88667   9.222   9.904   3.851 -1.4057 -0.3796 -0.0984
  657MOL0     H88668   9.176   9.981   3.705 -0.9640 -0.9424 -0.4288
  657MOL0     H88669   9.373   9.733   3.698 -2.6853 -1.6688 -1.2697
  657MOL0     H88670   9.313   9.836   3.574  0.1348 -2.2156  0.1199
  657MOL0     H88671   9.459   9.932   3.822  2.8117 -2.3548 -0.0172
  657MOL0     H88672   9.400  10.041   3.687 -5.4148 -1.8337 -5.4246
  657MOL0     H88673   9.576   9.817   3.597  1.9875  0.3311 -0.9570
  657MOL0     H88674   9.586   9.996   3.566 -0.8425 -1.5216 -1.6355
  657MOL0     H88675   8.534   9.839   4.001 -1.6418 -0.6486  3.5101
  657MOL0     H88676   8.316   9.795   4.112 -1.3682  2.3575  0.0507
  657MOL0     H88677   8.032   9.503   4.220  0.3961  0.7006  2.3342
  657MOL0     H88678   7.858   9.396   4.350  0.3748 -1.7363 -0.5447
  657MOL0     H88679   6.166   9.083   5.406  0.3122  0.5255 -0.3274
  657MOL0     H88680   5.952   9.027   5.479  2.7191 -0.6641  1.2921
  657MOL0     H88681   5.441   9.041   5.445  1.9858 -0.9217 -3.2222
  657MOL0     H88682   5.225   8.912   5.488  0.5566 -0.0132  0.7400
  657MOL0     H88683   5.059   8.790   5.558 -1.4631  0.8677 -0.4181
  657MOL0     H88684   4.987   8.640   5.496 -3.8009  2.6080 -1.6174
  657MOL0     H88685   5.081   8.689   5.273 -1.0432 -1.3637 -0.3812
  657MOL0     H88686   5.068   8.868   5.324  0.1171 -0.1563  0.6568
  657MOL0     H88687   4.848   8.845   5.251 -4.4230 -2.8892 -0.3647
  657MOL0     H88688   4.839   8.779   5.408  2.2969 -2.7452  1.0951
  657MOL0     H88689   4.851   8.548   5.320  0.5048  0.0386 -0.0003
  657MOL0     H88690   4.718   8.634   5.241 -0.2369 -1.0507 -0.3953
  657MOL0     H88691   4.953   8.603   4.911 -0.3314 -1.2921  0.5945
  657MOL0     H88692   5.431   8.545   5.439  2.7599  0.4036 -0.0225
  657MOL0     H88693   5.654   8.517   5.456 -1.5483  0.1504 -0.1155
  657MOL0     H88694   5.704   8.619   5.315 -2.0447  4.3322 -0.3000
  657MOL0     H88695   5.756   8.654   5.494  0.0215 -1.1137  1.8397
  658MOL0     O88696   0.182   8.747   1.148 -0.2257 -0.4966 -0.4317
  658MOL0     C88697   0.257   8.703   1.234 -0.9717  0.1749 -0.0410
  658MOL0     O88698   0.224   8.678   1.364 -0.1802 -0.2190  0.0452
  658MOL0     C88699   0.095   8.672   1.395 -0.6793 -0.2421  0.5403
  658MOL0     C88700   0.042   8.553   1.424  1.2199  0.0430  0.3073
  658MOL0     C88701  -0.096   8.531   1.443 -0.1584 -0.4552  0.2836
  658MOL0     C88702  -0.182   8.647   1.457 -0.6321  0.2695 -0.3427
  658MOL0     O88703  -0.320   8.654   1.458  0.1845  0.3376 -0.2530
  658MOL0     C88704  -0.384   8.524   1.464  0.0137  0.2374 -0.5694
  658MOL0     C88705  -0.533   8.530   1.472 -0.0033 -0.0416  0.5199
  658MOL0     C88706  -0.598   8.393   1.463  0.7165  0.3708 -0.9528
  658MOL0     C88707  -0.748   8.405   1.450 -0.6972 -0.1090  0.3174
  658MOL0     C88708  -0.803   8.275   1.409 -0.1433  0.0860 -0.1683
  658MOL0     C88709  -0.943   8.290   1.353  0.5351 -0.0763  1.1059
  658MOL0     C88710  -0.991   8.156   1.285  0.0093 -0.8114 -0.1225
  658MOL0     C88711  -1.116   8.190   1.207  0.3151  0.5510 -0.0776
  658MOL0     N88712  -1.179   8.068   1.153  0.2398 -0.1316  0.3298
  658MOL0     C88713  -1.224   8.060   1.026 -0.2452  0.0767  0.2050
  658MOL0     C88714  -1.301   7.959   1.010 -0.3364 -0.4828  0.0184
  658MOL0     C88715  -1.358   7.901   0.886  0.7832 -0.3735  1.0258
  658MOL0     C88716  -1.487   7.817   0.906 -0.2433  0.5729 -0.2009
  658MOL0     C88717  -1.612   7.881   0.971  0.5878 -0.8216 -0.4404
  658MOL0     C88718  -1.667   7.996   0.889 -0.1669 -0.1916  0.8038
  658MOL0     O88719  -1.697   7.933   0.764 -0.9593 -1.2689 -0.3683
  658MOL0     C88720  -1.778   7.998   0.679  0.0476  0.3046 -0.2958
  658MOL0     C88721  -1.886   7.939   0.623  0.6392  0.0332  0.3659
  658MOL0     C88722  -1.976   8.001   0.533  0.4038 -0.1805 -1.2324
  658MOL0     C88723  -1.956   8.134   0.503  0.4288 -0.2176  0.2684
  658MOL0     C88724  -2.050   8.201   0.419 -0.3426 -0.1820  0.5509
  658MOL0     O88725  -2.065   8.339   0.432  0.3059 -0.3640  0.1299
  658MOL0     C88726  -2.134   8.411   0.338  0.3225  0.0812  0.0868
  658MOL0     C88727  -2.200   8.525   0.386  0.0722 -0.3064 -1.1064
  658MOL0     C88728  -2.290   8.600   0.302 -0.0091 -0.5074  0.8246
  658MOL0     C88729  -2.299   8.555   0.164 -0.0520 -1.4318 -0.0440
  658MOL0     O88730  -2.385   8.616   0.072  0.4178 -0.4853 -0.5011
  658MOL0     C88731  -2.490   8.709   0.114  0.2676  0.1091  0.2741
  658MOL0     C88732  -2.592   8.714   0.008 -0.2094  0.2350  0.8822
  658MOL0     C88733  -2.654   8.573  -0.021 -0.2932 -0.3776  0.2859
  658MOL0     C88734  -2.760   8.582  -0.125 -0.4133 -0.1120 -0.3747
  658MOL0     C88735  -2.823   8.443  -0.139 -0.0302 -0.1054  0.2593
  658MOL0     C88736  -2.923   8.439  -0.248 -0.2150 -0.4640  0.7411
  658MOL0     C88737  -2.970   8.292  -0.262  0.6233 -0.1533  0.1505
  658MOL0     C88738  -3.091   8.281  -0.357 -0.7281 -0.3134  1.3242
  658MOL0    Cl88739  -3.044   8.339  -0.531  0.0630 -0.1299  0.2768
  658MOL0     C88740  -2.229   8.450   0.117 -0.8250  0.2000 -0.3774
  658MOL0     C88741  -2.137   8.385   0.199  0.3413  0.2439 -0.1641
  658MOL0     O88742  -2.108   8.134   0.330  0.2117  0.3199 -0.6277
  658MOL0     C88743  -1.844   8.197   0.568  0.7834 -0.4052 -0.5953
  658MOL0     C88744  -1.750   8.126   0.639  0.5605  0.4429 -0.5596
  658MOL0     N88745  -1.318   7.893   1.132  0.6684 -0.7298  0.3521
  658MOL0     N88746  -1.247   7.959   1.217  0.0557 -0.4932  0.1576
  658MOL0     C88747  -0.114   8.773   1.439  0.7357 -0.9855  0.4467
  658MOL0     C88748   0.020   8.788   1.411  0.4481  0.3500  0.0006
  658MOL0     C88749   0.399   8.682   1.198  0.0826  0.2989 -0.3604
  658MOL0     C88750   0.479   8.787   1.147 -0.4479 -0.7327  0.0933
  658MOL0     C88751   0.615   8.769   1.112  0.6799 -0.2815 -0.2092
  658MOL0     C88752   0.675   8.649   1.128 -0.8982  0.8117 -0.2442
  658MOL0     O88753   0.810   8.632   1.111 -0.1303  0.6139  0.2699
  658MOL0     C88754   0.884   8.712   1.025  0.4118  0.2107  0.3994
  658MOL0     C88755   0.844   8.700   0.871  0.6187  0.0505 -0.4977
  658MOL0     C88756   0.909   8.573   0.804 -0.0833  0.0029 -0.4849
  658MOL0     C88757   0.903   8.563   0.657 -0.1728 -0.5154  0.3123
  658MOL0     C88758   0.974   8.679   0.596  0.6590 -0.3546 -1.1497
  658MOL0     C88759   1.021   8.771   0.535  0.2731  0.4540  0.5878
  658MOL0     C88760   0.596   8.537   1.172 -0.8736  0.3700  0.3948
  658MOL0     C88761   0.459   8.557   1.208 -0.8524  0.2276 -0.3020
  658MOL0     C88762   0.390   8.441   1.283  0.3897 -0.8756  0.0769
  658MOL0     H88763   0.121   8.479   1.423 -0.3614 -1.7378  0.7529
  658MOL0     H88764  -0.132   8.429   1.435  0.0049 -0.3929 -1.7474
  658MOL0     H88765  -0.353   8.457   1.383  0.7110  0.5120 -0.5369
  658MOL0     H88766  -0.351   8.467   1.552 -0.2098 -1.1966 -1.3915
  658MOL0     H88767  -0.574   8.589   1.389 -1.6223  0.0209  1.3191
  658MOL0     H88768  -0.564   8.590   1.558  2.1069  1.6415  0.2038
  658MOL0     H88769  -0.582   8.336   1.555  0.5006  0.7337 -0.6887
  658MOL0     H88770  -0.554   8.340   1.377 -0.5724 -1.2122 -0.7000
  658MOL0     H88771  -0.786   8.443   1.545 -2.7089 -1.2897  0.0381
  658MOL0     H88772  -0.779   8.480   1.376 -1.9054 -1.0108 -0.1125
  658MOL0     H88773  -0.736   8.237   1.330  0.7189  2.0123 -0.4066
  658MOL0     H88774  -0.791   8.208   1.495  1.7248 -1.5678 -1.5864
  658MOL0     H88775  -1.008   8.323   1.434  0.6091 -5.2710  3.7305
  658MOL0     H88776  -0.939   8.369   1.278 -0.1679 -1.6776 -0.7028
  658MOL0     H88777  -1.001   8.072   1.355 -0.6627 -0.6888 -0.0602
  658MOL0     H88778  -0.914   8.131   1.212 -2.5170  2.4069 -4.4155
  658MOL0     H88779  -1.186   8.238   1.276  3.4681  2.6929  1.8956
  658MOL0     H88780  -1.091   8.261   1.127 -0.4186  3.9999  2.5430
  658MOL0     H88781  -1.185   8.137   0.960  1.4351 -0.8836  0.0439
  658MOL0     H88782  -1.380   7.976   0.809 -2.6058 -0.8359  1.3997
  658MOL0     H88783  -1.285   7.829   0.849 -3.2658 -4.3835 -0.0467
  658MOL0     H88784  -1.512   7.779   0.806  1.1982 -2.1749  0.3978
  658MOL0     H88785  -1.459   7.735   0.973  0.0395 -0.9127 -2.0508
  658MOL0     H88786  -1.589   7.924   1.068  1.3534  1.0728 -1.4052
  658MOL0     H88787  -1.687   7.806   0.999 -0.1721  0.4297  1.0201
  658MOL0     H88788  -1.607   8.086   0.874 -2.6258  1.1612 -1.9713
  658MOL0     H88789  -1.761   8.028   0.934 -1.1946 -1.1420 -0.5756
  658MOL0     H88790  -1.913   7.835   0.643 -1.5903  0.4010 -0.4206
  658MOL0     H88791  -2.057   7.937   0.497 -1.1628  1.1811 -0.2750
  658MOL0     H88792  -2.186   8.553   0.490 -0.8338 -0.3777 -0.9531
  658MOL0     H88793  -2.347   8.688   0.330 -1.0263 -1.4312  1.7373
  658MOL0     H88794  -2.547   8.686   0.204 -2.2369  2.6827 -0.5127
  658MOL0     H88795  -2.452   8.811   0.127  0.9921 -0.3475  1.9698
  658MOL0     H88796  -2.676   8.783   0.025 -0.1532  1.0384 -1.6710
  658MOL0     H88797  -2.550   8.759  -0.083  0.0310  0.7923  1.2659
  658MOL0     H88798  -2.573   8.504  -0.049  1.6749  0.2023  3.8684
  658MOL0     H88799  -2.696   8.523   0.066  0.9444 -1.0379  0.5390
  658MOL0     H88800  -2.709   8.618  -0.214  1.0828 -2.2989 -0.4511
  658MOL0     H88801  -2.837   8.654  -0.092  0.7037 -0.5340  3.7267
  658MOL0     H88802  -2.867   8.415  -0.044  1.1904  1.1772  1.2600
  658MOL0     H88803  -2.746   8.370  -0.166 -0.4143 -1.5135  2.7234
  658MOL0     H88804  -3.003   8.506  -0.216  0.6381  2.2371 -2.1820
  658MOL0     H88805  -2.883   8.466  -0.346 -0.8040 -3.9605 -0.6310
  658MOL0     H88806  -2.999   8.274  -0.159  3.2975 -0.2382  0.9474
  658MOL0     H88807  -2.888   8.224  -0.287 -1.5642 -2.4582 -1.3110
  658MOL0     H88808  -3.130   8.181  -0.376  2.4710 -1.4536  0.2110
  658MOL0     H88809  -3.173   8.345  -0.321 -0.5569 -0.3366  1.7525
  658MOL0     H88810  -2.253   8.418   0.016  2.2043 -0.5395 -0.9610
  658MOL0     H88811  -2.072   8.308   0.158 -2.2748 -1.1663 -1.9743
  658MOL0     H88812  -1.829   8.303   0.549 -0.5485  0.0635  0.7518
  658MOL0     H88813  -1.663   8.173   0.684 -1.9934  3.2777  1.9472
  658MOL0     H88814  -0.169   8.866   1.451  4.3122  1.1259  2.3842
  658MOL0     H88815   0.064   8.885   1.394 -1.2964  0.9328 -1.4523
  658MOL0     H88816   0.434   8.883   1.123 -1.7750 -1.2249  0.5425
  658MOL0     H88817   0.661   8.856   1.068 -0.7048  0.1656 -0.8347
  658MOL0     H88818   0.990   8.687   1.038  0.4059 -2.5506 -3.1132
  658MOL0     H88819   0.875   8.818   1.048  1.0476  0.0677  1.3780
  658MOL0     H88820   0.887   8.789   0.823  3.5563 -0.7783  0.3703
  658MOL0     H88821   0.736   8.711   0.863  0.3841 -1.7298 -0.1745
  658MOL0     H88822   0.854   8.488   0.845 -1.7629  1.4526  0.4433
  658MOL0     H88823   1.013   8.564   0.835 -0.8772 -0.3959  2.3561
  658MOL0     H88824   0.951   8.468   0.629 -2.9688 -1.4410 -1.8869
  658MOL0     H88825   0.802   8.550   0.618 -1.0620  1.9225  1.6276
  658MOL0     H88826   1.059   8.851   0.475  0.2348  1.2479  1.5790
  658MOL0     H88827   0.639   8.443   1.207 -0.2869  0.4712 -0.0565
  658MOL0     H88828   0.286   8.422   1.254  0.8562 -3.3651 -0.1930
  658MOL0     H88829   0.449   8.349   1.279 -0.9296 -1.8177  1.2212
  658MOL0     H88830   0.387   8.469   1.389  1.0989 -2.5133  0.5593
  659MOL0     O88831   6.156   8.235   9.010 -0.1243 -0.8298  0.5730
  659MOL0     C88832   6.044   8.205   9.054 -0.4236  0.0308 -0.5825
  659MOL0     O88833   6.024   8.147   9.176  0.6500  0.5544 -0.3375
  659MOL0     C88834   6.136   8.114   9.250  0.6683 -0.2347  0.2989
  659MOL0     C88835   6.146   7.980   9.296 -0.4897 -0.6128 -0.1692
  659MOL0     C88836   6.259   7.936   9.373  0.6164  0.0474  0.1663
  659MOL0     C88837   6.359   8.030   9.412 -0.2496  0.5365 -0.7378
  659MOL0     O88838   6.477   7.995   9.477 -0.4911 -0.3797 -0.1703
  659MOL0     C88839   6.527   7.859   9.472 -0.5833  0.2540 -0.6515
  659MOL0     C88840   6.676   7.864   9.437 -0.2239  0.9227 -1.3090
  659MOL0     C88841   6.745   7.730   9.478 -0.2492 -0.6458 -0.4026
  659MOL0     C88842   6.894   7.703   9.451 -0.5244  0.3226  0.0272
  659MOL0     C88843   6.952   7.577   9.521 -0.4181 -0.1711 -0.5425
  659MOL0     C88844   6.954   7.602   9.679 -0.1772 -0.0030 -0.4266
  659MOL0     C88845   7.006   7.474   9.751  0.7582  0.7412 -0.7483
  659MOL0     C88846   7.153   7.449   9.725  0.5133  0.0318 -0.2830
  659MOL0     N88847   7.233   7.373   9.815  0.1919  0.1697 -0.4114
  659MOL0     C88848   7.334   7.286   9.775  0.6675  0.6567  0.1277
  659MOL0     C88849   7.410   7.275   9.882 -0.0443  0.1915  0.3570
  659MOL0     C88850   7.529   7.188   9.896  1.0696 -0.4698 -0.2180
  659MOL0     C88851   7.655   7.274   9.932  0.6794 -0.6858  0.0741
  659MOL0     C88852   7.768   7.181   9.980  0.4914 -0.8340 -0.6718
  659MOL0     C88853   7.877   7.272  10.047 -0.0132  0.3973  0.4535
  659MOL0     O88854   7.988   7.178  10.053  0.0216 -0.5327  0.1967
  659MOL0     C88855   8.104   7.224  10.111 -0.1224  0.5080 -0.3118
  659MOL0     C88856   8.207   7.137  10.143 -0.5876  1.2275 -0.4691
  659MOL0     C88857   8.332   7.176  10.199 -0.1467 -0.3895 -0.7254
  659MOL0     C88858   8.342   7.307  10.241  0.4233 -0.1284  0.7681
  659MOL0     C88859   8.468   7.350  10.302 -0.1107  0.3845  1.1007
  659MOL0     O88860   8.470   7.484  10.337 -0.3749 -0.0321 -0.0324
  659MOL0     C88861   8.566   7.541  10.419 -0.3183 -0.0461 -0.0777
  659MOL0     C88862   8.585   7.682  10.388 -0.9140 -0.1634  1.2714
  659MOL0     C88863   8.693   7.744  10.452 -0.1635  0.2989 -0.2843
  659MOL0     C88864   8.775   7.674  10.547  0.7516 -0.3463  0.7894
  659MOL0     O88865   8.886   7.742  10.599  0.0466 -0.5001 -0.2848
  659MOL0     C88866   8.945   7.670  10.708  0.7442 -0.3270  0.0169
  659MOL0     C88867   9.051   7.754  10.771  0.1696 -0.1645 -0.1382
  659MOL0     C88868   9.150   7.668  10.853 -1.2962 -0.1171  0.3885
  659MOL0     C88869   9.281   7.743  10.903  0.3053 -0.0165 -0.0770
  659MOL0     C88870   9.381   7.650  10.964 -0.0140 -0.5958  0.5232
  659MOL0     C88871   9.521   7.721  10.957 -0.4091 -0.3519 -0.3074
  659MOL0     C88872   9.522   7.853  11.035 -0.1129 -0.3263 -0.2610
  659MOL0     C88873   9.665   7.895  11.062 -0.8208  0.0858  0.8413
  659MOL0    Cl88874   9.744   7.767  11.157 -0.0090  0.1355 -0.0320
  659MOL0     C88875   8.744   7.542  10.576 -0.0366  0.2007 -0.4467
  659MOL0     C88876   8.638   7.480  10.521  0.2025  0.2107  0.4618
  659MOL0     O88877   8.561   7.277  10.303  0.2355  1.3002 -0.0413
  659MOL0     C88878   8.244   7.398  10.199 -0.3359  0.5922 -0.4017
  659MOL0     C88879   8.132   7.355  10.133  0.0064 -0.5207  0.1691
  659MOL0     N88880   7.363   7.361   9.981  0.3838 -0.0947 -1.3811
  659MOL0     N88881   7.251   7.407   9.947  0.4171 -0.7238 -0.5917
  659MOL0     C88882   6.334   8.162   9.387  0.0991  0.4380 -0.8454
  659MOL0     C88883   6.229   8.202   9.312 -0.9376  0.5495  0.1788
  659MOL0     C88884   5.925   8.227   8.981  0.0212 -0.7322  0.3850
  659MOL0     C88885   5.797   8.169   9.031 -0.7143  0.0237 -0.2872
  659MOL0     C88886   5.684   8.183   8.956 -1.3532  0.3065  0.2158
  659MOL0     C88887   5.683   8.248   8.833  0.5228  0.1579  0.1688
  659MOL0     O88888   5.577   8.248   8.743  0.6892 -0.0807 -0.7051
  659MOL0     C88889   5.461   8.186   8.774  0.0451  0.5330 -0.3502
  659MOL0     C88890   5.349   8.220   8.679  0.6618 -0.6072  0.2159
  659MOL0     C88891   5.241   8.120   8.689 -0.3625  0.2077  0.4598
  659MOL0     C88892   5.117   8.137   8.593 -0.1740  0.6871  0.3391
  659MOL0     C88893   5.007   8.039   8.614 -1.1894  0.7178 -0.0784
  659MOL0     C88894   4.927   7.950   8.642  0.3250 -0.0700 -0.2558
  659MOL0     C88895   5.800   8.311   8.789  0.4914 -0.0135  0.0844
  659MOL0     C88896   5.925   8.302   8.859 -0.0015  0.6844  0.2893
  659MOL0     C88897   6.048   8.368   8.804  0.0236 -0.5902 -1.1594
  659MOL0     H88898   6.072   7.910   9.260 -2.2123  0.3646  1.2869
  659MOL0     H88899   6.262   7.834   9.408  1.0273 -0.0462 -0.1298
  659MOL0     H88900   6.502   7.811   9.567  1.1969  1.7767  0.6597
  659MOL0     H88901   6.481   7.798   9.394  1.7316 -0.8442 -1.2546
  659MOL0     H88902   6.721   7.954   9.481 -1.6307  0.4152  1.3481
  659MOL0     H88903   6.679   7.866   9.328 -3.5898 -2.4694 -1.6419
  659MOL0     H88904   6.688   7.640   9.452 -1.6699 -0.6330  2.2831
  659MOL0     H88905   6.734   7.739   9.586 -1.4756  1.8160 -0.6590
  659MOL0     H88906   6.902   7.681   9.344  1.0799  0.1774  0.1413
  659MOL0     H88907   6.962   7.785   9.477  0.5534 -0.8481  1.0609
  659MOL0     H88908   6.892   7.488   9.500 -0.8255 -0.3326  1.1591
  659MOL0     H88909   7.055   7.566   9.484 -0.9189  0.3412 -2.1588
  659MOL0     H88910   7.006   7.690   9.718  1.4417 -0.8795 -0.5379
  659MOL0     H88911   6.851   7.620   9.711  0.1570  1.6697 -0.1758
  659MOL0     H88912   6.947   7.388   9.720 -1.4631  0.7445  2.8706
  659MOL0     H88913   6.988   7.483   9.859  0.5800 -1.2474 -0.5873
  659MOL0     H88914   7.162   7.405   9.625  1.6271  0.1114 -0.2276
  659MOL0     H88915   7.215   7.539   9.728 -0.1755  0.6627 -2.5316
  659MOL0     H88916   7.340   7.240   9.676 -1.9311  0.1335  0.1494
  659MOL0     H88917   7.511   7.111   9.972  3.1594  0.4673  1.3565
  659MOL0     H88918   7.534   7.140   9.798 -4.8806 -0.9080 -0.6234
  659MOL0     H88919   7.672   7.327   9.837 -4.9655 -1.0055 -1.4726
  659MOL0     H88920   7.641   7.352  10.007  1.9586 -0.8838  0.5341
  659MOL0     H88921   7.822   7.130   9.899  2.7762  2.3654 -1.3619
  659MOL0     H88922   7.728   7.111  10.054 -2.0510  2.1606  0.9986
  659MOL0     H88923   7.839   7.321  10.137  0.3117  1.8518 -0.1795
  659MOL0     H88924   7.912   7.349   9.978 -1.4011 -0.4235 -1.2568
  659MOL0     H88925   8.200   7.032  10.120 -0.0677  1.3137 -1.0649
  659MOL0     H88926   8.417   7.110  10.209 -0.6975 -1.0900 -0.6000
  659MOL0     H88927   8.523   7.720  10.308  1.4782 -2.5344 -1.9550
  659MOL0     H88928   8.714   7.845  10.418 -2.0662  0.5334 -0.8810
  659MOL0     H88929   8.869   7.643  10.782 -0.6404 -0.2288 -1.2933
  659MOL0     H88930   8.991   7.584  10.660  3.2211  1.8566 -1.8060
  659MOL0     H88931   9.114   7.798  10.694  1.7930 -0.3984  0.9837
  659MOL0     H88932   9.023   7.834  10.840 -2.8358 -0.7373 -0.5639
  659MOL0     H88933   9.100   7.614  10.934  0.8317 -2.8350  0.0396
  659MOL0     H88934   9.177   7.586  10.785 -0.4265  0.7199 -0.3133
  659MOL0     H88935   9.239   7.826  10.960 -0.7203 -1.1702  0.9036
  659MOL0     H88936   9.321   7.803  10.820 -5.0371  1.4762 -1.9630
  659MOL0     H88937   9.386   7.559  10.904  1.3505 -1.5594  2.0164
  659MOL0     H88938   9.361   7.618  11.066 -0.0912 -2.0020  0.0843
  659MOL0     H88939   9.600   7.651  10.987 -0.8553  0.2010  2.4264
  659MOL0     H88940   9.538   7.749  10.853  1.1668  2.2897  0.5593
  659MOL0     H88941   9.475   7.851  11.133  0.7619  1.4480  0.2168
  659MOL0     H88942   9.468   7.929  10.978 -0.9062  0.0861  0.9986
  659MOL0     H88943   9.717   7.920  10.969 -1.5595  2.4059  0.9863
  659MOL0     H88944   9.669   7.985  11.125 -1.9758 -0.5792  1.9062
  659MOL0     H88945   8.789   7.478  10.651 -0.9858 -0.5549 -0.5033
  659MOL0     H88946   8.612   7.375  10.534 -1.9045  0.5499 -0.4702
  659MOL0     H88947   8.265   7.503  10.220  2.2754 -0.0718  0.7213
  659MOL0     H88948   8.073   7.435  10.089  1.6443  2.6731  3.2687
  659MOL0     H88949   6.399   8.234   9.437 -2.1487  2.8843 -1.2322
  659MOL0     H88950   6.203   8.308   9.317 -1.6712  0.6623 -3.4503
  659MOL0     H88951   5.791   8.120   9.128  1.2450  4.5445  2.4752
  659MOL0     H88952   5.600   8.139   9.009 -0.3733  0.1397  1.6841
  659MOL0     H88953   5.429   8.226   8.871  1.7238 -1.1558  1.0029
  659MOL0     H88954   5.483   8.079   8.778 -0.1272  0.3453 -3.0037
  659MOL0     H88955   5.384   8.208   8.576 -2.4747 -2.1737 -0.8019
  659MOL0     H88956   5.304   8.315   8.709  0.8134 -1.4818  3.5752
  659MOL0     H88957   5.208   8.106   8.792  0.2223 -3.2465  0.3209
  659MOL0     H88958   5.293   8.026   8.670  1.7389  0.9982  2.0587
  659MOL0     H88959   5.063   8.228   8.619 -1.2747  0.8941 -2.4235
  659MOL0     H88960   5.149   8.129   8.489  1.1097  0.9988  0.6884
  659MOL0     H88961   4.861   7.868   8.661  0.4874  0.3807  2.8589
  659MOL0     H88962   5.798   8.356   8.690  2.0881  0.2527  0.1496
  659MOL0     H88963   6.089   8.439   8.876 -0.1530 -2.0198  0.4121
  659MOL0     H88964   6.128   8.297   8.782  1.3182  0.1778  0.7654
  659MOL0     H88965   6.038   8.423   8.710 -0.1285 -0.0322 -0.8177
  660MOL0     O88966   2.755   1.521   0.923 -0.4083 -0.0176  0.6466
  660MOL0     C88967   2.799   1.637   0.901 -0.1211 -0.0252 -1.3895
  660MOL0     O88968   2.723   1.751   0.941  0.2334  0.9031  0.2506
  660MOL0     C88969   2.591   1.748   0.977 -0.2560  0.5242 -0.6236
  660MOL0     C88970   2.556   1.705   1.110 -0.3008 -0.0524 -0.0727
  660MOL0     C88971   2.423   1.714   1.151 -0.4041  0.3229 -0.7065
  660MOL0     C88972   2.323   1.757   1.061 -0.3218 -0.6128 -0.0250
  660MOL0     O88973   2.188   1.756   1.107  0.1876 -0.6134 -0.0877
  660MOL0     C88974   2.087   1.777   1.010 -0.4750 -0.6356  0.8540
  660MOL0     C88975   1.955   1.806   1.081 -0.3783  0.8931  0.0030
  660MOL0     C88976   1.844   1.851   0.987  0.3223 -0.4418  0.1039
  660MOL0     C88977   1.708   1.868   1.060  1.3189 -0.2853  0.3110
  660MOL0     C88978   1.596   1.910   0.966 -0.3730 -0.7026  0.2087
  660MOL0     C88979   1.459   1.891   1.031  0.3428  0.5832 -0.1442
  660MOL0     C88980   1.348   1.938   0.946  0.9207  0.0299  0.1183
  660MOL0     C88981   1.207   1.894   0.979 -0.0718 -0.0283 -0.2966
  660MOL0     N88982   1.112   1.957   0.883 -0.1894  0.5245  0.2138
  660MOL0     C88983   1.068   2.085   0.899 -0.3540  0.3037 -0.3670
  660MOL0     C88984   0.992   2.111   0.789 -0.2741 -0.0466 -0.8515
  660MOL0     C88985   0.926   2.242   0.759 -0.8923  0.0270 -0.0598
  660MOL0     C88986   0.773   2.242   0.773  0.4841 -0.2315 -0.5054
  660MOL0     C88987   0.697   2.138   0.675  0.0660 -0.9100 -0.2101
  660MOL0     C88988   0.543   2.172   0.660  0.4263 -0.5669 -0.2015
  660MOL0     O88989   0.493   2.165   0.798 -0.4653 -0.2258  0.3017
  660MOL0     C88990   0.370   2.204   0.826  0.8377  0.4500  0.1510
  660MOL0     C88991   0.331   2.165   0.950  0.2931 -0.5925 -0.2969
  660MOL0     C88992   0.199   2.205   0.989  0.3851  0.0609 -0.7294
  660MOL0     C88993   0.105   2.263   0.905  0.4853  0.6099  0.1889
  660MOL0     C88994  -0.035   2.280   0.949  0.8813  0.6053 -0.5759
  660MOL0     O88995  -0.122   2.332   0.860 -0.5717 -0.0718 -0.0454
  660MOL0     C88996  -0.238   2.375   0.915 -0.0133  0.3263 -0.0315
  660MOL0     C88997  -0.241   2.479   0.998 -0.5343 -0.4341  0.6107
  660MOL0     C88998  -0.356   2.524   1.054 -0.0323  0.2711  0.3082
  660MOL0     C88999  -0.477   2.463   1.024  0.7977 -0.1159  1.0579
  660MOL0     O89000  -0.592   2.500   1.092 -0.3382  0.9157  0.7522
  660MOL0     C89001  -0.724   2.440   1.053 -0.3727  0.1032  0.7607
  660MOL0     C89002  -0.845   2.521   1.080  0.6971  1.4714 -0.3710
  660MOL0     C89003  -0.970   2.435   1.039 -0.2335 -0.3989 -0.6796
  660MOL0     C89004  -1.094   2.517   1.064  0.3737  0.1932 -0.7583
  660MOL0     C89005  -1.163   2.514   1.204  0.0345 -0.3411  0.6717
  660MOL0     C89006  -1.292   2.611   1.183 -0.3507  0.5324 -0.0005
  660MOL0     C89007  -1.363   2.630   1.315  0.2113  0.3362 -0.4614
  660MOL0     C89008  -1.490   2.701   1.300 -0.1626 -0.9116  0.6762
  660MOL0    Cl89009  -1.613   2.591   1.207  0.2748 -0.4929  0.4381
  660MOL0     C89010  -0.479   2.358   0.938 -0.0536 -0.2354 -0.0359
  660MOL0     C89011  -0.359   2.318   0.879  0.4018 -0.3461 -0.1824
  660MOL0     O89012  -0.063   2.260   1.070 -0.3315  0.2790  1.0505
  660MOL0     C89013   0.143   2.282   0.771  0.3144 -0.0971  0.4344
  660MOL0     C89014   0.273   2.252   0.731 -0.4869 -0.5351  0.0599
  660MOL0     N89015   1.006   2.011   0.703 -0.2737 -0.0001  0.0415
  660MOL0     N89016   1.088   1.927   0.757  0.1665 -0.1580 -0.2539
  660MOL0     C89017   2.359   1.808   0.931 -0.0766  0.2347 -0.1396
  660MOL0     C89018   2.492   1.789   0.886 -0.2777 -0.3131  0.0764
  660MOL0     C89019   2.942   1.659   0.890  0.0942  0.1827 -0.8522
  660MOL0     C89020   2.970   1.777   0.824  0.0208 -0.0592 -0.1466
  660MOL0     C89021   3.106   1.815   0.804  0.8606 -0.1589 -0.6280
  660MOL0     C89022   3.211   1.745   0.860  0.2108  0.5367 -0.5600
  660MOL0     O89023   3.348   1.773   0.847  0.8021 -0.0744  0.5098
  660MOL0     C89024   3.390   1.897   0.794  0.2053 -0.0948 -0.1674
  660MOL0     C89025   3.539   1.915   0.794  0.1535  0.2478  0.6756
  660MOL0     C89026   3.578   2.058   0.745  0.6477 -0.0333 -0.3455
  660MOL0     C89027   3.719   2.082   0.792 -0.4457  0.4186  0.1078
  660MOL0     C89028   3.785   2.199   0.726 -0.8766  0.1298  0.1147
  660MOL0     C89029   3.844   2.296   0.692  0.7791 -0.5222 -0.0297
  660MOL0     C89030   3.174   1.622   0.922 -0.0915 -0.6157 -0.0161
  660MOL0     C89031   3.044   1.580   0.937 -0.0585 -0.6506 -0.5372
  660MOL0     C89032   3.022   1.447   0.999 -0.6456  0.8976 -0.2900
  660MOL0     H89033   2.629   1.656   1.174 -2.0985 -3.3606 -0.2940
  660MOL0     H89034   2.374   1.697   1.246  3.7267  0.4754  1.7069
  660MOL0     H89035   2.112   1.871   0.961  2.9750 -1.7343  0.2136
  660MOL0     H89036   2.075   1.691   0.944  2.6294  1.1186 -2.3767
  660MOL0     H89037   1.974   1.869   1.168 -1.6401 -1.6732  2.2860
  660MOL0     H89038   1.921   1.721   1.142  2.6385 -1.9987 -1.9916
  660MOL0     H89039   1.835   1.788   0.898 -0.3289  0.8833 -0.7897
  660MOL0     H89040   1.872   1.946   0.942  0.7502 -0.1068  1.0321
  660MOL0     H89041   1.680   1.768   1.094 -1.4788  1.1769  2.8651
  660MOL0     H89042   1.709   1.923   1.155  3.4685 -1.2267  0.8910
  660MOL0     H89043   1.610   2.006   0.916 -0.0985 -1.2778 -0.8599
  660MOL0     H89044   1.591   1.829   0.892 -0.0289 -3.0677  2.6074
  660MOL0     H89045   1.450   1.783   1.048  4.9646 -0.4110 -2.3419
  660MOL0     H89046   1.456   1.938   1.130  2.4092  2.0548 -0.7160
  660MOL0     H89047   1.367   1.903   0.844  0.9006  2.7460 -0.9170
  660MOL0     H89048   1.343   2.047   0.939  1.0001 -0.0612 -2.6094
  660MOL0     H89049   1.203   1.787   0.959  0.7365  0.3968 -3.1654
  660MOL0     H89050   1.179   1.925   1.080 -2.6188 -1.3287 -0.5091
  660MOL0     H89051   1.077   2.139   0.993 -1.3056 -2.2267  1.2700
  660MOL0     H89052   0.969   2.325   0.816  1.3720  0.5420 -2.3693
  660MOL0     H89053   0.961   2.277   0.662 -0.7897  1.4825  0.4825
  660MOL0     H89054   0.755   2.211   0.877 -0.0838 -0.7228 -0.7461
  660MOL0     H89055   0.736   2.343   0.755 -3.4816 -1.0709  1.6725
  660MOL0     H89056   0.690   2.034   0.708 -3.8751 -0.8766 -0.4612
  660MOL0     H89057   0.732   2.152   0.573 -0.1734  0.5803 -0.1089
  660MOL0     H89058   0.501   2.097   0.592  0.0114  0.1239 -0.7313
  660MOL0     H89059   0.517   2.263   0.604 -0.6640 -1.6813 -1.5753
  660MOL0     H89060   0.397   2.101   1.008  0.4388  0.1586  0.3792
  660MOL0     H89061   0.168   2.178   1.089  0.3208 -2.9398 -1.4616
  660MOL0     H89062  -0.155   2.544   1.015  0.6955 -1.6429 -0.6986
  660MOL0     H89063  -0.366   2.604   1.127 -1.2438 -0.9157  1.4874
  660MOL0     H89064  -0.715   2.415   0.947 -0.5358 -3.0573  1.3997
  660MOL0     H89065  -0.731   2.344   1.104  2.2155 -0.6763 -0.1989
  660MOL0     H89066  -0.836   2.558   1.182 -0.4734  0.6786  0.0409
  660MOL0     H89067  -0.837   2.613   1.020  0.4825  1.9646  0.3400
  660MOL0     H89068  -0.958   2.399   0.936  1.9977 -0.0341 -0.5975
  660MOL0     H89069  -0.973   2.348   1.104  1.2551  1.1488  1.5829
  660MOL0     H89070  -1.163   2.501   0.981  0.0550  4.1644 -1.4724
  660MOL0     H89071  -1.053   2.619   1.057 -0.1094  0.3655 -1.1177
  660MOL0     H89072  -1.092   2.562   1.271 -0.4213 -0.3810  1.1930
  660MOL0     H89073  -1.179   2.414   1.246  2.3341 -1.4888 -1.0046
  660MOL0     H89074  -1.258   2.712   1.157  1.9995  0.6129  2.8697
  660MOL0     H89075  -1.359   2.563   1.111  0.0466 -0.7450  0.4532
  660MOL0     H89076  -1.301   2.690   1.382 -1.0821  0.8108  0.3359
  660MOL0     H89077  -1.370   2.534   1.366 -0.3390 -0.6554 -2.3131
  660MOL0     H89078  -1.526   2.713   1.403  0.6171 -0.6063  0.9196
  660MOL0     H89079  -1.473   2.800   1.256  0.6632  0.0529  3.0197
  660MOL0     H89080  -0.566   2.297   0.916  1.2327 -2.2346  0.1355
  660MOL0     H89081  -0.368   2.237   0.808  1.9695  0.7282 -1.6643
  660MOL0     H89082   0.079   2.333   0.699  0.8751 -0.8884 -0.6461
  660MOL0     H89083   0.298   2.299   0.636  1.3140 -0.2116  0.6579
  660MOL0     H89084   2.288   1.859   0.866 -0.9638  0.3872  0.9153
  660MOL0     H89085   2.529   1.812   0.786 -1.7127  0.3502 -0.3225
  660MOL0     H89086   2.905   1.849   0.776 -1.1620 -1.9447 -1.5340
  660MOL0     H89087   3.132   1.909   0.756 -1.2135  1.2551  0.8613
  660MOL0     H89088   3.351   1.980   0.854 -0.7621  0.4666 -1.4944
  660MOL0     H89089   3.346   1.910   0.694  3.3463  1.9061 -1.4436
  660MOL0     H89090   3.576   1.844   0.719 -0.6813  1.2452 -0.7347
  660MOL0     H89091   3.577   1.909   0.896  1.0455  1.3914  0.4295
  660MOL0     H89092   3.515   2.130   0.797  0.8606 -1.0232  1.3909
  660MOL0     H89093   3.568   2.061   0.637 -3.6584  5.0791 -0.2004
  660MOL0     H89094   3.714   2.090   0.901 -0.0603  1.2025  0.0794
  660MOL0     H89095   3.777   1.995   0.760  1.5417  1.7030  0.0465
  660MOL0     H89096   3.893   2.384   0.654  1.0828 -1.8532 -3.0627
  660MOL0     H89097   3.254   1.564   0.968 -0.6201  0.3074  2.2242
  660MOL0     H89098   2.939   1.448   1.070 -0.3997  0.5130  0.0071
  660MOL0     H89099   2.994   1.390   0.910  1.8353  1.6398 -1.6425
  660MOL0     H89100   3.105   1.401   1.052 -0.2869  1.2660 -0.5264
  661MOL0     O89101   1.552  10.866   8.370 -0.0831 -0.4926 -0.0800
  661MOL0     C89102   1.469  10.782   8.332 -0.3718 -0.2571 -0.3630
  661MOL0     O89103   1.438  10.762   8.202  0.2310  0.0022  0.0204
  661MOL0     C89104   1.525  10.811   8.106  0.3431 -1.0466 -0.1465
  661MOL0     C89105   1.566  10.718   8.014  0.8945  0.0418  0.3813
  661MOL0     C89106   1.663  10.749   7.923 -0.4180 -0.6560  0.2826
  661MOL0     C89107   1.732  10.874   7.928 -1.0004 -0.8836  0.0994
  661MOL0     O89108   1.846  10.895   7.845 -0.1609  0.0532 -0.7671
  661MOL0     C89109   1.959  10.949   7.914  0.2901  0.4765 -0.4082
  661MOL0     C89110   2.078  10.966   7.817  0.0746 -0.4094  1.4522
  661MOL0     C89111   2.054  11.072   7.698  0.1554 -0.8504 -0.7884
  661MOL0     C89112   2.182  11.158   7.683 -0.2599  0.5933  0.7246
  661MOL0     C89113   2.173  11.252   7.563 -0.2400 -0.8584  0.9977
  661MOL0     C89114   2.316  11.291   7.525 -0.5289  0.0332  0.9481
  661MOL0     C89115   2.315  11.387   7.404  0.5465 -0.2295  0.5391
  661MOL0     C89116   2.451  11.466   7.403  0.5158  0.0129 -0.2180
  661MOL0     N89117   2.561  11.383   7.366 -0.6084  1.0505 -0.4609
  661MOL0     C89118   2.631  11.304   7.455 -0.1378  0.0573  0.0402
  661MOL0     C89119   2.718  11.239   7.373 -0.4880  0.6736  0.0697
  661MOL0     C89120   2.809  11.131   7.413 -0.1312 -0.3655 -0.5900
  661MOL0     C89121   2.948  11.163   7.360 -0.1931  0.9558  0.5569
  661MOL0     C89122   3.055  11.052   7.387 -0.1669 -0.0624 -0.4333
  661MOL0     C89123   3.047  11.013   7.538 -0.0150 -0.2876 -0.1717
  661MOL0     O89124   3.151  10.929   7.584  0.1435 -0.0242  0.2021
  661MOL0     C89125   3.282  10.969   7.593  0.0942 -0.6440 -0.4027
  661MOL0     C89126   3.316  11.100   7.623  0.0369  0.2562  0.4974
  661MOL0     C89127   3.451  11.133   7.649 -0.2832  0.1406  0.4905
  661MOL0     C89128   3.556  11.040   7.654  0.5500  0.7282 -0.1457
  661MOL0     C89129   3.695  11.074   7.686  0.2995  0.3401 -0.4537
  661MOL0     O89130   3.772  10.971   7.728 -0.3316 -0.0467  0.3896
  661MOL0     C89131   3.893  10.971   7.795 -0.7037 -0.4707 -0.5158
  661MOL0     C89132   3.942  10.846   7.854 -0.5689 -0.7832  0.6428
  661MOL0     C89133   4.065  10.847   7.915  0.1593  0.3023 -0.3764
  661MOL0     C89134   4.152  10.952   7.927  1.2223  0.2139 -0.2992
  661MOL0     O89135   4.277  10.945   7.979 -0.7681 -0.2098  0.5688
  661MOL0     C89136   4.318  10.822   8.038 -0.1856  0.7794  0.1653
  661MOL0     C89137   4.461  10.817   8.065  0.5025 -0.7440  0.3665
  661MOL0     C89138   4.486  10.886   8.206 -0.2380 -0.5654 -0.1566
  661MOL0     C89139   4.632  10.858   8.237 -0.4650 -0.1332  0.6693
  661MOL0     C89140   4.664  10.952   8.352  0.8899 -0.2998 -0.0017
  661MOL0     C89141   4.803  10.935   8.385 -0.2288  0.6870  0.5100
  661MOL0     C89142   4.831  10.994   8.526 -0.6577 -0.1573 -0.1955
  661MOL0     C89143   4.975  10.977   8.573  0.5803  0.1069  0.2028
  661MOL0    Cl89144   5.024  10.804   8.584 -0.3754  0.0455  0.2343
  661MOL0     C89145   4.100  11.073   7.882 -0.0772  0.0666  0.6434
  661MOL0     C89146   3.977  11.086   7.812 -1.0341 -0.2125  0.2336
  661MOL0     O89147   3.721  11.195   7.690 -0.5581  0.4752  0.9991
  661MOL0     C89148   3.527  10.905   7.621  0.2857  0.4479 -0.6001
  661MOL0     C89149   3.386  10.871   7.591  0.8274  0.1588 -0.2553
  661MOL0     N89150   2.699  11.280   7.242  0.4457  0.6982  0.3681
  661MOL0     N89151   2.606  11.367   7.236  0.5391  0.5260  0.4121
  661MOL0     C89152   1.686  10.980   8.008 -1.0468 -0.1781 -0.8368
  661MOL0     C89153   1.578  10.946   8.100  0.4386 -0.0032 -0.2479
  661MOL0     C89154   1.400  10.696   8.420  0.2317  0.7435  0.7308
  661MOL0     C89155   1.345  10.579   8.367 -0.4627  0.5073  0.0261
  661MOL0     C89156   1.271  10.490   8.447  0.4036 -0.2433 -0.2425
  661MOL0     C89157   1.278  10.506   8.582  0.1536  0.9011  0.2820
  661MOL0     O89158   1.225  10.414   8.669  0.1809 -0.6800  0.7998
  661MOL0     C89159   1.104  10.338   8.648  0.1775  0.0394 -0.0187
  661MOL0     C89160   0.979  10.425   8.645  0.7959 -0.3275  0.1501
  661MOL0     C89161   0.944  10.516   8.764  0.1477  1.0904  0.2105
  661MOL0     C89162   0.983  10.457   8.900 -0.3716 -0.0722 -0.5947
  661MOL0     C89163   0.946  10.532   9.019  0.4894 -0.8619  0.2463
  661MOL0     C89164   0.888  10.597   9.108 -0.0785  0.6055 -0.4045
  661MOL0     C89165   1.343  10.616   8.642 -0.5092  0.9469  0.8313
  661MOL0     C89166   1.399  10.714   8.561 -0.7879  0.1861 -0.3656
  661MOL0     C89167   1.461  10.837   8.630  0.3396  0.7630 -0.1011
  661MOL0     H89168   1.531  10.615   8.008  0.9225  0.1058 -1.3827
  661MOL0     H89169   1.696  10.678   7.848  0.6906 -0.2918  0.4176
  661MOL0     H89170   1.929  11.043   7.960  0.7923  0.9826 -1.0967
  661MOL0     H89171   1.979  10.885   8.001  0.3907 -0.4257 -1.0733
  661MOL0     H89172   2.102  10.869   7.774  2.1625  0.6233  0.1030
  661MOL0     H89173   2.160  11.002   7.880  0.6129 -0.4589  0.7904
  661MOL0     H89174   1.963  11.131   7.710 -1.7810 -4.0433  1.8351
  661MOL0     H89175   2.035  11.020   7.604  0.4732 -2.3596 -0.0430
  661MOL0     H89176   2.217  11.211   7.772 -1.5533  0.1229  1.5445
  661MOL0     H89177   2.264  11.086   7.670  0.5492  1.1711  2.3730
  661MOL0     H89178   2.110  11.196   7.492  0.5089 -0.9869  0.4165
  661MOL0     H89179   2.108  11.332   7.597  0.7972  0.3189  0.2902
  661MOL0     H89180   2.373  11.336   7.606  0.4243 -1.8155  1.3677
  661MOL0     H89181   2.371  11.203   7.489 -1.9694  0.3053 -2.2960
  661MOL0     H89182   2.235  11.458   7.426  1.5147  1.0680 -0.0584
  661MOL0     H89183   2.297  11.319   7.320  1.2591 -1.7925  1.5938
  661MOL0     H89184   2.433  11.536   7.321 -1.4815 -0.0733  0.1122
  661MOL0     H89185   2.473  11.523   7.494  0.8876  1.6396 -1.2802
  661MOL0     H89186   2.633  11.297   7.563 -0.3531  1.6541  0.1699
  661MOL0     H89187   2.816  11.122   7.522 -0.4948  0.3946 -0.4965
  661MOL0     H89188   2.759  11.044   7.369 -2.1507 -0.7798  2.2519
  661MOL0     H89189   2.929  11.158   7.253  0.2646 -4.3371  0.4287
  661MOL0     H89190   2.985  11.263   7.386 -2.2600  0.9727  4.0665
  661MOL0     H89191   3.158  11.086   7.373  0.5496 -1.0946  1.7779
  661MOL0     H89192   3.036  10.964   7.324  1.6667 -0.1948 -0.8574
  661MOL0     H89193   2.955  10.965   7.573  0.6071 -0.3934  1.4111
  661MOL0     H89194   3.054  11.106   7.594  1.2633  0.4229 -1.4543
  661MOL0     H89195   3.251  11.185   7.609  1.3517  1.1943 -0.1011
  661MOL0     H89196   3.456  11.241   7.662 -0.4432  0.3691 -1.2297
  661MOL0     H89197   3.893  10.749   7.848 -0.7858 -0.5837 -2.1875
  661MOL0     H89198   4.091  10.750   7.955  0.6982 -0.5039 -2.5650
  661MOL0     H89199   4.266  10.818   8.134 -0.8217  1.2372 -0.1469
  661MOL0     H89200   4.286  10.743   7.969 -1.6284  1.2137  0.3070
  661MOL0     H89201   4.496  10.714   8.075 -0.6715 -1.4248 -1.9081
  661MOL0     H89202   4.516  10.870   7.987 -2.7813  2.9854  0.2829
  661MOL0     H89203   4.464  10.993   8.192  0.4297 -0.4872 -0.6997
  661MOL0     H89204   4.413  10.855   8.281 -2.5422 -0.1138 -2.0965
  661MOL0     H89205   4.684  10.878   8.144 -2.3714 -3.0029 -1.1614
  661MOL0     H89206   4.656  10.753   8.251  0.5063 -0.2150 -1.3412
  661MOL0     H89207   4.612  10.909   8.439 -0.1327  1.7069  0.4538
  661MOL0     H89208   4.642  11.059   8.347 -1.8380 -0.8133 -0.6253
  661MOL0     H89209   4.832  10.830   8.379 -1.0240  0.5416 -2.6220
  661MOL0     H89210   4.863  10.987   8.310 -1.5438  0.7351 -0.5550
  661MOL0     H89211   4.771  10.945   8.604 -0.5956 -0.0921 -0.1070
  661MOL0     H89212   4.810  11.101   8.530  1.8696  0.3589  2.0185
  661MOL0     H89213   5.046  11.021   8.503 -1.8860  1.8210 -1.3660
  661MOL0     H89214   4.981  11.032   8.668 -0.4558  2.8156 -1.1865
  661MOL0     H89215   4.163  11.162   7.889  1.4122 -1.1065  3.2457
  661MOL0     H89216   3.950  11.179   7.762  1.4719  0.5008  0.0605
  661MOL0     H89217   3.606  10.831   7.621 -0.8769 -0.8826 -2.6990
  661MOL0     H89218   3.346  10.772   7.573  1.1331  0.2111 -1.2881
  661MOL0     H89219   1.731  11.079   8.008  2.1126 -1.4920 -1.1691
  661MOL0     H89220   1.536  11.023   8.164  0.4208  1.7267 -2.2507
  661MOL0     H89221   1.344  10.551   8.262 -1.0344  1.3408 -0.2062
  661MOL0     H89222   1.222  10.407   8.397  1.3828  0.2505 -2.1119
  661MOL0     H89223   1.097  10.265   8.730 -0.1484 -0.1817 -0.2436
  661MOL0     H89224   1.096  10.288   8.551  0.2317 -0.7815  0.3856
  661MOL0     H89225   0.889  10.366   8.625 -0.1713  0.3506  2.2460
  661MOL0     H89226   0.979  10.497   8.562 -1.4234  2.3424  2.2680
  661MOL0     H89227   0.835  10.514   8.758 -0.0400 -3.1652  1.6479
  661MOL0     H89228   0.987  10.616   8.755  3.1702 -0.1849 -1.0252
  661MOL0     H89229   0.944  10.355   8.911  1.6301 -1.0784 -2.2356
  661MOL0     H89230   1.090  10.440   8.912 -0.3858  0.7087  1.0407
  661MOL0     H89231   0.844  10.657   9.185  2.6388 -0.7641  2.4162
  661MOL0     H89232   1.356  10.620   8.749  2.1187  0.6850  0.5861
  661MOL0     H89233   1.415  10.933   8.603  1.2330  1.6038  1.2776
  661MOL0     H89234   1.452  10.833   8.739  2.2457  1.9527  0.1383
  661MOL0     H89235   1.569  10.842   8.617  0.5348 -1.1975  0.5160
  662MOL0     O89236  11.363   6.431   9.453  0.9194 -0.3474 -0.5901
  662MOL0     C89237  11.292   6.427   9.360  0.0110  0.2308  0.5526
  662MOL0     O89238  11.296   6.503   9.242 -0.3172  0.1987 -0.7065
  662MOL0     C89239  11.387   6.604   9.255 -0.6873 -0.4775 -0.3926
  662MOL0     C89240  11.357   6.735   9.305  0.8439 -0.2813  0.5389
  662MOL0     C89241  11.458   6.831   9.313  0.0172 -0.6130  0.6423
  662MOL0     C89242  11.582   6.796   9.275 -0.0959 -0.7894  0.5562
  662MOL0     O89243  11.676   6.903   9.298  0.2240  0.0194  0.1840
  662MOL0     C89244  11.807   6.906   9.243  0.2520 -0.2272 -0.0157
  662MOL0     C89245  11.872   7.019   9.315 -0.1846 -0.3224 -0.0535
  662MOL0     C89246  12.009   7.058   9.259  0.1891  0.4546 -0.1867
  662MOL0     C89247  12.006   7.127   9.114 -0.6580 -0.6664 -0.5979
  662MOL0     C89248  12.145   7.161   9.059 -0.7949  0.6621  0.2645
  662MOL0     C89249  12.125   7.234   8.925  0.0817  1.0419 -0.3211
  662MOL0     C89250  12.266   7.241   8.864  0.2853  0.1018 -0.3576
  662MOL0     C89251  12.277   7.361   8.766 -0.3424  0.7711  0.1482
  662MOL0     N89252  12.418   7.395   8.737  0.3640  0.8273  0.4425
  662MOL0     C89253  12.501   7.346   8.640 -0.9886 -0.4432  0.7215
  662MOL0     C89254  12.619   7.405   8.672  0.2354  0.0947 -0.2648
  662MOL0     C89255  12.748   7.376   8.607 -0.1336  0.4637  0.0255
  662MOL0     C89256  12.779   7.233   8.644 -0.4917  0.0830 -0.6492
  662MOL0     C89257  12.915   7.178   8.588 -0.9156 -0.0568 -0.0010
  662MOL0     C89258  13.035   7.251   8.631 -0.5137  0.1924  0.2346
  662MOL0     O89259  13.144   7.176   8.573  0.3082  0.6594 -0.1328
  662MOL0     C89260  13.248   7.147   8.647 -0.9201  0.5444 -0.7129
  662MOL0     C89261  13.305   7.017   8.651  0.1666  0.0376 -0.0875
  662MOL0     C89262  13.427   6.995   8.724  0.3414  0.8378  0.1015
  662MOL0     C89263  13.494   7.102   8.782 -0.0070 -0.1517 -0.1535
  662MOL0     C89264  13.627   7.079   8.848 -0.5307 -0.2658 -0.3747
  662MOL0     O89265  13.698   7.194   8.890  0.2566  0.4215  0.6745
  662MOL0     C89266  13.827   7.174   8.927  0.5182  0.1380 -0.2781
  662MOL0     C89267  13.922   7.156   8.833  0.8394  0.1743 -0.7385
  662MOL0     C89268  14.053   7.162   8.857 -0.1980 -0.4644 -0.7032
  662MOL0     C89269  14.101   7.185   8.983 -0.3774  0.1878 -0.1731
  662MOL0     O89270  14.238   7.178   8.995  0.3161  0.3216  0.0685
  662MOL0     C89271  14.278   7.154   9.135 -0.1613 -0.9139  0.4306
  662MOL0     C89272  14.417   7.085   9.154  0.1298  0.2586 -0.7857
  662MOL0     C89273  14.530   7.170   9.102 -0.5353  0.7687 -0.2662
  662MOL0     C89274  14.668   7.099   9.132  0.0837 -0.2537 -0.0324
  662MOL0     C89275  14.783   7.168   9.052 -0.5034 -0.3001 -1.1501
  662MOL0     C89276  14.759   7.175   8.900 -0.5845  0.0973 -0.3021
  662MOL0     C89277  14.888   7.243   8.851 -0.5110 -0.1812  0.2715
  662MOL0     C89278  14.895   7.262   8.698  0.0360  0.4645 -0.0579
  662MOL0    Cl89279  15.050   7.334   8.648 -0.2149  0.4429  0.2106
  662MOL0     C89280  14.002   7.208   9.094  0.1717  0.3695  0.0188
  662MOL0     C89281  13.869   7.200   9.061  0.4093  0.3451 -0.2357
  662MOL0     O89282  13.667   6.964   8.869  0.4798  0.3246  0.2442
  662MOL0     C89283  13.435   7.230   8.775 -0.2568  0.0322 -0.8900
  662MOL0     C89284  13.316   7.246   8.711 -0.3384 -0.2365  0.1388
  662MOL0     N89285  12.612   7.489   8.780 -0.3369 -0.1886 -0.3597
  662MOL0     N89286  12.497   7.467   8.825  0.3142 -1.4360 -0.1830
  662MOL0     C89287  11.616   6.676   9.220 -0.4537  0.0376  1.0371
  662MOL0     C89288  11.513   6.580   9.212  0.5427  0.1193 -0.7741
  662MOL0     C89289  11.181   6.331   9.377 -0.0230  0.4223  0.1488
  662MOL0     C89290  11.118   6.289   9.264  1.2151  0.2158 -0.4125
  662MOL0     C89291  11.004   6.208   9.258 -0.2380 -0.2154  0.1354
  662MOL0     C89292  10.959   6.151   9.380  0.6669  0.1179  0.2703
  662MOL0     O89293  10.852   6.075   9.393 -0.2320  0.5919 -0.6851
  662MOL0     C89294  10.739   6.080   9.303  0.0189 -0.7841  0.9190
  662MOL0     C89295  10.631   5.994   9.368  0.1747  0.0940 -0.8804
  662MOL0     C89296  10.582   6.025   9.514  0.6347  0.0196 -0.3458
  662MOL0     C89297  10.499   6.156   9.508 -0.1663  0.7655 -0.5233
  662MOL0     C89298  10.396   6.153   9.619 -0.3090 -0.6976  0.2459
  662MOL0     C89299  10.295   6.152   9.686  0.2353  0.9815  0.3126
  662MOL0     C89300  11.028   6.181   9.494 -0.1949 -0.3946 -0.3212
  662MOL0     C89301  11.130   6.279   9.495  0.0012  1.0898 -1.4608
  662MOL0     C89302  11.175   6.311   9.639 -1.1476 -1.0198  0.3740
  662MOL0     H89303  11.260   6.754   9.351  1.1098 -1.5041  1.6720
  662MOL0     H89304  11.442   6.927   9.361 -0.4958  0.4446 -1.5009
  662MOL0     H89305  11.860   6.813   9.267  0.3487 -1.1673 -3.3428
  662MOL0     H89306  11.803   6.917   9.134 -3.0526  0.1668  0.0631
  662MOL0     H89307  11.874   6.975   9.415  4.0325  0.5473  0.4354
  662MOL0     H89308  11.819   7.114   9.319  3.3873  1.8073  0.8732
  662MOL0     H89309  12.067   6.970   9.229 -1.9394 -1.0097 -0.2391
  662MOL0     H89310  12.062   7.123   9.329 -1.1575  0.2295  1.0937
  662MOL0     H89311  11.949   7.055   9.054  0.8875 -3.9121  1.5639
  662MOL0     H89312  11.958   7.225   9.122  1.9885  0.5848  1.2430
  662MOL0     H89313  12.193   7.231   9.128 -2.0994 -0.5242  2.4896
  662MOL0     H89314  12.201   7.067   9.052 -0.4514  0.8360  0.6182
  662MOL0     H89315  12.061   7.175   8.858  0.9875  0.9738 -1.1581
  662MOL0     H89316  12.079   7.331   8.947  2.3544  2.5958 -1.9133
  662MOL0     H89317  12.309   7.149   8.822  3.2465  0.5670  1.3599
  662MOL0     H89318  12.335   7.262   8.946 -0.3828 -0.7502  0.4415
  662MOL0     H89319  12.215   7.340   8.678 -2.0408  1.8518  1.0197
  662MOL0     H89320  12.226   7.440   8.822 -4.4225 -2.2699  1.1766
  662MOL0     H89321  12.486   7.266   8.568 -0.8520 -1.1586  1.4728
  662MOL0     H89322  12.761   7.403   8.502  1.5483 -2.8745 -0.7457
  662MOL0     H89323  12.824   7.443   8.649  0.8294 -0.0363 -0.8814
  662MOL0     H89324  12.787   7.236   8.753 -0.8371 -2.0409 -0.5211
  662MOL0     H89325  12.701   7.157   8.630 -0.2445 -0.7009  1.8309
  662MOL0     H89326  12.908   7.183   8.479 -4.1759  0.3776  0.1236
  662MOL0     H89327  12.920   7.074   8.620 -4.1076  0.1016  1.4017
  662MOL0     H89328  13.035   7.248   8.740  0.1014  2.0639  0.3338
  662MOL0     H89329  13.031   7.356   8.600  2.8565  1.0595  2.2584
  662MOL0     H89330  13.259   6.934   8.599 -0.7688 -0.2051  1.0841
  662MOL0     H89331  13.465   6.893   8.730 -1.3619  0.1500 -0.4054
  662MOL0     H89332  13.893   7.138   8.730 -1.1449  1.8029 -0.5587
  662MOL0     H89333  14.129   7.152   8.780  1.7045  1.0547  0.8432
  662MOL0     H89334  14.278   7.255   9.176 -2.7875 -0.7595  0.1673
  662MOL0     H89335  14.206   7.094   9.190 -2.7178  1.8518  0.3620
  662MOL0     H89336  14.421   7.077   9.263  0.3924  0.7788 -0.7566
  662MOL0     H89337  14.409   6.986   9.108 -0.4777  0.1027 -0.3697
  662MOL0     H89338  14.512   7.175   8.995 -1.1192 -3.4050 -0.5321
  662MOL0     H89339  14.531   7.270   9.147  0.7256  1.9345 -2.7157
  662MOL0     H89340  14.670   6.997   9.092  1.1340 -0.2673  0.0050
  662MOL0     H89341  14.688   7.103   9.240 -0.2137 -0.3637  0.0273
  662MOL0     H89342  14.873   7.110   9.076 -0.2532  1.6100  3.6721
  662MOL0     H89343  14.779   7.271   9.088 -0.5518  0.7354 -3.8764
  662MOL0     H89344  14.751   7.072   8.865  2.9710 -0.7896  0.9810
  662MOL0     H89345  14.682   7.244   8.867  0.5622  1.2883 -0.5662
  662MOL0     H89346  14.974   7.180   8.873 -1.9746 -2.2265  0.4236
  662MOL0     H89347  14.907   7.341   8.896 -0.6282 -0.0120 -0.0428
  662MOL0     H89348  14.875   7.166   8.649 -2.1345  1.2723 -0.8729
  662MOL0     H89349  14.818   7.334   8.671 -0.8692  0.1425  1.5431
  662MOL0     H89350  14.025   7.225   9.198 -1.3179  1.8876  0.1336
  662MOL0     H89351  13.792   7.224   9.134 -0.1683 -1.5549 -0.1597
  662MOL0     H89352  13.492   7.319   8.799  0.2914 -0.1955 -1.3512
  662MOL0     H89353  13.276   7.346   8.696 -2.4740 -0.7774  1.7800
  662MOL0     H89354  11.716   6.642   9.196 -0.8140  0.7438 -1.8782
  662MOL0     H89355  11.540   6.479   9.182  2.9611  1.0942 -2.1527
  662MOL0     H89356  11.157   6.322   9.168  2.5317 -2.7398 -1.0162
  662MOL0     H89357  10.960   6.171   9.166 -3.3458  0.0422  1.3803
  662MOL0     H89358  10.758   6.036   9.204 -1.5261 -1.5151  0.9114
  662MOL0     H89359  10.709   6.185   9.291 -1.0975 -1.3270 -1.8958
  662MOL0     H89360  10.673   5.893   9.374  1.7924  0.7844  4.6862
  662MOL0     H89361  10.542   6.005   9.305 -0.7596  0.0207  0.3799
  662MOL0     H89362  10.664   6.023   9.586  2.2294 -1.0925 -2.1037
  662MOL0     H89363  10.523   5.944   9.557  1.9506 -0.9378 -0.2956
  662MOL0     H89364  10.550   6.252   9.516  0.4412  0.4054 -0.0037
  662MOL0     H89365  10.438   6.154   9.417 -0.4117  1.2911 -0.3755
  662MOL0     H89366  10.211   6.138   9.751 -0.2826 -2.3578 -0.8972
  662MOL0     H89367  10.996   6.129   9.584 -2.6630 -0.8998 -1.4047
  662MOL0     H89368  11.116   6.390   9.688 -0.6959 -1.9285  2.4895
  662MOL0     H89369  11.176   6.231   9.713 -2.3166  1.1691  2.9474
  662MOL0     H89370  11.278   6.349   9.638 -1.7812  0.8751 -1.4959
  663MOL0     O89371   7.412   9.869  10.131 -0.1172  0.8109  0.4856
  663MOL0     C89372   7.404   9.987  10.095  0.0919  0.8780 -0.8087
  663MOL0     O89373   7.429  10.031   9.967 -0.3739 -0.1041 -0.7001
  663MOL0     C89374   7.467   9.936   9.881 -0.1542 -0.4230  0.4819
  663MOL0     C89375   7.603   9.926   9.841 -0.3323 -0.0241 -0.2546
  663MOL0     C89376   7.647   9.825   9.753 -0.7823  0.2170 -0.1239
  663MOL0     C89377   7.549   9.733   9.698  1.2213 -0.0504  0.5438
  663MOL0     O89378   7.602   9.642   9.605 -0.2158 -0.2938 -0.4654
  663MOL0     C89379   7.590   9.692   9.476  0.0803 -0.1229 -0.0596
  663MOL0     C89380   7.645   9.601   9.376  0.4678  0.1602  0.1331
  663MOL0     C89381   7.625   9.645   9.234 -0.1181 -0.0470 -0.4175
  663MOL0     C89382   7.695   9.778   9.195 -0.2799 -0.6899  0.3061
  663MOL0     C89383   7.843   9.777   9.214  0.3422 -0.5028  0.0613
  663MOL0     C89384   7.917   9.658   9.139  0.1026 -0.1999  0.3629
  663MOL0     C89385   8.055   9.663   9.205 -0.0594  0.1308 -0.2690
  663MOL0     C89386   8.148   9.565   9.141  0.1804  0.4629  0.1029
  663MOL0     N89387   8.261   9.546   9.225 -0.7666 -0.3847  0.4664
  663MOL0     C89388   8.373   9.629   9.239 -0.3412 -0.6072 -0.6398
  663MOL0     C89389   8.462   9.552   9.316 -0.4140  0.1406  0.6735
  663MOL0     C89390   8.601   9.595   9.347  0.0322  0.6105 -0.1188
  663MOL0     C89391   8.632   9.568   9.497 -0.6473  0.4524  0.2207
  663MOL0     C89392   8.738   9.665   9.554 -0.2673  0.2583  0.6600
  663MOL0     C89393   8.868   9.656   9.474  0.2100  0.9928 -0.7376
  663MOL0     O89394   8.978   9.721   9.546  0.2894  0.6578 -0.1368
  663MOL0     C89395   9.105   9.693   9.512  0.8847  0.2972  0.8430
  663MOL0     C89396   9.201   9.703   9.615 -0.3681 -1.0443 -0.2933
  663MOL0     C89397   9.345   9.688   9.597  0.5511  0.0226 -0.7199
  663MOL0     C89398   9.388   9.641   9.466 -0.7369 -0.2215  0.4514
  663MOL0     C89399   9.534   9.617   9.445  0.8936 -0.7173  0.9812
  663MOL0     O89400   9.577   9.567   9.330 -0.1480  0.0570  0.4727
  663MOL0     C89401   9.701   9.517   9.305  0.0569  0.6434  0.0848
  663MOL0     C89402   9.825   9.583   9.319 -0.0549 -1.1056 -0.4892
  663MOL0     C89403   9.945   9.528   9.283  0.0780  0.2308  0.5277
  663MOL0     C89404   9.944   9.398   9.218  0.1829 -0.8392 -0.3081
  663MOL0     O89405  10.066   9.350   9.184 -0.2251 -0.5126 -0.7544
  663MOL0     C89406  10.064   9.216   9.129  0.1010  0.0980  0.5136
  663MOL0     C89407  10.212   9.158   9.130 -0.3178  0.2862 -0.3218
  663MOL0     C89408  10.228   9.044   9.023  0.0702 -0.1732 -0.2345
  663MOL0     C89409  10.244   9.093   8.875 -0.4989  0.4566  0.1246
  663MOL0     C89410  10.232   8.972   8.782  0.0183 -0.3170 -0.3553
  663MOL0     C89411  10.220   9.015   8.631 -0.2312 -0.7065 -0.0497
  663MOL0     C89412  10.204   8.894   8.530  0.9897 -1.0299  0.1579
  663MOL0     C89413  10.249   8.928   8.393 -0.8044 -0.9285 -0.1058
  663MOL0    Cl89414  10.224   8.790   8.286  0.1683  0.1832 -0.2436
  663MOL0     C89415   9.820   9.335   9.204  0.9677  0.0521 -0.0978
  663MOL0     C89416   9.696   9.393   9.239 -0.2744 -1.1504  0.0522
  663MOL0     O89417   9.597   9.641   9.545 -0.3853 -0.1947  0.7111
  663MOL0     C89418   9.295   9.635   9.359  0.8032  0.7802  0.3483
  663MOL0     C89419   9.154   9.654   9.387  0.1909  0.0117 -0.0403
  663MOL0     N89420   8.401   9.425   9.346  0.6179 -0.8791 -1.0938
  663MOL0     N89421   8.283   9.423   9.289  0.0303 -0.6990  0.2316
  663MOL0     C89422   7.415   9.746   9.735 -0.0517 -0.0674  0.3331
  663MOL0     C89423   7.380   9.842   9.825  0.2115  0.3229  0.2230
  663MOL0     C89424   7.354  10.082  10.199 -0.5551 -0.1046  0.2329
  663MOL0     C89425   7.293  10.200  10.153  0.3613 -0.0805  0.8227
  663MOL0     C89426   7.235  10.290  10.249  0.1504  0.9128  0.5618
  663MOL0     C89427   7.244  10.268  10.385 -1.4309  0.1883 -0.0844
  663MOL0     O89428   7.186  10.347  10.484  0.3361 -0.4202 -0.9933
  663MOL0     C89429   7.047  10.331  10.501  0.0882  0.0578  0.3113
  663MOL0     C89430   7.013  10.231  10.619 -0.5172 -0.3864 -0.0237
  663MOL0     C89431   7.053  10.311  10.748  0.4503  0.4873 -0.7851
  663MOL0     C89432   7.169  10.245  10.826  0.1106 -0.2154 -0.0572
  663MOL0     C89433   7.201  10.292  10.957  0.9763  0.0894  0.4701
  663MOL0     C89434   7.214  10.310  11.075 -0.5268 -0.3032  0.3034
  663MOL0     C89435   7.309  10.152  10.432 -0.5761  0.3289 -0.5159
  663MOL0     C89436   7.372  10.062  10.339  0.3297 -0.1733  0.2019
  663MOL0     C89437   7.455   9.943  10.395  0.5866 -0.7048 -0.2183
  663MOL0     H89438   7.675  10.002   9.870  0.3721  0.2938 -2.6149
  663MOL0     H89439   7.743   9.820   9.703  0.4930  1.0294  2.0839
  663MOL0     H89440   7.486   9.710   9.446 -0.9235 -3.4457  0.9327
  663MOL0     H89441   7.645   9.786   9.469  1.2731 -0.6767  1.3172
  663MOL0     H89442   7.595   9.504   9.381  0.6322 -0.0801 -2.1440
  663MOL0     H89443   7.754   9.596   9.388  0.4672  2.9571  2.5357
  663MOL0     H89444   7.516   9.646   9.221 -0.2937 -2.0932  0.5497
  663MOL0     H89445   7.667   9.568   9.169  2.3331  0.6107  0.2994
  663MOL0     H89446   7.677   9.797   9.089 -2.4319  0.0016  0.7521
  663MOL0     H89447   7.651   9.859   9.254 -0.7219  0.2225 -1.2229
  663MOL0     H89448   7.883   9.875   9.186  1.2521 -0.5187  1.2071
  663MOL0     H89449   7.869   9.773   9.321  2.0755  2.5889 -0.1148
  663MOL0     H89450   7.871   9.559   9.139 -1.5362  0.5390  0.2430
  663MOL0     H89451   7.916   9.689   9.034 -0.8679  2.1300  0.9853
  663MOL0     H89452   8.045   9.635   9.310  4.6325 -1.2513  0.0376
  663MOL0     H89453   8.111   9.757   9.199  4.1697 -2.1207 -0.0631
  663MOL0     H89454   8.099   9.467   9.128  0.7285  0.2620 -0.4617
  663MOL0     H89455   8.172   9.597   9.040  0.0291  1.3926  0.3549
  663MOL0     H89456   8.392   9.721   9.185  2.3849 -1.1167 -0.6718
  663MOL0     H89457   8.671   9.532   9.291 -0.4852 -0.5961  0.5356
  663MOL0     H89458   8.620   9.702   9.334  1.0944  0.8797  2.8247
  663MOL0     H89459   8.543   9.585   9.559 -1.7138  3.0791 -1.8558
  663MOL0     H89460   8.660   9.466   9.524 -0.2262  1.0144  2.0410
  663MOL0     H89461   8.760   9.635   9.657  1.0031 -0.6981  0.1418
  663MOL0     H89462   8.707   9.770   9.554  3.5309  1.5232  1.5877
  663MOL0     H89463   8.850   9.706   9.379 -1.6642  0.0513 -0.9322
  663MOL0     H89464   8.889   9.550   9.457 -1.8689  0.8214 -2.7062
  663MOL0     H89465   9.179   9.739   9.715  0.9554 -2.8325  0.6871
  663MOL0     H89466   9.415   9.720   9.673 -1.4649  0.8192  0.9084
  663MOL0     H89467   9.828   9.687   9.350  0.5424 -1.1853 -0.2824
  663MOL0     H89468  10.039   9.582   9.293  1.0618 -1.5588  1.4759
  663MOL0     H89469  10.004   9.142   9.183 -0.9707  2.9751  3.6241
  663MOL0     H89470  10.036   9.228   9.024  1.6561 -2.4553 -0.3021
  663MOL0     H89471  10.280   9.239   9.102 -1.8215  1.6633 -0.1412
  663MOL0     H89472  10.238   9.121   9.229 -0.1468  1.2060 -0.0209
  663MOL0     H89473  10.319   8.996   9.060 -0.3332 -0.1148  0.8522
  663MOL0     H89474  10.143   8.977   9.036 -0.2482  0.2529 -0.0925
  663MOL0     H89475  10.342   9.140   8.871 -0.0608 -0.4944 -0.8435
  663MOL0     H89476  10.168   9.166   8.845 -0.4866  0.4368  0.0464
  663MOL0     H89477  10.157   8.897   8.809 -1.9629  1.0080 -1.8657
  663MOL0     H89478  10.331   8.927   8.797 -0.2665 -0.3564  1.6807
  663MOL0     H89479  10.140   9.089   8.618  0.5581  0.3997  1.1631
  663MOL0     H89480  10.311   9.069   8.604  0.5148 -0.8155  2.1058
  663MOL0     H89481  10.097   8.869   8.531  0.3023  1.5666  0.5245
  663MOL0     H89482  10.247   8.799   8.560 -1.0794 -2.3168 -0.7520
  663MOL0     H89483  10.206   9.025   8.363  0.9778  0.1534  0.6610
  663MOL0     H89484  10.354   8.956   8.397 -0.9795  0.0605 -1.5312
  663MOL0     H89485   9.809   9.233   9.167 -1.3366 -0.8069  2.6531
  663MOL0     H89486   9.606   9.342   9.207 -2.7533  2.9065 -0.1194
  663MOL0     H89487   9.327   9.617   9.257 -1.2676  4.2276 -1.0779
  663MOL0     H89488   9.093   9.649   9.297 -1.1460  1.0601  0.7655
  663MOL0     H89489   7.344   9.679   9.686  2.8380  0.2627 -5.0681
  663MOL0     H89490   7.275   9.852   9.851  0.1573  2.8600 -0.6706
  663MOL0     H89491   7.279  10.217  10.047  1.9156  0.5393  0.6848
  663MOL0     H89492   7.175  10.373  10.212 -2.3980 -0.6496  0.9715
  663MOL0     H89493   6.999  10.286  10.414 -0.6466  4.5348 -1.8349
  663MOL0     H89494   7.005  10.430  10.519  2.1880  0.9898  0.3219
  663MOL0     H89495   7.071  10.139  10.608  1.2475  0.9143 -2.5550
  663MOL0     H89496   6.909  10.198  10.628  0.0661 -1.7372  2.7119
  663MOL0     H89497   6.966  10.297  10.813 -0.3537 -2.1206 -2.2774
  663MOL0     H89498   7.070  10.417  10.727  0.1864  0.6200 -0.3362
  663MOL0     H89499   7.159  10.136  10.821 -2.4056  0.0137 -3.3569
  663MOL0     H89500   7.257  10.251  10.762  0.6801 -3.8314  0.1490
  663MOL0     H89501   7.257  10.336  11.170  2.6704  2.5643 -1.7079
  663MOL0     H89502   7.322  10.150  10.540  1.9672 -0.0250 -0.7806
  663MOL0     H89503   7.406   9.848  10.373 -0.4547 -0.3844  0.6646
  663MOL0     H89504   7.562   9.942  10.370  0.8360 -1.2651  0.8091
  663MOL0     H89505   7.461   9.951  10.504  0.4389  0.5058 -0.2773
  664MOL0     O89506   7.435   8.338   5.278 -0.1000  0.1809  0.0896
  664MOL0     C89507   7.490   8.347   5.389  0.2262 -0.1800  0.4254
  664MOL0     O89508   7.530   8.248   5.465  0.2117  0.1051 -1.1365
  664MOL0     C89509   7.545   8.120   5.407 -0.0844  0.0101 -1.1766
  664MOL0     C89510   7.433   8.035   5.379  0.7362  0.2009  0.4278
  664MOL0     C89511   7.456   7.909   5.326  1.4037 -1.1217  0.5229
  664MOL0     C89512   7.582   7.865   5.291  0.0571  0.0859  0.4154
  664MOL0     O89513   7.616   7.742   5.240  0.0156  0.8771 -0.3038
  664MOL0     C89514   7.505   7.655   5.212 -0.2906  0.4707 -0.5060
  664MOL0     C89515   7.568   7.510   5.175 -0.8050  1.1631 -0.9659
  664MOL0     C89516   7.463   7.434   5.098  0.0632 -0.1870 -0.0281
  664MOL0     C89517   7.495   7.279   5.073  0.0552 -0.1400 -0.3323
  664MOL0     C89518   7.384   7.188   5.032  0.5293 -0.0445  0.0607
  664MOL0     C89519   7.321   7.217   4.889  0.5278 -0.0372  0.1500
  664MOL0     C89520   7.216   7.115   4.848 -0.0912  0.4408 -0.5882
  664MOL0     C89521   7.081   7.149   4.908  0.3416  0.5043 -0.7811
  664MOL0     N89522   7.031   7.274   4.846  0.0654 -0.3880 -0.3323
  664MOL0     C89523   6.951   7.275   4.741  1.3175  0.3411  0.1441
  664MOL0     C89524   6.908   7.400   4.730 -0.1106 -0.6196 -0.6147
  664MOL0     C89525   6.808   7.448   4.632  0.0584 -0.6507 -0.5031
  664MOL0     C89526   6.660   7.402   4.667 -0.7249  0.4830  0.6235
  664MOL0     C89527   6.591   7.478   4.783  0.9910  0.6372 -0.4034
  664MOL0     C89528   6.440   7.469   4.773 -0.5152  0.5810 -0.6345
  664MOL0     O89529   6.403   7.328   4.774 -0.3795  0.1080  0.1854
  664MOL0     C89530   6.272   7.298   4.778  0.5505 -0.0079  0.6817
  664MOL0     C89531   6.233   7.163   4.787 -0.1133  0.3507 -0.1823
  664MOL0     C89532   6.098   7.122   4.792  0.1295 -0.4840 -1.2349
  664MOL0     C89533   5.999   7.210   4.778  0.6073  0.6305  0.0515
  664MOL0     C89534   5.853   7.164   4.776  0.2747  1.0519  0.5545
  664MOL0     O89535   5.757   7.258   4.779 -1.1716 -0.4771 -0.2871
  664MOL0     C89536   5.625   7.219   4.758 -0.4494 -0.5350 -0.2151
  664MOL0     C89537   5.527   7.248   4.861  0.3038  0.2549  0.4634
  664MOL0     C89538   5.398   7.197   4.852  0.8085 -0.3811  0.6805
  664MOL0     C89539   5.358   7.128   4.735  0.0499  0.2757 -0.0892
  664MOL0     O89540   5.224   7.079   4.730 -0.0384 -0.2791 -0.1311
  664MOL0     C89541   5.129   7.186   4.755  0.0751 -0.6451 -0.3657
  664MOL0     C89542   4.993   7.166   4.678 -0.4778 -0.5311  0.1673
  664MOL0     C89543   4.893   7.069   4.744  0.3416 -0.9154  0.2607
  664MOL0     C89544   4.968   6.935   4.781  0.2869  0.7538 -0.1276
  664MOL0     C89545   4.889   6.821   4.841  0.3557 -0.2233  0.4976
  664MOL0     C89546   4.776   6.758   4.754  0.7539  0.4993 -0.4704
  664MOL0     C89547   4.737   6.622   4.803  0.2776 -0.1418  0.0342
  664MOL0     C89548   4.617   6.554   4.735 -0.7008 -0.2021 -0.1374
  664MOL0    Cl89549   4.465   6.634   4.787 -0.3439  0.1662  0.1680
  664MOL0     C89550   5.449   7.101   4.628 -0.4794  0.0600 -0.9330
  664MOL0     C89551   5.583   7.141   4.648 -0.0649  0.1118  0.0505
  664MOL0     O89552   5.836   7.043   4.765 -1.2780 -0.0080  0.1130
  664MOL0     C89553   6.032   7.345   4.762  0.0274 -0.2890 -0.6517
  664MOL0     C89554   6.162   7.380   4.770 -0.6300  0.2362 -0.6369
  664MOL0     N89555   6.972   7.476   4.830 -0.4421 -0.5314 -0.2350
  664MOL0     N89556   7.050   7.400   4.890 -0.0908 -0.7216  0.3385
  664MOL0     C89557   7.696   7.952   5.317 -0.1414 -0.8544  0.0123
  664MOL0     C89558   7.678   8.077   5.383  0.6239 -0.0105 -0.1851
  664MOL0     C89559   7.500   8.493   5.449 -0.1806  0.1368 -0.1830
  664MOL0     C89560   7.546   8.505   5.587 -0.0185  0.6197 -0.4378
  664MOL0     C89561   7.551   8.627   5.662  0.1026 -0.3062 -0.2804
  664MOL0     C89562   7.522   8.746   5.592  0.5687 -0.3263 -0.0612
  664MOL0     O89563   7.555   8.861   5.657  0.0178 -0.5671  0.1838
  664MOL0     C89564   7.501   8.989   5.609  0.3135  0.2488  0.1255
  664MOL0     C89565   7.359   9.005   5.647  0.5438  0.4222 -1.2798
  664MOL0     C89566   7.333   8.989   5.807  0.1198 -0.4163 -0.4327
  664MOL0     C89567   7.181   8.998   5.837 -0.7142  0.5178 -0.0480
  664MOL0     C89568   7.102   8.890   5.780 -0.1379  1.4281 -0.5500
  664MOL0     C89569   7.024   8.808   5.741  0.0442 -0.1421  0.0091
  664MOL0     C89570   7.475   8.735   5.456 -0.2429 -0.2191  0.8077
  664MOL0     C89571   7.465   8.615   5.388 -0.1142 -0.0257 -0.1858
  664MOL0     C89572   7.398   8.623   5.252  0.4577 -0.0951  0.1328
  664MOL0     H89573   7.334   8.074   5.397  0.0564 -1.5826  0.7550
  664MOL0     H89574   7.363   7.858   5.302 -1.3565  2.3602  2.8343
  664MOL0     H89575   7.452   7.633   5.306 -0.0954 -1.6305 -0.8290
  664MOL0     H89576   7.444   7.696   5.131  0.6113  1.0837 -0.8847
  664MOL0     H89577   7.586   7.445   5.262 -3.8021 -1.0131 -1.8293
  664MOL0     H89578   7.660   7.523   5.116 -1.0018  1.6217 -1.1765
  664MOL0     H89579   7.458   7.488   5.003  2.5280 -1.7037 -1.1236
  664MOL0     H89580   7.375   7.443   5.161  0.7530  2.3809  0.7146
  664MOL0     H89581   7.564   7.276   4.988  1.9881  0.7647  1.1273
  664MOL0     H89582   7.532   7.218   5.156  0.8646  0.8893  0.0812
  664MOL0     H89583   7.437   7.092   5.023  2.3665  0.9339 -0.0027
  664MOL0     H89584   7.309   7.182   5.112  1.2062  1.5816  0.8603
  664MOL0     H89585   7.273   7.315   4.894 -1.7717 -1.1209  0.6143
  664MOL0     H89586   7.403   7.211   4.817 -0.2002 -0.8660 -0.6296
  664MOL0     H89587   7.244   7.012   4.869  1.1969  1.1726  1.7110
  664MOL0     H89588   7.210   7.122   4.739 -2.5642 -1.0823 -0.6168
  664MOL0     H89589   7.006   7.071   4.891  1.5031 -1.1964  1.4516
  664MOL0     H89590   7.081   7.163   5.016 -1.5755 -1.0987 -0.5197
  664MOL0     H89591   6.913   7.186   4.692  2.4766 -0.7351  1.1131
  664MOL0     H89592   6.826   7.555   4.641 -1.6711 -0.5229  2.8635
  664MOL0     H89593   6.832   7.416   4.530  1.1443  2.2189 -1.2405
  664MOL0     H89594   6.595   7.407   4.579  0.3994 -1.1810 -0.3389
  664MOL0     H89595   6.657   7.297   4.696  0.6031  0.1212 -0.4511
  664MOL0     H89596   6.624   7.582   4.779  0.9937  0.6429 -0.2353
  664MOL0     H89597   6.629   7.444   4.880  1.1273  1.9408  0.0248
  664MOL0     H89598   6.408   7.527   4.686 -0.0913  2.4003  0.3542
  664MOL0     H89599   6.402   7.517   4.864  1.5986  0.7070  0.2375
  664MOL0     H89600   6.315   7.095   4.804  0.2612  0.8278 -0.0673
  664MOL0     H89601   6.079   7.016   4.803  1.0320 -0.4612  1.1174
  664MOL0     H89602   5.561   7.302   4.949  0.7018 -0.9663  1.0796
  664MOL0     H89603   5.324   7.219   4.929  1.3070  0.0264  1.0551
  664MOL0     H89604   5.103   7.190   4.861  1.0068  2.6576 -0.1488
  664MOL0     H89605   5.178   7.282   4.741  0.2673 -0.6595  0.2177
  664MOL0     H89606   4.929   7.254   4.678 -0.1868 -0.2450  2.6126
  664MOL0     H89607   5.008   7.150   4.571 -4.0921  1.7667 -0.8755
  664MOL0     H89608   4.849   7.121   4.830 -1.5471  0.3729 -1.4179
  664MOL0     H89609   4.818   7.053   4.667  0.9607 -1.6031 -0.2127
  664MOL0     H89610   5.049   6.956   4.852  1.5114 -0.4064 -1.1299
  664MOL0     H89611   5.019   6.891   4.695  1.1273  2.0676 -0.3367
  664MOL0     H89612   4.841   6.860   4.932 -1.2178  1.0779 -0.8363
  664MOL0     H89613   4.946   6.736   4.880  0.6397 -0.0080  0.5594
  664MOL0     H89614   4.688   6.822   4.753  0.2050 -0.1746  1.3129
  664MOL0     H89615   4.824   6.738   4.657  0.0753 -2.8024 -0.2700
  664MOL0     H89616   4.718   6.628   4.911 -3.3363 -0.2373 -0.4985
  664MOL0     H89617   4.831   6.571   4.781  0.9568  0.8270  0.5975
  664MOL0     H89618   4.629   6.565   4.626 -1.7396 -1.9681 -0.4751
  664MOL0     H89619   4.626   6.446   4.748  0.2505 -0.5558 -2.9637
  664MOL0     H89620   5.421   7.030   4.552 -2.5979  0.3057 -0.4443
  664MOL0     H89621   5.653   7.116   4.569 -1.5568  0.0474 -1.2803
  664MOL0     H89622   5.951   7.418   4.757  0.4360  0.5076  2.2447
  664MOL0     H89623   6.184   7.486   4.759  0.1031  0.2704  0.9245
  664MOL0     H89624   7.791   7.926   5.272  0.0626  0.7776 -0.5709
  664MOL0     H89625   7.763   8.143   5.397  0.9146 -0.5759  0.7936
  664MOL0     H89626   7.574   8.416   5.643  1.8624 -0.0772 -2.3518
  664MOL0     H89627   7.590   8.625   5.763 -1.7400 -0.1920  0.4816
  664MOL0     H89628   7.516   9.001   5.501  1.7460  4.2836  0.6230
  664MOL0     H89629   7.560   9.058   5.669  3.6773 -3.0873  1.0809
  664MOL0     H89630   7.294   8.937   5.590  0.4833 -0.9463  0.3374
  664MOL0     H89631   7.333   9.107   5.617 -4.2806  0.0789  0.8218
  664MOL0     H89632   7.389   9.063   5.865  1.0785  0.1863 -2.0508
  664MOL0     H89633   7.365   8.889   5.836  1.8187  0.7040  1.9632
  664MOL0     H89634   7.169   9.003   5.946  1.6942  1.2782  0.2455
  664MOL0     H89635   7.140   9.089   5.792 -2.6679  0.2316  1.0398
  664MOL0     H89636   6.954   8.735   5.704 -0.6394  1.3878 -1.8470
  664MOL0     H89637   7.448   8.825   5.401 -2.4445 -0.1255  1.9429
  664MOL0     H89638   7.342   8.716   5.249 -0.3740 -0.6026 -0.3154
  664MOL0     H89639   7.463   8.618   5.164  1.7576  2.0246  0.8928
  664MOL0     H89640   7.325   8.543   5.238  0.0426  0.3559 -0.2779
  665MOL0     O89641   7.201   6.320  11.283  0.1425 -0.1096  0.4307
  665MOL0     C89642   7.171   6.405  11.365  0.7549  0.1458  0.6037
  665MOL0     O89643   7.252   6.508  11.405 -0.1050 -0.4187 -0.1592
  665MOL0     C89644   7.381   6.507  11.353 -0.5508 -0.3687 -0.9421
  665MOL0     C89645   7.409   6.531  11.216  0.1084 -0.6213 -0.3717
  665MOL0     C89646   7.542   6.541  11.169 -0.2685  0.0843 -0.7790
  665MOL0     C89647   7.648   6.513  11.251  1.0349 -0.3091 -0.0554
  665MOL0     O89648   7.771   6.547  11.208  0.1370  0.4550  0.1826
  665MOL0     C89649   7.879   6.548  11.304  0.3533  0.3649  1.0787
  665MOL0     C89650   7.997   6.598  11.237 -0.4011 -0.3423 -0.3600
  665MOL0     C89651   8.135   6.588  11.328  0.2256  0.2456  0.2736
  665MOL0     C89652   8.226   6.510  11.246  0.0829  0.2719  0.3306
  665MOL0     C89653   8.375   6.506  11.287  1.8213 -0.0351 -0.0052
  665MOL0     C89654   8.455   6.404  11.206  0.5953  0.2502  0.2795
  665MOL0     C89655   8.584   6.375  11.266  0.4148 -0.3048  0.3246
  665MOL0     C89656   8.660   6.259  11.200  0.9070  0.1952  0.2731
  665MOL0     N89657   8.801   6.251  11.239  0.2952  0.4157  0.3755
  665MOL0     C89658   8.847   6.219  11.366 -0.6583 -0.4828 -0.7895
  665MOL0     C89659   8.984   6.214  11.357 -0.2124 -0.6055  0.1270
  665MOL0     C89660   9.084   6.184  11.466  1.2906  0.3359 -0.2659
  665MOL0     C89661   9.227   6.242  11.449  0.8430 -0.3455  0.1060
  665MOL0     C89662   9.325   6.181  11.541  0.1124 -0.6114  0.3921
  665MOL0     C89663   9.465   6.247  11.530 -0.2586  0.3606  0.3520
  665MOL0     O89664   9.514   6.212  11.397  0.4894 -0.3234 -0.1461
  665MOL0     C89665   9.651   6.217  11.393  0.0589 -0.0460 -0.7313
  665MOL0     C89666   9.729   6.108  11.412  0.2289  0.2764 -0.2223
  665MOL0     C89667   9.865   6.108  11.382  0.0067 -0.1361 -0.7432
  665MOL0     C89668   9.927   6.227  11.344 -0.1187  1.3234 -0.2753
  665MOL0     C89669  10.071   6.233  11.317  0.1739  0.2139  0.4978
  665MOL0     O89670  10.113   6.357  11.269  0.4494  0.1914  1.1076
  665MOL0     C89671  10.234   6.379  11.216  0.1001  0.9416 -0.1031
  665MOL0     C89672  10.353   6.309  11.244 -0.0075 -0.1975  0.0511
  665MOL0     C89673  10.470   6.366  11.210 -1.2822 -0.2248  0.1742
  665MOL0     C89674  10.476   6.481  11.135  0.2967  0.2493 -0.1415
  665MOL0     O89675  10.586   6.536  11.085  0.0654  0.1358  0.3810
  665MOL0     C89676  10.721   6.515  11.116 -0.0196  0.2462 -0.1714
  665MOL0     C89677  10.810   6.637  11.086  0.1822 -0.1376 -0.6262
  665MOL0     C89678  10.765   6.727  10.970  0.4424 -0.1798  0.4448
  665MOL0     C89679  10.798   6.684  10.832  0.0590 -0.1864  0.7011
  665MOL0     C89680  10.951   6.707  10.805 -0.9623 -0.0928  0.4937
  665MOL0     C89681  11.026   6.572  10.773 -0.1656  0.1589 -0.2557
  665MOL0     C89682  11.167   6.587  10.717 -0.7073  0.1223  0.6877
  665MOL0     C89683  11.208   6.471  10.625  0.6123  0.1348  0.3120
  665MOL0    Cl89684  11.111   6.462  10.466  0.2308 -0.8586  0.1196
  665MOL0     C89685  10.357   6.547  11.105  0.4631  0.4308 -0.0457
  665MOL0     C89686  10.237   6.500  11.151  0.1473  0.3395 -0.3479
  665MOL0     O89687  10.145   6.140  11.356  0.6129 -0.6687  0.2712
  665MOL0     C89688   9.843   6.335  11.320  0.1256  0.4163 -1.1834
  665MOL0     C89689   9.712   6.331  11.350 -0.3375 -0.3508  0.8357
  665MOL0     N89690   9.021   6.240  11.225 -0.0556 -0.7817 -0.4341
  665MOL0     N89691   8.913   6.251  11.152  0.3394 -0.6749 -0.1315
  665MOL0     C89692   7.620   6.477  11.385 -0.1154  0.4827  0.0579
  665MOL0     C89693   7.494   6.467  11.436  0.0264 -0.2895 -0.1262
  665MOL0     C89694   7.031   6.398  11.435  0.0788  0.1585  0.2051
  665MOL0     C89695   6.976   6.516  11.502 -0.0724  0.2285 -0.0633
  665MOL0     C89696   6.843   6.508  11.558  0.3256 -0.0149  0.6393
  665MOL0     C89697   6.766   6.402  11.534  0.0915  0.8273  0.3772
  665MOL0     O89698   6.640   6.386  11.572  0.6005 -0.5979 -0.1062
  665MOL0     C89699   6.569   6.474  11.663 -0.2901 -0.0514  0.3946
  665MOL0     C89700   6.422   6.421  11.663 -0.0965  0.1921  0.1398
  665MOL0     C89701   6.320   6.515  11.710  0.3415  0.4373  0.4041
  665MOL0     C89702   6.185   6.446  11.748 -0.3323  0.6835 -0.3009
  665MOL0     C89703   6.203   6.345  11.855  0.1469 -0.7272  0.1821
  665MOL0     C89704   6.209   6.258  11.944  0.8252  0.4270  0.2305
  665MOL0     C89705   6.818   6.294  11.479  0.2805 -0.0519 -0.2705
  665MOL0     C89706   6.950   6.279  11.435 -0.9030 -0.5523  0.0198
  665MOL0     C89707   6.994   6.148  11.385 -0.6292  1.0128  0.2058
  665MOL0     H89708   7.330   6.550  11.144 -1.5752 -1.5450  1.1503
  665MOL0     H89709   7.541   6.566  11.063  0.3105  0.9772 -0.5891
  665MOL0     H89710   7.851   6.611  11.388  0.3778 -0.6075  1.8349
  665MOL0     H89711   7.890   6.441  11.326 -4.2844 -1.1095 -2.1808
  665MOL0     H89712   7.971   6.700  11.207  0.3073  0.4421  1.4992
  665MOL0     H89713   8.009   6.535  11.149  0.0408 -0.7229 -0.0342
  665MOL0     H89714   8.123   6.538  11.425  1.1072 -2.3114 -0.8500
  665MOL0     H89715   8.177   6.688  11.337  0.3418  0.1287  1.0988
  665MOL0     H89716   8.193   6.406  11.246 -0.4426  0.4342 -0.0575
  665MOL0     H89717   8.216   6.545  11.143  2.7678  0.3153  0.0034
  665MOL0     H89718   8.413   6.607  11.270 -0.4608  1.3863  2.5124
  665MOL0     H89719   8.394   6.491  11.394  1.0287 -0.0545  0.1426
  665MOL0     H89720   8.401   6.311  11.190  1.3828 -0.2819  0.6794
  665MOL0     H89721   8.474   6.448  11.107 -0.8571  2.1939  0.7927
  665MOL0     H89722   8.567   6.338  11.368  1.9468  2.6071  1.7691
  665MOL0     H89723   8.655   6.458  11.269 -1.9127  1.7676  2.6464
  665MOL0     H89724   8.618   6.162  11.227  0.7883  0.0403 -0.4354
  665MOL0     H89725   8.657   6.276  11.092  3.1976 -0.9457 -0.0498
  665MOL0     H89726   8.797   6.177  11.452  0.4769  1.1372  0.7375
  665MOL0     H89727   9.037   6.219  11.558 -0.8026 -1.5969 -0.4969
  665MOL0     H89728   9.102   6.076  11.469 -1.8843 -0.2783 -0.5986
  665MOL0     H89729   9.258   6.220  11.346  0.6138 -0.4953  0.0680
  665MOL0     H89730   9.225   6.349  11.470  0.8466 -0.8336  2.9842
  665MOL0     H89731   9.333   6.077  11.509  0.3727 -0.4212 -0.1780
  665MOL0     H89732   9.278   6.188  11.640 -0.6276 -0.1887  0.0256
  665MOL0     H89733   9.522   6.199  11.611 -0.4113 -2.3607 -1.0429
  665MOL0     H89734   9.456   6.355  11.545 -0.1024  0.1574  2.1809
  665MOL0     H89735   9.677   6.019  11.447  0.5015  1.5995  4.0754
  665MOL0     H89736   9.918   6.016  11.406 -2.2813 -1.9590 -2.1883
  665MOL0     H89737  10.350   6.216  11.301 -2.5835  1.9086  3.8025
  665MOL0     H89738  10.565   6.331  11.247 -0.1681  0.8531 -1.5296
  665MOL0     H89739  10.726   6.510  11.225  0.5799  0.0838 -0.2052
  665MOL0     H89740  10.763   6.428  11.065  2.3255  2.1790 -1.7830
  665MOL0     H89741  10.801   6.704  11.172 -0.7714 -0.9021 -0.1169
  665MOL0     H89742  10.911   6.602  11.066 -0.0014  0.8285 -3.9739
  665MOL0     H89743  10.656   6.734  10.967  0.4612  0.0347  0.2969
  665MOL0     H89744  10.800   6.827  10.995  1.1531 -0.0150 -1.1327
  665MOL0     H89745  10.745   6.748  10.761  0.2639  0.4936  1.1573
  665MOL0     H89746  10.768   6.581  10.812  0.5780  0.3113 -3.3930
  665MOL0     H89747  10.987   6.756  10.897 -1.1167 -0.2301  0.6268
  665MOL0     H89748  10.967   6.781  10.726  2.3341 -0.2618  0.8763
  665MOL0     H89749  11.030   6.503  10.857  0.9336 -1.1209 -1.3054
  665MOL0     H89750  10.971   6.524  10.691  2.5890  0.7187 -2.6165
  665MOL0     H89751  11.232   6.603  10.804  2.0805  3.9118 -1.7403
  665MOL0     H89752  11.177   6.670  10.646 -1.7143  0.3263  0.7665
  665MOL0     H89753  11.305   6.505  10.590 -0.3226 -1.3556 -4.3926
  665MOL0     H89754  11.204   6.371  10.670 -1.2515 -0.0813 -0.2325
  665MOL0     H89755  10.343   6.641  11.054 -1.3579  0.0128 -0.3808
  665MOL0     H89756  10.147   6.561  11.147  0.8788  1.3760 -1.7131
  665MOL0     H89757   9.882   6.435  11.300  0.2538  0.9270  1.2402
  665MOL0     H89758   9.644   6.407  11.313 -2.3614 -3.2996 -2.1741
  665MOL0     H89759   7.704   6.451  11.448 -0.2087 -1.2968 -0.5000
  665MOL0     H89760   7.490   6.451  11.543 -1.1669 -0.0332 -0.1178
  665MOL0     H89761   7.038   6.605  11.496 -0.0617  0.2371  0.1882
  665MOL0     H89762   6.801   6.599  11.598 -1.2630  0.5183 -2.0117
  665MOL0     H89763   6.592   6.574  11.626  2.7072 -0.4741  0.8834
  665MOL0     H89764   6.602   6.472  11.767  0.4856 -0.6204  0.1437
  665MOL0     H89765   6.427   6.327  11.719  1.1687 -0.7841 -1.5070
  665MOL0     H89766   6.398   6.399  11.559 -2.2011 -1.7550  0.9610
  665MOL0     H89767   6.304   6.573  11.618  1.0423 -2.6846 -1.8547
  665MOL0     H89768   6.357   6.580  11.789 -1.0190  2.2127 -0.3578
  665MOL0     H89769   6.116   6.516  11.795  0.7095  1.3572  0.2462
  665MOL0     H89770   6.150   6.396  11.656  2.9011 -0.6303 -0.9691
  665MOL0     H89771   6.228   6.198  12.031  1.7918 -0.8661 -0.8344
  665MOL0     H89772   6.776   6.194  11.477  5.0750 -2.3440 -1.5750
  665MOL0     H89773   7.099   6.133  11.412  0.4735  2.6695 -2.6992
  665MOL0     H89774   6.935   6.066  11.427  0.0366  0.7937  0.7236
  665MOL0     H89775   6.976   6.163  11.278 -2.0140  3.9905  0.7714
  666MOL0     O89776   0.403  10.227   7.704 -0.1658 -0.7919  1.7176
  666MOL0     C89777   0.284  10.205   7.687 -0.1498  0.1912 -0.8385
  666MOL0     O89778   0.178  10.235   7.773 -0.3264  0.1655 -0.3947
  666MOL0     C89779   0.189  10.317   7.874  0.7157 -1.0980  0.0915
  666MOL0     C89780   0.067  10.377   7.925  0.0142 -0.4024  0.2999
  666MOL0     C89781   0.068  10.457   8.044  0.1104  0.2826  0.1743
  666MOL0     C89782   0.184  10.487   8.108  0.2485 -0.1830  0.4352
  666MOL0     O89783   0.188  10.557   8.229 -0.2727  0.4360  0.2109
  666MOL0     C89784   0.120  10.684   8.233 -0.3799  0.5187  0.4162
  666MOL0     C89785   0.227  10.788   8.203 -0.1353  0.1541 -0.1718
  666MOL0     C89786   0.335  10.809   8.309  0.1949  0.2827 -0.3324
  666MOL0     C89787   0.442  10.906   8.257  0.2143  0.4222  0.4987
  666MOL0     C89788   0.375  11.033   8.196  0.2594 -0.2789 -0.8590
  666MOL0     C89789   0.479  11.153   8.184 -0.1804  0.0265 -0.1290
  666MOL0     C89790   0.601  11.124   8.089  0.7909  0.6302 -0.0057
  666MOL0     C89791   0.728  11.103   8.170 -0.1415 -0.6213 -0.5705
  666MOL0     N89792   0.793  11.232   8.210  0.4810  0.8564 -0.2257
  666MOL0     C89793   0.863  11.315   8.133  0.3101  0.1699 -0.0888
  666MOL0     C89794   0.908  11.423   8.204  0.0968 -0.9188  0.2736
  666MOL0     C89795   1.008  11.523   8.179 -0.2425 -0.4116  0.1551
  666MOL0     C89796   0.944  11.633   8.087  0.5291  0.8032 -0.2361
  666MOL0     C89797   0.888  11.737   8.183  0.9123 -0.1811 -0.8971
  666MOL0     C89798   0.994  11.852   8.201  0.4554 -0.1482  0.5234
  666MOL0     O89799   1.019  11.931   8.077  0.5374 -0.8500  0.0725
  666MOL0     C89800   1.134  11.987   8.036 -0.3397 -0.2223 -0.4524
  666MOL0     C89801   1.265  11.958   8.093  0.2001  0.1525 -0.3446
  666MOL0     C89802   1.375  12.019   8.048 -0.4784 -0.9424 -0.1253
  666MOL0     C89803   1.366  12.120   7.951  0.7526  0.3819  0.3957
  666MOL0     C89804   1.494  12.189   7.899 -0.2096 -0.7551  0.8310
  666MOL0     O89805   1.469  12.311   7.831 -0.1798  0.9091 -0.2704
  666MOL0     C89806   1.577  12.394   7.803 -0.1153 -0.3063  0.5925
  666MOL0     C89807   1.568  12.476   7.687  0.1778 -0.1147 -0.4823
  666MOL0     C89808   1.669  12.578   7.657 -0.3598 -0.3868 -0.3801
  666MOL0     C89809   1.773  12.593   7.749 -0.1836  0.1220  0.6195
  666MOL0     O89810   1.876  12.679   7.730  0.6733 -0.1716 -0.2507
  666MOL0     C89811   1.934  12.662   7.598  0.1217 -0.0363  0.2120
  666MOL0     C89812   2.078  12.647   7.622  0.6080 -0.0388 -0.0340
  666MOL0     C89813   2.138  12.766   7.701  0.1207  0.4403 -0.3066
  666MOL0     C89814   2.284  12.769   7.660 -0.7967  0.1067 -0.7813
  666MOL0     C89815   2.382  12.857   7.737 -0.9907  0.2622  0.2600
  666MOL0     C89816   2.350  13.002   7.707 -0.4670 -0.2163  0.0875
  666MOL0     C89817   2.432  13.095   7.797 -0.0998  0.2511 -0.1682
  666MOL0     C89818   2.360  13.112   7.939 -0.3508  0.2614 -0.0924
  666MOL0    Cl89819   2.447  13.235   8.026 -0.3506 -0.0995 -0.0047
  666MOL0     C89820   1.782  12.505   7.860  0.4040 -0.1834  1.3752
  666MOL0     C89821   1.686  12.411   7.886 -0.2234 -0.0452  0.0890
  666MOL0     O89822   1.599  12.139   7.927 -0.9692 -0.7528  0.2804
  666MOL0     C89823   1.238  12.149   7.886 -0.4498 -0.0586 -0.0835
  666MOL0     C89824   1.133  12.079   7.935  0.5328  0.1065  0.8780
  666MOL0     N89825   0.871  11.393   8.336  0.3520 -0.3832  1.1168
  666MOL0     N89826   0.807  11.284   8.335  0.4776 -0.9182 -0.1233
  666MOL0     C89827   0.301  10.423   8.058  0.3990  0.0883 -0.4366
  666MOL0     C89828   0.301  10.330   7.950 -0.7894 -0.4591 -0.2156
  666MOL0     C89829   0.236  10.141   7.566  0.0798  0.6390  0.9791
  666MOL0     C89830   0.116  10.064   7.571  0.1048 -0.1886 -0.1859
  666MOL0     C89831   0.064  10.019   7.446 -0.2001  0.2682  0.3143
  666MOL0     C89832   0.123  10.035   7.325 -0.4223  1.1307 -0.0453
  666MOL0     O89833   0.073   9.986   7.201 -0.4517 -0.0362  0.3308
  666MOL0     C89834  -0.047   9.920   7.201  0.4833  1.1444 -0.3977
  666MOL0     C89835  -0.096   9.905   7.055 -0.1953  0.6663  0.3021
  666MOL0     C89836  -0.245   9.886   7.050  0.0209  0.4464  0.5991
  666MOL0     C89837  -0.290   9.890   6.900 -0.6366 -0.3181  0.3164
  666MOL0     C89838  -0.439   9.870   6.883 -0.1658  0.2351 -0.7291
  666MOL0     C89839  -0.554   9.823   6.864 -0.6803 -0.9554 -0.0968
  666MOL0     C89840   0.235  10.109   7.324  0.6201 -0.6550  0.1516
  666MOL0     C89841   0.301  10.161   7.440  0.2343  0.0479  1.7325
  666MOL0     C89842   0.422  10.246   7.413 -0.1360 -0.4816  0.5789
  666MOL0     H89843  -0.028  10.381   7.873 -0.3020 -1.6644  0.7533
  666MOL0     H89844  -0.022  10.508   8.075 -0.9906 -2.7266  2.3926
  666MOL0     H89845   0.034  10.695   8.165 -1.4342  0.5958  1.7210
  666MOL0     H89846   0.078  10.692   8.333  2.1152 -0.8026  1.6546
  666MOL0     H89847   0.170  10.880   8.185 -0.2765  0.4205  1.4989
  666MOL0     H89848   0.270  10.761   8.106 -0.5139  1.3510 -0.6864
  666MOL0     H89849   0.364  10.706   8.331 -5.2511 -1.4967 -0.2175
  666MOL0     H89850   0.292  10.853   8.400 -1.4840  0.3531 -1.1270
  666MOL0     H89851   0.513  10.921   8.339  0.4488  1.0198  0.1954
  666MOL0     H89852   0.491  10.849   8.178 -1.4700  1.5220 -1.4417
  666MOL0     H89853   0.328  11.003   8.102  1.2122 -3.1174 -0.5275
  666MOL0     H89854   0.291  11.059   8.262  1.3646 -2.4544  1.5959
  666MOL0     H89855   0.426  11.238   8.140 -0.0902  0.6680  0.9673
  666MOL0     H89856   0.503  11.181   8.287 -1.4284 -0.9669  0.4590
  666MOL0     H89857   0.626  11.205   8.020  3.5039  0.1336  0.2870
  666MOL0     H89858   0.572  11.037   8.030 -3.0853  2.0280 -0.4733
  666MOL0     H89859   0.709  11.047   8.262  1.6070  0.7913  0.7428
  666MOL0     H89860   0.806  11.063   8.104  0.2636  0.1271 -0.5581
  666MOL0     H89861   0.887  11.301   8.027 -0.7095  0.9205 -0.4313
  666MOL0     H89862   1.045  11.565   8.273  0.7558 -2.7996  0.8954
  666MOL0     H89863   1.085  11.478   8.116 -0.9587 -0.2541 -0.8678
  666MOL0     H89864   1.007  11.680   8.011 -3.6163  3.8947 -2.1912
  666MOL0     H89865   0.864  11.589   8.027  1.7855  0.0931 -1.4207
  666MOL0     H89866   0.850  11.687   8.272  0.9518  1.0683 -0.1690
  666MOL0     H89867   0.802  11.781   8.132 -0.4885 -1.3687  0.3224
  666MOL0     H89868   1.086  11.795   8.219  0.7206 -0.2373 -0.9509
  666MOL0     H89869   0.981  11.912   8.291  0.8586  1.0014 -0.1536
  666MOL0     H89870   1.259  11.889   8.176 -0.0851  1.9917  1.2453
  666MOL0     H89871   1.472  11.987   8.086  0.6905  1.2881 -1.0449
  666MOL0     H89872   1.480  12.466   7.624 -0.1983  3.5842 -0.7449
  666MOL0     H89873   1.654  12.638   7.568  1.0566 -1.9861 -1.7695
  666MOL0     H89874   1.889  12.578   7.544 -0.5234 -0.2555  1.0662
  666MOL0     H89875   1.911  12.747   7.533  0.5987 -2.5665 -3.6456
  666MOL0     H89876   2.091  12.558   7.684 -0.7153  0.8026  1.5294
  666MOL0     H89877   2.128  12.649   7.525  0.0281 -0.8148 -0.3613
  666MOL0     H89878   2.091  12.860   7.673 -0.1765  0.1077 -0.9457
  666MOL0     H89879   2.123  12.754   7.809 -0.2501 -0.2646 -0.4293
  666MOL0     H89880   2.288  12.802   7.556 -0.1079 -2.7605 -1.7455
  666MOL0     H89881   2.318  12.665   7.670 -3.9274 -0.9460  0.2355
  666MOL0     H89882   2.485  12.831   7.712 -0.8195 -0.9027  2.0068
  666MOL0     H89883   2.366  12.830   7.841 -2.8307  3.3157  0.9073
  666MOL0     H89884   2.369  13.030   7.603 -0.4334  3.8986  1.0138
  666MOL0     H89885   2.244  13.004   7.732 -0.4785 -3.8911  0.7831
  666MOL0     H89886   2.447  13.189   7.743  0.6442  1.3148  1.7817
  666MOL0     H89887   2.534  13.068   7.828 -0.4443 -0.5704  0.2706
  666MOL0     H89888   2.256  13.145   7.939 -0.3185  0.5562 -2.3390
  666MOL0     H89889   2.360  13.019   7.997  0.7479 -0.6353 -1.4477
  666MOL0     H89890   1.863  12.536   7.926  1.7790 -0.0829 -0.2765
  666MOL0     H89891   1.696  12.341   7.969  0.5379  1.9639  1.8031
  666MOL0     H89892   1.240  12.214   7.799 -0.4230  0.4876  0.3189
  666MOL0     H89893   1.031  12.084   7.898  0.9986 -1.7083 -0.8591
  666MOL0     H89894   0.383  10.448   8.124 -1.6400  1.9946  1.5446
  666MOL0     H89895   0.386  10.263   7.946  0.1051  0.4359  2.2208
  666MOL0     H89896   0.068  10.046   7.666  1.3226  2.2094  0.9717
  666MOL0     H89897  -0.021   9.951   7.446  1.3593 -1.7997  0.3544
  666MOL0     H89898  -0.124   9.977   7.254  1.5175 -0.6666  3.3839
  666MOL0     H89899  -0.035   9.815   7.231 -0.8698  0.8755 -0.6934
  666MOL0     H89900  -0.047   9.827   6.996 -0.3738 -1.2418  2.5256
  666MOL0     H89901  -0.076   9.996   6.998 -1.7791  2.9103  3.0777
  666MOL0     H89902  -0.285   9.978   7.096  2.8733  2.6164 -0.9210
  666MOL0     H89903  -0.278   9.800   7.109 -3.1086  1.4748  0.5327
  666MOL0     H89904  -0.249   9.977   6.848 -2.1616  0.1491 -0.1345
  666MOL0     H89905  -0.239   9.805   6.852  0.7142  1.2609 -1.1729
  666MOL0     H89906  -0.648   9.776   6.845 -0.8789 -0.7727  0.4283
  666MOL0     H89907   0.281  10.142   7.231  2.5242 -3.5400 -0.0430
  666MOL0     H89908   0.505  10.213   7.476  0.6242  2.1698  1.0956
  666MOL0     H89909   0.443  10.229   7.307 -0.6115  5.0133 -0.6923
  666MOL0     H89910   0.388  10.349   7.427  2.5403  0.3890  1.1357
  667MOL0     O89911   6.341   5.502   1.596  0.6592  0.3478  0.1027
  667MOL0     C89912   6.294   5.466   1.492  0.9287 -0.1513 -0.4869
  667MOL0     O89913   6.370   5.456   1.379 -0.3540 -0.5491  0.0818
  667MOL0     C89914   6.507   5.471   1.378  0.2810  0.1267 -0.8896
  667MOL0     C89915   6.583   5.570   1.459  0.6288  0.7290  0.0306
  667MOL0     C89916   6.717   5.571   1.443  0.6850  0.2105 -0.8087
  667MOL0     C89917   6.785   5.467   1.375 -0.5950  0.4586 -0.0227
  667MOL0     O89918   6.924   5.468   1.372  0.6940 -0.2929  0.5376
  667MOL0     C89919   6.984   5.430   1.252  0.2772  0.2537 -0.6124
  667MOL0     C89920   7.136   5.435   1.274  0.3916  0.1142 -0.1746
  667MOL0     C89921   7.213   5.370   1.158 -1.0317  0.3580 -0.5543
  667MOL0     C89922   7.365   5.422   1.180  0.7722 -0.1988  0.7632
  667MOL0     C89923   7.454   5.364   1.072  0.0771 -0.4706 -0.0265
  667MOL0     C89924   7.483   5.209   1.102 -0.1247 -0.4964  0.2746
  667MOL0     C89925   7.558   5.184   1.232 -0.1646  0.5733  0.4827
  667MOL0     C89926   7.697   5.130   1.206  0.7965  0.3943 -0.5164
  667MOL0     N89927   7.702   4.993   1.149  0.8504 -0.0442  0.6998
  667MOL0     C89928   7.690   4.883   1.228 -0.4040  0.9567  0.7808
  667MOL0     C89929   7.698   4.783   1.145 -0.8889  0.5643  0.1801
  667MOL0     C89930   7.694   4.641   1.183  1.0766  0.5996  0.2488
  667MOL0     C89931   7.805   4.591   1.279 -0.9653 -0.2263  0.2154
  667MOL0     C89932   7.947   4.642   1.247  0.3475 -0.5947 -0.4810
  667MOL0     C89933   8.017   4.546   1.145  0.2591 -0.7552  0.2844
  667MOL0     O89934   8.069   4.426   1.196 -0.2292  0.2998  0.0519
  667MOL0     C89935   8.194   4.412   1.255  0.1690 -0.8194  0.3297
  667MOL0     C89936   8.265   4.515   1.313  0.0473  0.2706 -0.0891
  667MOL0     C89937   8.394   4.497   1.352 -0.6812  0.3633 -0.1974
  667MOL0     C89938   8.464   4.377   1.328 -0.6270 -0.3659 -0.6532
  667MOL0     C89939   8.606   4.365   1.370 -0.4986  0.4269  0.4121
  667MOL0     O89940   8.667   4.262   1.298  0.2686  0.0733 -0.8288
  667MOL0     C89941   8.797   4.257   1.264  0.3340 -0.6338 -0.1503
  667MOL0     C89942   8.900   4.305   1.345 -0.1314 -0.0409  0.1087
  667MOL0     C89943   9.036   4.294   1.298  0.5779 -0.3965  0.0244
  667MOL0     C89944   9.063   4.270   1.163 -0.9377 -0.3474  0.0896
  667MOL0     O89945   9.187   4.247   1.114 -0.3013 -0.2292  0.3208
  667MOL0     C89946   9.288   4.336   1.149  0.0664 -0.5498  0.0624
  667MOL0     C89947   9.410   4.307   1.065 -1.1692 -0.6914 -0.1109
  667MOL0     C89948   9.496   4.193   1.118  0.1622  0.1916 -0.0934
  667MOL0     C89949   9.632   4.197   1.051  0.4284  0.9561  1.1124
  667MOL0     C89950   9.696   4.059   1.054  0.2875 -0.8181  0.5699
  667MOL0     C89951   9.849   4.054   1.007  0.4146 -0.0938  0.9011
  667MOL0     C89952   9.943   4.130   1.105  0.4284  0.1395  0.1588
  667MOL0     C89953  10.093   4.119   1.061 -0.7382  0.5943  1.2232
  667MOL0    Cl89954  10.174   4.146   1.218  0.6192 -0.6237 -0.2759
  667MOL0     C89955   8.953   4.236   1.079  0.9297 -0.3186 -0.1873
  667MOL0     C89956   8.825   4.219   1.128 -0.2252  0.6386 -0.2654
  667MOL0     O89957   8.662   4.463   1.432  0.6139  0.1244  0.5584
  667MOL0     C89958   8.385   4.274   1.267 -0.0344  0.0649 -0.6434
  667MOL0     C89959   8.255   4.293   1.233  0.5864 -0.4985  0.6408
  667MOL0     N89960   7.723   4.828   1.018  0.0460 -0.4293 -0.5927
  667MOL0     N89961   7.732   4.956   1.023 -0.2719  0.2091  0.3867
  667MOL0     C89962   6.712   5.366   1.308  0.2717 -0.0634 -0.1467
  667MOL0     C89963   6.570   5.369   1.310 -0.0183 -0.0139 -0.6206
  667MOL0     C89964   6.152   5.437   1.488  0.4976 -0.2750  0.3859
  667MOL0     C89965   6.089   5.440   1.364 -0.0577  0.1195  0.1589
  667MOL0     C89966   5.950   5.424   1.349  0.0714  0.7410  0.1329
  667MOL0     C89967   5.869   5.384   1.455  0.1424 -0.3179  0.2305
  667MOL0     O89968   5.734   5.360   1.448  0.2188 -0.2320 -0.5109
  667MOL0     C89969   5.652   5.455   1.377 -0.3930 -0.5019  0.6134
  667MOL0     C89970   5.506   5.440   1.430 -0.6627  0.4068 -0.8825
  667MOL0     C89971   5.415   5.560   1.415 -0.1451 -0.9990 -0.0271
  667MOL0     C89972   5.366   5.572   1.273 -0.3346  0.2993 -0.5732
  667MOL0     C89973   5.294   5.697   1.248 -1.0615 -0.2756  0.5044
  667MOL0     C89974   5.241   5.803   1.221  0.3746  0.5640 -0.5667
  667MOL0     C89975   5.936   5.362   1.578 -1.1512  0.2068  0.4471
  667MOL0     C89976   6.075   5.400   1.596  0.7793  0.3420  0.0479
  667MOL0     C89977   6.125   5.379   1.741  0.0338  0.3697 -0.6090
  667MOL0     H89978   6.529   5.647   1.513  0.2654  0.2048  0.4386
  667MOL0     H89979   6.760   5.658   1.494 -1.5671 -0.6553  2.9944
  667MOL0     H89980   6.950   5.330   1.225 -0.8538 -0.1254  1.9013
  667MOL0     H89981   6.955   5.493   1.167 -2.1597  1.7920  1.2384
  667MOL0     H89982   7.151   5.388   1.372 -1.3846  0.4158  0.2866
  667MOL0     H89983   7.156   5.542   1.287 -2.3339  0.5492  1.1050
  667MOL0     H89984   7.167   5.416   1.070  1.8192  1.0918 -1.7722
  667MOL0     H89985   7.208   5.261   1.163  0.2196  0.2736 -0.7552
  667MOL0     H89986   7.358   5.530   1.160  1.4928 -0.5615 -1.8257
  667MOL0     H89987   7.403   5.411   1.282 -0.4642 -1.6409  1.0984
  667MOL0     H89988   7.411   5.393   0.976  0.5292  2.4547  0.5509
  667MOL0     H89989   7.551   5.414   1.061 -0.8196  1.0860 -1.2145
  667MOL0     H89990   7.386   5.161   1.111 -0.2924 -0.7796 -2.2350
  667MOL0     H89991   7.523   5.167   1.009 -1.0728 -2.4531  0.7118
  667MOL0     H89992   7.512   5.114   1.302  2.8268 -1.8933  0.1838
  667MOL0     H89993   7.581   5.278   1.283 -1.2633 -0.1221  2.3644
  667MOL0     H89994   7.752   5.185   1.129 -0.1136 -0.2616 -1.6723
  667MOL0     H89995   7.748   5.134   1.302 -0.1927  0.9984 -0.0020
  667MOL0     H89996   7.680   4.871   1.335  0.0715  0.3752  0.7667
  667MOL0     H89997   7.591   4.623   1.214  0.2876  0.3646 -2.3259
  667MOL0     H89998   7.717   4.585   1.092  2.1634  0.3915  0.6269
  667MOL0     H89999   7.784   4.621   1.382  1.7855 -0.2607  0.8729
  667MOL0     H90000   7.814   4.483   1.289  1.8124 -0.1631 -0.8999
  667MOL0     H90001   8.008   4.655   1.337 -0.4206  1.1320 -0.1639
  667MOL0     H90002   7.942   4.745   1.209  0.1653  0.3497  1.8798
  667MOL0     H90003   8.090   4.608   1.093 -1.9070  2.5236  0.8509
  667MOL0     H90004   7.952   4.507   1.065  1.1741 -1.7234 -0.0099
  667MOL0     H90005   8.221   4.612   1.336 -2.0287 -0.0611 -2.3478
  667MOL0     H90006   8.450   4.580   1.392  0.5651  0.8303 -2.7229
  667MOL0     H90007   8.892   4.321   1.452 -0.1976 -1.7324  0.3924
  667MOL0     H90008   9.115   4.327   1.365  0.5248 -0.8527  0.3143
  667MOL0     H90009   9.266   4.439   1.122 -1.5217 -1.3757 -2.1351
  667MOL0     H90010   9.328   4.328   1.250  4.6374 -0.1553 -1.4625
  667MOL0     H90011   9.376   4.277   0.966  1.4137 -1.6607 -0.8004
  667MOL0     H90012   9.463   4.403   1.071 -0.3063 -1.1909  0.5952
  667MOL0     H90013   9.491   4.193   1.228 -1.3697 -0.7193 -0.1314
  667MOL0     H90014   9.448   4.099   1.092  1.8821 -0.6152 -0.4752
  667MOL0     H90015   9.686   4.275   1.105  0.4777 -0.0042  2.5360
  667MOL0     H90016   9.630   4.224   0.945  1.3978 -0.9497  0.5570
  667MOL0     H90017   9.640   3.985   0.996 -0.0216 -3.2435  3.6253
  667MOL0     H90018   9.693   4.024   1.158 -0.7431  0.3794  0.9725
  667MOL0     H90019   9.873   3.948   0.991  0.9271  0.2403 -0.6587
  667MOL0     H90020   9.841   4.101   0.909  0.3008  0.2260  1.0615
  667MOL0     H90021   9.937   4.072   1.197  1.7643 -0.7619 -0.2788
  667MOL0     H90022   9.912   4.234   1.119 -0.0567  0.2734 -1.5847
  667MOL0     H90023  10.122   4.029   1.006  4.6813  3.1204 -0.7533
  667MOL0     H90024  10.116   4.194   0.985  1.2251 -1.4689 -0.3899
  667MOL0     H90025   8.976   4.206   0.977 -0.0129 -3.1887  0.3429
  667MOL0     H90026   8.744   4.185   1.065 -2.0887  0.6992  1.9775
  667MOL0     H90027   8.420   4.172   1.251 -1.6912 -0.7225  0.4965
  667MOL0     H90028   8.191   4.219   1.184  2.6982 -2.8319  1.1936
  667MOL0     H90029   6.769   5.281   1.273  0.1914 -0.3231  0.3431
  667MOL0     H90030   6.505   5.290   1.275  0.0978 -0.8166  0.8824
  667MOL0     H90031   6.138   5.474   1.274  0.3125 -1.1735 -0.1500
  667MOL0     H90032   5.899   5.444   1.255 -0.7788  0.1287  0.4476
  667MOL0     H90033   5.662   5.440   1.269 -0.9899 -0.9795  0.6152
  667MOL0     H90034   5.687   5.557   1.396 -3.9818  0.7900  0.9119
  667MOL0     H90035   5.518   5.430   1.538  1.3391 -0.4496 -1.1461
  667MOL0     H90036   5.466   5.350   1.384 -2.2312  0.6311 -0.0221
  667MOL0     H90037   5.474   5.651   1.422 -2.0577  0.5627 -2.4744
  667MOL0     H90038   5.332   5.561   1.486 -2.1539  0.1611 -2.2565
  667MOL0     H90039   5.458   5.574   1.213  1.7129  1.4103  2.3948
  667MOL0     H90040   5.301   5.487   1.248  2.2026 -2.3534  1.0721
  667MOL0     H90041   5.198   5.889   1.173  0.1536 -0.9597 -3.2799
  667MOL0     H90042   5.876   5.318   1.657  1.2740  0.7952  2.7516
  667MOL0     H90043   6.126   5.474   1.796  0.8093  0.0730 -0.1031
  667MOL0     H90044   6.055   5.320   1.801  0.3342  2.0850  1.5680
  667MOL0     H90045   6.223   5.331   1.735  1.7599  3.7246 -5.1025
  668MOL0     O90046   7.058   1.952   9.513 -0.3001 -0.8509 -0.9068
  668MOL0     C90047   7.025   2.066   9.473  0.0898 -0.2906  0.8481
  668MOL0     O90048   7.097   2.151   9.387  0.5603  0.1545 -0.3497
  668MOL0     C90049   7.181   2.097   9.292  0.2691 -0.4383 -0.4368
  668MOL0     C90050   7.151   1.972   9.231 -0.1904  0.3892  0.5042
  668MOL0     C90051   7.236   1.911   9.140 -0.7176  0.0322 -0.0610
  668MOL0     C90052   7.354   1.973   9.094 -0.6581  0.0499 -0.9453
  668MOL0     O90053   7.439   1.885   9.029  0.3191 -0.5254  0.1940
  668MOL0     C90054   7.575   1.918   9.008  0.0975 -0.5861 -0.2072
  668MOL0     C90055   7.596   1.994   8.880 -0.5145 -0.2586  0.4989
  668MOL0     C90056   7.715   2.089   8.870 -0.0807 -0.4483  0.2571
  668MOL0     C90057   7.840   2.010   8.843  0.8491  0.6121  0.8206
  668MOL0     C90058   7.951   2.100   8.805  0.8556 -0.2232  0.6615
  668MOL0     C90059   7.940   2.135   8.655  0.6930 -0.0764 -0.0152
  668MOL0     C90060   8.087   2.183   8.620 -0.5028 -0.4652 -0.3417
  668MOL0     C90061   8.184   2.058   8.593 -0.0787  0.7616  0.6119
  668MOL0     N90062   8.320   2.104   8.555  0.2019 -0.4313  0.1612
  668MOL0     C90063   8.351   2.161   8.437  0.4757  0.1802  1.2078
  668MOL0     C90064   8.467   2.229   8.464  0.2367 -0.7249 -0.7971
  668MOL0     C90065   8.538   2.324   8.360 -0.6845 -1.0752 -0.7970
  668MOL0     C90066   8.502   2.475   8.370  0.0584  0.3663  0.1142
  668MOL0     C90067   8.562   2.548   8.257 -0.6790 -0.4276 -0.7481
  668MOL0     C90068   8.718   2.554   8.263  0.3692  1.1332  0.5475
  668MOL0     O90069   8.750   2.675   8.190 -0.0188 -0.0369  0.6205
  668MOL0     C90070   8.883   2.695   8.160  0.4746  0.4700 -0.3501
  668MOL0     C90071   8.925   2.808   8.089 -0.0459  0.0113 -0.3806
  668MOL0     C90072   9.065   2.838   8.075 -0.0719 -0.6935 -0.1617
  668MOL0     C90073   9.164   2.757   8.129  0.3524  0.0942 -0.6568
  668MOL0     C90074   9.309   2.781   8.119  0.4360 -0.1864  0.1775
  668MOL0     O90075   9.337   2.882   8.027  0.5071  0.3873 -0.3197
  668MOL0     C90076   9.456   2.878   7.956  0.2012  0.3173  0.4214
  668MOL0     C90077   9.510   2.764   7.883  0.0479 -0.0859 -1.2990
  668MOL0     C90078   9.627   2.788   7.800  0.3824 -0.7528  0.0897
  668MOL0     C90079   9.695   2.906   7.805 -0.3420 -1.0781 -0.1779
  668MOL0     O90080   9.799   2.920   7.719 -0.5126  0.3903  0.3419
  668MOL0     C90081   9.810   3.034   7.628 -0.2862  0.0240 -0.0436
  668MOL0     C90082   9.715   3.033   7.516 -0.4097  0.0267  0.4053
  668MOL0     C90083   9.582   3.090   7.562 -0.0719 -0.8138  0.1935
  668MOL0     C90084   9.482   3.083   7.446  0.6156 -0.4282 -0.3406
  668MOL0     C90085   9.354   3.162   7.466  0.3939  0.2126  0.1685
  668MOL0     C90086   9.272   3.130   7.595 -0.5973 -1.3067  0.6355
  668MOL0     C90087   9.231   2.983   7.598 -0.3929 -1.4447  0.5981
  668MOL0     C90088   9.134   2.973   7.717 -0.4059 -0.3807 -0.5443
  668MOL0    Cl90089   9.052   2.812   7.744  0.2151  0.2608  0.0169
  668MOL0     C90090   9.643   3.011   7.886  0.4911 -1.0515 -0.2991
  668MOL0     C90091   9.519   2.994   7.944  0.0507 -0.4239  0.0015
  668MOL0     O90092   9.385   2.698   8.163 -0.4284  0.8486  0.2674
  668MOL0     C90093   9.124   2.645   8.201 -0.5670 -0.2541 -0.6940
  668MOL0     C90094   8.986   2.608   8.219 -0.2909  0.0203 -0.7316
  668MOL0     N90095   8.492   2.221   8.598 -0.3730  0.2596 -0.2351
  668MOL0     N90096   8.412   2.141   8.658  0.0683 -0.4487 -0.3237
  668MOL0     C90097   7.369   2.104   9.134  0.0492 -0.7618  0.0680
  668MOL0     C90098   7.290   2.166   9.232 -0.1561 -0.7240 -0.1210
  668MOL0     C90099   6.904   2.112   9.540 -0.4425  0.3853  0.5297
  668MOL0     C90100   6.849   2.048   9.650  0.5233 -0.7319 -0.1967
  668MOL0     C90101   6.725   2.069   9.694  0.2100 -0.1087 -0.2602
  668MOL0     C90102   6.656   2.170   9.638 -0.8629 -0.7968 -0.2720
  668MOL0     O90103   6.545   2.227   9.690 -0.1910  0.0575 -0.1790
  668MOL0     C90104   6.471   2.149   9.777  1.0120  1.2372  0.4772
  668MOL0     C90105   6.333   2.203   9.778 -0.7647  0.4623  0.3329
  668MOL0     C90106   6.285   2.242   9.643 -0.3188  0.1697 -0.2017
  668MOL0     C90107   6.131   2.273   9.633  1.2038 -0.8281  0.3815
  668MOL0     C90108   6.092   2.367   9.734 -0.1698 -0.3182  0.3872
  668MOL0     C90109   6.055   2.451   9.821 -0.0124 -0.3170  0.2722
  668MOL0     C90110   6.716   2.256   9.551 -0.2440  1.1931 -0.5051
  668MOL0     C90111   6.837   2.220   9.485  0.2530 -0.4682 -0.0158
  668MOL0     C90112   6.868   2.296   9.365 -0.2879  0.4174  0.3238
  668MOL0     H90113   7.055   1.927   9.252 -1.0309  1.2757 -1.3265
  668MOL0     H90114   7.211   1.813   9.099 -1.1524  0.4196 -0.7308
  668MOL0     H90115   7.607   1.987   9.087 -1.3615  1.7861 -1.5784
  668MOL0     H90116   7.650   1.839   9.012  1.8293  1.0292  1.3305
  668MOL0     H90117   7.505   2.054   8.876 -2.2443 -2.5335  2.3905
  668MOL0     H90118   7.599   1.927   8.793  4.3506 -1.4346  1.2435
  668MOL0     H90119   7.724   2.160   8.953 -0.6584  1.0859 -0.9417
  668MOL0     H90120   7.700   2.151   8.781 -2.1081 -0.6543  0.4114
  668MOL0     H90121   7.876   1.955   8.931  3.1523 -1.7820 -1.4315
  668MOL0     H90122   7.823   1.933   8.768  3.2396  1.7632 -1.0592
  668MOL0     H90123   7.941   2.198   8.852  2.8402  2.5757 -3.9763
  668MOL0     H90124   8.048   2.057   8.829  1.2971 -0.9576 -2.0268
  668MOL0     H90125   7.918   2.048   8.592 -0.3625 -0.4443  0.8276
  668MOL0     H90126   7.865   2.214   8.642 -1.0140 -1.7327 -0.8200
  668MOL0     H90127   8.131   2.252   8.693  1.9514 -0.4013 -1.7857
  668MOL0     H90128   8.074   2.233   8.524  2.8560  0.7405 -0.3033
  668MOL0     H90129   8.210   2.002   8.683 -1.0419  0.2748  0.6033
  668MOL0     H90130   8.148   1.985   8.520 -1.4507  0.8542  1.1504
  668MOL0     H90131   8.293   2.159   8.345  1.0271  0.4282  0.8562
  668MOL0     H90132   8.644   2.308   8.385 -1.1345 -0.7964  1.5308
  668MOL0     H90133   8.509   2.296   8.259 -0.6151  0.7764 -1.3644
  668MOL0     H90134   8.393   2.482   8.363  0.0375  0.6052  0.6188
  668MOL0     H90135   8.524   2.517   8.469 -1.7879  0.0154  0.7094
  668MOL0     H90136   8.520   2.647   8.276 -0.0847 -0.5749  1.7571
  668MOL0     H90137   8.530   2.503   8.163  0.1841  0.0691 -1.3012
  668MOL0     H90138   8.759   2.464   8.216 -1.2674 -0.6220  2.2693
  668MOL0     H90139   8.758   2.550   8.365 -3.3905  1.2334  2.1690
  668MOL0     H90140   8.843   2.874   8.063  0.7363  0.6274 -1.3862
  668MOL0     H90141   9.093   2.929   8.021  1.1696 -0.7477  0.3581
  668MOL0     H90142   9.447   2.675   7.884 -1.7017  1.0724  1.3895
  668MOL0     H90143   9.654   2.702   7.741 -2.2672 -2.3325  0.9938
  668MOL0     H90144   9.807   3.127   7.685  1.4479 -0.1586  0.3899
  668MOL0     H90145   9.906   3.031   7.575 -0.2455  1.0991 -0.0490
  668MOL0     H90146   9.750   3.102   7.438  0.6041  2.6389  2.9698
  668MOL0     H90147   9.702   2.929   7.487 -0.2185  0.1351 -0.0759
  668MOL0     H90148   9.535   3.052   7.653  0.8279  0.6588  1.3321
  668MOL0     H90149   9.603   3.196   7.577 -4.0357  0.1077  0.3043
  668MOL0     H90150   9.463   2.976   7.437 -0.3099 -0.3174  0.1149
  668MOL0     H90151   9.520   3.118   7.350  0.8316 -0.7515 -0.3720
  668MOL0     H90152   9.286   3.154   7.380  0.2406  1.7500  0.1120
  668MOL0     H90153   9.388   3.266   7.476  0.0295  0.3471  0.0571
  668MOL0     H90154   9.324   3.152   7.689 -0.9048 -0.5177  0.6218
  668MOL0     H90155   9.197   3.208   7.586 -0.7456 -1.5454 -0.4264
  668MOL0     H90156   9.317   2.917   7.600  1.6676  1.0821  2.7454
  668MOL0     H90157   9.180   2.962   7.503 -0.3410  0.7536  0.0267
  668MOL0     H90158   9.186   2.998   7.809 -4.7038 -0.6197  2.2542
  668MOL0     H90159   9.051   3.043   7.707 -1.2376 -1.2105  0.3111
  668MOL0     H90160   9.689   3.109   7.878 -1.6938 -0.0536 -1.4277
  668MOL0     H90161   9.479   3.082   7.994 -0.4262 -0.2982 -0.5918
  668MOL0     H90162   9.205   2.582   8.238  0.5268  1.1140 -0.7068
  668MOL0     H90163   8.987   2.516   8.278 -1.3936  0.0063 -0.7284
  668MOL0     H90164   7.458   2.160   9.105  0.9329 -0.3772  3.1047
  668MOL0     H90165   7.315   2.267   9.262  1.1711 -0.4374 -2.0467
  668MOL0     H90166   6.909   1.975   9.704 -0.9700 -1.0749  1.0639
  668MOL0     H90167   6.692   2.008   9.777  0.2128  0.5049  0.2014
  668MOL0     H90168   6.517   2.120   9.872  1.2116 -4.8252 -1.0813
  668MOL0     H90169   6.457   2.050   9.732  1.5399  0.4008  2.0525
  668MOL0     H90170   6.324   2.292   9.842 -1.7284 -0.1245  1.0465
  668MOL0     H90171   6.265   2.135   9.830 -0.1580  1.5555  2.7163
  668MOL0     H90172   6.319   2.164   9.574  2.1840  1.9559 -1.1628
  668MOL0     H90173   6.329   2.339   9.617 -0.9902  0.8391  1.0568
  668MOL0     H90174   6.102   2.317   9.537 -0.4313 -1.0204  0.7689
  668MOL0     H90175   6.071   2.184   9.651 -1.9344  1.3088  1.3122
  668MOL0     H90176   6.031   2.529   9.890  1.8326 -0.2377  0.8988
  668MOL0     H90177   6.672   2.352   9.526 -0.8493  0.9179 -0.5222
  668MOL0     H90178   6.880   2.224   9.284  1.6822  0.0579  0.8919
  668MOL0     H90179   6.792   2.370   9.337  1.4245  2.3182  0.5141
  668MOL0     H90180   6.963   2.348   9.370  1.3084 -2.3850  1.4939
  669MOL0     O90181   9.827   7.223   6.165  0.3610  0.0402  0.6613
  669MOL0     C90182   9.792   7.246   6.047 -0.0748  0.3227 -0.3072
  669MOL0     O90183   9.694   7.330   6.007  0.0906 -0.3242  0.8285
  669MOL0     C90184   9.594   7.357   6.091  0.4707 -0.5097  0.6570
  669MOL0     C90185   9.525   7.269   6.170  0.0383 -0.0370 -0.2971
  669MOL0     C90186   9.422   7.311   6.252  1.0525 -0.1513  0.1627
  669MOL0     C90187   9.375   7.442   6.244 -0.2943 -0.0807 -0.4638
  669MOL0     O90188   9.262   7.473   6.307  0.3561 -0.0447  0.2857
  669MOL0     C90189   9.205   7.405   6.420 -0.0306 -0.1452 -0.6067
  669MOL0     C90190   9.082   7.471   6.476  0.3839 -0.5570  0.2869
  669MOL0     C90191   8.958   7.427   6.399 -0.8984 -0.2499 -0.4066
  669MOL0     C90192   8.827   7.445   6.478 -0.4227  0.0019  0.5942
  669MOL0     C90193   8.819   7.351   6.602 -0.1186  0.3845  0.5548
  669MOL0     C90194   8.765   7.210   6.554 -0.3637 -0.4292  0.3827
  669MOL0     C90195   8.617   7.222   6.522  0.5107  0.8063  0.1523
  669MOL0     C90196   8.572   7.090   6.459  0.2180  0.2204  1.1984
  669MOL0     N90197   8.612   6.968   6.539  0.4248  0.5881  0.6035
  669MOL0     C90198   8.718   6.878   6.511 -0.7336 -0.4664 -0.1458
  669MOL0     C90199   8.704   6.780   6.601  0.6596  0.0801  0.1013
  669MOL0     C90200   8.791   6.655   6.629 -0.4348  0.8250  0.1695
  669MOL0     C90201   8.728   6.522   6.615  0.5547 -0.6401  0.2924
  669MOL0     C90202   8.830   6.414   6.619 -0.8043 -0.2785  0.6422
  669MOL0     C90203   8.922   6.393   6.737 -0.4654 -1.0158 -0.0427
  669MOL0     O90204   9.028   6.491   6.736 -0.1412 -0.0755 -0.0965
  669MOL0     C90205   9.124   6.490   6.839  0.8749  0.7031  0.7297
  669MOL0     C90206   9.118   6.425   6.958 -0.6483 -0.5350 -0.3504
  669MOL0     C90207   9.212   6.445   7.062 -0.0236  0.2972  0.1058
  669MOL0     C90208   9.327   6.522   7.032  0.7649 -0.2903  0.6409
  669MOL0     C90209   9.423   6.558   7.134 -0.5130  0.3040 -1.2149
  669MOL0     O90210   9.413   6.505   7.258  0.4154  0.7777  0.1896
  669MOL0     C90211   9.511   6.535   7.351 -0.5897  0.1466 -0.2845
  669MOL0     C90212   9.627   6.456   7.363  0.3204 -0.4028  1.6887
  669MOL0     C90213   9.715   6.471   7.464 -0.4887  0.5214  1.0917
  669MOL0     C90214   9.714   6.580   7.546  0.6268  0.5718  0.1248
  669MOL0     O90215   9.823   6.597   7.627 -0.8776 -0.1847 -0.6169
  669MOL0     C90216   9.852   6.731   7.676  0.2020 -0.1757  0.0811
  669MOL0     C90217   9.991   6.727   7.748  0.3118  0.3161 -1.1367
  669MOL0     C90218  10.115   6.714   7.647  0.1411 -0.4350  0.1492
  669MOL0     C90219  10.244   6.682   7.724 -0.4290  0.2971 -0.0610
  669MOL0     C90220  10.372   6.661   7.635 -0.7682 -0.4407  0.3394
  669MOL0     C90221  10.499   6.676   7.728 -1.1291  0.0561 -0.2884
  669MOL0     C90222  10.498   6.585   7.858 -0.5756 -1.1182  0.1092
  669MOL0     C90223  10.639   6.568   7.910 -0.1559  0.0929 -0.5786
  669MOL0    Cl90224  10.650   6.510   8.087 -0.4032  0.1035 -0.1012
  669MOL0     C90225   9.598   6.663   7.540 -0.9197  0.2640 -0.3112
  669MOL0     C90226   9.496   6.643   7.446 -0.3111  0.0446  0.6484
  669MOL0     O90227   9.527   6.623   7.095  0.3906  0.7299 -0.0963
  669MOL0     C90228   9.344   6.569   6.899  0.4865  0.1565 -0.0564
  669MOL0     C90229   9.245   6.559   6.808  0.5781  0.3113  0.3490
  669MOL0     N90230   8.588   6.806   6.678 -0.1867  0.5128  0.1685
  669MOL0     N90231   8.532   6.913   6.634  0.0195 -0.0383 -0.3853
  669MOL0     C90232   9.434   7.526   6.153  0.9589  0.4650 -0.5843
  669MOL0     C90233   9.541   7.482   6.078 -0.5990 -0.0763  1.0728
  669MOL0     C90234   9.879   7.181   5.953  0.0635  0.0892  0.4829
  669MOL0     C90235   9.896   7.043   5.959  0.2799  0.3035  0.7043
  669MOL0     C90236   9.979   6.985   5.870  0.2756 -0.5488 -0.3689
  669MOL0     C90237  10.027   7.051   5.760 -0.2248  0.3888 -0.6644
  669MOL0     O90238  10.107   6.999   5.661  0.4508  0.5919 -0.7361
  669MOL0     C90239  10.161   6.864   5.678  0.2752  0.0991 -0.8453
  669MOL0     C90240  10.069   6.736   5.667  0.4438  0.1601 -0.1708
  669MOL0     C90241   9.979   6.745   5.544  0.8152  0.0402 -0.8266
  669MOL0     C90242   9.886   6.626   5.529 -0.5862 -0.4324 -0.3703
  669MOL0     C90243   9.800   6.642   5.406 -0.7793 -0.6492  0.1036
  669MOL0     C90244   9.745   6.652   5.302  0.6340 -0.2918 -0.8784
  669MOL0     C90245  10.004   7.187   5.752  0.5852 -0.8564  0.3687
  669MOL0     C90246   9.935   7.255   5.851  0.0025 -0.0941 -0.2442
  669MOL0     C90247   9.919   7.404   5.843 -0.4642 -0.6440  0.5172
  669MOL0     H90248   9.572   7.171   6.178  0.4796  0.1663 -0.3566
  669MOL0     H90249   9.377   7.234   6.314  0.0346  0.0004 -0.3562
  669MOL0     H90250   9.178   7.304   6.386  0.7024 -0.9904  1.1917
  669MOL0     H90251   9.287   7.401   6.493 -0.3306  3.5044  0.1043
  669MOL0     H90252   9.092   7.580   6.471 -0.4123 -0.4695  0.5459
  669MOL0     H90253   9.075   7.441   6.581 -0.8847  0.5426  0.5435
  669MOL0     H90254   8.968   7.321   6.372 -2.3710 -0.8799  1.2536
  669MOL0     H90255   8.939   7.488   6.310 -2.7467 -2.2577 -1.5072
  669MOL0     H90256   8.814   7.549   6.508 -4.1057 -0.1749  0.0847
  669MOL0     H90257   8.743   7.416   6.414  0.3941  0.7493 -0.8535
  669MOL0     H90258   8.910   7.359   6.662  0.8481  1.0399 -0.9244
  669MOL0     H90259   8.746   7.409   6.659  0.6997  1.9471  0.0459
  669MOL0     H90260   8.818   7.184   6.461 -0.7571 -0.3897  0.1461
  669MOL0     H90261   8.779   7.136   6.633 -1.3849  0.9418  1.9311
  669MOL0     H90262   8.597   7.312   6.463  0.5727  0.8113  0.1374
  669MOL0     H90263   8.555   7.245   6.609 -0.5749 -2.0213  0.2489
  669MOL0     H90264   8.464   7.093   6.441  0.3251 -1.8360 -0.0887
  669MOL0     H90265   8.615   7.069   6.361 -3.9905 -0.3969 -0.7473
  669MOL0     H90266   8.792   6.891   6.432 -0.0721  0.0445  0.5483
  669MOL0     H90267   8.884   6.657   6.572 -1.5812 -4.1325 -2.4967
  669MOL0     H90268   8.817   6.657   6.735  1.0099  1.1434 -0.1690
  669MOL0     H90269   8.651   6.505   6.691 -1.6769 -0.5482 -1.8181
  669MOL0     H90270   8.684   6.515   6.515  0.8055  0.3759  0.1014
  669MOL0     H90271   8.888   6.432   6.528 -0.8911  0.9634  0.8228
  669MOL0     H90272   8.784   6.315   6.608  1.2022 -1.0056 -2.9529
  669MOL0     H90273   8.966   6.293   6.730 -0.4777 -0.9530 -1.2479
  669MOL0     H90274   8.863   6.391   6.829  0.5654 -0.6349  0.6458
  669MOL0     H90275   9.031   6.362   6.971 -2.3496  1.3383 -1.9627
  669MOL0     H90276   9.213   6.402   7.161  1.0431  0.1540  0.0476
  669MOL0     H90277   9.636   6.380   7.286  1.5502  2.7398 -1.5281
  669MOL0     H90278   9.801   6.407   7.485 -0.8646 -0.1386  0.6297
  669MOL0     H90279   9.851   6.806   7.597  0.4412 -1.1167 -0.8490
  669MOL0     H90280   9.776   6.749   7.753  0.5800  1.1496  0.1637
  669MOL0     H90281  10.005   6.823   7.797  3.5405 -0.9282  0.7063
  669MOL0     H90282   9.993   6.654   7.830 -2.3548  1.0805 -0.2815
  669MOL0     H90283  10.093   6.637   7.573 -0.3373  0.9755 -1.2274
  669MOL0     H90284  10.134   6.803   7.587  1.7717 -0.2959  0.8258
  669MOL0     H90285  10.223   6.599   7.791 -2.6241  1.1473  0.4128
  669MOL0     H90286  10.250   6.767   7.793 -1.0763  1.5618 -1.4929
  669MOL0     H90287  10.381   6.738   7.558  1.4539 -0.9254  0.0489
  669MOL0     H90288  10.363   6.562   7.589 -1.6357 -1.0461  1.7426
  669MOL0     H90289  10.582   6.640   7.667 -0.8931 -2.2886  1.2835
  669MOL0     H90290  10.509   6.779   7.762  2.5065 -0.7550  1.6458
  669MOL0     H90291  10.461   6.486   7.827 -1.5418 -0.9713  0.7489
  669MOL0     H90292  10.421   6.617   7.929 -3.1259 -2.0739 -2.0185
  669MOL0     H90293  10.699   6.501   7.848  1.4389 -1.0282  1.9920
  669MOL0     H90294  10.686   6.667   7.905  2.3532 -1.0576 -2.2780
  669MOL0     H90295   9.590   6.747   7.608  0.3755  0.1734 -0.0259
  669MOL0     H90296   9.406   6.702   7.456  1.4696  2.6055  3.3312
  669MOL0     H90297   9.432   6.628   6.872 -0.3566  1.3861 -0.2031
  669MOL0     H90298   9.249   6.608   6.712 -4.2222  0.2796 -0.0942
  669MOL0     H90299   9.397   7.627   6.135  1.3392  0.3054 -2.5476
  669MOL0     H90300   9.575   7.547   5.997 -0.3478  1.1306  2.1027
  669MOL0     H90301   9.862   6.981   6.041  2.4269 -1.3080  0.4807
  669MOL0     H90302  10.013   6.884   5.891 -1.0064 -0.8421  0.4572
  669MOL0     H90303  10.216   6.853   5.772 -0.7719 -1.7931 -0.3956
  669MOL0     H90304  10.240   6.839   5.607 -0.8256 -1.8755 -1.4228
  669MOL0     H90305  10.008   6.731   5.757 -2.3845  1.9039 -1.8381
  669MOL0     H90306  10.130   6.646   5.661 -0.0144 -0.0792 -2.3691
  669MOL0     H90307  10.046   6.750   5.457  1.1045 -2.3092 -0.7803
  669MOL0     H90308   9.921   6.838   5.543  1.2486  0.3256 -0.0891
  669MOL0     H90309   9.935   6.529   5.519  1.0163  0.3587 -0.4425
  669MOL0     H90310   9.823   6.626   5.619 -0.3671 -2.3463 -0.1690
  669MOL0     H90311   9.679   6.658   5.217 -0.8992 -2.1663  0.1002
  669MOL0     H90312  10.032   7.250   5.667 -1.4632  1.7681  1.4831
  669MOL0     H90313   9.837   7.423   5.773  0.9765  2.2602 -0.5539
  669MOL0     H90314   9.911   7.450   5.941 -0.2617  2.5257 -0.8403
  669MOL0     H90315  10.000   7.450   5.786 -2.4830  3.8528  0.8470
  670MOL0     O90316   0.084   7.829   9.070 -0.0229  0.3739  0.2973
  670MOL0     C90317   0.040   7.729   9.012  0.0912  0.3617  0.4445
  670MOL0     O90318   0.054   7.697   8.876  0.5200 -0.7958 -0.4456
  670MOL0     C90319   0.150   7.760   8.802 -0.4325  0.9106 -0.1525
  670MOL0     C90320   0.125   7.889   8.752 -0.0219  0.2555 -0.6387
  670MOL0     C90321   0.214   7.957   8.664 -0.6395 -0.2139 -0.5828
  670MOL0     C90322   0.327   7.907   8.617 -0.1900  0.1489 -0.8901
  670MOL0     O90323   0.409   7.969   8.524  0.3197  0.5649  0.7306
  670MOL0     C90324   0.525   8.033   8.575 -0.3205 -1.0511 -0.5397
  670MOL0     C90325   0.539   8.178   8.526 -0.9211 -0.0308  0.2904
  670MOL0     C90326   0.546   8.199   8.380 -0.1563  0.1117  0.2887
  670MOL0     C90327   0.569   8.346   8.333  0.6455  0.3704 -0.1745
  670MOL0     C90328   0.531   8.362   8.185 -0.1440  0.0810 -0.4548
  670MOL0     C90329   0.379   8.345   8.158 -0.3452  0.2158  0.3896
  670MOL0     C90330   0.334   8.469   8.095 -0.1051  0.7740  0.6534
  670MOL0     C90331   0.345   8.465   7.943 -0.4088 -0.6156  0.3342
  670MOL0     N90332   0.302   8.594   7.882 -0.0943 -0.1562  0.2847
  670MOL0     C90333   0.172   8.639   7.882  0.2434 -0.5649  0.8780
  670MOL0     C90334   0.191   8.765   7.834 -0.3800  0.2740  0.4932
  670MOL0     C90335   0.077   8.865   7.815 -0.3499  0.4445 -0.4023
  670MOL0     C90336  -0.034   8.809   7.718  0.5020 -0.9178 -0.5298
  670MOL0     C90337   0.025   8.757   7.587 -0.1229 -0.6960  0.4062
  670MOL0     C90338  -0.075   8.717   7.483 -0.0876  0.6767  1.0040
  670MOL0     O90339  -0.159   8.830   7.459  0.1772  0.0189 -0.1012
  670MOL0     C90340  -0.141   8.900   7.341  0.0988 -0.2470  0.9357
  670MOL0     C90341  -0.109   9.034   7.342  0.3534  0.5423 -0.7923
  670MOL0     C90342  -0.076   9.106   7.229 -0.2243 -0.0218 -0.7485
  670MOL0     C90343  -0.071   9.041   7.109  0.3884  0.9008  0.2291
  670MOL0     C90344  -0.042   9.120   6.988 -0.6756  0.1706  0.5805
  670MOL0     O90345  -0.034   9.052   6.871  0.0058 -0.2203 -0.5126
  670MOL0     C90346  -0.025   9.117   6.752  0.4291 -0.7440  0.7928
  670MOL0     C90347   0.052   9.062   6.651  0.7114 -0.4405  0.4265
  670MOL0     C90348   0.075   9.119   6.520 -0.1152  0.1935 -0.0313
  670MOL0     C90349   0.011   9.234   6.488  0.2547  0.3060  0.5947
  670MOL0     O90350   0.039   9.295   6.367 -0.1654 -0.2021  0.5547
  670MOL0     C90351   0.022   9.209   6.254  0.3396 -0.7854 -0.1057
  670MOL0     C90352   0.098   9.252   6.133  0.1398 -0.3009 -0.1557
  670MOL0     C90353   0.247   9.224   6.140  0.1159 -0.0059  0.1305
  670MOL0     C90354   0.320   9.305   6.024  0.3302  0.3457 -0.8013
  670MOL0     C90355   0.469   9.259   6.003 -0.5779  0.2867  1.0357
  670MOL0     C90356   0.536   9.343   5.900  0.4015  0.3074 -0.1315
  670MOL0     C90357   0.684   9.345   5.914  0.2367 -0.0710  0.5589
  670MOL0     C90358   0.749   9.213   5.870  0.7428  0.1702  0.2475
  670MOL0    Cl90359   0.921   9.229   5.808  0.1798  0.2061  0.0890
  670MOL0     C90360  -0.069   9.297   6.580 -0.1261  0.1298 -0.4480
  670MOL0     C90361  -0.092   9.240   6.715  0.2349 -0.3951 -0.3714
  670MOL0     O90362  -0.035   9.239   7.006 -0.2368 -0.0882  0.0901
  670MOL0     C90363  -0.097   8.904   7.108 -0.2237 -0.1370  0.2192
  670MOL0     C90364  -0.133   8.838   7.222  0.5967 -0.6254  0.0411
  670MOL0     N90365   0.321   8.792   7.811 -0.5078 -1.2726 -0.1927
  670MOL0     N90366   0.390   8.684   7.835  1.0445 -0.7721 -0.3890
  670MOL0     C90367   0.354   7.776   8.663 -0.3158  0.1274  0.5198
  670MOL0     C90368   0.265   7.703   8.747  0.0747 -0.0622  0.2110
  670MOL0     C90369  -0.058   7.644   9.083 -0.6099 -0.0356 -0.2543
  670MOL0     C90370  -0.029   7.621   9.215 -0.3736 -0.5059  0.2329
  670MOL0     C90371  -0.119   7.555   9.288  0.4997  0.5618 -0.0339
  670MOL0     C90372  -0.228   7.485   9.229  0.1457  0.3724  1.0192
  670MOL0     O90373  -0.328   7.419   9.300  0.2747  0.7080 -0.3514
  670MOL0     C90374  -0.276   7.331   9.402  0.8762  0.3322  0.1151
  670MOL0     C90375  -0.342   7.190   9.410  0.2347  0.1150  0.4375
  670MOL0     C90376  -0.501   7.204   9.440 -0.6111  0.3003 -0.3869
  670MOL0     C90377  -0.523   7.248   9.584  0.2155  0.1320 -0.7980
  670MOL0     C90378  -0.454   7.149   9.669  0.2316  0.2717  0.2847
  670MOL0     C90379  -0.395   7.050   9.720  0.1423 -0.5655  0.4816
  670MOL0     C90380  -0.251   7.513   9.095 -0.7188 -0.2405  0.1671
  670MOL0     C90381  -0.173   7.597   9.023 -0.4959  0.0106  0.9529
  670MOL0     C90382  -0.206   7.619   8.876 -0.0760 -0.4211  0.5937
  670MOL0     H90383   0.031   7.939   8.772 -0.3656  0.3855 -2.4002
  670MOL0     H90384   0.187   8.058   8.635  0.8263  0.7580  1.2538
  670MOL0     H90385   0.518   8.040   8.684 -2.8059  0.6626 -0.7036
  670MOL0     H90386   0.614   7.981   8.539  0.0130 -0.6651 -0.2701
  670MOL0     H90387   0.629   8.216   8.576 -0.0311 -0.4631 -0.9363
  670MOL0     H90388   0.453   8.239   8.552 -1.2638 -0.1941 -0.4277
  670MOL0     H90389   0.451   8.171   8.335  0.0839 -1.1547  0.5245
  670MOL0     H90390   0.624   8.132   8.341  0.0645 -0.6552  1.9735
  670MOL0     H90391   0.522   8.422   8.397  1.0211 -0.8704  1.6592
  670MOL0     H90392   0.673   8.371   8.353 -0.0059  2.3028  1.0751
  670MOL0     H90393   0.564   8.459   8.147 -0.4459  0.6520  0.6851
  670MOL0     H90394   0.576   8.279   8.130  0.9004  0.4326 -0.1638
  670MOL0     H90395   0.357   8.251   8.106 -1.2524 -1.0592  2.8974
  670MOL0     H90396   0.328   8.334   8.255  1.6005  0.6327  1.5084
  670MOL0     H90397   0.386   8.559   8.130 -0.4067  1.9861 -1.8188
  670MOL0     H90398   0.233   8.492   8.130 -0.1380  3.2700 -0.8246
  670MOL0     H90399   0.451   8.442   7.926 -0.9324 -2.8411 -0.1640
  670MOL0     H90400   0.293   8.381   7.895  1.1295 -0.7109 -1.2955
  670MOL0     H90401   0.084   8.583   7.913 -0.6135 -1.1213 -2.2519
  670MOL0     H90402   0.044   8.892   7.916  0.1242 -2.1142  0.5174
  670MOL0     H90403   0.118   8.957   7.770  0.4793 -0.0432 -0.6689
  670MOL0     H90404  -0.081   8.724   7.769 -0.2314 -1.8450 -2.6582
  670MOL0     H90405  -0.110   8.881   7.689 -0.9409 -1.2132  2.1508
  670MOL0     H90406   0.094   8.672   7.592 -0.2652 -1.0334 -1.8906
  670MOL0     H90407   0.088   8.842   7.557 -0.5124 -0.1343  1.1483
  670MOL0     H90408  -0.121   8.622   7.509 -3.0497  0.8654 -2.7402
  670MOL0     H90409  -0.024   8.694   7.389 -0.3769 -1.5630  1.3453
  670MOL0     H90410  -0.113   9.090   7.435 -2.0440 -2.1037  0.8622
  670MOL0     H90411  -0.059   9.212   7.245 -1.5564 -0.3060  4.4852
  670MOL0     H90412   0.121   8.982   6.676 -0.3714 -1.3502  0.5984
  670MOL0     H90413   0.151   9.081   6.453 -1.6093  2.5862 -3.3089
  670MOL0     H90414   0.061   9.111   6.282  1.4014 -0.1388  0.7288
  670MOL0     H90415  -0.084   9.205   6.225  0.2760  1.9067 -0.4582
  670MOL0     H90416   0.051   9.217   6.040 -0.6356  0.2508  0.0175
  670MOL0     H90417   0.076   9.359   6.125  0.3836 -0.2172  0.2586
  670MOL0     H90418   0.287   9.241   6.240 -0.2375 -1.5390  0.5626
  670MOL0     H90419   0.268   9.117   6.131 -1.2297 -1.0362  5.7532
  670MOL0     H90420   0.322   9.413   6.041  2.0720  0.1666  0.4561
  670MOL0     H90421   0.263   9.295   5.931 -0.0441 -1.2471 -0.4440
  670MOL0     H90422   0.467   9.155   5.971 -0.0990  0.2755  1.0259
  670MOL0     H90423   0.528   9.271   6.094 -0.5946  4.2231  0.7143
  670MOL0     H90424   0.515   9.312   5.797  0.6445  2.4088 -0.8621
  670MOL0     H90425   0.495   9.443   5.913 -1.1186 -0.2370 -0.5789
  670MOL0     H90426   0.714   9.362   6.018 -1.4519  1.1141  0.9027
  670MOL0     H90427   0.725   9.429   5.856 -0.3027  1.5446  2.4034
  670MOL0     H90428   0.726   9.140   5.948 -0.8718 -0.3885 -0.6821
  670MOL0     H90429   0.695   9.168   5.786  1.0538 -0.9012  0.6093
  670MOL0     H90430  -0.119   9.391   6.561  0.6189  1.0980  2.0440
  670MOL0     H90431  -0.130   9.306   6.793  2.4925  0.7364 -0.1558
  670MOL0     H90432  -0.092   8.847   7.016 -0.9044  0.8229 -0.4427
  670MOL0     H90433  -0.146   8.731   7.216 -1.1716 -0.4495  0.3251
  670MOL0     H90434   0.442   7.719   8.635 -0.4674 -1.4527  2.9511
  670MOL0     H90435   0.282   7.598   8.770 -1.3817 -0.2603  0.4568
  670MOL0     H90436   0.062   7.657   9.261 -0.4046  2.1545 -1.5431
  670MOL0     H90437  -0.092   7.531   9.391 -3.1831 -3.4657  0.2860
  670MOL0     H90438  -0.273   7.370   9.504 -1.2328 -1.8858  1.1390
  670MOL0     H90439  -0.174   7.307   9.369  0.3756 -3.7577  1.0077
  670MOL0     H90440  -0.279   7.118   9.463 -0.7554  0.2652  1.8984
  670MOL0     H90441  -0.343   7.146   9.310  1.1695  2.2205 -0.5391
  670MOL0     H90442  -0.548   7.107   9.420  0.4691  0.1402 -2.3262
  670MOL0     H90443  -0.549   7.274   9.371 -0.3788  0.1635 -0.6882
  670MOL0     H90444  -0.485   7.344   9.618  0.8482 -0.8506  1.4386
  670MOL0     H90445  -0.628   7.258   9.613  0.6357  1.2003  0.4591
  670MOL0     H90446  -0.342   6.975   9.774  1.2619  1.5633  2.5353
  670MOL0     H90447  -0.332   7.459   9.048 -0.7267 -0.8505  0.8694
  670MOL0     H90448  -0.195   7.723   8.846  0.8086 -1.2025 -2.1218
  670MOL0     H90449  -0.132   7.566   8.814  0.5714  2.3938 -1.2110
  670MOL0     H90450  -0.309   7.588   8.856 -0.5849  1.4312  0.2287
  671MOL0     O90451   7.786   4.605   2.643  0.2307  0.3161 -0.1375
  671MOL0     C90452   7.713   4.508   2.655  1.0669  0.1324  0.7030
  671MOL0     O90453   7.739   4.373   2.645  0.1140 -0.3864 -0.2763
  671MOL0     C90454   7.872   4.343   2.628  0.1628 -0.6473 -0.1455
  671MOL0     C90455   7.951   4.310   2.745  0.3692 -0.4272  0.8601
  671MOL0     C90456   8.085   4.275   2.728  0.3285 -0.0015 -0.2387
  671MOL0     C90457   8.148   4.279   2.598  0.8067  0.8744 -0.2512
  671MOL0     O90458   8.281   4.244   2.583 -1.2212  0.2622  0.0632
  671MOL0     C90459   8.337   4.259   2.454 -0.4182 -0.3766 -0.1533
  671MOL0     C90460   8.487   4.228   2.462  0.4591 -0.0331 -0.2729
  671MOL0     C90461   8.565   4.294   2.342  0.6170 -0.3246 -1.0423
  671MOL0     C90462   8.712   4.261   2.356  0.0321 -0.0030  0.7065
  671MOL0     C90463   8.750   4.125   2.292 -0.1830 -0.3649 -0.7538
  671MOL0     C90464   8.890   4.127   2.232  0.4023 -1.2526  0.3399
  671MOL0     C90465   9.010   4.179   2.312 -1.1788 -0.1419 -0.3200
  671MOL0     C90466   9.142   4.174   2.226  0.7258 -0.0820  0.1728
  671MOL0     N90467   9.268   4.194   2.301 -0.6986 -0.0516 -0.4257
  671MOL0     C90468   9.359   4.097   2.342 -0.0431 -0.2908  1.2861
  671MOL0     C90469   9.466   4.159   2.392  0.4020  0.4119 -0.2162
  671MOL0     C90470   9.592   4.094   2.452 -0.7183 -0.1766 -1.3560
  671MOL0     C90471   9.589   4.071   2.608  0.0558 -0.2715 -0.8795
  671MOL0     C90472   9.727   4.100   2.674 -0.4157  0.4291  0.3085
  671MOL0     C90473   9.705   4.133   2.827 -0.4936  0.2555  0.0467
  671MOL0     O90474   9.835   4.127   2.893 -0.4582  0.1100  1.1464
  671MOL0     C90475   9.883   4.013   2.945  0.1139 -0.5550 -0.3800
  671MOL0     C90476   9.817   3.900   2.996 -0.3746 -0.4894 -0.2285
  671MOL0     C90477   9.885   3.784   3.028 -0.5018 -0.8362 -0.0543
  671MOL0     C90478  10.027   3.777   3.008 -0.6941 -0.1715 -0.0009
  671MOL0     C90479  10.102   3.650   3.023  0.5201 -0.3978 -0.4186
  671MOL0     O90480  10.234   3.656   2.990 -0.5735  0.0538 -0.1187
  671MOL0     C90481  10.316   3.548   3.004  0.3041 -0.2803  1.0470
  671MOL0     C90482  10.447   3.565   3.048  0.9077 -0.0774  0.8434
  671MOL0     C90483  10.529   3.453   3.058  0.0367  0.3698  0.1480
  671MOL0     C90484  10.493   3.329   3.010 -0.4066  0.6845 -0.2561
  671MOL0     O90485  10.581   3.233   3.036 -0.2794 -0.2092  0.6179
  671MOL0     C90486  10.567   3.094   3.002 -0.2232 -0.5743 -0.1996
  671MOL0     C90487  10.705   3.032   3.027  0.7236 -1.0865 -0.3208
  671MOL0     C90488  10.708   2.890   2.976  0.1953  0.2961 -0.0200
  671MOL0     C90489  10.853   2.837   2.962 -0.1254  0.1213 -0.8643
  671MOL0     C90490  10.858   2.691   2.976 -0.4404  0.1500  0.4832
  671MOL0     C90491  11.005   2.639   2.955  0.0641  0.4619  0.1276
  671MOL0     C90492  11.042   2.631   2.808  0.1818 -0.8364  0.2112
  671MOL0     C90493  11.185   2.592   2.793 -0.4110  1.0579 -0.6600
  671MOL0    Cl90494  11.222   2.616   2.619  0.0686  0.1827  0.1293
  671MOL0     C90495  10.363   3.302   2.964  0.2886  0.4102  0.3308
  671MOL0     C90496  10.277   3.419   2.960  0.3378 -0.1565  0.0617
  671MOL0     O90497  10.043   3.550   3.073 -0.3692 -0.0740  0.4700
  671MOL0     C90498  10.096   3.882   2.963  0.6234 -0.7012  0.7367
  671MOL0     C90499  10.023   3.997   2.937  0.8101  0.4455  0.3344
  671MOL0     N90500   9.444   4.294   2.399  0.5477  0.4995  0.0935
  671MOL0     N90501   9.323   4.314   2.354 -0.1066 -0.0560 -0.7736
  671MOL0     C90502   8.063   4.307   2.487  1.0483  0.0698 -0.4839
  671MOL0     C90503   7.927   4.346   2.502 -0.1265 -0.2100 -0.3072
  671MOL0     C90504   7.564   4.524   2.670  0.1983 -0.3262  0.3369
  671MOL0     C90505   7.490   4.460   2.776 -0.9460 -0.5077  0.3719
  671MOL0     C90506   7.357   4.493   2.790 -1.1885 -0.2536 -0.7119
  671MOL0     C90507   7.290   4.570   2.693 -0.3632  0.0507  0.5171
  671MOL0     O90508   7.158   4.588   2.707 -0.0517 -0.1218  0.2661
  671MOL0     C90509   7.070   4.634   2.604 -0.4043  1.2670 -0.3469
  671MOL0     C90510   6.939   4.614   2.651  0.1667  0.5700 -0.3463
  671MOL0     C90511   6.883   4.710   2.763  0.5739 -0.0220 -0.1475
  671MOL0     C90512   6.843   4.846   2.694  0.3904  0.8241  0.2344
  671MOL0     C90513   6.774   4.937   2.776  1.5538 -0.2740 -0.3397
  671MOL0     C90514   6.703   5.017   2.836 -0.2492  0.5005  0.1811
  671MOL0     C90515   7.354   4.605   2.579 -0.2210 -0.2838  0.3676
  671MOL0     C90516   7.489   4.594   2.566 -0.4111  0.1366 -0.2908
  671MOL0     C90517   7.567   4.650   2.441 -0.1444  0.1012  0.0979
  671MOL0     H90518   7.920   4.330   2.847  0.8987  3.4918  0.3955
  671MOL0     H90519   8.145   4.244   2.814 -1.8244  0.0180  1.3697
  671MOL0     H90520   8.297   4.194   2.376 -2.5751 -0.1106  0.6615
  671MOL0     H90521   8.314   4.359   2.414 -2.2282 -0.4920  0.5162
  671MOL0     H90522   8.499   4.119   2.458 -2.3970 -0.4273 -0.5681
  671MOL0     H90523   8.514   4.265   2.561 -3.6588  2.2411  0.1989
  671MOL0     H90524   8.549   4.402   2.341 -3.1974 -0.5004  3.9738
  671MOL0     H90525   8.527   4.258   2.246  1.0211  0.9548 -1.7096
  671MOL0     H90526   8.752   4.335   2.286 -2.6566 -0.2922 -1.2954
  671MOL0     H90527   8.749   4.273   2.458  0.6444  0.9592  0.3865
  671MOL0     H90528   8.748   4.054   2.375 -0.1897  0.2160 -0.2472
  671MOL0     H90529   8.680   4.100   2.212 -3.7006 -1.6711  2.4328
  671MOL0     H90530   8.908   4.026   2.195 -1.9576 -0.6565 -2.9081
  671MOL0     H90531   8.888   4.185   2.139  1.9288 -0.5239  0.7257
  671MOL0     H90532   9.028   4.120   2.403 -3.6360  0.7967  0.8731
  671MOL0     H90533   8.991   4.282   2.345  1.3903  0.1149  0.6509
  671MOL0     H90534   9.144   4.083   2.165  2.5825 -1.5054  2.2058
  671MOL0     H90535   9.144   4.263   2.163 -1.6514  0.1660  0.3510
  671MOL0     H90536   9.352   3.990   2.327  0.4640 -0.4210  1.9639
  671MOL0     H90537   9.608   4.001   2.397 -3.0603  0.5505 -3.4564
  671MOL0     H90538   9.677   4.160   2.434 -0.9112  0.8088  1.0443
  671MOL0     H90539   9.524   4.142   2.660  1.2476  2.3666 -2.7979
  671MOL0     H90540   9.552   3.974   2.642 -0.7383  1.1871  2.8584
  671MOL0     H90541   9.779   4.190   2.638  0.1432  1.2068  2.8923
  671MOL0     H90542   9.796   4.015   2.663  1.1190  1.4915  1.2670
  671MOL0     H90543   9.627   4.070   2.870 -0.2622 -0.4886 -0.5977
  671MOL0     H90544   9.685   4.240   2.833  0.8709  0.4638  1.4162
  671MOL0     H90545   9.709   3.901   3.004 -0.3237  2.3611  1.6050
  671MOL0     H90546   9.827   3.698   3.060 -1.9111  0.4093  0.9037
  671MOL0     H90547  10.473   3.662   3.090  0.8111  1.9286 -3.2583
  671MOL0     H90548  10.629   3.465   3.098  0.4857  2.6495 -1.4936
  671MOL0     H90549  10.496   3.051   3.073  2.7648  0.0859  3.4395
  671MOL0     H90550  10.527   3.076   2.901 -0.2210  2.3175 -0.8024
  671MOL0     H90551  10.782   3.088   2.974 -0.8038  0.7114 -0.7476
  671MOL0     H90552  10.734   3.038   3.132 -2.3053 -1.7234  0.6566
  671MOL0     H90553  10.655   2.829   3.050  1.7977  1.2884  2.0717
  671MOL0     H90554  10.658   2.890   2.879  0.4922 -1.9627 -0.2258
  671MOL0     H90555  10.922   2.878   3.037 -1.0400 -0.7627  0.5141
  671MOL0     H90556  10.897   2.879   2.871  1.0524  3.3603  1.0246
  671MOL0     H90557  10.807   2.650   2.888 -0.3544  2.0277 -0.4875
  671MOL0     H90558  10.809   2.648   3.064  0.8176 -0.2124  1.0379
  671MOL0     H90559  11.071   2.703   3.016  1.7826 -2.3219  1.4167
  671MOL0     H90560  11.001   2.534   2.986 -2.5793 -0.0421 -1.6325
  671MOL0     H90561  11.032   2.733   2.770 -0.5381 -0.8321  0.3956
  671MOL0     H90562  10.972   2.577   2.744  1.2154  0.9763 -2.6470
  671MOL0     H90563  11.251   2.651   2.857  2.3679 -1.5592 -0.8945
  671MOL0     H90564  11.195   2.486   2.820  0.1846  1.5242  1.1337
  671MOL0     H90565  10.325   3.204   2.936 -0.9981  0.0846  2.9490
  671MOL0     H90566  10.173   3.402   2.933 -0.6007 -1.4790  3.8786
  671MOL0     H90567  10.203   3.885   2.946  0.3539  3.6051 -1.5082
  671MOL0     H90568  10.075   4.088   2.906 -0.4607  0.9863 -0.2763
  671MOL0     H90569   8.100   4.326   2.387 -2.3651 -1.4672 -2.2165
  671MOL0     H90570   7.857   4.365   2.422 -2.1392 -1.3389  1.0751
  671MOL0     H90571   7.539   4.407   2.857 -0.8902 -0.6157  0.2681
  671MOL0     H90572   7.303   4.461   2.879  0.1560 -1.8359 -0.4236
  671MOL0     H90573   7.082   4.559   2.525 -0.5785  0.3884  0.4422
  671MOL0     H90574   7.090   4.737   2.576  2.1059  0.6689 -0.9600
  671MOL0     H90575   6.930   4.513   2.692 -0.1452 -0.2286 -2.2548
  671MOL0     H90576   6.874   4.627   2.564  0.1136  1.9817 -0.1037
  671MOL0     H90577   6.955   4.737   2.841  0.2018  2.7979 -0.7051
  671MOL0     H90578   6.796   4.667   2.812  0.1617  2.3393  1.3395
  671MOL0     H90579   6.926   4.897   2.643  1.1726 -2.2954 -1.9362
  671MOL0     H90580   6.769   4.813   2.621 -0.6937  2.0827  0.7210
  671MOL0     H90581   6.644   5.086   2.893 -0.4552  0.1582  0.3872
  671MOL0     H90582   7.295   4.645   2.496 -0.7276  0.3791  1.0375
  671MOL0     H90583   7.626   4.740   2.460 -1.1530  1.2131 -1.7015
  671MOL0     H90584   7.618   4.573   2.381  0.5101  0.2164  0.4947
  671MOL0     H90585   7.494   4.690   2.370 -0.7049  0.3423  0.7987
  672MOL0     O90586   0.842   6.165   9.366 -0.0746  0.4108 -0.1970
  672MOL0     C90587   0.897   6.199   9.263 -0.7331 -0.0612  0.8549
  672MOL0     O90588   1.030   6.193   9.239 -0.6564 -0.4182 -0.3036
  672MOL0     C90589   1.112   6.149   9.338  0.4507 -0.7002 -0.0469
  672MOL0     C90590   1.180   6.251   9.404 -0.4998 -0.2551  0.3159
  672MOL0     C90591   1.268   6.216   9.506 -0.0880 -0.1052  0.3915
  672MOL0     C90592   1.298   6.084   9.548 -0.6785 -0.2374  0.4390
  672MOL0     O90593   1.381   6.066   9.649 -0.2990  0.5867  0.4729
  672MOL0     C90594   1.395   5.932   9.696  0.4083 -0.3963  0.3349
  672MOL0     C90595   1.476   5.911   9.815 -0.2094 -0.7519  0.3913
  672MOL0     C90596   1.600   6.000   9.800  0.2589 -0.7858  0.6910
  672MOL0     C90597   1.676   5.969   9.928 -0.3307  0.3384 -1.6550
  672MOL0     C90598   1.811   6.026   9.949 -0.1860  0.2791 -0.1520
  672MOL0     C90599   1.916   5.991   9.841  0.2541  0.7501 -0.1528
  672MOL0     C90600   2.049   6.067   9.857 -0.0442  0.3921  0.1898
  672MOL0     C90601   2.098   6.053  10.000  0.3875 -0.6599  0.5877
  672MOL0     N90602   2.241   6.083  10.018 -0.5658 -0.1096  0.6935
  672MOL0     C90603   2.300   6.211  10.027  0.4157 -0.1974 -1.3840
  672MOL0     C90604   2.430   6.189  10.019  0.3174 -0.9327  0.4158
  672MOL0     C90605   2.542   6.287  10.036 -0.5491  0.8787 -0.0553
  672MOL0     C90606   2.610   6.316   9.909  0.3204 -0.7991 -0.2542
  672MOL0     C90607   2.711   6.427   9.910 -0.5255  0.0174  0.0848
  672MOL0     C90608   2.854   6.400   9.957  0.0933  0.0861 -0.0902
  672MOL0     O90609   2.856   6.458  10.085 -0.6566  0.5168  0.8504
  672MOL0     C90610   2.989   6.486  10.132  1.0827 -0.2149 -0.0319
  672MOL0     C90611   3.104   6.425  10.091 -0.4171  0.3500 -0.2413
  672MOL0     C90612   3.228   6.470  10.130  0.0581 -0.7850 -1.0466
  672MOL0     C90613   3.240   6.584  10.220 -0.1297  0.6041 -0.1482
  672MOL0     C90614   3.371   6.634  10.253  0.1625 -0.8358  0.1448
  672MOL0     O90615   3.377   6.741  10.335 -0.0061 -0.8222 -1.3331
  672MOL0     C90616   3.501   6.795  10.361 -0.3767  0.5853  0.8265
  672MOL0     C90617   3.569   6.868  10.268 -0.2649  0.1878  0.3446
  672MOL0     C90618   3.682   6.946  10.311 -0.0735  0.1413  0.1992
  672MOL0     C90619   3.725   6.944  10.449 -0.4493 -0.0395 -0.0189
  672MOL0     O90620   3.834   7.027  10.481  0.0822 -0.4195  0.4968
  672MOL0     C90621   3.936   6.977  10.568  0.6112 -0.3347  0.0467
  672MOL0     C90622   4.079   7.022  10.524 -0.2751 -0.7578  1.0316
  672MOL0     C90623   4.121   7.000  10.383  0.3653  0.3411 -0.1675
  672MOL0     C90624   4.133   6.855  10.354  0.1351  0.0655 -0.0994
  672MOL0     C90625   4.197   6.829  10.218 -0.5661 -0.7050  0.0210
  672MOL0     C90626   4.212   6.676  10.206 -0.1393 -0.1443 -0.6464
  672MOL0     C90627   4.245   6.654  10.066  0.1191  0.5295  0.4774
  672MOL0     C90628   4.278   6.512  10.040  0.4779 -0.2659 -0.6352
  672MOL0    Cl90629   4.411   6.475  10.142 -0.2403  0.3315  0.4049
  672MOL0     C90630   3.656   6.864  10.539  0.1340 -0.0311 -0.0161
  672MOL0     C90631   3.537   6.796  10.497  0.0835 -0.6750  0.2314
  672MOL0     O90632   3.459   6.586  10.185 -0.1756 -0.6575  0.5583
  672MOL0     C90633   3.126   6.652  10.267  0.8058 -0.5503 -0.4136
  672MOL0     C90634   3.003   6.602  10.217 -0.7842  0.0625 -0.3334
  672MOL0     N90635   2.453   6.062   9.986 -0.6359 -0.5176 -0.7355
  672MOL0     N90636   2.342   6.002   9.983 -0.5849 -0.0059  0.1088
  672MOL0     C90637   1.220   5.982   9.481  0.6041  0.4016  0.4918
  672MOL0     C90638   1.121   6.015   9.381 -0.3289 -0.5479 -0.5620
  672MOL0     C90639   0.813   6.239   9.149 -0.2358  0.7710 -0.1502
  672MOL0     C90640   0.686   6.177   9.142 -0.5448  1.3431 -0.0792
  672MOL0     C90641   0.605   6.212   9.038  0.3506  0.4024  0.4051
  672MOL0     C90642   0.634   6.308   8.943 -0.5637  0.4385  0.6088
  672MOL0     O90643   0.530   6.334   8.855  0.4290  0.7526 -0.4383
  672MOL0     C90644   0.550   6.406   8.737  0.1816  0.2458  0.0801
  672MOL0     C90645   0.432   6.417   8.647  1.0665 -0.6003  1.0678
  672MOL0     C90646   0.453   6.509   8.531 -1.1247  0.6468 -0.0929
  672MOL0     C90647   0.328   6.561   8.466  0.4370  0.2985  0.0353
  672MOL0     C90648   0.266   6.464   8.375  0.2198 -0.2342  0.4558
  672MOL0     C90649   0.216   6.378   8.313  0.0207  0.8114  0.9460
  672MOL0     C90650   0.752   6.373   8.955  0.5914  0.2670 -0.5268
  672MOL0     C90651   0.845   6.337   9.061 -0.6780  1.2342 -0.2030
  672MOL0     C90652   0.967   6.425   9.072  0.7326  0.5873 -0.2177
  672MOL0     H90653   1.166   6.353   9.370  0.5928 -0.7533 -1.7993
  672MOL0     H90654   1.328   6.291   9.557 -0.5366 -0.9112  2.1894
  672MOL0     H90655   1.295   5.890   9.712 -0.0256  0.1670 -0.8026
  672MOL0     H90656   1.453   5.892   9.613  1.4098  2.7965 -0.6446
  672MOL0     H90657   1.488   5.804   9.834  0.8205 -0.8251 -0.6135
  672MOL0     H90658   1.419   5.956   9.898 -1.2570 -0.2205 -0.5870
  672MOL0     H90659   1.583   6.108   9.801 -0.4799 -0.8937  0.1378
  672MOL0     H90660   1.657   5.972   9.711  0.2649 -1.1298  0.7994
  672MOL0     H90661   1.628   6.002  10.020 -0.9233 -0.9503 -1.4814
  672MOL0     H90662   1.702   5.863   9.929  1.2766  0.7039  0.1294
  672MOL0     H90663   1.807   6.135   9.951 -1.6218  0.2518 -0.3922
  672MOL0     H90664   1.845   5.987  10.046  1.4204 -0.3537 -0.9428
  672MOL0     H90665   1.937   5.885   9.856 -1.3683  0.3194 -0.6740
  672MOL0     H90666   1.882   6.010   9.738  1.0546  0.4809 -0.4793
  672MOL0     H90667   2.040   6.173   9.836  1.7534  0.6148  0.4217
  672MOL0     H90668   2.120   6.027   9.784 -2.5573 -1.3209 -1.4591
  672MOL0     H90669   2.050   6.130  10.061  2.6970  0.9416  0.5302
  672MOL0     H90670   2.084   5.958  10.053  3.5959 -0.4840  2.0453
  672MOL0     H90671   2.249   6.305  10.048 -0.5806 -0.8503 -0.8063
  672MOL0     H90672   2.488   6.374  10.075  1.0439  1.9255 -0.0754
  672MOL0     H90673   2.609   6.245  10.111 -1.7279  0.7035  0.9304
  672MOL0     H90674   2.657   6.234   9.854  1.7273  1.7966 -3.2616
  672MOL0     H90675   2.523   6.348   9.851 -0.6960  0.4496  1.8320
  672MOL0     H90676   2.654   6.507   9.959 -4.0022 -4.4924  4.3888
  672MOL0     H90677   2.720   6.462   9.806  0.1744  0.6368  0.3424
  672MOL0     H90678   2.929   6.454   9.898  0.5894 -0.4045  0.0779
  672MOL0     H90679   2.875   6.292   9.953 -0.2357 -0.0815  1.8251
  672MOL0     H90680   3.098   6.338  10.025  1.0252 -0.0968  0.1745
  672MOL0     H90681   3.314   6.416  10.092 -1.1301 -5.0181  1.5878
  672MOL0     H90682   3.541   6.874  10.163  1.2557 -0.5699 -0.1336
  672MOL0     H90683   3.731   7.002  10.232  2.1432 -0.8870  0.7587
  672MOL0     H90684   3.908   7.008  10.669 -1.1848 -1.4036 -0.0806
  672MOL0     H90685   3.934   6.868  10.572  3.5244 -0.5428 -1.5552
  672MOL0     H90686   4.090   7.131  10.524  0.6690 -0.6165 -3.9429
  672MOL0     H90687   4.152   6.973  10.589  0.9189  2.7637  2.6062
  672MOL0     H90688   4.047   7.031  10.309  1.3592 -1.6980 -2.1256
  672MOL0     H90689   4.214   7.058  10.373 -0.5937  2.4018  1.9528
  672MOL0     H90690   4.031   6.815  10.357 -1.4682  3.7241 -0.2784
  672MOL0     H90691   4.193   6.807  10.432  0.5756  0.5164 -0.1524
  672MOL0     H90692   4.285   6.893  10.220  0.1279 -1.4883 -2.4036
  672MOL0     H90693   4.125   6.863  10.142 -0.1040 -1.6069 -0.8437
  672MOL0     H90694   4.296   6.647  10.271  0.2190  2.0023 -0.0877
  672MOL0     H90695   4.124   6.623  10.244  0.4725  0.7473  2.2807
  672MOL0     H90696   4.331   6.718  10.044  0.4734 -0.0753  0.0896
  672MOL0     H90697   4.173   6.695   9.995 -0.8637 -1.0029  0.5541
  672MOL0     H90698   4.187   6.453  10.056 -0.4887  0.3961 -3.1709
  672MOL0     H90699   4.315   6.505   9.937  0.1441  1.8055 -0.9444
  672MOL0     H90700   3.680   6.860  10.645  1.2776 -0.2012 -0.2682
  672MOL0     H90701   3.477   6.738  10.566  1.1494  0.1217  1.9087
  672MOL0     H90702   3.125   6.744  10.325 -1.3758 -1.1739  0.6386
  672MOL0     H90703   2.917   6.664  10.241 -1.1064 -1.0813  1.6612
  672MOL0     H90704   1.217   5.878   9.513 -1.3403  0.8364  1.8215
  672MOL0     H90705   1.067   5.940   9.324  1.5634 -2.3414 -0.1031
  672MOL0     H90706   0.651   6.111   9.221  1.7983  1.6649  1.3211
  672MOL0     H90707   0.513   6.155   9.027  1.9019 -1.7375 -3.5851
  672MOL0     H90708   0.619   6.343   8.680 -0.3723  1.4323 -2.0214
  672MOL0     H90709   0.597   6.504   8.755  2.2808 -0.3116 -1.8743
  672MOL0     H90710   0.347   6.447   8.710  1.2987 -1.7850  1.9875
  672MOL0     H90711   0.408   6.319   8.606  0.3881  0.3221 -0.8578
  672MOL0     H90712   0.514   6.454   8.459  1.9420 -1.1165  3.4898
  672MOL0     H90713   0.506   6.599   8.564 -1.7897  0.3095  2.0404
  672MOL0     H90714   0.256   6.576   8.547  0.5560 -3.2262  0.9634
  672MOL0     H90715   0.351   6.651   8.408 -2.1932  0.1172 -1.4285
  672MOL0     H90716   0.178   6.295   8.258  0.3265  0.5341  1.1443
  672MOL0     H90717   0.797   6.450   8.893 -0.0103  0.4140 -0.7835
  672MOL0     H90718   1.041   6.400   8.995  0.9652 -0.1986  0.2503
  672MOL0     H90719   0.934   6.529   9.067  3.0026  1.4283  0.7726
  672MOL0     H90720   1.022   6.429   9.166  0.0397  4.4861  0.1892
  673MOL0     O90721   9.794   8.999   4.214 -0.1038  0.4328 -0.1691
  673MOL0     C90722   9.800   9.036   4.332 -0.7211  0.4272  0.2419
  673MOL0     O90723   9.909   9.100   4.383  0.2604  0.1988 -1.0823
  673MOL0     C90724  10.018   9.112   4.303  0.1751 -0.2534 -0.7132
  673MOL0     C90725  10.061   9.233   4.261 -0.5460  0.4386 -0.0407
  673MOL0     C90726  10.183   9.243   4.193  0.1689 -0.2292  0.3835
  673MOL0     C90727  10.268   9.136   4.168  0.5444 -0.3155 -0.7686
  673MOL0     O90728  10.388   9.139   4.101 -0.8266 -0.0272  0.7854
  673MOL0     C90729  10.459   9.256   4.100 -0.3916  0.3486  0.3451
  673MOL0     C90730  10.566   9.254   3.984  0.0921 -0.3871  0.1832
  673MOL0     C90731  10.684   9.347   4.019 -0.4629 -0.5589  1.0896
  673MOL0     C90732  10.791   9.339   3.918 -0.4628 -0.2606  0.1692
  673MOL0     C90733  10.861   9.476   3.906 -0.9323  0.2854  0.3417
  673MOL0     C90734  10.971   9.460   3.797  0.3684  1.0614  0.1128
  673MOL0     C90735  11.043   9.585   3.759  0.3635 -0.2999 -0.0720
  673MOL0     C90736  11.138   9.638   3.867  0.4281 -0.6995  0.2704
  673MOL0     N90737  11.205   9.757   3.814 -0.3542  0.7473  0.5019
  673MOL0     C90738  11.318   9.740   3.746 -0.3404 -0.8244 -0.1360
  673MOL0     C90739  11.362   9.866   3.714  0.3883 -0.4110 -0.2259
  673MOL0     C90740  11.493   9.905   3.657  0.2228  0.9414 -0.1939
  673MOL0     C90741  11.604   9.930   3.767 -0.4172 -0.5800  0.8338
  673MOL0     C90742  11.650   9.804   3.850  0.2969  0.1515  0.0688
  673MOL0     C90743  11.791   9.848   3.899 -0.8050  0.9399 -0.1260
  673MOL0     O90744  11.844   9.743   3.977  0.0216  0.0787  0.5003
  673MOL0     C90745  11.964   9.782   4.034  0.1356 -0.8082  0.8181
  673MOL0     C90746  11.973   9.831   4.169  0.0962 -0.0727 -0.3362
  673MOL0     C90747  12.094   9.826   4.234 -0.5849 -0.1694 -0.2994
  673MOL0     C90748  12.215   9.786   4.160 -1.0407 -0.6281 -0.3051
  673MOL0     C90749  12.345   9.779   4.229 -0.6278 -0.3604 -1.2425
  673MOL0     O90750  12.351   9.799   4.363  0.1140  0.4153  0.6074
  673MOL0     C90751  12.473   9.781   4.424 -1.0099  0.4138 -0.2317
  673MOL0     C90752  12.517   9.646   4.432 -0.0622 -0.1991  0.8697
  673MOL0     C90753  12.646   9.614   4.482  0.3620 -1.6488 -0.3550
  673MOL0     C90754  12.729   9.727   4.514  0.5939 -0.2733 -0.5458
  673MOL0     O90755  12.844   9.680   4.571 -0.6421  0.2624  0.3120
  673MOL0     C90756  12.957   9.769   4.572  1.0162  0.4715 -0.2696
  673MOL0     C90757  13.091   9.694   4.573  0.2676  0.8605  0.8477
  673MOL0     C90758  13.175   9.730   4.699  0.0044  0.5221 -0.9422
  673MOL0     C90759  13.319   9.751   4.659 -0.7049  0.1378  0.1957
  673MOL0     C90760  13.405   9.821   4.772  0.7060 -0.2661 -0.5925
  673MOL0     C90761  13.552   9.845   4.733  0.1600  0.0314 -0.3697
  673MOL0     C90762  13.623   9.718   4.691  0.1558  0.3401 -0.5239
  673MOL0     C90763  13.778   9.745   4.705 -0.2710 -0.7457  0.0189
  673MOL0    Cl90764  13.877   9.628   4.610  0.3007  0.0530  0.2939
  673MOL0     C90765  12.690   9.858   4.510  0.4630 -0.2339 -0.3713
  673MOL0     C90766  12.562   9.883   4.464  0.1879 -0.2150 -1.0989
  673MOL0     O90767  12.443   9.748   4.158  0.7068 -0.5420 -0.5213
  673MOL0     C90768  12.203   9.748   4.018 -0.3427  0.2497 -0.0986
  673MOL0     C90769  12.077   9.747   3.962 -0.2672  0.5699 -0.7026
  673MOL0     N90770  11.272   9.955   3.760 -0.0926  0.2189 -0.2290
  673MOL0     N90771  11.169   9.887   3.807  0.6707  0.4965 -1.1713
  673MOL0     C90772  10.221   9.013   4.213  0.6015 -0.0907 -0.2930
  673MOL0     C90773  10.095   8.998   4.278  0.6923  0.0874 -0.2095
  673MOL0     C90774   9.682   8.999   4.416 -0.2933 -0.0256  0.8645
  673MOL0     C90775   9.709   8.982   4.554 -0.2359  0.8339  0.2026
  673MOL0     C90776   9.608   8.967   4.638 -0.7051  0.2692 -0.0829
  673MOL0     C90777   9.477   8.964   4.600 -0.0931  1.0332 -0.5765
  673MOL0     O90778   9.375   8.943   4.688  0.5492 -0.2270  0.1442
  673MOL0     C90779   9.392   8.878   4.815  0.1549  0.0023 -0.7104
  673MOL0     C90780   9.255   8.816   4.876 -0.0875 -0.1131 -0.0175
  673MOL0     C90781   9.145   8.918   4.870 -1.0329  0.2421  0.2860
  673MOL0     C90782   9.018   8.892   4.945  0.3160  0.2479 -0.5777
  673MOL0     C90783   8.967   8.752   4.920  0.0845 -0.8922 -0.1637
  673MOL0     C90784   8.945   8.646   4.868  0.6039 -0.3516 -0.0159
  673MOL0     C90785   9.444   8.981   4.464 -0.6782  0.5633 -0.1904
  673MOL0     C90786   9.545   9.006   4.372 -0.2644  1.1629 -0.1690
  673MOL0     C90787   9.497   9.044   4.241  0.5463  0.4748  0.3239
  673MOL0     H90788  10.000   9.319   4.290 -0.3933 -0.1680  2.2743
  673MOL0     H90789  10.221   9.343   4.174  2.2783 -1.4055 -2.2588
  673MOL0     H90790  10.401   9.349   4.093 -3.3644 -1.3234  0.8588
  673MOL0     H90791  10.507   9.266   4.197 -1.2067  1.2141  0.6787
  673MOL0     H90792  10.529   9.294   3.889 -0.2995  1.7020  1.1521
  673MOL0     H90793  10.613   9.156   3.970  0.7666  0.1326 -1.3451
  673MOL0     H90794  10.719   9.334   4.121  0.3488 -0.1561  0.8640
  673MOL0     H90795  10.634   9.444   4.006  1.9468  0.3196 -3.9873
  673MOL0     H90796  10.864   9.266   3.955 -1.4841 -0.7765  1.2263
  673MOL0     H90797  10.753   9.305   3.821 -2.8431  1.7280  0.3141
  673MOL0     H90798  10.793   9.560   3.891 -0.1008  0.9926  0.4659
  673MOL0     H90799  10.912   9.492   4.001  0.3322 -2.8492  0.3090
  673MOL0     H90800  11.039   9.379   3.821  2.2202  1.9416 -1.8781
  673MOL0     H90801  10.921   9.422   3.708  1.2656 -0.5813  0.2807
  673MOL0     H90802  10.969   9.662   3.736 -2.7761 -2.1105  3.0359
  673MOL0     H90803  11.103   9.571   3.668 -2.4251  2.9831 -2.7310
  673MOL0     H90804  11.085   9.672   3.957  0.4826  1.7776 -0.5415
  673MOL0     H90805  11.202   9.553   3.889 -1.7432 -2.5881 -0.3298
  673MOL0     H90806  11.376   9.648   3.740 -0.1533 -0.8118  1.0726
  673MOL0     H90807  11.515   9.838   3.573 -3.8865 -0.8427 -0.0641
  673MOL0     H90808  11.477  10.005   3.614  2.0168  1.2073 -0.3446
  673MOL0     H90809  11.689   9.983   3.722 -0.8705 -1.1541 -0.8008
  673MOL0     H90810  11.553   9.992   3.840 -1.3371 -1.3811  0.9004
  673MOL0     H90811  11.649   9.709   3.796 -1.3396  1.8864 -3.2705
  673MOL0     H90812  11.586   9.796   3.938 -0.2263  0.7058 -0.2528
  673MOL0     H90813  11.783   9.940   3.959  1.6015  0.9726  0.2444
  673MOL0     H90814  11.854   9.863   3.810  1.3257 -1.3520  0.8796
  673MOL0     H90815  11.888   9.874   4.219  1.1697  1.5972  0.1149
  673MOL0     H90816  12.102   9.866   4.334  0.3859 -1.4755  0.1716
  673MOL0     H90817  12.453   9.567   4.394  0.3492 -0.9691  1.7540
  673MOL0     H90818  12.677   9.512   4.501  0.1209 -0.9973  4.6844
  673MOL0     H90819  12.953   9.830   4.482 -1.4175  0.2391 -0.3719
  673MOL0     H90820  12.959   9.829   4.663  0.8242 -2.3867  1.7753
  673MOL0     H90821  13.078   9.586   4.582  1.7892  0.4436 -1.2255
  673MOL0     H90822  13.153   9.712   4.485  0.5285 -0.7054  0.6911
  673MOL0     H90823  13.149   9.822   4.752  0.3892 -2.0967  4.4456
  673MOL0     H90824  13.158   9.664   4.784  2.3367  1.7939  0.6332
  673MOL0     H90825  13.323   9.816   4.571 -2.5323  0.5443  0.3714
  673MOL0     H90826  13.358   9.650   4.641 -1.3040 -0.8860  3.9473
  673MOL0     H90827  13.405   9.754   4.858 -1.3572 -2.5761 -2.2351
  673MOL0     H90828  13.357   9.907   4.818  0.1017 -0.6433 -0.5040
  673MOL0     H90829  13.565   9.924   4.659 -3.9425 -0.4357 -1.8308
  673MOL0     H90830  13.595   9.867   4.831 -3.2327 -0.0261  1.2641
  673MOL0     H90831  13.610   9.703   4.583  0.3985 -0.0188 -0.5017
  673MOL0     H90832  13.591   9.636   4.755  0.5345  2.1021  2.0552
  673MOL0     H90833  13.795   9.849   4.674 -2.4995 -0.1344  0.6938
  673MOL0     H90834  13.807   9.745   4.811 -0.1918 -1.7425  0.0057
  673MOL0     H90835  12.749   9.942   4.543 -0.2327  1.7549 -3.7865
  673MOL0     H90836  12.534   9.988   4.469  2.1084  0.2847  0.4043
  673MOL0     H90837  12.289   9.709   3.965 -0.0138 -0.3976  0.8946
  673MOL0     H90838  12.078   9.724   3.856  3.0030  0.2790 -0.7209
  673MOL0     H90839  10.281   8.924   4.196 -1.4757 -2.2681  2.6360
  673MOL0     H90840  10.049   8.911   4.323  4.3543 -0.4661  3.1063
  673MOL0     H90841   9.811   8.976   4.588  0.0927 -2.0106 -0.9900
  673MOL0     H90842   9.636   8.961   4.742  0.4277 -4.5438 -0.4189
  673MOL0     H90843   9.432   8.947   4.890 -0.3144 -1.4696  0.9608
  673MOL0     H90844   9.456   8.790   4.823 -2.9007 -2.3300 -0.2543
  673MOL0     H90845   9.258   8.783   4.980  2.8145  0.2827  0.0875
  673MOL0     H90846   9.230   8.736   4.805  0.4665  0.3211 -0.7189
  673MOL0     H90847   9.128   8.946   4.766 -0.9385  0.8376  0.4266
  673MOL0     H90848   9.183   9.014   4.906  2.2043 -0.6565 -0.3405
  673MOL0     H90849   9.039   8.902   5.052 -0.8283  1.2780 -0.4271
  673MOL0     H90850   8.953   8.970   4.905  1.6343  0.7803 -1.7597
  673MOL0     H90851   8.924   8.554   4.819 -2.3473 -0.1461  0.6627
  673MOL0     H90852   9.337   8.973   4.443 -0.5027 -2.9762 -0.3363
  673MOL0     H90853   9.502   8.947   4.192 -0.9844  0.0980  0.8491
  673MOL0     H90854   9.394   9.080   4.236  1.2736  2.5015 -3.6351
  673MOL0     H90855   9.564   9.112   4.189 -0.3035 -0.4610 -2.1065
  674MOL0     O90856   1.874   0.132   0.594 -0.4147 -0.0692 -0.3988
  674MOL0     C90857   1.880   0.010   0.606  0.4200 -0.9455 -0.2292
  674MOL0     O90858   1.998  -0.065   0.601 -0.0292  0.2196 -0.2125
  674MOL0     C90859   2.113   0.007   0.619  0.2887  0.5998  0.1198
  674MOL0     C90860   2.184   0.061   0.508 -0.3213  0.3935  0.2872
  674MOL0     C90861   2.293   0.141   0.522  0.6254 -0.4039  0.6944
  674MOL0     C90862   2.345   0.162   0.653 -0.2608  0.2365  0.5503
  674MOL0     O90863   2.463   0.237   0.676  0.3195 -0.0640  0.0858
  674MOL0     C90864   2.536   0.280   0.559  0.3717  0.7905  0.2810
  674MOL0     C90865   2.659   0.343   0.628  0.4673  0.0700 -0.0787
  674MOL0     C90866   2.784   0.346   0.543 -0.4451  0.9245  0.0051
  674MOL0     C90867   2.903   0.393   0.614 -0.0364 -0.8229 -0.3432
  674MOL0     C90868   3.029   0.418   0.529  0.4066  0.7180  1.1098
  674MOL0     C90869   3.151   0.448   0.617 -0.1246  0.1834 -0.2655
  674MOL0     C90870   3.273   0.502   0.533  1.0600 -0.2598 -0.1624
  674MOL0     C90871   3.324   0.393   0.432  0.8245  0.5927  0.2920
  674MOL0     N90872   3.452   0.442   0.364  0.2830 -1.1688 -0.1686
  674MOL0     C90873   3.478   0.549   0.284 -0.1088 -0.3978 -0.2954
  674MOL0     C90874   3.615   0.562   0.266  0.6088 -0.0200 -0.2049
  674MOL0     C90875   3.688   0.657   0.171 -0.2502  0.4681  0.2632
  674MOL0     C90876   3.602   0.781   0.156 -0.5851 -0.2224  0.2419
  674MOL0     C90877   3.673   0.880   0.074  0.3613 -0.4379  0.3759
  674MOL0     C90878   3.681   0.859  -0.075  0.1542 -0.2471  0.0405
  674MOL0     O90879   3.801   0.814  -0.137  0.3171 -0.5673  0.5671
  674MOL0     C90880   3.908   0.894  -0.122  0.0690 -0.1870  0.0615
  674MOL0     C90881   3.910   1.027  -0.148  0.3866  1.0695 -0.8976
  674MOL0     C90882   4.009   1.110  -0.100  0.2360 -0.4560 -0.8639
  674MOL0     C90883   4.125   1.062  -0.042 -0.4635  0.0992  1.2802
  674MOL0     C90884   4.227   1.155   0.010 -0.6787  0.6290  0.1537
  674MOL0     O90885   4.340   1.107   0.064  0.1795 -0.1645  0.0868
  674MOL0     C90886   4.444   1.198   0.086 -0.0949  0.1396 -1.1810
  674MOL0     C90887   4.432   1.275   0.211 -0.3031 -0.1041  0.4179
  674MOL0     C90888   4.537   1.350   0.261  0.7407 -0.5381  0.4042
  674MOL0     C90889   4.644   1.372   0.178 -0.5286 -0.4970  0.3727
  674MOL0     O90890   4.745   1.461   0.200 -0.3733 -0.2030  0.0008
  674MOL0     C90891   4.751   1.495   0.339  0.0660 -0.2787 -0.4486
  674MOL0     C90892   4.872   1.588   0.364  0.0708 -0.1310 -0.0143
  674MOL0     C90893   5.009   1.528   0.342  0.0408 -0.5581 -0.1609
  674MOL0     C90894   5.118   1.618   0.402  0.1428 -0.2627 -0.0567
  674MOL0     C90895   5.247   1.539   0.383  0.1904  0.5570 -0.4557
  674MOL0     C90896   5.360   1.563   0.495  0.4679  0.4614  0.1487
  674MOL0     C90897   5.407   1.709   0.527 -0.0043 -0.1595 -0.0558
  674MOL0     C90898   5.536   1.700   0.617  0.2407 -0.0974  0.0731
  674MOL0    Cl90899   5.573   1.864   0.668  0.1849 -0.1799 -0.2070
  674MOL0     C90900   4.655   1.308   0.056  0.2156  0.2926  0.3612
  674MOL0     C90901   4.560   1.219   0.007 -0.3805  0.7137 -0.4256
  674MOL0     O90902   4.184   1.268   0.022 -0.3221  0.3235  0.0517
  674MOL0     C90903   4.134   0.922  -0.038  0.0041 -1.0233  0.1177
  674MOL0     C90904   4.027   0.839  -0.067  0.9689 -0.2116 -0.5970
  674MOL0     N90905   3.671   0.450   0.334 -0.3294  0.5701  0.5258
  674MOL0     N90906   3.577   0.377   0.382 -0.6025  0.5724  1.2280
  674MOL0     C90907   2.280   0.106   0.762  0.4671  0.3706 -0.0739
  674MOL0     C90908   2.159   0.029   0.747  0.5560  0.2684  0.8934
  674MOL0     C90909   1.757  -0.073   0.600 -0.1462 -0.2943 -0.0102
  674MOL0     C90910   1.766  -0.209   0.558 -0.7986 -0.1900 -0.6684
  674MOL0     C90911   1.654  -0.290   0.539  0.2088 -1.0630  1.1017
  674MOL0     C90912   1.522  -0.235   0.552 -0.0629  0.3422  0.1176
  674MOL0     O90913   1.407  -0.309   0.519 -0.3203  0.1612  0.0450
  674MOL0     C90914   1.423  -0.429   0.442  0.4484 -0.0119  0.7539
  674MOL0     C90915   1.457  -0.558   0.512  0.0921  0.5899 -0.0156
  674MOL0     C90916   1.385  -0.583   0.642  0.3689  0.1157  1.2745
  674MOL0     C90917   1.418  -0.721   0.697 -0.3656  0.3221  0.1284
  674MOL0     C90918   1.549  -0.724   0.762 -0.4252  0.2995  0.1184
  674MOL0     C90919   1.657  -0.740   0.817 -0.9626 -0.1346  0.0921
  674MOL0     C90920   1.516  -0.109   0.595 -0.4377  0.0204 -0.0899
  674MOL0     C90921   1.623  -0.018   0.617 -0.8025 -0.1830  0.1441
  674MOL0     C90922   1.597   0.124   0.656 -0.0491 -0.4705 -0.6277
  674MOL0     H90923   2.162   0.035   0.405  1.6011 -0.0848 -0.0426
  674MOL0     H90924   2.350   0.161   0.432 -1.4779 -0.2365 -0.6728
  674MOL0     H90925   2.591   0.196   0.517 -0.5476  0.2539  0.1234
  674MOL0     H90926   2.473   0.342   0.495 -0.6819  2.5210  2.7904
  674MOL0     H90927   2.684   0.284   0.716 -0.2595  1.9472  1.4440
  674MOL0     H90928   2.636   0.446   0.655 -1.3369 -0.6788  1.5200
  674MOL0     H90929   2.757   0.407   0.456  0.3206 -0.2148 -1.0562
  674MOL0     H90930   2.800   0.243   0.509 -1.0854  1.0308 -0.6487
  674MOL0     H90931   2.878   0.494   0.649  0.9304  0.6310 -3.4403
  674MOL0     H90932   2.922   0.328   0.699  0.5308 -1.3188 -0.8406
  674MOL0     H90933   3.039   0.325   0.472  2.2460  2.0655 -0.9528
  674MOL0     H90934   3.015   0.490   0.447  2.2845  0.6164  0.6423
  674MOL0     H90935   3.123   0.526   0.689  0.5191 -1.0187  1.3482
  674MOL0     H90936   3.173   0.357   0.674 -0.7282  0.8140  1.0238
  674MOL0     H90937   3.360   0.529   0.593 -0.3399  1.9515  1.0248
  674MOL0     H90938   3.237   0.591   0.480 -3.2462 -1.3229  0.6117
  674MOL0     H90939   3.334   0.296   0.482  0.2831 -0.6341 -1.8635
  674MOL0     H90940   3.251   0.373   0.354 -0.6668 -0.8242  1.9472
  674MOL0     H90941   3.411   0.618   0.234  0.2924 -0.1048 -0.4307
  674MOL0     H90942   3.792   0.664   0.205 -0.4372 -0.6872  1.1663
  674MOL0     H90943   3.693   0.596   0.080 -0.4463 -1.4545  1.4719
  674MOL0     H90944   3.511   0.751   0.103  0.2177 -1.5264 -0.4647
  674MOL0     H90945   3.571   0.817   0.255 -0.1509  5.3860 -1.3229
  674MOL0     H90946   3.774   0.903   0.109  0.9381 -1.7457 -0.3682
  674MOL0     H90947   3.618   0.974   0.093  1.0631  0.2137 -0.7304
  674MOL0     H90948   3.657   0.957  -0.117  2.4958 -0.5293 -2.2564
  674MOL0     H90949   3.608   0.785  -0.108  1.4461 -0.1772 -3.4775
  674MOL0     H90950   3.828   1.074  -0.202 -0.2113  0.4901 -0.5001
  674MOL0     H90951   3.983   1.215  -0.113  1.1182 -0.1548 -0.2586
  674MOL0     H90952   4.341   1.268   0.269 -2.5026 -0.7111 -2.8363
  674MOL0     H90953   4.515   1.401   0.355  0.3005 -0.6940  0.3904
  674MOL0     H90954   4.663   1.546   0.377 -0.2134 -1.7452  1.0103
  674MOL0     H90955   4.776   1.405   0.396 -0.4307  0.1135  0.4000
  674MOL0     H90956   4.861   1.676   0.299  1.5367 -0.5553 -0.8771
  674MOL0     H90957   4.854   1.621   0.467 -1.5875 -1.1736  0.0742
  674MOL0     H90958   5.009   1.429   0.389 -0.7464 -0.3647  0.2619
  674MOL0     H90959   5.034   1.507   0.238  1.2711 -0.1978  0.0371
  674MOL0     H90960   5.097   1.655   0.503  0.6365  1.9160 -0.6986
  674MOL0     H90961   5.128   1.713   0.350 -1.7975  1.1492  1.9415
  674MOL0     H90962   5.298   1.556   0.287  0.4025  1.1453 -0.2401
  674MOL0     H90963   5.232   1.431   0.367  1.4616  0.5178 -1.6951
  674MOL0     H90964   5.323   1.513   0.585  0.0267 -1.5603 -1.1035
  674MOL0     H90965   5.446   1.501   0.468 -1.3532 -1.6851 -1.0040
  674MOL0     H90966   5.333   1.759   0.590 -0.0739  0.5204 -0.6564
  674MOL0     H90967   5.429   1.752   0.428  0.7578 -1.9166 -0.6892
  674MOL0     H90968   5.518   1.639   0.705  1.0879  3.4506  2.9501
  674MOL0     H90969   5.623   1.672   0.557 -0.3076  0.0893 -0.8226
  674MOL0     H90970   4.743   1.316  -0.007  0.5525 -3.7585  0.0190
  674MOL0     H90971   4.569   1.167  -0.087 -0.3087 -1.7669  0.8926
  674MOL0     H90972   4.220   0.864  -0.006  1.3117 -0.5093 -2.2239
  674MOL0     H90973   4.050   0.735  -0.045 -3.0308 -0.8095  1.6501
  674MOL0     H90974   2.310   0.136   0.862  1.0495  2.2517 -0.7670
  674MOL0     H90975   2.104  -0.003   0.835 -0.2793  2.5514  1.2863
  674MOL0     H90976   1.863  -0.246   0.527 -0.5494 -0.0051 -0.1314
  674MOL0     H90977   1.673  -0.391   0.505 -1.2977 -0.6046 -1.3224
  674MOL0     H90978   1.499  -0.423   0.363  0.8928 -3.3975  0.7754
  674MOL0     H90979   1.331  -0.436   0.384  0.3554 -1.0186  1.0151
  674MOL0     H90980   1.562  -0.562   0.543 -0.3012 -0.4627  1.2510
  674MOL0     H90981   1.447  -0.636   0.436  4.2672 -0.4528  0.2227
  674MOL0     H90982   1.280  -0.583   0.612  0.9790  0.5893 -1.0629
  674MOL0     H90983   1.411  -0.502   0.710  0.7317 -1.0914  2.6278
  674MOL0     H90984   1.339  -0.746   0.768 -1.7044 -1.3678 -1.8305
  674MOL0     H90985   1.416  -0.793   0.615  0.6011  0.0233  0.3501
  674MOL0     H90986   1.748  -0.751   0.872  0.5535 -0.6998 -2.3662
  674MOL0     H90987   1.415  -0.071   0.609 -0.2000  0.8667 -0.5675
  674MOL0     H90988   1.655   0.138   0.748  0.0809 -3.3967 -0.1806
  674MOL0     H90989   1.629   0.196   0.580  2.0031  0.6119  1.1575
  674MOL0     H90990   1.495   0.140   0.691  0.8671 -0.6229  2.3979
  675MOL0     O90991   4.013   6.772   6.408  0.1489  0.1600  0.1174
  675MOL0     C90992   4.019   6.898   6.394 -0.3803  0.9107  0.7953
  675MOL0     O90993   4.111   6.982   6.445 -0.1083  0.7889  0.1735
  675MOL0     C90994   4.236   6.950   6.487 -0.7207  0.4303 -0.5328
  675MOL0     C90995   4.279   6.825   6.536  0.0238  0.1751 -0.8403
  675MOL0     C90996   4.412   6.799   6.558 -0.5174 -0.4922  0.1242
  675MOL0     C90997   4.506   6.900   6.538 -0.8372  0.0975 -0.2850
  675MOL0     O90998   4.642   6.863   6.549 -0.1631  0.5109 -0.4628
  675MOL0     C90999   4.710   6.927   6.660  0.5884  0.0603 -0.5573
  675MOL0     C91000   4.808   6.837   6.728 -0.0319  0.3425  0.1189
  675MOL0     C91001   4.906   6.906   6.821  0.2117  0.2683  0.1511
  675MOL0     C91002   5.022   6.822   6.844 -0.0493 -0.4745  0.4502
  675MOL0     C91003   5.038   6.758   6.989 -0.2077  0.3953  0.6948
  675MOL0     C91004   5.161   6.660   6.985 -0.6945 -0.4199 -0.1124
  675MOL0     C91005   5.198   6.602   7.117 -0.1428  0.0136 -0.0964
  675MOL0     C91006   5.283   6.705   7.203  0.1667 -0.3580  0.7561
  675MOL0     N91007   5.358   6.639   7.304 -0.0262  0.5296 -0.3839
  675MOL0     C91008   5.478   6.573   7.272 -0.1363  0.5476 -0.2848
  675MOL0     C91009   5.499   6.480   7.369 -0.4773 -0.7734 -0.6973
  675MOL0     C91010   5.607   6.372   7.370  0.2036 -0.0030 -0.8913
  675MOL0     C91011   5.580   6.245   7.281 -1.6751 -0.2061 -0.0880
  675MOL0     C91012   5.492   6.140   7.348  0.0170 -0.3786  0.1328
  675MOL0     C91013   5.344   6.175   7.350 -0.0858  0.8119 -0.0634
  675MOL0     O91014   5.305   6.206   7.211  0.1305  0.1727 -0.3656
  675MOL0     C91015   5.177   6.237   7.177  0.2667  0.3617  0.2745
  675MOL0     C91016   5.152   6.243   7.047 -0.6471 -0.1955 -0.1750
  675MOL0     C91017   5.032   6.290   7.006  0.0577  0.1942  0.5733
  675MOL0     C91018   4.927   6.342   7.090 -0.1642 -0.9019 -0.9050
  675MOL0     C91019   4.793   6.386   7.038  0.3810  0.6665  0.1197
  675MOL0     O91020   4.773   6.387   6.907 -0.1334  0.9599  0.1521
  675MOL0     C91021   4.650   6.392   6.842 -0.4255  1.1053  0.4251
  675MOL0     C91022   4.614   6.284   6.755 -0.0696  0.0147  0.1945
  675MOL0     C91023   4.499   6.297   6.683  0.4399  0.3687 -0.4011
  675MOL0     C91024   4.426   6.422   6.686  0.3593 -0.8990 -0.5380
  675MOL0     O91025   4.309   6.439   6.621  0.4124 -0.2613 -0.0483
  675MOL0     C91026   4.288   6.366   6.503  0.1438 -0.2590  0.4332
  675MOL0     C91027   4.158   6.407   6.438 -0.3539 -0.4023  0.3613
  675MOL0     C91028   4.035   6.419   6.528 -0.1196  0.0740  0.1281
  675MOL0     C91029   3.894   6.396   6.476  0.0387  0.4335 -0.0684
  675MOL0     C91030   3.800   6.425   6.602  0.3038  0.1500 -0.1767
  675MOL0     C91031   3.656   6.407   6.574  0.8292  0.1438  1.3541
  675MOL0     C91032   3.560   6.461   6.681 -0.6685  0.7792 -0.8649
  675MOL0     C91033   3.410   6.457   6.648  0.7072 -0.5474 -0.4097
  675MOL0    Cl91034   3.340   6.302   6.668 -0.5390  0.1277  0.1274
  675MOL0     C91035   4.463   6.524   6.778  0.0162  0.1433  0.0797
  675MOL0     C91036   4.573   6.510   6.856 -0.7692  0.3716 -0.2058
  675MOL0     O91037   4.706   6.415   7.125 -0.0730  0.0654  0.1635
  675MOL0     C91038   4.967   6.347   7.226 -0.3637 -1.1042 -0.4215
  675MOL0     C91039   5.086   6.286   7.266 -0.5674  0.5523 -0.9306
  675MOL0     N91040   5.396   6.494   7.458 -0.6243 -0.0777  0.1834
  675MOL0     N91041   5.311   6.585   7.418  0.0873 -0.0690  0.2585
  675MOL0     C91042   4.468   7.028   6.500  0.2223 -0.1020  0.0383
  675MOL0     C91043   4.335   7.055   6.473 -0.1271  0.0804 -0.7777
  675MOL0     C91044   3.912   6.962   6.313  0.6908 -0.3882 -0.1498
  675MOL0     C91045   3.922   7.106   6.305  0.3680  0.0866  0.4160
  675MOL0     C91046   3.823   7.179   6.240  0.6298 -0.7338  0.8925
  675MOL0     C91047   3.717   7.123   6.177 -0.4018  0.7881  1.1459
  675MOL0     O91048   3.633   7.209   6.113 -0.1734 -0.2697  0.6478
  675MOL0     C91049   3.530   7.157   6.015 -1.2455  0.2440 -1.3655
  675MOL0     C91050   3.497   7.271   5.918 -0.3020 -0.6410  0.9459
  675MOL0     C91051   3.416   7.208   5.800 -0.2692 -0.4543  0.0713
  675MOL0     C91052   3.380   7.320   5.712 -0.5853 -0.2067  0.0694
  675MOL0     C91053   3.340   7.279   5.582 -0.5373 -0.7652 -0.1354
  675MOL0     C91054   3.327   7.244   5.468 -0.3034  0.3208  0.2581
  675MOL0     C91055   3.716   6.985   6.177  0.8415  0.7198  0.0417
  675MOL0     C91056   3.815   6.902   6.237  0.5352  0.2401  0.9447
  675MOL0     C91057   3.802   6.750   6.230 -0.2681 -0.2909  0.8824
  675MOL0     H91058   4.207   6.746   6.559  0.4922 -0.1349 -0.4124
  675MOL0     H91059   4.443   6.697   6.575  0.0758 -0.7394 -2.1085
  675MOL0     H91060   4.774   7.007   6.623  1.1014  1.1070  2.3251
  675MOL0     H91061   4.638   6.962   6.734 -0.4395 -2.6392 -0.1703
  675MOL0     H91062   4.863   6.792   6.646 -1.2052  3.4235 -2.5665
  675MOL0     H91063   4.758   6.759   6.786  0.8246 -0.9169 -0.8042
  675MOL0     H91064   4.853   6.938   6.911  1.3282  2.8780 -0.0468
  675MOL0     H91065   4.937   6.995   6.766 -2.4132  1.6283  0.6858
  675MOL0     H91066   5.026   6.748   6.764  1.9777 -0.4262  0.4558
  675MOL0     H91067   5.108   6.887   6.826 -1.7237  1.1780 -2.1353
  675MOL0     H91068   5.058   6.840   7.058 -0.5629 -0.8284  2.3052
  675MOL0     H91069   4.951   6.694   7.009 -1.4221  2.0200  0.7821
  675MOL0     H91070   5.145   6.579   6.914  2.0618 -1.0278 -0.1292
  675MOL0     H91071   5.246   6.718   6.948  0.0653 -1.0877  0.5630
  675MOL0     H91072   5.256   6.510   7.108 -1.9309 -1.2673  0.7425
  675MOL0     H91073   5.115   6.573   7.183  0.2351 -0.1996  0.2901
  675MOL0     H91074   5.356   6.762   7.145  0.3762 -0.1136  1.2551
  675MOL0     H91075   5.215   6.774   7.254  0.6324  0.3351  0.4562
  675MOL0     H91076   5.536   6.600   7.184 -1.7544  1.7504 -1.0230
  675MOL0     H91077   5.703   6.414   7.340  0.7784 -0.4510  0.2409
  675MOL0     H91078   5.610   6.343   7.476  0.8895  5.0310  0.7144
  675MOL0     H91079   5.539   6.274   7.184  1.8804 -2.4004 -2.4843
  675MOL0     H91080   5.673   6.188   7.277 -2.3624 -1.3673  0.0724
  675MOL0     H91081   5.530   6.112   7.447 -0.9652 -1.9453  0.1045
  675MOL0     H91082   5.512   6.061   7.276  1.2550  0.8581 -0.9354
  675MOL0     H91083   5.324   6.257   7.419  0.2256  0.4669  0.4377
  675MOL0     H91084   5.291   6.091   7.396  2.8366 -2.3486 -1.9639
  675MOL0     H91085   5.234   6.205   6.987  0.3428  2.1019 -0.3693
  675MOL0     H91086   5.002   6.270   6.904  0.2216  0.4013  0.4857
  675MOL0     H91087   4.681   6.200   6.739  0.6835  0.5823  0.3182
  675MOL0     H91088   4.476   6.215   6.616 -1.8559  0.8177 -0.2425
  675MOL0     H91089   4.370   6.385   6.434  0.9285  2.7940  2.0087
  675MOL0     H91090   4.286   6.263   6.538 -0.4735  0.5858  3.1289
  675MOL0     H91091   4.185   6.502   6.389  0.0774 -1.3401 -1.2804
  675MOL0     H91092   4.135   6.350   6.348  2.3768  2.0533 -2.1190
  675MOL0     H91093   4.048   6.334   6.596  1.9670 -2.1989 -2.8674
  675MOL0     H91094   4.046   6.515   6.580 -1.2978  1.1863 -1.5668
  675MOL0     H91095   3.883   6.294   6.440 -0.4141 -1.6528  5.1415
  675MOL0     H91096   3.862   6.467   6.399  0.5953  0.5324 -0.2123
  675MOL0     H91097   3.818   6.529   6.633 -1.3300  0.0939  1.1073
  675MOL0     H91098   3.820   6.370   6.694  0.7493 -0.7985 -0.8333
  675MOL0     H91099   3.637   6.459   6.479  0.5799  0.5469  1.6208
  675MOL0     H91100   3.642   6.299   6.561 -4.4851  0.5876  1.0029
  675MOL0     H91101   3.593   6.562   6.709  2.5627 -0.8993  2.0616
  675MOL0     H91102   3.567   6.398   6.771 -0.3539 -0.3544 -1.6691
  675MOL0     H91103   3.346   6.526   6.704 -2.1108 -0.1106 -3.8438
  675MOL0     H91104   3.392   6.495   6.547  1.1175  1.1052  0.1068
  675MOL0     H91105   4.407   6.617   6.774  3.2581  2.1956 -1.5068
  675MOL0     H91106   4.593   6.587   6.930  0.3347  0.6404 -0.7612
  675MOL0     H91107   4.904   6.393   7.301  0.9108  1.6447 -0.9331
  675MOL0     H91108   5.109   6.287   7.372 -0.8295 -0.9454 -0.8432
  675MOL0     H91109   4.548   7.092   6.466  0.8556 -1.0184 -0.2350
  675MOL0     H91110   4.298   7.153   6.446  1.3508  0.8343 -0.1321
  675MOL0     H91111   4.009   7.161   6.339  0.0274  1.0315 -0.2086
  675MOL0     H91112   3.831   7.287   6.235  2.0193 -0.8611 -0.4667
  675MOL0     H91113   3.442   7.122   6.070  0.3766 -0.5650  0.8469
  675MOL0     H91114   3.573   7.075   5.956  3.8058  1.7510 -0.2502
  675MOL0     H91115   3.595   7.308   5.889 -1.3211  0.9767 -0.6403
  675MOL0     H91116   3.439   7.349   5.966 -0.8097  0.0054 -0.6482
  675MOL0     H91117   3.335   7.157   5.852  0.0687  1.7572  3.1156
  675MOL0     H91118   3.478   7.138   5.744 -0.9140 -1.3632  0.4839
  675MOL0     H91119   3.297   7.378   5.755 -1.8041 -1.8076 -0.0448
  675MOL0     H91120   3.470   7.382   5.700  2.2459 -4.0134 -0.1650
  675MOL0     H91121   3.312   7.233   5.363  1.4692 -1.0973  0.1053
  675MOL0     H91122   3.635   6.945   6.117  1.2355  0.1951 -0.1434
  675MOL0     H91123   3.741   6.702   6.152  4.5930 -5.2735 -0.5301
  675MOL0     H91124   3.898   6.700   6.211  0.2866  1.2463 -0.6656
  675MOL0     H91125   3.762   6.728   6.329  1.6342  0.5432  1.8686
  676MOL0     O91126   4.271   4.870   5.382 -0.1922  0.0625 -0.2847
  676MOL0     C91127   4.241   4.863   5.499 -0.3128 -0.1916  0.3426
  676MOL0     O91128   4.180   4.969   5.560  0.5764  0.1122 -0.0739
  676MOL0     C91129   4.112   5.061   5.482  0.6151 -0.0881  0.2815
  676MOL0     C91130   4.184   5.175   5.439  0.1083  0.7388  0.0523
  676MOL0     C91131   4.116   5.269   5.363 -0.2888 -0.3645 -0.1009
  676MOL0     C91132   3.983   5.259   5.337  0.1535 -0.3206  0.3009
  676MOL0     O91133   3.931   5.351   5.250  0.2669  0.2345 -0.2694
  676MOL0     C91134   3.792   5.359   5.214 -0.2359 -0.6271 -0.2882
  676MOL0     C91135   3.746   5.503   5.207  0.4568 -0.0426  0.4214
  676MOL0     C91136   3.587   5.511   5.187 -0.7393 -0.4147  0.8444
  676MOL0     C91137   3.536   5.653   5.154 -0.4530 -0.4549  0.6573
  676MOL0     C91138   3.564   5.702   5.010 -0.6444 -1.0790  0.1051
  676MOL0     C91139   3.471   5.677   4.893  0.1686  0.1305  1.3405
  676MOL0     C91140   3.547   5.647   4.758  0.3144 -0.5320 -1.3958
  676MOL0     C91141   3.620   5.770   4.695  0.1750  0.5673 -0.5773
  676MOL0     N91142   3.737   5.809   4.774 -0.3340 -0.3245 -0.0436
  676MOL0     C91143   3.860   5.731   4.781  1.3340 -0.5501  0.1347
  676MOL0     C91144   3.956   5.818   4.815 -0.5481  0.6804  0.0296
  676MOL0     C91145   4.102   5.780   4.832 -0.3169  0.5680  1.0555
  676MOL0     C91146   4.139   5.717   4.970  0.8083 -0.3072  0.2186
  676MOL0     C91147   4.114   5.818   5.087 -0.0599 -0.4205 -0.6347
  676MOL0     C91148   4.154   5.758   5.224 -0.6460 -0.2726  0.7895
  676MOL0     O91149   4.275   5.671   5.211  0.0333 -0.3344 -0.0111
  676MOL0     C91150   4.402   5.733   5.228 -0.1108  0.3198 -0.4015
  676MOL0     C91151   4.512   5.646   5.240 -0.4025  0.0932 -0.9401
  676MOL0     C91152   4.643   5.692   5.236 -0.4519 -0.0228  0.2671
  676MOL0     C91153   4.677   5.826   5.234  0.8139 -0.1461  0.4916
  676MOL0     C91154   4.807   5.891   5.250  0.3996 -0.6207 -0.6037
  676MOL0     O91155   4.905   5.798   5.255  0.0593 -0.1138 -0.3502
  676MOL0     C91156   5.031   5.840   5.255  0.4123  0.5583 -0.1534
  676MOL0     C91157   5.102   5.814   5.371 -0.4808  0.6900  0.4243
  676MOL0     C91158   5.242   5.833   5.381 -0.2771  0.3271  0.1105
  676MOL0     C91159   5.311   5.882   5.275 -0.1609  0.7347 -0.8655
  676MOL0     O91160   5.449   5.905   5.306  0.1040  0.3041  0.0648
  676MOL0     C91161   5.517   6.008   5.226  0.0810  0.2865 -0.4164
  676MOL0     C91162   5.668   5.986   5.234  0.0419  0.5101  0.4667
  676MOL0     C91163   5.744   6.089   5.152 -0.6460 -0.1621  0.1800
  676MOL0     C91164   5.896   6.047   5.154  0.5922 -0.4019 -0.8575
  676MOL0     C91165   5.924   5.916   5.079 -0.1689 -0.3733  0.9923
  676MOL0     C91166   6.070   5.867   5.088 -0.9375 -0.8150 -0.9495
  676MOL0     C91167   6.182   5.974   5.085 -0.2661 -0.4523  0.4099
  676MOL0     C91168   6.293   5.944   5.191 -1.0026  0.0393 -0.9142
  676MOL0    Cl91169   6.207   6.005   5.334 -0.8078 -0.0694  0.0067
  676MOL0     C91170   5.244   5.910   5.158 -0.7034 -0.4392 -0.8179
  676MOL0     C91171   5.105   5.885   5.141 -0.3473  0.2016  0.3686
  676MOL0     O91172   4.810   6.005   5.300 -0.3294  0.5844  0.1226
  676MOL0     C91173   4.564   5.914   5.214 -0.2947  0.3630  0.1537
  676MOL0     C91174   4.430   5.866   5.205 -0.3047 -0.0712 -0.2514
  676MOL0     N91175   3.893   5.939   4.826 -0.5481 -0.0606 -0.5742
  676MOL0     N91176   3.766   5.939   4.796 -0.0254 -0.2334 -0.2205
  676MOL0     C91177   3.906   5.147   5.381 -0.4358  0.0865  0.0518
  676MOL0     C91178   3.971   5.054   5.457  0.0980  0.2454  0.0698
  676MOL0     C91179   4.254   4.735   5.575 -0.6608  0.8764  0.7072
  676MOL0     C91180   4.287   4.611   5.504  0.7126  0.1223  0.5746
  676MOL0     C91181   4.292   4.498   5.574  1.1196  0.2610  0.8155
  676MOL0     C91182   4.266   4.481   5.706  0.4504  0.8557 -0.3834
  676MOL0     O91183   4.314   4.364   5.778 -0.4038 -0.3529 -0.2361
  676MOL0     C91184   4.356   4.243   5.724  0.1525 -0.3670 -0.3867
  676MOL0     C91185   4.420   4.170   5.831 -0.6289 -0.6869 -0.2945
  676MOL0     C91186   4.561   4.226   5.858  0.3441  0.0536  0.6856
  676MOL0     C91187   4.627   4.174   5.988  0.4676 -0.1425 -0.0251
  676MOL0     C91188   4.585   4.042   6.023 -1.1344 -0.1519 -1.0450
  676MOL0     C91189   4.561   3.925   6.055 -0.4230  0.6261 -0.4479
  676MOL0     C91190   4.239   4.597   5.779 -0.6027 -0.8561 -0.2969
  676MOL0     C91191   4.226   4.724   5.719  0.3811 -0.2114  0.0947
  676MOL0     C91192   4.211   4.839   5.809 -0.7972  0.8306  0.1777
  676MOL0     H91193   4.292   5.181   5.447  0.1463  0.8185 -0.4920
  676MOL0     H91194   4.176   5.350   5.323 -1.7755  1.5867  1.4109
  676MOL0     H91195   3.768   5.300   5.125  1.0129 -2.9148  0.7931
  676MOL0     H91196   3.737   5.316   5.299 -0.4618  0.2286  0.0120
  676MOL0     H91197   3.798   5.538   5.118  0.5927  0.6715  0.7751
  676MOL0     H91198   3.787   5.547   5.298  1.2537  0.0842  0.0120
  676MOL0     H91199   3.536   5.474   5.276 -4.0301  1.4609 -0.0989
  676MOL0     H91200   3.549   5.445   5.108  0.7913 -0.7019  0.3029
  676MOL0     H91201   3.428   5.664   5.159 -0.4499 -0.9792  3.8524
  676MOL0     H91202   3.569   5.708   5.242 -3.0224  0.7822  0.9025
  676MOL0     H91203   3.578   5.811   5.008 -0.0642 -1.1600 -0.3881
  676MOL0     H91204   3.667   5.670   4.991  0.2300  0.7101  1.4527
  676MOL0     H91205   3.405   5.592   4.913 -0.5191  0.6610  1.3714
  676MOL0     H91206   3.396   5.754   4.875  0.3506  0.5453  2.2706
  676MOL0     H91207   3.472   5.609   4.688 -2.7380 -0.7048  1.7259
  676MOL0     H91208   3.619   5.566   4.771 -0.8277 -1.5421 -1.1333
  676MOL0     H91209   3.641   5.753   4.590 -2.0833  1.4155 -1.2282
  676MOL0     H91210   3.558   5.861   4.697  0.9721  1.1243 -0.6900
  676MOL0     H91211   3.874   5.625   4.763  1.3670 -0.4533 -0.4526
  676MOL0     H91212   4.133   5.722   4.744 -0.2869 -0.1898  1.5679
  676MOL0     H91213   4.152   5.876   4.814  0.6702  0.3263  2.3941
  676MOL0     H91214   4.077   5.628   4.981 -0.2588  0.2052 -1.2619
  676MOL0     H91215   4.240   5.675   4.965  0.4626 -1.2092  0.6367
  676MOL0     H91216   4.012   5.856   5.096  0.4267  0.6647  0.6529
  676MOL0     H91217   4.170   5.910   5.069  2.0181 -1.1043  1.5952
  676MOL0     H91218   4.062   5.705   5.250 -0.8767  0.4528  1.4947
  676MOL0     H91219   4.171   5.842   5.292  0.6858 -1.0660  1.4734
  676MOL0     H91220   4.474   5.544   5.237 -6.0402  1.7616  0.5753
  676MOL0     H91221   4.717   5.616   5.258 -1.7181 -1.8437 -1.4039
  676MOL0     H91222   5.051   5.769   5.456 -3.8265  2.9225 -0.1948
  676MOL0     H91223   5.293   5.817   5.475 -1.2010 -0.1789  0.5368
  676MOL0     H91224   5.490   5.991   5.122  3.2262  0.7685 -1.4003
  676MOL0     H91225   5.496   6.109   5.262 -0.5688  0.6800 -1.8606
  676MOL0     H91226   5.697   6.003   5.338  1.7591  0.1142  0.0819
  676MOL0     H91227   5.690   5.882   5.210  0.8288 -0.0208  3.1622
  676MOL0     H91228   5.714   6.081   5.047 -0.4291 -1.5546  0.2033
  676MOL0     H91229   5.734   6.190   5.194  1.7017  0.6175 -0.9423
  676MOL0     H91230   5.917   6.036   5.261 -1.4241  0.8508 -0.2881
  676MOL0     H91231   5.950   6.131   5.110  0.8165  0.5936  1.1804
  676MOL0     H91232   5.905   5.924   4.971  2.0612  0.8158  0.6335
  676MOL0     H91233   5.873   5.826   5.115 -1.0185  0.1053  1.0067
  676MOL0     H91234   6.081   5.823   5.187  0.8851  1.9708  0.2017
  676MOL0     H91235   6.076   5.787   5.014 -0.3269 -3.8281  2.1207
  676MOL0     H91236   6.146   6.075   5.106 -0.5727 -0.7330  1.2694
  676MOL0     H91237   6.228   5.968   4.986 -3.4210 -2.0173 -1.0954
  676MOL0     H91238   6.319   5.838   5.197 -0.1585  0.2857  0.1902
  676MOL0     H91239   6.380   6.006   5.167 -0.3764  0.0194  1.1070
  676MOL0     H91240   5.291   5.971   5.082 -1.4644  1.1515 -0.0471
  676MOL0     H91241   5.048   5.907   5.052  1.0940  0.7205 -0.4532
  676MOL0     H91242   4.565   6.022   5.200 -2.4688  0.3978 -0.1143
  676MOL0     H91243   4.351   5.940   5.200 -0.5883 -0.2830  0.8030
  676MOL0     H91244   3.804   5.123   5.355 -0.5730  1.3058 -0.5899
  676MOL0     H91245   3.928   4.962   5.497  1.4714 -1.0935 -1.4030
  676MOL0     H91246   4.298   4.601   5.396 -3.6880 -2.8986  0.1078
  676MOL0     H91247   4.340   4.419   5.516  1.3395  1.9400 -1.4680
  676MOL0     H91248   4.416   4.248   5.633  0.8982 -0.8434  0.0653
  676MOL0     H91249   4.265   4.189   5.695 -2.7380  2.3238  2.8594
  676MOL0     H91250   4.434   4.064   5.808  0.7754 -0.3437 -1.1332
  676MOL0     H91251   4.362   4.173   5.924  0.7585  1.1487  0.5757
  676MOL0     H91252   4.551   4.334   5.875 -2.2717  0.0753 -0.4425
  676MOL0     H91253   4.621   4.209   5.769 -1.0938  0.8170 -0.4754
  676MOL0     H91254   4.736   4.174   5.978  0.4524  1.3181 -0.5383
  676MOL0     H91255   4.608   4.252   6.062 -2.0444  0.4427 -1.1607
  676MOL0     H91256   4.546   3.822   6.077  1.5675  0.6816  1.5126
  676MOL0     H91257   4.228   4.589   5.887 -1.4175  0.0385 -0.3031
  676MOL0     H91258   4.196   4.809   5.914  2.6366  1.1416  0.8793
  676MOL0     H91259   4.302   4.900   5.805 -0.2871  0.2589  1.8902
  676MOL0     H91260   4.128   4.900   5.774 -0.9710  0.4675 -0.0376
  677MOL0     O91261   8.012   2.115   5.683  0.0462  0.0250  0.4147
  677MOL0     C91262   8.053   2.232   5.650  0.6236 -0.2153  0.1704
  677MOL0     O91263   8.171   2.268   5.586  0.3744  0.2880  0.9148
  677MOL0     C91264   8.279   2.178   5.589 -0.1845  0.5503 -0.4734
  677MOL0     C91265   8.258   2.069   5.512  0.5009 -0.2993  0.5323
  677MOL0     C91266   8.356   1.974   5.506  0.1902 -0.3925 -0.0325
  677MOL0     C91267   8.474   1.977   5.594 -0.2007 -0.1334 -1.5083
  677MOL0     O91268   8.567   1.874   5.613 -0.0200 -0.0158  0.4306
  677MOL0     C91269   8.564   1.756   5.532 -0.4080  0.2390 -0.4239
  677MOL0     C91270   8.680   1.658   5.562  0.3275  0.2458 -0.3361
  677MOL0     C91271   8.810   1.714   5.502 -0.0340  0.1823 -0.3328
  677MOL0     C91272   8.910   1.607   5.482 -0.3883 -0.0342  0.4922
  677MOL0     C91273   9.057   1.655   5.470 -0.0711  1.0350  0.2509
  677MOL0     C91274   9.164   1.540   5.467 -0.3426 -0.6770 -0.6209
  677MOL0     C91275   9.309   1.603   5.466 -0.3384  0.3254  0.5411
  677MOL0     C91276   9.330   1.718   5.374 -0.3174 -0.1176  0.2251
  677MOL0     N91277   9.474   1.733   5.357  0.8965 -0.3025 -0.5333
  677MOL0     C91278   9.550   1.658   5.275  0.0592 -0.6926  1.1302
  677MOL0     C91279   9.682   1.677   5.310 -0.4812  0.0075  0.4112
  677MOL0     C91280   9.796   1.622   5.233 -0.0963 -0.1130  0.0764
  677MOL0     C91281   9.877   1.536   5.326 -0.8428  0.1451  0.1869
  677MOL0     C91282   9.974   1.623   5.413 -0.4501  0.2371  0.0070
  677MOL0     C91283  10.089   1.691   5.336  0.4131 -0.9337  0.0823
  677MOL0     O91284  10.144   1.790   5.421  0.5795 -0.7234 -0.8148
  677MOL0     C91285  10.273   1.827   5.418  0.5060  0.4148 -0.1197
  677MOL0     C91286  10.380   1.742   5.377 -0.6030  0.2794 -0.3400
  677MOL0     C91287  10.514   1.794   5.383 -0.4045 -0.4029 -0.8045
  677MOL0     C91288  10.542   1.918   5.419  0.6077 -0.6633 -0.0184
  677MOL0     C91289  10.679   1.969   5.428  0.5434  0.6434 -0.3903
  677MOL0     O91290  10.771   1.898   5.354 -0.2219  0.4338 -0.3711
  677MOL0     C91291  10.898   1.962   5.332  0.2944  0.1496  0.4981
  677MOL0     C91292  11.005   1.961   5.414  0.1585 -0.3438 -0.6397
  677MOL0     C91293  11.126   2.018   5.370  0.5240  0.1639  0.1731
  677MOL0     C91294  11.137   2.085   5.243 -0.7339 -0.3749 -0.1359
  677MOL0     O91295  11.262   2.134   5.218 -0.1239  0.0168 -0.1494
  677MOL0     C91296  11.290   2.212   5.105  0.6402 -0.1050  0.0788
  677MOL0     C91297  11.427   2.277   5.109 -0.5504 -0.7403 -0.5267
  677MOL0     C91298  11.464   2.372   4.992  0.7738 -0.4740  0.6289
  677MOL0     C91299  11.377   2.498   4.993 -0.6237  0.1216  0.1326
  677MOL0     C91300  11.425   2.600   4.888 -0.5487 -0.1702 -0.1950
  677MOL0     C91301  11.402   2.563   4.741  0.0814  0.4401 -0.3183
  677MOL0     C91302  11.248   2.545   4.717  0.2961  0.1775  0.0637
  677MOL0     C91303  11.222   2.498   4.574  0.2163 -0.2660  0.4324
  677MOL0    Cl91304  11.307   2.348   4.524  0.5430 -0.2992 -0.3332
  677MOL0     C91305  11.031   2.075   5.160  0.1784 -0.5885  0.4197
  677MOL0     C91306  10.911   2.022   5.204 -0.2392  0.8135  0.9282
  677MOL0     O91307  10.708   2.079   5.474 -0.2879  0.4602 -0.4180
  677MOL0     C91308  10.430   2.008   5.426  0.2250 -0.9091 -0.3561
  677MOL0     C91309  10.296   1.961   5.430  0.1586  0.9812  1.0939
  677MOL0     N91310   9.675   1.776   5.413  0.2516 -0.0590  0.3615
  677MOL0     N91311   9.551   1.817   5.431  0.2958  0.1022  0.4725
  677MOL0     C91312   8.481   2.091   5.676 -0.0413  1.0625 -0.6221
  677MOL0     C91313   8.388   2.192   5.676 -0.1353  0.3298  0.2454
  677MOL0     C91314   7.945   2.344   5.679 -0.8341  0.9282 -0.0354
  677MOL0     C91315   7.985   2.480   5.655 -1.0124  0.1191  0.7462
  677MOL0     C91316   7.897   2.588   5.660  0.5289  0.9640  0.4883
  677MOL0     C91317   7.767   2.562   5.705 -0.4083 -0.6263 -0.0227
  677MOL0     O91318   7.675   2.660   5.716 -0.0693  0.4556  0.5011
  677MOL0     C91319   7.682   2.781   5.629  0.3154  0.3518  0.1187
  677MOL0     C91320   7.546   2.840   5.622  0.3685 -0.2552  0.0873
  677MOL0     C91321   7.434   2.745   5.577 -0.7470 -0.6477  0.1189
  677MOL0     C91322   7.332   2.820   5.505 -0.2916 -0.0360 -0.6514
  677MOL0     C91323   7.374   2.876   5.376 -0.5225 -0.1886 -0.0248
  677MOL0     C91324   7.415   2.914   5.265  0.9015 -0.4950  0.1232
  677MOL0     C91325   7.724   2.433   5.741 -0.5114  0.6849  0.0082
  677MOL0     C91326   7.806   2.323   5.729  0.7356  1.2739  0.4406
  677MOL0     C91327   7.754   2.188   5.772  0.4021  0.8263 -0.5300
  677MOL0     H91328   8.163   2.057   5.462  0.3741  0.5748  0.5500
  677MOL0     H91329   8.350   1.898   5.429 -0.6966  0.5046 -0.8825
  677MOL0     H91330   8.479   1.697   5.568 -0.4384  0.7439  0.3783
  677MOL0     H91331   8.559   1.781   5.426 -1.7688  0.7461 -0.2692
  677MOL0     H91332   8.656   1.561   5.516  0.1807 -0.0269  0.2889
  677MOL0     H91333   8.687   1.637   5.670  0.4773 -1.3945 -0.6267
  677MOL0     H91334   8.849   1.786   5.575 -0.0597  0.8921 -1.0100
  677MOL0     H91335   8.787   1.778   5.417 -1.3975 -0.0099 -0.1268
  677MOL0     H91336   8.907   1.533   5.563 -4.8198 -0.4461  0.2002
  677MOL0     H91337   8.879   1.560   5.388 -1.1518 -0.4772  0.9540
  677MOL0     H91338   9.055   1.701   5.371 -3.4257  2.2241  0.7504
  677MOL0     H91339   9.083   1.721   5.553  3.5498 -0.1526  0.2539
  677MOL0     H91340   9.157   1.473   5.553  1.0136  0.0166  0.0638
  677MOL0     H91341   9.146   1.470   5.385  4.4511 -1.4439 -1.3584
  677MOL0     H91342   9.381   1.528   5.433 -0.9094  0.1899 -0.4314
  677MOL0     H91343   9.324   1.622   5.572 -3.3282  0.8175  0.9578
  677MOL0     H91344   9.284   1.714   5.275 -0.0937  0.2221  0.1030
  677MOL0     H91345   9.289   1.807   5.422 -0.8135 -0.3647  0.2630
  677MOL0     H91346   9.510   1.590   5.201  3.9881 -0.6534 -1.3231
  677MOL0     H91347   9.753   1.574   5.145 -1.1261 -1.0879  1.0829
  677MOL0     H91348   9.848   1.709   5.191  1.7765 -0.9458  0.5616
  677MOL0     H91349   9.809   1.475   5.386 -1.1148  1.6651  1.5004
  677MOL0     H91350   9.945   1.467   5.274  1.7821  2.4349  0.3648
  677MOL0     H91351  10.001   1.553   5.493  0.5531  1.6965  0.9863
  677MOL0     H91352   9.910   1.691   5.468 -0.5120 -0.7521  1.2127
  677MOL0     H91353  10.041   1.746   5.254  0.9711 -0.0270  0.3511
  677MOL0     H91354  10.161   1.619   5.295  1.5302 -0.4738  1.1589
  677MOL0     H91355  10.362   1.641   5.343 -1.5836  1.3381 -3.2188
  677MOL0     H91356  10.601   1.732   5.363  0.5767  0.0027  1.8777
  677MOL0     H91357  11.005   1.927   5.517 -1.7218  5.3223  1.6510
  677MOL0     H91358  11.208   2.012   5.441 -1.2041  0.2801  2.2908
  677MOL0     H91359  11.273   2.148   5.018 -0.3331  1.0598 -0.6189
  677MOL0     H91360  11.224   2.299   5.104  4.7212  3.2983 -0.0448
  677MOL0     H91361  11.423   2.334   5.202 -1.4069 -1.4274 -0.1298
  677MOL0     H91362  11.506   2.202   5.107 -0.6951 -0.9044 -2.2051
  677MOL0     H91363  11.560   2.419   5.016  0.1938  1.5218 -0.6891
  677MOL0     H91364  11.463   2.314   4.899  0.7027  3.5731 -2.1859
  677MOL0     H91365  11.413   2.539   5.089  1.8413 -1.1618 -0.1486
  677MOL0     H91366  11.271   2.474   4.992 -0.0527 -2.8369  0.5578
  677MOL0     H91367  11.533   2.607   4.900 -0.3823 -1.0562 -1.0421
  677MOL0     H91368  11.378   2.699   4.899 -0.9662 -0.6218  3.0768
  677MOL0     H91369  11.443   2.632   4.667  2.1786  0.9284  1.1954
  677MOL0     H91370  11.462   2.472   4.727 -1.9649 -1.1838  0.8087
  677MOL0     H91371  11.201   2.640   4.743  0.8942  0.3696  0.4717
  677MOL0     H91372  11.214   2.468   4.787  0.2375 -1.7171 -1.9657
  677MOL0     H91373  11.114   2.494   4.557  0.3610  0.6538 -0.8723
  677MOL0     H91374  11.263   2.575   4.509 -0.5011 -1.2892 -1.2985
  677MOL0     H91375  11.040   2.111   5.058 -3.2496 -2.8681 -0.8696
  677MOL0     H91376  10.822   2.030   5.142  0.7436 -1.5388 -0.9298
  677MOL0     H91377  10.454   2.114   5.424  0.6552 -1.0030 -0.5518
  677MOL0     H91378  10.212   2.030   5.430 -0.1661  0.9094 -3.2247
  677MOL0     H91379   8.561   2.101   5.748  1.8322 -0.9693 -2.2994
  677MOL0     H91380   8.402   2.287   5.727  0.7413  0.7891 -0.8054
  677MOL0     H91381   8.090   2.489   5.630 -0.2243 -1.4697  3.1695
  677MOL0     H91382   7.918   2.692   5.639 -0.4370  1.2499  0.9005
  677MOL0     H91383   7.727   2.752   5.534  3.0167  1.5693  0.9148
  677MOL0     H91384   7.749   2.855   5.673 -0.5574  1.8043 -0.9103
  677MOL0     H91385   7.563   2.932   5.565  1.6686  1.0387  2.3870
  677MOL0     H91386   7.530   2.882   5.722  2.3064 -1.4485  0.9555
  677MOL0     H91387   7.383   2.697   5.661 -1.0736 -0.1951  0.1809
  677MOL0     H91388   7.468   2.663   5.512 -4.2442 -2.4491  0.3434
  677MOL0     H91389   7.241   2.759   5.495  0.6504 -1.7429  0.6007
  677MOL0     H91390   7.310   2.910   5.563 -2.4046 -1.5918  1.1509
  677MOL0     H91391   7.451   2.929   5.166  3.8889 -1.0760  1.0170
  677MOL0     H91392   7.625   2.429   5.786  0.4736 -0.2338  2.2511
  677MOL0     H91393   7.716   2.124   5.692  1.6845 -0.2604 -0.2948
  677MOL0     H91394   7.826   2.132   5.832 -1.9866 -3.9908 -1.7020
  677MOL0     H91395   7.669   2.204   5.840 -0.1751  0.5645 -1.1817
  678MOL0     O91396   7.337   5.888   3.982 -0.0937  0.7528 -0.3461
  678MOL0     C91397   7.396   5.857   3.874  0.3844  0.4550 -0.0650
  678MOL0     O91398   7.503   5.915   3.815  0.8507  0.0836  0.0775
  678MOL0     C91399   7.579   6.012   3.882 -0.1054 -0.9747  0.1658
  678MOL0     C91400   7.575   6.065   4.019  0.9550 -0.1846  0.6512
  678MOL0     C91401   7.672   6.143   4.081 -0.0219  0.5788 -0.6473
  678MOL0     C91402   7.778   6.169   4.000  0.9282 -0.0397  0.3693
  678MOL0     O91403   7.875   6.244   4.061 -0.2973 -0.7301 -0.5416
  678MOL0     C91404   8.008   6.188   4.053 -0.1113  0.1332 -0.3995
  678MOL0     C91405   8.043   6.143   4.195  0.5635 -1.1892  0.5356
  678MOL0     C91406   8.183   6.092   4.199  0.6936 -0.2670  0.7174
  678MOL0     C91407   8.235   6.069   4.349  0.3337 -0.8467  1.5353
  678MOL0     C91408   8.369   5.992   4.370  0.6339 -0.0367  0.3281
  678MOL0     C91409   8.481   6.041   4.273  0.3720  0.1715  0.3076
  678MOL0     C91410   8.618   6.023   4.320 -0.3802 -0.4964 -0.2498
  678MOL0     C91411   8.729   6.059   4.220  0.0838  0.1286 -0.8390
  678MOL0     N91412   8.851   6.104   4.291  0.0707 -0.3925 -0.7715
  678MOL0     C91413   8.911   6.232   4.281 -0.2093  0.4949 -0.6159
  678MOL0     C91414   9.031   6.208   4.340  0.6249  0.0492  0.4734
  678MOL0     C91415   9.135   6.312   4.336  0.2037  0.6395  0.1629
  678MOL0     C91416   9.244   6.260   4.233  0.0065 -0.1125 -0.5557
  678MOL0     C91417   9.348   6.370   4.219  0.1130  0.4124  0.1321
  678MOL0     C91418   9.293   6.483   4.133  0.9367  0.7358 -0.7896
  678MOL0     O91419   9.359   6.600   4.166 -0.7297  0.5384  0.0921
  678MOL0     C91420   9.463   6.639   4.081  0.1069  0.0862 -0.7589
  678MOL0     C91421   9.499   6.772   4.108 -0.6055 -0.2841  0.0685
  678MOL0     C91422   9.602   6.825   4.035 -0.7211  0.1895  0.5146
  678MOL0     C91423   9.685   6.759   3.941  0.8596  0.0946 -0.0555
  678MOL0     C91424   9.803   6.816   3.869 -0.4514  0.9152  0.7225
  678MOL0     O91425   9.798   6.950   3.859  0.0755  0.2937  0.7024
  678MOL0     C91426   9.881   7.004   3.771 -0.7515  0.3144 -0.2816
  678MOL0     C91427  10.010   7.035   3.810 -0.5857  0.0463 -0.9580
  678MOL0     C91428  10.100   7.083   3.708 -1.0047  1.2603  0.0485
  678MOL0     C91429  10.059   7.113   3.579  0.6303 -0.3943  0.2825
  678MOL0     O91430  10.127   7.157   3.474 -0.4230 -0.5880 -0.3245
  678MOL0     C91431  10.249   7.228   3.485 -0.6413  0.2499 -0.3442
  678MOL0     C91432  10.298   7.311   3.366  0.3929  0.1601  0.1477
  678MOL0     C91433  10.198   7.426   3.360 -0.0857 -1.0718  0.6272
  678MOL0     C91434  10.243   7.540   3.461  0.8168  0.1375 -0.4996
  678MOL0     C91435  10.134   7.645   3.476  0.6287 -0.1001 -0.4349
  678MOL0     C91436  10.171   7.768   3.383 -0.0145  0.7592  0.2672
  678MOL0     C91437  10.054   7.858   3.364 -0.5951  0.3523 -0.1013
  678MOL0     C91438   9.965   7.817   3.246  0.1288 -0.0999 -0.4048
  678MOL0    Cl91439   9.806   7.905   3.240  0.1455  0.1082 -0.6899
  678MOL0     C91440   9.928   7.083   3.544 -0.3319 -0.1863  0.6079
  678MOL0     C91441   9.834   7.030   3.640 -1.1632 -0.0521 -0.2561
  678MOL0     O91442   9.887   6.740   3.818  0.2268  0.4956 -0.2825
  678MOL0     C91443   9.650   6.626   3.911  0.3053  0.0832 -0.2690
  678MOL0     C91444   9.538   6.566   3.985  1.0928 -0.1298  0.7808
  678MOL0     N91445   9.040   6.073   4.379  0.2597 -0.1691  0.1550
  678MOL0     N91446   8.928   6.012   4.355  0.3201 -0.3774  0.0708
  678MOL0     C91447   7.791   6.126   3.868 -0.6322 -0.2003 -0.1448
  678MOL0     C91448   7.694   6.048   3.811 -0.3774  0.1209 -0.0351
  678MOL0     C91449   7.333   5.745   3.801  0.2300 -0.4348 -0.0402
  678MOL0     C91450   7.198   5.741   3.800  0.5509  0.2801 -0.0757
  678MOL0     C91451   7.128   5.648   3.717 -1.5485 -0.0397 -0.1580
  678MOL0     C91452   7.193   5.556   3.636  0.1415 -0.3512 -0.2031
  678MOL0     O91453   7.135   5.455   3.569  0.0056  0.5623 -0.3564
  678MOL0     C91454   6.994   5.447   3.558  0.2163 -0.0192 -0.0672
  678MOL0     C91455   6.952   5.300   3.515  0.8970  0.1393  0.4353
  678MOL0     C91456   6.794   5.299   3.504  0.6590 -0.8292  0.9926
  678MOL0     C91457   6.743   5.164   3.440 -0.1375  0.1683 -0.0235
  678MOL0     C91458   6.715   5.172   3.299  0.1956  0.8332  0.4519
  678MOL0     C91459   6.699   5.169   3.175  0.7842  0.4573  0.4959
  678MOL0     C91460   7.334   5.551   3.648  0.2910 -0.1985  1.0818
  678MOL0     C91461   7.408   5.652   3.718 -0.0885  0.3546 -0.2585
  678MOL0     C91462   7.561   5.648   3.717  0.5389 -0.6522  1.3653
  678MOL0     H91463   7.491   6.036   4.081 -2.9687  2.6151 -2.7645
  678MOL0     H91464   7.670   6.165   4.187  0.7076  1.4419 -0.7971
  678MOL0     H91465   8.008   6.102   3.986 -2.3722  0.9516 -1.5407
  678MOL0     H91466   8.068   6.274   4.020 -0.0693 -0.0185 -0.7230
  678MOL0     H91467   7.967   6.069   4.225 -0.2670 -1.4698 -1.9912
  678MOL0     H91468   8.038   6.236   4.253  3.3500  1.6925 -3.3807
  678MOL0     H91469   8.254   6.161   4.152  1.6738 -1.8671 -0.2184
  678MOL0     H91470   8.187   6.001   4.139 -1.2710  0.9858 -1.4652
  678MOL0     H91471   8.244   6.169   4.393 -1.3003  0.3614 -0.6383
  678MOL0     H91472   8.145   6.022   4.390 -1.0499 -0.0998 -0.4670
  678MOL0     H91473   8.390   6.017   4.474 -0.6580 -0.4305  0.7052
  678MOL0     H91474   8.364   5.882   4.369  1.4341 -0.0778 -0.3137
  678MOL0     H91475   8.457   5.988   4.181 -2.5839 -1.7795  2.0289
  678MOL0     H91476   8.473   6.148   4.253  1.3161 -0.1115 -1.8415
  678MOL0     H91477   8.642   5.920   4.344  1.5809 -1.8046 -6.1605
  678MOL0     H91478   8.631   6.093   4.404 -2.1250 -2.9474  2.2261
  678MOL0     H91479   8.752   5.972   4.158  1.4783  0.3552 -0.6621
  678MOL0     H91480   8.687   6.141   4.161 -1.6572 -0.1944 -0.0979
  678MOL0     H91481   8.880   6.322   4.228 -1.0114 -0.2938 -1.5200
  678MOL0     H91482   9.084   6.407   4.318 -0.6538 -0.0398 -1.1877
  678MOL0     H91483   9.172   6.321   4.438  0.7550  0.4805 -0.0155
  678MOL0     H91484   9.305   6.186   4.285  0.8326  0.6730 -0.3740
  678MOL0     H91485   9.197   6.225   4.141 -0.6191 -2.5427  0.6007
  678MOL0     H91486   9.436   6.328   4.170  0.0727  0.3741  0.0918
  678MOL0     H91487   9.388   6.404   4.315  2.0799 -3.0101  0.6721
  678MOL0     H91488   9.186   6.483   4.155  1.1714  0.5858  0.4386
  678MOL0     H91489   9.291   6.463   4.026  0.5728  0.9426 -0.8246
  678MOL0     H91490   9.450   6.845   4.172  1.5009  2.0595 -0.8282
  678MOL0     H91491   9.624   6.929   4.058 -1.4499  0.3017  0.7161
  678MOL0     H91492  10.041   7.011   3.911 -0.3853 -1.4266 -1.3364
  678MOL0     H91493  10.206   7.091   3.732 -0.0001  1.5690 -3.7863
  678MOL0     H91494  10.235   7.290   3.574  1.9423 -1.2145  1.2115
  678MOL0     H91495  10.332   7.160   3.506  0.2255  1.3076 -0.2367
  678MOL0     H91496  10.396   7.357   3.382  1.1989 -1.0311 -1.1248
  678MOL0     H91497  10.306   7.258   3.271  1.2561 -2.0186  1.3658
  678MOL0     H91498  10.220   7.450   3.256  1.5865 -0.5669  1.0818
  678MOL0     H91499  10.091   7.400   3.364 -0.8561  1.6962 -0.0946
  678MOL0     H91500  10.336   7.586   3.427  0.8064  0.4917 -0.0555
  678MOL0     H91501  10.262   7.506   3.563  0.6398  1.5921  0.0502
  678MOL0     H91502  10.116   7.672   3.581  1.9520  1.4467 -0.5794
  678MOL0     H91503  10.038   7.608   3.438  1.1557 -0.4505 -1.4758
  678MOL0     H91504  10.255   7.829   3.418  0.7539  1.6263 -2.8386
  678MOL0     H91505  10.195   7.735   3.282  0.1722  3.0816 -0.5044
  678MOL0     H91506  10.089   7.962   3.357  1.0893 -0.0179  1.7922
  678MOL0     H91507   9.991   7.850   3.453  1.5999 -2.5701  1.3509
  678MOL0     H91508  10.022   7.860   3.163  2.3599 -1.0423  0.5607
  678MOL0     H91509   9.962   7.709   3.234  1.8851 -0.2513  0.1317
  678MOL0     H91510   9.889   7.089   3.443  1.5723 -2.0582 -0.3056
  678MOL0     H91511   9.731   7.004   3.618 -1.2046 -0.6010  0.5459
  678MOL0     H91512   9.707   6.568   3.839  2.6705  0.6812  1.0511
  678MOL0     H91513   9.528   6.459   3.976 -1.4161  0.2344 -3.1136
  678MOL0     H91514   7.869   6.161   3.802 -0.3282  0.8492  0.7260
  678MOL0     H91515   7.714   6.015   3.709 -0.7490 -1.7679  0.4655
  678MOL0     H91516   7.139   5.808   3.863  0.9230  0.3632  0.1867
  678MOL0     H91517   7.021   5.659   3.708 -1.4534  2.0757  0.8634
  678MOL0     H91518   6.964   5.508   3.472 -3.7130 -3.0165 -1.1183
  678MOL0     H91519   6.943   5.477   3.650 -0.8092 -2.4472  0.2208
  678MOL0     H91520   6.997   5.230   3.586 -0.0510 -1.5479 -0.5509
  678MOL0     H91521   6.992   5.275   3.416  1.0811 -0.1276  0.5779
  678MOL0     H91522   6.772   5.378   3.432  3.1708 -0.6047  0.3858
  678MOL0     H91523   6.745   5.318   3.600 -1.5861  0.0354 -0.2434
  678MOL0     H91524   6.822   5.089   3.446  0.1529  0.0021 -3.5612
  678MOL0     H91525   6.649   5.131   3.484 -0.6219  2.1189  0.4980
  678MOL0     H91526   6.687   5.175   3.068  1.5353 -3.0324  0.1169
  678MOL0     H91527   7.393   5.475   3.598 -0.0575  0.7425 -0.8354
  678MOL0     H91528   7.591   5.739   3.663 -3.9646  0.1924 -0.1594
  678MOL0     H91529   7.612   5.655   3.813  0.9387  0.2357  1.0997
  678MOL0     H91530   7.605   5.564   3.663  0.1131  0.0325 -0.1304
  679MOL0     O91531   1.230   4.973  10.596  0.0315  0.0640  0.0374
  679MOL0     C91532   1.213   5.085  10.537  0.6333  0.1435  0.1652
  679MOL0     O91533   1.313   5.170  10.500 -0.0499  0.6226 -0.4755
  679MOL0     C91534   1.438   5.148  10.557  0.2389  0.5868  0.0272
  679MOL0     C91535   1.548   5.163  10.467 -0.0788 -0.7781 -0.2725
  679MOL0     C91536   1.682   5.142  10.518  1.8911 -0.4076  0.4521
  679MOL0     C91537   1.700   5.103  10.653 -0.7776  0.2197  0.1337
  679MOL0     O91538   1.827   5.106  10.697 -0.1402 -0.0304 -0.3473
  679MOL0     C91539   1.860   5.063  10.834  0.4211 -0.7799  0.0980
  679MOL0     C91540   2.007   5.020  10.835 -1.2272  0.4088  0.4223
  679MOL0     C91541   2.110   5.133  10.806 -1.2264  0.4310  0.6623
  679MOL0     C91542   2.235   5.061  10.741  1.2450 -0.8818 -0.2268
  679MOL0     C91543   2.344   5.166  10.708 -0.2986 -0.4294  0.1129
  679MOL0     C91544   2.457   5.108  10.617  0.8151  0.5235  0.0874
  679MOL0     C91545   2.571   5.214  10.601  0.1999  0.0337  0.3590
  679MOL0     C91546   2.677   5.146  10.510  0.3591 -0.8600  0.0703
  679MOL0     N91547   2.782   5.247  10.463 -0.5636  0.1704  0.0445
  679MOL0     C91548   2.777   5.383  10.483  0.7568  0.0692 -0.4450
  679MOL0     C91549   2.886   5.429  10.423 -0.0742 -0.0963 -0.4287
  679MOL0     C91550   2.915   5.574  10.389 -0.0951 -0.9868  0.1462
  679MOL0     C91551   3.003   5.639  10.499  0.3522 -0.0254  0.2112
  679MOL0     C91552   2.943   5.656  10.642 -0.5542 -0.3650  0.2992
  679MOL0     C91553   2.839   5.769  10.653 -0.4307  0.2357 -0.8373
  679MOL0     O91554   2.714   5.721  10.600 -0.0393 -0.3997  0.5054
  679MOL0     C91555   2.602   5.788  10.641 -0.2088  1.2902  0.8495
  679MOL0     C91556   2.495   5.704  10.685 -1.3976  0.3057  0.4669
  679MOL0     C91557   2.373   5.761  10.717 -1.0560 -0.2096 -0.4542
  679MOL0     C91558   2.364   5.904  10.730  0.4514  0.4452 -0.2348
  679MOL0     C91559   2.246   5.968  10.780  0.5144 -0.2786 -0.0661
  679MOL0     O91560   2.144   5.877  10.822 -0.5257 -0.1919 -0.0491
  679MOL0     C91561   2.020   5.920  10.867 -0.0325  0.6581 -0.3311
  679MOL0     C91562   1.962   6.040  10.816 -0.3510  0.0482  0.8977
  679MOL0     C91563   1.835   6.084  10.864  0.0670 -0.2786  0.1147
  679MOL0     C91564   1.760   6.009  10.955  0.0687  0.4582  0.3277
  679MOL0     O91565   1.639   6.048  11.015  0.2120  0.0744  0.4004
  679MOL0     C91566   1.609   6.185  11.027  1.0362  0.5390 -0.5218
  679MOL0     C91567   1.494   6.205  11.129  0.3273 -0.5234  0.7840
  679MOL0     C91568   1.411   6.328  11.097 -0.2285  0.2751  0.3948
  679MOL0     C91569   1.308   6.358  11.208  0.4469 -0.5534  0.3914
  679MOL0     C91570   1.273   6.514  11.214  0.1266  0.0709 -0.1979
  679MOL0     C91571   1.183   6.545  11.338 -0.5278 -1.2278 -0.2638
  679MOL0     C91572   1.170   6.696  11.336 -0.1440 -0.2404  0.1897
  679MOL0     C91573   1.029   6.737  11.389 -0.0692 -0.2661  0.1425
  679MOL0    Cl91574   0.907   6.683  11.274 -0.4161  0.8330  0.0730
  679MOL0     C91575   1.815   5.889  11.005 -0.1823  0.2779  0.7366
  679MOL0     C91576   1.944   5.849  10.958  0.7412  1.1390  0.1717
  679MOL0     O91577   2.236   6.085  10.756  0.5917 -0.4692  0.4973
  679MOL0     C91578   2.467   5.978  10.697  0.8424  0.1524  0.5642
  679MOL0     C91579   2.584   5.924  10.642  1.1053  0.2634  1.4736
  679MOL0     N91580   2.958   5.327  10.361 -0.8380 -0.4360  0.1230
  679MOL0     N91581   2.899   5.215  10.391 -0.1782  1.2422 -0.3339
  679MOL0     C91582   1.587   5.085  10.743  0.1843  1.0255  0.8212
  679MOL0     C91583   1.464   5.108  10.688 -0.1996  0.5384 -0.7199
  679MOL0     C91584   1.077   5.119  10.500  1.0154  0.4700 -0.4763
  679MOL0     C91585   1.055   5.254  10.472  0.5871 -0.8901  0.3056
  679MOL0     C91586   0.927   5.305  10.448 -0.2963  0.1245 -0.2974
  679MOL0     C91587   0.821   5.215  10.429  0.2614 -0.4880 -0.1434
  679MOL0     O91588   0.693   5.269  10.396  0.4424  0.2277  1.0213
  679MOL0     C91589   0.578   5.191  10.391  0.0063 -0.3638 -0.8468
  679MOL0     C91590   0.454   5.287  10.353  0.0381  0.3481 -1.0399
  679MOL0     C91591   0.334   5.204  10.302  0.4537  0.1443 -0.4847
  679MOL0     C91592   0.318   5.188  10.154  0.0234 -0.7243 -0.4269
  679MOL0     C91593   0.280   5.315  10.086  0.1217  0.1033 -0.5042
  679MOL0     C91594   0.233   5.421  10.056 -0.7137 -0.6729  0.4045
  679MOL0     C91595   0.841   5.079  10.453  0.3751 -0.1437  1.1803
  679MOL0     C91596   0.964   5.031  10.491  0.5832  0.3802 -0.9668
  679MOL0     C91597   0.969   4.883  10.527  0.1681  0.1345  0.3155
  679MOL0     H91598   1.519   5.193  10.367  0.0171 -3.6433 -1.2668
  679MOL0     H91599   1.765   5.151  10.448  1.5766  3.5391  0.3919
  679MOL0     H91600   1.844   5.143  10.908  0.8684 -0.8550  0.2797
  679MOL0     H91601   1.799   4.978  10.867  1.6060 -2.1623 -1.1631
  679MOL0     H91602   2.026   4.942  10.761  0.3779  1.9037 -0.8566
  679MOL0     H91603   2.018   4.970  10.931 -1.4819  0.6723  0.5931
  679MOL0     H91604   2.123   5.193  10.897  0.6292  2.0900 -0.6001
  679MOL0     H91605   2.070   5.211  10.740 -1.3290 -1.3141 -1.4495
  679MOL0     H91606   2.275   4.981  10.804 -0.3463 -0.7828  0.9544
  679MOL0     H91607   2.195   5.004  10.656  0.5130  0.0163 -0.5017
  679MOL0     H91608   2.293   5.238  10.644 -0.4121 -0.8043 -0.2285
  679MOL0     H91609   2.377   5.220  10.797 -0.3141  0.8261 -0.6132
  679MOL0     H91610   2.503   5.025  10.671  1.7920 -0.4745 -2.1467
  679MOL0     H91611   2.412   5.071  10.524  1.3056  0.0130  0.0455
  679MOL0     H91612   2.614   5.228  10.700  1.5253  0.9661 -0.3178
  679MOL0     H91613   2.536   5.310  10.561  2.7586  1.5490  1.4943
  679MOL0     H91614   2.716   5.060  10.564 -3.1664 -2.5114  0.2028
  679MOL0     H91615   2.632   5.109  10.418  4.2815 -0.4053 -2.2644
  679MOL0     H91616   2.698   5.442  10.528 -1.2521 -3.6975  1.4163
  679MOL0     H91617   2.959   5.590  10.290  2.5401 -0.6468  1.3078
  679MOL0     H91618   2.821   5.630  10.390 -2.2878 -4.3337 -0.2476
  679MOL0     H91619   3.085   5.567  10.501  0.4043 -0.0000 -0.6471
  679MOL0     H91620   3.062   5.729  10.480  1.5470 -0.5643  1.2247
  679MOL0     H91621   3.020   5.682  10.715 -2.1479  0.1638  1.8857
  679MOL0     H91622   2.907   5.562  10.685 -2.6892  0.9231  1.5186
  679MOL0     H91623   2.886   5.858  10.609  2.0692  0.0906  1.2896
  679MOL0     H91624   2.823   5.799  10.757 -0.8454 -0.6940 -0.6285
  679MOL0     H91625   2.523   5.600  10.691 -1.6624  0.2242  0.3236
  679MOL0     H91626   2.294   5.704  10.765 -1.0191  1.4876  1.8317
  679MOL0     H91627   2.008   6.090  10.731 -2.3668 -1.3241 -1.0960
  679MOL0     H91628   1.787   6.176  10.833  1.1903  1.4959  3.2696
  679MOL0     H91629   1.695   6.250  11.042  0.6749  0.8565  0.2307
  679MOL0     H91630   1.549   6.206  10.938 -0.1962  2.9820  0.7807
  679MOL0     H91631   1.422   6.123  11.119 -0.5077 -0.0556  2.5033
  679MOL0     H91632   1.540   6.206  11.227  0.4641 -0.8514  0.7234
  679MOL0     H91633   1.486   6.408  11.096 -0.7956  0.8144 -0.3032
  679MOL0     H91634   1.373   6.320  10.995  3.0361  1.1458 -1.0232
  679MOL0     H91635   1.347   6.323  11.305 -0.7329  0.6009  1.3188
  679MOL0     H91636   1.215   6.304  11.190 -1.3895  2.3926  0.5165
  679MOL0     H91637   1.211   6.529  11.125 -3.1981 -0.5091  1.8374
  679MOL0     H91638   1.358   6.582  11.218 -1.6304  2.3804  3.7425
  679MOL0     H91639   1.095   6.485  11.314  0.9460 -3.4711 -0.3225
  679MOL0     H91640   1.226   6.511  11.432  0.0677  2.2329  0.8519
  679MOL0     H91641   1.178   6.733  11.234  1.7765  0.2886  0.4904
  679MOL0     H91642   1.245   6.752  11.393 -3.0614  1.4887  2.6269
  679MOL0     H91643   1.015   6.696  11.490  3.6813 -0.5959  0.6847
  679MOL0     H91644   1.023   6.846  11.394  3.2064  0.0048  0.8596
  679MOL0     H91645   1.766   5.830  11.082  0.7515  1.1294  2.0186
  679MOL0     H91646   1.957   5.747  10.994 -3.4340 -0.9776 -3.3772
  679MOL0     H91647   2.467   6.087  10.700  0.3555  0.1353  2.2139
  679MOL0     H91648   2.663   5.987  10.602  0.7381  1.1340  2.0823
  679MOL0     H91649   1.600   5.055  10.846  1.8145  2.2264  1.0012
  679MOL0     H91650   1.383   5.110  10.760  0.4060  2.1814 -0.0149
  679MOL0     H91651   1.140   5.322  10.476  2.0190 -2.2455 -2.8502
  679MOL0     H91652   0.910   5.411  10.436  1.1147  0.9426  3.6114
  679MOL0     H91653   0.565   5.139  10.486  1.0311  1.0252  0.0974
  679MOL0     H91654   0.582   5.113  10.314 -0.3606 -0.1751 -1.0621
  679MOL0     H91655   0.494   5.350  10.273  1.2309  0.0732 -0.6821
  679MOL0     H91656   0.429   5.337  10.446 -2.7072 -2.3791 -0.1315
  679MOL0     H91657   0.247   5.256  10.342  1.3949  0.8382  0.7216
  679MOL0     H91658   0.346   5.108  10.353 -0.1553 -0.5461 -1.6043
  679MOL0     H91659   0.404   5.141  10.104 -0.5764 -1.6404 -0.6285
  679MOL0     H91660   0.239   5.116  10.133  0.6471 -0.9049 -2.3991
  679MOL0     H91661   0.204   5.523  10.041  0.9139 -0.2119  0.1686
  679MOL0     H91662   0.753   5.016  10.445  1.5716 -1.6780 -0.7884
  679MOL0     H91663   0.998   4.870  10.632 -1.5462  0.1080  0.8098
  679MOL0     H91664   0.878   4.828  10.500  1.6515 -1.6105 -1.4337
  679MOL0     H91665   1.046   4.834  10.467 -1.7151 -0.1549 -2.0019
  680MOL0     O91666  10.406   1.319   8.853  0.4136 -0.0517  0.2393
  680MOL0     C91667  10.429   1.249   8.757 -0.2721 -0.0720 -0.3146
  680MOL0     O91668  10.552   1.215   8.719 -0.0382  0.1307  0.1931
  680MOL0     C91669  10.661   1.296   8.748  0.0938 -0.7860  0.2457
  680MOL0     C91670  10.660   1.424   8.804 -0.3083 -0.5004 -0.3844
  680MOL0     C91671  10.787   1.482   8.820 -0.1682 -0.3618 -0.4509
  680MOL0     C91672  10.912   1.416   8.797 -0.4149  0.6175  0.4548
  680MOL0     O91673  11.042   1.457   8.820  0.6300 -0.6878 -0.4687
  680MOL0     C91674  11.067   1.593   8.869  0.7947  0.8653  0.5651
  680MOL0     C91675  11.204   1.601   8.924 -0.3434  0.1078  0.7752
  680MOL0     C91676  11.301   1.545   8.821 -0.7637  0.2244 -0.6424
  680MOL0     C91677  11.447   1.593   8.836  0.1319 -0.2910  0.3386
  680MOL0     C91678  11.454   1.743   8.794 -0.3605 -0.3217  0.3196
  680MOL0     C91679  11.584   1.786   8.802 -0.0568 -0.0463  0.1110
  680MOL0     C91680  11.674   1.769   8.679 -0.1482 -0.8551  0.6093
  680MOL0     C91681  11.703   1.631   8.625  0.1184 -0.2560  0.2322
  680MOL0     N91682  11.810   1.634   8.523  0.8610 -0.2981 -0.1542
  680MOL0     C91683  11.934   1.670   8.550  0.3365 -0.7788 -0.1187
  680MOL0     C91684  12.012   1.668   8.441 -0.3239  0.1627  0.4254
  680MOL0     C91685  12.165   1.701   8.423  0.6860 -0.0086 -0.3025
  680MOL0     C91686  12.243   1.690   8.549 -0.4861  0.8455  0.8904
  680MOL0     C91687  12.236   1.555   8.622 -0.1696 -0.1527  0.0098
  680MOL0     C91688  12.328   1.533   8.744 -0.1443  0.4357 -0.1414
  680MOL0     O91689  12.471   1.542   8.703  0.2018  0.3445  0.0380
  680MOL0     C91690  12.571   1.516   8.793 -0.2891  0.3116 -0.4957
  680MOL0     C91691  12.554   1.467   8.930  0.8698 -0.1613  0.1958
  680MOL0     C91692  12.672   1.441   9.003  0.4036  0.4006 -0.5076
  680MOL0     C91693  12.804   1.448   8.949  1.1149 -0.6231  0.2606
  680MOL0     C91694  12.922   1.414   9.035  0.3433 -0.8366 -0.4766
  680MOL0     O91695  13.044   1.436   8.987  1.4944 -0.1188  0.7028
  680MOL0     C91696  13.155   1.405   9.067  0.9239 -0.0273  0.3483
  680MOL0     C91697  13.205   1.488   9.169  0.1543 -0.5905  0.0120
  680MOL0     C91698  13.318   1.444   9.243  0.0974 -0.2028  0.0920
  680MOL0     C91699  13.386   1.326   9.219 -0.1481 -0.1885 -0.0328
  680MOL0     O91700  13.491   1.290   9.304 -1.1213  0.4391  1.1198
  680MOL0     C91701  13.615   1.235   9.254 -0.7358  0.6807  0.6239
  680MOL0     C91702  13.697   1.209   9.380 -0.3740 -0.1125 -0.6245
  680MOL0     C91703  13.840   1.166   9.347 -0.5546  0.0612  0.0937
  680MOL0     C91704  13.926   1.165   9.477  0.6750  0.1488  0.3243
  680MOL0     C91705  14.079   1.126   9.459  0.6983 -0.6847 -0.3608
  680MOL0     C91706  14.176   1.205   9.543  0.1774  0.7313 -0.1403
  680MOL0     C91707  14.317   1.147   9.529  0.1940 -0.7428 -0.3108
  680MOL0     C91708  14.420   1.262   9.558  0.4011 -0.7128 -0.1270
  680MOL0    Cl91709  14.390   1.415   9.486 -0.0432  0.1219 -0.5369
  680MOL0     C91710  13.328   1.233   9.138  0.4075 -0.4949  0.1050
  680MOL0     C91711  13.222   1.274   9.057  0.6052  0.1923 -0.3344
  680MOL0     O91712  12.898   1.365   9.146 -0.3440 -0.6552  0.1206
  680MOL0     C91713  12.823   1.485   8.811  0.1957  0.4478 -0.2534
  680MOL0     C91714  12.705   1.510   8.734  0.6217 -0.2400 -0.8623
  680MOL0     N91715  11.927   1.623   8.340  0.2272  0.2518  0.1294
  680MOL0     N91716  11.806   1.614   8.390 -0.2386  0.2170 -0.2015
  680MOL0     C91717  10.901   1.287   8.747 -0.6646  0.6803  0.8472
  680MOL0     C91718  10.775   1.229   8.719 -0.1592  0.5495 -0.7577
  680MOL0     C91719  10.308   1.201   8.691  0.1867  0.2729  0.7877
  680MOL0     C91720  10.326   1.087   8.609 -0.0063 -0.1961  0.1697
  680MOL0     C91721  10.217   1.028   8.534 -0.7268 -0.0776  0.0647
  680MOL0     C91722  10.092   1.084   8.534  0.1951  0.9369 -0.0230
  680MOL0     O91723   9.988   1.019   8.472  0.6131  0.2009  0.2865
  680MOL0     C91724   9.856   1.079   8.465 -0.6249  0.6770  0.1723
  680MOL0     C91725   9.748   0.983   8.399  0.9100 -0.7330  0.4571
  680MOL0     C91726   9.744   0.840   8.462 -0.5584  0.3776  0.2200
  680MOL0     C91727   9.621   0.745   8.431 -0.1480 -0.5347 -0.0787
  680MOL0     C91728   9.505   0.796   8.494 -0.3667  0.5010  0.0696
  680MOL0     C91729   9.414   0.838   8.570 -0.3048  0.3243  0.1749
  680MOL0     C91730  10.076   1.199   8.613 -0.1201  0.1933  0.0927
  680MOL0     C91731  10.176   1.260   8.698  0.3000 -0.1785 -0.6229
  680MOL0     C91732  10.141   1.388   8.779 -0.0178  0.1371  0.3422
  680MOL0     H91733  10.575   1.486   8.828  0.2928  2.0484 -3.8871
  680MOL0     H91734  10.794   1.583   8.859  4.7863 -0.3000 -0.9381
  680MOL0     H91735  11.069   1.644   8.772 -0.0932 -0.6709 -0.3218
  680MOL0     H91736  10.992   1.629   8.939 -0.5908 -0.3432 -0.2278
  680MOL0     H91737  11.230   1.546   9.015  3.9577 -0.2839 -0.4653
  680MOL0     H91738  11.227   1.704   8.952 -1.8836 -0.3100  4.1273
  680MOL0     H91739  11.260   1.564   8.721 -0.4012  0.6386 -0.7174
  680MOL0     H91740  11.315   1.438   8.841 -1.3533  0.2829  0.1166
  680MOL0     H91741  11.478   1.591   8.941 -2.1081  2.7485  1.2284
  680MOL0     H91742  11.510   1.532   8.770 -0.4027  0.6427 -1.0840
  680MOL0     H91743  11.423   1.749   8.689  1.9191  0.5620 -0.3521
  680MOL0     H91744  11.390   1.798   8.863 -0.5018  0.2541 -0.2613
  680MOL0     H91745  11.571   1.894   8.806 -0.4525 -0.1272  1.0588
  680MOL0     H91746  11.631   1.752   8.895 -3.0101 -1.3563  1.2262
  680MOL0     H91747  11.761   1.829   8.706 -2.8071  4.1759 -0.7167
  680MOL0     H91748  11.625   1.816   8.593 -0.4307 -0.3443  1.0430
  680MOL0     H91749  11.722   1.554   8.700  0.1320 -1.0424 -0.5604
  680MOL0     H91750  11.618   1.601   8.564 -0.4332  0.8629  0.4239
  680MOL0     H91751  11.964   1.705   8.648  3.4595 -0.6495 -0.9943
  680MOL0     H91752  12.196   1.631   8.345 -0.8553  0.2393 -1.1882
  680MOL0     H91753  12.170   1.800   8.377  1.5217 -0.2499 -0.7335
  680MOL0     H91754  12.346   1.697   8.513 -0.8251 -1.0608 -0.6500
  680MOL0     H91755  12.212   1.765   8.622 -2.6769  1.7070 -0.8042
  680MOL0     H91756  12.242   1.464   8.561  0.4814  0.7691 -1.3528
  680MOL0     H91757  12.135   1.547   8.665  0.2745 -1.1513  0.9136
  680MOL0     H91758  12.307   1.436   8.789  3.5200  0.5660  2.3062
  680MOL0     H91759  12.311   1.596   8.832  2.3007 -1.2462  1.6661
  680MOL0     H91760  12.450   1.457   8.960 -0.3767  6.7827 -0.1518
  680MOL0     H91761  12.662   1.397   9.102 -1.7221  1.2624 -0.2968
  680MOL0     H91762  13.164   1.588   9.183  2.3401  0.2968  0.5965
  680MOL0     H91763  13.344   1.517   9.318 -2.8525  0.9747  0.0890
  680MOL0     H91764  13.598   1.136   9.211 -1.6327  0.3762  1.6538
  680MOL0     H91765  13.666   1.307   9.189 -1.4949  1.6239  1.0362
  680MOL0     H91766  13.700   1.298   9.445  0.6928 -0.8163  0.3231
  680MOL0     H91767  13.653   1.125   9.434  2.0963 -0.9411  0.2346
  680MOL0     H91768  13.848   1.061   9.315  1.5036 -1.2417  4.1237
  680MOL0     H91769  13.883   1.228   9.269 -0.9763  0.0048 -0.1900
  680MOL0     H91770  13.882   1.087   9.540  2.5027 -2.7912 -1.7819
  680MOL0     H91771  13.914   1.265   9.521 -3.0767  0.7814 -1.6573
  680MOL0     H91772  14.106   1.137   9.354 -0.5250 -1.8282 -0.8300
  680MOL0     H91773  14.088   1.020   9.483  4.9005  0.1910  3.1641
  680MOL0     H91774  14.175   1.307   9.505 -1.3618 -0.0698 -2.4817
  680MOL0     H91775  14.144   1.205   9.648 -2.0059 -1.7705 -0.7006
  680MOL0     H91776  14.338   1.113   9.427  1.3791 -0.4367 -0.1843
  680MOL0     H91777  14.344   1.072   9.603  2.7311  1.3723  1.0549
  680MOL0     H91778  14.414   1.280   9.666 -2.2774 -0.4921 -0.2405
  680MOL0     H91779  14.522   1.232   9.533  0.8080  0.0525  0.5654
  680MOL0     H91780  13.377   1.138   9.120  0.7730 -0.2975  0.0399
  680MOL0     H91781  13.180   1.207   8.982 -1.2121  0.3919  0.4587
  680MOL0     H91782  12.923   1.490   8.770 -0.3474 -0.7763 -1.8072
  680MOL0     H91783  12.717   1.535   8.629 -1.7789  3.3114 -0.4677
  680MOL0     H91784  10.990   1.230   8.723 -2.4731 -1.5345 -1.0769
  680MOL0     H91785  10.770   1.144   8.652  1.4207 -1.0693  1.0805
  680MOL0     H91786  10.415   1.027   8.629  1.3530  1.6481 -0.0595
  680MOL0     H91787  10.217   0.931   8.486 -0.9602  0.0209 -0.1355
  680MOL0     H91788   9.851   1.170   8.404 -0.0015  0.3675 -0.3447
  680MOL0     H91789   9.838   1.101   8.571  0.7822 -1.1634  0.8515
  680MOL0     H91790   9.759   0.982   8.290 -1.6247  0.0382  0.1285
  680MOL0     H91791   9.646   1.021   8.411  0.5052 -1.5145 -0.3666
  680MOL0     H91792   9.759   0.857   8.569  0.7270  2.0768 -0.1664
  680MOL0     H91793   9.834   0.790   8.425 -1.7167 -1.5541 -0.0797
  680MOL0     H91794   9.609   0.753   8.323 -1.3658  1.2995  0.1617
  680MOL0     H91795   9.649   0.649   8.476 -0.1828  0.4284  2.1530
  680MOL0     H91796   9.342   0.872   8.642  0.7512  0.9102  0.9832
  680MOL0     H91797   9.977   1.243   8.612  0.4463  1.5180 -0.5994
  680MOL0     H91798  10.036   1.411   8.759 -0.0878 -1.1391 -0.9027
  680MOL0     H91799  10.150   1.371   8.887 -2.8900  0.7783  0.7463
  680MOL0     H91800  10.208   1.472   8.754 -0.9795  0.1532 -2.4550
  681MOL0     O91801   6.737   6.727   4.201  0.2434 -0.3602 -0.1085
  681MOL0     C91802   6.705   6.671   4.303  0.1167  0.4241 -0.1645
  681MOL0     O91803   6.786   6.643   4.402 -0.2448 -0.3133 -0.1389
  681MOL0     C91804   6.923   6.681   4.396 -0.9057  0.7954 -0.0683
  681MOL0     C91805   6.958   6.816   4.436 -0.0272 -0.6518 -0.1165
  681MOL0     C91806   7.096   6.841   4.452 -0.3543  0.5899  0.1488
  681MOL0     C91807   7.197   6.750   4.415  0.6969  0.2752 -1.0162
  681MOL0     O91808   7.332   6.761   4.421 -0.4457 -0.0374 -0.8064
  681MOL0     C91809   7.395   6.821   4.536 -0.0262  0.0582 -0.6840
  681MOL0     C91810   7.457   6.955   4.505  0.7547 -0.2243  0.0958
  681MOL0     C91811   7.525   7.009   4.630  0.2360  0.1968 -0.1162
  681MOL0     C91812   7.618   6.916   4.719 -0.3820  0.3232 -0.4162
  681MOL0     C91813   7.693   6.980   4.836 -0.0313 -0.5365 -0.2636
  681MOL0     C91814   7.774   7.099   4.787 -0.4667  1.0218 -0.0930
  681MOL0     C91815   7.867   7.145   4.893 -0.2100 -0.4792  0.0221
  681MOL0     C91816   7.941   7.268   4.831 -0.3039 -0.3058  0.2666
  681MOL0     N91817   8.034   7.229   4.726  0.3069  0.1737 -0.3972
  681MOL0     C91818   8.163   7.186   4.761 -0.4319  0.5319  0.7185
  681MOL0     C91819   8.223   7.181   4.632  0.7844 -0.3679 -0.0490
  681MOL0     C91820   8.366   7.145   4.610  0.5220  0.0163  0.1680
  681MOL0     C91821   8.447   7.237   4.700 -0.5333 -0.2537 -0.2566
  681MOL0     C91822   8.583   7.253   4.647  0.0356  0.0735  0.7142
  681MOL0     C91823   8.669   7.349   4.732 -0.4089  0.0369 -0.5427
  681MOL0     O91824   8.688   7.313   4.867 -0.1542  0.2084 -0.1854
  681MOL0     C91825   8.817   7.283   4.905  0.0409  0.3609  0.5277
  681MOL0     C91826   8.937   7.358   4.870 -0.4000  0.3312  0.3965
  681MOL0     C91827   9.060   7.321   4.906 -0.7196 -0.9029  0.0651
  681MOL0     C91828   9.077   7.193   4.961 -0.3049 -0.2183 -0.4631
  681MOL0     C91829   9.213   7.136   4.979  0.5104 -0.8844 -0.4653
  681MOL0     O91830   9.304   7.210   4.902  0.5062  1.3648 -0.7839
  681MOL0     C91831   9.434   7.172   4.899 -0.1106  0.5421 -0.0708
  681MOL0     C91832   9.468   7.072   4.815 -0.2581 -1.0897  0.3404
  681MOL0     C91833   9.602   7.026   4.810  0.4053 -0.2963  0.6041
  681MOL0     C91834   9.693   7.063   4.901  0.6626 -0.0611 -0.1389
  681MOL0     O91835   9.816   7.006   4.908  0.0679 -0.3924  0.2536
  681MOL0     C91836   9.888   6.983   4.789  0.4760  0.2004  0.0303
  681MOL0     C91837  10.044   7.009   4.811  0.4133 -0.4987  1.4006
  681MOL0     C91838  10.109   7.015   4.679 -0.1341  0.1337  0.3035
  681MOL0     C91839  10.256   7.066   4.679 -0.2126 -0.1866  0.2147
  681MOL0     C91840  10.360   6.962   4.739  0.9086  0.7070  0.2481
  681MOL0     C91841  10.482   7.037   4.782 -0.1592 -0.0431 -0.5918
  681MOL0     C91842  10.606   6.942   4.791  0.2644  0.1417  0.9217
  681MOL0     C91843  10.742   6.999   4.819 -0.0367  0.2983  0.1982
  681MOL0    Cl91844  10.838   6.892   4.906  0.0412  0.1092 -0.1980
  681MOL0     C91845   9.664   7.187   4.958  0.5030  0.5171 -0.0816
  681MOL0     C91846   9.531   7.241   4.964  0.9858 -0.0214 -0.9558
  681MOL0     O91847   9.232   7.038   5.048 -0.4603 -0.9055  0.3418
  681MOL0     C91848   8.962   7.115   4.993 -1.0705  0.2237 -0.2555
  681MOL0     C91849   8.834   7.164   4.971  0.6666 -0.6043 -0.2452
  681MOL0     N91850   8.134   7.232   4.533 -0.3380 -0.2314 -0.1615
  681MOL0     N91851   8.017   7.254   4.593  0.3347  0.7497 -0.1066
  681MOL0     C91852   7.158   6.622   4.365 -0.0423  0.0823 -0.1691
  681MOL0     C91853   7.025   6.592   4.353 -0.0639  0.7161  0.3678
  681MOL0     C91854   6.562   6.624   4.312  0.1537 -0.5096  0.3000
  681MOL0     C91855   6.483   6.650   4.198 -0.5859 -0.9471 -0.0526
  681MOL0     C91856   6.346   6.608   4.192  0.3430 -1.1683 -0.1636
  681MOL0     C91857   6.287   6.540   4.302  0.0562 -0.8078  0.0429
  681MOL0     O91858   6.153   6.495   4.306 -0.4051  0.2264  0.6628
  681MOL0     C91859   6.050   6.532   4.205 -0.5775 -0.1895  0.4452
  681MOL0     C91860   6.041   6.420   4.101 -0.7190 -0.5131 -0.4095
  681MOL0     C91861   5.983   6.285   4.143 -0.9067  0.1886  0.9754
  681MOL0     C91862   5.852   6.282   4.206 -0.0338  0.0887  0.6874
  681MOL0     C91863   5.748   6.303   4.097  0.2332  0.1470 -0.8387
  681MOL0     C91864   5.665   6.320   4.009 -0.5576  0.1900 -0.4573
  681MOL0     C91865   6.371   6.508   4.404 -0.4232 -0.1750 -0.7155
  681MOL0     C91866   6.507   6.549   4.418 -0.2651 -0.2310  0.4350
  681MOL0     C91867   6.579   6.488   4.537 -0.8092 -0.5603  0.5833
  681MOL0     H91868   6.890   6.894   4.470  3.1627  4.1257 -3.4067
  681MOL0     H91869   7.128   6.934   4.499  2.1343 -1.1361  2.1798
  681MOL0     H91870   7.316   6.828   4.612  1.5085  0.4498  0.9235
  681MOL0     H91871   7.469   6.744   4.558 -2.1764 -1.3667  2.3940
  681MOL0     H91872   7.386   7.029   4.467 -1.4235 -1.6737  1.0751
  681MOL0     H91873   7.543   6.951   4.438 -0.1321  1.7052 -1.2370
  681MOL0     H91874   7.454   7.053   4.700  1.9607  0.9459  1.2193
  681MOL0     H91875   7.584   7.095   4.597 -0.4254  0.6304 -0.2000
  681MOL0     H91876   7.552   6.841   4.764 -0.3229 -0.5095 -1.6520
  681MOL0     H91877   7.690   6.862   4.656 -4.8087 -2.2279 -3.8759
  681MOL0     H91878   7.620   7.014   4.910 -1.4337  1.3721 -2.3809
  681MOL0     H91879   7.760   6.904   4.879  2.3792  0.4123 -2.0993
  681MOL0     H91880   7.832   7.065   4.700 -0.1673  3.5757 -0.9818
  681MOL0     H91881   7.710   7.183   4.757  1.8976  1.7421 -3.8875
  681MOL0     H91882   7.933   7.067   4.934 -0.3613  0.4131  2.1243
  681MOL0     H91883   7.814   7.182   4.981  1.7139 -0.4566  1.2400
  681MOL0     H91884   7.864   7.341   4.804  1.8795  2.2210  0.4756
  681MOL0     H91885   7.988   7.321   4.914  0.9832 -0.8268 -0.1127
  681MOL0     H91886   8.211   7.152   4.852  1.2981 -0.3698 -0.4614
  681MOL0     H91887   8.380   7.037   4.619 -3.6890 -0.6103  1.0174
  681MOL0     H91888   8.398   7.148   4.505 -0.8145  2.1301 -0.2338
  681MOL0     H91889   8.400   7.335   4.706 -0.3406 -0.2479  2.0409
  681MOL0     H91890   8.443   7.202   4.804 -1.2781  2.6489  0.7845
  681MOL0     H91891   8.569   7.300   4.550 -0.4479 -0.8864  0.3051
  681MOL0     H91892   8.640   7.161   4.634  2.7845  1.8140 -0.5108
  681MOL0     H91893   8.622   7.448   4.727 -1.1941  0.0099  3.2372
  681MOL0     H91894   8.766   7.351   4.682  0.3974 -0.3222  0.9430
  681MOL0     H91895   8.911   7.448   4.815 -0.7223 -0.3306 -0.5623
  681MOL0     H91896   9.144   7.384   4.879 -1.4044  0.7459  1.5707
  681MOL0     H91897   9.388   7.029   4.755 -2.0798  2.5696 -0.1996
  681MOL0     H91898   9.629   6.944   4.744 -1.4750 -2.6799  2.6275
  681MOL0     H91899   9.867   6.877   4.769 -1.5132 -0.0194  2.6778
  681MOL0     H91900   9.846   7.041   4.706  1.4456  0.3881 -0.3427
  681MOL0     H91901  10.058   7.105   4.862 -0.7908 -0.4558  1.6683
  681MOL0     H91902  10.094   6.925   4.861  3.4276  0.6292  0.5382
  681MOL0     H91903  10.102   6.920   4.626  1.2161  2.0461 -3.6928
  681MOL0     H91904  10.057   7.087   4.615  1.2239 -0.5758 -1.6751
  681MOL0     H91905  10.254   7.159   4.736  2.9414  0.7244 -0.9465
  681MOL0     H91906  10.292   7.101   4.582 -1.7247 -0.2904 -0.4155
  681MOL0     H91907  10.379   6.901   4.651  0.1390 -3.0487  2.4482
  681MOL0     H91908  10.318   6.894   4.814  0.4857 -2.0217 -2.2970
  681MOL0     H91909  10.511   7.122   4.718 -1.1980 -0.9035 -2.2852
  681MOL0     H91910  10.462   7.080   4.880  0.3274 -1.0859 -0.0188
  681MOL0     H91911  10.608   6.894   4.692 -2.2931  1.1282  0.3061
  681MOL0     H91912  10.582   6.869   4.869 -1.3574 -1.3903 -0.9092
  681MOL0     H91913  10.795   7.019   4.726  2.2913 -3.0333  0.6174
  681MOL0     H91914  10.731   7.084   4.888  0.3082  0.2917  0.2655
  681MOL0     H91915   9.742   7.249   5.002  3.4653 -1.6892 -1.8732
  681MOL0     H91916   9.510   7.325   5.029  0.3046  0.2308 -1.4941
  681MOL0     H91917   8.957   7.014   5.034 -3.3950  0.4100  0.0487
  681MOL0     H91918   8.744   7.108   4.993  0.5360 -0.4545 -0.3971
  681MOL0     H91919   7.234   6.547   4.345  0.5151 -0.2659  2.6971
  681MOL0     H91920   6.992   6.491   4.328 -1.4619  0.9344  1.2407
  681MOL0     H91921   6.524   6.694   4.108 -3.6349  0.7147 -0.7700
  681MOL0     H91922   6.300   6.653   4.104 -0.1292 -1.4608 -0.0685
  681MOL0     H91923   6.081   6.620   4.147 -1.0794 -0.0930  0.3261
  681MOL0     H91924   5.959   6.559   4.259  0.8995  1.5244  2.2293
  681MOL0     H91925   6.145   6.395   4.077 -0.7943 -0.8577 -0.3933
  681MOL0     H91926   5.996   6.462   4.011  0.4235  0.9019 -0.3481
  681MOL0     H91927   6.054   6.229   4.203  1.8424  3.0771  0.7190
  681MOL0     H91928   5.987   6.219   4.056  1.5754  0.3255  0.9286
  681MOL0     H91929   5.836   6.189   4.261  0.6881 -1.3475 -1.3861
  681MOL0     H91930   5.853   6.363   4.280  1.3950  1.5588 -0.8635
  681MOL0     H91931   5.590   6.332   3.933  0.2243  0.2930 -1.2242
  681MOL0     H91932   6.337   6.441   4.482 -0.5061  0.4267 -0.2254
  681MOL0     H91933   6.675   6.439   4.520 -0.0345  0.5298  1.6370
  681MOL0     H91934   6.615   6.568   4.603  0.0086 -0.6031  0.1898
  681MOL0     H91935   6.516   6.419   4.594  0.9589 -2.4082  0.3931
  682MOL0     O91936   9.626   5.394   6.779  0.2650 -0.7195 -0.6877
  682MOL0     C91937   9.707   5.480   6.764 -0.1057  0.2035 -0.6637
  682MOL0     O91938   9.804   5.473   6.675  0.6213  0.0226 -0.5428
  682MOL0     C91939   9.800   5.371   6.584 -0.1393 -0.9497 -0.8105
  682MOL0     C91940   9.692   5.355   6.496  0.1847  1.5766  0.1947
  682MOL0     C91941   9.703   5.269   6.386  0.2763  0.1045 -0.0155
  682MOL0     C91942   9.818   5.189   6.369 -0.2168  0.4847  1.0147
  682MOL0     O91943   9.841   5.093   6.274 -0.0050  0.3507  0.8930
  682MOL0     C91944   9.773   5.123   6.149  0.6485 -1.1796 -0.5158
  682MOL0     C91945   9.819   5.028   6.037  0.2527  0.2307  0.3139
  682MOL0     C91946   9.969   5.030   6.016 -0.1034 -0.0109  0.6788
  682MOL0     C91947  10.010   4.983   5.875 -1.0354  0.1638 -0.0564
  682MOL0     C91948  10.165   4.986   5.874 -0.3489 -0.4923  0.2189
  682MOL0     C91949  10.220   4.946   5.730 -0.3535  0.0343  0.5096
  682MOL0     C91950  10.375   4.944   5.712 -0.0045  0.4970  0.3254
  682MOL0     C91951  10.437   5.086   5.698  0.3981  0.1739  0.7346
  682MOL0     N91952  10.580   5.078   5.653 -0.1807  1.2303 -0.4482
  682MOL0     C91953  10.678   5.039   5.739  0.4551 -0.2026  0.1255
  682MOL0     C91954  10.796   5.076   5.676  1.0350 -0.2568 -0.6762
  682MOL0     C91955  10.938   5.050   5.722 -0.3702 -0.3142 -0.4423
  682MOL0     C91956  11.037   5.056   5.608  0.0020  0.6504 -0.1177
  682MOL0     C91957  11.181   5.064   5.662 -0.1247 -0.6139  1.5470
  682MOL0     C91958  11.294   5.061   5.557 -0.4451 -0.3174  0.1073
  682MOL0     O91959  11.287   4.944   5.474  0.0734 -0.0420 -0.6347
  682MOL0     C91960  11.405   4.891   5.435 -0.4215 -0.1264  0.0752
  682MOL0     C91961  11.501   4.974   5.366  0.1381  0.1602 -1.0417
  682MOL0     C91962  11.635   4.924   5.354  0.1049  0.0124 -0.7040
  682MOL0     C91963  11.672   4.787   5.398 -0.8532 -0.1470  0.0930
  682MOL0     C91964  11.812   4.736   5.396  0.7869 -0.0621 -0.8079
  682MOL0     O91965  11.832   4.623   5.471  0.4046 -0.5025 -0.0602
  682MOL0     C91966  11.953   4.568   5.447  0.5877 -1.9853 -1.2440
  682MOL0     C91967  12.062   4.612   5.516 -0.0859 -0.3414 -0.1627
  682MOL0     C91968  12.184   4.551   5.510 -0.1467 -0.9935 -0.6875
  682MOL0     C91969  12.194   4.443   5.431  0.2980  0.1006 -0.5147
  682MOL0     O91970  12.323   4.388   5.425  0.2152 -0.0445 -0.2616
  682MOL0     C91971  12.333   4.262   5.358 -1.0342 -0.3897 -0.5954
  682MOL0     C91972  12.478   4.219   5.380 -0.5850 -0.3037  0.9066
  682MOL0     C91973  12.511   4.071   5.344 -0.1552 -0.8317 -0.2423
  682MOL0     C91974  12.492   4.043   5.201  0.2642  0.0089 -0.1244
  682MOL0     C91975  12.510   3.889   5.174  0.3147  0.2603  0.1993
  682MOL0     C91976  12.652   3.850   5.155  0.0658 -0.3988 -0.2909
  682MOL0     C91977  12.671   3.697   5.175 -0.1576  0.1135  0.6352
  682MOL0     C91978  12.812   3.666   5.141 -0.1036  0.2993 -0.2141
  682MOL0    Cl91979  12.859   3.493   5.152  0.1976  0.4182  0.3730
  682MOL0     C91980  12.081   4.402   5.356 -0.4654 -0.5103 -0.3108
  682MOL0     C91981  11.958   4.463   5.360  0.6507  0.0712 -0.1622
  682MOL0     O91982  11.891   4.797   5.326  0.0572 -0.3189  0.0192
  682MOL0     C91983  11.571   4.712   5.454 -0.0320  0.1050  0.2878
  682MOL0     C91984  11.443   4.771   5.474 -0.1432 -0.1550  0.0564
  682MOL0     N91985  10.768   5.140   5.559 -0.6317 -0.4633 -0.2289
  682MOL0     N91986  10.641   5.141   5.545  0.4500 -0.1766 -0.0598
  682MOL0     C91987   9.920   5.206   6.456 -0.2717 -0.4984 -0.7575
  682MOL0     C91988   9.914   5.298   6.565 -0.0390 -0.3496  0.0016
  682MOL0     C91989   9.696   5.603   6.835  0.4157 -0.5325  0.6047
  682MOL0     C91990   9.812   5.688   6.841  0.2634  0.0404 -0.0400
  682MOL0     C91991   9.821   5.807   6.911 -1.1491 -1.0411  0.4368
  682MOL0     C91992   9.699   5.869   6.930 -0.7561  0.3506  0.2053
  682MOL0     O91993   9.696   5.991   6.984  0.4739 -0.1547  0.0253
  682MOL0     C91994   9.802   6.068   7.049  0.5170 -0.4773 -0.2156
  682MOL0     C91995   9.746   6.113   7.190 -0.1748  0.1248 -0.0108
  682MOL0     C91996   9.687   6.015   7.288 -0.4844 -0.0098 -0.3871
  682MOL0     C91997   9.800   5.921   7.343 -0.5458 -0.8357  0.5907
  682MOL0     C91998   9.896   5.996   7.426  0.4824 -0.2701  0.6931
  682MOL0     C91999   9.973   6.064   7.483  0.4014 -0.0766  0.5191
  682MOL0     C92000   9.578   5.797   6.933 -0.3478  0.3420  0.5050
  682MOL0     C92001   9.577   5.662   6.879  0.0567 -0.1366  0.0771
  682MOL0     C92002   9.440   5.609   6.883  0.2048  0.5523  1.3907
  682MOL0     H92003   9.595   5.404   6.492 -0.2389  0.7052 -2.7598
  682MOL0     H92004   9.622   5.266   6.314 -0.5575 -1.5617  0.9146
  682MOL0     H92005   9.666   5.104   6.159  0.1135  1.8220  0.4799
  682MOL0     H92006   9.793   5.226   6.119  2.7321 -1.7329 -1.2412
  682MOL0     H92007   9.765   5.050   5.944  0.1800  0.6387  0.4520
  682MOL0     H92008   9.794   4.923   6.057  2.8349 -0.6096 -0.4530
  682MOL0     H92009  10.020   4.970   6.091  0.6862  0.7687  0.7794
  682MOL0     H92010  10.010   5.131   6.022 -0.7748  0.4698 -1.6691
  682MOL0     H92011   9.968   4.883   5.860  0.6585 -0.8465  1.5195
  682MOL0     H92012   9.971   5.059   5.807 -0.7802  1.2462  0.9704
  682MOL0     H92013  10.190   5.087   5.907  0.5460 -0.5223 -0.3415
  682MOL0     H92014  10.192   4.922   5.959 -1.4220  1.9515  2.5493
  682MOL0     H92015  10.186   4.845   5.708 -2.1769  1.1158 -2.1906
  682MOL0     H92016  10.171   5.004   5.651 -2.2081 -1.6904  0.3201
  682MOL0     H92017  10.389   4.888   5.619  1.0051  1.4821 -0.1401
  682MOL0     H92018  10.420   4.882   5.790 -0.4092  0.2834  0.3906
  682MOL0     H92019  10.371   5.140   5.630  0.6020 -0.8772 -0.3118
  682MOL0     H92020  10.432   5.121   5.802  0.8509 -2.7275  1.8460
  682MOL0     H92021  10.662   4.995   5.837 -0.6711 -0.3478 -0.1142
  682MOL0     H92022  10.980   5.112   5.803  1.2801 -1.7448 -0.1290
  682MOL0     H92023  10.924   4.950   5.765 -0.4136 -0.2241 -0.2456
  682MOL0     H92024  11.032   4.965   5.549 -1.7521  1.3840 -1.1872
  682MOL0     H92025  11.016   5.143   5.545  0.9366  0.8992 -0.0985
  682MOL0     H92026  11.193   4.987   5.738  1.3803  0.9774  2.9918
  682MOL0     H92027  11.184   5.166   5.701 -0.6982  0.3316 -0.6648
  682MOL0     H92028  11.393   5.062   5.603  0.6111 -1.5558 -1.9943
  682MOL0     H92029  11.285   5.153   5.497  1.9375 -1.0126 -1.4486
  682MOL0     H92030  11.490   5.080   5.345 -0.7510  0.3091  0.1114
  682MOL0     H92031  11.719   4.988   5.329  3.3794 -1.8649  4.1276
  682MOL0     H92032  12.047   4.698   5.580  1.8234  0.6670 -0.9843
  682MOL0     H92033  12.272   4.588   5.561  1.6069 -2.3782 -2.5518
  682MOL0     H92034  12.274   4.180   5.400  1.2759 -2.2832 -0.8722
  682MOL0     H92035  12.321   4.275   5.250  1.4911 -2.9873 -1.3024
  682MOL0     H92036  12.545   4.279   5.318 -2.0988  0.1374 -0.3825
  682MOL0     H92037  12.510   4.239   5.482  3.0913 -1.7228  0.2071
  682MOL0     H92038  12.617   4.057   5.366  0.4906  1.3343 -1.6708
  682MOL0     H92039  12.446   4.016   5.413 -3.0034  1.8790 -0.5162
  682MOL0     H92040  12.568   4.102   5.148  1.1491 -2.4441 -1.7808
  682MOL0     H92041  12.392   4.068   5.165  1.4780  2.5710 -2.1461
  682MOL0     H92042  12.459   3.866   5.080 -0.4633 -0.2438  0.7355
  682MOL0     H92043  12.454   3.837   5.252 -2.1097  0.2702 -1.4133
  682MOL0     H92044  12.683   3.872   5.053 -1.1150  3.6235  0.0059
  682MOL0     H92045  12.719   3.915   5.213 -1.4497  0.2040  0.8718
  682MOL0     H92046  12.608   3.640   5.106  0.3574  2.7835 -2.2955
  682MOL0     H92047  12.644   3.674   5.278  4.0616 -0.7903  1.7474
  682MOL0     H92048  12.832   3.692   5.037  0.5797 -0.6497 -0.3330
  682MOL0     H92049  12.879   3.727   5.203 -0.9166  0.1994  0.8007
  682MOL0     H92050  12.090   4.307   5.304 -1.4118 -2.2645  2.4981
  682MOL0     H92051  11.871   4.432   5.302 -0.8581  1.1956  1.4145
  682MOL0     H92052  11.596   4.615   5.497  0.8025  1.9915  4.6063
  682MOL0     H92053  11.355   4.718   5.508 -2.2160  2.5812 -0.6956
  682MOL0     H92054  10.008   5.143   6.453 -1.3347 -2.0011 -1.6285
  682MOL0     H92055   9.996   5.316   6.634 -1.5021 -1.3976  2.1196
  682MOL0     H92056   9.908   5.645   6.816 -0.0690  0.1402 -1.5741
  682MOL0     H92057   9.921   5.847   6.929 -1.1707 -2.3852  4.7840
  682MOL0     H92058   9.819   6.159   6.990 -1.9101 -0.6334 -1.2899
  682MOL0     H92059   9.899   6.018   7.059  0.6216 -0.1206  0.5867
  682MOL0     H92060   9.668   6.182   7.156  0.8010  1.9486  1.2672
  682MOL0     H92061   9.818   6.179   7.240  1.9005 -2.1922  0.2228
  682MOL0     H92062   9.615   5.948   7.239 -0.3425 -0.2853 -0.2201
  682MOL0     H92063   9.633   6.068   7.367 -1.9433  0.3567 -1.5787
  682MOL0     H92064   9.769   5.843   7.413  0.8592 -0.9199  1.1586
  682MOL0     H92065   9.848   5.866   7.261 -0.9750  0.6521 -0.7145
  682MOL0     H92066  10.039   6.136   7.526  1.1441 -1.7904  2.4370
  682MOL0     H92067   9.491   5.851   6.970  0.3685  2.6423 -0.9557
  682MOL0     H92068   9.428   5.535   6.963  1.9760 -2.6782 -1.0569
  682MOL0     H92069   9.353   5.672   6.900  0.7725  1.8253 -0.2199
  682MOL0     H92070   9.421   5.553   6.792  1.1691 -3.0515  3.2164
  683MOL0     O92071   4.759   9.187   1.837  0.1909 -0.2757 -0.4106
  683MOL0     C92072   4.645   9.147   1.826  0.4149 -0.8217 -0.5511
  683MOL0     O92073   4.590   9.043   1.901 -0.3601  0.2298  0.3163
  683MOL0     C92074   4.652   8.972   1.999  0.4005 -0.0260  0.4142
  683MOL0     C92075   4.762   9.011   2.081 -0.4300  0.4010  0.2905
  683MOL0     C92076   4.813   8.923   2.185 -0.8071 -1.1766 -0.4892
  683MOL0     C92077   4.752   8.804   2.210  0.0160  0.7475 -0.3202
  683MOL0     O92078   4.809   8.713   2.297  0.5515 -0.4669 -0.1908
  683MOL0     C92079   4.826   8.587   2.231 -0.4336  0.3328 -0.8417
  683MOL0     C92080   4.928   8.506   2.316  0.2434 -0.6374  0.1754
  683MOL0     C92081   5.064   8.577   2.309  0.0995  0.1906 -0.1893
  683MOL0     C92082   5.157   8.479   2.239  0.2627 -0.3834 -0.3742
  683MOL0     C92083   5.292   8.547   2.208 -0.5590 -0.0701 -0.0954
  683MOL0     C92084   5.383   8.424   2.163  0.2123 -0.3850 -0.4347
  683MOL0     C92085   5.526   8.461   2.161  0.5725 -0.4980 -0.9467
  683MOL0     C92086   5.604   8.338   2.117  0.4571  0.6143 -0.1816
  683MOL0     N92087   5.744   8.380   2.138  0.2605 -0.1729 -0.5516
  683MOL0     C92088   5.825   8.442   2.054  0.0832  0.0434 -0.3252
  683MOL0     C92089   5.935   8.480   2.126 -0.1774  0.1943 -0.5034
  683MOL0     C92090   6.061   8.524   2.060  0.1249 -0.4853 -0.2192
  683MOL0     C92091   6.197   8.483   2.122 -0.1227 -0.2965  0.4384
  683MOL0     C92092   6.223   8.339   2.084 -0.3071  0.5308 -0.0000
  683MOL0     C92093   6.369   8.290   2.096  0.5046  0.3632  0.2066
  683MOL0     O92094   6.469   8.378   2.050  0.2814  0.2015 -0.0558
  683MOL0     C92095   6.603   8.363   2.085 -0.1162  0.8640  0.0228
  683MOL0     C92096   6.684   8.470   2.059 -0.1850  0.4073 -0.6205
  683MOL0     C92097   6.822   8.467   2.082  0.2293  0.4785 -0.5199
  683MOL0     C92098   6.881   8.352   2.135 -0.3134  0.6971 -0.3214
  683MOL0     C92099   7.028   8.350   2.157 -0.6964 -0.2486  0.6125
  683MOL0     O92100   7.086   8.467   2.135  0.2113  0.3217 -0.5035
  683MOL0     C92101   7.219   8.497   2.165  0.3859  0.0688 -1.5422
  683MOL0     C92102   7.274   8.587   2.079 -0.2185 -0.3472  0.2711
  683MOL0     C92103   7.411   8.619   2.076 -0.0133 -0.0029  1.1897
  683MOL0     C92104   7.492   8.562   2.181 -1.3168  0.2437  0.6330
  683MOL0     O92105   7.626   8.609   2.195 -0.3172  0.2529 -0.0805
  683MOL0     C92106   7.726   8.521   2.262 -0.3161 -0.2527 -0.4608
  683MOL0     C92107   7.865   8.570   2.239  0.1514  0.9254  0.0597
  683MOL0     C92108   7.968   8.476   2.305  0.9357 -0.8704 -0.5272
  683MOL0     C92109   8.100   8.558   2.340 -0.0919 -0.4100 -0.4111
  683MOL0     C92110   8.214   8.470   2.399 -0.6152  0.3863  0.6708
  683MOL0     C92111   8.335   8.557   2.446 -0.7167  0.4853  0.1865
  683MOL0     C92112   8.423   8.450   2.515  0.7837  0.3447  0.2593
  683MOL0     C92113   8.544   8.527   2.561 -0.4694  0.4381  0.6768
  683MOL0    Cl92114   8.664   8.434   2.641  0.0031  0.0162 -0.0740
  683MOL0     C92115   7.429   8.471   2.273 -0.8805  0.4482  0.7448
  683MOL0     C92116   7.298   8.434   2.268  0.8504 -0.0456 -0.3547
  683MOL0     O92117   7.085   8.242   2.180 -0.2955  0.3628  0.7645
  683MOL0     C92118   6.800   8.239   2.155 -0.0875  0.5244  0.5768
  683MOL0     C92119   6.657   8.250   2.142 -0.4657 -0.5229  0.1162
  683MOL0     N92120   5.927   8.420   2.245  0.1152  0.2797  0.2843
  683MOL0     N92121   5.814   8.360   2.250  0.4425 -0.3345 -0.4370
  683MOL0     C92122   4.643   8.769   2.126  0.4713 -0.2224 -0.2589
  683MOL0     C92123   4.588   8.851   2.028 -0.3323 -0.1731 -0.6123
  683MOL0     C92124   4.554   9.214   1.731 -0.2363  0.3641 -0.1444
  683MOL0     C92125   4.416   9.205   1.751 -0.4334 -0.4854 -0.7972
  683MOL0     C92126   4.328   9.240   1.647 -0.4702 -0.4554  0.0574
  683MOL0     C92127   4.380   9.289   1.530 -0.6069  0.0367  0.4675
  683MOL0     O92128   4.303   9.325   1.427  0.0699  0.2402  0.2550
  683MOL0     C92129   4.172   9.269   1.405  0.2380 -0.0585 -0.6548
  683MOL0     C92130   4.131   9.301   1.255  0.4782 -0.4424  0.7355
  683MOL0     C92131   4.131   9.459   1.234 -0.5498 -0.6668  0.1032
  683MOL0     C92132   4.056   9.541   1.338  1.2394  0.6380  0.2701
  683MOL0     C92133   4.053   9.682   1.306  0.5900  0.1203  0.6921
  683MOL0     C92134   4.068   9.801   1.283 -0.0429 -0.3392  0.0653
  683MOL0     C92135   4.515   9.305   1.509 -0.3596  0.1450 -0.6285
  683MOL0     C92136   4.604   9.263   1.610 -0.0558 -0.6295  0.3233
  683MOL0     C92137   4.754   9.272   1.560 -0.4582  0.1698 -0.9283
  683MOL0     H92138   4.800   9.112   2.068 -0.3420  0.0780 -2.4600
  683MOL0     H92139   4.900   8.947   2.245  1.1611 -0.8352 -3.3069
  683MOL0     H92140   4.727   8.541   2.220 -1.8904  2.8868  0.5232
  683MOL0     H92141   4.877   8.599   2.135  1.1773 -2.4190 -0.4206
  683MOL0     H92142   4.926   8.409   2.266 -1.2614 -0.3936 -0.2980
  683MOL0     H92143   4.891   8.489   2.418  0.2477 -2.3322 -0.0724
  683MOL0     H92144   5.096   8.617   2.406  1.1439  1.1631 -0.8979
  683MOL0     H92145   5.066   8.670   2.251  2.1546  0.0352 -0.4617
  683MOL0     H92146   5.173   8.394   2.306  1.7624 -1.2665 -1.7784
  683MOL0     H92147   5.113   8.434   2.149  0.8080 -0.9654 -0.3620
  683MOL0     H92148   5.282   8.630   2.138  1.1320 -0.6062 -1.0327
  683MOL0     H92149   5.328   8.584   2.304  1.0329 -1.9663  0.0930
  683MOL0     H92150   5.364   8.335   2.224  0.2914  0.3385  0.6870
  683MOL0     H92151   5.364   8.399   2.059  0.4728 -1.0470 -0.3253
  683MOL0     H92152   5.553   8.497   2.261 -3.9417 -0.1399  0.3957
  683MOL0     H92153   5.527   8.544   2.090  0.3667 -0.1858 -0.5937
  683MOL0     H92154   5.584   8.251   2.180  1.0482  0.9522  0.4930
  683MOL0     H92155   5.595   8.316   2.011 -0.7745 -0.2245  0.0711
  683MOL0     H92156   5.815   8.463   1.948 -0.6101 -1.8455 -0.6679
  683MOL0     H92157   6.074   8.499   1.954 -1.1991  1.6351 -0.9621
  683MOL0     H92158   6.049   8.633   2.051  1.4037 -0.4574 -2.5216
  683MOL0     H92159   6.278   8.551   2.091 -0.5361  0.1785  0.3877
  683MOL0     H92160   6.197   8.483   2.232 -1.9665  2.1752  0.5200
  683MOL0     H92161   6.204   8.314   1.980  0.3543 -1.7788  0.3784
  683MOL0     H92162   6.163   8.273   2.147 -0.9713  0.6826 -0.4651
  683MOL0     H92163   6.377   8.197   2.039  1.4598  0.1969  0.5862
  683MOL0     H92164   6.386   8.277   2.203 -2.4973  0.8076  0.8076
  683MOL0     H92165   6.648   8.550   1.994  0.1436 -0.6185 -2.1185
  683MOL0     H92166   6.881   8.555   2.060  0.4888  1.1827  2.5141
  683MOL0     H92167   7.220   8.639   2.001  1.3746 -0.4836 -1.0035
  683MOL0     H92168   7.459   8.687   2.006  0.4173 -0.0530  1.4325
  683MOL0     H92169   7.699   8.521   2.368  3.2878  2.1551  0.6496
  683MOL0     H92170   7.705   8.423   2.219  0.3234  0.8179 -3.4548
  683MOL0     H92171   7.881   8.576   2.131 -0.6266 -0.4720 -0.1624
  683MOL0     H92172   7.860   8.671   2.281 -1.3522  1.4410 -1.2543
  683MOL0     H92173   7.917   8.423   2.387 -0.7925  1.4025 -0.0422
  683MOL0     H92174   7.990   8.389   2.241 -0.6516 -1.1642 -0.7142
  683MOL0     H92175   8.075   8.635   2.413  0.4303 -2.9508  2.7017
  683MOL0     H92176   8.137   8.600   2.247  0.1394 -1.3511 -0.7615
  683MOL0     H92177   8.241   8.389   2.331 -1.7608 -0.9401  1.7287
  683MOL0     H92178   8.182   8.414   2.488  0.3281 -0.0334  0.7572
  683MOL0     H92179   8.376   8.602   2.355 -0.2591  0.7702  0.5304
  683MOL0     H92180   8.304   8.626   2.525  4.0434  2.3053  0.8230
  683MOL0     H92181   8.444   8.371   2.442 -0.6814 -0.3844  0.5770
  683MOL0     H92182   8.365   8.403   2.595 -0.0963 -2.2691 -1.7429
  683MOL0     H92183   8.598   8.576   2.480  1.5428  1.4581  2.5566
  683MOL0     H92184   8.506   8.602   2.631 -5.8083  0.0008 -1.2282
  683MOL0     H92185   7.487   8.423   2.351 -2.2411 -0.0739  1.4623
  683MOL0     H92186   7.256   8.353   2.327  1.1685 -1.2955 -1.7676
  683MOL0     H92187   6.847   8.155   2.205  1.0614  0.5180 -0.4652
  683MOL0     H92188   6.592   8.169   2.171 -1.9019  1.2915  2.2690
  683MOL0     H92189   4.591   8.678   2.154 -0.6543  0.1447 -1.0872
  683MOL0     H92190   4.510   8.811   1.963 -1.4837  2.3777 -0.9404
  683MOL0     H92191   4.380   9.163   1.844  0.3361  1.1684  0.2840
  683MOL0     H92192   4.221   9.228   1.657 -0.3739 -2.7877 -1.0347
  683MOL0     H92193   4.110   9.317   1.481  0.6000 -2.7544  1.5242
  683MOL0     H92194   4.165   9.162   1.429 -1.6877 -0.0273 -0.9503
  683MOL0     H92195   4.034   9.251   1.248  1.3085 -2.1582  0.8615
  683MOL0     H92196   4.206   9.270   1.182 -0.5917  1.6243 -1.3534
  683MOL0     H92197   4.090   9.485   1.136  0.2776  0.7583  0.1091
  683MOL0     H92198   4.234   9.497   1.236 -1.3651  1.7159 -0.3166
  683MOL0     H92199   3.953   9.505   1.351  0.6937  1.5316 -1.2576
  683MOL0     H92200   4.109   9.535   1.433 -0.2140  0.8305  1.1304
  683MOL0     H92201   4.088   9.905   1.265  0.7298 -0.5519 -0.3638
  683MOL0     H92202   4.541   9.336   1.408  0.0529 -2.2004 -1.3086
  683MOL0     H92203   4.759   9.285   1.452  2.2453 -0.8323 -1.0021
  683MOL0     H92204   4.803   9.349   1.619 -0.5836 -0.0022 -0.5983
  683MOL0     H92205   4.803   9.177   1.584  1.3976  1.0186 -1.2151
  684MOL0     O92206   9.816   3.294   3.425  0.1633 -0.1581 -0.2371
  684MOL0     C92207   9.888   3.353   3.502 -0.1915  1.4236 -0.8682
  684MOL0     O92208   9.844   3.421   3.614 -0.0395 -0.0921  0.4668
  684MOL0     C92209   9.714   3.471   3.605 -0.3248  0.6096  0.3873
  684MOL0     C92210   9.684   3.591   3.546 -0.3115 -0.0455 -0.0860
  684MOL0     C92211   9.552   3.630   3.526  0.0516  0.0655  0.1648
  684MOL0     C92212   9.444   3.546   3.566 -0.0281  0.0298  0.1542
  684MOL0     O92213   9.318   3.571   3.513  0.1230  0.7139  0.5236
  684MOL0     C92214   9.220   3.584   3.616 -0.5538 -0.2861  0.1900
  684MOL0     C92215   9.233   3.723   3.678  0.2026  0.4882 -0.3442
  684MOL0     C92216   9.158   3.725   3.815 -0.2969 -0.4845 -0.2331
  684MOL0     C92217   9.235   3.818   3.901  0.2946  0.2989 -0.3309
  684MOL0     C92218   9.201   3.818   4.055 -0.1004 -0.2548 -0.4456
  684MOL0     C92219   9.295   3.907   4.133 -0.1606  0.2500 -1.3405
  684MOL0     C92220   9.240   3.914   4.275  0.2510  0.4839  0.2037
  684MOL0     C92221   9.169   4.043   4.318  0.5027 -0.7255 -0.4772
  684MOL0     N92222   9.026   4.026   4.318 -0.1228  0.4922  0.7298
  684MOL0     C92223   8.938   4.048   4.207 -0.0478 -0.9315 -0.4714
  684MOL0     C92224   8.809   4.045   4.257 -0.5334 -0.5587 -0.2146
  684MOL0     C92225   8.690   4.102   4.176  1.2081  0.3840 -0.5457
  684MOL0     C92226   8.552   4.109   4.253  0.6859 -0.7386  0.1619
  684MOL0     C92227   8.558   4.231   4.343  0.1200 -0.6028 -0.1124
  684MOL0     C92228   8.434   4.235   4.433  0.3027 -0.1168  0.2084
  684MOL0     O92229   8.441   4.350   4.523  0.0902  0.7747 -0.6439
  684MOL0     C92230   8.510   4.327   4.642  0.3691  0.0032  0.2088
  684MOL0     C92231   8.565   4.204   4.687 -0.3917 -0.5859 -0.0914
  684MOL0     C92232   8.631   4.191   4.812 -0.4771  0.6175  0.0933
  684MOL0     C92233   8.654   4.309   4.882 -0.6577  0.1275 -0.3930
  684MOL0     C92234   8.737   4.310   5.005 -0.3909  0.0842  0.4601
  684MOL0     O92235   8.752   4.435   5.071 -0.4033 -0.7704 -0.1538
  684MOL0     C92236   8.833   4.445   5.178 -0.3867  0.5503 -0.0364
  684MOL0     C92237   8.799   4.527   5.283 -0.2919 -0.5461  0.0029
  684MOL0     C92238   8.873   4.569   5.386 -0.5844 -0.1559 -0.2313
  684MOL0     C92239   9.012   4.531   5.380  0.3337 -0.3258  0.2411
  684MOL0     O92240   9.110   4.565   5.462 -0.2807 -0.1322  0.2760
  684MOL0     C92241   9.091   4.694   5.525 -0.4596  1.4722  0.6381
  684MOL0     C92242   9.232   4.740   5.561  0.7685  0.0912 -0.0068
  684MOL0     C92243   9.331   4.752   5.449 -0.3394  0.1808  0.0830
  684MOL0     C92244   9.473   4.768   5.509 -0.4243  0.0614 -0.1631
  684MOL0     C92245   9.565   4.754   5.388 -0.5591  0.1321  0.0953
  684MOL0     C92246   9.704   4.802   5.433  0.0739  0.1109 -0.4040
  684MOL0     C92247   9.790   4.831   5.311 -0.4985 -0.5290 -0.6949
  684MOL0     C92248   9.933   4.832   5.344 -0.2081  0.7393 -0.2725
  684MOL0    Cl92249  10.002   4.957   5.451 -0.2803 -0.1093 -0.3899
  684MOL0     C92250   9.061   4.459   5.274 -0.8897  0.4303 -0.5419
  684MOL0     C92251   8.977   4.418   5.178  0.2148 -0.3497  0.3196
  684MOL0     O92252   8.784   4.204   5.047  0.0721  0.1780 -0.1747
  684MOL0     C92253   8.599   4.432   4.841 -0.0373 -0.5097 -0.8106
  684MOL0     C92254   8.521   4.441   4.719 -0.8204  0.1766 -0.9388
  684MOL0     N92255   8.817   3.986   4.383 -0.1080 -0.4196 -0.4166
  684MOL0     N92256   8.942   3.980   4.413  0.6750 -0.3761  0.4742
  684MOL0     C92257   9.473   3.437   3.646 -0.7135  0.3215  0.4168
  684MOL0     C92258   9.608   3.406   3.671 -0.2740  0.1611  0.1380
  684MOL0     C92259  10.039   3.322   3.484  0.2748  0.2340 -0.0897
  684MOL0     C92260  10.125   3.349   3.594  0.1928 -0.2119 -0.0697
  684MOL0     C92261  10.265   3.325   3.590  0.7477  0.0011  1.1351
  684MOL0     C92262  10.321   3.290   3.468 -0.0240  0.2572 -0.7946
  684MOL0     O92263  10.461   3.293   3.475 -0.9159  0.2878 -0.2011
  684MOL0     C92264  10.541   3.215   3.388  1.1463 -0.1821 -0.0696
  684MOL0     C92265  10.539   3.076   3.458  0.8085 -0.0199  0.2009
  684MOL0     C92266  10.618   3.055   3.582 -0.2320 -0.2385 -1.0886
  684MOL0     C92267  10.627   2.911   3.649 -1.0410  0.3937 -0.5345
  684MOL0     C92268  10.493   2.847   3.656 -1.1946 -0.1951 -0.4490
  684MOL0     C92269  10.379   2.806   3.644 -0.5038  0.3897 -0.1587
  684MOL0     C92270  10.235   3.269   3.357  0.0111 -0.1820  0.2998
  684MOL0     C92271  10.098   3.282   3.362  0.1685  0.3360 -0.2634
  684MOL0     C92272  10.029   3.245   3.228  0.0914  0.5747 -0.4832
  684MOL0     H92273   9.762   3.663   3.523 -1.3523  2.4219  3.3654
  684MOL0     H92274   9.538   3.724   3.473 -1.4000 -0.4280 -0.3604
  684MOL0     H92275   9.122   3.571   3.568 -1.5801 -1.3670  2.4000
  684MOL0     H92276   9.227   3.505   3.691  1.7871  0.0336  0.3683
  684MOL0     H92277   9.186   3.801   3.617 -0.4900  2.0184  1.9665
  684MOL0     H92278   9.338   3.751   3.686  0.3252  1.3048 -3.4914
  684MOL0     H92279   9.170   3.631   3.870  2.4168  0.1361  0.3775
  684MOL0     H92280   9.055   3.761   3.808 -0.0755  0.0845 -0.5530
  684MOL0     H92281   9.337   3.780   3.913 -0.7819 -2.4848  0.8001
  684MOL0     H92282   9.250   3.916   3.854  3.4220 -1.0490 -2.4681
  684MOL0     H92283   9.097   3.852   4.058 -0.6939 -1.5089 -3.2864
  684MOL0     H92284   9.208   3.721   4.105 -0.6298  0.2905  0.7098
  684MOL0     H92285   9.396   3.865   4.135 -0.3740 -0.2775 -1.5684
  684MOL0     H92286   9.298   4.011   4.099  1.1240  0.8308  0.4235
  684MOL0     H92287   9.332   3.897   4.333  1.4386  2.4433 -0.9894
  684MOL0     H92288   9.163   3.839   4.299 -2.0548  3.6343  3.7617
  684MOL0     H92289   9.200   4.065   4.420  1.3669  2.1208 -1.2562
  684MOL0     H92290   9.203   4.132   4.263 -0.4502 -0.3693 -0.5065
  684MOL0     H92291   8.967   4.072   4.106  2.2448  0.9553  0.5249
  684MOL0     H92292   8.722   4.202   4.143  0.3196 -0.5447 -4.6922
  684MOL0     H92293   8.673   4.042   4.086  0.9263  1.8291 -1.4855
  684MOL0     H92294   8.464   4.103   4.188  0.1251 -2.0161  1.0069
  684MOL0     H92295   8.540   4.024   4.321 -2.5145 -0.5276  0.0265
  684MOL0     H92296   8.558   4.323   4.283 -0.9811 -1.1634 -1.0026
  684MOL0     H92297   8.652   4.233   4.399 -0.3690 -2.0599  0.8237
  684MOL0     H92298   8.420   4.137   4.480  3.8137 -0.5495  0.6186
  684MOL0     H92299   8.349   4.251   4.367  0.3404 -0.6599  0.0234
  684MOL0     H92300   8.559   4.113   4.628 -2.5586 -0.8534  0.4810
  684MOL0     H92301   8.663   4.096   4.854  5.4578  2.1427 -0.0050
  684MOL0     H92302   8.702   4.573   5.265 -1.6722 -1.9292  3.1008
  684MOL0     H92303   8.836   4.619   5.475  0.1460 -0.0071 -0.0066
  684MOL0     H92304   9.054   4.771   5.457 -3.0090 -0.8862 -0.8552
  684MOL0     H92305   9.024   4.678   5.610 -3.1914 -0.0172 -1.5919
  684MOL0     H92306   9.208   4.827   5.622 -0.1775 -0.1876  0.0322
  684MOL0     H92307   9.273   4.654   5.615 -0.6298 -1.3148 -1.0714
  684MOL0     H92308   9.320   4.661   5.389  1.5805  0.1752 -0.3358
  684MOL0     H92309   9.331   4.840   5.384  0.6723  2.1271  2.5567
  684MOL0     H92310   9.492   4.691   5.584  1.2413 -0.3266 -0.9480
  684MOL0     H92311   9.497   4.862   5.560 -1.6910  1.3953 -1.8917
  684MOL0     H92312   9.530   4.806   5.298  0.4315  1.2830  0.3482
  684MOL0     H92313   9.568   4.648   5.363 -1.8865 -0.0863  0.7923
  684MOL0     H92314   9.703   4.891   5.498  0.4070  0.6671 -1.1428
  684MOL0     H92315   9.742   4.712   5.483 -0.7478 -0.4991 -0.8563
  684MOL0     H92316   9.772   4.932   5.273 -1.5231 -0.9781 -1.4577
  684MOL0     H92317   9.769   4.759   5.232  1.5018  0.6401 -2.3949
  684MOL0     H92318   9.964   4.734   5.382 -0.4177  0.8791  0.2788
  684MOL0     H92319   9.981   4.832   5.246 -1.3912 -0.4672 -0.8744
  684MOL0     H92320   9.167   4.438   5.270 -0.5503  2.1195 -1.0536
  684MOL0     H92321   9.022   4.364   5.095 -2.5105  2.4933 -3.3204
  684MOL0     H92322   8.607   4.519   4.906 -0.6253  1.2104 -2.9083
  684MOL0     H92323   8.452   4.523   4.699 -0.1849  1.0997  0.4538
  684MOL0     H92324   9.400   3.366   3.683 -0.7551  0.0262 -0.2075
  684MOL0     H92325   9.621   3.317   3.732 -2.2371 -1.0812 -1.1617
  684MOL0     H92326  10.081   3.377   3.689  0.9794  1.7387 -0.2533
  684MOL0     H92327  10.319   3.345   3.682 -0.4383  0.5605  1.7173
  684MOL0     H92328  10.640   3.262   3.376  1.2347 -0.5235 -0.6886
  684MOL0     H92329  10.499   3.208   3.287  1.7414  0.8659 -0.4053
  684MOL0     H92330  10.570   3.010   3.376  0.5702 -1.8815  1.5464
  684MOL0     H92331  10.434   3.051   3.471  0.0233  3.0125  0.4688
  684MOL0     H92332  10.585   3.126   3.658  2.9094  2.3517 -1.8932
  684MOL0     H92333  10.722   3.073   3.553 -0.3563 -0.0428 -1.4141
  684MOL0     H92334  10.704   2.855   3.594  1.2734  3.1825 -0.3770
  684MOL0     H92335  10.680   2.925   3.743  3.4706 -1.8857 -2.4127
  684MOL0     H92336  10.274   2.788   3.641 -1.0591  2.7366  1.8654
  684MOL0     H92337  10.278   3.236   3.263  0.3574  3.9862 -1.2247
  684MOL0     H92338   9.974   3.151   3.230 -4.5482  2.9445 -1.3028
  684MOL0     H92339   9.950   3.313   3.193 -2.1434 -1.6618 -0.1111
  684MOL0     H92340  10.099   3.231   3.145  0.9631 -3.7026  0.7790
  685MOL0     O92341  10.883   0.353   7.167  0.2316  0.2698  0.4395
  685MOL0     C92342  10.768   0.369   7.120 -0.5097  0.0557  0.1670
  685MOL0     O92343  10.740   0.414   6.993  0.1868 -0.0211  0.0819
  685MOL0     C92344  10.833   0.419   6.895 -0.2807 -0.9729 -0.4345
  685MOL0     C92345  10.972   0.395   6.899 -0.1351  0.7112 -0.4457
  685MOL0     C92346  11.058   0.435   6.790  0.3544  1.3016 -1.2536
  685MOL0     C92347  11.006   0.525   6.697 -0.7185  0.5586 -0.9717
  685MOL0     O92348  11.083   0.575   6.591  0.2780  0.0928  0.5478
  685MOL0     C92349  11.220   0.528   6.560 -1.2066  0.3247 -0.2753
  685MOL0     C92350  11.259   0.578   6.420 -0.8411  0.6877 -0.5422
  685MOL0     C92351  11.319   0.721   6.410  0.5436  0.3383 -1.0945
  685MOL0     C92352  11.322   0.756   6.261 -0.8340 -0.9012  0.0386
  685MOL0     C92353  11.407   0.884   6.247  0.2570  1.2642 -0.3603
  685MOL0     C92354  11.418   0.934   6.103  0.2206 -0.4888 -0.3357
  685MOL0     C92355  11.303   1.022   6.049 -0.8734  0.3367 -0.3706
  685MOL0     C92356  11.338   1.088   5.916 -0.0401  0.8710 -0.9136
  685MOL0     N92357  11.457   1.179   5.923  0.2765  0.0128  0.2051
  685MOL0     C92358  11.577   1.127   5.902  0.3345  0.1332 -1.2166
  685MOL0     C92359  11.654   1.227   5.866  0.4484  0.3425  0.7738
  685MOL0     C92360  11.798   1.230   5.835 -0.3291 -1.1656  0.7470
  685MOL0     C92361  11.856   1.369   5.860  1.4645 -0.0055  0.5202
  685MOL0     C92362  12.000   1.367   5.877  0.3543 -0.0249  0.1166
  685MOL0     C92363  12.046   1.503   5.929  0.2420 -0.6078 -0.3966
  685MOL0     O92364  12.189   1.505   5.921  0.7533 -0.1312 -0.2243
  685MOL0     C92365  12.269   1.436   6.005 -0.2400  0.1254 -0.7179
  685MOL0     C92366  12.285   1.461   6.146  0.7011  0.4413  0.3546
  685MOL0     C92367  12.386   1.386   6.214  0.3909  0.1873 -0.0067
  685MOL0     C92368  12.477   1.300   6.145 -0.9751  0.6974 -0.3252
  685MOL0     C92369  12.585   1.219   6.210  0.0415  0.0207 -0.4279
  685MOL0     O92370  12.683   1.164   6.133 -0.1406 -0.4806  0.0747
  685MOL0     C92371  12.773   1.072   6.193  0.2643 -1.1114  0.1346
  685MOL0     C92372  12.730   0.985   6.297 -0.2878 -0.3799  0.7743
  685MOL0     C92373  12.822   0.899   6.351 -0.1327  0.2069  0.4782
  685MOL0     C92374  12.958   0.900   6.313 -0.2079 -1.0517  1.2999
  685MOL0     O92375  13.045   0.823   6.385  0.1996 -0.9084  0.6490
  685MOL0     C92376  13.162   0.894   6.425 -0.7952 -0.0545 -1.3653
  685MOL0     C92377  13.225   0.830   6.552  0.5103  0.8108  0.0711
  685MOL0     C92378  13.259   0.681   6.523  0.3435 -0.4137 -1.8503
  685MOL0     C92379  13.388   0.660   6.443  0.0983 -0.4185 -0.8709
  685MOL0     C92380  13.454   0.521   6.464  0.4507 -0.5052 -0.3071
  685MOL0     C92381  13.531   0.474   6.339  0.1573 -0.1643 -0.3075
  685MOL0     C92382  13.484   0.326   6.317 -0.4379 -0.2198  0.3959
  685MOL0     C92383  13.571   0.241   6.229 -0.9977 -0.4282 -0.1680
  685MOL0    Cl92384  13.608   0.310   6.069 -0.6297 -0.2277  0.4090
  685MOL0     C92385  12.992   0.996   6.214 -0.7320  0.4476 -0.9475
  685MOL0     C92386  12.905   1.080   6.155 -0.2442  1.0411  0.5919
  685MOL0     O92387  12.583   1.220   6.330  0.2929 -0.4722 -1.3459
  685MOL0     C92388  12.459   1.281   6.008 -0.4772 -0.1040 -0.5520
  685MOL0     C92389  12.359   1.346   5.942  0.8125 -0.0609 -0.9694
  685MOL0     N92390  11.582   1.345   5.859 -0.1196  0.5494  0.0682
  685MOL0     N92391  11.467   1.308   5.894  0.5026 -0.0977  0.1117
  685MOL0     C92392  10.878   0.555   6.697 -0.2846 -0.4545 -0.1080
  685MOL0     C92393  10.785   0.496   6.788 -0.1774  0.2567  0.4499
  685MOL0     C92394  10.660   0.359   7.220 -0.4106  0.3839 -0.6530
  685MOL0     C92395  10.569   0.462   7.214 -0.3300  0.0417  0.1592
  685MOL0     C92396  10.471   0.472   7.318 -0.4826 -0.3161  0.3873
  685MOL0     C92397  10.466   0.391   7.426 -1.2333 -0.7746 -0.9094
  685MOL0     O92398  10.369   0.418   7.525 -0.3410 -0.1208  0.4778
  685MOL0     C92399  10.325   0.305   7.600 -0.3470 -0.5727  0.8936
  685MOL0     C92400  10.206   0.345   7.694 -1.0545 -0.5742  0.0957
  685MOL0     C92401  10.201   0.496   7.736  0.1714 -0.7705 -0.7342
  685MOL0     C92402  10.318   0.538   7.823 -0.4785 -0.1413 -0.7990
  685MOL0     C92403  10.332   0.470   7.949 -0.2182  1.0989 -0.5435
  685MOL0     C92404  10.331   0.425   8.065  0.1986  0.5533 -0.3466
  685MOL0     C92405  10.554   0.278   7.423 -0.3277  0.5790  0.2138
  685MOL0     C92406  10.643   0.259   7.317 -0.3466  0.7465  0.0348
  685MOL0     C92407  10.715   0.127   7.304  1.2291 -0.0354 -0.8457
  685MOL0     H92408  11.025   0.338   6.975  1.0319 -0.0203 -1.7575
  685MOL0     H92409  11.163   0.406   6.789 -0.1569 -1.1767  1.6552
  685MOL0     H92410  11.302   0.550   6.629  0.1698 -1.3924 -1.2674
  685MOL0     H92411  11.230   0.419   6.558  0.5548  0.4431  0.0045
  685MOL0     H92412  11.169   0.549   6.365 -1.5952 -2.8933  2.1925
  685MOL0     H92413  11.338   0.515   6.378 -1.8506  1.3544 -3.6300
  685MOL0     H92414  11.416   0.719   6.461  0.0907  0.0491 -0.2306
  685MOL0     H92415  11.250   0.787   6.462 -0.8245 -2.3322  0.7210
  685MOL0     H92416  11.356   0.670   6.202  1.1035  0.6490 -1.2547
  685MOL0     H92417  11.225   0.786   6.220  0.3103  5.5299  1.0098
  685MOL0     H92418  11.364   0.958   6.315 -1.5778 -2.2214  2.6530
  685MOL0     H92419  11.503   0.860   6.294 -0.9035  2.5066  3.0175
  685MOL0     H92420  11.507   0.992   6.128 -1.0467  0.9232  1.0608
  685MOL0     H92421  11.438   0.850   6.034  0.8770 -0.5534 -0.0700
  685MOL0     H92422  11.289   1.092   6.132  0.2479  1.0896 -0.7925
  685MOL0     H92423  11.212   0.965   6.034 -0.6317 -0.5208  1.1988
  685MOL0     H92424  11.350   1.001   5.851 -2.0861 -1.8078  1.9882
  685MOL0     H92425  11.249   1.140   5.879  0.7034  3.5011  0.7280
  685MOL0     H92426  11.610   1.026   5.925  2.0759  0.9234  0.0159
  685MOL0     H92427  11.849   1.159   5.902  2.9241 -0.0282 -0.3418
  685MOL0     H92428  11.823   1.202   5.732  0.3191 -1.1308  0.8868
  685MOL0     H92429  11.821   1.432   5.777 -2.0068 -0.2540  1.6569
  685MOL0     H92430  11.802   1.416   5.942 -0.1779  0.6516 -0.8739
  685MOL0     H92431  12.040   1.338   5.780  1.1871  0.5594  0.2731
  685MOL0     H92432  12.017   1.287   5.950  0.1704  0.8528  1.1416
  685MOL0     H92433  12.022   1.512   6.035  0.5198 -2.3524 -0.1444
  685MOL0     H92434  12.019   1.595   5.877  4.2242  0.8329 -0.2556
  685MOL0     H92435  12.230   1.540   6.195  1.3176  2.2722 -1.7230
  685MOL0     H92436  12.397   1.410   6.320  1.0547 -1.2290  0.2701
  685MOL0     H92437  12.631   0.985   6.340 -0.4971  2.2175  0.4470
  685MOL0     H92438  12.793   0.824   6.425 -2.1241  1.2342  0.8050
  685MOL0     H92439  13.245   0.911   6.356  0.2917  3.3688  0.5589
  685MOL0     H92440  13.134   0.999   6.440  1.8089  0.8261 -2.1996
  685MOL0     H92441  13.306   0.889   6.596 -0.1377  0.8088  1.3085
  685MOL0     H92442  13.158   0.832   6.638  0.9152 -0.7544  0.4519
  685MOL0     H92443  13.264   0.637   6.623 -1.4509 -0.0668 -1.5849
  685MOL0     H92444  13.174   0.632   6.475  1.6636  0.2598 -5.1262
  685MOL0     H92445  13.448   0.743   6.481 -1.8215  0.7216 -0.1751
  685MOL0     H92446  13.364   0.687   6.340 -1.8965 -2.3859 -1.0108
  685MOL0     H92447  13.369   0.454   6.482  0.0460  0.0011 -0.3355
  685MOL0     H92448  13.519   0.518   6.552 -1.0346 -1.7173  0.8171
  685MOL0     H92449  13.511   0.534   6.251 -0.8491 -0.3308 -0.2092
  685MOL0     H92450  13.638   0.482   6.358 -0.1388 -1.7919  2.7056
  685MOL0     H92451  13.387   0.332   6.268 -0.6076  1.8575  0.8755
  685MOL0     H92452  13.475   0.264   6.407  1.2197 -2.5692 -0.9366
  685MOL0     H92453  13.661   0.218   6.287 -1.6193  0.2467  1.1079
  685MOL0     H92454  13.534   0.140   6.209  1.8054 -1.5922  0.0800
  685MOL0     H92455  13.098   1.009   6.196  0.1518  0.5649  3.3097
  685MOL0     H92456  12.929   1.131   6.062  0.9226 -1.8941 -0.8339
  685MOL0     H92457  12.522   1.219   5.945 -0.8418  1.4117 -2.5002
  685MOL0     H92458  12.358   1.349   5.834  2.3071  2.9525 -1.0069
  685MOL0     H92459  10.845   0.627   6.622  1.2667 -0.4139 -0.8032
  685MOL0     H92460  10.682   0.527   6.777  0.1590  1.5406  0.8066
  685MOL0     H92461  10.571   0.532   7.130 -1.7360  0.9590  0.8481
  685MOL0     H92462  10.400   0.554   7.312 -1.6346 -1.3823 -2.7975
  685MOL0     H92463  10.408   0.285   7.669  1.3702  0.7320 -0.6766
  685MOL0     H92464  10.297   0.218   7.539  1.0534  0.5494 -1.4867
  685MOL0     H92465  10.208   0.285   7.786  0.4636  1.4819  1.4927
  685MOL0     H92466  10.113   0.334   7.639 -0.6562 -0.7958 -0.5446
  685MOL0     H92467  10.112   0.530   7.791  2.0167 -0.7368  2.4991
  685MOL0     H92468  10.203   0.557   7.646 -3.4475  0.1096 -0.3776
  685MOL0     H92469  10.409   0.528   7.764  0.8490 -0.8218  1.2359
  685MOL0     H92470  10.317   0.645   7.847  1.0327 -0.1080 -0.7927
  685MOL0     H92471  10.310   0.387   8.163  2.0766 -1.7705 -0.7429
  685MOL0     H92472  10.543   0.200   7.497 -1.8995  2.7232  2.3660
  685MOL0     H92473  10.803   0.129   7.369  0.0392  1.0576  0.8064
  685MOL0     H92474  10.656   0.045   7.345 -1.8560  3.3212  2.1649
  685MOL0     H92475  10.747   0.101   7.203  2.3661 -0.7997 -0.3136
  686MOL0     O92476   7.225   5.001   7.837 -0.0464  0.8021 -0.7542
  686MOL0     C92477   7.240   4.998   7.960  0.8987 -0.6525  0.3682
  686MOL0     O92478   7.346   4.961   8.024 -0.2931  0.7251 -0.3115
  686MOL0     C92479   7.464   4.952   7.954 -0.7719  0.1603  0.3421
  686MOL0     C92480   7.541   5.063   7.924 -0.4247  0.0048  0.0284
  686MOL0     C92481   7.667   5.054   7.861  1.0672  0.0341 -0.2724
  686MOL0     C92482   7.714   4.924   7.816 -0.0219 -0.2987  0.5830
  686MOL0     O92483   7.839   4.896   7.770 -0.3432  0.3711 -0.7772
  686MOL0     C92484   7.936   5.002   7.761  0.2190  0.3053 -0.2182
  686MOL0     C92485   8.063   4.940   7.705  0.4317  0.0224 -0.2533
  686MOL0     C92486   8.177   4.998   7.776  0.2467 -0.5428  0.9193
  686MOL0     C92487   8.212   4.918   7.907  0.3901 -0.5420 -0.4583
  686MOL0     C92488   8.338   4.980   7.973  0.5804 -0.6445 -1.4663
  686MOL0     C92489   8.375   4.877   8.087 -0.5830 -0.3536 -0.9919
  686MOL0     C92490   8.517   4.898   8.144  0.7982 -0.2228 -0.1086
  686MOL0     C92491   8.504   4.985   8.265 -0.5247 -0.0703 -0.0109
  686MOL0     N92492   8.628   5.048   8.314  0.0432  0.4239  0.4027
  686MOL0     C92493   8.757   5.024   8.270 -0.9420  0.1505  0.9027
  686MOL0     C92494   8.840   5.100   8.341  0.2432  0.2988 -0.2490
  686MOL0     C92495   8.983   5.120   8.300  0.4573 -0.9212 -0.1672
  686MOL0     C92496   9.069   4.995   8.321  0.1315  0.1230  0.3084
  686MOL0     C92497   9.205   4.993   8.258  0.2967  0.6108  0.0300
  686MOL0     C92498   9.271   5.123   8.241  0.4046  0.1946 -0.2772
  686MOL0     O92499   9.293   5.199   8.361  0.2903  0.1203 -0.1291
  686MOL0     C92500   9.406   5.189   8.444 -0.4237  0.7365 -0.2464
  686MOL0     C92501   9.531   5.137   8.403 -0.0764 -0.2962 -0.2488
  686MOL0     C92502   9.645   5.141   8.486  0.2994  0.5784  0.0091
  686MOL0     C92503   9.633   5.188   8.613 -0.3284  0.1566 -1.3083
  686MOL0     C92504   9.757   5.182   8.704  0.4998  0.0600 -0.7066
  686MOL0     O92505   9.876   5.121   8.658  0.3285  0.4656  0.0963
  686MOL0     C92506   9.991   5.152   8.720 -0.4447  0.2930 -1.7154
  686MOL0     C92507  10.065   5.047   8.757 -0.2416 -1.0072 -0.2527
  686MOL0     C92508  10.199   5.071   8.809  0.0235  0.2304  0.5962
  686MOL0     C92509  10.253   5.199   8.818  0.2431 -0.3074 -0.5916
  686MOL0     O92510  10.379   5.211   8.863  0.5367  0.8593 -0.4104
  686MOL0     C92511  10.461   5.327   8.859  0.6307 -1.5406  0.2515
  686MOL0     C92512  10.614   5.287   8.866 -0.7564  0.5478 -0.8676
  686MOL0     C92513  10.692   5.424   8.872  0.0916  0.1440 -0.7154
  686MOL0     C92514  10.737   5.464   9.014 -0.0783 -0.1343 -0.1779
  686MOL0     C92515  10.888   5.463   9.039 -0.3060  0.9762  0.3883
  686MOL0     C92516  10.934   5.320   9.048 -0.8403  0.1807  0.5839
  686MOL0     C92517  11.083   5.310   9.050  0.3092  0.3448  0.2115
  686MOL0     C92518  11.129   5.326   9.194 -0.8736 -0.0548  0.3183
  686MOL0    Cl92519  11.098   5.171   9.267  0.5800  0.0191 -0.3152
  686MOL0     C92520  10.171   5.308   8.783 -0.7528  0.7874 -0.3404
  686MOL0     C92521  10.044   5.283   8.732 -0.0557 -0.1653  1.2977
  686MOL0     O92522   9.743   5.249   8.806 -0.2563  0.4647 -0.0811
  686MOL0     C92523   9.505   5.230   8.656 -0.3290  0.1162  0.0160
  686MOL0     C92524   9.394   5.231   8.573 -0.1315  0.5148 -0.1743
  686MOL0     N92525   8.762   5.176   8.427 -0.1251 -0.4200  0.3068
  686MOL0     N92526   8.639   5.154   8.401 -0.3605  0.2564 -0.0122
  686MOL0     C92527   7.632   4.816   7.830  0.7151  0.5995 -0.4657
  686MOL0     C92528   7.507   4.827   7.894  0.7670 -0.2459 -0.1565
  686MOL0     C92529   7.116   5.046   8.030  0.2239 -0.3937  0.0208
  686MOL0     C92530   7.001   4.990   8.001  0.2614 -0.2354  0.3890
  686MOL0     C92531   6.890   5.009   8.090 -0.3489 -0.1011  0.4007
  686MOL0     C92532   6.900   5.091   8.202  0.2572  0.6640 -0.6110
  686MOL0     O92533   6.812   5.108   8.304  0.7283  0.8673  0.2441
  686MOL0     C92534   6.674   5.096   8.264 -0.8841  0.0014  0.0283
  686MOL0     C92535   6.593   5.197   8.350 -0.6447 -0.2107  0.1076
  686MOL0     C92536   6.457   5.215   8.296 -0.0206  0.6270 -0.8590
  686MOL0     C92537   6.368   5.300   8.386  0.5222  0.0025  0.3307
  686MOL0     C92538   6.240   5.336   8.326  0.8511 -0.0183  0.1085
  686MOL0     C92539   6.137   5.358   8.271 -0.0899  0.5746  0.2645
  686MOL0     C92540   7.025   5.155   8.231  0.9350 -0.4016 -0.4283
  686MOL0     C92541   7.137   5.132   8.144  0.8124 -0.8402 -0.6174
  686MOL0     C92542   7.264   5.201   8.166 -0.4515 -0.1082 -0.7138
  686MOL0     H92543   7.518   5.166   7.949  2.3079  0.4701  0.8779
  686MOL0     H92544   7.730   5.143   7.863 -1.2595  1.7554  0.1001
  686MOL0     H92545   7.904   5.085   7.697  0.8111  0.1918 -0.6702
  686MOL0     H92546   7.959   5.047   7.858 -3.5754 -1.3201  1.6526
  686MOL0     H92547   8.065   4.961   7.597 -3.5778 -0.5136 -0.5888
  686MOL0     H92548   8.068   4.832   7.719  2.7016 -0.0830 -1.4269
  686MOL0     H92549   8.168   5.106   7.789  1.1308 -0.3004 -0.3166
  686MOL0     H92550   8.260   4.976   7.708  1.3766  1.4868  1.5582
  686MOL0     H92551   8.131   4.931   7.978  0.6141  1.5124 -0.5223
  686MOL0     H92552   8.226   4.811   7.885  5.4582 -0.9083  2.8280
  686MOL0     H92553   8.418   4.991   7.900  1.4739  0.5216 -0.3595
  686MOL0     H92554   8.314   5.078   8.016  1.9899 -0.0057 -2.0872
  686MOL0     H92555   8.298   4.896   8.162  0.3619 -1.3731  0.2773
  686MOL0     H92556   8.362   4.772   8.056  1.6025 -0.7506 -0.7142
  686MOL0     H92557   8.571   4.950   8.064  2.3149 -0.1393  0.9289
  686MOL0     H92558   8.553   4.797   8.166 -1.4747 -1.7737 -2.8705
  686MOL0     H92559   8.431   5.062   8.239 -1.2300 -0.5137  0.6050
  686MOL0     H92560   8.472   4.924   8.350  1.1477 -0.5174  0.3336
  686MOL0     H92561   8.785   4.940   8.208  1.8045  0.7425  1.2176
  686MOL0     H92562   8.962   5.139   8.194  0.0725  0.7655  0.1832
  686MOL0     H92563   9.023   5.210   8.347 -0.4230 -0.2782 -0.6095
  686MOL0     H92564   9.074   4.965   8.426 -0.4471  3.6699  1.5140
  686MOL0     H92565   9.006   4.915   8.282 -0.2294  0.5771 -0.0708
  686MOL0     H92566   9.200   4.950   8.157 -0.6959 -0.1360  0.3759
  686MOL0     H92567   9.267   4.915   8.305  0.2591  1.0985  0.8997
  686MOL0     H92568   9.217   5.185   8.169 -0.2348 -1.3767 -1.1868
  686MOL0     H92569   9.368   5.094   8.199 -0.8806 -0.5760 -2.8834
  686MOL0     H92570   9.541   5.095   8.303 -0.6051 -0.2686 -0.3169
  686MOL0     H92571   9.743   5.105   8.456  1.7670  4.6510 -0.6778
  686MOL0     H92572  10.035   4.944   8.738  0.3375 -1.0774 -0.8229
  686MOL0     H92573  10.263   4.989   8.839  0.1800  0.7563  1.7568
  686MOL0     H92574  10.445   5.378   8.764 -1.6881 -2.2123  0.2115
  686MOL0     H92575  10.435   5.400   8.935  0.4286  0.1521 -1.3737
  686MOL0     H92576  10.625   5.229   8.958 -2.5020  2.0953  0.4096
  686MOL0     H92577  10.637   5.228   8.777  1.0256  0.4331 -0.3790
  686MOL0     H92578  10.780   5.436   8.808  0.3503  1.2201 -0.1850
  686MOL0     H92579  10.617   5.500   8.850 -0.1703  0.8015  2.1018
  686MOL0     H92580  10.680   5.399   9.081 -0.8429 -4.2059 -4.2331
  686MOL0     H92581  10.710   5.569   9.031  3.9691  0.3664  6.5102
  686MOL0     H92582  10.920   5.515   9.130  1.1226 -2.0585  1.7598
  686MOL0     H92583  10.930   5.517   8.954  0.2003 -0.3656 -0.2302
  686MOL0     H92584  10.888   5.274   9.136 -0.8321 -1.4752 -0.2252
  686MOL0     H92585  10.900   5.267   8.959  4.6284 -1.2654 -1.0311
  686MOL0     H92586  11.125   5.392   8.992  1.0208 -0.5256 -0.5276
  686MOL0     H92587  11.125   5.222   9.001 -1.0438 -0.7388  0.9036
  686MOL0     H92588  11.237   5.342   9.198 -1.1555  1.7566  1.8169
  686MOL0     H92589  11.087   5.412   9.247  1.3937  0.7498  0.9234
  686MOL0     H92590  10.222   5.403   8.791  0.6872  0.0138  0.0287
  686MOL0     H92591   9.984   5.360   8.684  2.0396  0.1324 -1.0308
  686MOL0     H92592   9.505   5.258   8.761 -1.0743  1.9100 -0.4286
  686MOL0     H92593   9.301   5.272   8.610 -0.4380 -2.1974  2.4244
  686MOL0     H92594   7.665   4.716   7.802 -1.1741 -0.2339  0.0936
  686MOL0     H92595   7.454   4.735   7.914 -0.2520  0.6087  1.2497
  686MOL0     H92596   6.995   4.917   7.921  1.2912 -1.6747  1.5491
  686MOL0     H92597   6.798   4.954   8.070 -0.6365  1.1039 -2.1308
  686MOL0     H92598   6.626   5.000   8.286 -1.8913  0.0729 -1.7452
  686MOL0     H92599   6.661   5.114   8.157  3.2047 -0.4683 -0.7209
  686MOL0     H92600   6.650   5.289   8.360  0.4550 -0.9407  0.7072
  686MOL0     H92601   6.597   5.150   8.448  1.5193 -0.7365 -0.1796
  686MOL0     H92602   6.419   5.113   8.289  1.6303 -0.2620  1.7530
  686MOL0     H92603   6.459   5.252   8.193 -0.1933 -2.7349 -2.2196
  686MOL0     H92604   6.359   5.251   8.483  0.2566 -0.0993  0.2549
  686MOL0     H92605   6.424   5.393   8.397 -0.3703  0.3726  1.9898
  686MOL0     H92606   6.049   5.382   8.215 -0.4152 -0.8203  0.1322
  686MOL0     H92607   7.034   5.211   8.323  0.6287 -1.1678  0.0752
  686MOL0     H92608   7.337   5.181   8.087  0.1320 -0.1262 -0.1752
  686MOL0     H92609   7.252   5.310   8.172 -2.9502 -0.3178 -0.7510
  686MOL0     H92610   7.307   5.174   8.263  1.6821 -0.5642 -1.7250
  687MOL0     O92611   7.026   3.120   2.727  0.5931 -0.0708  0.2581
  687MOL0     C92612   6.982   3.024   2.789  0.4752 -0.6816  0.3279
  687MOL0     O92613   7.045   2.968   2.904 -0.4300 -0.6070  0.6126
  687MOL0     C92614   7.175   2.999   2.940 -0.4347  1.7372 -0.1087
  687MOL0     C92615   7.221   2.920   3.041  0.9993 -0.5665 -0.9491
  687MOL0     C92616   7.351   2.936   3.099 -0.3986  0.5830  1.2140
  687MOL0     C92617   7.439   3.029   3.057 -0.1583  0.2205 -0.0822
  687MOL0     O92618   7.555   3.054   3.121 -0.3166  0.1863  0.6523
  687MOL0     C92619   7.546   3.117   3.249  0.3207 -1.2489 -0.0465
  687MOL0     C92620   7.671   3.184   3.300 -0.5544 -0.2614  0.6289
  687MOL0     C92621   7.766   3.252   3.190  0.4105  1.7081 -0.9667
  687MOL0     C92622   7.887   3.323   3.257  0.6087 -0.5780  0.2360
  687MOL0     C92623   7.939   3.414   3.139 -0.5334  0.1150  0.3819
  687MOL0     C92624   8.065   3.498   3.168  0.3285  0.4368 -0.6383
  687MOL0     C92625   8.185   3.403   3.200  0.4780  0.7423 -0.6973
  687MOL0     C92626   8.320   3.471   3.211  0.5903 -0.6162 -0.3677
  687MOL0     N92627   8.341   3.541   3.342  0.3139  1.4402  0.3349
  687MOL0     C92628   8.400   3.490   3.455  0.1223 -0.3683  0.1128
  687MOL0     C92629   8.417   3.592   3.542  0.4428 -0.8018 -0.5443
  687MOL0     C92630   8.472   3.582   3.676  0.1413 -0.6181 -0.2498
  687MOL0     C92631   8.405   3.681   3.775 -0.4332 -1.0968 -0.6589
  687MOL0     C92632   8.468   3.827   3.758 -0.5944  0.9525 -0.2470
  687MOL0     C92633   8.374   3.930   3.833 -0.1699 -0.2512  0.2867
  687MOL0     O92634   8.435   4.057   3.815  0.8394  0.6223  0.4578
  687MOL0     C92635   8.406   4.158   3.900  0.4491  0.1370  0.1417
  687MOL0     C92636   8.494   4.259   3.907  0.3802  0.3872  0.6626
  687MOL0     C92637   8.466   4.368   3.988 -0.3570  0.1773 -0.1853
  687MOL0     C92638   8.353   4.370   4.070 -0.1381 -1.1171 -0.4912
  687MOL0     C92639   8.320   4.479   4.164  0.4694 -0.2086  1.4293
  687MOL0     O92640   8.410   4.580   4.163 -0.2991 -0.0004  0.5636
  687MOL0     C92641   8.401   4.681   4.256 -0.6533  0.1492  0.4510
  687MOL0     C92642   8.454   4.659   4.385 -0.3498  0.2543 -0.0203
  687MOL0     C92643   8.444   4.755   4.481 -0.5514 -0.9391  0.2467
  687MOL0     C92644   8.389   4.882   4.455 -0.1998  1.1682  0.6008
  687MOL0     O92645   8.386   4.974   4.548 -0.1235 -0.8235 -0.6201
  687MOL0     C92646   8.278   4.970   4.642  0.2868 -0.3366  0.1154
  687MOL0     C92647   8.159   5.043   4.577 -0.8916  0.0325 -0.0987
  687MOL0     C92648   8.060   5.092   4.690 -0.8771 -1.0268 -0.9192
  687MOL0     C92649   7.924   5.136   4.640 -0.0963 -0.9019 -0.1865
  687MOL0     C92650   7.828   5.025   4.599  0.3385 -0.7214  0.1077
  687MOL0     C92651   7.685   5.072   4.571 -0.3049 -0.2230 -0.4449
  687MOL0     C92652   7.594   4.967   4.511  0.3981  0.2429  0.4662
  687MOL0     C92653   7.442   5.008   4.528 -0.7180 -0.0510 -0.3668
  687MOL0    Cl92654   7.400   5.170   4.458 -0.0531  0.2384  0.0881
  687MOL0     C92655   8.345   4.906   4.324 -0.6732  0.0869 -0.0709
  687MOL0     C92656   8.346   4.808   4.223  0.4009  0.0632  0.2577
  687MOL0     O92657   8.226   4.467   4.235 -0.6527 -0.6928  0.2210
  687MOL0     C92658   8.255   4.268   4.054 -0.2868 -0.5525 -0.5910
  687MOL0     C92659   8.283   4.162   3.970  0.1233 -0.0248 -0.0122
  687MOL0     N92660   8.363   3.707   3.477 -0.2513  0.1272 -0.6654
  687MOL0     N92661   8.316   3.676   3.360 -0.2282  0.2803 -0.5632
  687MOL0     C92662   7.399   3.121   2.952  1.0232 -1.0656 -0.3991
  687MOL0     C92663   7.268   3.110   2.902  1.3315 -0.0809 -0.1814
  687MOL0     C92664   6.858   2.951   2.739 -0.5821  1.0609 -0.1022
  687MOL0     C92665   6.823   2.827   2.797 -0.9965  0.0925  0.2725
  687MOL0     C92666   6.734   2.742   2.734  0.2039  0.0972  0.0686
  687MOL0     C92667   6.655   2.789   2.625 -0.3028  0.2170  0.2987
  687MOL0     O92668   6.551   2.705   2.605  0.7205  0.4125  0.2779
  687MOL0     C92669   6.462   2.729   2.490 -0.0480 -0.5824 -0.6889
  687MOL0     C92670   6.338   2.639   2.502 -0.2095 -0.5232  0.4979
  687MOL0     C92671   6.254   2.668   2.380 -0.1679  0.0790 -0.2784
  687MOL0     C92672   6.130   2.573   2.369 -0.2467 -0.3269  0.6198
  687MOL0     C92673   6.033   2.633   2.461  0.0167  0.3438  0.6666
  687MOL0     C92674   5.943   2.702   2.512 -0.8069  0.5217  0.0585
  687MOL0     C92675   6.678   2.925   2.580 -0.0416 -0.0579  0.0456
  687MOL0     C92676   6.785   2.997   2.629  0.3788  1.0877 -0.4130
  687MOL0     C92677   6.806   3.128   2.558 -0.4991 -0.6429  0.5528
  687MOL0     H92678   7.156   2.837   3.070 -1.8888  1.0786 -2.2684
  687MOL0     H92679   7.392   2.868   3.173 -1.7504 -0.1784  1.3055
  687MOL0     H92680   7.471   3.196   3.240  1.1195 -0.4425  0.2007
  687MOL0     H92681   7.506   3.045   3.321  0.1649  0.2203  1.3859
  687MOL0     H92682   7.724   3.103   3.352 -1.6409 -1.6113 -0.2864
  687MOL0     H92683   7.641   3.250   3.382  0.2348  0.6864  0.1744
  687MOL0     H92684   7.700   3.317   3.132 -1.8082 -0.0696 -0.5483
  687MOL0     H92685   7.797   3.163   3.135 -0.9514 -0.1089  1.0339
  687MOL0     H92686   7.849   3.385   3.339  1.3879 -0.6171  0.6344
  687MOL0     H92687   7.953   3.248   3.299 -1.1747 -2.3776  0.0037
  687MOL0     H92688   7.979   3.356   3.055  3.4624 -0.6876  2.5515
  687MOL0     H92689   7.867   3.483   3.096  3.3708  2.9391 -2.3007
  687MOL0     H92690   8.075   3.552   3.073 -0.7336  1.8622  0.0251
  687MOL0     H92691   8.050   3.563   3.255  0.5696 -2.7530  2.0100
  687MOL0     H92692   8.186   3.321   3.128  1.8513 -0.2083  0.3671
  687MOL0     H92693   8.171   3.355   3.297  0.0035 -1.4398 -1.7771
  687MOL0     H92694   8.397   3.393   3.207 -0.1828 -1.3350 -2.2194
  687MOL0     H92695   8.324   3.532   3.120  3.7170 -0.9328 -0.5677
  687MOL0     H92696   8.428   3.392   3.493 -0.0844 -0.5179 -0.1208
  687MOL0     H92697   8.459   3.479   3.709 -3.5197 -0.4794 -0.8855
  687MOL0     H92698   8.576   3.614   3.664 -0.2203  0.5816 -0.3909
  687MOL0     H92699   8.296   3.679   3.759 -0.3520  0.1606 -1.4595
  687MOL0     H92700   8.426   3.647   3.877  1.3930  1.8889  0.0865
  687MOL0     H92701   8.476   3.850   3.651 -2.5007  0.5837 -0.4965
  687MOL0     H92702   8.561   3.822   3.815  0.0909 -1.7256 -1.4095
  687MOL0     H92703   8.370   3.893   3.935 -0.9217 -0.8306  0.0587
  687MOL0     H92704   8.275   3.919   3.787  0.9239  1.1905 -2.7153
  687MOL0     H92705   8.580   4.264   3.841 -0.0038 -2.1298 -0.1274
  687MOL0     H92706   8.544   4.442   3.977 -1.6517  1.2107 -4.2903
  687MOL0     H92707   8.497   4.564   4.412  2.9656  0.8391 -2.5394
  687MOL0     H92708   8.473   4.724   4.581  1.1926 -1.5508 -0.4214
  687MOL0     H92709   8.243   4.871   4.672 -0.0040  0.3793  2.3190
  687MOL0     H92710   8.313   5.014   4.735 -2.1971  3.0099 -0.3434
  687MOL0     H92711   8.186   5.127   4.512  2.6195 -0.0563  1.0243
  687MOL0     H92712   8.095   4.968   4.531 -1.1543 -0.0876  0.4587
  687MOL0     H92713   8.046   4.997   4.743  0.7078 -0.1373  1.2531
  687MOL0     H92714   8.100   5.173   4.752 -1.2444 -2.2804  1.0255
  687MOL0     H92715   7.932   5.202   4.553 -3.8282 -1.2988 -1.0402
  687MOL0     H92716   7.876   5.203   4.712 -0.5572 -0.7245 -0.6431
  687MOL0     H92717   7.824   4.947   4.675  2.1895 -2.5177 -1.5140
  687MOL0     H92718   7.866   4.977   4.508  0.9186 -0.1617  0.0412
  687MOL0     H92719   7.641   5.104   4.666 -0.6537 -0.9973 -0.3392
  687MOL0     H92720   7.695   5.160   4.508  0.7420  1.2504  1.6612
  687MOL0     H92721   7.603   4.869   4.558 -0.9962 -0.8217 -1.3649
  687MOL0     H92722   7.617   4.957   4.405 -2.2519 -2.4374  0.0104
  687MOL0     H92723   7.371   4.935   4.486 -0.8984  0.3712 -0.8069
  687MOL0     H92724   7.418   4.998   4.634  1.4977 -0.0207  0.1811
  687MOL0     H92725   8.301   5.001   4.298 -1.8166 -0.2194  0.6774
  687MOL0     H92726   8.290   4.819   4.131 -2.3823 -3.3216  1.3471
  687MOL0     H92727   8.152   4.267   4.085 -0.2642 -0.5018 -0.5139
  687MOL0     H92728   8.208   4.087   3.947  0.3586 -1.0032  2.1902
  687MOL0     H92729   7.467   3.203   2.929 -1.6499  2.3411  2.6052
  687MOL0     H92730   7.234   3.189   2.835 -1.5172 -1.0012  0.0243
  687MOL0     H92731   6.860   2.789   2.891  0.8091  0.3915 -0.2925
  687MOL0     H92732   6.710   2.643   2.771 -1.5684 -0.6975 -2.8627
  687MOL0     H92733   6.527   2.714   2.403  0.2708  0.0112 -0.5547
  687MOL0     H92734   6.414   2.827   2.492 -2.0685 -1.4996  2.3426
  687MOL0     H92735   6.298   2.684   2.593  1.5635 -0.9540  1.5525
  687MOL0     H92736   6.360   2.532   2.510 -0.1335 -0.4272  1.8085
  687MOL0     H92737   6.318   2.651   2.293  0.4795  1.3968 -0.0783
  687MOL0     H92738   6.225   2.773   2.375  0.7276  0.3726  0.3223
  687MOL0     H92739   6.085   2.575   2.269  0.1651  0.4599  0.4439
  687MOL0     H92740   6.163   2.472   2.396  1.0852 -0.4304 -1.2156
  687MOL0     H92741   5.856   2.755   2.544 -2.3423  0.9713 -4.2439
  687MOL0     H92742   6.617   2.954   2.496 -2.9053 -1.4674  1.5051
  687MOL0     H92743   6.850   3.212   2.612  0.1588 -0.8374  0.3345
  687MOL0     H92744   6.877   3.105   2.478  0.2559  0.1348  0.9809
  687MOL0     H92745   6.709   3.162   2.522  0.0775  1.9028  1.2332
  688MOL0     O92746   3.373  10.040   3.354 -0.5297  0.1471  1.5063
  688MOL0     C92747   3.330  10.128   3.275 -0.0122 -0.0111  0.2550
  688MOL0     O92748   3.409  10.214   3.202  0.2243  0.3225  0.0235
  688MOL0     C92749   3.542  10.211   3.194  0.5864 -0.0477 -0.4368
  688MOL0     C92750   3.612  10.222   3.082  0.4039 -0.3640  0.1297
  688MOL0     C92751   3.748  10.222   3.071  0.6187  0.2669  0.4849
  688MOL0     C92752   3.824  10.215   3.188  0.0637  0.1156  0.4651
  688MOL0     O92753   3.963  10.203   3.182 -0.0942 -0.5042 -0.1578
  688MOL0     C92754   4.030  10.130   3.291  0.8674  0.6182  0.2156
  688MOL0     C92755   4.148  10.089   3.212 -0.3098  0.4109 -0.2569
  688MOL0     C92756   4.242  10.210   3.195  0.6683  0.3176  0.5268
  688MOL0     C92757   4.372  10.173   3.118  0.6043 -0.2508  0.4033
  688MOL0     C92758   4.429  10.293   3.041  0.1289  0.6523  0.6780
  688MOL0     C92759   4.447  10.421   3.130  0.4225  1.2707 -0.9034
  688MOL0     C92760   4.377  10.551   3.083 -0.4381  0.6381  0.0424
  688MOL0     C92761   4.461  10.611   2.971 -0.1903  0.3576  0.2489
  688MOL0     N92762   4.604  10.622   2.997 -0.0466  0.1344  0.8684
  688MOL0     C92763   4.701  10.540   2.946 -0.4262  0.5430  0.7702
  688MOL0     C92764   4.820  10.594   2.983  0.7965  0.6589 -1.2217
  688MOL0     C92765   4.957  10.536   2.966 -0.4029  0.3937  0.0771
  688MOL0     C92766   5.007  10.571   2.828 -0.1109  0.0786  1.2661
  688MOL0     C92767   5.135  10.493   2.800 -0.0239  0.4837  0.2986
  688MOL0     C92768   5.254  10.534   2.887  0.4881  0.6653 -0.7199
  688MOL0     O92769   5.375  10.463   2.862 -0.9407  0.0971 -0.4481
  688MOL0     C92770   5.492  10.519   2.916  0.8308 -0.0746 -0.3656
  688MOL0     C92771   5.609  10.497   2.849 -0.7014 -0.6379  0.8775
  688MOL0     C92772   5.729  10.550   2.901  0.1394 -0.9089 -0.3764
  688MOL0     C92773   5.728  10.614   3.025  0.1823 -0.8373  0.1846
  688MOL0     C92774   5.854  10.668   3.087  0.2476 -0.8486 -0.2125
  688MOL0     O92775   5.858  10.679   3.226 -0.6530  0.9808  0.2615
  688MOL0     C92776   5.979  10.718   3.269 -0.3414  0.5061  0.8357
  688MOL0     C92777   6.078  10.621   3.285  0.2386  1.1427 -0.0399
  688MOL0     C92778   6.205  10.648   3.330 -0.7016  0.1422  0.6381
  688MOL0     C92779   6.249  10.780   3.348 -0.0571  0.1571 -0.1774
  688MOL0     O92780   6.381  10.812   3.359 -0.0640  0.3400  0.9616
  688MOL0     C92781   6.445  10.800   3.228 -1.1372  0.0279  0.4024
  688MOL0     C92782   6.440  10.916   3.127 -0.1162  0.1059  0.5163
  688MOL0     C92783   6.496  11.043   3.178 -0.4415 -0.2289  0.0560
  688MOL0     C92784   6.420  11.111   3.295 -0.2643  0.6876  1.0239
  688MOL0     C92785   6.479  11.246   3.319 -0.1146  0.7578  0.2307
  688MOL0     C92786   6.616  11.251   3.400  0.7259 -0.1798 -0.0945
  688MOL0     C92787   6.614  11.198   3.539  0.1451  0.0445 -0.4580
  688MOL0     C92788   6.521  11.276   3.632 -0.8510  0.6882  0.8468
  688MOL0    Cl92789   6.560  11.456   3.650 -0.4049 -0.1708 -0.2783
  688MOL0     C92790   6.144  10.883   3.338  0.1938  0.7679  0.3609
  688MOL0     C92791   6.013  10.855   3.291  0.2585  0.2697 -0.9342
  688MOL0     O92792   5.948  10.700   3.010 -0.9320  0.4573 -0.4426
  688MOL0     C92793   5.610  10.630   3.098  0.9035 -0.3593 -0.7188
  688MOL0     C92794   5.494  10.587   3.041 -0.6558  0.7088 -0.0435
  688MOL0     N92795   4.791  10.705   3.058  0.2104  0.3296  0.3180
  688MOL0     N92796   4.667  10.724   3.062  0.3819 -0.5225  0.0697
  688MOL0     C92797   3.758  10.210   3.317 -0.4106 -0.3699 -0.0199
  688MOL0     C92798   3.623  10.212   3.312  0.4888 -0.0088  0.0017
  688MOL0     C92799   3.182  10.133   3.267 -1.1901 -0.2722 -0.3442
  688MOL0     C92800   3.140  10.217   3.157  0.0897 -0.1129 -0.8042
  688MOL0     C92801   3.003  10.224   3.128 -0.6775  0.9835 -0.5086
  688MOL0     C92802   2.906  10.166   3.200 -0.2994 -0.1514  0.1998
  688MOL0     O92803   2.775  10.156   3.147  0.5629  0.3744 -0.6141
  688MOL0     C92804   2.734  10.205   3.030 -0.2076  1.1830  0.0071
  688MOL0     C92805   2.580  10.191   3.030  0.0802  0.0300  0.2279
  688MOL0     C92806   2.520  10.052   2.986  0.6651  0.2150  0.0482
  688MOL0     C92807   2.370  10.052   3.026 -0.1083  0.5044 -0.3474
  688MOL0     C92808   2.300   9.944   2.948 -0.2686 -0.9460  0.4217
  688MOL0     C92809   2.224   9.876   2.883  0.5186 -0.5090 -0.0403
  688MOL0     C92810   2.949  10.087   3.311 -0.2963 -0.1768  0.1116
  688MOL0     C92811   3.083  10.063   3.339 -0.1362 -0.6961  1.4622
  688MOL0     C92812   3.108   9.982   3.461 -0.2875  0.4154 -0.5474
  688MOL0     H92813   3.557  10.234   2.988  2.9097  0.2550 -1.3626
  688MOL0     H92814   3.800  10.216   2.976  1.6753 -2.1077  1.1218
  688MOL0     H92815   4.048  10.198   3.375 -0.7060  2.3189 -0.7445
  688MOL0     H92816   3.984  10.035   3.319  1.0406  0.3965 -0.2378
  688MOL0     H92817   4.107  10.069   3.113 -1.1219  3.6601 -0.6888
  688MOL0     H92818   4.201  10.001   3.251  0.4654 -1.0127 -4.0858
  688MOL0     H92819   4.266  10.275   3.280  1.4447  1.8902 -0.8450
  688MOL0     H92820   4.185  10.268   3.123 -1.9998 -2.4069  0.2261
  688MOL0     H92821   4.450  10.134   3.183  1.2152 -1.2066 -0.8648
  688MOL0     H92822   4.348  10.099   3.041 -1.2114  0.6436  0.0540
  688MOL0     H92823   4.522  10.260   2.994 -0.8916 -0.2879 -0.7428
  688MOL0     H92824   4.361  10.319   2.960  0.3328  0.6503  0.5050
  688MOL0     H92825   4.411  10.409   3.232  2.1927 -0.2832 -0.3832
  688MOL0     H92826   4.555  10.438   3.141  0.3544  1.8526 -1.1319
  688MOL0     H92827   4.377  10.633   3.156 -3.1703  0.8365 -0.0638
  688MOL0     H92828   4.277  10.526   3.048  0.5753 -1.3306 -1.6180
  688MOL0     H92829   4.436  10.553   2.882  0.6294  0.4927 -0.0734
  688MOL0     H92830   4.415  10.707   2.947  2.1224  0.7213 -3.4038
  688MOL0     H92831   4.675  10.450   2.892 -3.4213  1.0709  1.1533
  688MOL0     H92832   5.014  10.572   3.052  3.3104 -0.5841 -1.7455
  688MOL0     H92833   4.960  10.427   2.974  0.4668  0.4252  0.3724
  688MOL0     H92834   4.939  10.545   2.746 -1.1552  0.4912  1.9692
  688MOL0     H92835   5.035  10.677   2.823  4.3957 -1.0059 -0.6374
  688MOL0     H92836   5.157  10.517   2.695 -0.9355  1.1068  0.2390
  688MOL0     H92837   5.121  10.385   2.810 -0.9050  0.2380 -2.6642
  688MOL0     H92838   5.223  10.515   2.991 -1.4462  4.0718 -0.5535
  688MOL0     H92839   5.273  10.641   2.876  1.5676  0.5850  0.1627
  688MOL0     H92840   5.618  10.448   2.753  1.3695  0.8535  0.2213
  688MOL0     H92841   5.828  10.537   2.859  1.1586 -0.3760  1.7086
  688MOL0     H92842   6.050  10.518   3.265  1.7716  1.0138 -1.8541
  688MOL0     H92843   6.276  10.568   3.347  0.9305  0.7200 -2.5821
  688MOL0     H92844   6.551  10.778   3.245 -1.3413 -1.4414 -0.1028
  688MOL0     H92845   6.410  10.715   3.169 -0.5458  0.5923 -0.7938
  688MOL0     H92846   6.502  10.890   3.040 -1.2208 -1.5843  0.1986
  688MOL0     H92847   6.347  10.935   3.073  0.2042 -0.2107 -0.1675
  688MOL0     H92848   6.602  11.022   3.196 -0.4229 -0.6705 -0.5329
  688MOL0     H92849   6.488  11.114   3.095 -0.8970 -0.8164 -0.4114
  688MOL0     H92850   6.427  11.053   3.388  1.9847 -0.4510  0.2157
  688MOL0     H92851   6.314  11.122   3.271 -0.2871  0.2413  0.9192
  688MOL0     H92852   6.404  11.304   3.372 -2.1698 -1.0411 -0.5837
  688MOL0     H92853   6.492  11.304   3.227 -1.0636 -2.5382 -2.1729
  688MOL0     H92854   6.692  11.198   3.342  1.4917  0.4850  0.2748
  688MOL0     H92855   6.650  11.355   3.402  2.8428 -0.8260  0.4957
  688MOL0     H92856   6.713  11.204   3.586 -0.0031 -3.2916  0.5373
  688MOL0     H92857   6.592  11.091   3.539 -0.9683  0.1796 -3.4815
  688MOL0     H92858   6.424  11.261   3.584  0.7442 -2.4491 -1.8866
  688MOL0     H92859   6.525  11.230   3.732 -0.8383  0.0323  0.5526
  688MOL0     H92860   6.164  10.990   3.345  1.1838  0.7478 -1.4065
  688MOL0     H92861   5.939  10.931   3.271 -0.8332 -0.3644  0.5442
  688MOL0     H92862   5.605  10.684   3.192 -1.8884 -2.0483  0.2332
  688MOL0     H92863   5.405  10.599   3.101 -1.5567 -1.5545 -0.8151
  688MOL0     H92864   3.802  10.209   3.416  2.8268 -0.5533 -1.3357
  688MOL0     H92865   3.576  10.224   3.409 -4.5353 -1.8709 -1.8820
  688MOL0     H92866   3.212  10.269   3.094 -0.7866  2.1687 -0.0282
  688MOL0     H92867   2.975  10.276   3.037 -1.9359 -0.4975 -1.0126
  688MOL0     H92868   2.786  10.146   2.954 -6.6153 -2.9749 -1.9366
  688MOL0     H92869   2.752  10.313   3.033 -3.0692  1.8557  4.7604
  688MOL0     H92870   2.544  10.272   2.965  1.5476 -0.6643 -1.5451
  688MOL0     H92871   2.557  10.200   3.136  3.5284  1.9748  0.9571
  688MOL0     H92872   2.572   9.969   3.034 -1.9791 -0.3366  2.2060
  688MOL0     H92873   2.532  10.058   2.877  1.0142  1.6991  0.1418
  688MOL0     H92874   2.360  10.031   3.133 -2.8113  0.9096 -0.4431
  688MOL0     H92875   2.325  10.148   3.000  1.8507  2.0760  1.6136
  688MOL0     H92876   2.154   9.826   2.820  0.9205 -0.1969 -0.7543
  688MOL0     H92877   2.876  10.036   3.374 -1.1422  0.2000 -0.5336
  688MOL0     H92878   3.030   9.959   3.534  2.4448 -2.3656  1.8171
  688MOL0     H92879   3.141   9.882   3.430 -0.9933  0.2275 -0.7094
  688MOL0     H92880   3.190  10.038   3.507  0.2318 -0.3529 -0.5282
  689MOL0     O92881   4.746   8.647   5.643 -0.1442 -0.4489  0.1653
  689MOL0     C92882   4.681   8.675   5.746  0.1471 -0.1488 -0.5450
  689MOL0     O92883   4.733   8.704   5.872 -0.2708  0.3147  0.8035
  689MOL0     C92884   4.871   8.702   5.893 -0.0841  0.2115  0.6970
  689MOL0     C92885   4.946   8.814   5.859  0.2418 -0.7934 -0.7997
  689MOL0     C92886   5.086   8.808   5.882 -0.4126 -0.0025  0.2396
  689MOL0     C92887   5.146   8.702   5.943 -0.9788  0.0526 -0.0184
  689MOL0     O92888   5.283   8.692   5.971 -0.1473  0.2058  1.0661
  689MOL0     C92889   5.364   8.759   5.870  0.3510  0.3895  0.1485
  689MOL0     C92890   5.507   8.739   5.907  0.2550 -0.2945 -0.3493
  689MOL0     C92891   5.598   8.835   5.832 -0.6961  0.4907 -0.0680
  689MOL0     C92892   5.748   8.828   5.876  0.2833 -0.2537 -0.8294
  689MOL0     C92893   5.832   8.921   5.801  0.2081  0.3877 -0.2308
  689MOL0     C92894   5.974   8.892   5.858 -0.7985  0.5240 -0.1734
  689MOL0     C92895   6.072   8.989   5.792  0.0874  0.9341  0.4433
  689MOL0     C92896   6.217   8.930   5.802 -0.6078 -0.2380 -0.7110
  689MOL0     N92897   6.304   9.001   5.706  0.6556 -0.4315 -0.3702
  689MOL0     C92898   6.337   9.128   5.697 -0.9248 -0.1982  0.4487
  689MOL0     C92899   6.408   9.145   5.582  0.9240  0.1001 -0.0823
  689MOL0     C92900   6.470   9.272   5.528  0.5985 -0.4845 -0.0615
  689MOL0     C92901   6.620   9.253   5.484  0.2606  0.4106  0.6020
  689MOL0     C92902   6.703   9.208   5.605 -0.0024 -0.3605  1.1570
  689MOL0     C92903   6.850   9.165   5.573  0.0237 -0.1937 -0.1968
  689MOL0     O92904   6.849   9.064   5.469 -0.2423 -0.1996 -0.1518
  689MOL0     C92905   6.955   9.068   5.390 -0.8519 -0.5921  0.7020
  689MOL0     C92906   6.944   9.017   5.262 -0.0104  0.7646 -0.0623
  689MOL0     C92907   7.047   9.027   5.169 -0.0543  0.3259  0.1204
  689MOL0     C92908   7.177   9.061   5.212  0.5665  1.0226  0.2202
  689MOL0     C92909   7.293   9.044   5.120 -0.3345 -0.2282 -0.0724
  689MOL0     O92910   7.419   9.085   5.173 -0.4174  0.1320  0.6210
  689MOL0     C92911   7.535   9.024   5.134  0.0530  0.0882  0.7262
  689MOL0     C92912   7.659   9.085   5.172  0.2805 -0.3889 -0.2447
  689MOL0     C92913   7.779   9.022   5.146 -0.1785  0.0868 -0.4465
  689MOL0     C92914   7.783   8.910   5.062 -0.5283  0.2408  0.5917
  689MOL0     O92915   7.912   8.863   5.039  0.0553 -0.1259  0.2460
  689MOL0     C92916   7.943   8.793   4.924  0.1899  0.1439  0.0337
  689MOL0     C92917   8.092   8.757   4.937 -1.3373 -1.0700 -0.3760
  689MOL0     C92918   8.171   8.874   4.966 -0.0194 -1.2261  0.3125
  689MOL0     C92919   8.316   8.860   4.922  0.1151 -0.0584  0.2321
  689MOL0     C92920   8.386   9.001   4.910 -0.1538  0.5132  0.4630
  689MOL0     C92921   8.532   8.985   4.876 -0.2556  0.1215  0.3329
  689MOL0     C92922   8.599   9.111   4.816 -0.5828 -0.1961 -0.3039
  689MOL0     C92923   8.656   9.198   4.934 -0.4038  0.2345 -0.2689
  689MOL0    Cl92924   8.720   9.345   4.857 -0.2648  0.3688  0.1018
  689MOL0     C92925   7.666   8.866   5.009  0.3926  0.0059  0.1821
  689MOL0     C92926   7.545   8.911   5.057 -0.2826  0.5787 -1.5707
  689MOL0     O92927   7.281   9.017   5.001  0.0268 -0.1990  0.2427
  689MOL0     C92928   7.186   9.103   5.347  0.5883  0.3851 -0.6539
  689MOL0     C92929   7.084   9.104   5.440 -0.1320  0.0167  0.4562
  689MOL0     N92930   6.421   9.022   5.523 -0.0489 -0.2735  0.4250
  689MOL0     N92931   6.350   8.936   5.601 -0.1173 -0.6298  0.1530
  689MOL0     C92932   5.065   8.590   5.984 -0.0133  0.2721 -0.0041
  689MOL0     C92933   4.929   8.588   5.954 -0.2110 -0.0801  0.8017
  689MOL0     C92934   4.544   8.702   5.716  0.4481 -0.2659  0.1234
  689MOL0     C92935   4.483   8.796   5.793  0.5368  0.8554  0.3846
  689MOL0     C92936   4.352   8.842   5.777  0.1164 -0.4802 -0.3310
  689MOL0     C92937   4.265   8.795   5.681 -0.4177  0.5587  0.0219
  689MOL0     O92938   4.141   8.847   5.682  0.5874 -0.3541  0.5942
  689MOL0     C92939   4.049   8.829   5.570 -0.5853 -0.2589 -0.0185
  689MOL0     C92940   4.074   8.924   5.449 -0.0533 -0.7832  0.3472
  689MOL0     C92941   4.091   9.067   5.500 -0.3127  1.0280  0.1713
  689MOL0     C92942   4.079   9.172   5.391 -0.9324  1.3894  0.2492
  689MOL0     C92943   3.941   9.210   5.360  0.7674 -0.6561 -0.6796
  689MOL0     C92944   3.822   9.227   5.337 -0.5144 -1.0759 -0.0440
  689MOL0     C92945   4.320   8.692   5.596  0.8685 -0.2245 -0.8109
  689MOL0     C92946   4.459   8.652   5.610  0.2841  0.0045 -0.2325
  689MOL0     C92947   4.503   8.546   5.517  0.6822  0.9511 -0.3815
  689MOL0     H92948   4.905   8.903   5.813 -0.4056 -2.3769 -3.4577
  689MOL0     H92949   5.134   8.902   5.853  0.8159 -1.1154 -1.5635
  689MOL0     H92950   5.349   8.718   5.770  0.2630  0.5332  0.1025
  689MOL0     H92951   5.336   8.865   5.863  1.6083  0.7064 -0.3487
  689MOL0     H92952   5.547   8.642   5.879 -1.0223 -2.1217  3.4405
  689MOL0     H92953   5.509   8.751   6.016 -2.0931  0.2051 -0.3193
  689MOL0     H92954   5.562   8.938   5.846 -0.0438  0.7624 -0.3263
  689MOL0     H92955   5.595   8.804   5.727 -1.4391 -2.3043  0.7096
  689MOL0     H92956   5.766   8.849   5.982 -2.6039  1.6930 -0.5981
  689MOL0     H92957   5.772   8.723   5.857  0.2376  0.1382 -3.4245
  689MOL0     H92958   5.835   8.906   5.692  3.4377 -0.6115 -0.1088
  689MOL0     H92959   5.806   9.027   5.809 -0.8404  0.2388 -1.2734
  689MOL0     H92960   5.981   8.894   5.967  1.3207  2.8233 -0.2535
  689MOL0     H92961   5.992   8.789   5.828 -1.8164 -0.5136  2.5216
  689MOL0     H92962   6.075   9.089   5.836  0.4575  1.7474 -1.3667
  689MOL0     H92963   6.050   8.989   5.685  0.3216  0.1726  0.3842
  689MOL0     H92964   6.259   8.949   5.902 -0.3061  1.5250 -1.1403
  689MOL0     H92965   6.223   8.823   5.779  1.5020 -0.0334 -1.3083
  689MOL0     H92966   6.314   9.214   5.759 -0.3115  0.2873  0.0285
  689MOL0     H92967   6.406   9.323   5.455 -5.7750 -0.8383  4.4393
  689MOL0     H92968   6.462   9.336   5.616 -2.6510 -0.0673 -0.5177
  689MOL0     H92969   6.638   9.179   5.406 -0.5081 -2.2868  2.7820
  689MOL0     H92970   6.647   9.351   5.445  0.8617 -0.5222 -1.4587
  689MOL0     H92971   6.652   9.122   5.650 -2.3010 -0.2243 -0.9473
  689MOL0     H92972   6.692   9.289   5.678 -0.7477  1.1010 -0.5072
  689MOL0     H92973   6.908   9.138   5.662 -2.7759 -1.8899  1.2429
  689MOL0     H92974   6.895   9.255   5.529 -0.3392  0.5288  0.8493
  689MOL0     H92975   6.846   8.986   5.225  1.0474 -1.0242 -1.5708
  689MOL0     H92976   7.049   8.979   5.072 -0.0809  1.0790 -0.2584
  689MOL0     H92977   7.654   9.176   5.230  1.3720  0.9388 -2.1322
  689MOL0     H92978   7.864   9.061   5.202 -0.2591  1.6478 -1.3515
  689MOL0     H92979   7.878   8.705   4.933 -0.3404  0.5993  0.7600
  689MOL0     H92980   7.915   8.852   4.837 -3.6651 -0.0315  0.9516
  689MOL0     H92981   8.113   8.695   5.025 -0.2652 -0.1650  0.0344
  689MOL0     H92982   8.122   8.713   4.841 -0.9354  0.1774 -0.8449
  689MOL0     H92983   8.120   8.959   4.920 -0.4697 -1.8045 -0.2856
  689MOL0     H92984   8.165   8.902   5.071 -0.7052 -1.0666  0.2356
  689MOL0     H92985   8.318   8.817   4.822  0.7803  0.0158  0.2032
  689MOL0     H92986   8.367   8.797   4.996  1.0311 -0.3120 -0.5944
  689MOL0     H92987   8.384   9.056   5.004  4.3418  1.3952  0.2774
  689MOL0     H92988   8.331   9.058   4.834  2.6975  0.5929 -1.7009
  689MOL0     H92989   8.577   8.955   4.971 -1.7570 -1.5348  0.5680
  689MOL0     H92990   8.535   8.908   4.799  0.8235  0.5913 -0.1193
  689MOL0     H92991   8.533   9.168   4.750 -0.9070  1.5095  1.4143
  689MOL0     H92992   8.679   9.071   4.753  0.7116 -1.8008  2.2040
  689MOL0     H92993   8.572   9.228   4.998  0.4880  1.7681  0.2327
  689MOL0     H92994   8.730   9.145   4.994 -3.6872 -2.7363  1.5923
  689MOL0     H92995   7.646   8.779   4.947  1.5400 -0.8285  0.9430
  689MOL0     H92996   7.457   8.864   5.013 -0.1849 -3.3545  1.8228
  689MOL0     H92997   7.283   9.135   5.383 -0.6571  0.4304  3.0286
  689MOL0     H92998   7.103   9.135   5.542  3.2331 -3.0862  1.0018
  689MOL0     H92999   5.102   8.500   6.033 -1.8455 -0.3577  0.3022
  689MOL0     H93000   4.868   8.500   5.969 -1.0737  0.3410 -0.1326
  689MOL0     H93001   4.545   8.822   5.879  1.6345 -0.5566  0.0600
  689MOL0     H93002   4.318   8.919   5.846  0.7876 -0.0795 -0.4457
  689MOL0     H93003   3.952   8.864   5.608  0.0523  1.5154  0.0505
  689MOL0     H93004   4.041   8.721   5.555  0.4425 -0.6155  1.7415
  689MOL0     H93005   3.983   8.912   5.389 -0.4620 -0.7562  0.9454
  689MOL0     H93006   4.165   8.889   5.399 -0.8039 -0.6445 -1.1810
  689MOL0     H93007   4.192   9.081   5.540 -0.0001 -0.0749 -0.1995
  689MOL0     H93008   4.018   9.085   5.580  1.9435  1.8753  2.1495
  689MOL0     H93009   4.127   9.264   5.424 -0.1445  0.8322  0.6865
  689MOL0     H93010   4.121   9.135   5.297 -1.2277 -2.3136  1.4200
  689MOL0     H93011   3.716   9.237   5.328 -1.0122 -3.1313  2.3640
  689MOL0     H93012   4.264   8.673   5.506  2.6981 -0.7488 -1.8865
  689MOL0     H93013   4.523   8.452   5.569 -0.3498  0.1259 -1.4146
  689MOL0     H93014   4.423   8.519   5.448  0.8729 -0.7538  0.0224
  689MOL0     H93015   4.593   8.578   5.463  1.8333  1.7075  1.8672
  690MOL0     O93016   7.335   5.955   4.457  0.1182 -0.1217 -0.5041
  690MOL0     C93017   7.340   6.044   4.367 -1.0448 -1.0455  1.0163
  690MOL0     O93018   7.453   6.122   4.343  1.0516  0.1140 -0.2231
  690MOL0     C93019   7.536   6.131   4.446 -1.5170  0.4406  0.1905
  690MOL0     C93020   7.579   6.257   4.488 -1.2795 -0.4396  0.3067
  690MOL0     C93021   7.699   6.277   4.557  0.1643 -0.4769 -0.4392
  690MOL0     C93022   7.776   6.161   4.597  0.7719 -0.3666 -0.1358
  690MOL0     O93023   7.883   6.181   4.672  0.5522 -0.0916  0.4023
  690MOL0     C93024   8.003   6.127   4.614  0.2597 -0.1590  0.5163
  690MOL0     C93025   8.126   6.184   4.676 -1.3592 -0.3002 -0.3587
  690MOL0     C93026   8.136   6.159   4.822 -0.0884 -0.8569 -0.0405
  690MOL0     C93027   8.282   6.177   4.866  0.3352  0.0935  0.2321
  690MOL0     C93028   8.320   6.107   4.997 -1.1183 -0.7573 -0.6178
  690MOL0     C93029   8.461   6.154   5.032 -0.1276  0.9993 -0.3877
  690MOL0     C93030   8.532   6.055   5.138  0.4968 -0.3664  0.6956
  690MOL0     C93031   8.685   6.063   5.141  0.0953 -0.6950 -0.1157
  690MOL0     N93032   8.731   5.940   5.215 -0.1120  0.9600  0.5653
  690MOL0     C93033   8.691   5.917   5.348  0.5536  0.1295  0.3714
  690MOL0     C93034   8.731   5.793   5.364 -0.3704  0.4483  0.1315
  690MOL0     C93035   8.733   5.712   5.489  0.0106 -0.6836  0.0868
  690MOL0     C93036   8.604   5.645   5.509 -0.1775  0.7705  0.1896
  690MOL0     C93037   8.580   5.508   5.436  0.1859 -0.3314 -0.2834
  690MOL0     C93038   8.451   5.449   5.480  0.1319 -0.8561 -0.6744
  690MOL0     O93039   8.445   5.312   5.452  0.7202  0.0551  0.3542
  690MOL0     C93040   8.525   5.228   5.521 -0.8130  0.6944 -0.4197
  690MOL0     C93041   8.555   5.110   5.455  0.2673 -0.6866  0.2019
  690MOL0     C93042   8.620   4.999   5.511 -0.2694 -0.5735 -0.0005
  690MOL0     C93043   8.664   5.004   5.643  0.2878  0.0592 -0.3357
  690MOL0     C93044   8.737   4.895   5.707 -0.2556 -0.5768 -0.4672
  690MOL0     O93045   8.793   4.920   5.836  0.0845 -0.3292  0.0010
  690MOL0     C93046   8.891   4.830   5.879  0.1217  0.6713 -0.1925
  690MOL0     C93047   9.021   4.842   5.845  1.0089  0.0335  0.0296
  690MOL0     C93048   9.111   4.740   5.874 -0.5401 -0.3295  0.3579
  690MOL0     C93049   9.073   4.628   5.952  0.3291  0.1016 -0.1532
  690MOL0     O93050   9.173   4.558   6.013  0.1779  0.1360 -0.2396
  690MOL0     C93051   9.150   4.414   6.037 -0.0645 -0.5371  0.3922
  690MOL0     C93052   9.239   4.322   5.941  0.9755  0.7968 -0.3864
  690MOL0     C93053   9.278   4.394   5.811  0.0632  0.4583 -0.1483
  690MOL0     C93054   9.357   4.298   5.718 -0.2802 -1.0176 -0.0279
  690MOL0     C93055   9.378   4.343   5.568  0.1023  0.0468  0.1282
  690MOL0     C93056   9.462   4.237   5.497 -1.0306  0.2757 -0.2560
  690MOL0     C93057   9.609   4.229   5.537 -0.2890 -0.8652  0.4206
  690MOL0     C93058   9.687   4.345   5.463 -0.3278 -0.1154 -0.9527
  690MOL0    Cl93059   9.855   4.309   5.469  0.5907 -0.0681  0.0244
  690MOL0     C93060   8.943   4.629   6.005 -0.4454 -1.1923  0.0448
  690MOL0     C93061   8.847   4.722   5.956 -0.3492  1.3208 -0.2779
  690MOL0     O93062   8.730   4.786   5.659  0.1235  0.4771 -0.5048
  690MOL0     C93063   8.647   5.128   5.709  0.3567  0.0030  0.3827
  690MOL0     C93064   8.572   5.237   5.656  0.5601  0.2226 -0.1900
  690MOL0     N93065   8.807   5.752   5.260  0.3048 -0.3896  0.3390
  690MOL0     N93066   8.805   5.839   5.164  0.2883  0.2508  0.3775
  690MOL0     C93067   7.725   6.034   4.567  0.0805 -0.4882  0.5926
  690MOL0     C93068   7.606   6.018   4.498 -0.1084  0.3701  0.0049
  690MOL0     C93069   7.229   6.043   4.272  0.4148  0.1151 -0.4684
  690MOL0     C93070   7.154   5.924   4.261  1.2355 -0.3696  0.1838
  690MOL0     C93071   7.050   5.920   4.172 -0.9135  0.3593 -1.2654
  690MOL0     C93072   7.021   6.030   4.087  0.1421 -0.0024  0.4255
  690MOL0     O93073   6.912   6.028   4.004 -0.0110 -0.0171  0.0918
  690MOL0     C93074   6.853   5.895   3.983 -0.2238 -1.1451  0.0548
  690MOL0     C93075   6.750   5.916   3.876  0.6805  0.7112 -0.0455
  690MOL0     C93076   6.629   5.992   3.937 -0.0182 -0.2003  0.2635
  690MOL0     C93077   6.499   5.960   3.875 -0.7307 -0.2817  0.3360
  690MOL0     C93078   6.382   6.044   3.914 -0.1764  0.2012  0.5062
  690MOL0     C93079   6.278   6.098   3.944 -0.6217  0.7733  0.2795
  690MOL0     C93080   7.094   6.144   4.098  0.7942  0.5544 -0.1865
  690MOL0     C93081   7.202   6.153   4.185 -0.8735 -0.1699  0.6817
  690MOL0     C93082   7.272   6.289   4.202 -0.0735  0.3069 -0.2532
  690MOL0     H93083   7.524   6.344   4.455  1.7411  0.1707 -3.9468
  690MOL0     H93084   7.725   6.374   4.598 -1.7353 -1.2833  3.1481
  690MOL0     H93085   8.000   6.019   4.630  1.7308  0.1045  2.9555
  690MOL0     H93086   8.009   6.140   4.505  0.9474  0.7372  0.6439
  690MOL0     H93087   8.129   6.290   4.651 -0.7622  0.2607  1.8768
  690MOL0     H93088   8.217   6.151   4.626 -1.0883 -0.1811  0.0430
  690MOL0     H93089   8.098   6.060   4.850 -0.5158 -0.9887 -1.0530
  690MOL0     H93090   8.077   6.235   4.874 -1.3422 -1.1167 -1.0395
  690MOL0     H93091   8.350   6.146   4.786  0.1144  2.7489 -1.0857
  690MOL0     H93092   8.300   6.284   4.880  0.1863  0.6248 -2.8429
  690MOL0     H93093   8.256   6.123   5.084  2.3351 -0.9155  2.2105
  690MOL0     H93094   8.321   6.001   4.968 -0.6595 -0.8908 -0.1279
  690MOL0     H93095   8.532   6.161   4.949 -0.8957 -1.5187 -1.3496
  690MOL0     H93096   8.460   6.253   5.079 -1.8288  2.1616 -2.7216
  690MOL0     H93097   8.502   5.953   5.112  2.5390 -0.9206  0.3473
  690MOL0     H93098   8.493   6.081   5.237 -0.4979  2.0599 -0.2421
  690MOL0     H93099   8.724   6.055   5.039 -0.0603 -1.9874 -0.0891
  690MOL0     H93100   8.726   6.154   5.188 -0.3773 -1.1014  1.1327
  690MOL0     H93101   8.641   5.979   5.422  0.9566 -0.4928  1.1799
  690MOL0     H93102   8.817   5.642   5.494 -0.0344 -0.6964  0.6664
  690MOL0     H93103   8.757   5.780   5.571  2.5702 -0.7397 -0.5134
  690MOL0     H93104   8.582   5.632   5.615 -3.1281 -0.3392 -0.4510
  690MOL0     H93105   8.527   5.710   5.467 -3.8172 -2.4977  1.2766
  690MOL0     H93106   8.666   5.443   5.456  0.2870 -0.3471 -0.7595
  690MOL0     H93107   8.581   5.540   5.332  2.8783  2.5294  0.4663
  690MOL0     H93108   8.375   5.506   5.426  1.2119  0.6804 -0.6182
  690MOL0     H93109   8.441   5.463   5.588 -0.2378  0.2217 -0.8398
  690MOL0     H93110   8.539   5.112   5.348 -2.6334  2.6005  0.5192
  690MOL0     H93111   8.643   4.907   5.458  0.1671 -1.4832  1.6605
  690MOL0     H93112   9.053   4.934   5.797 -1.0387  1.4090  1.1301
  690MOL0     H93113   9.217   4.758   5.857 -0.4592  1.0261  1.9817
  690MOL0     H93114   9.190   4.394   6.136 -0.1085 -2.8300  0.0000
  690MOL0     H93115   9.047   4.380   6.024 -0.9181  1.1078  2.2681
  690MOL0     H93116   9.333   4.293   5.989  0.0064 -0.3689  0.9178
  690MOL0     H93117   9.182   4.234   5.908 -0.3599  1.4230  0.1456
  690MOL0     H93118   9.193   4.424   5.750  0.9279 -0.5233 -1.9255
  690MOL0     H93119   9.329   4.488   5.835 -0.8531  1.0466 -0.4412
  690MOL0     H93120   9.297   4.207   5.712 -2.4549  0.2127  1.4805
  690MOL0     H93121   9.446   4.273   5.776 -0.9067  0.6304  1.7389
  690MOL0     H93122   9.423   4.442   5.563 -2.5138  1.2825 -0.7232
  690MOL0     H93123   9.278   4.341   5.523 -0.8693  0.6055  2.1645
  690MOL0     H93124   9.407   4.148   5.530 -1.1314  0.5754  0.4012
  690MOL0     H93125   9.457   4.252   5.389 -0.4675 -1.2490 -0.5249
  690MOL0     H93126   9.658   4.134   5.511 -0.2932 -0.7755  0.0786
  690MOL0     H93127   9.619   4.239   5.645  2.4315  0.8879  0.1201
  690MOL0     H93128   9.660   4.349   5.357 -2.1376  0.5184 -0.5215
  690MOL0     H93129   9.669   4.443   5.508  2.5878 -0.8586  2.1692
  690MOL0     H93130   8.921   4.551   6.077  0.6280 -0.2353  1.4856
  690MOL0     H93131   8.743   4.708   5.986 -0.4879  0.4351 -1.1301
  690MOL0     H93132   8.693   5.158   5.803 -1.9228  5.3593  0.1975
  690MOL0     H93133   8.564   5.332   5.709  0.7246  0.4694 -0.6062
  690MOL0     H93134   7.784   5.951   4.605  2.5420  0.8803 -0.0563
  690MOL0     H93135   7.571   5.930   4.445  3.2252 -0.6281 -0.7895
  690MOL0     H93136   7.171   5.838   4.325 -0.1007 -1.5120 -0.9217
  690MOL0     H93137   7.003   5.822   4.162 -0.2525 -0.0959 -0.0961
  690MOL0     H93138   6.802   5.845   4.066 -2.8690 -0.3857 -1.0127
  690MOL0     H93139   6.928   5.825   3.947 -1.9798 -1.4153 -3.5765
  690MOL0     H93140   6.717   5.822   3.831  3.1520  0.4817 -1.5902
  690MOL0     H93141   6.791   5.977   3.795  1.5035  1.4838  0.9413
  690MOL0     H93142   6.655   6.097   3.921 -1.1977 -0.1803 -1.9401
  690MOL0     H93143   6.629   5.971   4.044 -0.7941  0.8147  0.4775
  690MOL0     H93144   6.514   5.978   3.768 -1.0890 -1.4530  0.0689
  690MOL0     H93145   6.482   5.852   3.871  3.0131 -0.9857 -0.5786
  690MOL0     H93146   6.181   6.137   3.965 -1.7983 -0.9248 -1.6679
  690MOL0     H93147   7.065   6.233   4.042  0.8926  1.2173  0.7892
  690MOL0     H93148   7.306   6.303   4.305 -1.3525 -1.9393  0.5383
  690MOL0     H93149   7.356   6.290   4.132 -0.8589  0.5390 -1.2121
  690MOL0     H93150   7.197   6.366   4.182 -2.0903 -0.5291  3.3639
  691MOL0     O93151   7.035   5.684   7.137 -0.7245  0.3707  0.4508
  691MOL0     C93152   7.118   5.704   7.224 -0.2248 -0.6729  0.0630
  691MOL0     O93153   7.087   5.693   7.354 -0.5322  0.6337 -0.4860
  691MOL0     C93154   6.959   5.656   7.398  0.1053  0.7387  0.7265
  691MOL0     C93155   6.932   5.526   7.434 -0.0873 -0.0087  0.6979
  691MOL0     C93156   6.795   5.483   7.455 -0.2352 -0.4143  0.4117
  691MOL0     C93157   6.688   5.569   7.448  0.6937  1.0637  1.0049
  691MOL0     O93158   6.560   5.513   7.461 -0.7392 -0.1535 -0.1663
  691MOL0     C93159   6.451   5.597   7.480  0.2859 -0.0350  0.5285
  691MOL0     C93160   6.323   5.525   7.511 -0.1043  0.0910 -0.1378
  691MOL0     C93161   6.291   5.394   7.433  0.5788  0.3705 -0.5608
  691MOL0     C93162   6.139   5.356   7.436 -0.4614  0.1342 -0.5505
  691MOL0     C93163   6.115   5.211   7.496 -0.1766 -0.3917  0.5030
  691MOL0     C93164   6.164   5.105   7.397 -0.3798  0.7599 -0.7526
  691MOL0     C93165   6.186   4.968   7.467 -0.7678 -0.5139  0.1474
  691MOL0     C93166   6.326   4.954   7.527 -0.5520 -1.1100  0.0175
  691MOL0     N93167   6.419   4.898   7.429  0.0654 -0.1113  0.3471
  691MOL0     C93168   6.447   4.764   7.423 -0.1188 -0.6734 -0.2449
  691MOL0     C93169   6.553   4.752   7.337 -0.0627  0.6875  0.1039
  691MOL0     C93170   6.633   4.627   7.312 -0.3384  0.0918  0.6506
  691MOL0     C93171   6.580   4.538   7.203 -1.0609  0.5889 -0.0168
  691MOL0     C93172   6.624   4.576   7.073  0.7273 -0.2435 -0.2647
  691MOL0     C93173   6.767   4.545   7.046 -1.2836  0.0177 -0.3961
  691MOL0     O93174   6.814   4.422   7.106  0.0804 -0.3721 -0.5587
  691MOL0     C93175   6.946   4.396   7.072 -0.8944  0.8455 -0.8534
  691MOL0     C93176   7.000   4.268   7.108 -1.0603 -1.3840 -0.3828
  691MOL0     C93177   7.135   4.242   7.077  0.0321  0.4672  0.0391
  691MOL0     C93178   7.224   4.334   7.025  0.1789  0.5740 -0.5349
  691MOL0     C93179   7.365   4.300   7.021  0.4481 -0.7321  0.5916
  691MOL0     O93180   7.456   4.394   6.983  0.9997 -0.1264 -0.1336
  691MOL0     C93181   7.593   4.376   6.967 -0.3262  0.7957  0.2050
  691MOL0     C93182   7.645   4.293   6.862 -0.8494 -0.5854  0.0869
  691MOL0     C93183   7.788   4.285   6.839  0.0241  0.4095  0.0901
  691MOL0     C93184   7.875   4.337   6.932  0.4403  0.3220  0.7203
  691MOL0     O93185   8.011   4.312   6.920  0.1563 -0.6095 -0.3273
  691MOL0     C93186   8.104   4.426   6.923  0.2610  0.0258  0.1781
  691MOL0     C93187   8.234   4.364   6.989  0.7326  0.3129  0.0515
  691MOL0     C93188   8.358   4.450   6.961  0.7040  0.7508 -0.2704
  691MOL0     C93189   8.469   4.403   7.050 -0.0198  0.6621 -0.2357
  691MOL0     C93190   8.581   4.507   7.055 -0.3879 -0.4003 -0.8338
  691MOL0     C93191   8.690   4.459   7.153 -0.7543  0.2987 -0.5917
  691MOL0     C93192   8.832   4.525   7.119  0.5441 -0.1224  0.0055
  691MOL0     C93193   8.935   4.461   7.212 -0.7609  0.1193 -0.5150
  691MOL0    Cl93194   9.107   4.533   7.189 -0.1625  0.0825  0.1446
  691MOL0     C93195   7.820   4.408   7.036  0.2787 -0.2615 -0.0415
  691MOL0     C93196   7.685   4.433   7.057 -0.7215 -1.1278  0.1787
  691MOL0     O93197   7.398   4.194   7.073 -0.7761  1.0704  0.2925
  691MOL0     C93198   7.174   4.461   6.988  0.3889  1.0552 -0.3005
  691MOL0     C93199   7.039   4.490   7.016  0.0236 -0.6650 -0.6664
  691MOL0     N93200   6.565   4.879   7.280  0.3912  0.4083 -0.5082
  691MOL0     N93201   6.489   4.968   7.333 -0.0591 -0.5958  0.1668
  691MOL0     C93202   6.722   5.699   7.408 -0.3943  0.1315  0.4500
  691MOL0     C93203   6.855   5.743   7.389 -0.3070 -0.9746  0.5310
  691MOL0     C93204   7.257   5.732   7.178 -0.0280 -0.0725  0.2940
  691MOL0     C93205   7.271   5.801   7.054 -0.2786  0.5457 -0.7981
  691MOL0     C93206   7.400   5.844   7.013 -0.1105  1.0702  0.0966
  691MOL0     C93207   7.511   5.825   7.094 -0.0781  0.3681 -0.4487
  691MOL0     O93208   7.626   5.868   7.034  0.8285  0.5493 -0.1089
  691MOL0     C93209   7.749   5.887   7.108 -0.9427  0.3732  0.1996
  691MOL0     C93210   7.860   5.942   7.010 -0.7259  0.2717  0.3205
  691MOL0     C93211   7.822   6.085   6.962  0.2861  0.3634  0.2353
  691MOL0     C93212   7.938   6.154   6.918 -0.0889 -0.9976 -0.3671
  691MOL0     C93213   7.887   6.266   6.830 -0.2667 -0.4445 -0.7939
  691MOL0     C93214   7.837   6.363   6.762  0.1220  0.1159 -0.4737
  691MOL0     C93215   7.497   5.748   7.208  0.4932  1.0906  0.2245
  691MOL0     C93216   7.376   5.697   7.251  0.0099 -0.5166 -0.0003
  691MOL0     C93217   7.362   5.621   7.377 -0.3899 -0.5590 -0.0936
  691MOL0     H93218   7.017   5.458   7.438 -0.7768 -1.2485 -2.8459
  691MOL0     H93219   6.771   5.378   7.471 -1.5094  0.0135  1.5605
  691MOL0     H93220   6.460   5.664   7.566 -0.7332  0.6799  0.0963
  691MOL0     H93221   6.436   5.652   7.386 -1.5031  1.0178  1.3674
  691MOL0     H93222   6.228   5.579   7.515 -1.2851 -1.8989  0.0595
  691MOL0     H93223   6.333   5.502   7.618  1.0647 -0.3831 -0.3400
  691MOL0     H93224   6.363   5.323   7.473  3.0575  2.2001 -1.4982
  691MOL0     H93225   6.325   5.414   7.331 -0.4889  2.3178 -0.5960
  691MOL0     H93226   6.085   5.426   7.500 -0.8177 -2.8110  2.6844
  691MOL0     H93227   6.091   5.355   7.337  0.3090 -1.4137 -0.9306
  691MOL0     H93228   6.160   5.210   7.596  1.2008  3.2690  0.1128
  691MOL0     H93229   6.007   5.201   7.507 -0.5397  0.1821 -1.9872
  691MOL0     H93230   6.088   5.080   7.321 -1.2405 -1.4119  0.7208
  691MOL0     H93231   6.251   5.148   7.347  1.0960 -0.0882  0.9865
  691MOL0     H93232   6.163   4.878   7.408 -5.6129  0.6822 -0.2313
  691MOL0     H93233   6.115   4.964   7.550 -0.2895  1.1123  0.6637
  691MOL0     H93234   6.373   5.050   7.555  0.4024 -1.9850  1.5509
  691MOL0     H93235   6.342   4.900   7.620  0.5293  1.2591  1.3135
  691MOL0     H93236   6.396   4.679   7.467  1.1817 -0.6989  1.3043
  691MOL0     H93237   6.737   4.655   7.296 -0.3118 -0.1871  0.3277
  691MOL0     H93238   6.630   4.572   7.407  0.0183  0.3929  0.8382
  691MOL0     H93239   6.619   4.439   7.231  2.3507  2.5685  3.1539
  691MOL0     H93240   6.471   4.539   7.200 -1.0689  0.5304  0.2230
  691MOL0     H93241   6.597   4.681   7.067 -0.7049 -0.3133  3.0648
  691MOL0     H93242   6.574   4.520   6.993  0.8608  1.9514 -1.9803
  691MOL0     H93243   6.816   4.623   7.104  0.2379  0.0299 -1.6567
  691MOL0     H93244   6.795   4.550   6.941 -1.6542 -0.7495 -0.5424
  691MOL0     H93245   6.938   4.194   7.158 -1.1764 -0.1956  1.2805
  691MOL0     H93246   7.161   4.138   7.092  1.9521  0.6115 -1.8672
  691MOL0     H93247   7.580   4.241   6.793 -0.7679 -0.5024 -0.0526
  691MOL0     H93248   7.828   4.221   6.761  0.9972 -2.6248  2.8415
  691MOL0     H93249   8.127   4.470   6.825 -2.0248  1.1744  0.0806
  691MOL0     H93250   8.068   4.505   6.990 -1.1756 -1.5130  1.3158
  691MOL0     H93251   8.215   4.368   7.097  0.0104 -0.6882 -0.0269
  691MOL0     H93252   8.252   4.260   6.960 -0.7234 -0.0014  0.1902
  691MOL0     H93253   8.384   4.441   6.855  1.8702  0.4240  0.0279
  691MOL0     H93254   8.332   4.555   6.981 -0.8055  0.2398  0.6591
  691MOL0     H93255   8.501   4.306   7.009 -4.1752 -0.3086 -1.7344
  691MOL0     H93256   8.437   4.393   7.154  2.3277  2.4306  0.7442
  691MOL0     H93257   8.534   4.602   7.084  1.7530  0.8439 -1.2355
  691MOL0     H93258   8.617   4.517   6.952 -0.2730  1.3374 -0.6633
  691MOL0     H93259   8.657   4.474   7.256 -3.3802 -0.7489 -1.1821
  691MOL0     H93260   8.700   4.353   7.129 -1.0085  0.6375 -2.3623
  691MOL0     H93261   8.822   4.634   7.129  3.4200  0.1750  0.6360
  691MOL0     H93262   8.863   4.506   7.016  0.6606 -1.4591  0.2748
  691MOL0     H93263   8.901   4.481   7.314 -1.5095 -1.5550 -0.4087
  691MOL0     H93264   8.931   4.352   7.203 -1.7503 -0.1192  1.9909
  691MOL0     H93265   7.899   4.444   7.101  1.0635  2.5235 -2.3123
  691MOL0     H93266   7.646   4.491   7.140 -2.2375 -1.9004  0.0444
  691MOL0     H93267   7.253   4.526   6.954  1.2286  0.5481  0.6183
  691MOL0     H93268   7.016   4.591   6.985 -0.4067 -0.9771 -1.3880
  691MOL0     H93269   6.636   5.764   7.395  0.6559  2.0155  2.3731
  691MOL0     H93270   6.876   5.848   7.376 -1.6777 -0.6572  0.7440
  691MOL0     H93271   7.185   5.814   6.989 -0.7326 -1.2441 -0.6234
  691MOL0     H93272   7.408   5.870   6.909 -1.6288 -0.3936 -0.4343
  691MOL0     H93273   7.777   5.793   7.157  1.4764 -1.2256 -3.7258
  691MOL0     H93274   7.730   5.956   7.191 -1.5950  1.5930 -0.9390
  691MOL0     H93275   7.871   5.882   6.920  0.8462 -3.3076  2.6520
  691MOL0     H93276   7.958   5.947   7.059 -1.7241  2.6027  2.3212
  691MOL0     H93277   7.780   6.132   7.051  1.2498  0.0268  0.8795
  691MOL0     H93278   7.753   6.081   6.877  0.1175 -2.5571  0.3977
  691MOL0     H93279   7.979   6.188   7.013 -2.7373  1.2546  0.1059
  691MOL0     H93280   8.005   6.094   6.856  1.3703 -0.4523  0.6291
  691MOL0     H93281   7.798   6.434   6.691  1.9551 -1.9574 -3.8638
  691MOL0     H93282   7.592   5.732   7.259 -0.2011 -1.8664  0.7658
  691MOL0     H93283   7.287   5.541   7.374 -0.2786 -0.6439 -0.7162
  691MOL0     H93284   7.457   5.567   7.384 -0.0307  0.2412  1.6713
  691MOL0     H93285   7.351   5.690   7.462  0.6249  0.7981 -1.0242
  692MOL0     O93286   4.499  10.680   7.135 -0.9012  0.2203  0.4724
  692MOL0     C93287   4.499  10.565   7.175 -0.1909  0.0807 -0.3869
  692MOL0     O93288   4.405  10.470   7.152  0.1525  0.2004  0.6181
  692MOL0     C93289   4.280  10.509   7.102  0.3085  0.6691  0.2357
  692MOL0     C93290   4.248  10.482   6.969  0.4170  0.7928  0.2732
  692MOL0     C93291   4.123  10.504   6.917 -0.7889  0.1342  0.0803
  692MOL0     C93292   4.026  10.572   6.993 -0.4282 -0.3048 -0.3427
  692MOL0     O93293   3.904  10.592   6.927  0.0440  0.7489 -0.4743
  692MOL0     C93294   3.782  10.586   7.002 -0.2969 -0.1442 -0.1882
  692MOL0     C93295   3.666  10.614   6.910 -0.0070  0.7852  0.3279
  692MOL0     C93296   3.534  10.638   6.975  0.8398 -0.3825  0.4978
  692MOL0     C93297   3.428  10.669   6.869 -0.7786 -0.9661  0.1328
  692MOL0     C93298   3.302  10.742   6.921  0.2630  0.8002  0.0847
  692MOL0     C93299   3.199  10.655   7.004  0.4101  0.8217 -0.8467
  692MOL0     C93300   3.095  10.740   7.077  0.3144  0.0771  0.8467
  692MOL0     C93301   2.959  10.664   7.077  0.1888 -0.8722 -0.4127
  692MOL0     N93302   2.875  10.714   7.184  0.4127  0.5562 -0.6118
  692MOL0     C93303   2.750  10.765   7.152  1.1717 -0.5441 -0.0866
  692MOL0     C93304   2.693  10.769   7.282  0.6218 -0.4966  1.1242
  692MOL0     C93305   2.550  10.821   7.309 -0.3002 -0.6713  0.9196
  692MOL0     C93306   2.508  10.867   7.452  0.0252  0.3485 -1.0890
  692MOL0     C93307   2.536  10.750   7.554 -0.0051  0.1615 -0.2891
  692MOL0     C93308   2.471  10.791   7.691  0.2245 -0.1917  0.3114
  692MOL0     O93309   2.484  10.932   7.722  0.1199  0.3166  0.1998
  692MOL0     C93310   2.599  10.976   7.776 -0.1195  0.3533 -0.4507
  692MOL0     C93311   2.634  11.113   7.774  1.0891  0.3481  0.2737
  692MOL0     C93312   2.764  11.169   7.802  0.0025  0.5906  0.7311
  692MOL0     C93313   2.863  11.075   7.846 -0.0704  1.0073  0.8396
  692MOL0     C93314   3.005  11.110   7.873 -1.0163 -0.7921 -0.4585
  692MOL0     O93315   3.099  11.020   7.916  0.0290  0.1595 -0.4730
  692MOL0     C93316   3.226  11.056   7.973  0.5429  0.3469 -0.0655
  692MOL0     C93317   3.228  11.166   8.064  0.2001 -1.4618  0.0577
  692MOL0     C93318   3.346  11.211   8.126 -0.2566 -0.1282 -0.4112
  692MOL0     C93319   3.467  11.141   8.119 -0.0604 -0.2143 -0.7836
  692MOL0     O93320   3.576  11.182   8.198  0.5659  0.0973 -0.2815
  692MOL0     C93321   3.699  11.188   8.118 -0.5900  0.3345  0.2954
  692MOL0     C93322   3.811  11.279   8.185 -0.2520  0.3729  1.0211
  692MOL0     C93323   3.896  11.198   8.287  0.5220 -0.1077 -0.3117
  692MOL0     C93324   4.017  11.126   8.225  0.0947 -0.4179 -0.1808
  692MOL0     C93325   4.086  11.027   8.327  0.7624 -0.1859  0.4428
  692MOL0     C93326   4.142  11.102   8.447 -0.0640 -0.0876  0.3047
  692MOL0     C93327   4.233  11.019   8.524 -0.2769 -0.5003  0.2276
  692MOL0     C93328   4.178  10.971   8.657  0.5413  0.2326 -0.2731
  692MOL0    Cl93329   4.037  10.873   8.620 -0.2213 -0.0782  0.2356
  692MOL0     C93330   3.465  11.030   8.034  0.2540  0.6820  0.4342
  692MOL0     C93331   3.348  10.987   7.954  0.9897 -0.5379  0.1485
  692MOL0     O93332   3.028  11.231   7.858 -0.3808  0.0245 -0.0439
  692MOL0     C93333   2.827  10.935   7.855  0.2938 -0.5145 -0.2199
  692MOL0     C93334   2.698  10.889   7.825  1.0618  0.2497 -0.5470
  692MOL0     N93335   2.775  10.705   7.373  0.2503  0.3190 -0.2278
  692MOL0     N93336   2.882  10.666   7.313  0.5163  0.0003  0.2514
  692MOL0     C93337   4.055  10.594   7.130  1.6530  0.9189 -0.1232
  692MOL0     C93338   4.178  10.564   7.183 -0.0772 -0.0820  0.2362
  692MOL0     C93339   4.617  10.529   7.248 -0.5871 -0.9394  0.0974
  692MOL0     C93340   4.638  10.388   7.244 -0.1104 -0.0344 -0.1527
  692MOL0     C93341   4.764  10.333   7.271  0.2428 -0.4246  1.2407
  692MOL0     C93342   4.859  10.409   7.326 -0.3826  0.0806 -0.5976
  692MOL0     O93343   4.968  10.340   7.372  0.3330  0.0906  0.5681
  692MOL0     C93344   5.056  10.409   7.460 -0.2901  0.7855  0.1679
  692MOL0     C93345   5.182  10.332   7.502 -0.2180  0.2943  0.9103
  692MOL0     C93346   5.264  10.419   7.599 -0.5062 -1.0723 -1.3022
  692MOL0     C93347   5.201  10.429   7.739 -0.2510  0.4854 -0.9858
  692MOL0     C93348   5.290  10.492   7.839  0.5485 -0.3000  0.1322
  692MOL0     C93349   5.375  10.529   7.920 -0.1350  0.3373 -0.2477
  692MOL0     C93350   4.835  10.545   7.348  0.3852 -0.1219 -0.7904
  692MOL0     C93351   4.711  10.609   7.314 -0.1425  0.5544  0.1977
  692MOL0     C93352   4.678  10.753   7.343  0.6807  0.6703  0.3809
  692MOL0     H93353   4.319  10.438   6.899 -0.5960  0.1112 -0.3489
  692MOL0     H93354   4.106  10.467   6.816 -1.5418  1.4434 -0.2933
  692MOL0     H93355   3.766  10.494   7.060 -1.5528  1.3409  1.9663
  692MOL0     H93356   3.770  10.673   7.067  1.2076  1.3293 -1.8067
  692MOL0     H93357   3.652  10.526   6.846 -2.2532  2.7426 -2.1076
  692MOL0     H93358   3.696  10.693   6.840 -0.5487 -1.1639 -2.2841
  692MOL0     H93359   3.530  10.712   7.056  0.9879  0.2006 -0.0244
  692MOL0     H93360   3.501  10.542   7.017  0.3314 -1.0576 -1.3567
  692MOL0     H93361   3.473  10.738   6.797 -4.4598  2.0065  0.3386
  692MOL0     H93362   3.398  10.581   6.812 -5.6617 -0.9729  2.2166
  692MOL0     H93363   3.330  10.831   6.979 -2.2673  0.1130  2.5974
  692MOL0     H93364   3.248  10.780   6.834  2.2490  2.4172 -0.5192
  692MOL0     H93365   3.149  10.583   6.939 -3.8211  1.0533  1.7631
  692MOL0     H93366   3.251  10.575   7.057 -2.6780 -1.3983 -0.8492
  692MOL0     H93367   3.086  10.841   7.038 -0.3576 -0.0208  0.7306
  692MOL0     H93368   3.114  10.736   7.185 -1.8230  0.2144  1.2708
  692MOL0     H93369   2.912  10.657   6.978 -1.4800 -2.5184  0.4372
  692MOL0     H93370   2.980  10.560   7.105  0.2228 -1.1401 -1.3867
  692MOL0     H93371   2.701  10.794   7.060  2.2623  0.7810 -0.2800
  692MOL0     H93372   2.524  10.904   7.242  0.4622 -0.3732  0.9817
  692MOL0     H93373   2.489  10.733   7.287 -2.0223  1.1214 -2.2503
  692MOL0     H93374   2.552  10.963   7.479 -1.4303  0.4490  1.1410
  692MOL0     H93375   2.403  10.894   7.448 -0.0058  0.1452 -1.6660
  692MOL0     H93376   2.643  10.746   7.572  0.0626  0.1704 -0.6953
  692MOL0     H93377   2.495  10.654   7.523 -1.3380  0.6878 -0.2486
  692MOL0     H93378   2.505  10.733   7.778 -1.2905 -3.4817 -1.1232
  692MOL0     H93379   2.363  10.778   7.679 -0.2588  1.8619  1.9298
  692MOL0     H93380   2.551  11.179   7.751 -0.2984 -1.0217  1.1218
  692MOL0     H93381   2.784  11.273   7.782  0.4180  0.5168  0.7451
  692MOL0     H93382   3.136  11.215   8.095 -0.1694 -2.9440  1.3800
  692MOL0     H93383   3.331  11.298   8.189  0.7377 -0.9166  0.9639
  692MOL0     H93384   3.734  11.088   8.089  0.7020  1.3242 -1.7437
  692MOL0     H93385   3.672  11.241   8.027 -0.1481  1.2358  0.6807
  692MOL0     H93386   3.874  11.313   8.103 -0.7441  0.8132  0.8112
  692MOL0     H93387   3.761  11.362   8.237  0.0148  1.3989 -0.2906
  692MOL0     H93388   3.907  11.265   8.372 -2.1580  2.3913 -1.7762
  692MOL0     H93389   3.840  11.116   8.334  1.4395 -0.7552 -0.3209
  692MOL0     H93390   4.092  11.195   8.184 -0.3460 -0.0987 -0.4602
  692MOL0     H93391   3.972  11.064   8.148 -2.0151  1.3994 -0.5220
  692MOL0     H93392   4.165  10.974   8.274  2.0868  0.7638  1.3834
  692MOL0     H93393   4.016  10.950   8.358 -1.3337  1.1396 -0.7155
  692MOL0     H93394   4.206  11.182   8.411 -0.3770  0.3657  0.7446
  692MOL0     H93395   4.067  11.153   8.508  2.1701  2.3420  1.2156
  692MOL0     H93396   4.323  11.077   8.545 -0.0099  0.1723 -2.3880
  692MOL0     H93397   4.260  10.934   8.461 -2.4549  0.9419 -2.9511
  692MOL0     H93398   4.256  10.912   8.706 -1.9391 -2.1785  1.0451
  692MOL0     H93399   4.160  11.053   8.727  0.9112  0.2277 -0.1673
  692MOL0     H93400   3.564  10.993   8.012 -0.0234  1.0496 -1.6269
  692MOL0     H93401   3.346  10.892   7.901 -1.4088 -1.3294  1.5301
  692MOL0     H93402   2.892  10.855   7.890  0.7305 -0.7943 -1.6036
  692MOL0     H93403   2.685  10.782   7.837 -0.6940  0.1488 -2.6143
  692MOL0     H93404   3.976  10.622   7.199  1.4853 -3.3432  1.7260
  692MOL0     H93405   4.194  10.570   7.290 -3.3899  1.3524  0.7716
  692MOL0     H93406   4.577  10.317   7.189 -1.6557  0.1697  1.2448
  692MOL0     H93407   4.776  10.225   7.271 -1.7238 -0.8159 -2.4089
  692MOL0     H93408   4.996  10.436   7.548 -0.2208  0.9957  0.1519
  692MOL0     H93409   5.093  10.501   7.414  1.7500 -0.1162 -0.0793
  692MOL0     H93410   5.255  10.313   7.423 -0.7120  0.6462  0.3587
  692MOL0     H93411   5.159  10.236   7.549 -0.4108 -1.1785 -1.9633
  692MOL0     H93412   5.260  10.519   7.555 -0.6214 -0.7699 -0.6181
  692MOL0     H93413   5.368  10.385   7.599  0.0211  0.2852 -3.7275
  692MOL0     H93414   5.111  10.491   7.734 -1.4319 -1.1324 -0.9673
  692MOL0     H93415   5.184  10.333   7.790 -0.0692  0.3091 -1.2570
  692MOL0     H93416   5.460  10.554   7.981  0.0305 -0.7976  0.0065
  692MOL0     H93417   4.899  10.610   7.408 -0.5839 -0.5628  0.7736
  692MOL0     H93418   4.686  10.797   7.243 -2.1100 -2.4418 -1.4516
  692MOL0     H93419   4.575  10.772   7.375  0.5432  3.1765 -1.2866
  692MOL0     H93420   4.750  10.812   7.401 -0.3289  3.2113 -0.8243
  693MOL0     O93421   1.038   2.165   2.810  0.1477 -0.1378 -0.4249
  693MOL0     C93422   0.960   2.080   2.863  0.6240 -0.2264  1.2839
  693MOL0     O93423   0.983   1.996   2.967  0.0418  0.1418 -0.1816
  693MOL0     C93424   1.115   2.001   3.023  0.1381  0.0465  0.2524
  693MOL0     C93425   1.232   1.997   2.951  1.0092  0.7160  0.8541
  693MOL0     C93426   1.354   1.983   2.999  0.2314 -0.7160  0.3325
  693MOL0     C93427   1.377   1.985   3.137 -0.2106 -0.1843 -0.1893
  693MOL0     O93428   1.503   1.993   3.185  0.1947  1.1630  0.0674
  693MOL0     C93429   1.514   2.077   3.298 -0.0594 -0.4100  0.0278
  693MOL0     C93430   1.662   2.075   3.335  0.3614  0.4759  0.9534
  693MOL0     C93431   1.740   2.123   3.210 -0.4989 -0.1578 -0.7859
  693MOL0     C93432   1.895   2.149   3.241 -0.7616  0.5264 -0.7561
  693MOL0     C93433   1.981   2.019   3.221  0.7514 -0.2076  0.5666
  693MOL0     C93434   2.129   2.043   3.271 -0.3344  0.0691  0.5415
  693MOL0     C93435   2.178   1.904   3.288  0.7123  0.5096 -1.0943
  693MOL0     C93436   2.326   1.897   3.322 -0.3430 -0.4804 -0.4751
  693MOL0     N93437   2.339   1.775   3.400 -0.3150  0.2164  0.7157
  693MOL0     C93438   2.366   1.649   3.341  0.2034  0.0687 -0.8318
  693MOL0     C93439   2.360   1.567   3.454 -0.4361 -0.1973  0.0873
  693MOL0     C93440   2.379   1.409   3.449  0.7292  0.3737 -0.1323
  693MOL0     C93441   2.257   1.329   3.408  0.3286 -0.5050  0.9428
  693MOL0     C93442   2.190   1.314   3.545 -0.5025  0.8268  0.4673
  693MOL0     C93443   2.065   1.236   3.544  0.4242 -0.1094  0.0309
  693MOL0     O93444   1.953   1.304   3.482 -0.1921  0.0869  0.8631
  693MOL0     C93445   1.825   1.263   3.503 -0.4141 -0.1032 -0.2369
  693MOL0     C93446   1.726   1.277   3.412  0.1439 -0.8028 -0.2017
  693MOL0     C93447   1.584   1.258   3.427 -0.4435  0.2417  0.1651
  693MOL0     C93448   1.543   1.212   3.547  0.4106  0.5731 -0.3890
  693MOL0     C93449   1.401   1.175   3.556 -0.4288 -0.8347 -0.3678
  693MOL0     O93450   1.319   1.227   3.457  0.4367 -0.1585  0.2039
  693MOL0     C93451   1.183   1.215   3.479 -0.0456 -0.5527  0.0997
  693MOL0     C93452   1.109   1.107   3.440  0.0506  0.6002 -0.1034
  693MOL0     C93453   0.966   1.109   3.429  0.0562  1.0975  0.0081
  693MOL0     C93454   0.904   1.226   3.482 -0.5033  1.0507 -0.8017
  693MOL0     O93455   0.765   1.248   3.473 -0.3792  0.6716  0.4720
  693MOL0     C93456   0.680   1.153   3.396  0.0214  0.1589 -0.4264
  693MOL0     C93457   0.530   1.198   3.379  0.8054 -0.7581 -0.4538
  693MOL0     C93458   0.461   1.197   3.516  0.6285  0.2131 -0.7281
  693MOL0     C93459   0.316   1.251   3.542 -0.6415 -0.5468  1.0431
  693MOL0     C93460   0.278   1.238   3.688  0.2057  0.6975 -0.7447
  693MOL0     C93461   0.126   1.265   3.697  0.3693  0.4111 -1.3822
  693MOL0     C93462   0.071   1.279   3.845 -0.1080 -0.0881 -0.3979
  693MOL0     C93463  -0.074   1.249   3.853  0.9382  0.2076 -0.6473
  693MOL0    Cl93464  -0.091   1.072   3.866  0.2850 -0.1174 -0.3907
  693MOL0     C93465   0.983   1.335   3.521  0.4004  0.1972 -0.0370
  693MOL0     C93466   1.119   1.330   3.528  0.4788 -0.0666 -0.0259
  693MOL0     O93467   1.363   1.108   3.645  0.7600  0.7683  0.9462
  693MOL0     C93468   1.635   1.180   3.647  0.3695 -0.9267  1.4859
  693MOL0     C93469   1.774   1.215   3.627  0.2629 -0.7812  0.3023
  693MOL0     N93470   2.331   1.641   3.563 -0.3400  0.3452  0.5784
  693MOL0     N93471   2.314   1.766   3.531 -0.3386 -0.0494  0.2185
  693MOL0     C93472   1.263   2.000   3.217  0.2333  0.8119  0.1732
  693MOL0     C93473   1.137   2.005   3.160  0.3781  0.6634 -0.4636
  693MOL0     C93474   0.824   2.064   2.802 -0.1738 -0.1052  0.1429
  693MOL0     C93475   0.798   2.015   2.671 -0.3853  0.2623  0.0376
  693MOL0     C93476   0.663   2.014   2.622 -0.6587  0.8400  0.1281
  693MOL0     C93477   0.565   2.045   2.705  1.1958  0.2253  0.9442
  693MOL0     O93478   0.433   2.015   2.660  0.2031 -0.8114 -0.1106
  693MOL0     C93479   0.321   2.097   2.710  0.6474  0.2678  0.7749
  693MOL0     C93480   0.193   2.035   2.665  0.9620 -0.5710  0.8551
  693MOL0     C93481   0.190   2.008   2.515 -0.1235 -0.1735  0.1226
  693MOL0     C93482   0.050   1.948   2.477 -0.8497 -0.0693 -0.3857
  693MOL0     C93483  -0.034   2.044   2.404  0.5858  1.0836 -0.2946
  693MOL0     C93484  -0.118   2.116   2.353 -0.4660 -0.0563 -0.4710
  693MOL0     C93485   0.586   2.091   2.831 -0.5238  0.4020  0.3546
  693MOL0     C93486   0.713   2.107   2.881 -0.5110 -0.4277  0.6488
  693MOL0     C93487   0.728   2.153   3.032  0.4664  0.4057  0.1128
  693MOL0     H93488   1.222   1.968   2.847  3.3315 -1.5277  1.1595
  693MOL0     H93489   1.442   1.974   2.937  0.8986 -2.3743  1.4743
  693MOL0     H93490   1.488   2.179   3.266  1.1377  0.4378  1.6238
  693MOL0     H93491   1.459   2.044   3.387  0.8401  1.0516  1.1948
  693MOL0     H93492   1.694   1.973   3.357  1.1906  0.2424 -1.0563
  693MOL0     H93493   1.680   2.134   3.425  4.4695  0.3941  0.3553
  693MOL0     H93494   1.698   2.219   3.178 -0.0181 -0.2221 -1.6486
  693MOL0     H93495   1.720   2.059   3.123 -1.7631 -1.9949  0.7628
  693MOL0     H93496   1.924   2.244   3.197 -3.5747  2.5845  1.4037
  693MOL0     H93497   1.900   2.185   3.344 -0.4086  1.0738 -0.9634
  693MOL0     H93498   1.931   1.939   3.277 -1.3931  0.2628 -0.5833
  693MOL0     H93499   1.975   1.999   3.114  0.1491  1.9927  0.1508
  693MOL0     H93500   2.193   2.084   3.192  1.9591 -2.7979  0.7331
  693MOL0     H93501   2.146   2.101   3.362  0.4055  0.9400 -0.1351
  693MOL0     H93502   2.158   1.844   3.199 -1.0192 -0.6191 -0.0279
  693MOL0     H93503   2.118   1.853   3.364 -0.4838  0.3166 -2.1378
  693MOL0     H93504   2.388   1.879   3.234  2.9993  0.5503  1.4468
  693MOL0     H93505   2.365   1.981   3.381  3.0761 -0.5730 -2.3580
  693MOL0     H93506   2.387   1.626   3.238  0.1385 -2.5931 -0.3214
  693MOL0     H93507   2.450   1.383   3.371 -1.7452 -2.2132 -1.7237
  693MOL0     H93508   2.431   1.371   3.537  1.6768 -2.1030 -1.6528
  693MOL0     H93509   2.186   1.388   3.349  2.2159  0.7778 -0.1672
  693MOL0     H93510   2.284   1.239   3.352 -1.0067 -0.4150  0.1077
  693MOL0     H93511   2.161   1.413   3.580 -2.4010 -0.0389  1.4782
  693MOL0     H93512   2.260   1.262   3.611 -2.7339 -1.2130  1.3884
  693MOL0     H93513   2.046   1.234   3.652 -1.1085  3.6420 -0.0204
  693MOL0     H93514   2.069   1.131   3.513 -1.7252 -0.1921 -0.1565
  693MOL0     H93515   1.761   1.327   3.322 -0.7300  0.7462  0.2643
  693MOL0     H93516   1.521   1.265   3.339  1.2583 -2.0572 -1.3457
  693MOL0     H93517   1.166   1.025   3.396 -2.0806  0.5936 -3.1678
  693MOL0     H93518   0.909   1.030   3.381  1.3909 -0.0637  0.2557
  693MOL0     H93519   0.730   1.150   3.299  1.2045  0.5875  0.1403
  693MOL0     H93520   0.694   1.055   3.441  0.6338 -0.6163 -2.2318
  693MOL0     H93521   0.548   1.300   3.345  0.9033  0.1082  1.9974
  693MOL0     H93522   0.482   1.140   3.299 -2.0433  1.8451 -0.8178
  693MOL0     H93523   0.456   1.092   3.547  2.1086  0.8475  2.0183
  693MOL0     H93524   0.529   1.243   3.589 -0.3749  1.3372 -0.4681
  693MOL0     H93525   0.253   1.197   3.470  0.2781  0.7316 -0.7938
  693MOL0     H93526   0.304   1.352   3.500  1.3695 -1.7488 -2.9433
  693MOL0     H93527   0.346   1.286   3.759  4.6918 -1.7600 -2.9358
  693MOL0     H93528   0.293   1.131   3.703 -0.8078  0.1576 -3.1668
  693MOL0     H93529   0.099   1.355   3.639  1.9620  1.2087 -0.9521
  693MOL0     H93530   0.087   1.170   3.660 -1.2631 -1.2698  3.7951
  693MOL0     H93531   0.089   1.385   3.865  4.5462 -0.1739 -2.8525
  693MOL0     H93532   0.128   1.232   3.925  2.1341 -1.4755 -2.6616
  693MOL0     H93533  -0.116   1.296   3.943 -1.0706 -1.7384 -0.4657
  693MOL0     H93534  -0.127   1.290   3.766 -1.8429  0.2186  0.9265
  693MOL0     H93535   0.927   1.423   3.552  1.8663  0.0844  3.2645
  693MOL0     H93536   1.182   1.416   3.548  2.9741 -1.2818 -1.9484
  693MOL0     H93537   1.600   1.155   3.746 -1.1491 -1.7382  0.7798
  693MOL0     H93538   1.842   1.216   3.712  0.7396 -3.7216  0.0743
  693MOL0     H93539   1.263   2.022   3.323  1.1593 -2.7381  1.0766
  693MOL0     H93540   1.049   2.013   3.224  1.5185 -2.3767  1.7791
  693MOL0     H93541   0.874   1.963   2.613 -0.0453 -1.1569  1.6827
  693MOL0     H93542   0.638   1.987   2.520  0.3388 -1.4784  0.4423
  693MOL0     H93543   0.329   2.202   2.681 -0.1091  0.2348  0.4238
  693MOL0     H93544   0.313   2.104   2.819  2.0601  1.6164  0.8345
  693MOL0     H93545   0.106   2.101   2.673 -0.2863 -1.5275 -2.8684
  693MOL0     H93546   0.182   1.940   2.719  0.1350  0.0185  1.7477
  693MOL0     H93547   0.268   1.944   2.472 -0.0793  0.3262 -0.5702
  693MOL0     H93548   0.207   2.104   2.466  0.7008 -0.3961 -0.0408
  693MOL0     H93549   0.063   1.855   2.422  1.5666  0.2252 -0.4089
  693MOL0     H93550  -0.013   1.927   2.564  1.2812 -2.7132  0.6563
  693MOL0     H93551  -0.178   2.190   2.304 -2.6892 -1.0750  0.5590
  693MOL0     H93552   0.505   2.109   2.900  0.0327  2.8132  0.4642
  693MOL0     H93553   0.636   2.211   3.042  1.4961  2.0026  0.5876
  693MOL0     H93554   0.733   2.071   3.105 -1.8652 -0.6773 -0.8355
  693MOL0     H93555   0.812   2.220   3.052  0.0064  1.3479 -1.0316
  694MOL0     O93556   3.493   1.341   6.561  0.7481 -0.4348  0.2145
  694MOL0     C93557   3.411   1.286   6.631  0.5130 -0.3903 -0.0516
  694MOL0     O93558   3.332   1.352   6.718  0.4887  0.6053  0.8260
  694MOL0     C93559   3.303   1.486   6.686  0.4507  0.3024 -0.3419
  694MOL0     C93560   3.180   1.519   6.618 -0.0525 -0.9003  0.4003
  694MOL0     C93561   3.153   1.652   6.591  0.5885 -1.3267 -0.3049
  694MOL0     C93562   3.231   1.760   6.637  1.5555 -0.6692  0.8100
  694MOL0     O93563   3.184   1.884   6.605 -0.8585  0.4773  0.3285
  694MOL0     C93564   3.263   1.995   6.648  0.2338  0.0954 -0.8410
  694MOL0     C93565   3.174   2.125   6.662 -1.3849  0.3156 -0.0562
  694MOL0     C93566   3.264   2.240   6.715  0.4997 -0.0047  0.2564
  694MOL0     C93567   3.193   2.376   6.734  0.8606 -0.2874  0.4171
  694MOL0     C93568   3.287   2.472   6.803  0.4116 -0.7803 -0.1976
  694MOL0     C93569   3.211   2.585   6.872 -0.0659 -0.0955 -0.4724
  694MOL0     C93570   3.298   2.644   6.989  0.3929  0.2126  0.7499
  694MOL0     C93571   3.233   2.777   7.048 -0.4004  0.2281 -1.0227
  694MOL0     N93572   3.322   2.833   7.150 -0.8837 -0.1141  0.1339
  694MOL0     C93573   3.460   2.838   7.149 -0.7264  0.3804 -0.9857
  694MOL0     C93574   3.496   2.917   7.262 -0.3535  0.2507  0.3042
  694MOL0     C93575   3.632   2.966   7.325 -0.5677 -0.4778  0.6477
  694MOL0     C93576   3.634   3.115   7.368  0.3718  0.1405 -0.0942
  694MOL0     C93577   3.667   3.212   7.262 -0.0172  0.3266 -0.2614
  694MOL0     C93578   3.799   3.178   7.193  0.4712  0.3675 -0.9664
  694MOL0     O93579   3.868   3.295   7.159  0.7860  0.0466  0.3215
  694MOL0     C93580   3.970   3.272   7.076 -0.4271 -0.6769  0.2839
  694MOL0     C93581   3.964   3.294   6.940 -0.2588  0.6194 -0.5164
  694MOL0     C93582   4.077   3.294   6.855  0.1861  0.7658 -0.1358
  694MOL0     C93583   4.204   3.265   6.911  0.3768 -0.5888 -0.8926
  694MOL0     C93584   4.327   3.264   6.828  0.1106 -1.1458 -0.5911
  694MOL0     O93585   4.441   3.199   6.877  0.0195  0.0045  0.4795
  694MOL0     C93586   4.560   3.205   6.813  0.8436  0.2697  0.3471
  694MOL0     C93587   4.647   3.309   6.809 -0.3036  0.8373  0.4258
  694MOL0     C93588   4.776   3.286   6.765  0.1753  0.1165 -0.1191
  694MOL0     C93589   4.829   3.158   6.729  0.3396  0.3323  0.4664
  694MOL0     O93590   4.959   3.126   6.702 -0.7723 -0.4387  0.5345
  694MOL0     C93591   5.049   3.238   6.663 -0.4390  0.7197 -0.7706
  694MOL0     C93592   5.164   3.176   6.602 -0.6010  0.4544  0.2070
  694MOL0     C93593   5.246   3.095   6.705 -1.0666  0.4077 -0.0212
  694MOL0     C93594   5.375   3.028   6.645  1.0808 -0.2003  1.0971
  694MOL0     C93595   5.457   2.960   6.753  0.1400  0.2749  0.3846
  694MOL0     C93596   5.603   2.939   6.693 -0.6389  0.5529 -0.1402
  694MOL0     C93597   5.703   2.883   6.805 -0.5573 -0.1538 -0.5027
  694MOL0     C93598   5.832   2.840   6.725  0.5135 -0.5712 -0.1406
  694MOL0    Cl93599   5.964   2.817   6.845  0.1609  0.4315 -0.3556
  694MOL0     C93600   4.728   3.067   6.711 -0.4495  0.8813  0.5172
  694MOL0     C93601   4.590   3.094   6.746 -0.5007  1.6504  0.4668
  694MOL0     O93602   4.326   3.337   6.727  0.0824 -0.2361  0.2387
  694MOL0     C93603   4.210   3.227   7.048 -0.5247 -0.2990 -0.6147
  694MOL0     C93604   4.093   3.222   7.127  0.7515 -0.2797  0.2178
  694MOL0     N93605   3.383   2.945   7.326  1.1992 -0.1271 -0.0151
  694MOL0     N93606   3.278   2.892   7.264 -0.1037 -0.0398 -0.8417
  694MOL0     C93607   3.341   1.727   6.715 -0.1870 -0.1036  0.3293
  694MOL0     C93608   3.376   1.593   6.736  0.4109 -0.3907  0.0008
  694MOL0     C93609   3.427   1.140   6.636 -0.0256 -0.3638  0.6675
  694MOL0     C93610   3.540   1.079   6.690 -0.5206  0.1544  0.4168
  694MOL0     C93611   3.544   0.939   6.686  0.8037 -0.1703 -0.8224
  694MOL0     C93612   3.445   0.857   6.633  0.1668 -0.5210 -0.0536
  694MOL0     O93613   3.448   0.726   6.666 -0.7013  0.5474  0.2463
  694MOL0     C93614   3.407   0.638   6.559 -0.8548  0.8617 -0.4757
  694MOL0     C93615   3.517   0.527   6.529 -0.1539 -0.0078 -0.2123
  694MOL0     C93616   3.649   0.589   6.475  0.5042  0.0904 -0.2846
  694MOL0     C93617   3.753   0.483   6.466  0.2920 -0.2151  0.3592
  694MOL0     C93618   3.886   0.516   6.424  0.5936 -0.3989  0.3566
  694MOL0     C93619   4.007   0.539   6.401  1.1952 -0.6815  0.6645
  694MOL0     C93620   3.333   0.917   6.575 -0.7086 -0.3580 -0.9078
  694MOL0     C93621   3.326   1.059   6.572  0.4005  0.2829  0.9980
  694MOL0     C93622   3.203   1.126   6.512  0.1354 -0.1761  0.3449
  694MOL0     H93623   3.120   1.433   6.591  2.4335 -2.8552  0.7462
  694MOL0     H93624   3.063   1.667   6.532  0.1560 -0.1652  0.6289
  694MOL0     H93625   3.301   1.983   6.750  5.0676  0.6804 -2.3312
  694MOL0     H93626   3.344   2.005   6.576 -1.9176  0.4449 -3.3385
  694MOL0     H93627   3.095   2.112   6.737 -0.5897 -0.9284  0.6141
  694MOL0     H93628   3.130   2.161   6.569 -3.0849  2.9811  1.6495
  694MOL0     H93629   3.351   2.263   6.654 -1.3715  0.8227 -2.2878
  694MOL0     H93630   3.304   2.207   6.812  2.3240 -1.0675 -0.8105
  694MOL0     H93631   3.157   2.415   6.638 -1.6149 -3.2266  0.0225
  694MOL0     H93632   3.112   2.360   6.805  1.6501  1.5475  1.8122
  694MOL0     H93633   3.343   2.424   6.884  1.2299 -1.3522 -1.0942
  694MOL0     H93634   3.373   2.500   6.742 -0.6347 -1.5082 -2.0739
  694MOL0     H93635   3.186   2.662   6.798  0.1824  0.2176 -0.2366
  694MOL0     H93636   3.110   2.558   6.905 -0.0854  1.8253  1.2695
  694MOL0     H93637   3.394   2.666   6.941  1.9500 -1.5785  2.8732
  694MOL0     H93638   3.321   2.576   7.071 -0.6415  2.3683  2.9322
  694MOL0     H93639   3.207   2.846   6.967  0.7707  0.2477 -1.4039
  694MOL0     H93640   3.140   2.763   7.104  0.6329 -0.7270  0.5430
  694MOL0     H93641   3.530   2.800   7.076 -0.1171  1.3436 -0.9189
  694MOL0     H93642   3.635   2.898   7.412 -3.8269 -1.3540  0.2090
  694MOL0     H93643   3.723   2.945   7.269  1.0026 -3.9015  3.9676
  694MOL0     H93644   3.533   3.148   7.397  0.4360  0.4892 -0.2647
  694MOL0     H93645   3.694   3.138   7.456  0.6488 -0.1368 -0.2094
  694MOL0     H93646   3.680   3.307   7.315 -0.0794  0.5302 -0.6069
  694MOL0     H93647   3.584   3.220   7.191 -1.0449 -0.5301  0.8247
  694MOL0     H93648   3.783   3.113   7.106  0.5504  4.0771 -4.0219
  694MOL0     H93649   3.869   3.128   7.260 -0.6719 -1.1058 -0.8195
  694MOL0     H93650   3.864   3.310   6.899 -2.1830  0.1010  3.5385
  694MOL0     H93651   4.057   3.318   6.751  0.6116  0.1603 -0.3662
  694MOL0     H93652   4.611   3.400   6.857  0.6689  1.2345  0.4276
  694MOL0     H93653   4.846   3.364   6.793  0.3845 -0.3004  0.5619
  694MOL0     H93654   5.000   3.304   6.591  0.5569  4.7511  1.9367
  694MOL0     H93655   5.081   3.289   6.754 -1.8389 -0.3287  0.3587
  694MOL0     H93656   5.130   3.114   6.519 -2.0033  0.0877  1.0169
  694MOL0     H93657   5.220   3.264   6.569  2.4812 -2.0272 -1.6705
  694MOL0     H93658   5.270   3.160   6.789 -1.9439  0.2343  0.3695
  694MOL0     H93659   5.190   3.009   6.744 -1.5597  0.8740  0.3050
  694MOL0     H93660   5.429   3.113   6.603  0.1780  0.7814  1.8712
  694MOL0     H93661   5.340   2.963   6.564 -2.9596  1.2979  1.4186
  694MOL0     H93662   5.405   2.870   6.789 -0.0375  0.4387  0.5362
  694MOL0     H93663   5.463   3.029   6.837  3.4280  1.2361 -0.4806
  694MOL0     H93664   5.597   2.871   6.608  0.8776 -0.7245  0.7304
  694MOL0     H93665   5.631   3.037   6.654 -0.5005 -0.8812 -4.0427
  694MOL0     H93666   5.658   2.794   6.850 -2.1183  0.1393 -1.4200
  694MOL0     H93667   5.720   2.959   6.882 -5.0813  1.4863 -0.8488
  694MOL0     H93668   5.803   2.747   6.676 -3.4538 -1.2609  2.9861
  694MOL0     H93669   5.861   2.926   6.663 -0.8463  0.2081  0.2637
  694MOL0     H93670   4.759   2.974   6.665  1.7149  0.2839  2.9581
  694MOL0     H93671   4.514   3.018   6.728 -0.2442  1.7887 -1.4406
  694MOL0     H93672   4.301   3.189   7.093 -0.2978  0.4848 -0.3990
  694MOL0     H93673   4.096   3.199   7.233 -3.6401  0.2056  0.6091
  694MOL0     H93674   3.403   1.808   6.753  0.4877 -1.7930  3.1430
  694MOL0     H93675   3.458   1.556   6.797 -0.5343 -2.7215 -0.0357
  694MOL0     H93676   3.635   1.123   6.720  0.9348 -1.6028 -1.3036
  694MOL0     H93677   3.633   0.891   6.725 -0.8873 -1.5173  1.6723
  694MOL0     H93678   3.371   0.684   6.467 -4.1037 -1.0179 -0.3417
  694MOL0     H93679   3.315   0.591   6.596  0.3428 -0.2211  1.3072
  694MOL0     H93680   3.483   0.443   6.468 -1.9838  0.7268 -0.2591
  694MOL0     H93681   3.532   0.485   6.629 -1.1747 -2.2055 -0.9267
  694MOL0     H93682   3.680   0.663   6.549  1.0977 -0.5190  0.0784
  694MOL0     H93683   3.632   0.639   6.379  0.2509  0.4104 -0.0764
  694MOL0     H93684   3.757   0.456   6.572  0.1812  1.7269  0.8929
  694MOL0     H93685   3.720   0.402   6.400  0.0852  0.5549 -0.5008
  694MOL0     H93686   4.108   0.559   6.374  0.3067  0.8044 -1.8615
  694MOL0     H93687   3.246   0.859   6.546 -2.5109  2.2426 -1.0960
  694MOL0     H93688   3.141   1.157   6.597 -3.8709 -0.0704 -2.3137
  694MOL0     H93689   3.231   1.211   6.449 -3.3930  0.4479 -0.6217
  694MOL0     H93690   3.140   1.053   6.460  0.2626  0.0728 -0.1593
  695MOL0     O93691   7.952   3.733   2.950  0.5781 -0.1169 -0.0710
  695MOL0     C93692   7.929   3.856   2.966  0.3399  0.8794 -0.5033
  695MOL0     O93693   8.019   3.940   3.019 -0.5357 -0.2902 -0.6885
  695MOL0     C93694   8.153   3.904   3.002  0.1578  0.7392 -0.3950
  695MOL0     C93695   8.235   3.838   3.096  0.5040 -0.5091  0.6142
  695MOL0     C93696   8.362   3.796   3.062 -0.0645 -0.8333 -1.3645
  695MOL0     C93697   8.420   3.828   2.940  0.1824  0.6449 -0.0759
  695MOL0     O93698   8.542   3.780   2.913  0.3837  0.5551  0.3863
  695MOL0     C93699   8.553   3.727   2.782  0.5280 -0.4298 -0.6056
  695MOL0     C93700   8.672   3.635   2.764  0.5231  0.0884 -0.2998
  695MOL0     C93701   8.670   3.519   2.872 -0.6809  0.7570 -0.5054
  695MOL0     C93702   8.807   3.482   2.927 -0.2489 -1.0172 -0.0870
  695MOL0     C93703   8.829   3.572   3.041 -0.3890 -0.3513 -0.1422
  695MOL0     C93704   8.951   3.523   3.128 -0.5383 -0.7445  0.2951
  695MOL0     C93705   9.085   3.519   3.058  0.4276  0.5892 -0.9296
  695MOL0     C93706   9.184   3.510   3.174  0.7036 -0.2176 -0.2627
  695MOL0     N93707   9.174   3.384   3.245 -0.0909  0.7654 -0.4127
  695MOL0     C93708   9.213   3.269   3.184 -0.3351 -0.7255  0.2095
  695MOL0     C93709   9.211   3.182   3.288  0.1298  0.6956 -0.0623
  695MOL0     C93710   9.258   3.045   3.276 -0.3607  0.1818  0.4961
  695MOL0     C93711   9.379   3.013   3.356 -0.1095  0.1365 -0.6008
  695MOL0     C93712   9.430   2.867   3.338 -1.3334  0.4594 -0.8122
  695MOL0     C93713   9.508   2.848   3.208 -0.0651  0.0204  0.7798
  695MOL0     O93714   9.585   2.724   3.218 -0.2572  0.1926  0.6835
  695MOL0     C93715   9.678   2.700   3.121  0.9689  0.1788  0.0506
  695MOL0     C93716   9.733   2.801   3.045 -0.4157  0.9364 -0.6902
  695MOL0     C93717   9.825   2.763   2.932  0.1075 -0.9719 -0.3267
  695MOL0     C93718   9.874   2.628   2.922 -0.4020 -0.5403 -0.0780
  695MOL0     C93719   9.978   2.585   2.828 -0.5407  0.6204 -0.4931
  695MOL0     O93720  10.003   2.670   2.726 -0.0359  0.1106  0.9916
  695MOL0     C93721  10.090   2.646   2.617 -0.8356  0.4966  0.7927
  695MOL0     C93722  10.203   2.568   2.616 -1.4314 -0.1153  0.3705
  695MOL0     C93723  10.280   2.549   2.495 -0.1077 -0.4180  0.2046
  695MOL0     C93724  10.249   2.627   2.382 -0.2343  1.3356  0.2763
  695MOL0     O93725  10.320   2.623   2.263 -0.1834 -0.2696  0.4800
  695MOL0     C93726  10.465   2.620   2.287  0.4848 -0.3194 -0.9357
  695MOL0     C93727  10.536   2.634   2.144  0.0835  0.5157 -0.5617
  695MOL0     C93728  10.510   2.491   2.071  0.1065  0.4022  0.1675
  695MOL0     C93729  10.602   2.377   2.117 -0.6781  1.1245 -0.3869
  695MOL0     C93730  10.541   2.241   2.093  0.3134 -0.3189  0.3253
  695MOL0     C93731  10.503   2.208   1.950  0.1741  0.7417  0.0999
  695MOL0     C93732  10.410   2.085   1.940 -0.2161 -1.2633 -0.6737
  695MOL0     C93733  10.351   2.051   1.806 -0.8864  0.5035  0.4268
  695MOL0    Cl93734  10.474   2.020   1.684 -0.3507 -0.0951 -0.4003
  695MOL0     C93735  10.134   2.703   2.385 -0.4580 -0.8865 -0.1946
  695MOL0     C93736  10.059   2.719   2.495 -0.7649 -0.0079  0.0960
  695MOL0     O93737  10.024   2.476   2.837  0.5292 -0.1727  0.2896
  695MOL0     C93738   9.811   2.534   3.003  0.3070 -0.8874  0.0020
  695MOL0     C93739   9.716   2.563   3.098 -0.9261 -0.2562  0.5538
  695MOL0     N93740   9.182   3.241   3.408  1.0556  0.2900 -0.2995
  695MOL0     N93741   9.145   3.366   3.379  0.2425 -0.0658 -0.3408
  695MOL0     C93742   8.340   3.895   2.846  0.2201  0.5368 -0.6656
  695MOL0     C93743   8.210   3.932   2.880 -0.6814  0.3851 -0.2192
  695MOL0     C93744   7.791   3.899   2.930  1.3576 -0.0468 -0.1681
  695MOL0     C93745   7.775   3.994   2.829 -0.3324  0.4139 -0.8849
  695MOL0     C93746   7.650   4.053   2.805 -0.1712  0.3325 -0.2973
  695MOL0     C93747   7.531   4.012   2.871 -0.0802 -0.2269  0.8775
  695MOL0     O93748   7.412   4.063   2.841 -0.3956  0.4167 -0.3851
  695MOL0     C93749   7.321   3.960   2.797  0.0193 -0.5510  0.1159
  695MOL0     C93750   7.186   4.031   2.774  0.1615  1.1331  1.0283
  695MOL0     C93751   7.115   4.098   2.898  0.3877 -0.0542  0.0504
  695MOL0     C93752   7.051   4.009   3.004 -0.0793  0.3325 -0.0819
  695MOL0     C93753   7.136   3.986   3.115 -0.0571  0.7989  0.6647
  695MOL0     C93754   7.222   3.956   3.199 -0.7622  0.0309  0.2406
  695MOL0     C93755   7.550   3.918   2.973  0.8761 -0.6766 -0.0792
  695MOL0     C93756   7.677   3.861   3.008 -0.1303 -0.0391  0.3677
  695MOL0     C93757   7.681   3.793   3.139 -0.5272  0.0246 -0.1046
  695MOL0     H93758   8.181   3.813   3.187  0.9257 -1.1671  0.6887
  695MOL0     H93759   8.395   3.730   3.142  1.6001  1.4360 -0.0792
  695MOL0     H93760   8.460   3.679   2.750 -0.0950 -1.5569  2.5566
  695MOL0     H93761   8.572   3.814   2.718 -3.2963  0.5274 -0.6812
  695MOL0     H93762   8.760   3.699   2.773 -0.4666  1.5967 -0.8872
  695MOL0     H93763   8.662   3.597   2.661  0.2105  1.9336 -0.9888
  695MOL0     H93764   8.639   3.424   2.826  2.6806 -1.2810  1.0115
  695MOL0     H93765   8.598   3.543   2.949 -0.2620  3.2720 -0.8238
  695MOL0     H93766   8.804   3.376   2.956 -0.6184 -1.5789 -2.0137
  695MOL0     H93767   8.893   3.487   2.861  1.4401 -2.1749  1.9104
  695MOL0     H93768   8.855   3.675   3.016  4.6429 -0.6116  2.6068
  695MOL0     H93769   8.734   3.583   3.093  0.2085  3.8322  0.4155
  695MOL0     H93770   8.958   3.594   3.212 -2.5367 -1.8437  1.4659
  695MOL0     H93771   8.921   3.422   3.157 -0.5338 -1.1934 -1.1745
  695MOL0     H93772   9.100   3.615   3.008 -0.7552  0.8745 -0.7723
  695MOL0     H93773   9.097   3.436   2.988  0.7579  0.8608 -1.1958
  695MOL0     H93774   9.286   3.520   3.138  0.1768 -1.2370 -2.1602
  695MOL0     H93775   9.171   3.586   3.252  0.4392 -0.0989 -0.4232
  695MOL0     H93776   9.235   3.260   3.079 -2.1882  1.5302 -0.4500
  695MOL0     H93777   9.179   2.979   3.313  1.5619 -2.0963  0.8235
  695MOL0     H93778   9.280   3.015   3.173 -0.8342 -2.0462  0.9751
  695MOL0     H93779   9.458   3.086   3.336 -0.0245  0.5103  0.9862
  695MOL0     H93780   9.349   3.024   3.460 -4.3522  1.6213 -1.7744
  695MOL0     H93781   9.356   2.787   3.343  0.1233 -0.8607  0.1920
  695MOL0     H93782   9.498   2.837   3.417 -0.5102  1.3624 -1.1552
  695MOL0     H93783   9.569   2.938   3.196  0.4696 -0.5294 -0.9251
  695MOL0     H93784   9.432   2.839   3.130  2.2820  1.6982 -1.8735
  695MOL0     H93785   9.717   2.906   3.070  1.0444  1.2666 -1.0478
  695MOL0     H93786   9.863   2.847   2.874  3.1704  0.4023  3.2397
  695MOL0     H93787  10.230   2.507   2.701  3.3224 -0.3847 -1.0439
  695MOL0     H93788  10.354   2.470   2.500  0.3901  0.0365  0.1935
  695MOL0     H93789  10.500   2.706   2.344  1.5153  0.2983 -2.4087
  695MOL0     H93790  10.489   2.522   2.329 -1.1568  0.1391  1.1984
  695MOL0     H93791  10.478   2.709   2.090 -3.2797 -1.2721  0.2680
  695MOL0     H93792  10.641   2.664   2.137  0.4294 -0.7783 -1.2382
  695MOL0     H93793  10.406   2.467   2.094 -0.0781 -0.4143 -1.3955
  695MOL0     H93794  10.523   2.496   1.963 -0.6075  1.1765  0.1177
  695MOL0     H93795  10.644   2.390   2.217  0.5275  1.1358 -0.8824
  695MOL0     H93796  10.687   2.392   2.051  0.1941 -1.5299  0.0148
  695MOL0     H93797  10.449   2.237   2.151 -0.5896 -0.0599 -1.0515
  695MOL0     H93798  10.624   2.175   2.120  2.3843  1.3913 -1.5083
  695MOL0     H93799  10.444   2.288   1.903  0.5797 -0.4494 -2.6246
  695MOL0     H93800  10.589   2.203   1.884  0.8479  1.8123  0.8627
  695MOL0     H93801  10.326   2.100   2.009  0.1706 -1.8942 -0.0422
  695MOL0     H93802  10.475   2.005   1.977 -0.5834 -1.0713  0.4249
  695MOL0     H93803  10.302   1.953   1.801  0.6172 -0.2365 -0.6240
  695MOL0     H93804  10.279   2.122   1.764 -1.8245 -1.3380 -1.2410
  695MOL0     H93805  10.109   2.758   2.295  3.5417  0.2551 -0.8096
  695MOL0     H93806   9.969   2.780   2.488  1.3455  3.3300 -0.3402
  695MOL0     H93807   9.843   2.431   2.993 -0.6069 -1.1265 -0.6434
  695MOL0     H93808   9.695   2.483   3.169  1.0811  1.2537  3.0109
  695MOL0     H93809   8.374   3.915   2.745  1.3893 -0.1707 -0.4295
  695MOL0     H93810   8.158   3.991   2.805  2.3843  4.8288  0.7713
  695MOL0     H93811   7.858   4.020   2.763 -0.3508 -0.2475 -1.1763
  695MOL0     H93812   7.642   4.131   2.731 -0.5189  1.3380  0.7753
  695MOL0     H93813   7.303   3.887   2.877  0.5760  0.8264  1.5404
  695MOL0     H93814   7.346   3.921   2.697  3.0986  2.1417 -0.3387
  695MOL0     H93815   7.128   3.953   2.723  3.6410  0.1780 -1.8551
  695MOL0     H93816   7.195   4.112   2.701  1.3708  0.3723  0.3003
  695MOL0     H93817   7.033   4.152   2.849 -1.4257 -1.2677  1.6128
  695MOL0     H93818   7.181   4.173   2.943 -1.3349  0.0791  2.5311
  695MOL0     H93819   6.961   4.065   3.032  0.4604  0.4268  1.5589
  695MOL0     H93820   7.029   3.913   2.955 -0.0040  0.2556  0.0351
  695MOL0     H93821   7.303   3.938   3.266 -2.9595  1.5794  3.6038
  695MOL0     H93822   7.468   3.886   3.036  0.8304 -0.4278 -0.0100
  695MOL0     H93823   7.654   3.856   3.224  1.2446 -0.3873  0.7982
  695MOL0     H93824   7.621   3.701   3.135  1.3739 -1.2929  0.4239
  695MOL0     H93825   7.786   3.777   3.162 -0.4671  2.3218  1.5662
  696MOL0     O93826   7.023  11.289   6.965 -0.0242  0.0116  0.1697
  696MOL0     C93827   6.993  11.173   6.965  0.0605 -0.1228 -0.1882
  696MOL0     O93828   7.083  11.075   7.002 -0.3260 -0.2714  0.2883
  696MOL0     C93829   7.219  11.104   7.013 -0.8589 -0.5725  0.8170
  696MOL0     C93830   7.296  11.208   6.952 -0.5886 -0.2158  0.1234
  696MOL0     C93831   7.436  11.220   6.967  0.1899  0.5844 -0.8867
  696MOL0     C93832   7.489  11.130   7.053 -0.1317 -0.4329  0.7756
  696MOL0     O93833   7.625  11.133   7.073  0.3311 -0.3182 -0.0329
  696MOL0     C93834   7.679  11.077   7.198  0.0380 -0.2256  0.1313
  696MOL0     C93835   7.822  11.118   7.206 -0.4795 -0.2699  0.5377
  696MOL0     C93836   7.893  11.019   7.299 -0.2164 -0.0538  0.5441
  696MOL0     C93837   8.046  11.030   7.292 -0.4457  0.8182 -0.4243
  696MOL0     C93838   8.122  10.893   7.297 -0.0650 -0.9160  0.5501
  696MOL0     C93839   8.119  10.845   7.439 -0.1345  0.4657  0.3680
  696MOL0     C93840   8.159  10.691   7.444 -1.1799 -0.6236  0.2703
  696MOL0     C93841   8.307  10.684   7.396 -0.7911 -0.1892  0.7001
  696MOL0     N93842   8.413  10.759   7.474 -0.3178 -0.3854  0.5295
  696MOL0     C93843   8.433  10.759   7.615 -0.1656 -1.0448  0.5946
  696MOL0     C93844   8.554  10.822   7.631 -0.1643  0.4575 -0.0952
  696MOL0     C93845   8.622  10.855   7.758 -0.3868 -0.1048 -1.6685
  696MOL0     C93846   8.715  10.738   7.815  0.1176 -0.2829  0.0667
  696MOL0     C93847   8.779  10.766   7.954  0.1357  0.2512 -0.8355
  696MOL0     C93848   8.930  10.745   7.957 -0.0704  0.0904 -0.0717
  696MOL0     O93849   8.977  10.815   8.071  0.3742  0.6869  0.4487
  696MOL0     C93850   9.116  10.840   8.062 -0.0074  0.7549  0.1919
  696MOL0     C93851   9.203  10.741   8.013  0.9358 -1.0236 -0.7251
  696MOL0     C93852   9.336  10.771   8.009  0.6743 -0.0235  0.3650
  696MOL0     C93853   9.386  10.899   8.053  0.4756  0.8206  0.7691
  696MOL0     C93854   9.530  10.922   8.049 -0.1178 -0.0898  0.3215
  696MOL0     O93855   9.605  10.824   8.001 -0.3783 -0.1089  1.1573
  696MOL0     C93856   9.736  10.872   7.969 -0.0047  0.5235  0.4244
  696MOL0     C93857   9.762  10.965   7.864  0.0381  0.3607 -0.2201
  696MOL0     C93858   9.890  11.013   7.836 -0.1065  0.6103  0.4167
  696MOL0     C93859  10.005  10.970   7.907  0.6922  0.7295  0.1507
  696MOL0     O93860  10.127  11.011   7.874  0.4781  0.0472  0.8293
  696MOL0     C93861  10.242  10.972   7.948  0.7342 -0.0245  0.4536
  696MOL0     C93862  10.351  11.070   7.919  0.4220  0.7184  0.4392
  696MOL0     C93863  10.425  11.056   7.789 -0.4494  0.2441  0.8664
  696MOL0     C93864  10.536  10.947   7.790 -1.2475 -0.5041  0.5053
  696MOL0     C93865  10.623  10.951   7.668 -0.5633  0.4325 -0.1966
  696MOL0     C93866  10.708  11.079   7.661  0.2935  0.0599 -0.4531
  696MOL0     C93867  10.792  11.066   7.537  0.1417 -0.4119  0.3463
  696MOL0     C93868  10.868  11.194   7.520  0.4903  0.1753  0.0282
  696MOL0    Cl93869  10.995  11.164   7.402  0.0746 -0.1309  0.0359
  696MOL0     C93870   9.982  10.864   8.005 -0.4070 -0.2674 -0.0048
  696MOL0     C93871   9.853  10.817   8.023 -0.7195 -0.2414  0.9045
  696MOL0     O93872   9.575  11.024   8.100  0.3570 -0.4563  0.9058
  696MOL0     C93873   9.301  10.988   8.100  0.5137  0.0389 -0.7673
  696MOL0     C93874   9.168  10.966   8.106  0.9980 -0.1192  1.6492
  696MOL0     N93875   8.607  10.852   7.500  0.1707 -0.5858  0.1215
  696MOL0     N93876   8.516  10.820   7.411  0.2668  0.5028  0.5009
  696MOL0     C93877   7.413  11.036   7.128  0.1436  0.6222 -0.7718
  696MOL0     C93878   7.279  11.021   7.100  0.0912  1.0909  0.0541
  696MOL0     C93879   6.848  11.146   6.932  0.8870  0.0725 -0.1096
  696MOL0     C93880   6.770  11.238   6.868  0.6723 -0.4005  0.0385
  696MOL0     C93881   6.659  11.196   6.791  0.5648 -0.0154 -1.4116
  696MOL0     C93882   6.607  11.065   6.795  0.4420 -0.9178  0.0387
  696MOL0     O93883   6.492  11.035   6.714  0.1493  0.3614  0.1571
  696MOL0     C93884   6.461  10.900   6.668 -0.2055  0.6402 -0.0415
  696MOL0     C93885   6.319  10.870   6.608 -0.3324 -0.1086 -0.5123
  696MOL0     C93886   6.270  10.970   6.500 -1.1252 -0.5861  0.5115
  696MOL0     C93887   6.125  10.947   6.464  0.3287  0.6220  0.4331
  696MOL0     C93888   6.078  11.025   6.346  0.2496  0.2968 -0.5767
  696MOL0     C93889   6.035  11.098   6.262  0.3692 -0.4691 -0.7296
  696MOL0     C93890   6.681  10.978   6.876 -0.2943  0.8504 -0.3284
  696MOL0     C93891   6.799  11.016   6.951  0.3920 -0.5505 -0.0628
  696MOL0     C93892   6.856  10.915   7.046 -0.3427 -0.9864 -0.7651
  696MOL0     H93893   7.255  11.280   6.882 -0.6312  0.6582  1.0224
  696MOL0     H93894   7.500  11.302   6.935  0.0626  1.4993  1.0807
  696MOL0     H93895   7.634  11.135   7.279 -1.4180  1.0897 -1.5319
  696MOL0     H93896   7.654  10.970   7.200 -2.1764  0.2416  0.7379
  696MOL0     H93897   7.830  11.220   7.246  1.4152 -0.4916  0.7944
  696MOL0     H93898   7.864  11.112   7.106 -0.0301 -3.2664  0.8241
  696MOL0     H93899   7.873  10.916   7.267 -1.9550  0.9612 -1.9210
  696MOL0     H93900   7.858  11.044   7.400  5.6287  3.7403  2.1188
  696MOL0     H93901   8.076  11.068   7.193  1.9597 -2.1222 -0.9870
  696MOL0     H93902   8.078  11.099   7.371  3.8088 -2.4632  1.1142
  696MOL0     H93903   8.085  10.814   7.232  0.2185 -2.3757  2.0690
  696MOL0     H93904   8.228  10.915   7.282 -0.2935  0.4324  0.8424
  696MOL0     H93905   8.196  10.902   7.493  1.1871 -0.2117 -0.7503
  696MOL0     H93906   8.025  10.860   7.493  0.8885  0.4461  2.2541
  696MOL0     H93907   8.101  10.635   7.370 -0.1747 -1.4259  0.0701
  696MOL0     H93908   8.144  10.646   7.543 -2.3480 -2.8224 -0.8445
  696MOL0     H93909   8.342  10.581   7.409 -0.9985 -0.4549 -0.7199
  696MOL0     H93910   8.314  10.694   7.287 -2.8112  0.1712  0.5518
  696MOL0     H93911   8.368  10.716   7.690 -3.0193  0.9303 -0.5896
  696MOL0     H93912   8.687  10.940   7.737  2.8668 -2.2609 -1.0357
  696MOL0     H93913   8.549  10.885   7.834 -0.9736 -1.5040 -1.6448
  696MOL0     H93914   8.652  10.650   7.834  2.4674 -1.8027  1.3460
  696MOL0     H93915   8.788  10.715   7.736 -1.6320  0.7985 -1.9729
  696MOL0     H93916   8.733  10.710   8.036 -1.3054  0.5126 -1.4235
  696MOL0     H93917   8.767  10.867   7.994 -0.9711 -1.0196  2.3560
  696MOL0     H93918   8.972  10.797   7.870 -3.3722  2.6507 -0.3091
  696MOL0     H93919   8.971  10.644   7.953  3.4958  1.1782  2.7360
  696MOL0     H93920   9.165  10.646   7.977 -3.9697  0.4179 -0.0671
  696MOL0     H93921   9.394  10.696   7.956  0.2677  0.8443 -1.3754
  696MOL0     H93922   9.671  10.992   7.812 -0.3181  1.4294  0.8863
  696MOL0     H93923   9.890  11.096   7.766  1.0181  1.1025  0.9778
  696MOL0     H93924  10.213  10.988   8.053 -3.1517  0.5649 -0.5677
  696MOL0     H93925  10.265  10.866   7.934 -2.2538 -0.7333  0.2736
  696MOL0     H93926  10.308  11.168   7.941 -1.0803  0.1568  0.1285
  696MOL0     H93927  10.422  11.058   8.002  0.9440 -0.3092 -0.1405
  696MOL0     H93928  10.352  11.058   7.708 -0.7773  1.6320  1.1655
  696MOL0     H93929  10.483  11.148   7.784  2.2183 -1.2884  1.7875
  696MOL0     H93930  10.504  10.844   7.806 -0.1634 -0.3773  4.4692
  696MOL0     H93931  10.598  10.962   7.879 -0.7522 -5.6314  1.3257
  696MOL0     H93932  10.553  10.946   7.584 -1.6615  0.8790  0.6680
  696MOL0     H93933  10.697  10.871   7.671 -2.1684 -1.1367 -0.9874
  696MOL0     H93934  10.651  11.172   7.667 -1.4127 -1.0306  1.7072
  696MOL0     H93935  10.775  11.073   7.747 -0.2263 -0.3947 -0.0682
  696MOL0     H93936  10.734  11.029   7.452  2.8737 -1.2830 -1.2774
  696MOL0     H93937  10.872  10.991   7.547  0.2086 -0.6370 -1.5329
  696MOL0     H93938  10.807  11.277   7.483  4.0237  2.3221 -1.5311
  696MOL0     H93939  10.908  11.220   7.618 -3.4953  1.3888  1.5336
  696MOL0     H93940  10.067  10.829   8.063 -0.6194 -1.3090 -0.2879
  696MOL0     H93941   9.829  10.747   8.103 -1.0158 -0.7212  0.4013
  696MOL0     H93942   9.333  11.084   8.141  0.7197 -0.7543  1.0531
  696MOL0     H93943   9.091  11.026   8.153 -1.6779 -2.4725  0.5780
  696MOL0     H93944   7.454  10.983   7.214  0.4237  2.2406  0.1425
  696MOL0     H93945   7.224  10.939   7.145  0.9985 -0.0855 -0.9273
  696MOL0     H93946   6.807  11.339   6.857  2.8406 -1.1990 -0.4234
  696MOL0     H93947   6.609  11.275   6.736  1.0876  1.2026 -0.1913
  696MOL0     H93948   6.481  10.820   6.741  0.6796 -0.8971 -1.8659
  696MOL0     H93949   6.524  10.877   6.581 -3.5986  0.4397 -2.6646
  696MOL0     H93950   6.248  10.884   6.690 -1.6072 -0.7988 -1.4588
  696MOL0     H93951   6.300  10.766   6.579  0.1265 -0.2305 -0.3764
  696MOL0     H93952   6.319  10.956   6.403  0.5908 -0.4309  1.3297
  696MOL0     H93953   6.277  11.072   6.536 -0.7777 -0.5146  0.2471
  696MOL0     H93954   6.107  10.840   6.450  1.0318  0.6367 -0.7332
  696MOL0     H93955   6.057  10.977   6.543  0.2611  0.0537  0.5987
  696MOL0     H93956   6.004  11.173   6.191  0.0623 -1.0185 -1.1786
  696MOL0     H93957   6.633  10.881   6.871 -0.6045  1.0543 -2.2126
  696MOL0     H93958   6.909  10.953   7.133 -1.6535 -0.6129 -0.1070
  696MOL0     H93959   6.771  10.864   7.091 -1.2894  1.4585  0.3980
  696MOL0     H93960   6.920  10.841   6.997  0.9023 -1.3465  1.3110
  697MOL0     O93961   6.162   3.201  11.041  0.0795  0.3847  0.0448
  697MOL0     C93962   6.059   3.178  10.984  0.4993  0.8675 -0.6048
  697MOL0     O93963   6.044   3.125  10.859 -0.1039 -0.6736 -0.3432
  697MOL0     C93964   6.145   3.095  10.780 -0.1945 -1.2494  0.5426
  697MOL0     C93965   6.250   3.019  10.831  0.2253  0.7368 -0.2299
  697MOL0     C93966   6.357   2.998  10.750 -1.1287  0.3617 -0.5835
  697MOL0     C93967   6.360   3.043  10.615 -1.2648  0.0259 -0.5465
  697MOL0     O93968   6.468   3.030  10.530 -0.5540 -0.5015 -0.1942
  697MOL0     C93969   6.592   2.982  10.575  0.2133  0.9222 -0.4024
  697MOL0     C93970   6.696   2.963  10.468  0.2091 -0.0557 -0.1577
  697MOL0     C93971   6.838   2.973  10.527  1.3696  0.8910 -0.6411
  697MOL0     C93972   6.936   3.010  10.418 -0.6924  0.1674 -0.0854
  697MOL0     C93973   7.090   2.960  10.441 -0.6185 -0.6335  0.6237
  697MOL0     C93974   7.161   3.030  10.562 -0.6807  0.1357  0.3975
  697MOL0     C93975   7.312   3.039  10.536 -0.2862  0.8017  0.4058
  697MOL0     C93976   7.380   2.908  10.567  0.4192 -0.5340 -0.0742
  697MOL0     N93977   7.507   2.915  10.504  0.2914 -0.0169  0.1846
  697MOL0     C93978   7.585   2.814  10.466 -0.1087  0.7320 -0.2598
  697MOL0     C93979   7.695   2.862  10.407 -1.2067 -0.3552  0.5278
  697MOL0     C93980   7.826   2.803  10.349  0.1713  0.0713 -0.6548
  697MOL0     C93981   7.946   2.858  10.418 -0.2154 -0.7691 -0.0991
  697MOL0     C93982   8.060   2.886  10.322  0.2861  0.3806  0.1954
  697MOL0     C93983   8.089   2.770  10.216 -0.0320 -0.2571  0.7572
  697MOL0     O93984   8.137   2.659  10.289 -0.6979 -1.1721 -0.1778
  697MOL0     C93985   8.188   2.561  10.207  0.2425  0.3468  0.6480
  697MOL0     C93986   8.123   2.505  10.094 -0.6166  0.1725  0.5601
  697MOL0     C93987   8.191   2.403  10.022 -0.5992  0.4375 -0.0439
  697MOL0     C93988   8.330   2.371  10.057  0.3645 -0.1074  0.5104
  697MOL0     C93989   8.409   2.278   9.981 -1.3675  1.1315 -0.0040
  697MOL0     O93990   8.549   2.275   9.996 -0.2243 -0.9262  0.3376
  697MOL0     C93991   8.619   2.209   9.903  0.6690  1.2111  0.9807
  697MOL0     C93992   8.695   2.273   9.806 -0.1507  0.2215  0.1661
  697MOL0     C93993   8.771   2.211   9.716 -0.5202  0.1837 -0.0883
  697MOL0     C93994   8.785   2.072   9.723  0.0405  0.2862 -0.4170
  697MOL0     O93995   8.867   2.017   9.632  0.9368 -0.1351  0.3081
  697MOL0     C93996   8.922   1.893   9.664 -0.5887 -0.3833 -0.5661
  697MOL0     C93997   9.018   1.849   9.547  0.5720  0.4875 -0.1815
  697MOL0     C93998   9.110   1.744   9.584  0.3382  1.3613 -1.5962
  697MOL0     C93999   9.172   1.689   9.464  0.6544  0.7440 -0.8103
  697MOL0     C94000   9.235   1.550   9.500 -0.0390 -0.3619  0.4064
  697MOL0     C94001   9.346   1.519   9.402  0.0234  0.4588  0.6874
  697MOL0     C94002   9.429   1.399   9.455 -0.0586 -0.2782  0.2703
  697MOL0     C94003   9.550   1.359   9.373 -0.0056 -0.2066 -0.4032
  697MOL0    Cl94004   9.716   1.400   9.435 -0.1146 -0.3337 -0.0639
  697MOL0     C94005   8.706   1.997   9.817  1.0558  0.3082  0.8528
  697MOL0     C94006   8.623   2.065   9.906 -0.5905 -0.7005  0.3882
  697MOL0     O94007   8.349   2.208   9.899  0.0086 -0.1686  0.0437
  697MOL0     C94008   8.379   2.416  10.178 -1.1127  0.3583 -0.6602
  697MOL0     C94009   8.306   2.509  10.247  0.1652  1.2978 -0.5274
  697MOL0     N94010   7.689   3.000  10.414 -0.9326  0.2874  0.0156
  697MOL0     N94011   7.574   3.025  10.466  0.2366 -0.1370  0.6846
  697MOL0     C94012   6.249   3.096  10.566  0.2585 -0.3431  1.3661
  697MOL0     C94013   6.142   3.126  10.643 -1.0050 -0.6140 -0.4977
  697MOL0     C94014   5.935   3.186  11.064 -0.7235 -0.2086  1.3887
  697MOL0     C94015   5.822   3.115  11.015 -0.6424 -1.1429 -0.1969
  697MOL0     C94016   5.690   3.132  11.070 -0.8964  0.4248 -0.1503
  697MOL0     C94017   5.669   3.214  11.184 -0.9702 -1.1775  0.4487
  697MOL0     O94018   5.546   3.231  11.230  0.1549 -0.7092 -0.6400
  697MOL0     C94019   5.523   3.272  11.363  0.3705  0.3586  0.0910
  697MOL0     C94020   5.379   3.238  11.400  0.4042 -0.7689  0.4842
  697MOL0     C94021   5.330   3.319  11.527  0.7414  0.1952 -0.4214
  697MOL0     C94022   5.346   3.254  11.663 -0.5187 -1.4140 -0.4883
  697MOL0     C94023   5.482   3.252  11.723  0.3503 -0.3383  0.1102
  697MOL0     C94024   5.581   3.229  11.793 -0.4136  0.5360 -0.1165
  697MOL0     C94025   5.780   3.279  11.231 -0.1813  0.2168 -0.4207
  697MOL0     C94026   5.906   3.276  11.169 -0.3679 -0.1039 -0.2292
  697MOL0     C94027   6.017   3.365  11.218 -0.6811  0.3013 -1.4851
  697MOL0     H94028   6.249   2.981  10.933 -1.1184  2.1695  0.3245
  697MOL0     H94029   6.440   2.940  10.790 -1.4106 -0.0716 -0.6163
  697MOL0     H94030   6.637   3.050  10.647  0.8732  2.8494 -2.4982
  697MOL0     H94031   6.583   2.882  10.618  3.1983  0.9009  0.3973
  697MOL0     H94032   6.687   3.052  10.405 -4.7046  1.0157  1.5976
  697MOL0     H94033   6.691   2.878  10.400  0.3761  1.0273 -1.5730
  697MOL0     H94034   6.864   2.877  10.573 -0.3227  1.0024  0.6651
  697MOL0     H94035   6.846   3.041  10.613 -2.7745 -0.5475  1.1948
  697MOL0     H94036   6.904   2.966  10.323  2.5085 -1.0415 -0.7244
  697MOL0     H94037   6.928   3.118  10.402  1.2131  1.0571  3.8412
  697MOL0     H94038   7.090   2.851  10.451  1.2835 -1.3077 -3.9688
  697MOL0     H94039   7.148   2.972  10.349 -0.1617 -2.2740  0.6733
  697MOL0     H94040   7.114   3.127  10.582 -3.9823 -0.8034 -1.8807
  697MOL0     H94041   7.157   2.965  10.651  0.2590 -1.8393 -0.9291
  697MOL0     H94042   7.339   3.126  10.597 -0.3521 -0.5972  2.5376
  697MOL0     H94043   7.323   3.067  10.431 -0.0758 -1.0276 -0.0869
  697MOL0     H94044   7.391   2.900  10.675  3.4408 -1.1008 -0.3323
  697MOL0     H94045   7.323   2.819  10.537  1.5539 -0.8402 -1.4147
  697MOL0     H94046   7.556   2.711  10.480 -0.1724  0.9500  1.5109
  697MOL0     H94047   7.824   2.695  10.369 -0.7820  0.4452  1.5814
  697MOL0     H94048   7.821   2.823  10.242  2.8980  2.6898 -0.4427
  697MOL0     H94049   7.926   2.957  10.460  3.9346  1.6574 -3.1779
  697MOL0     H94050   7.969   2.790  10.501 -1.2425  1.6792  2.3353
  697MOL0     H94051   8.151   2.906  10.379  1.6934  1.3459 -2.2393
  697MOL0     H94052   8.030   2.967  10.255 -2.3947 -2.1808 -1.9886
  697MOL0     H94053   8.169   2.790  10.145 -0.5774 -1.9372 -0.3953
  697MOL0     H94054   8.002   2.737  10.159 -0.3878  2.7151 -0.6285
  697MOL0     H94055   8.026   2.544  10.063 -2.9142 -3.2986  2.7407
  697MOL0     H94056   8.134   2.352   9.946  1.2032 -0.3654 -0.9323
  697MOL0     H94057   8.687   2.381   9.806 -1.4328  0.1657  2.1534
  697MOL0     H94058   8.824   2.263   9.636 -0.0028  1.1056  0.8285
  697MOL0     H94059   8.982   1.904   9.754 -0.7375  0.2745 -0.5466
  697MOL0     H94060   8.852   1.809   9.668  1.5829 -2.2954 -0.8904
  697MOL0     H94061   8.948   1.829   9.466  1.1845 -1.1397 -0.3582
  697MOL0     H94062   9.078   1.935   9.514  0.2746  1.1044  0.8332
  697MOL0     H94063   9.190   1.770   9.655  1.1790  2.9464 -3.0602
  697MOL0     H94064   9.053   1.663   9.631  2.0380 -1.3643 -3.8740
  697MOL0     H94065   9.256   1.747   9.424  1.4150 -0.0369 -0.3832
  697MOL0     H94066   9.087   1.668   9.399 -1.3745  0.7501  1.6653
  697MOL0     H94067   9.158   1.473   9.498  0.1755 -0.5746 -0.9655
  697MOL0     H94068   9.284   1.553   9.597 -0.2406 -2.5787  0.6242
  697MOL0     H94069   9.311   1.501   9.300  3.1521  0.7362 -0.5397
  697MOL0     H94070   9.424   1.595   9.393  0.1004  0.4162  0.9840
  697MOL0     H94071   9.361   1.315   9.472 -2.8322  1.8729  0.5480
  697MOL0     H94072   9.468   1.441   9.548 -0.6866  2.7709 -0.7362
  697MOL0     H94073   9.559   1.251   9.360  3.5312 -0.0662 -0.1130
  697MOL0     H94074   9.532   1.397   9.272  1.4668 -0.8486 -0.9461
  697MOL0     H94075   8.705   1.889   9.810  3.0063  0.1720  2.0471
  697MOL0     H94076   8.561   2.021   9.983  2.0019 -1.2600  2.2978
  697MOL0     H94077   8.482   2.392  10.203 -0.8075 -0.8701 -2.7641
  697MOL0     H94078   8.355   2.567  10.324  2.0870  0.2184 -0.8665
  697MOL0     H94079   6.237   3.121  10.461 -1.1247 -0.3794  1.5007
  697MOL0     H94080   6.061   3.184  10.601  0.8712  2.6696  0.0852
  697MOL0     H94081   5.821   3.041  10.936  0.1606 -0.8590 -0.4778
  697MOL0     H94082   5.602   3.079  11.035 -0.7362 -0.2414  0.4299
  697MOL0     H94083   5.536   3.380  11.368 -0.0551  0.8424 -4.7819
  697MOL0     H94084   5.594   3.229  11.434 -0.0348  1.2823  1.0940
  697MOL0     H94085   5.369   3.130  11.417  0.4566 -1.0974 -1.3439
  697MOL0     H94086   5.325   3.261  11.308  0.5200  0.8144  0.7899
  697MOL0     H94087   5.227   3.353  11.524  0.7445  0.1591 -3.0722
  697MOL0     H94088   5.402   3.400  11.543  3.0602 -2.1901  2.5785
  697MOL0     H94089   5.281   3.302  11.737  1.3717  0.2485  0.1961
  697MOL0     H94090   5.315   3.150  11.656  0.5332 -2.1664  3.7198
  697MOL0     H94091   5.675   3.206  11.839  0.0288  0.5992 -0.9691
  697MOL0     H94092   5.771   3.346  11.316 -2.1487 -1.2269  0.5880
  697MOL0     H94093   5.982   3.433  11.296  0.1689 -0.0861 -0.7444
  697MOL0     H94094   6.097   3.317  11.276 -2.4002 -0.8656  0.0296
  697MOL0     H94095   6.057   3.417  11.131 -0.8458  1.2571 -1.0072
  698MOL0     O94096   0.432   0.908   3.129 -0.7381  0.4895  0.1845
  698MOL0     C94097   0.484   0.972   3.041  0.0989  0.2070 -1.5107
  698MOL0     O94098   0.599   0.936   2.973 -0.1353 -0.3275  0.4376
  698MOL0     C94099   0.690   0.849   3.031 -0.2682 -0.5097 -0.2557
  698MOL0     C94100   0.738   0.854   3.161 -0.5438 -0.6911 -0.5992
  698MOL0     C94101   0.844   0.769   3.200  0.2559  0.4460  0.4504
  698MOL0     C94102   0.891   0.673   3.105 -0.1757 -0.7477 -0.6619
  698MOL0     O94103   0.987   0.581   3.146 -1.1310 -0.5243 -0.5150
  698MOL0     C94104   1.122   0.637   3.151 -0.7772  0.0742  0.3975
  698MOL0     C94105   1.226   0.547   3.220 -1.1356  0.7906 -0.0651
  698MOL0     C94106   1.210   0.546   3.369  0.0759 -0.6329  0.0110
  698MOL0     C94107   1.321   0.461   3.434 -0.0597 -0.4038 -0.2250
  698MOL0     C94108   1.452   0.549   3.441  1.1818  0.0084  0.7577
  698MOL0     C94109   1.560   0.490   3.543  1.0554  0.4148  0.4632
  698MOL0     C94110   1.595   0.339   3.518 -0.1101  0.0271 -0.2681
  698MOL0     C94111   1.631   0.304   3.368 -0.3523  0.9146  0.6292
  698MOL0     N94112   1.741   0.215   3.346  0.2114  0.2973 -0.6206
  698MOL0     C94113   1.717   0.085   3.331  0.3873  0.6772 -0.8205
  698MOL0     C94114   1.844   0.029   3.322  0.4344 -0.5960  0.7225
  698MOL0     C94115   1.884  -0.097   3.263 -0.6428 -0.4311 -1.0179
  698MOL0     C94116   1.824  -0.212   3.349  0.2820  0.2440 -0.1615
  698MOL0     C94117   1.867  -0.355   3.292  0.8225 -0.7255  0.9029
  698MOL0     C94118   2.005  -0.403   3.323 -0.6546  0.7279  0.0067
  698MOL0     O94119   2.025  -0.524   3.255 -0.1483  0.3247  0.2736
  698MOL0     C94120   2.152  -0.569   3.230  0.8196  0.8026 -0.4219
  698MOL0     C94121   2.158  -0.689   3.156 -0.2979  0.2836  0.4491
  698MOL0     C94122   2.273  -0.749   3.112 -0.4641  0.2920  0.6466
  698MOL0     C94123   2.399  -0.698   3.162  0.8746 -0.6243  0.6626
  698MOL0     C94124   2.525  -0.776   3.133  0.4026 -0.4694 -0.3072
  698MOL0     O94125   2.639  -0.709   3.165 -0.0975  0.6369 -0.3359
  698MOL0     C94126   2.755  -0.757   3.128  0.1183 -0.0757 -0.1318
  698MOL0     C94127   2.801  -0.740   2.996  0.2632  0.0629  0.1246
  698MOL0     C94128   2.928  -0.777   2.949  0.7108 -0.0820 -0.1038
  698MOL0     C94129   3.017  -0.843   3.040  0.5521  0.9784 -0.9258
  698MOL0     O94130   3.144  -0.890   3.024  0.6868 -0.1767  0.3802
  698MOL0     C94131   3.218  -0.854   2.916 -0.1458 -0.5987  0.3361
  698MOL0     C94132   3.366  -0.886   2.961 -0.6239 -1.1596 -0.1509
  698MOL0     C94133   3.457  -0.819   2.839  0.2773 -0.4533  0.1262
  698MOL0     C94134   3.480  -0.676   2.853 -0.1280  0.0755 -0.2494
  698MOL0     C94135   3.600  -0.619   2.778 -0.1193  0.2388 -0.7228
  698MOL0     C94136   3.590  -0.647   2.626 -0.3612 -0.4001  0.2470
  698MOL0     C94137   3.716  -0.585   2.558  0.8348  0.8476  0.7474
  698MOL0     C94138   3.690  -0.484   2.446  0.4909  0.0284  0.5181
  698MOL0    Cl94139   3.659  -0.320   2.506  0.3763 -0.3412 -0.1003
  698MOL0     C94140   2.967  -0.863   3.166  0.0945  0.2433 -0.4401
  698MOL0     C94141   2.843  -0.816   3.212  0.8014  0.5722  0.5461
  698MOL0     O94142   2.515  -0.892   3.093  0.6195  0.8044 -0.5114
  698MOL0     C94143   2.390  -0.593   3.250  0.1220  0.1828 -0.0327
  698MOL0     C94144   2.275  -0.527   3.281  0.8691 -0.9549 -0.1569
  698MOL0     N94145   1.933   0.138   3.319 -0.3977  0.8016  0.1677
  698MOL0     N94146   1.870   0.244   3.348 -0.5093  0.5388  0.4536
  698MOL0     C94147   0.844   0.674   2.977  0.1827 -0.3048  0.4115
  698MOL0     C94148   0.744   0.761   2.939 -0.0141  0.9928 -0.2455
  698MOL0     C94149   0.419   1.097   2.997 -0.2340 -0.3419 -0.3605
  698MOL0     C94150   0.485   1.171   2.899  0.3760  1.0244 -0.3603
  698MOL0     C94151   0.442   1.283   2.836  0.0302 -0.1885  0.4134
  698MOL0     C94152   0.318   1.331   2.874  0.4439  0.3141  0.5141
  698MOL0     O94153   0.244   1.426   2.813 -0.0550  0.1828 -0.4531
  698MOL0     C94154   0.282   1.569   2.842 -0.2195 -0.3278 -0.1994
  698MOL0     C94155   0.291   1.644   2.717 -0.4568  0.3935 -0.3447
  698MOL0     C94156   0.414   1.584   2.635  0.7967  0.3851 -0.3920
  698MOL0     C94157   0.426   1.635   2.490  0.0075  0.4103 -0.4024
  698MOL0     C94158   0.305   1.635   2.405 -0.1687 -0.6511  0.9511
  698MOL0     C94159   0.210   1.643   2.333  0.0699  0.4336  0.3052
  698MOL0     C94160   0.249   1.271   2.984  0.6059  0.5271 -0.9524
  698MOL0     C94161   0.293   1.156   3.044  0.4116 -0.0526 -0.0267
  698MOL0     C94162   0.206   1.106   3.150 -0.6565 -0.4431  0.5934
  698MOL0     H94163   0.699   0.919   3.239 -0.6762 -0.5488 -0.7824
  698MOL0     H94164   0.864   0.768   3.307 -0.5137 -3.9241  0.7290
  698MOL0     H94165   1.154   0.643   3.047 -2.5670  0.1569 -0.1958
  698MOL0     H94166   1.128   0.743   3.176 -1.3684 -0.2279  1.9448
  698MOL0     H94167   1.324   0.582   3.187 -0.6769 -1.6271 -1.5260
  698MOL0     H94168   1.207   0.444   3.187 -0.4517  0.9093 -0.8672
  698MOL0     H94169   1.115   0.500   3.400 -0.3332 -0.0870 -0.4112
  698MOL0     H94170   1.213   0.646   3.412 -4.8666 -1.0896  2.1134
  698MOL0     H94171   1.291   0.437   3.536 -1.2672 -0.5605 -0.6085
  698MOL0     H94172   1.332   0.367   3.378  0.4958 -0.6780  0.3308
  698MOL0     H94173   1.499   0.551   3.343 -0.3452 -0.9875 -0.0395
  698MOL0     H94174   1.431   0.653   3.465  1.9340  0.1059  1.0029
  698MOL0     H94175   1.649   0.553   3.547  2.4297 -1.3576 -0.7626
  698MOL0     H94176   1.509   0.496   3.640 -2.3661 -5.1074 -0.5612
  698MOL0     H94177   1.513   0.272   3.545 -1.6824  0.8051 -2.7946
  698MOL0     H94178   1.683   0.319   3.580  0.2424 -0.9622 -1.0661
  698MOL0     H94179   1.545   0.264   3.313 -0.3979  0.0809  1.2909
  698MOL0     H94180   1.654   0.403   3.327 -1.4953  0.1364 -2.1234
  698MOL0     H94181   1.619   0.038   3.326  2.0439 -3.3390  0.1608
  698MOL0     H94182   1.848  -0.106   3.160  0.1680 -1.4955 -1.2283
  698MOL0     H94183   1.992  -0.101   3.250 -0.5484  0.1560 -0.4432
  698MOL0     H94184   1.865  -0.215   3.450  0.1672  2.3470  0.0037
  698MOL0     H94185   1.715  -0.205   3.348  0.2578 -0.1140 -0.3591
  698MOL0     H94186   1.857  -0.352   3.183  1.9132  1.4117  0.8009
  698MOL0     H94187   1.803  -0.432   3.334  0.7783 -0.6781  0.9224
  698MOL0     H94188   2.017  -0.426   3.429 -0.2272 -1.8426 -0.5248
  698MOL0     H94189   2.082  -0.329   3.298  1.1355 -1.6151 -1.9680
  698MOL0     H94190   2.071  -0.726   3.103  0.8850  0.4802 -1.7546
  698MOL0     H94191   2.263  -0.838   3.050  0.1603 -0.7034  1.9245
  698MOL0     H94192   2.737  -0.693   2.922 -2.1882 -3.1635 -0.0333
  698MOL0     H94193   2.954  -0.767   2.844 -0.0050  2.5365 -0.1041
  698MOL0     H94194   3.188  -0.899   2.821 -0.6633 -0.6433  0.5219
  698MOL0     H94195   3.217  -0.745   2.902  1.3888 -0.4209  1.4064
  698MOL0     H94196   3.391  -0.843   3.058 -1.5179 -0.1201 -0.3623
  698MOL0     H94197   3.360  -0.995   2.964 -2.1531 -1.0949 -0.3007
  698MOL0     H94198   3.549  -0.877   2.850 -0.0770 -0.6400  2.8657
  698MOL0     H94199   3.397  -0.842   2.750  0.6368 -1.0836  0.0381
  698MOL0     H94200   3.489  -0.653   2.959  0.0906 -1.0630 -0.0114
  698MOL0     H94201   3.391  -0.619   2.822 -0.5918  0.9753  2.4799
  698MOL0     H94202   3.683  -0.674   2.825 -3.0718 -2.9705  1.1901
  698MOL0     H94203   3.610  -0.511   2.788  0.4057  0.0089  1.7927
  698MOL0     H94204   3.586  -0.753   2.599 -1.5963  0.1574 -2.0440
  698MOL0     H94205   3.504  -0.603   2.576  1.1263  0.1351 -2.0433
  698MOL0     H94206   3.784  -0.661   2.520 -1.5236 -1.1592  0.2819
  698MOL0     H94207   3.783  -0.528   2.623  0.9259 -0.1004  1.5033
  698MOL0     H94208   3.782  -0.478   2.387  0.8838  0.8343  1.1927
  698MOL0     H94209   3.609  -0.521   2.383  0.2242  1.4674 -0.0103
  698MOL0     H94210   3.019  -0.919   3.242  0.3158  1.0165 -0.0153
  698MOL0     H94211   2.810  -0.838   3.313  2.0695 -2.2757  0.4359
  698MOL0     H94212   2.475  -0.558   3.309 -0.2493 -0.4957  0.9278
  698MOL0     H94213   2.282  -0.441   3.346 -1.6478 -0.7006 -0.1217
  698MOL0     H94214   0.883   0.599   2.908 -0.2976 -0.9878  0.8632
  698MOL0     H94215   0.703   0.757   2.838 -0.3114  1.5980 -0.1562
  698MOL0     H94216   0.585   1.142   2.867 -0.5539 -2.2237 -0.7315
  698MOL0     H94217   0.499   1.328   2.756 -1.5405  0.1579 -0.5566
  698MOL0     H94218   0.381   1.579   2.887  0.7120 -1.7788 -1.7900
  698MOL0     H94219   0.214   1.611   2.917  0.4570  1.1444 -0.3918
  698MOL0     H94220   0.321   1.746   2.743  1.1279  0.1392 -1.0071
  698MOL0     H94221   0.202   1.642   2.654  1.8230 -5.2266 -4.2215
  698MOL0     H94222   0.411   1.474   2.633  1.5748  0.3265  0.4503
  698MOL0     H94223   0.508   1.594   2.691  0.9771  1.0022 -0.8052
  698MOL0     H94224   0.441   1.743   2.498 -3.6811  0.9543  0.7340
  698MOL0     H94225   0.508   1.577   2.446 -0.1856  0.7869 -1.2798
  698MOL0     H94226   0.121   1.645   2.274  1.0370 -1.7033 -1.3617
  698MOL0     H94227   0.158   1.316   3.023  0.5783  0.6488 -1.1561
  698MOL0     H94228   0.272   1.047   3.215  1.1970  1.9886  1.0846
  698MOL0     H94229   0.153   1.175   3.217 -2.1854  0.5650 -1.5465
  698MOL0     H94230   0.138   1.049   3.086  2.2940 -1.0287 -2.2821
  699MOL0     O94231   8.280   3.258   9.471 -0.4546 -0.8449 -0.2482
  699MOL0     C94232   8.282   3.138   9.492 -1.0725  0.0110 -0.1189
  699MOL0     O94233   8.180   3.073   9.558 -0.1917 -0.2512 -0.0997
  699MOL0     C94234   8.051   3.131   9.571  0.3374 -0.7433 -0.1623
  699MOL0     C94235   7.954   3.036   9.611 -0.5514  0.6194  0.0769
  699MOL0     C94236   7.816   3.070   9.616 -1.1878 -0.6722 -0.7833
  699MOL0     C94237   7.773   3.206   9.597 -0.7863 -0.5526  0.3319
  699MOL0     O94238   7.648   3.251   9.603 -0.3299 -0.3858 -1.4082
  699MOL0     C94239   7.563   3.172   9.680 -0.3048  0.0194  0.4585
  699MOL0     C94240   7.427   3.233   9.685  0.1165 -0.3549  0.3277
  699MOL0     C94241   7.335   3.145   9.774 -0.7687  0.4151  0.1799
  699MOL0     C94242   7.188   3.160   9.759  0.3800  0.3366 -0.2239
  699MOL0     C94243   7.113   3.062   9.852  1.2189  0.6218 -0.0879
  699MOL0     C94244   6.961   3.043   9.810 -0.5110  0.8443  0.0810
  699MOL0     C94245   6.903   2.919   9.891  0.1363  0.2032 -0.2459
  699MOL0     C94246   6.757   2.928   9.911 -0.8800  0.6654  0.9933
  699MOL0     N94247   6.711   2.815   9.988  0.0845 -0.0768  0.6453
  699MOL0     C94248   6.721   2.686   9.945 -1.4875  0.5721 -0.1722
  699MOL0     C94249   6.685   2.611  10.056  0.4164  0.9296  0.6658
  699MOL0     C94250   6.666   2.467  10.047 -0.4709  0.2173 -0.3579
  699MOL0     C94251   6.774   2.390  10.109 -0.6798  0.2686 -0.9444
  699MOL0     C94252   6.811   2.251  10.051 -0.5858 -0.3454  0.4643
  699MOL0     C94253   6.895   2.259   9.922 -0.1215 -0.8073 -0.0399
  699MOL0     O94254   7.021   2.325   9.953  0.1887 -0.5992 -0.3023
  699MOL0     C94255   7.128   2.244   9.984  0.1386  0.7520  0.0620
  699MOL0     C94256   7.205   2.271  10.095 -0.0672 -0.3680  0.4615
  699MOL0     C94257   7.321   2.195  10.122 -0.2520 -1.3913  0.2901
  699MOL0     C94258   7.371   2.101  10.033  1.5651  0.1079  0.7337
  699MOL0     C94259   7.499   2.033  10.065 -0.0849 -0.4494 -0.4819
  699MOL0     O94260   7.527   1.930   9.991 -0.9190 -0.0486  0.0489
  699MOL0     C94261   7.644   1.861  10.019 -0.6483  0.9072 -0.2690
  699MOL0     C94262   7.740   1.831   9.915  0.7216 -0.1530  0.9205
  699MOL0     C94263   7.852   1.757   9.931 -0.7239 -1.6515 -0.1355
  699MOL0     C94264   7.879   1.711  10.066  0.0543 -1.1633  0.3691
  699MOL0     O94265   7.998   1.648  10.093 -0.2978 -0.3138  0.1685
  699MOL0     C94266   8.001   1.542  10.187  0.1867  0.1484  0.6294
  699MOL0     C94267   8.141   1.479  10.167  0.2807  0.1547 -0.9754
  699MOL0     C94268   8.183   1.433  10.306  0.7559  0.2330  0.0495
  699MOL0     C94269   8.272   1.308  10.297 -1.6109 -0.3954 -0.6422
  699MOL0     C94270   8.337   1.237  10.416  0.8021  0.1168 -0.3414
  699MOL0     C94271   8.430   1.126  10.359  0.2292 -0.2224 -0.4264
  699MOL0     C94272   8.522   1.059  10.459  0.0769  0.0830 -0.4743
  699MOL0     C94273   8.632   0.973  10.386 -0.1131 -0.2579  0.4487
  699MOL0    Cl94274   8.746   1.063  10.273 -0.0996  0.0636  0.2421
  699MOL0     C94275   7.780   1.730  10.164  0.6270  0.0497 -1.5951
  699MOL0     C94276   7.660   1.795  10.141 -0.4487  0.3642 -0.0501
  699MOL0     O94277   7.558   2.062  10.165 -0.4792  0.2193  0.4901
  699MOL0     C94278   7.290   2.076   9.919 -0.2871 -0.6989  1.1033
  699MOL0     C94279   7.164   2.140   9.902  0.7953  0.7209  0.4836
  699MOL0     N94280   6.654   2.702  10.153  0.8642  0.9991  0.0566
  699MOL0     N94281   6.666   2.821  10.116 -0.3220  0.3541 -1.2819
  699MOL0     C94282   7.872   3.302   9.577 -0.2586  0.1881  0.7743
  699MOL0     C94283   8.006   3.265   9.553  0.0171  0.2635 -0.2692
  699MOL0     C94284   8.404   3.054   9.451 -0.3513  0.6887 -0.2773
  699MOL0     C94285   8.406   2.917   9.505 -0.2427 -0.0518  1.0408
  699MOL0     C94286   8.507   2.829   9.470  0.0300 -0.2087 -0.1192
  699MOL0     C94287   8.610   2.860   9.375  0.0292  0.3196  0.1584
  699MOL0     O94288   8.720   2.775   9.341  0.9115  0.8853 -0.2639
  699MOL0     C94289   8.725   2.644   9.400 -0.5968 -0.2514 -0.1795
  699MOL0     C94290   8.854   2.576   9.343 -0.3280 -0.3583 -1.2210
  699MOL0     C94291   8.916   2.472   9.447 -1.3471  0.4540 -0.2427
  699MOL0     C94292   9.066   2.499   9.462 -0.0248 -0.6064  0.0527
  699MOL0     C94293   9.134   2.391   9.534 -0.4624 -0.8250 -0.1327
  699MOL0     C94294   9.166   2.304   9.610  1.0943  0.4334  0.2886
  699MOL0     C94295   8.605   2.992   9.317 -0.1648 -0.0438  0.5358
  699MOL0     C94296   8.505   3.087   9.358 -0.3348 -0.7402  0.1261
  699MOL0     C94297   8.517   3.230   9.303 -0.4651  0.3730  0.6379
  699MOL0     H94298   8.001   2.941   9.630 -0.9426  0.7829  2.0043
  699MOL0     H94299   7.753   2.990   9.651 -1.1880  0.7334  2.8650
  699MOL0     H94300   7.564   3.069   9.643 -0.4675  0.5926 -1.2583
  699MOL0     H94301   7.610   3.169   9.779  2.4629 -2.2966 -0.7799
  699MOL0     H94302   7.377   3.256   9.591 -2.6304  1.5910  2.0803
  699MOL0     H94303   7.445   3.331   9.731  2.2269 -0.1597 -0.7724
  699MOL0     H94304   7.356   3.152   9.881 -0.3340 -1.2146  0.2253
  699MOL0     H94305   7.367   3.046   9.741 -0.6115  0.8271 -0.9369
  699MOL0     H94306   7.154   3.264   9.769  0.7809  0.2315  3.7902
  699MOL0     H94307   7.166   3.120   9.660 -0.2298 -0.3679  0.1830
  699MOL0     H94308   7.163   2.965   9.852 -0.7507 -0.5741 -3.5913
  699MOL0     H94309   7.120   3.102   9.953 -1.7255 -0.1450  0.5076
  699MOL0     H94310   6.897   3.130   9.826 -0.1694  0.5534  4.3635
  699MOL0     H94311   6.954   3.028   9.702 -4.3816 -0.2417  0.3391
  699MOL0     H94312   6.959   2.911   9.984  1.9296  1.8176 -1.1322
  699MOL0     H94313   6.919   2.828   9.831  1.2447 -0.6020  1.2120
  699MOL0     H94314   6.729   3.021   9.962  0.4170  2.5223 -1.4297
  699MOL0     H94315   6.705   2.928   9.815 -1.9089  0.8224  1.5382
  699MOL0     H94316   6.754   2.654   9.847 -3.1582 -2.4794  0.1326
  699MOL0     H94317   6.580   2.434  10.106  1.5107 -2.9194  1.0757
  699MOL0     H94318   6.664   2.437   9.942  1.5703 -1.4748  0.0152
  699MOL0     H94319   6.859   2.454  10.133 -0.6594 -1.2795  4.3955
  699MOL0     H94320   6.729   2.370  10.207  1.3668 -1.6614 -0.3225
  699MOL0     H94321   6.713   2.210  10.025  0.4280 -0.1614 -4.5440
  699MOL0     H94322   6.863   2.193  10.127  1.8454  1.7986  0.5637
  699MOL0     H94323   6.837   2.313   9.846 -3.5025 -0.2890  2.6646
  699MOL0     H94324   6.910   2.152   9.900 -1.0454 -0.6514 -1.5996
  699MOL0     H94325   7.177   2.337  10.176 -1.2691  1.3357 -1.2743
  699MOL0     H94326   7.370   2.220  10.216 -0.1715 -2.5825  0.5769
  699MOL0     H94327   7.715   1.884   9.823  0.2495  0.1162  1.2006
  699MOL0     H94328   7.929   1.745   9.856  0.0336  1.8204 -0.1015
  699MOL0     H94329   7.984   1.586  10.286 -1.7215  0.8273  0.0557
  699MOL0     H94330   7.927   1.463  10.171  0.8084  0.2615 -4.4892
  699MOL0     H94331   8.128   1.400  10.093 -0.3457  1.1352 -1.9339
  699MOL0     H94332   8.214   1.551  10.128  1.8055  0.1380  1.6234
  699MOL0     H94333   8.236   1.503  10.371  0.7337 -0.4141  0.7768
  699MOL0     H94334   8.095   1.404  10.364  1.8569  0.1795  1.7555
  699MOL0     H94335   8.359   1.333  10.236  1.0719 -2.0673  2.2030
  699MOL0     H94336   8.224   1.223  10.246 -0.5694 -1.5984  0.3293
  699MOL0     H94337   8.249   1.190  10.463 -0.1705  0.1079 -2.0866
  699MOL0     H94338   8.392   1.306  10.480 -1.0510  1.6869 -0.3684
  699MOL0     H94339   8.364   1.053  10.311 -0.8777 -0.0564  0.7773
  699MOL0     H94340   8.492   1.164  10.279 -2.9179 -0.1291 -3.0310
  699MOL0     H94341   8.470   0.988  10.525  3.6372 -2.0214  0.3730
  699MOL0     H94342   8.577   1.134  10.517  0.5667  0.6441 -1.6370
  699MOL0     H94343   8.685   0.925  10.468 -0.6063 -1.3109  0.1854
  699MOL0     H94344   8.576   0.892  10.338 -3.4473  0.8619  2.1412
  699MOL0     H94345   7.797   1.707  10.269 -0.8469  2.1351 -0.8536
  699MOL0     H94346   7.584   1.817  10.215 -0.9031  0.0449 -0.4153
  699MOL0     H94347   7.329   2.010   9.842  1.9162  2.6221 -0.9043
  699MOL0     H94348   7.110   2.100   9.817  2.0642  0.0332 -0.0058
  699MOL0     H94349   7.845   3.407   9.572  0.5154  0.4359  1.5510
  699MOL0     H94350   8.069   3.349   9.525 -1.3237  0.7046 -2.1957
  699MOL0     H94351   8.327   2.887   9.573 -0.9718  3.6157  2.0334
  699MOL0     H94352   8.513   2.733   9.521  0.5087  0.6243  1.4541
  699MOL0     H94353   8.633   2.586   9.390 -0.5481 -0.9738  2.6596
  699MOL0     H94354   8.746   2.672   9.504  0.0278  1.1983 -0.6673
  699MOL0     H94355   8.929   2.652   9.319 -1.0743  1.6563  2.0799
  699MOL0     H94356   8.840   2.523   9.249  0.0966  0.4105 -1.7228
  699MOL0     H94357   8.897   2.368   9.421  0.7632 -0.1770  0.4679
  699MOL0     H94358   8.879   2.491   9.548  0.7952  3.2404  0.1397
  699MOL0     H94359   9.122   2.518   9.370 -3.1550  0.2599 -1.8139
  699MOL0     H94360   9.079   2.592   9.518 -1.6870 -0.0707 -0.4155
  699MOL0     H94361   9.182   2.225   9.680  1.1716  0.6075  0.4696
  699MOL0     H94362   8.689   3.014   9.251  2.8290 -1.3218  3.6288
  699MOL0     H94363   8.431   3.248   9.238 -0.5631  1.5421  1.0586
  699MOL0     H94364   8.525   3.292   9.393 -0.9192  0.5453  0.5593
  699MOL0     H94365   8.606   3.244   9.240  0.3017  1.2833  1.8711
  700MOL0     O94366   8.067   1.504   1.356  0.0055 -0.2253 -0.1264
  700MOL0     C94367   8.105   1.623   1.357 -1.0580 -0.3441 -0.9304
  700MOL0     O94368   8.228   1.682   1.332  0.5164 -0.1017 -0.3724
  700MOL0     C94369   8.342   1.608   1.303 -0.6785  0.6962  0.2949
  700MOL0     C94370   8.348   1.471   1.262  0.3224 -0.5304  1.0026
  700MOL0     C94371   8.469   1.406   1.241  0.0326 -0.3619 -0.1070
  700MOL0     C94372   8.588   1.476   1.259 -0.0436  0.0883  0.3344
  700MOL0     O94373   8.716   1.418   1.246  0.5355  0.5395  0.0263
  700MOL0     C94374   8.731   1.273   1.255 -0.1583 -0.5220 -0.3378
  700MOL0     C94375   8.857   1.226   1.163 -0.5987  0.4365 -0.1346
  700MOL0     C94376   8.985   1.321   1.182  0.9774  0.6881 -0.3375
  700MOL0     C94377   9.108   1.271   1.122  0.5017 -1.3600  0.2660
  700MOL0     C94378   9.217   1.374   1.112 -0.4305  0.0003  0.3835
  700MOL0     C94379   9.283   1.377   1.248  0.8773  0.1163 -0.0772
  700MOL0     C94380   9.396   1.483   1.250 -0.2348  1.2629 -0.1088
  700MOL0     C94381   9.464   1.482   1.385  0.6550 -0.0483  0.8655
  700MOL0     N94382   9.556   1.599   1.384 -0.0742 -0.9017 -0.1459
  700MOL0     C94383   9.690   1.619   1.346 -0.0741  0.1618 -0.2363
  700MOL0     C94384   9.732   1.739   1.383  0.9897  0.1477 -0.2013
  700MOL0     C94385   9.866   1.803   1.375 -0.8326  0.8057 -0.3906
  700MOL0     C94386   9.915   1.853   1.233  0.9354 -0.0753  0.5386
  700MOL0     C94387   9.950   1.730   1.147  0.2159 -0.1372  0.3332
  700MOL0     C94388  10.026   1.760   1.020 -0.1067 -0.2905 -0.2296
  700MOL0     O94389  10.167   1.768   1.052  0.4997  0.1980  0.2539
  700MOL0     C94390  10.259   1.753   0.948  0.5361  0.2872 -0.1880
  700MOL0     C94391  10.224   1.770   0.814 -0.2670  0.0624 -0.0409
  700MOL0     C94392  10.327   1.772   0.719 -0.6677 -0.3289 -0.3539
  700MOL0     C94393  10.458   1.762   0.759 -0.4922 -0.2421 -0.3653
  700MOL0     C94394  10.562   1.758   0.654 -0.1565 -0.5369  0.7412
  700MOL0     O94395  10.691   1.773   0.690  0.1883  0.3166 -0.2688
  700MOL0     C94396  10.791   1.823   0.609 -0.6067 -0.5470  0.1553
  700MOL0     C94397  10.802   1.806   0.476  0.6519  0.3272  0.1451
  700MOL0     C94398  10.903   1.854   0.394  0.5846 -0.0029  0.3029
  700MOL0     C94399  11.001   1.935   0.456  0.1310 -0.1626  0.2684
  700MOL0     O94400  11.086   2.011   0.375 -0.1985 -0.3515 -0.2150
  700MOL0     C94401  11.169   1.937   0.287 -0.1726  0.0710  0.3881
  700MOL0     C94402  11.270   2.038   0.231  1.2457 -0.3206 -0.1708
  700MOL0     C94403  11.356   1.967   0.123  0.0463  1.0445 -0.0704
  700MOL0     C94404  11.416   2.051   0.011 -0.3043  0.8616  0.0469
  700MOL0     C94405  11.502   1.969  -0.078 -0.7134  0.5213  0.2589
  700MOL0     C94406  11.579   2.063  -0.178 -0.8019  0.3842 -0.3918
  700MOL0     C94407  11.706   2.119  -0.110 -0.7491  0.6276  0.1068
  700MOL0     C94408  11.810   2.200  -0.188 -0.4372  0.7602  0.3945
  700MOL0    Cl94409  11.761   2.377  -0.178 -0.6393 -0.7012  0.1538
  700MOL0     C94410  10.996   1.948   0.597 -0.3313 -0.3441  0.5978
  700MOL0     C94411  10.887   1.906   0.667  0.1059 -0.2618 -0.9037
  700MOL0     O94412  10.519   1.770   0.541  0.1026  0.3798  0.0086
  700MOL0     C94413  10.500   1.763   0.895 -0.0837  0.0224 -0.2299
  700MOL0     C94414  10.396   1.751   0.984 -0.0987 -0.3721 -0.5617
  700MOL0     N94415   9.615   1.807   1.430 -0.0460 -0.0049 -0.1897
  700MOL0     N94416   9.515   1.722   1.424 -0.7546 -0.7604  0.9632
  700MOL0     C94417   8.580   1.614   1.291 -0.3562 -1.0113 -0.1364
  700MOL0     C94418   8.455   1.679   1.316  0.2025 -0.2867 -1.5374
  700MOL0     C94419   8.015   1.730   1.400  0.2551 -0.6759  0.6631
  700MOL0     C94420   7.897   1.757   1.331  0.2735 -0.6262 -0.7001
  700MOL0     C94421   7.798   1.848   1.367 -0.4945  0.3813  0.4383
  700MOL0     C94422   7.813   1.918   1.488 -0.2312 -1.2416 -0.0812
  700MOL0     O94423   7.734   2.014   1.539  0.1573  0.0997 -0.5104
  700MOL0     C94424   7.592   1.995   1.537 -0.7257  0.2373  0.1531
  700MOL0     C94425   7.532   2.097   1.444  0.5662 -0.9249  0.3624
  700MOL0     C94426   7.518   2.237   1.526 -0.9274  0.1144 -0.1671
  700MOL0     C94427   7.380   2.282   1.547  0.5913  0.0531  0.1732
  700MOL0     C94428   7.315   2.205   1.650  0.9433  0.2669  0.5589
  700MOL0     C94429   7.263   2.143   1.736 -0.1797 -0.3352 -0.8061
  700MOL0     C94430   7.935   1.899   1.565 -0.7076  0.1077 -0.0030
  700MOL0     C94431   8.036   1.804   1.526 -0.6475  0.0543  0.1036
  700MOL0     C94432   8.163   1.780   1.605 -0.5282 -0.6866 -0.5572
  700MOL0     H94433   8.262   1.413   1.231  1.6527 -0.6225 -3.1535
  700MOL0     H94434   8.469   1.308   1.195  1.9207 -0.1769 -0.5821
  700MOL0     H94435   8.733   1.244   1.360 -2.6902  0.9655  0.2370
  700MOL0     H94436   8.643   1.229   1.207 -2.0501  0.0616  2.3103
  700MOL0     H94437   8.838   1.217   1.056 -0.9402 -0.8980  0.0225
  700MOL0     H94438   8.895   1.134   1.209  0.5551  1.8957  1.9987
  700MOL0     H94439   9.008   1.335   1.288  0.4271 -0.6312 -0.0235
  700MOL0     H94440   8.957   1.418   1.138 -0.8297 -0.1535 -1.1408
  700MOL0     H94441   9.150   1.181   1.169 -1.7217 -2.8020 -0.3638
  700MOL0     H94442   9.080   1.247   1.019 -1.1910  2.7111 -0.4121
  700MOL0     H94443   9.288   1.345   1.033  1.6006  1.5305  1.5264
  700MOL0     H94444   9.185   1.475   1.085  3.0249  1.7075  1.9839
  700MOL0     H94445   9.213   1.400   1.329  2.5477  0.2665  1.3663
  700MOL0     H94446   9.322   1.280   1.280 -1.8677 -1.5063 -1.2690
  700MOL0     H94447   9.364   1.579   1.208 -1.6197  0.6119 -0.6156
  700MOL0     H94448   9.473   1.453   1.179  0.6211  1.4000  0.7410
  700MOL0     H94449   9.397   1.492   1.471  0.7567  2.7363  0.7245
  700MOL0     H94450   9.522   1.392   1.406 -1.3599 -1.3565  1.1006
  700MOL0     H94451   9.749   1.541   1.299  0.1237  1.5881 -2.5071
  700MOL0     H94452   9.855   1.889   1.442 -2.1085 -0.1779  0.7124
  700MOL0     H94453   9.944   1.734   1.407 -2.1023  0.4263  2.1458
  700MOL0     H94454   9.841   1.917   1.184  1.4070  0.8164  0.9738
  700MOL0     H94455  10.007   1.909   1.249  1.2508 -0.7189  1.0113
  700MOL0     H94456   9.852   1.691   1.118  0.1442 -0.8459  1.4454
  700MOL0     H94457   9.995   1.649   1.206 -1.2797 -0.0158  1.7104
  700MOL0     H94458   9.973   1.849   0.985 -1.8558 -2.9408 -5.2120
  700MOL0     H94459  10.009   1.680   0.947 -1.7221 -1.4268  1.2827
  700MOL0     H94460  10.126   1.806   0.783 -0.6399  1.9004  2.9240
  700MOL0     H94461  10.300   1.793   0.617 -2.7795 -0.4913  0.1305
  700MOL0     H94462  10.725   1.746   0.430 -0.1349  2.0414 -0.8923
  700MOL0     H94463  10.909   1.841   0.287  0.3619  1.1632  0.1429
  700MOL0     H94464  11.217   1.856   0.344 -2.6803 -1.8804 -0.1305
  700MOL0     H94465  11.116   1.896   0.202  0.6686  2.6714 -1.5321
  700MOL0     H94466  11.209   2.106   0.172  0.7642 -2.4989 -2.3658
  700MOL0     H94467  11.324   2.080   0.317 -0.2864 -1.8870  1.6482
  700MOL0     H94468  11.441   1.927   0.179 -0.4710  0.9627  0.6633
  700MOL0     H94469  11.297   1.891   0.071  2.2627 -0.2845 -0.7616
  700MOL0     H94470  11.480   2.123   0.064  0.6112 -1.5637  2.4926
  700MOL0     H94471  11.338   2.113  -0.034 -1.2983  2.8689  4.0624
  700MOL0     H94472  11.448   1.888  -0.127 -4.0865  3.7109 -1.8875
  700MOL0     H94473  11.582   1.923  -0.020  1.4986  0.6175 -2.4634
  700MOL0     H94474  11.609   2.010  -0.269 -2.8257  1.2888 -1.6479
  700MOL0     H94475  11.507   2.137  -0.213 -0.0956  0.9514 -0.6712
  700MOL0     H94476  11.768   2.031  -0.092  0.8937  0.0807 -5.9932
  700MOL0     H94477  11.681   2.191  -0.031 -1.7907 -1.6551  1.9787
  700MOL0     H94478  11.909   2.191  -0.143 -1.3247  0.0946  2.3347
  700MOL0     H94479  11.795   2.163  -0.290 -0.0025  2.0123 -0.1491
  700MOL0     H94480  11.067   2.019   0.639 -0.1918 -1.4470  2.2683
  700MOL0     H94481  10.882   1.926   0.774  0.9964  1.7519 -1.1996
  700MOL0     H94482  10.603   1.779   0.925  0.3512  3.4502 -2.8911
  700MOL0     H94483  10.408   1.756   1.091 -3.5923 -3.2848  0.1912
  700MOL0     H94484   8.672   1.669   1.309 -1.6021  0.0786  3.7147
  700MOL0     H94485   8.441   1.780   1.353  2.4054  0.4243 -2.4450
  700MOL0     H94486   7.890   1.696   1.242  0.7829 -0.6686 -0.7161
  700MOL0     H94487   7.704   1.875   1.320  0.6152  3.6783 -0.1816
  700MOL0     H94488   7.549   2.000   1.637  1.4119 -2.4611  1.3288
  700MOL0     H94489   7.561   1.899   1.493 -0.0079  0.1209 -0.1160
  700MOL0     H94490   7.428   2.076   1.417  0.0467  2.3884 -0.5541
  700MOL0     H94491   7.585   2.105   1.349  2.5547 -2.8154  1.2153
  700MOL0     H94492   7.574   2.310   1.467 -2.6698  0.4288 -1.5072
  700MOL0     H94493   7.566   2.232   1.624 -0.6562 -0.6479 -0.3317
  700MOL0     H94494   7.398   2.379   1.593  2.7766 -0.4374  0.4988
  700MOL0     H94495   7.331   2.283   1.449  3.4053 -0.8706 -1.3752
  700MOL0     H94496   7.227   2.072   1.807 -1.1182  0.9394  0.0463
  700MOL0     H94497   7.940   1.962   1.653  1.7512  1.0814 -0.7738
  700MOL0     H94498   8.168   1.671   1.621  3.2377 -0.8239 -1.6091
  700MOL0     H94499   8.254   1.814   1.555 -0.4887 -0.8587 -0.6047
  700MOL0     H94500   8.161   1.827   1.704  0.0578  2.0836 -1.7787
  701MOL0     O94501   7.307   7.750   2.653  0.5245 -0.1217  0.4332
  701MOL0     C94502   7.279   7.637   2.680 -0.5258 -0.3238 -0.0453
  701MOL0     O94503   7.368   7.535   2.674  0.2292  0.2221  0.9951
  701MOL0     C94504   7.498   7.553   2.617  0.6590  0.6912 -0.7501
  701MOL0     C94505   7.512   7.590   2.482  0.7322  0.1831 -0.4864
  701MOL0     C94506   7.639   7.593   2.431  0.4570  0.5732  0.5811
  701MOL0     C94507   7.753   7.577   2.514 -0.5597 -0.0126 -0.3987
  701MOL0     O94508   7.875   7.594   2.460 -1.0303  0.2496  0.0065
  701MOL0     C94509   7.901   7.696   2.363  0.0455 -0.3742  0.2919
  701MOL0     C94510   7.924   7.625   2.225  0.6382  0.1961  0.5184
  701MOL0     C94511   8.023   7.510   2.223 -0.6563  0.8340 -0.5177
  701MOL0     C94512   8.148   7.550   2.299 -0.4037  0.4065 -0.6267
  701MOL0     C94513   8.273   7.472   2.241  0.7677  0.5305  0.1314
  701MOL0     C94514   8.406   7.536   2.270  0.4175  0.2617  0.5131
  701MOL0     C94515   8.421   7.553   2.413  0.4594  0.0050 -0.0716
  701MOL0     C94516   8.570   7.583   2.458  0.2921  0.4607  1.1835
  701MOL0     N94517   8.582   7.581   2.606 -0.3034  0.0761  0.6061
  701MOL0     C94518   8.535   7.663   2.707 -0.1624  0.1111  0.8743
  701MOL0     C94519   8.562   7.589   2.818  0.8835 -0.3992 -0.7049
  701MOL0     C94520   8.542   7.639   2.963 -0.0759  0.5543 -0.2881
  701MOL0     C94521   8.510   7.517   3.059 -0.0236 -0.4403 -0.4254
  701MOL0     C94522   8.640   7.446   3.111  0.7524  0.1792  0.0446
  701MOL0     C94523   8.599   7.317   3.189 -0.6278 -0.3138 -0.0596
  701MOL0     O94524   8.494   7.352   3.283  0.0294  0.0446 -0.3559
  701MOL0     C94525   8.399   7.256   3.305 -0.0665 -0.0037 -0.3879
  701MOL0     C94526   8.434   7.116   3.303 -0.3098  0.0821 -0.0531
  701MOL0     C94527   8.340   7.017   3.330 -0.4797  0.6407  0.2716
  701MOL0     C94528   8.205   7.048   3.359 -0.2761  0.0583  0.3709
  701MOL0     C94529   8.115   6.938   3.390  0.0518  0.6123  0.1289
  701MOL0     O94530   7.979   6.961   3.401 -0.1414  0.4105  0.4229
  701MOL0     C94531   7.893   6.859   3.436 -0.4687  0.7107 -0.3916
  701MOL0     C94532   7.820   6.797   3.338 -1.1930  0.4010  0.3946
  701MOL0     C94533   7.719   6.696   3.374 -0.2291  0.4875  0.9079
  701MOL0     C94534   7.707   6.644   3.504 -0.1344 -0.9474  0.0249
  701MOL0     O94535   7.609   6.549   3.530 -0.0732  0.3909 -0.6152
  701MOL0     C94536   7.646   6.417   3.545  0.0917 -0.2896  0.3334
  701MOL0     C94537   7.548   6.351   3.642 -0.1168 -0.2872 -0.6659
  701MOL0     C94538   7.561   6.418   3.777 -0.0279  0.5989  0.1877
  701MOL0     C94539   7.464   6.531   3.825 -0.0490 -0.1789 -0.2930
  701MOL0     C94540   7.518   6.601   3.955 -0.1121 -0.6524 -0.8541
  701MOL0     C94541   7.478   6.547   4.091 -0.1115  0.0065 -0.6697
  701MOL0     C94542   7.540   6.613   4.216 -0.0054  0.2853 -0.8577
  701MOL0     C94543   7.681   6.570   4.262 -1.3074  0.7957  0.2625
  701MOL0    Cl94544   7.735   6.628   4.424  0.3166  0.1070 -0.3168
  701MOL0     C94545   7.779   6.716   3.606  1.2644 -1.1312  0.2164
  701MOL0     C94546   7.873   6.814   3.570  1.2928  0.5377  0.5627
  701MOL0     O94547   8.162   6.827   3.406 -0.0726  0.4316 -0.7965
  701MOL0     C94548   8.173   7.180   3.354 -0.0456  0.2776  0.4752
  701MOL0     C94549   8.261   7.289   3.331  0.0011 -0.4291  0.1628
  701MOL0     N94550   8.630   7.470   2.784 -0.8159 -0.0207  0.0312
  701MOL0     N94551   8.639   7.468   2.655 -0.0853 -0.5709 -1.3456
  701MOL0     C94552   7.739   7.550   2.654 -0.5337 -0.0857  0.2603
  701MOL0     C94553   7.609   7.525   2.696 -0.6702 -0.4520 -0.1087
  701MOL0     C94554   7.148   7.606   2.732  0.0457  0.8207  0.4875
  701MOL0     C94555   7.113   7.468   2.745 -0.1682 -0.2141 -0.4302
  701MOL0     C94556   7.000   7.428   2.794 -0.0052 -0.1884  0.1989
  701MOL0     C94557   6.897   7.513   2.826 -0.7566 -0.2370 -0.7235
  701MOL0     O94558   6.775   7.467   2.861  0.5270  0.1710 -0.4855
  701MOL0     C94559   6.736   7.329   2.901  0.3074 -0.4485 -0.3205
  701MOL0     C94560   6.707   7.245   2.779  0.2619 -0.1893  0.7988
  701MOL0     C94561   6.584   7.311   2.697 -0.4318 -0.1597  0.1358
  701MOL0     C94562   6.537   7.228   2.581 -0.3338 -0.6282  0.2492
  701MOL0     C94563   6.443   7.315   2.514  0.1407  0.7831 -0.2943
  701MOL0     C94564   6.371   7.377   2.443  0.0068 -0.2951  0.4854
  701MOL0     C94565   6.923   7.647   2.825  0.5508  0.6797  0.5635
  701MOL0     C94566   7.049   7.698   2.773  0.2524 -0.1264 -0.6163
  701MOL0     C94567   7.076   7.848   2.786 -0.3606 -1.3571  1.0243
  701MOL0     H94568   7.421   7.606   2.424 -1.0488 -1.5801  1.6640
  701MOL0     H94569   7.647   7.597   2.323  0.2035  2.7217  0.5916
  701MOL0     H94570   7.813   7.762   2.361 -1.3547 -2.1473  0.6040
  701MOL0     H94571   7.993   7.743   2.399 -2.0126  2.6566  2.0260
  701MOL0     H94572   7.958   7.694   2.147 -2.4116  0.4644 -0.7279
  701MOL0     H94573   7.825   7.600   2.185  0.8711 -0.1281  0.1292
  701MOL0     H94574   8.051   7.487   2.120 -1.3200 -1.0087 -0.3332
  701MOL0     H94575   7.988   7.419   2.273 -1.6240 -0.1324 -2.8282
  701MOL0     H94576   8.168   7.657   2.286 -2.8154  0.7295 -2.3435
  701MOL0     H94577   8.138   7.527   2.405  1.9093  0.4454 -0.3591
  701MOL0     H94578   8.265   7.367   2.271 -0.3475  0.3595 -0.7048
  701MOL0     H94579   8.270   7.472   2.132  0.6484 -3.0405  0.0240
  701MOL0     H94580   8.493   7.482   2.232 -0.5642 -0.3036 -1.0256
  701MOL0     H94581   8.407   7.635   2.223 -2.2033 -1.6143 -4.2054
  701MOL0     H94582   8.382   7.462   2.460 -2.6706  1.2792  0.0213
  701MOL0     H94583   8.357   7.637   2.439  0.0981 -0.5301  0.8303
  701MOL0     H94584   8.636   7.508   2.413 -0.7266  0.5059 -0.5078
  701MOL0     H94585   8.594   7.680   2.414  1.2375 -1.3126 -2.6973
  701MOL0     H94586   8.482   7.757   2.692 -0.5359 -0.2485 -0.1687
  701MOL0     H94587   8.627   7.692   3.006  0.0290  0.3593 -0.2520
  701MOL0     H94588   8.462   7.712   2.945  0.4279  1.4687  1.0483
  701MOL0     H94589   8.457   7.554   3.147  1.1997 -1.8937  0.9913
  701MOL0     H94590   8.462   7.430   3.013  0.7374 -1.3532  0.4528
  701MOL0     H94591   8.705   7.517   3.163  0.3099  2.5536 -2.4035
  701MOL0     H94592   8.688   7.415   3.018 -0.6437 -1.1040 -0.2902
  701MOL0     H94593   8.681   7.267   3.242  0.8162  1.1806 -0.7954
  701MOL0     H94594   8.555   7.247   3.117  1.0876 -1.0485 -0.4529
  701MOL0     H94595   8.541   7.098   3.298 -0.4728 -1.7660  1.7711
  701MOL0     H94596   8.360   6.910   3.331 -2.1069  0.1108  5.7568
  701MOL0     H94597   7.834   6.831   3.236  3.9264  0.5770  0.8672
  701MOL0     H94598   7.650   6.652   3.302  0.4940 -0.1572  0.5980
  701MOL0     H94599   7.643   6.379   3.443  0.9562  3.5368 -1.2925
  701MOL0     H94600   7.750   6.408   3.580  0.8036 -0.1535 -1.6392
  701MOL0     H94601   7.445   6.336   3.608  0.1102 -2.0551 -0.6722
  701MOL0     H94602   7.574   6.246   3.652 -0.3603 -0.2939 -0.0770
  701MOL0     H94603   7.532   6.338   3.846 -1.1567 -0.2144 -1.1801
  701MOL0     H94604   7.664   6.451   3.791  0.0958  1.0467 -1.5417
  701MOL0     H94605   7.366   6.483   3.833  0.0487 -0.3806 -0.3121
  701MOL0     H94606   7.449   6.608   3.749 -1.1483 -1.3238 -1.2751
  701MOL0     H94607   7.481   6.704   3.962 -2.0603 -1.4316  3.0585
  701MOL0     H94608   7.626   6.613   3.942 -0.1455  0.7432 -0.0028
  701MOL0     H94609   7.370   6.542   4.109  0.2819  1.1225  2.7238
  701MOL0     H94610   7.514   6.444   4.087 -0.2530 -0.0433 -0.6711
  701MOL0     H94611   7.490   6.592   4.311 -1.2487  0.2826 -1.4957
  701MOL0     H94612   7.539   6.722   4.208  1.4271  0.4902  1.0669
  701MOL0     H94613   7.680   6.461   4.254 -0.1568  0.9068 -2.3246
  701MOL0     H94614   7.747   6.607   4.183 -2.9869 -0.5834 -1.9149
  701MOL0     H94615   7.761   6.682   3.707 -1.3034 -1.6976 -0.3511
  701MOL0     H94616   7.915   6.872   3.652 -1.2127 -0.1201  2.4438
  701MOL0     H94617   8.068   7.209   3.355  0.5635  2.8156  2.5001
  701MOL0     H94618   8.226   7.391   3.320  0.7669 -0.3708 -2.2598
  701MOL0     H94619   7.825   7.546   2.720 -0.3055  3.8546  0.4155
  701MOL0     H94620   7.583   7.495   2.797 -1.6034  3.0372  0.8181
  701MOL0     H94621   7.184   7.391   2.713  0.9800  1.2160 -1.4668
  701MOL0     H94622   6.999   7.319   2.789  1.9041 -0.1848 -3.1863
  701MOL0     H94623   6.648   7.337   2.965  0.7112  0.4593  0.1436
  701MOL0     H94624   6.810   7.269   2.955 -0.6084 -2.0988 -0.8178
  701MOL0     H94625   6.695   7.142   2.813 -3.0104  0.6010  2.4439
  701MOL0     H94626   6.790   7.245   2.708 -0.1414 -0.0828  0.3205
  701MOL0     H94627   6.625   7.406   2.662  0.4719 -0.0902  1.3253
  701MOL0     H94628   6.504   7.337   2.767  0.0127 -0.0116  0.5958
  701MOL0     H94629   6.616   7.210   2.508 -0.4234  1.4957 -0.4312
  701MOL0     H94630   6.495   7.129   2.604 -0.5992 -0.3237  1.1235
  701MOL0     H94631   6.294   7.432   2.392  2.3969  2.7158 -0.1514
  701MOL0     H94632   6.849   7.713   2.871  1.8065  0.6218  2.8206
  701MOL0     H94633   6.980   7.881   2.826 -1.4486  0.7258 -2.7398
  701MOL0     H94634   7.161   7.866   2.853 -0.4620  0.9426  0.6383
  701MOL0     H94635   7.092   7.902   2.692  0.9208  0.7354  2.3518
  702MOL0     O94636  10.703   3.443   0.467 -0.1385 -0.6009 -0.0686
  702MOL0     C94637  10.645   3.364   0.540 -1.2684  0.7813 -0.9754
  702MOL0     O94638  10.715   3.282   0.631 -0.1307  0.4572 -0.4406
  702MOL0     C94639  10.847   3.303   0.636 -0.4291  0.2749  1.0994
  702MOL0     C94640  10.936   3.205   0.586 -0.2584 -0.9904  0.0063
  702MOL0     C94641  11.071   3.223   0.577 -0.3737  0.5576 -0.2863
  702MOL0     C94642  11.123   3.334   0.641  0.0311  0.3056 -0.1958
  702MOL0     O94643  11.263   3.345   0.649 -0.3520 -0.6324  0.0896
  702MOL0     C94644  11.306   3.477   0.598 -0.7278  0.9873  0.1808
  702MOL0     C94645  11.461   3.481   0.600 -0.0060 -0.2440  0.2070
  702MOL0     C94646  11.532   3.401   0.491  0.4174  0.2105 -0.3186
  702MOL0     C94647  11.679   3.432   0.453 -0.3120  0.3722  0.0781
  702MOL0     C94648  11.675   3.560   0.351 -0.2822  0.3249 -0.3487
  702MOL0     C94649  11.811   3.595   0.290 -0.9336 -0.3313  0.5370
  702MOL0     C94650  11.921   3.623   0.387  0.0597 -0.3979  0.0846
  702MOL0     C94651  12.048   3.667   0.316  0.2499  0.8487  0.6950
  702MOL0     N94652  12.107   3.557   0.230 -0.2499 -0.5277  0.3648
  702MOL0     C94653  12.064   3.528   0.105  0.1260 -0.8668  0.2323
  702MOL0     C94654  12.149   3.432   0.056  0.7871  0.1847 -0.4170
  702MOL0     C94655  12.145   3.373  -0.082 -0.5837  0.0046 -0.0096
  702MOL0     C94656  12.175   3.219  -0.085 -1.0728  0.3274  0.1843
  702MOL0     C94657  12.172   3.181  -0.235 -0.1523  0.0345  0.3413
  702MOL0     C94658  12.304   3.171  -0.312 -0.1996  1.1100 -0.4560
  702MOL0     O94659  12.365   3.041  -0.289  0.4400  0.4437  0.3365
  702MOL0     C94660  12.483   2.999  -0.352 -0.3818 -0.3328  0.2444
  702MOL0     C94661  12.544   2.875  -0.310 -0.8047 -0.7746  0.5160
  702MOL0     C94662  12.666   2.840  -0.367  0.3552 -1.2445  0.2034
  702MOL0     C94663  12.734   2.919  -0.466  0.0156 -0.2116 -0.3343
  702MOL0     C94664  12.864   2.876  -0.530 -0.0305  1.0294  0.5179
  702MOL0     O94665  12.921   2.766  -0.467 -0.1524  0.5102  0.0726
  702MOL0     C94666  13.042   2.721  -0.507 -0.5531 -0.1817 -0.5038
  702MOL0     C94667  13.152   2.699  -0.417  1.0737 -0.7575 -0.0286
  702MOL0     C94668  13.259   2.618  -0.460  0.6246  0.6884 -0.1087
  702MOL0     C94669  13.277   2.567  -0.590 -0.2635  0.3757 -0.0158
  702MOL0     O94670  13.382   2.480  -0.624 -0.3836 -0.2357 -1.0403
  702MOL0     C94671  13.410   2.446  -0.761  0.1293 -0.2446 -0.2885
  702MOL0     C94672  13.480   2.559  -0.837 -0.2658  0.3323 -0.1790
  702MOL0     C94673  13.553   2.506  -0.965  0.2259 -0.2543  0.0608
  702MOL0     C94674  13.594   2.625  -1.053 -0.0954 -0.4049  0.4679
  702MOL0     C94675  13.700   2.578  -1.150 -0.8923  0.3951 -0.3905
  702MOL0     C94676  13.650   2.463  -1.253  0.1498 -0.8192 -0.4663
  702MOL0     C94677  13.771   2.419  -1.334 -0.1597  0.2523 -0.0402
  702MOL0     C94678  13.869   2.321  -1.254 -0.1263 -0.3643 -0.2350
  702MOL0    Cl94679  13.821   2.149  -1.316 -0.2722  0.4508  0.3392
  702MOL0     C94680  13.167   2.588  -0.675  0.2311  0.0353 -0.5648
  702MOL0     C94681  13.053   2.666  -0.635 -0.0488  0.0935 -0.4575
  702MOL0     O94682  12.913   2.936  -0.625  0.0211  0.3618  0.2743
  702MOL0     C94683  12.669   3.034  -0.510 -0.0180 -0.6153  0.7137
  702MOL0     C94684  12.550   3.078  -0.446 -0.7825  0.3206  0.3914
  702MOL0     N94685  12.247   3.412   0.143  0.3377  0.3358 -0.2298
  702MOL0     N94686  12.227   3.489   0.255  0.7850  0.1953  0.7705
  702MOL0     C94687  11.038   3.431   0.702  0.1800  0.4857  0.2510
  702MOL0     C94688  10.904   3.408   0.705  0.4608  0.0811  0.1985
  702MOL0     C94689  10.502   3.342   0.518  0.6880  0.2072 -0.7699
  702MOL0     C94690  10.452   3.208   0.512 -0.4625 -0.4947 -0.0837
  702MOL0     C94691  10.318   3.173   0.506 -0.5093 -0.4911 -0.9314
  702MOL0     C94692  10.226   3.281   0.500 -0.9100 -0.5680  0.4682
  702MOL0     O94693  10.100   3.257   0.475 -0.0608 -0.4312  0.2788
  702MOL0     C94694  10.075   3.199   0.349  0.4708 -0.8916 -0.3322
  702MOL0     C94695   9.997   3.072   0.353  0.5237  0.0325 -0.6728
  702MOL0     C94696   9.866   3.089   0.427 -0.3060  0.6014 -0.3389
  702MOL0     C94697   9.810   2.958   0.492 -0.1526  0.6102 -0.3507
  702MOL0     C94698   9.820   2.843   0.403 -0.6258  0.0519 -0.4297
  702MOL0     C94699   9.824   2.749   0.317  0.4305 -0.1657  0.1522
  702MOL0     C94700  10.274   3.417   0.504  0.2080  0.3142 -0.5616
  702MOL0     C94701  10.407   3.448   0.516  0.2303 -0.6458  0.4802
  702MOL0     C94702  10.441   3.585   0.534 -0.0220 -0.3146  0.4060
  702MOL0     H94703  10.893   3.124   0.527 -1.9598 -0.0473 -0.0993
  702MOL0     H94704  11.136   3.155   0.522 -2.4132 -0.9059 -0.9773
  702MOL0     H94705  11.289   3.489   0.491  0.2012  2.0932  0.1380
  702MOL0     H94706  11.260   3.557   0.657 -4.1840 -0.0984 -0.7887
  702MOL0     H94707  11.486   3.424   0.690  1.9011 -0.1045 -0.1962
  702MOL0     H94708  11.496   3.583   0.588 -0.3906 -0.2988 -1.7001
  702MOL0     H94709  11.464   3.411   0.405  0.9058  1.4134 -0.5898
  702MOL0     H94710  11.528   3.296   0.522  2.1221  0.7098  1.7994
  702MOL0     H94711  11.743   3.462   0.537  2.1910 -0.6020 -1.3553
  702MOL0     H94712  11.731   3.342   0.419 -2.3781 -0.8587  0.0395
  702MOL0     H94713  11.603   3.551   0.269 -0.1901  1.2446 -0.5329
  702MOL0     H94714  11.639   3.651   0.401 -0.0265 -0.0962  0.6319
  702MOL0     H94715  11.835   3.511   0.224 -3.3980 -0.4670 -0.2889
  702MOL0     H94716  11.808   3.680   0.222 -0.7697 -1.3440 -0.7795
  702MOL0     H94717  11.937   3.538   0.453  0.7335  1.0198  1.8392
  702MOL0     H94718  11.890   3.694   0.464  0.7521 -0.5421  0.4970
  702MOL0     H94719  12.023   3.758   0.261 -2.2589  0.5328  1.2117
  702MOL0     H94720  12.121   3.697   0.392 -0.8674  0.7460  1.8347
  702MOL0     H94721  11.972   3.558   0.057  1.3351  3.3312  0.1594
  702MOL0     H94722  12.041   3.382  -0.115 -0.4365 -1.5634 -1.0296
  702MOL0     H94723  12.219   3.423  -0.144 -0.1981 -0.0726  0.3828
  702MOL0     H94724  12.271   3.182  -0.050 -1.1543 -2.5179 -2.2183
  702MOL0     H94725  12.096   3.165  -0.031 -0.0279 -1.7399 -0.2604
  702MOL0     H94726  12.115   3.254  -0.293 -1.2074 -2.4311 -2.0009
  702MOL0     H94727  12.128   3.082  -0.250  0.2374 -0.5195  2.4765
  702MOL0     H94728  12.373   3.250  -0.279 -3.0801  4.2073 -1.3055
  702MOL0     H94729  12.283   3.176  -0.419 -0.2321 -1.2996 -0.5973
  702MOL0     H94730  12.492   2.836  -0.223 -0.2839 -0.0522  1.1707
  702MOL0     H94731  12.710   2.746  -0.336  2.5462 -0.3716 -0.0873
  702MOL0     H94732  13.143   2.749  -0.321 -2.1566  3.0167 -1.9911
  702MOL0     H94733  13.333   2.592  -0.385 -1.0751 -1.2400  0.9862
  702MOL0     H94734  13.465   2.353  -0.745  0.6384  0.1897  0.5232
  702MOL0     H94735  13.320   2.414  -0.816  0.2448  0.1298 -0.6984
  702MOL0     H94736  13.403   2.630  -0.867 -0.6768 -1.0906 -2.8201
  702MOL0     H94737  13.548   2.620  -0.777  1.9674 -1.2819 -0.9156
  702MOL0     H94738  13.641   2.462  -0.915  0.2840  2.7905  2.9938
  702MOL0     H94739  13.489   2.430  -1.010  0.3947  0.1940 -0.9665
  702MOL0     H94740  13.623   2.708  -0.988 -0.1093  0.8725 -1.0923
  702MOL0     H94741  13.511   2.664  -1.114  0.0277 -1.0352 -0.1065
  702MOL0     H94742  13.783   2.548  -1.085 -1.4168 -0.7377 -0.2307
  702MOL0     H94743  13.735   2.654  -1.221 -1.4936 -0.3674 -1.5391
  702MOL0     H94744  13.613   2.374  -1.201 -4.0635 -0.3299 -2.1687
  702MOL0     H94745  13.575   2.504  -1.321 -0.2014 -3.5689 -1.8605
  702MOL0     H94746  13.826   2.509  -1.363 -1.1937  0.3985 -1.6605
  702MOL0     H94747  13.743   2.376  -1.430 -1.5142 -0.0599  0.4712
  702MOL0     H94748  13.971   2.340  -1.289 -0.6456  2.3215 -0.4828
  702MOL0     H94749  13.865   2.345  -1.147 -2.3663 -0.9174 -0.1555
  702MOL0     H94750  13.183   2.556  -0.777 -1.4834 -1.8835 -0.2862
  702MOL0     H94751  12.982   2.681  -0.716  1.7381  0.0559 -2.0981
  702MOL0     H94752  12.714   3.088  -0.593 -2.6243 -3.6459 -3.0975
  702MOL0     H94753  12.511   3.171  -0.488 -2.3593 -1.2945 -1.9542
  702MOL0     H94754  11.083   3.522   0.742  0.2351  0.3620  0.4742
  702MOL0     H94755  10.849   3.457   0.784  0.8247  1.7571 -0.5552
  702MOL0     H94756  10.518   3.122   0.500  0.5337  0.4489 -1.7183
  702MOL0     H94757  10.278   3.072   0.494 -1.5526 -0.0578 -1.2363
  702MOL0     H94758  10.171   3.184   0.299 -0.0085 -0.7014 -1.3462
  702MOL0     H94759  10.026   3.276   0.289  2.2457  1.6116  1.2437
  702MOL0     H94760  10.061   2.997   0.400  0.5738  0.8762  0.6600
  702MOL0     H94761   9.982   3.039   0.250  0.0885  0.0014 -0.6027
  702MOL0     H94762   9.793   3.148   0.371  0.1600  2.6728  1.1068
  702MOL0     H94763   9.869   3.155   0.515 -0.5385 -2.0361  1.7867
  702MOL0     H94764   9.869   2.938   0.582  1.5268  0.2277 -1.4788
  702MOL0     H94765   9.703   2.962   0.514 -0.0983 -0.6577  0.2256
  702MOL0     H94766   9.842   2.666   0.252 -0.3601 -0.4170  0.2495
  702MOL0     H94767  10.201   3.497   0.512 -0.1834 -0.2265  2.5048
  702MOL0     H94768  10.545   3.612   0.554 -1.4102  3.7947  3.3709
  702MOL0     H94769  10.403   3.635   0.444 -3.0943 -2.0204  0.6224
  702MOL0     H94770  10.391   3.617   0.626 -0.2228 -3.9665  1.7233
  703MOL0     O94771   1.333   8.750   3.855 -0.0039  0.1751  0.2075
  703MOL0     C94772   1.428   8.675   3.860 -0.1082  0.7225  0.6404
  703MOL0     O94773   1.422   8.541   3.890 -0.9400 -0.5442  0.6992
  703MOL0     C94774   1.312   8.468   3.894  0.7010 -0.4569  0.2537
  703MOL0     C94775   1.322   8.349   3.831 -0.2721  0.3559 -0.5163
  703MOL0     C94776   1.212   8.259   3.819  0.2491 -0.4258  0.4215
  703MOL0     C94777   1.095   8.300   3.880 -0.6085  0.2054  0.2749
  703MOL0     O94778   0.967   8.235   3.857  0.0695  0.5093 -0.0966
  703MOL0     C94779   0.966   8.135   3.750 -0.0256 -0.1337  0.4731
  703MOL0     C94780   0.823   8.107   3.698 -0.9804 -0.0247 -0.0352
  703MOL0     C94781   0.831   8.002   3.587  0.0694  0.4075 -0.0973
  703MOL0     C94782   0.696   7.945   3.541 -0.5274 -0.2465  0.1518
  703MOL0     C94783   0.712   7.872   3.400  0.7638  0.0944 -0.5170
  703MOL0     C94784   0.798   7.745   3.414 -0.6875  0.6303  0.8507
  703MOL0     C94785   0.808   7.668   3.276 -0.4582 -0.4298 -0.6338
  703MOL0     C94786   0.899   7.739   3.171  0.8694 -0.1441  0.2298
  703MOL0     N94787   1.043   7.741   3.202  0.1333  0.2537  0.4479
  703MOL0     C94788   1.142   7.671   3.139  0.8891 -0.6120 -0.2649
  703MOL0     C94789   1.254   7.740   3.161  0.1702 -0.4311  0.9963
  703MOL0     C94790   1.401   7.702   3.120 -0.2766 -0.1718 -0.2243
  703MOL0     C94791   1.426   7.638   2.988  0.6251 -0.0214 -0.3411
  703MOL0     C94792   1.575   7.585   2.959  0.2221  0.2702 -1.0942
  703MOL0     C94793   1.605   7.563   2.810  0.4934  0.1064 -0.3178
  703MOL0     O94794   1.719   7.478   2.798  0.1820 -0.1453 -0.1669
  703MOL0     C94795   1.839   7.525   2.827 -0.0285 -0.9773  0.5525
  703MOL0     C94796   1.885   7.653   2.821  0.4286  0.6733  0.7420
  703MOL0     C94797   2.018   7.698   2.835  0.3928 -0.9163  1.6362
  703MOL0     C94798   2.115   7.599   2.862  0.0733  0.4070 -0.0407
  703MOL0     C94799   2.258   7.634   2.896 -0.0986  0.7142 -0.4355
  703MOL0     O94800   2.306   7.763   2.862  0.4567 -0.0215 -0.8061
  703MOL0     C94801   2.440   7.796   2.886  0.6742 -0.6510 -0.0317
  703MOL0     C94802   2.456   7.936   2.896  0.4855 -0.4550  0.2739
  703MOL0     C94803   2.588   7.985   2.917 -0.1457 -0.0666 -0.4498
  703MOL0     C94804   2.709   7.903   2.942 -0.0314 -0.9120 -0.7554
  703MOL0     O94805   2.832   7.957   2.964 -0.2702 -0.3175 -0.0484
  703MOL0     C94806   2.945   7.871   2.959 -1.0616  0.3237 -0.5956
  703MOL0     C94807   3.071   7.957   2.989  0.0457 -0.3466 -0.8005
  703MOL0     C94808   3.195   7.864   2.976 -0.4424 -0.0562  0.5124
  703MOL0     C94809   3.336   7.938   2.989 -0.7527 -0.7446  0.1448
  703MOL0     C94810   3.438   7.853   2.915 -0.0426 -0.2105  0.5599
  703MOL0     C94811   3.568   7.925   2.914 -0.2032 -0.4454  0.3471
  703MOL0     C94812   3.644   7.934   3.048  0.0429 -0.0933  0.1021
  703MOL0     C94813   3.793   7.950   3.019 -0.1079 -0.8156 -1.5029
  703MOL0    Cl94814   3.888   7.925   3.181  0.4861 -0.0191 -0.2197
  703MOL0     C94815   2.676   7.766   2.939  0.5653  0.6367  0.4785
  703MOL0     C94816   2.548   7.716   2.901 -0.8690 -0.0494  0.3362
  703MOL0     O94817   2.321   7.547   2.958  0.3103  0.6243 -1.0808
  703MOL0     C94818   2.072   7.469   2.871 -0.1124 -0.5876 -0.1477
  703MOL0     C94819   1.934   7.433   2.847  0.2760  0.3716 -0.4028
  703MOL0     N94820   1.219   7.848   3.249  0.8895 -0.3510 -0.3299
  703MOL0     N94821   1.093   7.853   3.258  0.2509  0.2547  0.3581
  703MOL0     C94822   1.079   8.430   3.937  0.1150  0.4906  0.2172
  703MOL0     C94823   1.184   8.515   3.936 -0.4379 -0.2271 -0.4363
  703MOL0     C94824   1.566   8.720   3.840  0.1413  0.1423 -0.0893
  703MOL0     C94825   1.664   8.621   3.820 -0.0858  0.0920  0.0156
  703MOL0     C94826   1.796   8.652   3.821 -0.1069 -0.3558  0.8357
  703MOL0     C94827   1.837   8.784   3.805 -0.4939 -1.0602  0.0470
  703MOL0     O94828   1.965   8.825   3.803 -1.0195 -0.2359  0.0320
  703MOL0     C94829   2.070   8.727   3.781  0.7312  0.0693 -0.3350
  703MOL0     C94830   2.215   8.785   3.763  1.1135  0.1497  0.1234
  703MOL0     C94831   2.215   8.875   3.637  0.2392 -0.0999  0.3959
  703MOL0     C94832   2.182   8.810   3.500  0.3081 -0.1315 -0.6342
  703MOL0     C94833   2.188   8.921   3.404  0.1361 -0.1390  0.3858
  703MOL0     C94834   2.197   9.014   3.326  0.3532 -0.3534 -0.1893
  703MOL0     C94835   1.740   8.887   3.821  0.2414 -0.3707  0.5553
  703MOL0     C94836   1.603   8.855   3.841  0.5074  0.0344 -0.5920
  703MOL0     C94837   1.508   8.969   3.867 -0.9600  0.1733  0.0239
  703MOL0     H94838   1.413   8.312   3.785  0.4184 -0.7273  1.5886
  703MOL0     H94839   1.211   8.165   3.765 -0.8072 -0.6487  0.8135
  703MOL0     H94840   1.026   8.181   3.670  1.0535 -1.0824  0.7104
  703MOL0     H94841   1.013   8.041   3.778 -0.9111 -0.8676 -0.4349
  703MOL0     H94842   0.775   8.202   3.672  3.3252  2.5188  0.3311
  703MOL0     H94843   0.768   8.066   3.783 -0.7398 -0.2508  0.0131
  703MOL0     H94844   0.896   7.921   3.622  0.4299  0.2971 -0.9788
  703MOL0     H94845   0.879   8.054   3.503 -1.4657  0.7552 -0.7934
  703MOL0     H94846   0.653   7.877   3.616 -2.0114  0.1676 -0.2838
  703MOL0     H94847   0.619   8.022   3.532 -0.2292  0.0988  0.4967
  703MOL0     H94848   0.613   7.845   3.363  0.4401  1.1454 -0.4371
  703MOL0     H94849   0.764   7.932   3.325  0.3834  0.6239 -0.3590
  703MOL0     H94850   0.897   7.780   3.444 -0.2088  0.3210 -0.3467
  703MOL0     H94851   0.758   7.673   3.487 -0.8784 -2.7596 -2.3040
  703MOL0     H94852   0.706   7.659   3.238 -0.8305  1.7029 -0.2286
  703MOL0     H94853   0.838   7.565   3.296 -3.8468 -1.2899  0.5734
  703MOL0     H94854   0.887   7.681   3.079 -0.9435  0.8842 -0.2464
  703MOL0     H94855   0.880   7.843   3.144  0.6763 -0.5755 -1.3491
  703MOL0     H94856   1.133   7.590   3.067 -3.3437  2.3895 -3.6276
  703MOL0     H94857   1.467   7.789   3.124  0.3592 -0.6380  4.4131
  703MOL0     H94858   1.440   7.648   3.207 -1.5949 -1.5037 -0.4177
  703MOL0     H94859   1.359   7.557   2.959 -1.3127  1.8354 -1.3427
  703MOL0     H94860   1.408   7.716   2.914  0.9812  1.0850  0.7069
  703MOL0     H94861   1.604   7.495   3.014  1.0255  1.6987  0.9526
  703MOL0     H94862   1.647   7.657   2.999 -3.0366  1.5521  3.2105
  703MOL0     H94863   1.609   7.656   2.754  1.5247  0.3643  0.1669
  703MOL0     H94864   1.519   7.506   2.772  1.5756  0.3728 -3.4114
  703MOL0     H94865   1.816   7.733   2.794 -0.3108 -0.0092  0.5673
  703MOL0     H94866   2.052   7.800   2.824 -0.8489 -0.6186  0.4061
  703MOL0     H94867   2.369   8.001   2.889  0.3602 -0.4808  1.3375
  703MOL0     H94868   2.609   8.091   2.930  0.1472 -0.2673  0.8864
  703MOL0     H94869   2.930   7.790   3.031  0.6792 -1.4759 -2.1421
  703MOL0     H94870   2.949   7.823   2.861 -0.7938 -1.5739  0.3031
  703MOL0     H94871   3.072   8.036   2.914  1.2750 -1.0317 -1.5519
  703MOL0     H94872   3.065   8.010   3.084  1.4654 -1.2938 -0.1357
  703MOL0     H94873   3.185   7.776   3.041  2.1462  0.2504  1.4574
  703MOL0     H94874   3.195   7.836   2.870  0.7879  0.9460  0.2238
  703MOL0     H94875   3.360   7.967   3.092 -2.2462  1.5445 -0.0839
  703MOL0     H94876   3.327   8.036   2.943  0.5491  0.1010  1.5959
  703MOL0     H94877   3.386   7.841   2.819 -3.8275 -2.5281  2.6668
  703MOL0     H94878   3.458   7.755   2.958 -1.9595 -2.5395 -3.2454
  703MOL0     H94879   3.629   7.873   2.839 -0.7736 -1.6187  0.6714
  703MOL0     H94880   3.564   8.029   2.881  2.8182 -0.3723 -0.0861
  703MOL0     H94881   3.620   7.847   3.110  1.5009  1.2063  2.6556
  703MOL0     H94882   3.609   8.023   3.101  0.1475  0.4340 -0.6953
  703MOL0     H94883   3.829   7.879   2.943  0.5804  0.8442 -2.7908
  703MOL0     H94884   3.811   8.053   2.986 -1.3281  0.1540  0.6858
  703MOL0     H94885   2.750   7.686   2.943 -0.8057 -0.7738 -1.0791
  703MOL0     H94886   2.543   7.610   2.881  1.5509  0.4174 -4.1380
  703MOL0     H94887   2.143   7.396   2.908 -1.1691 -0.3231  2.6572
  703MOL0     H94888   1.914   7.328   2.864  1.1973  0.2864  0.2837
  703MOL0     H94889   0.976   8.447   3.967 -0.8300 -5.0951  1.2257
  703MOL0     H94890   1.169   8.618   3.967  0.4785 -0.1691 -0.1600
  703MOL0     H94891   1.638   8.517   3.839 -0.0552  0.1750  0.5184
  703MOL0     H94892   1.874   8.577   3.813  1.4240  0.8678  3.0865
  703MOL0     H94893   2.047   8.655   3.702 -1.0181 -2.1194  1.9953
  703MOL0     H94894   2.072   8.665   3.871 -0.4251  0.1171 -0.2616
  703MOL0     H94895   2.282   8.698   3.757  0.2397 -0.4423 -1.7121
  703MOL0     H94896   2.247   8.850   3.845  0.7516  3.3235 -2.0984
  703MOL0     H94897   2.312   8.926   3.633 -0.5751  1.4219 -1.7474
  703MOL0     H94898   2.144   8.956   3.657 -0.5744 -1.0812  1.6560
  703MOL0     H94899   2.260   8.737   3.478  0.6855 -0.2814  1.0752
  703MOL0     H94900   2.081   8.768   3.489  0.9331 -2.0523  0.4301
  703MOL0     H94901   2.194   9.092   3.253 -2.8859 -1.2821 -1.1862
  703MOL0     H94902   1.768   8.991   3.806  0.3916 -0.1705  2.0218
  703MOL0     H94903   1.450   8.957   3.959  1.5508  0.4698  1.7371
  703MOL0     H94904   1.570   9.059   3.871  2.3551 -1.7709 -2.2826
  703MOL0     H94905   1.440   8.981   3.782  1.7918  0.9332 -2.2191
  704MOL0     O94906   4.141   1.044   9.592  0.5591  0.8707 -0.1721
  704MOL0     C94907   4.157   0.920   9.595 -0.0131  0.1961 -1.1416
  704MOL0     O94908   4.271   0.853   9.573  0.5837  0.5028  0.2598
  704MOL0     C94909   4.365   0.923   9.503  0.4100  0.5543  0.2842
  704MOL0     C94910   4.461   1.008   9.565  0.5089  0.5469  1.0270
  704MOL0     C94911   4.562   1.065   9.481 -0.5774 -0.6112  0.0952
  704MOL0     C94912   4.573   1.024   9.344 -0.5483  0.1775  0.6696
  704MOL0     O94913   4.675   1.052   9.247  0.0157 -0.0192  0.1189
  704MOL0     C94914   4.798   1.120   9.289  0.5664  0.4498 -0.0489
  704MOL0     C94915   4.888   1.148   9.166  0.4000  0.7894  0.4096
  704MOL0     C94916   4.917   1.018   9.087 -0.6189 -0.0341  0.9904
  704MOL0     C94917   4.957   0.890   9.154  0.3788  0.8493 -0.3480
  704MOL0     C94918   5.102   0.888   9.219 -0.2271  0.3408 -1.2401
  704MOL0     C94919   5.156   0.743   9.231 -0.3025  0.0281 -0.4585
  704MOL0     C94920   5.301   0.730   9.298 -0.1235 -0.5751  0.0866
  704MOL0     C94921   5.338   0.599   9.353 -0.4758 -0.7527  0.6337
  704MOL0     N94922   5.478   0.597   9.409  0.1834 -0.3343 -0.1079
  704MOL0     C94923   5.596   0.620   9.339  0.4939  0.0062  0.5193
  704MOL0     C94924   5.699   0.612   9.433 -0.2659 -0.1987 -0.5108
  704MOL0     C94925   5.842   0.622   9.410  0.6078 -0.1696 -0.2515
  704MOL0     C94926   5.916   0.482   9.402 -0.1171 -0.9843  1.1474
  704MOL0     C94927   5.920   0.420   9.537 -0.2669 -0.2069  0.7030
  704MOL0     C94928   6.047   0.330   9.552  1.1700  0.0130 -0.5744
  704MOL0     O94929   6.061   0.281   9.692  0.6251  0.0236  0.1236
  704MOL0     C94930   6.191   0.262   9.731  0.2400  0.2466  0.2079
  704MOL0     C94931   6.255   0.142   9.694  0.2701 -0.3330  0.1861
  704MOL0     C94932   6.387   0.121   9.728  0.6528  0.6021 -0.1462
  704MOL0     C94933   6.455   0.212   9.818  0.5433  0.2938  0.2578
  704MOL0     C94934   6.598   0.198   9.844  0.9272  0.3397  0.2415
  704MOL0     O94935   6.652   0.279   9.933 -0.6798 -0.8704  0.0066
  704MOL0     C94936   6.780   0.236   9.974  0.9347 -0.5037 -0.5151
  704MOL0     C94937   6.887   0.326   9.964 -0.3881  0.1439  0.3197
  704MOL0     C94938   7.013   0.285   9.992 -0.4116 -0.1283 -0.0882
  704MOL0     C94939   7.041   0.160  10.038 -0.9314 -0.6708  0.3510
  704MOL0     O94940   7.172   0.115  10.043  0.2235  0.7410  0.6193
  704MOL0     C94941   7.232   0.079   9.918 -0.6116 -0.2096  0.7969
  704MOL0     C94942   7.379   0.039   9.928  0.4735 -0.0992 -0.0189
  704MOL0     C94943   7.411  -0.089   9.996 -0.6282  0.5963  0.6918
  704MOL0     C94944   7.404  -0.078  10.145 -0.2583  0.7673 -0.3199
  704MOL0     C94945   7.460  -0.198  10.219 -0.4327 -0.3255  0.6356
  704MOL0     C94946   7.431  -0.205  10.371 -0.4421 -0.7029  0.3663
  704MOL0     C94947   7.517  -0.309  10.453  0.5625 -0.5726  0.6946
  704MOL0     C94948   7.515  -0.299  10.602  0.3815  0.2513 -0.7806
  704MOL0    Cl94949   7.357  -0.346  10.684 -0.1172  0.2323 -0.3784
  704MOL0     C94950   6.935   0.070  10.058  0.5125 -0.2399 -0.0487
  704MOL0     C94951   6.800   0.103  10.023 -0.2004 -0.2787 -0.5154
  704MOL0     O94952   6.651   0.098   9.787  0.3114  0.3110  0.4007
  704MOL0     C94953   6.391   0.332   9.846 -0.4027 -0.2405  0.2577
  704MOL0     C94954   6.262   0.357   9.807 -0.2873  0.7659  0.0632
  704MOL0     N94955   5.633   0.588   9.554 -1.3660 -0.6583 -0.0521
  704MOL0     N94956   5.506   0.576   9.540  0.2455  0.2809  0.9194
  704MOL0     C94957   4.483   0.934   9.283  0.0152 -1.3077 -0.1927
  704MOL0     C94958   4.370   0.899   9.362 -0.5952 -0.6128 -0.6854
  704MOL0     C94959   4.045   0.840   9.627  0.5414 -0.3008  0.9253
  704MOL0     C94960   4.067   0.706   9.619 -0.4444 -0.6457 -0.4784
  704MOL0     C94961   3.969   0.607   9.624  0.2567  0.2874  0.0572
  704MOL0     C94962   3.838   0.647   9.643  0.5056 -0.2025  0.8353
  704MOL0     O94963   3.746   0.546   9.632 -0.4671  0.7173  0.5135
  704MOL0     C94964   3.606   0.570   9.617 -0.1426  0.2283  0.0864
  704MOL0     C94965   3.551   0.453   9.543 -0.3042  0.3877  0.5075
  704MOL0     C94966   3.397   0.442   9.542 -0.5615  0.1567 -0.2970
  704MOL0     C94967   3.338   0.396   9.676  0.3082  0.1761  0.2328
  704MOL0     C94968   3.200   0.354   9.652 -0.5322 -0.9560 -0.6708
  704MOL0     C94969   3.089   0.317   9.633 -0.0562 -1.1448 -0.4877
  704MOL0     C94970   3.805   0.776   9.652  0.5751  0.5447 -1.3174
  704MOL0     C94971   3.902   0.873   9.631 -0.7497  0.2201 -0.2891
  704MOL0     C94972   3.859   1.016   9.645  0.4098  0.4623 -0.0274
  704MOL0     H94973   4.460   1.029   9.672 -2.1595  1.5459  0.8747
  704MOL0     H94974   4.634   1.136   9.520 -1.2152 -0.2125  0.5661
  704MOL0     H94975   4.779   1.216   9.338  2.1006  0.0201  1.4675
  704MOL0     H94976   4.850   1.049   9.353 -0.2151 -0.0444  0.0599
  704MOL0     H94977   4.984   1.187   9.200 -0.6538  2.3266  1.7315
  704MOL0     H94978   4.836   1.215   9.098  1.2386 -0.1348 -1.2163
  704MOL0     H94979   5.000   1.058   9.028 -2.3618  1.6511 -0.4950
  704MOL0     H94980   4.830   1.001   9.022 -0.3034 -1.1008  0.8364
  704MOL0     H94981   4.886   0.855   9.229 -1.3906 -0.8684 -2.6567
  704MOL0     H94982   4.951   0.804   9.086  0.2108  1.0318 -0.5662
  704MOL0     H94983   5.174   0.949   9.163 -0.0556  3.0138  1.6046
  704MOL0     H94984   5.094   0.938   9.316  1.1159  1.8571 -1.8565
  704MOL0     H94985   5.086   0.691   9.297  2.6343 -3.3395  0.2761
  704MOL0     H94986   5.172   0.680   9.143  0.3077  0.3935 -0.6173
  704MOL0     H94987   5.308   0.803   9.380 -2.4199 -1.4115  1.1062
  704MOL0     H94988   5.378   0.758   9.225 -1.4753 -1.6638 -1.8414
  704MOL0     H94989   5.259   0.576   9.425 -1.8190 -0.2293 -0.6216
  704MOL0     H94990   5.316   0.521   9.279 -3.0595  1.5572 -1.2359
  704MOL0     H94991   5.602   0.649   9.234 -0.3188 -0.1691  0.4141
  704MOL0     H94992   5.862   0.668   9.313 -0.5883 -3.1638 -2.0567
  704MOL0     H94993   5.889   0.682   9.489  2.8850 -0.3915 -1.3926
  704MOL0     H94994   5.866   0.418   9.329  0.3327  0.1919 -0.2487
  704MOL0     H94995   6.012   0.494   9.350 -1.6771 -1.0137 -1.9652
  704MOL0     H94996   5.830   0.360   9.554  0.1940 -0.4721  2.4105
  704MOL0     H94997   5.934   0.499   9.611 -1.3390 -0.0156  0.7148
  704MOL0     H94998   6.140   0.377   9.518  2.7616 -2.7845 -0.4081
  704MOL0     H94999   6.036   0.246   9.482 -0.5921 -1.1422  1.0115
  704MOL0     H95000   6.209   0.068   9.630  2.2651 -1.0504 -0.4857
  704MOL0     H95001   6.438   0.030   9.698  3.3199  1.5186  1.2875
  704MOL0     H95002   6.871   0.431   9.940  1.4645  0.5114  0.5734
  704MOL0     H95003   7.098   0.352   9.982 -1.2748  0.8369 -1.0928
  704MOL0     H95004   7.177  -0.004   9.872 -2.7032  1.6841 -0.2927
  704MOL0     H95005   7.223   0.163   9.848  1.8920 -0.5873 -0.1019
  704MOL0     H95006   7.409   0.014   9.826 -3.9752  0.1569 -1.6226
  704MOL0     H95007   7.434   0.120   9.978  1.7586 -2.0544  1.8724
  704MOL0     H95008   7.350  -0.176   9.971  1.1066 -1.2996  2.6046
  704MOL0     H95009   7.513  -0.118   9.970 -1.1971 -0.2250 -0.7245
  704MOL0     H95010   7.300  -0.073  10.179 -0.5779 -1.6309 -0.7519
  704MOL0     H95011   7.453   0.015  10.177  2.1299 -1.4582  3.2526
  704MOL0     H95012   7.568  -0.195  10.198  0.0328 -3.4612  2.0335
  704MOL0     H95013   7.429  -0.289  10.169  2.1800 -0.6524 -0.5745
  704MOL0     H95014   7.437  -0.105  10.414 -0.4004 -0.1927 -0.7985
  704MOL0     H95015   7.325  -0.230  10.376 -0.5209 -0.9119 -1.6823
  704MOL0     H95016   7.622  -0.296  10.424  0.0887 -0.0219 -0.9024
  704MOL0     H95017   7.481  -0.408  10.424 -2.4441  0.2460  1.2569
  704MOL0     H95018   7.582  -0.376  10.640 -1.5202 -1.7375 -1.2629
  704MOL0     H95019   7.545  -0.199  10.634  2.2310  0.3355 -2.5650
  704MOL0     H95020   6.957  -0.029  10.096 -1.0222  0.9304  4.3766
  704MOL0     H95021   6.726   0.025  10.037 -2.6094  2.2651  3.0029
  704MOL0     H95022   6.446   0.407   9.901 -0.1445 -2.0758  2.7095
  704MOL0     H95023   6.216   0.450   9.840  2.4844  2.4197 -0.3966
  704MOL0     H95024   4.472   0.912   9.178  0.3361  0.3903 -0.6094
  704MOL0     H95025   4.288   0.844   9.317 -2.4795 -0.5391  2.3972
  704MOL0     H95026   4.167   0.671   9.598 -0.4306  0.5332 -2.6126
  704MOL0     H95027   3.986   0.501   9.610 -0.1059  0.5134 -2.6427
  704MOL0     H95028   3.585   0.658   9.555 -2.0166 -1.0958 -1.2686
  704MOL0     H95029   3.555   0.586   9.712 -0.3395 -0.0538  0.0287
  704MOL0     H95030   3.590   0.359   9.585  1.2173 -0.2170 -2.0319
  704MOL0     H95031   3.594   0.445   9.443  3.8802 -0.7373  2.1622
  704MOL0     H95032   3.367   0.372   9.464  2.7270 -2.5799  0.6404
  704MOL0     H95033   3.359   0.538   9.507 -2.7752 -0.3504  0.4821
  704MOL0     H95034   3.387   0.310   9.724 -0.2022  0.0216  0.4814
  704MOL0     H95035   3.340   0.477   9.750  0.0072  0.2563  0.1534
  704MOL0     H95036   2.992   0.274   9.616 -1.8852  1.7610  1.7127
  704MOL0     H95037   3.702   0.807   9.662  1.1395  1.6656  2.4958
  704MOL0     H95038   3.856   1.076   9.553 -0.7517  1.2416  0.4888
  704MOL0     H95039   3.758   1.021   9.687  0.1304  0.1110 -0.6393
  704MOL0     H95040   3.923   1.070   9.715  0.0462  0.1967  0.5225
  705MOL0     O95041   4.009   5.857   8.223 -0.3468  0.5635  0.6220
  705MOL0     C95042   3.932   5.923   8.153 -0.5891 -0.3714 -0.2702
  705MOL0     O95043   3.936   5.928   8.023 -0.0313 -0.5675  0.3068
  705MOL0     C95044   4.031   5.881   7.936 -0.7360 -0.2177  0.6178
  705MOL0     C95045   4.166   5.872   7.965 -0.0418 -1.2410 -0.7324
  705MOL0     C95046   4.254   5.851   7.861  0.5444  0.1173 -1.4727
  705MOL0     C95047   4.207   5.811   7.733 -0.6492 -0.1561  0.2209
  705MOL0     O95048   4.277   5.759   7.621  0.3966  0.3015 -0.4726
  705MOL0     C95049   4.402   5.691   7.648 -0.6166 -0.6729 -0.0161
  705MOL0     C95050   4.467   5.633   7.529  0.2206  0.1274 -0.8364
  705MOL0     C95051   4.591   5.566   7.582  0.2124 -0.4846 -0.1880
  705MOL0     C95052   4.672   5.518   7.469 -0.0555  0.4216  0.2565
  705MOL0     C95053   4.797   5.456   7.530 -0.4496 -0.8552  1.6746
  705MOL0     C95054   4.870   5.378   7.422 -0.0697 -0.4162 -0.5928
  705MOL0     C95055   4.965   5.472   7.337  0.0941 -0.5458  0.8773
  705MOL0     C95056   5.014   5.399   7.202  0.0581 -0.1418 -0.1596
  705MOL0     N95057   5.107   5.480   7.120 -0.3214  0.1428 -0.6733
  705MOL0     C95058   5.206   5.553   7.160 -0.5664  0.0657 -0.2684
  705MOL0     C95059   5.267   5.598   7.053  0.8555  0.0143  0.3862
  705MOL0     C95060   5.390   5.679   7.044  0.3248 -0.1061  0.5819
  705MOL0     C95061   5.366   5.837   7.025  0.0687  0.5258 -0.2860
  705MOL0     C95062   5.329   5.866   6.879  0.2479 -0.2358 -0.9837
  705MOL0     C95063   5.448   5.905   6.793  0.8605 -0.4805 -0.0365
  705MOL0     O95064   5.533   5.801   6.767  0.1826 -0.2478  1.3760
  705MOL0     C95065   5.626   5.831   6.670 -0.2137 -0.3314  0.6690
  705MOL0     C95066   5.762   5.817   6.694  0.7944  0.9869 -0.1783
  705MOL0     C95067   5.854   5.829   6.594 -0.2958  0.7299  1.7326
  705MOL0     C95068   5.824   5.858   6.460  1.2443 -1.1546  0.8372
  705MOL0     C95069   5.919   5.867   6.352 -0.0095  0.3018  0.4117
  705MOL0     O95070   6.047   5.837   6.387 -0.1690 -0.4213 -0.0999
  705MOL0     C95071   6.159   5.853   6.305  0.3323 -0.2379 -0.1454
  705MOL0     C95072   6.163   5.907   6.177 -0.0431 -0.6924  0.0900
  705MOL0     C95073   6.286   5.914   6.113  0.7462  0.1408 -0.0430
  705MOL0     C95074   6.411   5.884   6.174 -0.0544 -0.3038 -0.2163
  705MOL0     O95075   6.533   5.896   6.118  0.2944  0.4122  0.2405
  705MOL0     C95076   6.548   5.859   5.978 -0.0175  0.5888 -0.6358
  705MOL0     C95077   6.692   5.796   5.969  0.4141 -1.4819  0.8105
  705MOL0     C95078   6.797   5.908   6.000 -0.4915  0.7862 -0.3203
  705MOL0     C95079   6.930   5.839   5.997 -0.1153  0.5454 -0.0033
  705MOL0     C95080   7.029   5.948   6.030 -0.2810  0.1048 -0.7475
  705MOL0     C95081   7.167   5.886   6.052 -0.3750  1.2126  1.0479
  705MOL0     C95082   7.275   6.000   6.071 -0.4010 -0.2954 -0.1787
  705MOL0     C95083   7.417   5.958   6.077  0.0181  0.5685  0.1126
  705MOL0    Cl95084   7.526   6.092   6.070  0.1425 -0.3370 -0.2622
  705MOL0     C95085   6.403   5.843   6.306  0.4600  0.1487  0.0591
  705MOL0     C95086   6.281   5.827   6.369  0.1054  0.6129 -0.5825
  705MOL0     O95087   5.880   5.881   6.241 -0.2839 -0.2121 -0.1686
  705MOL0     C95088   5.682   5.872   6.434 -1.2437 -0.3014  0.6755
  705MOL0     C95089   5.591   5.850   6.538  0.3365 -0.7979  0.5369
  705MOL0     N95090   5.190   5.569   6.939  0.2175 -0.0714  0.6695
  705MOL0     N95091   5.103   5.486   6.983  0.9268  0.2180  0.5412
  705MOL0     C95092   4.075   5.831   7.706  0.4666 -0.2563 -0.3221
  705MOL0     C95093   3.984   5.859   7.809  0.1956 -0.0880  0.6029
  705MOL0     C95094   3.815   5.996   8.215  0.1589 -0.0111  0.3942
  705MOL0     C95095   3.710   6.033   8.134  0.6677 -1.1446  0.3983
  705MOL0     C95096   3.589   6.100   8.178  0.0183 -0.3157  0.9624
  705MOL0     C95097   3.589   6.131   8.314 -0.0044 -0.4269  0.3586
  705MOL0     O95098   3.486   6.217   8.352 -0.3048  0.1978  0.9958
  705MOL0     C95099   3.418   6.180   8.477 -0.1023 -0.3584  0.7222
  705MOL0     C95100   3.327   6.296   8.521 -0.2477  1.2025 -0.3129
  705MOL0     C95101   3.296   6.271   8.664  0.4257 -0.3917 -0.8741
  705MOL0     C95102   3.166   6.344   8.692 -1.4770  0.0362 -0.9397
  705MOL0     C95103   3.131   6.298   8.832  0.8212 -0.9644 -0.2734
  705MOL0     C95104   3.113   6.234   8.930 -0.1318  0.5730 -0.0887
  705MOL0     C95105   3.695   6.095   8.399 -0.5135 -0.3419  0.2990
  705MOL0     C95106   3.812   6.028   8.353  0.1047 -0.6913  0.2080
  705MOL0     C95107   3.925   5.996   8.453 -1.0163 -0.4321 -0.3198
  705MOL0     H95108   4.192   5.883   8.070 -1.9621  1.6285 -0.4346
  705MOL0     H95109   4.362   5.843   7.872  0.2346 -5.0451  0.8424
  705MOL0     H95110   4.472   5.759   7.696 -1.6431  1.8352 -1.8340
  705MOL0     H95111   4.389   5.606   7.716  0.6673 -1.1882 -0.3836
  705MOL0     H95112   4.496   5.715   7.462 -0.2219 -0.0176 -1.2024
  705MOL0     H95113   4.405   5.553   7.489 -1.2312  0.5818  0.3896
  705MOL0     H95114   4.563   5.481   7.645  1.7587 -0.2613  0.8404
  705MOL0     H95115   4.643   5.645   7.636 -0.7290  0.1635 -0.2071
  705MOL0     H95116   4.620   5.438   7.414  1.1453  0.4057 -0.9160
  705MOL0     H95117   4.698   5.596   7.397  0.8681 -2.4973 -2.8462
  705MOL0     H95118   4.864   5.538   7.556 -1.8614  1.0645 -0.3759
  705MOL0     H95119   4.773   5.391   7.615  0.4893 -0.5909  2.1421
  705MOL0     H95120   4.940   5.307   7.466 -1.2322  0.1216  2.3115
  705MOL0     H95121   4.806   5.322   7.353  0.2535 -2.8032  0.9373
  705MOL0     H95122   5.046   5.514   7.396 -0.1390 -0.7610  1.3561
  705MOL0     H95123   4.904   5.559   7.312  0.2239 -0.7024 -0.0241
  705MOL0     H95124   5.072   5.311   7.230  0.4015 -0.6052 -2.1478
  705MOL0     H95125   4.932   5.355   7.144  0.8602 -0.6656 -0.9246
  705MOL0     H95126   5.240   5.558   7.263  0.2374 -0.1400 -0.5192
  705MOL0     H95127   5.445   5.664   7.138 -1.9675  0.8853  2.1910
  705MOL0     H95128   5.451   5.646   6.960 -1.0515  1.3995 -1.0825
  705MOL0     H95129   5.284   5.859   7.095  0.9140  0.1328  0.8516
  705MOL0     H95130   5.453   5.896   7.053 -1.4836  1.9398  1.8732
  705MOL0     H95131   5.259   5.950   6.887 -2.4651 -2.4769  0.8888
  705MOL0     H95132   5.266   5.784   6.842 -2.8362  1.2867  0.4961
  705MOL0     H95133   5.500   5.993   6.832 -1.7681  0.9204  0.5968
  705MOL0     H95134   5.400   5.942   6.702 -0.6737  3.3291  2.0744
  705MOL0     H95135   5.804   5.808   6.794  1.5076  3.9688 -0.0950
  705MOL0     H95136   5.958   5.804   6.612 -0.5161 -0.6393  1.2165
  705MOL0     H95137   6.073   5.934   6.123  0.4431  2.8294  0.7682
  705MOL0     H95138   6.277   5.955   6.013  1.3118  0.2442 -0.0551
  705MOL0     H95139   6.475   5.780   5.957 -1.2806  1.7556 -0.7344
  705MOL0     H95140   6.521   5.937   5.906  2.4125  0.8288 -1.3982
  705MOL0     H95141   6.709   5.722   6.047 -0.6935 -2.0454  0.5460
  705MOL0     H95142   6.714   5.750   5.872  0.7006  0.9665 -0.3714
  705MOL0     H95143   6.787   5.976   5.914 -2.7238 -1.6401 -2.1054
  705MOL0     H95144   6.780   5.953   6.098  1.3607  0.4432  0.1913
  705MOL0     H95145   6.955   5.777   5.910 -1.6453  0.9944 -0.7940
  705MOL0     H95146   6.921   5.769   6.081 -5.0184  2.1024  1.0671
  705MOL0     H95147   6.993   5.996   6.121  0.7728  0.0185 -0.2701
  705MOL0     H95148   7.035   6.020   5.948 -0.2960  1.4483  0.3924
  705MOL0     H95149   7.165   5.816   6.136 -0.5023 -1.8096 -1.2934
  705MOL0     H95150   7.183   5.828   5.961  0.2719  2.1496  0.5465
  705MOL0     H95151   7.255   6.064   6.157  2.4628 -0.1073  0.4273
  705MOL0     H95152   7.267   6.062   5.982 -1.4882  0.7552  0.6194
  705MOL0     H95153   7.432   5.892   6.163 -1.0947 -0.0833 -0.1731
  705MOL0     H95154   7.439   5.888   5.995 -1.3426  0.4967 -0.2122
  705MOL0     H95155   6.499   5.824   6.352  1.2495 -0.4746 -1.7461
  705MOL0     H95156   6.286   5.775   6.464  0.7307 -0.1505 -1.0241
  705MOL0     H95157   5.655   5.887   6.331  3.1485  0.5420 -0.5711
  705MOL0     H95158   5.487   5.847   6.508  0.4301  0.7640 -0.0620
  705MOL0     H95159   4.029   5.810   7.610 -0.9210  1.6301 -0.1319
  705MOL0     H95160   3.881   5.882   7.785 -0.2841 -0.5544  2.0766
  705MOL0     H95161   3.715   6.022   8.026 -1.3586  1.1640 -0.0295
  705MOL0     H95162   3.506   6.121   8.112  2.8187  0.0827 -2.7818
  705MOL0     H95163   3.485   6.165   8.561  1.0668  0.5893 -0.0044
  705MOL0     H95164   3.371   6.082   8.468  0.9076 -0.6550 -3.9569
  705MOL0     H95165   3.241   6.282   8.454  2.0172 -0.6468 -3.0616
  705MOL0     H95166   3.389   6.384   8.504  1.4755  0.4548  1.7154
  705MOL0     H95167   3.370   6.315   8.731  0.3077 -1.1078 -0.2676
  705MOL0     H95168   3.274   6.167   8.687  0.6185 -0.8097 -2.4293
  705MOL0     H95169   3.200   6.448   8.691  0.7926 -0.6134 -3.9940
  705MOL0     H95170   3.085   6.335   8.619 -1.4944  2.3464 -1.2669
  705MOL0     H95171   3.115   6.186   9.026  0.8779 -0.0439 -0.3984
  705MOL0     H95172   3.697   6.130   8.502  0.6681 -2.3005  1.0003
  705MOL0     H95173   3.911   6.064   8.538 -0.7749 -0.0459 -0.5882
  705MOL0     H95174   3.918   5.891   8.482 -1.2550  0.1241  1.8019
  705MOL0     H95175   4.023   6.006   8.407 -1.0624 -0.7288 -0.4876
  706MOL0     O95176   1.676   4.503   5.334  0.4518 -0.8724 -0.2916
  706MOL0     C95177   1.676   4.533   5.213 -0.8433  1.6171  0.6858
  706MOL0     O95178   1.605   4.634   5.154  0.3930  0.7391  0.5780
  706MOL0     C95179   1.490   4.690   5.197  0.7710  0.4384  0.0930
  706MOL0     C95180   1.408   4.625   5.293 -0.7872 -0.1381 -0.2767
  706MOL0     C95181   1.289   4.690   5.337  0.7225 -0.5831  1.0590
  706MOL0     C95182   1.249   4.814   5.283  0.0500  0.1345  0.1707
  706MOL0     O95183   1.136   4.878   5.324  0.1591 -0.1520  0.0063
  706MOL0     C95184   1.154   4.967   5.441  0.3958  0.5360 -0.8659
  706MOL0     C95185   1.041   5.065   5.456 -0.5973  0.1867  0.4345
  706MOL0     C95186   0.911   5.000   5.487  0.3249 -0.2710  1.0268
  706MOL0     C95187   0.798   5.100   5.485  1.0397  0.3841 -0.6177
  706MOL0     C95188   0.658   5.042   5.523 -0.7793  1.0928  1.3003
  706MOL0     C95189   0.646   5.005   5.671 -0.0034 -0.6799 -0.9314
  706MOL0     C95190   0.513   4.934   5.711  0.2155  0.3419 -0.4881
  706MOL0     C95191   0.491   4.909   5.864  0.2682 -0.6285  0.4752
  706MOL0     N95192   0.564   4.784   5.887 -0.3095 -0.0350 -0.5372
  706MOL0     C95193   0.499   4.665   5.914  0.0370  0.3257 -0.3163
  706MOL0     C95194   0.596   4.579   5.943  0.1864 -0.2919 -0.5118
  706MOL0     C95195   0.571   4.426   5.982  0.4200 -0.5557  0.2993
  706MOL0     C95196   0.565   4.343   5.852 -0.1988  0.0558 -0.1241
  706MOL0     C95197   0.708   4.317   5.802  0.5928  0.0883 -0.7128
  706MOL0     C95198   0.721   4.187   5.717 -1.0239 -0.5965 -0.1144
  706MOL0     O95199   0.840   4.115   5.759 -0.3713  0.2773 -0.8917
  706MOL0     C95200   0.881   4.000   5.704 -0.2133  0.6426  0.6927
  706MOL0     C95201   0.812   3.944   5.602  1.4303  0.0565  0.8532
  706MOL0     C95202   0.851   3.821   5.556  0.6210  0.5389 -1.0929
  706MOL0     C95203   0.961   3.739   5.613 -0.0510 -0.0667  0.7067
  706MOL0     C95204   1.010   3.607   5.557 -0.1530  0.2857  0.3750
  706MOL0     O95205   1.105   3.530   5.624 -0.2705  0.0427 -0.6108
  706MOL0     C95206   1.172   3.444   5.552  0.7421  0.2815 -0.6196
  706MOL0     C95207   1.185   3.429   5.415 -0.3036 -0.2106 -0.4806
  706MOL0     C95208   1.256   3.320   5.362  0.1438 -0.2995  0.0484
  706MOL0     C95209   1.304   3.220   5.439 -0.8819 -1.0551  0.3895
  706MOL0     O95210   1.393   3.127   5.386  0.7865 -0.3793  0.2990
  706MOL0     C95211   1.530   3.138   5.419  0.5186  0.1244 -0.4603
  706MOL0     C95212   1.614   3.075   5.313 -0.6434 -0.3583  0.1405
  706MOL0     C95213   1.564   2.928   5.283 -0.2189 -0.3119 -0.2342
  706MOL0     C95214   1.544   2.832   5.404 -0.0127  0.3587  0.4397
  706MOL0     C95215   1.531   2.682   5.367  0.5849 -0.1784  0.1770
  706MOL0     C95216   1.501   2.585   5.479  0.9752  0.1296  0.5730
  706MOL0     C95217   1.536   2.439   5.453  0.4407  0.8609 -0.2136
  706MOL0     C95218   1.678   2.405   5.447 -0.2676  0.9414  0.9589
  706MOL0    Cl95219   1.777   2.447   5.596  0.0193  0.0828 -0.0640
  706MOL0     C95220   1.290   3.231   5.575 -0.6848 -0.6050 -0.8107
  706MOL0     C95221   1.234   3.343   5.630  0.5746 -0.2352 -0.0144
  706MOL0     O95222   0.963   3.587   5.443  0.2750 -0.9924 -0.1515
  706MOL0     C95223   1.024   3.796   5.723  0.8531  0.0061  0.2160
  706MOL0     C95224   0.984   3.925   5.761 -1.3639  0.1957  0.5237
  706MOL0     N95225   0.717   4.645   5.931  0.2035  0.8299 -0.3816
  706MOL0     N95226   0.700   4.766   5.902  0.4379 -0.4083 -0.4995
  706MOL0     C95227   1.330   4.875   5.191  0.7260  0.5360  1.2260
  706MOL0     C95228   1.445   4.809   5.146  0.0297 -0.0200 -0.0659
  706MOL0     C95229   1.777   4.455   5.129  0.4589 -0.4250  0.0973
  706MOL0     C95230   1.867   4.362   5.190  0.3447  0.4058  0.2791
  706MOL0     C95231   1.969   4.303   5.124 -0.1042 -0.3791 -0.0259
  706MOL0     C95232   1.997   4.335   4.988  1.0602  0.3401 -0.4393
  706MOL0     O95233   2.095   4.260   4.924  0.6434 -0.0135  0.4504
  706MOL0     C95234   2.105   4.279   4.786 -0.0435  0.8083 -0.3780
  706MOL0     C95235   2.224   4.205   4.717  0.6032  0.1508 -0.3718
  706MOL0     C95236   2.359   4.260   4.764  1.0884 -0.2061 -0.8506
  706MOL0     C95237   2.385   4.213   4.916 -0.5297  0.1287  0.5926
  706MOL0     C95238   2.527   4.225   4.955 -0.4068  0.0641  0.2007
  706MOL0     C95239   2.649   4.230   4.975  1.0494 -0.6617 -0.6637
  706MOL0     C95240   1.917   4.434   4.932 -0.5184  0.2239 -0.3303
  706MOL0     C95241   1.808   4.495   4.996  0.3704  0.1647  0.3008
  706MOL0     C95242   1.736   4.601   4.916  0.0657  0.4575 -0.3613
  706MOL0     H95243   1.449   4.547   5.355 -0.1491  0.9291  0.6954
  706MOL0     H95244   1.229   4.659   5.423 -3.6236  0.5042 -1.3183
  706MOL0     H95245   1.153   4.899   5.526 -1.0361 -2.0602 -2.8230
  706MOL0     H95246   1.248   5.024   5.435  0.5468  0.4126  0.2334
  706MOL0     H95247   1.036   5.129   5.367 -0.8897 -2.0113 -1.1938
  706MOL0     H95248   1.069   5.132   5.539  2.0253  0.3490 -0.4746
  706MOL0     H95249   0.913   4.957   5.588  0.2881  3.5256  2.8365
  706MOL0     H95250   0.888   4.911   5.428  4.2389 -0.5767 -0.3067
  706MOL0     H95251   0.816   5.179   5.559  2.7988 -0.6143  0.0875
  706MOL0     H95252   0.784   5.133   5.382  0.9665 -0.8227 -1.0120
  706MOL0     H95253   0.583   5.118   5.497 -0.0271  1.2562 -0.5483
  706MOL0     H95254   0.637   4.960   5.454  0.1856  1.7322  0.1947
  706MOL0     H95255   0.735   4.944   5.690  0.4225  0.9643  3.4833
  706MOL0     H95256   0.662   5.094   5.732 -0.3688  0.2564 -2.1624
  706MOL0     H95257   0.504   4.840   5.656  1.5025  0.9838 -1.9044
  706MOL0     H95258   0.430   4.997   5.679 -0.7285 -0.6335 -0.0310
  706MOL0     H95259   0.530   4.982   5.935  1.8597  0.7744 -1.7094
  706MOL0     H95260   0.385   4.896   5.887  0.3201 -0.2834  0.9272
  706MOL0     H95261   0.396   4.633   5.899 -0.1171  0.0416  1.1596
  706MOL0     H95262   0.645   4.404   6.060  2.5565 -1.1922 -1.7700
  706MOL0     H95263   0.471   4.428   6.025  1.8486  0.3613  3.9173
  706MOL0     H95264   0.540   4.239   5.879  3.3423 -1.3107 -1.5927
  706MOL0     H95265   0.502   4.378   5.770 -3.1929  1.7449  2.6486
  706MOL0     H95266   0.765   4.304   5.894 -2.0276  0.7020  1.1089
  706MOL0     H95267   0.740   4.402   5.740 -0.1435  1.5990  0.8842
  706MOL0     H95268   0.740   4.208   5.612 -0.2370 -1.4383 -0.1512
  706MOL0     H95269   0.633   4.123   5.730 -2.2119  0.8260 -0.8738
  706MOL0     H95270   0.724   3.988   5.557  1.9711  0.6936  0.3961
  706MOL0     H95271   0.802   3.789   5.464 -2.8036  0.8527  0.4524
  706MOL0     H95272   1.156   3.505   5.343 -0.9337  1.0597  1.0683
  706MOL0     H95273   1.290   3.329   5.260  0.0851 -1.9743 -0.1408
  706MOL0     H95274   1.559   3.244   5.425 -1.0520  0.5288  3.6951
  706MOL0     H95275   1.542   3.087   5.515  1.4216  3.4157  1.3364
  706MOL0     H95276   1.636   3.130   5.221  4.6985  2.1697  2.4825
  706MOL0     H95277   1.710   3.071   5.366  0.5446  1.3886 -1.7509
  706MOL0     H95278   1.473   2.947   5.226  0.1824 -1.9768 -1.4969
  706MOL0     H95279   1.638   2.880   5.219 -1.8705 -1.5435 -1.2880
  706MOL0     H95280   1.461   2.860   5.469 -1.4921  2.0393 -1.9683
  706MOL0     H95281   1.637   2.832   5.461  0.7403 -1.0906 -0.7078
  706MOL0     H95282   1.635   2.670   5.335  1.1161  1.6652  1.0239
  706MOL0     H95283   1.457   2.673   5.287  0.8066 -2.0050  0.1335
  706MOL0     H95284   1.562   2.609   5.566 -1.5995  0.5808  2.3733
  706MOL0     H95285   1.396   2.591   5.509  1.2099  0.4629  1.3400
  706MOL0     H95286   1.479   2.396   5.370 -2.6488 -1.0606  2.6451
  706MOL0     H95287   1.501   2.387   5.543  2.6743  0.9610  0.7721
  706MOL0     H95288   1.695   2.297   5.447  1.0645  1.1099  0.0048
  706MOL0     H95289   1.718   2.445   5.353 -0.5957  0.3369  0.5523
  706MOL0     H95290   1.324   3.149   5.637 -1.5758 -0.2049  0.2288
  706MOL0     H95291   1.230   3.352   5.738 -3.1885  0.9282 -0.0823
  706MOL0     H95292   1.106   3.754   5.781  1.6728  1.2711  0.0037
  706MOL0     H95293   1.037   3.962   5.848 -1.9774  0.5414  0.7538
  706MOL0     H95294   1.288   4.961   5.140 -0.1458  1.0572  2.7503
  706MOL0     H95295   1.506   4.848   5.065  1.3455 -0.4653  0.6804
  706MOL0     H95296   1.863   4.335   5.295 -1.1883  0.4094  0.2399
  706MOL0     H95297   2.042   4.236   5.168  0.4281  1.3081  1.8045
  706MOL0     H95298   2.132   4.383   4.763  2.9244 -0.2539 -2.2363
  706MOL0     H95299   2.008   4.251   4.744 -0.7175  1.8321  0.4265
  706MOL0     H95300   2.229   4.220   4.608  1.1132 -1.7797 -0.6529
  706MOL0     H95301   2.211   4.098   4.734  3.3308 -0.0779  0.7824
  706MOL0     H95302   2.355   4.370   4.765 -2.1441 -0.1998  1.0693
  706MOL0     H95303   2.431   4.219   4.693  0.0869 -1.8398 -0.9698
  706MOL0     H95304   2.328   4.279   4.982 -0.9348  2.1029 -1.5920
  706MOL0     H95305   2.355   4.108   4.923 -0.6654  0.1017 -0.2233
  706MOL0     H95306   2.750   4.238   5.009  0.6878  4.4760 -0.0505
  706MOL0     H95307   1.944   4.457   4.830  0.9303 -0.3153 -0.0895
  706MOL0     H95308   1.759   4.590   4.810 -1.1609  0.5595 -0.6571
  706MOL0     H95309   1.629   4.589   4.937  0.0490 -0.9506 -1.1310
  706MOL0     H95310   1.763   4.706   4.932  0.2627  0.9441 -3.3068
  707MOL0     O95311   5.948   1.341   3.851 -1.5221 -0.6714  0.7227
  707MOL0     C95312   5.874   1.365   3.757  0.9404 -0.3087  0.5967
  707MOL0     O95313   5.902   1.442   3.648 -0.1736 -0.3282 -0.0886
  707MOL0     C95314   6.006   1.532   3.660 -0.7701  0.5058 -0.8722
  707MOL0     C95315   6.030   1.605   3.773 -0.6321  0.0543  0.2814
  707MOL0     C95316   6.132   1.692   3.781  0.5734 -0.7653 -0.1581
  707MOL0     C95317   6.224   1.708   3.677  0.0359 -0.5796  0.7241
  707MOL0     O95318   6.332   1.794   3.696  0.6530 -0.6276  0.0093
  707MOL0     C95319   6.400   1.844   3.577 -0.4249  0.1211 -0.0925
  707MOL0     C95320   6.496   1.951   3.633  0.0136  0.0629  0.6591
  707MOL0     C95321   6.434   2.029   3.756  0.1748  0.2284  1.2931
  707MOL0     C95322   6.517   2.144   3.799 -0.5560  0.7517  0.3096
  707MOL0     C95323   6.627   2.108   3.883 -0.7288  0.5436 -0.4831
  707MOL0     C95324   6.702   2.227   3.945  0.4604 -0.7884 -0.7267
  707MOL0     C95325   6.824   2.188   4.031 -0.0304 -0.5656  0.4803
  707MOL0     C95326   6.886   2.317   4.087  0.4510 -0.3917 -0.4906
  707MOL0     N95327   7.030   2.316   4.102 -0.5108 -0.2390 -0.7927
  707MOL0     C95328   7.112   2.203   4.120 -0.7635  0.4275  0.0090
  707MOL0     C95329   7.236   2.233   4.071  0.2032  0.1935 -0.1956
  707MOL0     C95330   7.350   2.132   4.077 -1.2263  0.2274 -0.3556
  707MOL0     C95331   7.485   2.180   4.134  0.4432 -1.3182  0.0022
  707MOL0     C95332   7.606   2.092   4.103 -1.0302  0.7204 -0.3718
  707MOL0     C95333   7.737   2.155   4.152 -0.0246  0.0474  0.4462
  707MOL0     O95334   7.843   2.066   4.114  0.3096  0.7964 -0.4780
  707MOL0     C95335   7.972   2.111   4.149  0.1093  0.6284  1.0153
  707MOL0     C95336   8.066   2.014   4.142 -0.4217  0.1929  0.1429
  707MOL0     C95337   8.200   2.044   4.168 -0.9602  0.7268  0.0906
  707MOL0     C95338   8.247   2.175   4.209  0.2188 -0.3237  0.3159
  707MOL0     C95339   8.384   2.200   4.239  0.3397 -0.6373  0.6878
  707MOL0     O95340   8.482   2.127   4.185  0.8615  0.1619  0.5038
  707MOL0     C95341   8.614   2.173   4.196  0.6114  1.0530 -0.0988
  707MOL0     C95342   8.708   2.086   4.247  0.0546 -0.3251  0.0890
  707MOL0     C95343   8.849   2.110   4.243 -0.2417 -0.1581 -0.6730
  707MOL0     C95344   8.895   2.222   4.179 -1.1065 -0.1281  0.0706
  707MOL0     O95345   9.030   2.233   4.161 -0.0894 -0.3738  1.0250
  707MOL0     C95346   9.088   2.357   4.128 -1.5913  0.5578 -0.0416
  707MOL0     C95347   9.240   2.356   4.106  1.0449 -0.4985  0.0569
  707MOL0     C95348   9.292   2.477   4.024 -1.3329 -0.4183 -0.5077
  707MOL0     C95349   9.435   2.460   3.965 -0.4942  0.1034  0.6303
  707MOL0     C95350   9.538   2.532   4.054 -0.5641 -0.1985  0.5774
  707MOL0     C95351   9.682   2.499   4.009 -0.1178 -0.0670  0.1117
  707MOL0     C95352   9.742   2.363   4.049  0.7129 -0.2190  0.1201
  707MOL0     C95353   9.899   2.366   4.050  0.8310  0.1352 -0.1184
  707MOL0    Cl95354   9.956   2.198   4.079  0.7734  0.2187  0.7985
  707MOL0     C95355   8.799   2.320   4.131 -0.1155  0.5795 -0.9522
  707MOL0     C95356   8.662   2.286   4.142 -0.3532 -0.8840  0.0796
  707MOL0     O95357   8.400   2.302   4.311  0.3653  1.1367 -0.0293
  707MOL0     C95358   8.144   2.273   4.207 -0.1744  0.5449 -0.4126
  707MOL0     C95359   8.017   2.237   4.174  0.0255  0.4940 -0.1890
  707MOL0     N95360   7.241   2.369   4.026 -0.2877  0.1802  0.4632
  707MOL0     N95361   7.115   2.407   4.043  0.1957 -0.3134 -0.6082
  707MOL0     C95362   6.214   1.622   3.573 -0.5662 -0.2436  1.1021
  707MOL0     C95363   6.107   1.536   3.563 -0.3516  0.5084  0.1251
  707MOL0     C95364   5.754   1.286   3.759  0.1319 -0.2993 -0.1373
  707MOL0     C95365   5.682   1.272   3.882 -0.3912 -0.0983  0.6201
  707MOL0     C95366   5.574   1.192   3.889  0.9375 -0.5280 -0.0227
  707MOL0     C95367   5.520   1.125   3.773 -0.1377 -0.9957 -0.3435
  707MOL0     O95368   5.415   1.038   3.777 -0.1375  0.3781 -0.1782
  707MOL0     C95369   5.348   0.999   3.904 -0.6762  0.0825 -0.5362
  707MOL0     C95370   5.245   0.892   3.872 -0.6237 -0.0128  0.6012
  707MOL0     C95371   5.153   0.925   3.752 -0.6171 -0.0051 -0.0710
  707MOL0     C95372   5.083   1.068   3.771  0.0658  0.2340 -0.6087
  707MOL0     C95373   4.953   1.037   3.839  0.6671 -0.3173 -0.6785
  707MOL0     C95374   4.841   1.007   3.870 -0.2339 -0.4269  0.1465
  707MOL0     C95375   5.588   1.146   3.653  0.5021  0.9432  0.5378
  707MOL0     C95376   5.713   1.212   3.641  0.6554  0.5884 -0.2052
  707MOL0     C95377   5.789   1.211   3.523  0.3641  0.6647  0.5720
  707MOL0     H95378   5.960   1.608   3.856 -1.7637  1.9855 -0.6969
  707MOL0     H95379   6.140   1.752   3.872  1.9112  0.4438 -1.0331
  707MOL0     H95380   6.449   1.764   3.520  0.8590 -0.9830  2.3988
  707MOL0     H95381   6.323   1.897   3.521 -0.4260 -0.4643 -0.6665
  707MOL0     H95382   6.527   2.019   3.554 -1.4980  1.4001  1.1668
  707MOL0     H95383   6.582   1.901   3.678  0.2393 -0.3967 -0.2468
  707MOL0     H95384   6.430   1.963   3.843 -0.1501  1.4781  2.2327
  707MOL0     H95385   6.328   2.044   3.734  0.4281  0.9395  0.4802
  707MOL0     H95386   6.553   2.201   3.713 -0.6167  1.2708  0.6244
  707MOL0     H95387   6.454   2.219   3.849 -1.0826  0.1020  0.6354
  707MOL0     H95388   6.594   2.045   3.965  0.9144 -1.1324 -1.0496
  707MOL0     H95389   6.701   2.047   3.830  0.2709 -1.0958  2.5706
  707MOL0     H95390   6.729   2.290   3.860 -0.4858 -2.0420 -2.0086
  707MOL0     H95391   6.624   2.269   4.009  1.6471 -0.8285  0.8167
  707MOL0     H95392   6.888   2.138   3.959  0.3317  0.5483  0.0015
  707MOL0     H95393   6.791   2.122   4.112  2.2397 -0.3050  1.6927
  707MOL0     H95394   6.862   2.400   4.020 -1.8193  1.3523  2.2642
  707MOL0     H95395   6.834   2.341   4.180  2.3016  2.3198 -0.0290
  707MOL0     H95396   7.085   2.103   4.151  1.0607  0.5094  2.0450
  707MOL0     H95397   7.321   2.047   4.140  2.0201  0.3515  1.5159
  707MOL0     H95398   7.366   2.103   3.973 -0.7291  0.3440 -0.3123
  707MOL0     H95399   7.503   2.281   4.095 -0.1231  0.1993  3.2962
  707MOL0     H95400   7.478   2.189   4.243 -1.0930 -1.4978 -0.0547
  707MOL0     H95401   7.621   2.055   4.002  0.2529 -1.6331  0.6027
  707MOL0     H95402   7.594   2.002   4.165  2.3547  0.2245 -0.2701
  707MOL0     H95403   7.741   2.174   4.260  3.0800 -2.1554  0.8571
  707MOL0     H95404   7.743   2.252   4.102  1.5337 -0.3866 -0.2473
  707MOL0     H95405   8.032   1.915   4.113 -0.2927  0.3491 -0.5500
  707MOL0     H95406   8.266   1.958   4.172 -3.1120 -0.9244  2.0791
  707MOL0     H95407   8.681   1.989   4.288 -0.3936 -0.5516 -0.7175
  707MOL0     H95408   8.927   2.041   4.276  0.9991 -0.0564 -3.1865
  707MOL0     H95409   9.055   2.394   4.030  1.4553  0.7411 -1.1094
  707MOL0     H95410   9.068   2.428   4.208 -0.6618 -0.7589  1.4092
  707MOL0     H95411   9.289   2.338   4.202  0.9032  1.6892  0.5847
  707MOL0     H95412   9.260   2.271   4.040 -0.9332 -1.3137  0.4264
  707MOL0     H95413   9.234   2.508   3.937 -0.3806  3.6596  0.0914
  707MOL0     H95414   9.297   2.563   4.092 -2.3928 -1.8239  1.4465
  707MOL0     H95415   9.441   2.512   3.869  1.7384 -0.6911  0.2709
  707MOL0     H95416   9.442   2.352   3.948 -0.7515 -0.3162  2.8910
  707MOL0     H95417   9.520   2.502   4.157 -2.6376 -0.7668  0.1031
  707MOL0     H95418   9.525   2.638   4.029 -0.4317 -0.0820  1.0029
  707MOL0     H95419   9.703   2.520   3.904 -1.8453  2.5583  0.1687
  707MOL0     H95420   9.739   2.575   4.063 -0.7732 -0.1710  0.9672
  707MOL0     H95421   9.701   2.288   3.981 -1.0451  0.3618  0.4574
  707MOL0     H95422   9.711   2.342   4.152  0.5745 -3.2379 -0.4496
  707MOL0     H95423   9.945   2.396   3.956  3.6858 -2.1271  0.4164
  707MOL0     H95424   9.931   2.423   4.138 -0.9116 -3.9042  3.5134
  707MOL0     H95425   8.838   2.407   4.079  1.2995  1.1306  0.9193
  707MOL0     H95426   8.594   2.351   4.087  0.5467 -0.6102 -0.7330
  707MOL0     H95427   8.163   2.380   4.216 -3.7032  1.2004  0.6552
  707MOL0     H95428   7.949   2.320   4.158 -0.0218  0.0189 -3.1077
  707MOL0     H95429   6.286   1.621   3.492 -1.8310  3.9348 -0.2949
  707MOL0     H95430   6.105   1.473   3.475  0.7982  0.1185  0.3530
  707MOL0     H95431   5.721   1.322   3.970  0.5930 -2.9660  1.9472
  707MOL0     H95432   5.516   1.185   3.981  1.8371  1.1188  0.7091
  707MOL0     H95433   5.290   1.083   3.942  0.4476  0.3241  0.7137
  707MOL0     H95434   5.420   0.958   3.976  0.0534  0.4430 -1.0465
  707MOL0     H95435   5.188   0.871   3.963  1.9264 -3.6734  1.5548
  707MOL0     H95436   5.301   0.800   3.852 -0.7658 -0.4777  2.2109
  707MOL0     H95437   5.076   0.850   3.734 -0.6664  0.2065 -0.7414
  707MOL0     H95438   5.213   0.913   3.662  1.8397  2.1157  1.1468
  707MOL0     H95439   5.142   1.153   3.807  0.0042 -0.4637  1.2853
  707MOL0     H95440   5.046   1.100   3.673 -2.9968  1.5990  0.8499
  707MOL0     H95441   4.739   0.984   3.895 -0.3813 -0.3721 -0.4070
  707MOL0     H95442   5.547   1.092   3.568 -0.1550  0.5699  1.0798
  707MOL0     H95443   5.896   1.198   3.538  0.9935 -1.9463 -4.0127
  707MOL0     H95444   5.748   1.126   3.467 -0.0009 -0.2724  2.2021
  707MOL0     H95445   5.763   1.302   3.468  0.5350  0.1577 -0.3681
  708MOL0     O95446   9.245   3.771   0.076 -0.2568  0.3691  0.4570
  708MOL0     C95447   9.140   3.813   0.122  0.0717  0.2867 -0.6271
  708MOL0     O95448   9.131   3.896   0.238  0.1119 -0.1611  0.1573
  708MOL0     C95449   9.247   3.931   0.304  0.2066  0.4514  0.3166
  708MOL0     C95450   9.278   3.878   0.428 -0.8229  0.2187 -0.7928
  708MOL0     C95451   9.403   3.917   0.495  0.2939  1.0963 -0.6750
  708MOL0     C95452   9.488   4.002   0.423 -0.2049 -0.6212 -0.2964
  708MOL0     O95453   9.612   4.055   0.470  0.2255  0.7555 -0.2119
  708MOL0     C95454   9.663   4.026   0.599 -0.1921 -0.1592 -0.6852
  708MOL0     C95455   9.817   4.055   0.609  0.1311 -0.5752  0.5407
  708MOL0     C95456   9.842   4.198   0.573  0.1317  0.1140 -0.4900
  708MOL0     C95457   9.966   4.258   0.652  0.0581 -0.0875  0.0329
  708MOL0     C95458  10.039   4.365   0.565  0.1565  0.6905  0.3565
  708MOL0     C95459  10.108   4.472   0.645 -0.2597  0.2971 -0.2225
  708MOL0     C95460  10.223   4.561   0.578 -0.0002 -0.8641  0.5996
  708MOL0     C95461  10.328   4.470   0.527 -1.2292 -0.3858  0.6955
  708MOL0     N95462  10.468   4.520   0.554  0.4184 -0.5298 -0.1198
  708MOL0     C95463  10.569   4.549   0.465  0.2310 -0.8483 -0.0583
  708MOL0     C95464  10.674   4.587   0.548 -0.2981  0.0944 -0.7696
  708MOL0     C95465  10.811   4.595   0.489 -0.4132  0.0845 -0.0281
  708MOL0     C95466  10.850   4.453   0.443 -0.1364  0.2614  0.2246
  708MOL0     C95467  10.885   4.364   0.559 -0.2081 -0.6995 -0.2230
  708MOL0     C95468  10.884   4.215   0.526  0.4364 -0.1786  0.3982
  708MOL0     O95469  11.001   4.183   0.453 -0.1687 -0.4516  0.4616
  708MOL0     C95470  11.009   4.200   0.314  0.0327 -1.1918 -0.5428
  708MOL0     C95471  10.898   4.196   0.231 -0.2703 -0.5171 -0.2696
  708MOL0     C95472  10.920   4.216   0.090  0.0323  0.5403  0.1333
  708MOL0     C95473  11.045   4.245   0.033 -0.6395 -0.4289  0.5511
  708MOL0     C95474  11.073   4.268  -0.106  0.0163 -0.2206  0.0177
  708MOL0     O95475  10.968   4.283  -0.180  0.0376  0.5582  0.1183
  708MOL0     C95476  10.973   4.292  -0.318  0.4353 -0.1809 -0.3362
  708MOL0     C95477  10.882   4.381  -0.377 -0.0241  0.5841  0.6623
  708MOL0     C95478  10.881   4.387  -0.514  0.2003 -0.4374 -0.4223
  708MOL0     C95479  10.948   4.306  -0.597 -0.3919  0.2694 -0.2329
  708MOL0     O95480  10.907   4.311  -0.733  0.1269 -0.9442 -0.3243
  708MOL0     C95481  10.992   4.240  -0.825 -0.1198  0.5093 -0.4072
  708MOL0     C95482  11.105   4.328  -0.889  0.5486 -0.1598 -0.1975
  708MOL0     C95483  11.207   4.383  -0.784  0.6157 -0.2001  0.3683
  708MOL0     C95484  11.323   4.451  -0.862  0.0141  0.7082 -0.9040
  708MOL0     C95485  11.289   4.581  -0.938 -0.9206 -0.1259 -0.0703
  708MOL0     C95486  11.408   4.660  -1.006  0.0714 -0.4368 -0.2064
  708MOL0     C95487  11.353   4.778  -1.091 -0.1872  0.2677  0.6881
  708MOL0     C95488  11.463   4.845  -1.160 -0.7532 -0.3935  0.3379
  708MOL0    Cl95489  11.616   4.876  -1.057  0.0903  0.4416  0.2731
  708MOL0     C95490  11.046   4.219  -0.539  0.3983 -0.7392  0.2652
  708MOL0     C95491  11.043   4.207  -0.403 -0.2907  0.1822 -0.2658
  708MOL0     O95492  11.187   4.281  -0.142  0.0163 -0.2971  0.5704
  708MOL0     C95493  11.155   4.251   0.125  0.0404 -0.0401  0.1213
  708MOL0     C95494  11.135   4.223   0.261  0.1236  1.1104 -0.3904
  708MOL0     N95495  10.630   4.611   0.672  0.2137 -0.3363 -0.6748
  708MOL0     N95496  10.502   4.566   0.673 -0.2983 -0.1883 -0.1313
  708MOL0     C95497   9.461   4.041   0.292  0.7763 -0.1810 -0.8113
  708MOL0     C95498   9.339   4.011   0.236  0.2936 -0.2522  0.2194
  708MOL0     C95499   9.010   3.761   0.056 -1.2290 -0.4358  0.2136
  708MOL0     C95500   9.010   3.624   0.018 -0.2641 -0.0698 -0.0239
  708MOL0     C95501   8.889   3.568  -0.015  0.0613 -0.2635  0.8183
  708MOL0     C95502   8.779   3.644  -0.042  0.3609  0.2593  0.2577
  708MOL0     O95503   8.653   3.602  -0.093  0.2100 -0.3081 -0.5429
  708MOL0     C95504   8.620   3.467  -0.077  0.3168  0.2779 -0.5056
  708MOL0     C95505   8.469   3.450  -0.081  0.0267 -1.2263  0.6851
  708MOL0     C95506   8.420   3.319  -0.034  0.4605  0.2750 -0.5470
  708MOL0     C95507   8.264   3.303  -0.028 -0.3141  0.1642 -0.0299
  708MOL0     C95508   8.236   3.162  -0.012  0.2030  0.2614 -0.2222
  708MOL0     C95509   8.212   3.046  -0.020 -0.0378 -0.5370  0.4334
  708MOL0     C95510   8.778   3.772  -0.005 -0.3197 -0.3021 -0.6027
  708MOL0     C95511   8.891   3.834   0.054 -0.2940  0.1735  0.1125
  708MOL0     C95512   8.877   3.982   0.089  0.7480  0.1463 -0.4656
  708MOL0     H95513   9.213   3.810   0.481 -1.2306  1.8342  0.8508
  708MOL0     H95514   9.434   3.861   0.583 -2.7967 -0.2389 -0.3204
  708MOL0     H95515   9.598   4.078   0.670 -0.2764 -2.4591  1.0499
  708MOL0     H95516   9.649   3.925   0.640 -0.2074  1.0232  2.5251
  708MOL0     H95517   9.877   3.999   0.537 -0.1282 -1.4631  0.9997
  708MOL0     H95518   9.868   4.034   0.703  1.9472  2.6105  0.4149
  708MOL0     H95519   9.750   4.256   0.585 -1.3918 -2.3782  0.6085
  708MOL0     H95520   9.884   4.197   0.472  2.5919 -1.1878  0.4683
  708MOL0     H95521   9.945   4.310   0.747  2.7764  1.9793 -0.3802
  708MOL0     H95522  10.043   4.183   0.671 -0.0960 -0.5669 -1.1464
  708MOL0     H95523  10.100   4.316   0.488 -0.2885  3.0501 -1.6059
  708MOL0     H95524   9.964   4.426   0.513  1.6560  1.9784 -0.3541
  708MOL0     H95525  10.043   4.550   0.686  1.9813  2.8215 -1.1754
  708MOL0     H95526  10.146   4.412   0.728 -0.4066 -1.9080 -1.6790
  708MOL0     H95527  10.253   4.621   0.665 -0.5952 -1.7108  1.4084
  708MOL0     H95528  10.192   4.628   0.497  0.9478 -2.6347 -1.3386
  708MOL0     H95529  10.317   4.375   0.580 -1.2372 -1.3681 -0.9841
  708MOL0     H95530  10.318   4.448   0.421  0.0947  0.6646  0.3141
  708MOL0     H95531  10.572   4.547   0.356  0.0430 -3.7068 -0.0815
  708MOL0     H95532  10.801   4.660   0.402  1.9385 -2.1480 -2.1441
  708MOL0     H95533  10.889   4.618   0.562  2.7150 -4.7343 -1.4150
  708MOL0     H95534  10.781   4.415   0.368  1.9010 -0.7728 -1.2315
  708MOL0     H95535  10.940   4.464   0.382 -0.7388 -2.1854 -1.2301
  708MOL0     H95536  10.819   4.380   0.645  0.4594  1.8581 -0.0842
  708MOL0     H95537  10.982   4.389   0.602 -1.1004 -1.2779  2.3361
  708MOL0     H95538  10.784   4.190   0.491 -0.1627  1.2270  1.0212
  708MOL0     H95539  10.902   4.145   0.608  5.7607 -1.8807 -1.7265
  708MOL0     H95540  10.805   4.167   0.278  0.4689 -0.1629  1.5140
  708MOL0     H95541  10.843   4.204   0.014 -1.1728 -1.4122  1.5663
  708MOL0     H95542  10.826   4.450  -0.316  1.2199  1.5980  0.7101
  708MOL0     H95543  10.802   4.452  -0.551  0.5223 -0.5409 -1.2892
  708MOL0     H95544  11.041   4.152  -0.784 -2.8595 -1.1941 -0.5630
  708MOL0     H95545  10.931   4.208  -0.911  2.3688 -1.6765 -1.5084
  708MOL0     H95546  11.149   4.266  -0.968  0.7360  0.9318 -0.9713
  708MOL0     H95547  11.063   4.408  -0.950  2.7446  0.3500 -1.1294
  708MOL0     H95548  11.164   4.456  -0.715 -1.7186 -0.1176 -1.0792
  708MOL0     H95549  11.246   4.300  -0.725  2.7058  0.6772  0.3207
  708MOL0     H95550  11.353   4.379  -0.938 -1.0435 -0.9052  0.1145
  708MOL0     H95551  11.408   4.464  -0.795  0.1948  0.6794 -1.1296
  708MOL0     H95552  11.244   4.649  -0.865 -1.2891  1.3863 -1.6331
  708MOL0     H95553  11.212   4.582  -1.016 -2.3353  3.3158  1.1663
  708MOL0     H95554  11.477   4.695  -0.929  0.7515 -1.2450 -0.4292
  708MOL0     H95555  11.470   4.594  -1.068 -0.7959  2.4727 -4.6033
  708MOL0     H95556  11.298   4.843  -1.023 -1.0221 -0.1534  0.4287
  708MOL0     H95557  11.282   4.737  -1.164  1.3851 -0.8948 -0.2507
  708MOL0     H95558  11.487   4.790  -1.252 -0.6473 -1.7802  1.1756
  708MOL0     H95559  11.430   4.944  -1.195  1.1462  0.4467  0.7967
  708MOL0     H95560  11.106   4.149  -0.598  0.6392 -1.6601  1.5609
  708MOL0     H95561  11.109   4.140  -0.348  1.0759  2.9974  1.7480
  708MOL0     H95562  11.256   4.267   0.090 -1.2676  1.2936 -3.5862
  708MOL0     H95563  11.209   4.223   0.340  1.7019 -0.4285 -1.8045
  708MOL0     H95564   9.538   4.103   0.248  2.5607 -0.3085  1.9072
  708MOL0     H95565   9.316   4.054   0.139  2.4333  2.1437  0.6734
  708MOL0     H95566   9.102   3.567   0.014  1.3453  2.2582  1.0373
  708MOL0     H95567   8.879   3.460  -0.017 -0.0917 -0.2841  2.0858
  708MOL0     H95568   8.653   3.433   0.021 -1.1959  0.7452  0.2088
  708MOL0     H95569   8.667   3.410  -0.157 -1.1752 -2.2866  0.3141
  708MOL0     H95570   8.431   3.478  -0.179 -3.1764  2.4274  2.6611
  708MOL0     H95571   8.434   3.532  -0.017 -0.1205 -0.8602  0.1377
  708MOL0     H95572   8.473   3.309   0.062 -0.3135  1.3335  0.0108
  708MOL0     H95573   8.464   3.250  -0.106 -0.0398  1.4926 -2.0696
  708MOL0     H95574   8.231   3.351   0.064  0.8158 -0.2281  0.5979
  708MOL0     H95575   8.212   3.343  -0.116  0.0685  1.3245  0.2524
  708MOL0     H95576   8.194   2.941  -0.014 -0.4172 -0.4111  1.9776
  708MOL0     H95577   8.684   3.824  -0.016 -0.0509  0.1912 -0.5830
  708MOL0     H95578   8.959   4.037   0.042  0.5281  0.6993 -0.2164
  708MOL0     H95579   8.791   4.020   0.033  0.6467 -2.1431 -1.9836
  708MOL0     H95580   8.867   4.006   0.196  2.4262 -1.9872  0.2340
  709MOL0     O95581   8.082   5.204   3.807  0.4415  0.5121  0.5970
  709MOL0     C95582   8.135   5.163   3.700 -0.2412 -0.2640  0.6643
  709MOL0     O95583   8.269   5.179   3.662 -0.5228 -0.5008  0.1808
  709MOL0     C95584   8.356   5.211   3.761 -0.7066 -0.0754  0.2525
  709MOL0     C95585   8.411   5.109   3.848  0.1816  0.8935  0.2755
  709MOL0     C95586   8.511   5.145   3.943  0.3106 -0.2076  0.8039
  709MOL0     C95587   8.570   5.268   3.946  1.1481 -0.0879 -0.4551
  709MOL0     O95588   8.668   5.290   4.048 -0.0235  0.1325  0.2022
  709MOL0     C95589   8.726   5.416   4.073  0.2260 -0.4098  0.1061
  709MOL0     C95590   8.821   5.406   4.201 -0.1697  0.2635  0.2521
  709MOL0     C95591   8.908   5.530   4.217  0.0611 -0.5204 -0.2448
  709MOL0     C95592   9.002   5.575   4.103 -0.9065 -0.5476 -0.4961
  709MOL0     C95593   9.097   5.682   4.139  0.2052  0.2539 -0.2382
  709MOL0     C95594   9.225   5.689   4.048 -0.2222 -0.6182 -0.5479
  709MOL0     C95595   9.192   5.720   3.902  1.0403  0.3983 -0.4132
  709MOL0     C95596   9.311   5.756   3.811 -0.2625  0.0973 -0.4508
  709MOL0     N95597   9.387   5.870   3.856  0.0968  0.1680  0.5126
  709MOL0     C95598   9.364   6.006   3.819  0.7069 -0.9657  0.6766
  709MOL0     C95599   9.481   6.067   3.838 -0.2518 -0.2147 -0.1313
  709MOL0     C95600   9.509   6.217   3.833  0.3556 -0.5914 -1.1823
  709MOL0     C95601   9.519   6.290   3.705  0.0824  0.2067  1.1466
  709MOL0     C95602   9.387   6.297   3.636 -0.0173  0.4632  0.2690
  709MOL0     C95603   9.277   6.382   3.690 -0.1007  0.6189  0.3617
  709MOL0     O95604   9.205   6.330   3.806 -0.0808 -0.1870  1.0708
  709MOL0     C95605   9.074   6.275   3.784 -0.0561  0.6184 -0.3714
  709MOL0     C95606   9.009   6.219   3.899 -0.0054  0.7973 -0.6661
  709MOL0     C95607   8.897   6.136   3.879 -0.4304 -0.4123 -0.3474
  709MOL0     C95608   8.836   6.122   3.761  0.0986 -0.2673 -0.9296
  709MOL0     C95609   8.705   6.040   3.758 -0.5041  0.2951  0.3173
  709MOL0     O95610   8.645   6.030   3.636 -0.0488  0.0667  0.7705
  709MOL0     C95611   8.518   5.968   3.637  0.7985  0.0639 -0.3252
  709MOL0     C95612   8.492   5.862   3.549  0.3955 -0.9235  0.8404
  709MOL0     C95613   8.359   5.827   3.532 -0.6520 -0.1673  0.0476
  709MOL0     C95614   8.259   5.872   3.625 -0.6269  0.3184 -0.7847
  709MOL0     O95615   8.129   5.830   3.620  0.1252  0.9356 -0.2075
  709MOL0     C95616   8.055   5.789   3.504 -0.4401  0.0081  0.3610
  709MOL0     C95617   8.019   5.914   3.416 -0.5674 -0.2335 -0.3692
  709MOL0     C95618   7.888   5.979   3.463  0.2715 -1.2724  0.7599
  709MOL0     C95619   7.873   6.131   3.408 -0.6712 -0.4302  0.3001
  709MOL0     C95620   7.955   6.227   3.491 -0.4804 -0.2263 -0.1555
  709MOL0     C95621   7.994   6.352   3.408 -0.3451  0.1216  0.7914
  709MOL0     C95622   8.099   6.315   3.307 -0.3259  0.0132 -0.4877
  709MOL0     C95623   8.163   6.443   3.247 -0.1968 -0.2540 -0.5348
  709MOL0    Cl95624   8.028   6.552   3.178  0.2692 -0.4012  0.3924
  709MOL0     C95625   8.286   5.978   3.713 -0.3560  0.6919 -0.7154
  709MOL0     C95626   8.412   6.028   3.715  0.2052 -0.9486  1.4270
  709MOL0     O95627   8.672   5.972   3.855 -0.7525  0.1422  0.7426
  709MOL0     C95628   8.895   6.178   3.651  0.9089 -0.2880 -0.0055
  709MOL0     C95629   9.018   6.238   3.658  0.6259 -0.6241  0.1089
  709MOL0     N95630   9.559   5.976   3.897 -0.8702  0.0848 -0.5126
  709MOL0     N95631   9.504   5.860   3.919 -0.5187  0.0091  1.0369
  709MOL0     C95632   8.516   5.364   3.866  0.5578  0.4880  0.2955
  709MOL0     C95633   8.407   5.338   3.776  0.2086 -1.0465 -0.1919
  709MOL0     C95634   8.052   5.088   3.598 -0.0712 -0.2924  0.9630
  709MOL0     C95635   8.088   4.955   3.552  1.0741 -0.1624  0.1200
  709MOL0     C95636   7.996   4.883   3.472  0.2414 -0.3731  0.4882
  709MOL0     C95637   7.872   4.931   3.437 -0.4383  0.4315  0.0242
  709MOL0     O95638   7.776   4.862   3.361 -0.0004 -0.8799  0.7212
  709MOL0     C95639   7.783   4.719   3.358 -0.2009 -0.2905  0.5787
  709MOL0     C95640   7.750   4.664   3.497  0.0996 -0.2545 -0.0054
  709MOL0     C95641   7.740   4.512   3.494  0.2310 -0.1597 -0.6861
  709MOL0     C95642   7.659   4.438   3.616 -0.3876 -0.7963  0.4276
  709MOL0     C95643   7.746   4.370   3.721 -0.8288 -0.2733  0.3836
  709MOL0     C95644   7.824   4.325   3.793 -0.5473 -0.5939 -0.1427
  709MOL0     C95645   7.853   5.065   3.471 -0.6880  1.0110 -0.7776
  709MOL0     C95646   7.940   5.147   3.539  0.0999  0.4091 -0.0069
  709MOL0     C95647   7.899   5.287   3.569 -0.1178 -0.5362 -0.1267
  709MOL0     H95648   8.364   5.012   3.834  0.6491  0.2248  2.7949
  709MOL0     H95649   8.544   5.078   4.022 -0.0717  1.2696  2.2663
  709MOL0     H95650   8.780   5.452   3.985  0.6571 -0.9497  0.1472
  709MOL0     H95651   8.643   5.484   4.094  0.5237 -0.4088  1.3700
  709MOL0     H95652   8.896   5.327   4.193  0.7534  1.1590 -0.2038
  709MOL0     H95653   8.768   5.387   4.295 -1.5512 -1.0276 -0.7527
  709MOL0     H95654   8.973   5.501   4.300 -0.5504 -2.5750 -0.4279
  709MOL0     H95655   8.842   5.612   4.248 -0.3897 -0.3771 -1.5430
  709MOL0     H95656   9.067   5.493   4.073 -0.4708  0.1594 -1.5584
  709MOL0     H95657   8.949   5.600   4.011  1.2691  3.5301 -0.9033
  709MOL0     H95658   9.029   5.768   4.145 -2.5164 -1.8202  0.5790
  709MOL0     H95659   9.131   5.648   4.237 -1.6495 -1.0071  0.0111
  709MOL0     H95660   9.291   5.763   4.095  0.8070 -2.3470  0.8481
  709MOL0     H95661   9.282   5.596   4.051 -1.5265 -1.4265  0.5377
  709MOL0     H95662   9.124   5.805   3.892  0.1128 -0.4814 -2.1183
  709MOL0     H95663   9.141   5.630   3.866 -1.9620  1.1395  1.5958
  709MOL0     H95664   9.384   5.675   3.803  0.8095  1.2372 -3.4142
  709MOL0     H95665   9.267   5.784   3.715 -4.8484 -2.6153  0.5596
  709MOL0     H95666   9.268   6.050   3.797  1.1209 -0.2352  0.2984
  709MOL0     H95667   9.432   6.261   3.898  3.6647  1.7909  1.4559
  709MOL0     H95668   9.594   6.244   3.895 -1.2861  0.8960  0.5561
  709MOL0     H95669   9.556   6.390   3.729 -0.4090  0.1839  2.0459
  709MOL0     H95670   9.592   6.247   3.636  1.6834  0.8238  2.3851
  709MOL0     H95671   9.353   6.194   3.621 -0.5194  0.5691  0.6731
  709MOL0     H95672   9.418   6.341   3.540  3.0944 -0.0609  0.9181
  709MOL0     H95673   9.200   6.404   3.615  0.9067  0.1565 -0.8415
  709MOL0     H95674   9.334   6.472   3.714  1.4554 -0.4126  0.6803
  709MOL0     H95675   9.050   6.216   3.999  1.6696 -1.1754 -1.3226
  709MOL0     H95676   8.865   6.076   3.963 -0.7062 -0.7891 -0.7134
  709MOL0     H95677   8.562   5.827   3.473 -1.4689  0.8434 -1.8940
  709MOL0     H95678   8.347   5.754   3.453 -0.1797  1.5448 -1.6927
  709MOL0     H95679   8.112   5.720   3.442 -0.7931  0.7611 -0.8545
  709MOL0     H95680   7.964   5.737   3.537 -0.1783 -0.7918 -0.1555
  709MOL0     H95681   8.093   5.995   3.413 -2.0206  1.1180 -1.8283
  709MOL0     H95682   8.016   5.884   3.311  1.1531  2.4564 -1.2928
  709MOL0     H95683   7.801   5.922   3.430  2.2409 -2.8643 -2.0987
  709MOL0     H95684   7.886   5.985   3.572  0.4492  0.9729  0.6809
  709MOL0     H95685   7.767   6.155   3.415 -0.5567  0.4591 -0.7314
  709MOL0     H95686   7.898   6.134   3.301  0.6689  0.4911  0.6070
  709MOL0     H95687   8.042   6.174   3.530 -2.4268 -3.8025 -0.1916
  709MOL0     H95688   7.902   6.251   3.583  0.3893  1.5864 -0.0744
  709MOL0     H95689   7.910   6.402   3.358 -0.6510 -0.2177  0.9558
  709MOL0     H95690   8.042   6.418   3.480 -0.5405 -0.8271  1.8269
  709MOL0     H95691   8.048   6.272   3.220 -2.2912  1.3489 -0.0585
  709MOL0     H95692   8.178   6.243   3.332 -1.8179 -2.1813 -1.7860
  709MOL0     H95693   8.211   6.489   3.333 -4.6266  0.7609  1.6806
  709MOL0     H95694   8.223   6.412   3.161  2.0558 -0.3575  0.9886
  709MOL0     H95695   8.220   6.005   3.796  0.3820 -1.0235  0.4941
  709MOL0     H95696   8.436   6.103   3.790 -2.0050 -0.7592  1.9985
  709MOL0     H95697   8.850   6.158   3.554  0.2699  2.6444 -0.3833
  709MOL0     H95698   9.080   6.252   3.570 -0.8641 -2.2979 -1.2869
  709MOL0     H95699   8.561   5.463   3.865  1.8112 -0.0592 -0.4092
  709MOL0     H95700   8.376   5.427   3.721  1.4272  1.5429  2.9937
  709MOL0     H95701   8.186   4.930   3.591  0.7011  0.7103  1.6988
  709MOL0     H95702   8.038   4.788   3.440  2.3876  0.7196 -0.1288
  709MOL0     H95703   7.886   4.690   3.334 -0.1389 -0.9683  1.5965
  709MOL0     H95704   7.723   4.687   3.272  2.3991 -0.3129 -1.3468
  709MOL0     H95705   7.657   4.709   3.532 -0.2429 -1.2876  0.4670
  709MOL0     H95706   7.837   4.692   3.558  0.7678  0.0959 -1.0921
  709MOL0     H95707   7.837   4.464   3.480 -1.1510 -3.2885 -0.3884
  709MOL0     H95708   7.694   4.479   3.401  2.3704  1.6118 -2.4881
  709MOL0     H95709   7.601   4.513   3.670  1.9663 -0.5002  2.7047
  709MOL0     H95710   7.587   4.371   3.568 -1.5938  0.8396 -0.1519
  709MOL0     H95711   7.899   4.284   3.857  0.0530 -0.7256 -0.9165
  709MOL0     H95712   7.762   5.118   3.443 -1.2709  1.2154  1.3845
  709MOL0     H95713   7.988   5.350   3.562  2.2704 -3.6045  0.3131
  709MOL0     H95714   7.813   5.323   3.512 -0.6328 -1.2620  0.1756
  709MOL0     H95715   7.869   5.293   3.674 -2.2764 -0.4462 -0.7020
  710MOL0     O95716   8.848   6.510   7.742 -0.7532 -0.1961 -0.3002
  710MOL0     C95717   8.870   6.572   7.642  1.0761 -0.2333 -0.3808
  710MOL0     O95718   8.970   6.565   7.561 -0.3395 -0.6388 -0.2984
  710MOL0     C95719   9.089   6.522   7.606 -0.7711  0.1705 -0.2297
  710MOL0     C95720   9.162   6.429   7.530  0.2047 -0.0130 -0.1866
  710MOL0     C95721   9.275   6.372   7.586 -0.3284  0.3793  0.0938
  710MOL0     C95722   9.330   6.422   7.712 -0.9767 -0.1324  0.4543
  710MOL0     O95723   9.441   6.371   7.771 -0.1306  0.6726  0.1500
  710MOL0     C95724   9.475   6.241   7.722  0.5310 -1.1034  0.1534
  710MOL0     C95725   9.594   6.182   7.801  0.1080  0.6106  0.5691
  710MOL0     C95726   9.731   6.254   7.777  0.7002  0.8892  0.1335
  710MOL0     C95727   9.842   6.202   7.875 -0.1909  0.5783 -0.0184
  710MOL0     C95728   9.973   6.278   7.860  0.7469 -0.5603  0.9206
  710MOL0     C95729  10.071   6.226   7.960 -0.3749  0.3375 -0.5858
  710MOL0     C95730  10.190   6.307   7.943  0.5015 -0.4973 -0.2762
  710MOL0     C95731  10.313   6.247   8.014  0.5176  0.0047 -0.1501
  710MOL0     N95732  10.298   6.243   8.164 -0.4054  0.1328 -0.2492
  710MOL0     C95733  10.220   6.149   8.226  0.3734 -0.0357 -0.4060
  710MOL0     C95734  10.214   6.190   8.351 -0.3499 -0.3438  0.5397
  710MOL0     C95735  10.146   6.113   8.464 -0.3216 -0.7909 -0.7085
  710MOL0     C95736  10.088   6.222   8.563  0.0359 -0.1153  0.7780
  710MOL0     C95737  10.011   6.166   8.689  0.2211  0.7519  0.2761
  710MOL0     C95738   9.902   6.065   8.642 -0.0087 -0.1780  0.9865
  710MOL0     O95739   9.809   6.146   8.556 -0.1233  0.2351  0.1019
  710MOL0     C95740   9.684   6.092   8.513 -0.5539  0.7229 -0.3760
  710MOL0     C95741   9.595   6.174   8.441 -0.4396  0.3675  0.2036
  710MOL0     C95742   9.463   6.126   8.406 -0.6616  0.4880  0.4333
  710MOL0     C95743   9.431   6.001   8.451  0.9131  0.6151  1.4217
  710MOL0     C95744   9.302   5.945   8.411 -1.0975  0.7203  0.3332
  710MOL0     O95745   9.311   5.817   8.378 -0.2750  0.1246 -0.5111
  710MOL0     C95746   9.196   5.754   8.333 -0.4003  0.0651 -0.0124
  710MOL0     C95747   9.138   5.644   8.407  0.6275  0.3520 -0.5056
  710MOL0     C95748   9.013   5.580   8.372 -0.7734 -0.0451 -0.4382
  710MOL0     C95749   8.957   5.622   8.253 -0.7090  0.0657  0.2040
  710MOL0     O95750   8.837   5.584   8.213 -0.0055 -0.0244  0.0924
  710MOL0     C95751   8.807   5.447   8.230  0.1045 -0.2253  0.7536
  710MOL0     C95752   8.695   5.402   8.127 -0.7450 -1.1104  0.0647
  710MOL0     C95753   8.569   5.475   8.180 -0.4684 -1.0473  0.0872
  710MOL0     C95754   8.445   5.460   8.093 -0.1303 -0.4082 -0.7769
  710MOL0     C95755   8.331   5.557   8.130 -0.3148  0.7567  0.8489
  710MOL0     C95756   8.211   5.565   8.027  0.5468 -0.3152  0.2301
  710MOL0     C95757   8.098   5.663   8.064 -0.2881 -0.3566 -0.0095
  710MOL0     C95758   8.027   5.640   8.189 -0.2696 -0.3346 -0.0234
  710MOL0    Cl95759   7.920   5.783   8.192 -0.4641 -0.2419 -0.0798
  710MOL0     C95760   9.020   5.730   8.176  0.5857 -0.0740  0.1843
  710MOL0     C95761   9.137   5.783   8.212  0.4043 -0.9887 -0.1383
  710MOL0     O95762   9.205   6.021   8.415 -0.0644 -0.0822  0.1976
  710MOL0     C95763   9.526   5.920   8.520  0.1549 -0.1802 -0.4324
  710MOL0     C95764   9.645   5.969   8.557  0.5032  0.5244 -0.1290
  710MOL0     N95765  10.303   6.292   8.371  0.0485  0.3058  0.6766
  710MOL0     N95766  10.349   6.326   8.261  0.3286 -0.3212  0.2229
  710MOL0     C95767   9.268   6.525   7.779  0.1632 -0.1793  0.4006
  710MOL0     C95768   9.144   6.571   7.727  0.1414 -0.5894  0.1140
  710MOL0     C95769   8.751   6.667   7.612 -0.1985  0.1972  0.1285
  710MOL0     C95770   8.707   6.752   7.714  0.3080 -0.0833  0.1064
  710MOL0     C95771   8.605   6.844   7.695  1.0023 -0.5983  1.2697
  710MOL0     C95772   8.562   6.856   7.558 -0.4773  1.1444  0.5611
  710MOL0     O95773   8.459   6.935   7.510  0.7927 -0.4913 -0.8784
  710MOL0     C95774   8.391   7.030   7.595  0.4172 -0.1713  1.3125
  710MOL0     C95775   8.306   6.961   7.690  0.6915  1.0162  0.2507
  710MOL0     C95776   8.174   6.925   7.626  0.4189  0.0313  0.4110
  710MOL0     C95777   8.087   6.863   7.727  0.2450  0.5659 -0.6702
  710MOL0     C95778   7.949   6.868   7.675 -0.2455  0.1087 -0.0932
  710MOL0     C95779   7.833   6.882   7.652  0.6426 -1.3497  0.3762
  710MOL0     C95780   8.607   6.779   7.457  0.3665  0.1557 -0.2963
  710MOL0     C95781   8.687   6.675   7.485  0.0137  0.4159  0.0427
  710MOL0     C95782   8.713   6.574   7.380  0.3931  0.0064 -0.4318
  710MOL0     H95783   9.118   6.411   7.432 -0.1193  1.6835 -0.3871
  710MOL0     H95784   9.328   6.296   7.529 -1.0721 -0.6382  0.7227
  710MOL0     H95785   9.396   6.167   7.741 -1.0562  0.4721 -0.0725
  710MOL0     H95786   9.501   6.246   7.616 -0.3541 -1.3706 -0.0831
  710MOL0     H95787   9.600   6.081   7.758  0.9332  0.2236  1.5483
  710MOL0     H95788   9.571   6.160   7.906 -2.5246 -1.7757 -0.3792
  710MOL0     H95789   9.720   6.362   7.791 -0.6966  0.7774  0.0310
  710MOL0     H95790   9.761   6.243   7.673  0.1585 -0.1185  0.0706
  710MOL0     H95791   9.803   6.205   7.977  1.1286 -1.2492  0.6021
  710MOL0     H95792   9.860   6.098   7.846 -0.5623  0.6543 -0.5252
  710MOL0     H95793  10.008   6.254   7.759  2.0939  1.5314  0.8222
  710MOL0     H95794   9.955   6.386   7.865  0.0714 -0.4093 -2.2230
  710MOL0     H95795  10.036   6.239   8.062 -0.9237 -0.6097 -0.6385
  710MOL0     H95796  10.089   6.119   7.944  0.3859  0.5424 -1.1947
  710MOL0     H95797  10.167   6.407   7.979 -0.7371 -1.6520  2.4081
  710MOL0     H95798  10.207   6.320   7.835 -1.5192  3.9573 -0.2830
  710MOL0     H95799  10.345   6.148   7.979  0.7949 -0.6929  1.9372
  710MOL0     H95800  10.397   6.316   8.007 -0.9032  1.7947 -0.4358
  710MOL0     H95801  10.170   6.064   8.182  1.5120 -1.1058  0.3191
  710MOL0     H95802  10.066   6.052   8.419  0.3933 -0.9562 -1.7931
  710MOL0     H95803  10.214   6.056   8.527  1.2046  0.7023 -0.9247
  710MOL0     H95804  10.179   6.276   8.589 -0.1768  0.5549  0.1761
  710MOL0     H95805  10.018   6.298   8.528 -0.5894  0.2081  2.6192
  710MOL0     H95806   9.967   6.258   8.728  1.7268  2.4253 -1.7387
  710MOL0     H95807  10.074   6.109   8.759 -3.5441 -3.8678  0.3617
  710MOL0     H95808   9.837   6.032   8.724 -2.6844  1.2426 -0.4531
  710MOL0     H95809   9.942   5.975   8.594  1.8712  0.0086  2.0918
  710MOL0     H95810   9.636   6.269   8.406 -1.0125  1.5055  2.4449
  710MOL0     H95811   9.404   6.187   8.339  2.0935  1.5463 -1.2203
  710MOL0     H95812   9.177   5.634   8.508 -0.4407 -0.5922 -0.1655
  710MOL0     H95813   8.955   5.522   8.442 -0.2422 -0.3313 -0.2261
  710MOL0     H95814   8.895   5.389   8.202  1.0913  1.9125 -0.8511
  710MOL0     H95815   8.783   5.414   8.332  1.5438  1.0718  1.5510
  710MOL0     H95816   8.720   5.421   8.023 -2.8140  2.1304  0.0105
  710MOL0     H95817   8.679   5.294   8.135  4.3384 -1.9727  2.2814
  710MOL0     H95818   8.543   5.448   8.283 -2.2877 -0.1548 -0.0856
  710MOL0     H95819   8.582   5.584   8.186 -1.0734 -1.0398  1.6253
  710MOL0     H95820   8.412   5.356   8.094  2.0297 -1.1533  1.7866
  710MOL0     H95821   8.479   5.481   7.991  0.9066 -1.4442 -0.6653
  710MOL0     H95822   8.381   5.653   8.145  1.1024  0.1141  0.3451
  710MOL0     H95823   8.290   5.528   8.228 -1.1256 -0.2683  0.2321
  710MOL0     H95824   8.245   5.580   7.924  1.0270 -4.3238 -0.3729
  710MOL0     H95825   8.175   5.462   8.035  1.9190 -0.8141  0.3691
  710MOL0     H95826   8.024   5.664   7.984  2.6378 -1.5493 -2.9710
  710MOL0     H95827   8.153   5.757   8.057  0.9570 -0.9339  1.3511
  710MOL0     H95828   7.972   5.546   8.186  1.8287 -1.6547 -3.3208
  710MOL0     H95829   8.097   5.644   8.273  1.0728  0.9842 -1.1404
  710MOL0     H95830   8.983   5.770   8.082  1.9705  1.9060  0.4121
  710MOL0     H95831   9.178   5.864   8.153 -0.2946 -1.2582 -1.0351
  710MOL0     H95832   9.498   5.829   8.573 -1.8977  1.8172  2.2459
  710MOL0     H95833   9.720   5.910   8.609  1.4698  1.3197 -0.6077
  710MOL0     H95834   9.304   6.567   7.872  0.0070 -1.4005  1.0353
  710MOL0     H95835   9.087   6.644   7.783 -2.4290 -1.1381 -1.5888
  710MOL0     H95836   8.756   6.739   7.810 -1.8710 -5.4246  0.7974
  710MOL0     H95837   8.558   6.894   7.778 -1.3041  0.7760 -0.7318
  710MOL0     H95838   8.335   7.099   7.530 -0.6140 -2.0905  0.0458
  710MOL0     H95839   8.470   7.090   7.640  1.0768  3.7045 -4.0132
  710MOL0     H95840   8.297   7.021   7.781 -1.5014  0.9071  0.1568
  710MOL0     H95841   8.346   6.865   7.724 -1.3946 -1.0336 -2.5556
  710MOL0     H95842   8.185   6.860   7.539 -5.6115 -1.0238 -0.0127
  710MOL0     H95843   8.129   7.016   7.585  2.4194  1.0452  0.3374
  710MOL0     H95844   8.118   6.760   7.748 -1.7464  0.5198  2.9843
  710MOL0     H95845   8.094   6.912   7.825 -0.9917 -0.4393 -0.0663
  710MOL0     H95846   7.727   6.898   7.643  0.9851  0.3538 -1.4388
  710MOL0     H95847   8.565   6.780   7.357 -1.4003  0.4812  0.4200
  710MOL0     H95848   8.716   6.471   7.418 -0.9404  0.2579  0.4119
  710MOL0     H95849   8.640   6.579   7.299  0.4204  0.9558 -0.4036
  710MOL0     H95850   8.813   6.588   7.338 -0.2543  0.8398 -1.7606
  711MOL0     O95851   3.319   6.331   9.763 -0.0404  0.4736  0.1232
  711MOL0     C95852   3.284   6.407   9.671  1.1075 -0.0799  0.3988
  711MOL0     O95853   3.364   6.510   9.625  0.4522 -0.2532 -0.8753
  711MOL0     C95854   3.493   6.504   9.659 -0.2032 -0.7194  0.4712
  711MOL0     C95855   3.547   6.564   9.769 -0.4637 -0.4237 -0.0575
  711MOL0     C95856   3.687   6.567   9.787  0.1046  0.0145  0.4058
  711MOL0     C95857   3.778   6.513   9.694  0.6004 -0.7929 -0.0580
  711MOL0     O95858   3.909   6.513   9.733 -0.1461 -0.4087 -0.4213
  711MOL0     C95859   3.995   6.416   9.675 -0.5135 -0.6185  0.4689
  711MOL0     C95860   4.146   6.455   9.708  0.5407  0.7965 -0.3163
  711MOL0     C95861   4.259   6.387   9.625 -0.0338  0.3807 -0.8821
  711MOL0     C95862   4.384   6.439   9.694  0.3465 -0.3765 -0.3140
  711MOL0     C95863   4.505   6.432   9.607  0.0486  0.5412 -0.1485
  711MOL0     C95864   4.546   6.286   9.567 -0.5907 -0.0285  0.8266
  711MOL0     C95865   4.671   6.270   9.488  0.0013 -0.3624  0.4871
  711MOL0     C95866   4.647   6.338   9.347 -0.1204 -0.2469  0.6916
  711MOL0     N95867   4.748   6.307   9.249 -0.5689 -0.3399 -0.4172
  711MOL0     C95868   4.826   6.191   9.243 -0.4548 -0.0253 -0.2155
  711MOL0     C95869   4.920   6.230   9.148 -1.5582  0.4112  0.0159
  711MOL0     C95870   5.040   6.146   9.122 -0.5320  0.0440  0.7643
  711MOL0     C95871   5.007   6.008   9.054 -0.1862 -0.1936 -0.5378
  711MOL0     C95872   5.124   5.961   8.965  0.1295 -0.8638 -0.6745
  711MOL0     C95873   5.222   5.878   9.036 -0.6885  0.1573  0.3474
  711MOL0     O95874   5.335   5.853   8.945  1.3044 -0.0164 -0.0337
  711MOL0     C95875   5.452   5.836   9.002  0.0134 -0.3359 -0.7827
  711MOL0     C95876   5.556   5.841   8.903  1.2423 -0.2006 -0.8331
  711MOL0     C95877   5.684   5.834   8.947 -1.1610  0.2935  0.8555
  711MOL0     C95878   5.716   5.820   9.089 -0.4899  0.6181  0.4130
  711MOL0     C95879   5.848   5.826   9.138 -0.8797 -0.9655  0.2073
  711MOL0     O95880   5.947   5.786   9.051  0.1174  0.8317  0.0369
  711MOL0     C95881   6.081   5.788   9.086  0.2885 -0.1860  0.5765
  711MOL0     C95882   6.146   5.667   9.123 -0.1610  0.4105 -0.2100
  711MOL0     C95883   6.283   5.661   9.148  0.6863 -0.7222 -0.8400
  711MOL0     C95884   6.360   5.774   9.142 -0.0648  0.6328 -0.5647
  711MOL0     O95885   6.497   5.787   9.162  0.2960  1.1543  0.4466
  711MOL0     C95886   6.570   5.665   9.195 -0.2255  0.1252  0.0467
  711MOL0     C95887   6.723   5.693   9.215  0.9479 -0.3423  0.2939
  711MOL0     C95888   6.799   5.581   9.262 -0.2088  1.1679 -0.6041
  711MOL0     C95889   6.878   5.515   9.144  0.4076  0.3545  0.6779
  711MOL0     C95890   6.939   5.379   9.186 -0.5863  0.7382 -0.4956
  711MOL0     C95891   7.047   5.323   9.099 -0.0243  0.1730  0.1275
  711MOL0     C95892   7.151   5.235   9.164  0.0995 -0.1228  0.6308
  711MOL0     C95893   7.116   5.085   9.158 -0.2029 -0.9119  0.0299
  711MOL0    Cl95894   7.254   5.001   9.239  0.3205 -0.0710  0.3458
  711MOL0     C95895   6.295   5.899   9.114  0.9585 -0.3988 -1.1682
  711MOL0     C95896   6.155   5.908   9.087 -0.6397 -0.0675 -0.3133
  711MOL0     O95897   5.870   5.860   9.252 -0.1844 -0.8566  0.8483
  711MOL0     C95898   5.611   5.800   9.178  0.4330 -0.3711 -0.4311
  711MOL0     C95899   5.479   5.802   9.135  0.5260  0.5495  0.2482
  711MOL0     N95900   4.903   6.358   9.111 -0.3088 -0.5229  0.9779
  711MOL0     N95901   4.804   6.408   9.177 -0.0376  0.3226  0.4099
  711MOL0     C95902   3.719   6.457   9.568  0.8506 -0.6699 -0.1570
  711MOL0     C95903   3.581   6.449   9.560  0.0367  0.1162  0.5094
  711MOL0     C95904   3.150   6.396   9.600  0.3296 -0.0019 -0.0668
  711MOL0     C95905   3.116   6.495   9.518  0.1923  0.0534 -0.4029
  711MOL0     C95906   2.993   6.489   9.448  0.2808 -0.2005  0.5588
  711MOL0     C95907   2.905   6.377   9.468  0.8307  0.3160 -0.1452
  711MOL0     O95908   2.785   6.347   9.403  0.5776  0.4175  0.7052
  711MOL0     C95909   2.708   6.449   9.346  0.2635  0.5861  0.0169
  711MOL0     C95910   2.564   6.436   9.393  0.2939  0.5516 -0.6312
  711MOL0     C95911   2.557   6.452   9.544  0.1514  1.1338 -0.4118
  711MOL0     C95912   2.406   6.453   9.591 -0.3240 -0.0158 -0.4289
  711MOL0     C95913   2.350   6.311   9.593  0.0928 -0.1578 -0.7173
  711MOL0     C95914   2.319   6.197   9.617  0.5038  0.4659  0.5034
  711MOL0     C95915   2.942   6.278   9.552 -0.9410 -0.1310  0.4347
  711MOL0     C95916   3.066   6.281   9.621 -0.6601 -1.1054 -0.4677
  711MOL0     C95917   3.079   6.174   9.729 -0.2108 -0.0942 -0.7757
  711MOL0     H95918   3.479   6.622   9.830  2.1691  2.8967  0.0126
  711MOL0     H95919   3.726   6.623   9.872  1.0713  0.0778 -0.0626
  711MOL0     H95920   3.973   6.310   9.691 -0.5439 -0.8073 -0.7287
  711MOL0     H95921   3.984   6.423   9.566  0.6242 -1.5861  0.2724
  711MOL0     H95922   4.160   6.421   9.811  3.4654  4.0352  0.5491
  711MOL0     H95923   4.166   6.562   9.705 -1.1381  1.2769 -5.6891
  711MOL0     H95924   4.262   6.409   9.518  0.1985 -0.6971 -1.1060
  711MOL0     H95925   4.270   6.279   9.639  1.7069  0.7521  1.1318
  711MOL0     H95926   4.373   6.542   9.728 -0.0042 -0.1507 -1.0915
  711MOL0     H95927   4.404   6.387   9.788 -3.5418  0.8581  1.4202
  711MOL0     H95928   4.492   6.498   9.521  1.3172 -0.5804 -1.2574
  711MOL0     H95929   4.587   6.461   9.673  0.9842 -1.7965 -0.1959
  711MOL0     H95930   4.570   6.236   9.661  1.6266 -1.8662 -0.5984
  711MOL0     H95931   4.472   6.231   9.507  1.0668 -4.2643  2.3155
  711MOL0     H95932   4.692   6.163   9.478  0.9906 -0.0778 -0.7335
  711MOL0     H95933   4.762   6.310   9.535  0.6403  0.5287 -1.3908
  711MOL0     H95934   4.554   6.303   9.301 -0.6090  0.1294  1.3646
  711MOL0     H95935   4.632   6.446   9.355  1.2561 -0.1372  2.3830
  711MOL0     H95936   4.825   6.101   9.303 -1.9458  0.2540  0.2139
  711MOL0     H95937   5.111   6.197   9.056 -1.7756 -2.0105 -2.3918
  711MOL0     H95938   5.081   6.127   9.221 -0.5037 -3.2092  0.2434
  711MOL0     H95939   4.989   5.939   9.136 -0.1927  1.1572  0.6340
  711MOL0     H95940   4.918   6.017   8.990  1.0232  3.0206 -1.9549
  711MOL0     H95941   5.183   6.046   8.929 -0.0348 -0.8655 -0.9445
  711MOL0     H95942   5.079   5.898   8.888 -1.3770  0.8366 -1.2495
  711MOL0     H95943   5.185   5.782   9.072 -4.2874  2.7023  4.4879
  711MOL0     H95944   5.258   5.940   9.118  1.0956  1.4013 -1.2714
  711MOL0     H95945   5.537   5.843   8.796  3.2590  0.1095 -1.2198
  711MOL0     H95946   5.762   5.839   8.871 -0.5294 -1.6735  1.3167
  711MOL0     H95947   6.088   5.576   9.109 -0.8998  0.6042  1.3967
  711MOL0     H95948   6.311   5.558   9.166 -2.7665 -2.3338 -3.3864
  711MOL0     H95949   6.533   5.633   9.292  2.5791 -0.1818  1.0943
  711MOL0     H95950   6.561   5.595   9.111  1.8396  1.5255 -1.4558
  711MOL0     H95951   6.758   5.731   9.119 -1.2976 -0.5732 -0.6775
  711MOL0     H95952   6.734   5.770   9.291 -0.4897  0.1237  0.0683
  711MOL0     H95953   6.874   5.602   9.339  0.3412 -3.4103  0.4052
  711MOL0     H95954   6.738   5.505   9.312  0.0541  2.7681  2.3474
  711MOL0     H95955   6.958   5.582   9.113  0.1634 -0.5442 -2.1756
  711MOL0     H95956   6.816   5.501   9.055  1.3914 -0.7540  0.1473
  711MOL0     H95957   6.861   5.304   9.205  1.8321 -1.7842  0.2218
  711MOL0     H95958   6.988   5.400   9.282  1.5153  0.1212 -1.3856
  711MOL0     H95959   6.999   5.299   9.003  0.3457  2.1140 -0.5940
  711MOL0     H95960   7.105   5.405   9.055  1.8609 -0.9712  0.3721
  711MOL0     H95961   7.165   5.259   9.270 -1.1882 -0.6223  0.9295
  711MOL0     H95962   7.244   5.256   9.110 -1.2610  1.8487 -1.1566
  711MOL0     H95963   7.019   5.067   9.205 -0.7073  1.3216 -0.0372
  711MOL0     H95964   7.120   5.054   9.053  1.4199 -0.9705  0.0797
  711MOL0     H95965   6.358   5.987   9.120  1.1173 -0.5911  2.1701
  711MOL0     H95966   6.105   6.003   9.071  0.2742  1.4435  4.4417
  711MOL0     H95967   5.633   5.777   9.281  1.0895  1.1296 -0.2124
  711MOL0     H95968   5.395   5.766   9.194 -2.9587  2.4938 -3.0816
  711MOL0     H95969   3.787   6.409   9.498  0.3909 -0.0088 -1.0689
  711MOL0     H95970   3.540   6.390   9.479  1.5016 -0.9467  0.4977
  711MOL0     H95971   3.171   6.587   9.500  0.3580  0.1854  0.7111
  711MOL0     H95972   2.970   6.560   9.370 -1.7229 -2.8297 -1.4480
  711MOL0     H95973   2.709   6.432   9.238  2.2575 -0.5810  0.1817
  711MOL0     H95974   2.742   6.552   9.363 -0.3004  1.1762 -2.1089
  711MOL0     H95975   2.517   6.341   9.365  0.7304 -0.8794  2.9155
  711MOL0     H95976   2.508   6.522   9.354  0.7820  1.6402  0.9676
  711MOL0     H95977   2.607   6.546   9.571  0.9595  1.0133 -1.4226
  711MOL0     H95978   2.597   6.365   9.596 -2.7785 -1.1372 -1.7074
  711MOL0     H95979   2.407   6.485   9.695 -2.3399 -0.3553 -0.2683
  711MOL0     H95980   2.351   6.521   9.526  1.0682  1.4029 -0.1824
  711MOL0     H95981   2.298   6.095   9.645  0.2666  0.8942  1.9544
  711MOL0     H95982   2.869   6.202   9.579 -1.6481  0.9816  1.7732
  711MOL0     H95983   3.172   6.118   9.715  0.7021  1.5279 -1.4528
  711MOL0     H95984   3.094   6.214   9.830 -2.1049 -1.1032 -0.0409
  711MOL0     H95985   2.994   6.105   9.724 -0.5538  0.3198 -0.7323
  712MOL0     O95986   0.521   2.846   5.543 -0.5379  0.3940  0.7811
  712MOL0     C95987   0.622   2.827   5.617  0.2633  0.0801 -0.7314
  712MOL0     O95988   0.703   2.927   5.664  0.4756 -0.1095 -0.5161
  712MOL0     C95989   0.665   3.060   5.654 -0.3210  0.4830 -0.5396
  712MOL0     C95990   0.535   3.108   5.622 -0.1968  0.1047 -1.0562
  712MOL0     C95991   0.507   3.244   5.623 -0.2121 -0.1570  0.5264
  712MOL0     C95992   0.605   3.339   5.657  0.5542  0.0816  0.2440
  712MOL0     O95993   0.588   3.477   5.655 -0.1928 -0.3054 -0.3520
  712MOL0     C95994   0.530   3.521   5.784 -0.4311  0.3068 -0.0881
  712MOL0     C95995   0.536   3.673   5.781  0.1989  0.8510  0.6378
  712MOL0     C95996   0.485   3.728   5.643 -0.1114 -0.6509 -0.6701
  712MOL0     C95997   0.429   3.874   5.670 -0.8075 -0.0597 -0.1528
  712MOL0     C95998   0.419   3.943   5.539 -0.4577 -0.0159 -0.9140
  712MOL0     C95999   0.398   4.094   5.560  0.8680 -0.1632  0.3566
  712MOL0     C96000   0.263   4.127   5.624  0.8452  0.2880 -0.3656
  712MOL0     C96001   0.257   4.286   5.616  0.5641  1.2907 -0.6489
  712MOL0     N96002   0.136   4.353   5.673  0.1275 -0.1293  0.5346
  712MOL0     C96003   0.006   4.306   5.659  0.2044 -0.7184  0.2217
  712MOL0     C96004  -0.065   4.414   5.720 -0.5963 -0.0339  0.1669
  712MOL0     C96005  -0.214   4.423   5.725  0.6711 -0.2855 -0.3401
  712MOL0     C96006  -0.265   4.550   5.645  0.1592  1.2707  1.0703
  712MOL0     C96007  -0.413   4.555   5.625  1.0726  0.3835 -0.7678
  712MOL0     C96008  -0.453   4.686   5.560 -0.4157 -0.1440  0.4031
  712MOL0     O96009  -0.577   4.676   5.492 -0.3657  0.1129  0.2978
  712MOL0     C96010  -0.685   4.654   5.573  0.1762  0.5664 -0.4246
  712MOL0     C96011  -0.813   4.627   5.515  0.3165 -0.4576 -0.8683
  712MOL0     C96012  -0.932   4.608   5.587 -0.0112 -0.6826 -0.3786
  712MOL0     C96013  -0.928   4.610   5.723 -0.4473 -0.1675  0.0530
  712MOL0     C96014  -1.047   4.578   5.796  0.0844 -0.3789  0.1584
  712MOL0     O96015  -1.163   4.555   5.730  0.1611  0.1786  0.0482
  712MOL0     C96016  -1.289   4.547   5.791 -0.1912 -1.2825  0.6867
  712MOL0     C96017  -1.394   4.627   5.738  0.4540  0.4739  0.2572
  712MOL0     C96018  -1.524   4.615   5.789  0.4384  0.5720  0.7607
  712MOL0     C96019  -1.555   4.538   5.902  0.1418  0.1992  0.1783
  712MOL0     O96020  -1.676   4.547   5.962 -0.5393  0.3699 -0.6250
  712MOL0     C96021  -1.784   4.631   5.910  1.5232  0.7541 -1.3201
  712MOL0     C96022  -1.888   4.643   6.019 -0.1603  0.1040 -0.3430
  712MOL0     C96023  -1.889   4.783   6.092 -0.8286 -0.8108  0.8578
  712MOL0     C96024  -1.981   4.777   6.217  0.3880 -0.1919 -0.6201
  712MOL0     C96025  -1.978   4.903   6.310  0.0848 -0.3735 -0.3102
  712MOL0     C96026  -2.074   5.017   6.262  0.2597 -0.9740 -0.9577
  712MOL0     C96027  -2.051   5.153   6.322 -0.2365 -0.0016 -0.3560
  712MOL0     C96028  -2.180   5.236   6.325 -0.5813 -0.6638 -0.3153
  712MOL0    Cl96029  -2.237   5.254   6.166  0.3224 -0.1064  0.7068
  712MOL0     C96030  -1.452   4.454   5.957 -0.4118  0.3368  0.5584
  712MOL0     C96031  -1.321   4.481   5.911  0.5949  0.2277 -0.6817
  712MOL0     O96032  -1.035   4.590   5.919  0.3637 -0.9382 -0.4609
  712MOL0     C96033  -0.811   4.657   5.785  0.4477  1.3308  0.2837
  712MOL0     C96034  -0.690   4.675   5.713  0.6447  0.0268 -0.6375
  712MOL0     N96035   0.026   4.510   5.759 -0.0286 -0.5255 -0.7036
  712MOL0     N96036   0.145   4.468   5.740 -0.3228  0.5844  0.0123
  712MOL0     C96037   0.734   3.297   5.690  0.1175 -0.3866 -0.9825
  712MOL0     C96038   0.755   3.158   5.700 -0.2148  1.2610 -0.1453
  712MOL0     C96039   0.651   2.692   5.647 -0.1750 -0.2018  0.5254
  712MOL0     C96040   0.550   2.621   5.705  0.2066 -0.8106  0.8310
  712MOL0     C96041   0.564   2.489   5.754 -0.4139  0.7402 -0.7852
  712MOL0     C96042   0.686   2.427   5.734 -0.1787  0.2605  1.4268
  712MOL0     O96043   0.697   2.293   5.766  0.4866  0.0727  0.0699
  712MOL0     C96044   0.749   2.193   5.668  0.7207  0.5386 -0.1873
  712MOL0     C96045   0.677   2.055   5.695  0.0412  0.5800  0.1786
  712MOL0     C96046   0.677   2.014   5.837  0.2728  0.5951 -0.5271
  712MOL0     C96047   0.572   1.899   5.860 -1.0069  1.0770 -0.6508
  712MOL0     C96048   0.589   1.852   5.999  0.2760 -1.0220  0.2976
  712MOL0     C96049   0.615   1.806   6.101 -0.0589  1.1973 -0.5102
  712MOL0     C96050   0.790   2.495   5.651  0.4492  0.5109 -0.9144
  712MOL0     C96051   0.773   2.628   5.614  0.3972  0.1571  0.4236
  712MOL0     C96052   0.893   2.710   5.554  0.2393  1.1490 -0.8351
  712MOL0     H96053   0.444   3.057   5.593 -1.4286  1.0499  0.9122
  712MOL0     H96054   0.411   3.284   5.591  1.2614  2.6280 -0.7655
  712MOL0     H96055   0.426   3.490   5.793 -0.6886  1.3191  0.5439
  712MOL0     H96056   0.588   3.482   5.868  1.9663 -0.4881 -1.9871
  712MOL0     H96057   0.629   3.724   5.806  1.1536  0.8497 -2.5050
  712MOL0     H96058   0.462   3.707   5.854 -0.9074  2.7142 -1.2139
  712MOL0     H96059   0.402   3.668   5.605 -0.0064 -0.2177 -1.6119
  712MOL0     H96060   0.569   3.729   5.573  1.4474 -0.4800  1.1258
  712MOL0     H96061   0.338   3.867   5.730  1.6808 -1.0433  3.8544
  712MOL0     H96062   0.507   3.922   5.730  1.3343 -0.4107 -2.4679
  712MOL0     H96063   0.518   3.934   5.494  1.5175 -0.4039  3.1056
  712MOL0     H96064   0.337   3.899   5.481 -4.6890  1.5649  3.2797
  712MOL0     H96065   0.463   4.138   5.636  0.0836 -0.0116  0.9601
  712MOL0     H96066   0.396   4.146   5.463  2.3862  0.1328  0.4626
  712MOL0     H96067   0.245   4.080   5.721 -1.0968 -1.8450 -1.6514
  712MOL0     H96068   0.187   4.077   5.563  0.8562  0.6429 -0.6748
  712MOL0     H96069   0.346   4.328   5.665  1.7777 -1.4276 -0.3411
  712MOL0     H96070   0.269   4.311   5.510  2.2709 -2.2616 -1.4555
  712MOL0     H96071  -0.019   4.209   5.617  0.0587  0.2586 -2.1573
  712MOL0     H96072  -0.263   4.338   5.677 -0.1045 -0.3503  0.5306
  712MOL0     H96073  -0.243   4.420   5.830  1.6526  1.1600  0.0073
  712MOL0     H96074  -0.244   4.627   5.719  0.8936 -1.3094  3.7387
  712MOL0     H96075  -0.215   4.554   5.548 -0.8975  3.3105  0.5490
  712MOL0     H96076  -0.465   4.529   5.718 -0.8627 -0.1056 -1.9239
  712MOL0     H96077  -0.429   4.467   5.561  0.7281 -2.5565  3.0016
  712MOL0     H96078  -0.376   4.701   5.484  1.1861 -0.1633  1.9681
  712MOL0     H96079  -0.454   4.770   5.630 -2.2884  0.6369 -0.4726
  712MOL0     H96080  -0.833   4.620   5.409 -0.7757  1.3915 -0.8366
  712MOL0     H96081  -1.024   4.594   5.530 -0.8861 -2.6753  1.3965
  712MOL0     H96082  -1.383   4.688   5.649 -1.1153 -1.7055 -1.5541
  712MOL0     H96083  -1.599   4.677   5.740  1.3783  1.6427  0.6324
  712MOL0     H96084  -1.760   4.734   5.882 -3.2281  2.8675  1.1505
  712MOL0     H96085  -1.835   4.584   5.826  0.4782  2.3570 -1.6347
  712MOL0     H96086  -1.983   4.630   5.966  0.1079 -0.4458 -0.6988
  712MOL0     H96087  -1.879   4.560   6.089 -3.9061 -1.2091 -1.2088
  712MOL0     H96088  -1.786   4.813   6.115 -0.3052 -2.2255  0.4703
  712MOL0     H96089  -1.923   4.857   6.019 -1.5190 -0.9831  0.9945
  712MOL0     H96090  -1.954   4.695   6.285  2.6726 -0.2219 -1.4623
  712MOL0     H96091  -2.080   4.768   6.173  1.1421 -2.0440 -2.0566
  712MOL0     H96092  -1.875   4.939   6.320 -0.5231  1.1193  1.1020
  712MOL0     H96093  -1.999   4.867   6.411  3.3696 -0.3271  0.4727
  712MOL0     H96094  -2.078   5.015   6.152  1.8966 -0.6194 -1.0436
  712MOL0     H96095  -2.173   4.981   6.292  1.4193 -1.1804  3.1030
  712MOL0     H96096  -1.971   5.206   6.271 -1.7005  0.6493 -2.1049
  712MOL0     H96097  -2.006   5.137   6.420 -1.6368 -3.4808 -0.1164
  712MOL0     H96098  -2.259   5.189   6.384 -1.5984  0.6675 -0.5861
  712MOL0     H96099  -2.162   5.336   6.364 -0.4840 -0.6134 -0.4878
  712MOL0     H96100  -1.466   4.392   6.045 -1.5549 -1.1984 -0.6409
  712MOL0     H96101  -1.236   4.429   5.955  1.4269  2.1542  0.0852
  712MOL0     H96102  -0.824   4.697   5.885 -4.2823  3.7077 -0.9365
  712MOL0     H96103  -0.604   4.715   5.765  0.2029  1.0915 -0.7101
  712MOL0     H96104   0.818   3.362   5.714 -0.5572 -0.3137  1.4097
  712MOL0     H96105   0.851   3.119   5.731 -1.2550 -0.2946  1.3202
  712MOL0     H96106   0.450   2.661   5.719  1.4340  3.5747 -0.8939
  712MOL0     H96107   0.478   2.439   5.796  1.6167 -1.8397  0.6308
  712MOL0     H96108   0.854   2.180   5.696  0.7271 -1.3404 -0.9763
  712MOL0     H96109   0.730   2.240   5.571  0.5671  1.6432  0.3583
  712MOL0     H96110   0.718   1.968   5.643 -2.2666 -1.1425  1.0628
  712MOL0     H96111   0.570   2.051   5.671  0.1280  1.3670 -0.4224
  712MOL0     H96112   0.660   2.097   5.907  0.3652  0.7097 -0.6407
  712MOL0     H96113   0.777   1.976   5.864  0.2427  0.9203  0.0752
  712MOL0     H96114   0.468   1.926   5.838 -2.0988 -3.0408 -1.4635
  712MOL0     H96115   0.590   1.813   5.795 -0.8365 -0.4121  1.2620
  712MOL0     H96116   0.639   1.764   6.196  1.3654  1.9326 -0.5132
  712MOL0     H96117   0.893   2.470   5.627  1.9174  2.8737  2.1950
  712MOL0     H96118   0.984   2.650   5.546 -0.8581 -0.9831  1.4237
  712MOL0     H96119   0.859   2.748   5.457  1.4504  3.5678 -0.4035
  712MOL0     H96120   0.921   2.790   5.623 -3.0997  1.2256  0.6197
  713MOL0     O96121   4.057   1.148   2.729 -0.2111  0.2513  0.1966
  713MOL0     C96122   4.168   1.094   2.731  1.0922 -0.0462  0.6837
  713MOL0     O96123   4.186   0.963   2.747  1.1974 -0.4152  0.2235
  713MOL0     C96124   4.060   0.890   2.739 -0.1919  0.6815 -0.2331
  713MOL0     C96125   4.006   0.874   2.609 -0.4074 -0.6427  0.2698
  713MOL0     C96126   3.893   0.793   2.583  0.2920 -0.6392  0.4581
  713MOL0     C96127   3.827   0.731   2.691 -0.9357 -0.2005  0.3569
  713MOL0     O96128   3.722   0.646   2.659  1.0696  0.3669  0.2383
  713MOL0     C96129   3.674   0.545   2.751 -0.3908 -0.9161 -0.5122
  713MOL0     C96130   3.553   0.473   2.697 -0.2234  0.4377  0.9311
  713MOL0     C96131   3.577   0.320   2.670 -0.0423 -0.1481 -0.0927
  713MOL0     C96132   3.685   0.288   2.572 -0.1696  0.3425  0.4667
  713MOL0     C96133   3.705   0.130   2.575 -0.2605  0.1476 -0.3876
  713MOL0     C96134   3.831   0.094   2.489 -0.0302  0.4170  0.4892
  713MOL0     C96135   3.864  -0.049   2.509 -0.3833 -0.2576  0.0574
  713MOL0     C96136   3.981  -0.089   2.421  0.7173  0.2387 -0.6897
  713MOL0     N96137   4.014  -0.236   2.422 -0.4948  0.6655  0.6100
  713MOL0     C96138   4.097  -0.296   2.511 -0.2782  0.1768 -0.0337
  713MOL0     C96139   4.110  -0.420   2.475  0.4395  0.2400  0.3832
  713MOL0     C96140   4.189  -0.533   2.532  0.2570  0.4110 -0.9062
  713MOL0     C96141   4.313  -0.545   2.447 -0.1991  1.0533 -0.0075
  713MOL0     C96142   4.363  -0.694   2.449 -0.5501  0.9887  0.2027
  713MOL0     C96143   4.384  -0.742   2.593  0.5358 -0.3093  0.8860
  713MOL0     O96144   4.441  -0.643   2.671 -1.2444 -0.3803  0.2573
  713MOL0     C96145   4.579  -0.602   2.655  0.2130 -0.7241 -0.8688
  713MOL0     C96146   4.622  -0.496   2.743 -0.2905 -0.0246 -0.3399
  713MOL0     C96147   4.762  -0.460   2.746  0.1806 -0.0269  0.5521
  713MOL0     C96148   4.854  -0.523   2.656  0.4145  0.5778  0.3138
  713MOL0     C96149   4.997  -0.503   2.667  0.1544  0.4110  0.8459
  713MOL0     O96150   5.038  -0.406   2.757 -0.2030 -0.1526 -0.4236
  713MOL0     C96151   5.167  -0.425   2.807 -0.7910  0.0982 -0.0522
  713MOL0     C96152   5.281  -0.359   2.752  0.6905  0.4081  0.5835
  713MOL0     C96153   5.404  -0.353   2.821  0.4495 -0.0632 -0.2393
  713MOL0     C96154   5.426  -0.425   2.935 -0.0365 -0.9404 -0.2336
  713MOL0     O96155   5.543  -0.406   3.010  0.0780 -0.3226 -0.8028
  713MOL0     C96156   5.661  -0.396   2.943  0.3792  0.3389 -0.0424
  713MOL0     C96157   5.773  -0.368   3.040 -0.2825  0.5375 -0.6930
  713MOL0     C96158   5.769  -0.222   3.078 -0.6852  0.0529 -0.3994
  713MOL0     C96159   5.884  -0.191   3.174 -0.5722  0.5868 -0.0997
  713MOL0     C96160   5.913  -0.044   3.172 -0.1433  0.3197  0.0591
  713MOL0     C96161   6.050  -0.021   3.249 -0.0751  0.2982  0.4008
  713MOL0     C96162   6.094   0.124   3.240 -0.9277 -0.2168  0.0752
  713MOL0     C96163   6.040   0.222   3.349 -0.2643 -0.2221 -0.1286
  713MOL0    Cl96164   6.063   0.378   3.267 -0.4735  0.3724  0.5613
  713MOL0     C96165   5.326  -0.504   2.984  0.8766  0.4857  0.5191
  713MOL0     C96166   5.193  -0.497   2.923 -0.2266 -0.2307 -0.7016
  713MOL0     O96167   5.074  -0.585   2.622 -0.1651 -0.2695 -0.3119
  713MOL0     C96168   4.807  -0.624   2.570 -0.2122 -0.9136 -0.7135
  713MOL0     C96169   4.673  -0.663   2.570  0.0643  0.6055  0.3309
  713MOL0     N96170   4.036  -0.436   2.355  0.3260 -0.8407  0.1106
  713MOL0     N96171   3.982  -0.323   2.323 -0.2496  0.0923  0.2362
  713MOL0     C96172   3.889   0.739   2.813  0.6285 -0.5026 -0.1684
  713MOL0     C96173   3.995   0.824   2.846 -0.1261  0.6218 -0.1959
  713MOL0     C96174   4.283   1.185   2.723 -0.8117 -0.4608 -0.3318
  713MOL0     C96175   4.256   1.322   2.733  0.0792  0.3603  0.2532
  713MOL0     C96176   4.355   1.415   2.727 -0.3977  0.8816 -0.2900
  713MOL0     C96177   4.488   1.383   2.696 -0.5512 -0.2252  0.3817
  713MOL0     O96178   4.578   1.493   2.694  0.3074  0.1897  0.5400
  713MOL0     C96179   4.675   1.513   2.596 -0.5268  1.0981  0.5906
  713MOL0     C96180   4.725   1.662   2.592  0.1402 -0.0610  0.9921
  713MOL0     C96181   4.611   1.751   2.526 -0.5165 -0.0336  0.1990
  713MOL0     C96182   4.647   1.894   2.558  0.3721 -0.7071  0.4828
  713MOL0     C96183   4.574   1.982   2.475  0.2720  0.6691 -0.3662
  713MOL0     C96184   4.529   2.036   2.378 -0.9733  0.2063  0.4105
  713MOL0     C96185   4.516   1.253   2.675 -0.2937  0.1418 -0.4088
  713MOL0     C96186   4.416   1.149   2.683 -0.2597 -0.1941  0.4973
  713MOL0     C96187   4.448   1.017   2.629 -0.0723 -0.0565  0.8883
  713MOL0     H96188   4.065   0.916   2.528 -1.4072  3.7608  1.5332
  713MOL0     H96189   3.866   0.778   2.478  0.1502 -0.6994  0.5020
  713MOL0     H96190   3.755   0.478   2.783 -0.1184  0.8651  2.9349
  713MOL0     H96191   3.630   0.585   2.842 -0.3981  0.8728 -1.2649
  713MOL0     H96192   3.525   0.531   2.610  0.6394 -2.6488 -1.5953
  713MOL0     H96193   3.470   0.477   2.769 -0.7404 -2.4970  0.6262
  713MOL0     H96194   3.491   0.267   2.628  0.7000  0.4427 -2.5206
  713MOL0     H96195   3.610   0.280   2.766 -1.3885  1.1157  0.9406
  713MOL0     H96196   3.652   0.307   2.469 -2.1186  3.8709  1.5938
  713MOL0     H96197   3.782   0.338   2.584 -0.0159 -0.1914  1.5232
  713MOL0     H96198   3.736   0.098   2.675  2.1397 -1.7470 -1.6342
  713MOL0     H96199   3.611   0.088   2.541  0.3516  0.6375 -2.8851
  713MOL0     H96200   3.823   0.109   2.381  1.8017 -1.6120 -0.0038
  713MOL0     H96201   3.909   0.157   2.533  0.5182 -0.4178  0.7425
  713MOL0     H96202   3.775  -0.108   2.486 -0.1559 -0.9781  0.9724
  713MOL0     H96203   3.890  -0.059   2.614 -0.8518 -0.2631  0.1738
  713MOL0     H96204   3.962  -0.060   2.318  2.1146  3.0183 -0.2651
  713MOL0     H96205   4.078  -0.047   2.451  0.5977 -1.1103  1.8989
  713MOL0     H96206   4.145  -0.260   2.601 -0.9049 -1.2324  0.9059
  713MOL0     H96207   4.217  -0.506   2.634 -1.0156  1.5127 -0.8166
  713MOL0     H96208   4.140  -0.629   2.551  3.7348 -1.6661 -1.6580
  713MOL0     H96209   4.285  -0.533   2.342  1.3484 -0.3040 -0.6105
  713MOL0     H96210   4.385  -0.468   2.476  0.1106  0.7578  0.0107
  713MOL0     H96211   4.456  -0.705   2.394 -1.8132  3.2025 -2.6363
  713MOL0     H96212   4.287  -0.758   2.402  0.5313  0.1142 -0.3971
  713MOL0     H96213   4.432  -0.840   2.595  2.5755  0.5648 -1.1075
  713MOL0     H96214   4.282  -0.759   2.630 -1.1774  1.7824 -2.4009
  713MOL0     H96215   4.546  -0.452   2.806 -0.2718  2.1393 -1.7217
  713MOL0     H96216   4.792  -0.385   2.817  3.4948  0.4332 -1.1248
  713MOL0     H96217   5.254  -0.294   2.670  1.3114 -0.1347 -0.0576
  713MOL0     H96218   5.478  -0.276   2.803  1.7627 -0.4308  2.9672
  713MOL0     H96219   5.687  -0.494   2.902 -1.2235 -0.0495 -0.2005
  713MOL0     H96220   5.672  -0.323   2.862  0.2703 -0.7915 -1.0986
  713MOL0     H96221   5.763  -0.430   3.129  1.9709 -1.1110 -1.4885
  713MOL0     H96222   5.873  -0.376   2.996 -0.0090  2.7790 -0.6368
  713MOL0     H96223   5.770  -0.155   2.992  1.9237 -0.5736 -0.9247
  713MOL0     H96224   5.691  -0.203   3.153  0.8574 -1.6919  1.7974
  713MOL0     H96225   5.976  -0.236   3.135 -0.6733 -0.9078  1.2804
  713MOL0     H96226   5.862  -0.225   3.275  2.4742 -0.7128  0.2422
  713MOL0     H96227   5.824   0.005   3.212 -0.8048 -1.2378  0.5695
  713MOL0     H96228   5.933  -0.004   3.072 -1.5783 -1.5556 -1.0548
  713MOL0     H96229   6.044  -0.046   3.355  1.0794  0.5642  0.5427
  713MOL0     H96230   6.127  -0.088   3.208 -0.4464 -0.1682  0.4577
  713MOL0     H96231   6.077   0.170   3.142 -3.0340 -2.1632 -0.5537
  713MOL0     H96232   6.203   0.128   3.250 -1.1023  1.0946  2.2289
  713MOL0     H96233   5.932   0.207   3.359 -0.8356  1.8126 -2.3751
  713MOL0     H96234   6.084   0.223   3.449  0.7037  0.7925 -0.5482
  713MOL0     H96235   5.322  -0.560   3.077 -1.4988 -0.8841 -0.3069
  713MOL0     H96236   5.109  -0.552   2.966  0.9080  0.2976  2.4495
  713MOL0     H96237   4.882  -0.665   2.503  3.4963  2.8413  0.6774
  713MOL0     H96238   4.653  -0.740   2.497 -0.1299  2.1690 -1.3241
  713MOL0     H96239   3.836   0.708   2.903 -0.9403  1.0508 -0.5037
  713MOL0     H96240   4.023   0.831   2.951 -0.0010  4.1910 -0.3386
  713MOL0     H96241   4.162   1.364   2.768 -0.3325 -1.7527  1.8207
  713MOL0     H96242   4.321   1.515   2.750 -1.0343  0.8318 -0.9537
  713MOL0     H96243   4.634   1.482   2.499 -4.5790 -0.2125  2.5035
  713MOL0     H96244   4.762   1.450   2.619 -1.2783  0.5523  2.0611
  713MOL0     H96245   4.816   1.658   2.532 -0.3702 -0.3470  0.2291
  713MOL0     H96246   4.752   1.705   2.689  3.6882 -2.0149  1.0497
  713MOL0     H96247   4.519   1.721   2.579 -1.8523 -1.3142 -2.5913
  713MOL0     H96248   4.606   1.728   2.419  1.6712 -0.3661  0.1205
  713MOL0     H96249   4.637   1.911   2.666 -1.2606  1.5937  0.0341
  713MOL0     H96250   4.753   1.920   2.547  0.3886 -0.0721  1.8490
  713MOL0     H96251   4.490   2.092   2.296 -0.5715  4.3116  2.7501
  713MOL0     H96252   4.609   1.225   2.627  1.3606  1.2209  2.0206
  713MOL0     H96253   4.390   0.991   2.540  5.0587 -0.7053 -2.6584
  713MOL0     H96254   4.548   1.015   2.585  0.9499  1.7330  2.9313
  713MOL0     H96255   4.428   0.932   2.694 -0.4459  1.6194  3.0913
  714MOL0     O96256   6.843   5.899   2.109  0.1999  0.2549  0.1838
  714MOL0     C96257   6.725   5.883   2.082 -1.3440  0.8104 -0.1881
  714MOL0     O96258   6.642   5.790   2.134 -0.1497 -0.1263  0.9147
  714MOL0     C96259   6.681   5.683   2.214  0.4204 -0.2450  1.9367
  714MOL0     C96260   6.582   5.617   2.273  0.0182 -0.8695 -0.6582
  714MOL0     C96261   6.625   5.504   2.345  0.2338  0.0512  0.1367
  714MOL0     C96262   6.752   5.448   2.356 -0.0732  0.0223  0.6299
  714MOL0     O96263   6.786   5.333   2.414 -0.1824  0.6026  0.6551
  714MOL0     C96264   6.698   5.237   2.480  0.7988 -0.3120 -0.3717
  714MOL0     C96265   6.646   5.306   2.608  1.2374  0.3791 -0.2307
  714MOL0     C96266   6.516   5.253   2.650 -0.0182 -0.7312 -0.5909
  714MOL0     C96267   6.499   5.308   2.798  1.1688  0.0239 -0.1872
  714MOL0     C96268   6.367   5.259   2.861 -0.4084  0.0657  0.5140
  714MOL0     C96269   6.336   5.314   2.996  0.3871 -0.0713 -0.8147
  714MOL0     C96270   6.250   5.444   2.980 -0.0617  0.0388 -0.2669
  714MOL0     C96271   6.240   5.520   3.121  1.0683  1.1819 -0.1915
  714MOL0     N96272   6.125   5.613   3.108  0.8998 -0.4930  0.0171
  714MOL0     C96273   5.992   5.588   3.136  0.3201  0.3209 -0.0365
  714MOL0     C96274   5.923   5.704   3.114 -0.3170 -0.6025 -0.0670
  714MOL0     C96275   5.772   5.732   3.126  0.1196 -0.6331 -0.3254
  714MOL0     C96276   5.745   5.740   3.275  0.1327 -0.5536  0.9987
  714MOL0     C96277   5.606   5.789   3.300 -0.4212  0.3977 -0.9315
  714MOL0     C96278   5.578   5.938   3.263  0.0649 -0.8352 -0.4684
  714MOL0     O96279   5.433   5.975   3.287  0.1043 -0.2671 -0.3263
  714MOL0     C96280   5.369   6.102   3.289  0.2786 -0.3613  0.8129
  714MOL0     C96281   5.234   6.120   3.338 -0.6425  0.3064  0.1736
  714MOL0     C96282   5.175   6.249   3.342  0.6206 -1.2405 -0.2014
  714MOL0     C96283   5.248   6.365   3.302  0.2695  0.5191 -0.7819
  714MOL0     C96284   5.185   6.494   3.302 -1.0304  0.5912 -0.4289
  714MOL0     O96285   5.254   6.589   3.243  0.1363  0.6974 -0.2604
  714MOL0     C96286   5.222   6.720   3.260  0.6095  0.1995  0.1660
  714MOL0     C96287   5.301   6.811   3.331 -0.2189 -0.1947 -0.6270
  714MOL0     C96288   5.261   6.945   3.344  0.0629  0.9821 -0.0194
  714MOL0     C96289   5.141   6.987   3.284 -0.3125 -0.2332 -0.5862
  714MOL0     O96290   5.092   7.111   3.291  0.0704  0.2550  1.0769
  714MOL0     C96291   5.178   7.228   3.288 -0.1814  0.0314 -0.7142
  714MOL0     C96292   5.239   7.247   3.152  0.1511 -0.0051 -0.6902
  714MOL0     C96293   5.137   7.256   3.034 -0.2935 -0.1469  0.0744
  714MOL0     C96294   5.106   7.401   2.995  0.1397  0.8330 -0.0773
  714MOL0     C96295   4.982   7.401   2.910 -1.4752  0.7789  0.2524
  714MOL0     C96296   4.941   7.543   2.878  0.5767  0.8264 -0.7127
  714MOL0     C96297   4.826   7.530   2.783  0.2080 -0.5780 -0.6371
  714MOL0     C96298   4.747   7.666   2.756  0.6556 -0.8407 -0.2555
  714MOL0    Cl96299   4.692   7.741   2.916  0.3827 -0.1390 -0.1394
  714MOL0     C96300   5.062   6.896   3.219  0.1280 -0.4616  0.0101
  714MOL0     C96301   5.101   6.764   3.205  0.3682 -0.1372  0.3909
  714MOL0     O96302   5.082   6.506   3.367  0.7362  0.3488 -0.6917
  714MOL0     C96303   5.372   6.335   3.232 -0.0908 -0.5405  1.0189
  714MOL0     C96304   5.432   6.210   3.231 -0.6691  0.2703 -1.0850
  714MOL0     N96305   6.018   5.798   3.080  0.3404 -0.5135 -0.0933
  714MOL0     N96306   6.132   5.747   3.079 -0.2256  0.3742  0.1483
  714MOL0     C96307   6.846   5.520   2.289  0.1832  0.3473  0.7030
  714MOL0     C96308   6.810   5.636   2.218 -0.6795  0.1984 -0.3690
  714MOL0     C96309   6.671   5.983   1.982  0.7684 -0.6457  0.1467
  714MOL0     C96310   6.530   5.979   1.962  0.4850  0.6379  0.6870
  714MOL0     C96311   6.462   6.069   1.880  0.4463  1.0037 -0.1152
  714MOL0     C96312   6.530   6.163   1.811 -0.6014 -0.3276 -0.4416
  714MOL0     O96313   6.476   6.258   1.729  0.7948 -0.0902 -0.1615
  714MOL0     C96314   6.342   6.305   1.772  1.0478  0.4925  0.0913
  714MOL0     C96315   6.311   6.439   1.706  0.3444 -0.5078 -0.2525
  714MOL0     C96316   6.343   6.462   1.553  0.4307  0.2996  0.6094
  714MOL0     C96317   6.356   6.609   1.533  0.7418 -0.1092  0.3905
  714MOL0     C96318   6.226   6.687   1.530  0.0059 -0.0646 -0.2261
  714MOL0     C96319   6.120   6.738   1.540  0.7914 -0.4777  0.3960
  714MOL0     C96320   6.666   6.171   1.824 -1.1707  0.5048 -0.9196
  714MOL0     C96321   6.747   6.093   1.917  0.5130 -0.0114  0.1017
  714MOL0     C96322   6.891   6.132   1.932 -0.5229  0.4448  0.0198
  714MOL0     H96323   6.482   5.661   2.275  1.7916  3.7067  0.4755
  714MOL0     H96324   6.540   5.448   2.383  0.3238  0.1703  0.5137
  714MOL0     H96325   6.620   5.204   2.410 -1.6077  0.2356  1.8822
  714MOL0     H96326   6.746   5.145   2.514 -2.5358 -2.0169  0.2145
  714MOL0     H96327   6.642   5.412   2.581  0.7303 -0.1001 -2.1745
  714MOL0     H96328   6.721   5.290   2.686  1.8981 -0.1862 -0.9632
  714MOL0     H96329   6.514   5.144   2.641  0.5769 -0.5835 -3.3183
  714MOL0     H96330   6.439   5.295   2.585 -0.2605  0.2018  0.2826
  714MOL0     H96331   6.588   5.284   2.857  1.2745  2.5035  0.7814
  714MOL0     H96332   6.500   5.417   2.804 -3.8340  0.2039  1.9725
  714MOL0     H96333   6.284   5.272   2.792  1.0491  0.9595 -1.1394
  714MOL0     H96334   6.385   5.151   2.865  4.4765  0.6721  2.2630
  714MOL0     H96335   6.301   5.226   3.050 -0.4183 -1.0002 -2.7304
  714MOL0     H96336   6.423   5.353   3.049 -2.5954  2.3479  2.8434
  714MOL0     H96337   6.147   5.428   2.946 -0.6168  2.1225  0.2971
  714MOL0     H96338   6.293   5.511   2.906 -1.5712  1.7504  0.3348
  714MOL0     H96339   6.209   5.440   3.189  2.2440  0.6078 -0.2958
  714MOL0     H96340   6.335   5.569   3.146  1.9023 -0.1714 -0.5409
  714MOL0     H96341   5.954   5.490   3.165  1.1201 -0.3398 -1.1375
  714MOL0     H96342   5.750   5.829   3.080 -0.4275 -0.1073  0.9842
  714MOL0     H96343   5.720   5.662   3.061 -0.9993 -1.2818  1.2033
  714MOL0     H96344   5.757   5.640   3.319 -0.0035 -0.4181  1.3534
  714MOL0     H96345   5.822   5.804   3.319  1.0134 -0.3415 -0.8005
  714MOL0     H96346   5.592   5.781   3.408 -0.1818 -0.3419 -0.9462
  714MOL0     H96347   5.530   5.723   3.256 -1.1769 -0.1729  1.1410
  714MOL0     H96348   5.597   5.963   3.158  1.0186  2.2660  0.3480
  714MOL0     H96349   5.641   6.005   3.323 -0.0622 -0.0195 -1.2390
  714MOL0     H96350   5.179   6.034   3.374  0.9582 -1.6767 -1.8582
  714MOL0     H96351   5.076   6.253   3.385 -1.5594  1.9280 -4.7125
  714MOL0     H96352   5.380   6.777   3.396 -1.1110  0.3404  0.7974
  714MOL0     H96353   5.321   7.006   3.411  0.3400  0.5001  0.1782
  714MOL0     H96354   5.117   7.315   3.312  1.8582  1.3592 -0.1154
  714MOL0     H96355   5.252   7.223   3.369 -1.2534  0.3823  0.3167
  714MOL0     H96356   5.289   7.342   3.174  1.5191 -1.1620  1.5632
  714MOL0     H96357   5.313   7.168   3.147  2.4075  1.6762  2.4347
  714MOL0     H96358   5.182   7.195   2.956 -0.5850  0.1231 -0.3099
  714MOL0     H96359   5.047   7.209   3.074  1.3170 -0.9298  3.0584
  714MOL0     H96360   5.190   7.442   2.939 -0.4604  0.0642 -1.5971
  714MOL0     H96361   5.094   7.463   3.085 -0.6864 -1.6719  1.6516
  714MOL0     H96362   4.902   7.354   2.967  1.0709 -2.0379  1.8487
  714MOL0     H96363   4.997   7.340   2.821 -0.8325  1.6664 -0.2693
  714MOL0     H96364   4.909   7.603   2.965  4.4348 -0.7575  2.0948
  714MOL0     H96365   5.029   7.594   2.836 -0.5032  2.9501 -0.5510
  714MOL0     H96366   4.756   7.451   2.811  0.1013  1.2271  5.7002
  714MOL0     H96367   4.870   7.489   2.691  1.0481  0.3300 -0.6514
  714MOL0     H96368   4.816   7.739   2.713 -2.5119  2.8280  0.3317
  714MOL0     H96369   4.662   7.635   2.694  1.2264 -1.9675 -0.5109
  714MOL0     H96370   4.973   6.936   3.172  0.7011  2.3592  1.1390
  714MOL0     H96371   5.047   6.686   3.153  1.3160 -0.8057  0.3933
  714MOL0     H96372   5.420   6.417   3.180 -1.0001 -1.3879 -1.2908
  714MOL0     H96373   5.529   6.183   3.190 -0.4816 -0.4100 -0.2375
  714MOL0     H96374   6.945   5.476   2.290 -0.1670 -0.4421  1.2215
  714MOL0     H96375   6.889   5.692   2.169 -2.3834  3.2700  0.1488
  714MOL0     H96376   6.469   5.904   2.012  2.4698 -0.6840  1.2411
  714MOL0     H96377   6.354   6.064   1.874  0.4168  2.0016 -0.5652
  714MOL0     H96378   6.325   6.309   1.880 -2.7163 -0.4509 -0.3205
  714MOL0     H96379   6.264   6.242   1.729  0.5143  0.0185  1.6726
  714MOL0     H96380   6.355   6.524   1.759 -1.4798 -0.5443  1.4287
  714MOL0     H96381   6.203   6.451   1.716 -0.0283 -0.7058 -3.1418
  714MOL0     H96382   6.256   6.426   1.497  0.8510  3.0216 -2.0848
  714MOL0     H96383   6.435   6.413   1.520  0.4418 -0.4124  1.6557
  714MOL0     H96384   6.427   6.653   1.603  0.5583  0.8462 -0.0160
  714MOL0     H96385   6.407   6.621   1.437  0.4683  1.5937  0.4292
  714MOL0     H96386   6.021   6.777   1.544  1.4938  1.6152 -0.8023
  714MOL0     H96387   6.725   6.248   1.774  1.2567 -0.3906  0.4067
  714MOL0     H96388   6.952   6.042   1.915  1.5380  1.2700  2.4432
  714MOL0     H96389   6.926   6.213   1.867  3.8901  0.7696  2.4368
  714MOL0     H96390   6.912   6.165   2.034 -1.3506 -2.3941  1.2179
  715MOL0     O96391   7.944   9.106   1.405  0.0107 -0.0008 -0.1704
  715MOL0     C96392   7.944   9.190   1.487  0.5672  0.3699 -0.0438
  715MOL0     O96393   8.038   9.197   1.586 -0.8362  0.9531 -0.1457
  715MOL0     C96394   8.160   9.124   1.581 -0.2380 -0.6058  0.0291
  715MOL0     C96395   8.186   8.989   1.532 -0.4934 -0.1337  0.8864
  715MOL0     C96396   8.312   8.927   1.535 -1.1107 -0.4766 -0.7740
  715MOL0     C96397   8.418   8.993   1.613  0.4539 -0.6489  0.3720
  715MOL0     O96398   8.540   8.933   1.618 -0.2048 -0.3842  0.6882
  715MOL0     C96399   8.654   9.011   1.657 -0.5672 -0.1968 -0.2323
  715MOL0     C96400   8.691   9.115   1.554 -0.7001  0.4074  0.0846
  715MOL0     C96401   8.835   9.168   1.559 -0.2668  0.4509 -0.1281
  715MOL0     C96402   8.870   9.253   1.435 -0.4162 -0.9927 -0.1158
  715MOL0     C96403   8.801   9.390   1.449 -0.1651 -0.2169  0.4484
  715MOL0     C96404   8.865   9.493   1.544  1.1696  0.1066  0.0054
  715MOL0     C96405   8.754   9.602   1.581  0.2788  0.1022  0.4769
  715MOL0     C96406   8.709   9.702   1.472 -0.6381  0.7181 -1.0086
  715MOL0     N96407   8.672   9.824   1.545  0.1879  0.0250  0.3189
  715MOL0     C96408   8.591   9.826   1.657 -0.4146  0.2937  0.0550
  715MOL0     C96409   8.596   9.955   1.700  0.8359  1.0195  0.6738
  715MOL0     C96410   8.521  10.018   1.807  0.3347 -0.4884 -0.2878
  715MOL0     C96411   8.379  10.048   1.772  0.2570 -0.2762  0.2917
  715MOL0     C96412   8.347  10.128   1.647 -0.5400 -0.0899 -0.7214
  715MOL0     C96413   8.204  10.172   1.639 -0.9531  0.0318 -0.3241
  715MOL0     O96414   8.175  10.270   1.741 -0.1184  0.3153 -0.0727
  715MOL0     C96415   8.039  10.306   1.754  0.6912 -0.2377 -0.6552
  715MOL0     C96416   7.931  10.244   1.679 -0.0083  0.3933 -1.2852
  715MOL0     C96417   7.803  10.296   1.704 -0.4566 -0.8194  0.2365
  715MOL0     C96418   7.780  10.393   1.805  0.2880 -1.0134 -0.5792
  715MOL0     C96419   7.641  10.451   1.828  0.3772  0.0669 -0.9552
  715MOL0     O96420   7.534  10.395   1.773 -0.1219 -0.6058  0.0174
  715MOL0     C96421   7.408  10.410   1.819  1.4174  0.0291 -0.8799
  715MOL0     C96422   7.326  10.498   1.754  0.2055  0.0168 -0.2326
  715MOL0     C96423   7.199  10.507   1.798  0.0749  1.0965 -0.0209
  715MOL0     C96424   7.150  10.454   1.920  0.1964  0.9842  0.5610
  715MOL0     O96425   7.026  10.490   1.952  0.0746  0.3537  0.4120
  715MOL0     C96426   6.953  10.413   2.046 -0.5566 -0.4022 -0.4154
  715MOL0     C96427   6.806  10.452   2.080 -0.4747 -0.4964 -0.3904
  715MOL0     C96428   6.709  10.435   1.965  0.0193  0.2135 -0.0694
  715MOL0     C96429   6.581  10.514   1.996  0.6298  1.0162 -0.2597
  715MOL0     C96430   6.468  10.474   1.900  0.3171 -0.1983  0.6621
  715MOL0     C96431   6.346  10.562   1.938  0.5195 -0.0780  0.1507
  715MOL0     C96432   6.373  10.715   1.918  0.6055  0.4172 -0.8001
  715MOL0     C96433   6.391  10.782   1.774  0.1770 -0.6012 -0.8248
  715MOL0    Cl96434   6.272  10.734   1.654  0.4590 -0.0209 -0.1386
  715MOL0     C96435   7.234  10.354   1.984 -0.1170 -1.2273  0.0142
  715MOL0     C96436   7.362  10.340   1.932  0.0465  0.2474  0.1746
  715MOL0     O96437   7.636  10.543   1.915  0.2031  0.0476 -0.3990
  715MOL0     C96438   7.890  10.445   1.873  0.0292  0.4580 -0.4561
  715MOL0     C96439   8.018  10.403   1.847  0.2888  0.2908  0.7372
  715MOL0     N96440   8.667  10.034   1.610  0.4940  0.2027  0.2558
  715MOL0     N96441   8.713   9.957   1.524  0.3556  0.1619 -0.3764
  715MOL0     C96442   8.396   9.126   1.655  0.1218 -0.3430  0.3939
  715MOL0     C96443   8.268   9.190   1.637 -0.4318  0.3487 -0.7117
  715MOL0     C96444   7.833   9.289   1.496  0.3796 -0.1234 -0.2910
  715MOL0     C96445   7.847   9.389   1.596  0.4748  0.0311 -0.4886
  715MOL0     C96446   7.732   9.463   1.632  0.7648  0.5110 -0.5339
  715MOL0     C96447   7.612   9.445   1.554  0.3536  0.2112  0.0379
  715MOL0     O96448   7.507   9.529   1.585 -0.4775 -0.5955 -0.1325
  715MOL0     C96449   7.434   9.506   1.712 -0.5952 -0.2922  0.4207
  715MOL0     C96450   7.321   9.615   1.723  0.6629  0.2123 -0.4195
  715MOL0     C96451   7.212   9.583   1.832 -0.1255 -0.3847  0.0232
  715MOL0     C96452   7.113   9.705   1.856 -0.5179  0.6319  0.5903
  715MOL0     C96453   7.041   9.754   1.738 -0.7269  0.7101  1.0719
  715MOL0     C96454   6.996   9.776   1.631 -0.3289  0.4280  0.9093
  715MOL0     C96455   7.625   9.384   1.423 -0.0509  0.0340  0.5010
  715MOL0     C96456   7.725   9.298   1.401 -0.2313 -0.3290 -0.3849
  715MOL0     C96457   7.707   9.212   1.278 -0.1154  0.3222  0.6330
  715MOL0     H96458   8.109   8.939   1.473 -0.4227 -0.3140  0.9466
  715MOL0     H96459   8.329   8.831   1.487 -2.5900 -0.8330 -0.6213
  715MOL0     H96460   8.633   9.054   1.755  2.8976 -0.2896  0.6953
  715MOL0     H96461   8.743   8.950   1.673 -1.0797 -0.8131  0.3496
  715MOL0     H96462   8.634   9.204   1.581  1.5951  1.4418  1.7934
  715MOL0     H96463   8.663   9.079   1.455  0.9612  1.9423 -1.0016
  715MOL0     H96464   8.905   9.084   1.558 -2.0293 -1.1951  2.0449
  715MOL0     H96465   8.855   9.221   1.653  0.9669 -0.8905  0.4082
  715MOL0     H96466   8.977   9.259   1.417 -0.2967  4.2174  0.9445
  715MOL0     H96467   8.827   9.196   1.351  0.1692 -0.5585 -0.7154
  715MOL0     H96468   8.810   9.433   1.349  1.9387  1.3989  1.2441
  715MOL0     H96469   8.698   9.376   1.484  0.2736  0.5007  2.1573
  715MOL0     H96470   8.901   9.453   1.639  0.3896  1.4103  0.8911
  715MOL0     H96471   8.942   9.558   1.504 -0.3206  4.0776  2.9727
  715MOL0     H96472   8.802   9.656   1.663 -0.2815 -1.4857  1.9358
  715MOL0     H96473   8.663   9.559   1.624  1.0105 -0.0722  1.9208
  715MOL0     H96474   8.795   9.730   1.411 -0.3670  0.9757 -0.5119
  715MOL0     H96475   8.628   9.668   1.406 -0.8870 -0.4353 -0.1195
  715MOL0     H96476   8.537   9.745   1.705  0.1002  0.3385  0.7190
  715MOL0     H96477   8.521   9.939   1.883  1.5326  0.5393  0.8423
  715MOL0     H96478   8.576  10.103   1.849  0.4575 -1.0554  0.7280
  715MOL0     H96479   8.322   9.955   1.763 -0.3726  0.0397  0.8931
  715MOL0     H96480   8.349  10.114   1.854  1.1290  1.9247 -1.0580
  715MOL0     H96481   8.364  10.060   1.563 -2.4193 -0.7825 -0.5980
  715MOL0     H96482   8.421  10.209   1.648  0.8798 -1.2835  2.5613
  715MOL0     H96483   8.139  10.085   1.646 -1.1725  0.3133  1.9499
  715MOL0     H96484   8.190  10.209   1.537 -0.1740  0.5688 -0.2412
  715MOL0     H96485   7.934  10.165   1.604 -2.5643 -1.0132 -0.0422
  715MOL0     H96486   7.710  10.274   1.652 -0.5408  1.3486 -0.6072
  715MOL0     H96487   7.350  10.546   1.660  0.0742  2.5855  0.9437
  715MOL0     H96488   7.124  10.551   1.733 -2.6027 -2.1134  0.5890
  715MOL0     H96489   6.956  10.308   2.013  3.4606 -1.6630  3.0616
  715MOL0     H96490   6.998  10.421   2.145  0.7735  0.3240 -1.0444
  715MOL0     H96491   6.778  10.382   2.160  0.7587  2.9208  3.3377
  715MOL0     H96492   6.813  10.555   2.118 -2.7659 -0.1976 -0.6702
  715MOL0     H96493   6.747  10.485   1.876 -1.8019  1.0003 -0.4608
  715MOL0     H96494   6.679  10.333   1.940  1.3481 -0.1097 -0.3955
  715MOL0     H96495   6.599  10.621   2.010 -0.4575  1.0889  0.7329
  715MOL0     H96496   6.545  10.483   2.094 -1.7520  1.9457 -0.7702
  715MOL0     H96497   6.451  10.366   1.897 -0.7904 -0.0282 -0.3702
  715MOL0     H96498   6.497  10.503   1.799 -3.0282  1.4125 -0.0013
  715MOL0     H96499   6.267  10.541   1.864 -1.1782  2.3701  1.1308
  715MOL0     H96500   6.309  10.546   2.040 -0.2186  0.1445 -0.0769
  715MOL0     H96501   6.448  10.756   1.986  0.2057  1.7703 -1.1457
  715MOL0     H96502   6.281  10.758   1.958 -1.7448 -1.1507 -4.0194
  715MOL0     H96503   6.385  10.890   1.788  0.8506 -0.8462  2.1402
  715MOL0     H96504   6.490  10.756   1.735 -1.2751 -1.9594 -3.9520
  715MOL0     H96505   7.208  10.297   2.072  1.1208  1.2013  2.0969
  715MOL0     H96506   7.424  10.278   1.995  1.5399 -0.2560 -1.7030
  715MOL0     H96507   7.882  10.527   1.944  0.5504 -0.3542  0.5591
  715MOL0     H96508   8.104  10.452   1.893  1.1476 -1.0831  0.6390
  715MOL0     H96509   8.472   9.193   1.693  0.7120 -1.3695  1.0457
  715MOL0     H96510   8.261   9.290   1.679  3.8627  0.1119  1.0827
  715MOL0     H96511   7.942   9.414   1.643  0.3667  1.7317 -1.1015
  715MOL0     H96512   7.738   9.535   1.713 -1.7819 -1.6571  1.7707
  715MOL0     H96513   7.502   9.496   1.797  0.0176 -0.1424 -0.0472
  715MOL0     H96514   7.381   9.411   1.704 -0.5086 -0.4996  1.9240
  715MOL0     H96515   7.276   9.613   1.624 -2.0630 -0.3230  0.7435
  715MOL0     H96516   7.361   9.716   1.736 -0.1423  0.4664  0.1656
  715MOL0     H96517   7.260   9.561   1.927 -2.0699  1.8872  1.6707
  715MOL0     H96518   7.156   9.496   1.796 -1.7345  0.5151  0.2393
  715MOL0     H96519   7.045   9.683   1.939  0.1217  0.1220  0.9871
  715MOL0     H96520   7.175   9.790   1.884 -0.0341  0.1155  1.1266
  715MOL0     H96521   6.970   9.808   1.532 -1.7022 -1.8575  0.4667
  715MOL0     H96522   7.544   9.384   1.351  0.9445 -1.8225 -0.6971
  715MOL0     H96523   7.695   9.110   1.317 -0.2166 -0.8530 -2.2518
  715MOL0     H96524   7.618   9.227   1.217 -0.3070 -1.2970  0.4717
  715MOL0     H96525   7.798   9.208   1.218  0.4794 -1.8396  1.5680
  716MOL0     O96526   4.896   4.507  10.866  0.1505  0.6636 -0.1853
  716MOL0     C96527   4.882   4.392  10.825 -0.1185  0.2455 -0.5928
  716MOL0     O96528   4.983   4.318  10.760  0.2251  0.1977 -0.2787
  716MOL0     C96529   5.114   4.338  10.812  0.7843  0.1451 -0.6227
  716MOL0     C96530   5.160   4.404  10.931 -0.0705  0.5732  1.0833
  716MOL0     C96531   5.299   4.419  10.956  0.1414  0.6735  0.2251
  716MOL0     C96532   5.389   4.375  10.861  0.2445 -0.2386 -0.8394
  716MOL0     O96533   5.526   4.366  10.873  0.1823  0.0584  1.0185
  716MOL0     C96534   5.587   4.449  10.973  0.1566 -0.3729  0.5188
  716MOL0     C96535   5.738   4.431  10.972  0.0525 -0.5164 -0.4612
  716MOL0     C96536   5.789   4.296  11.032  0.3493  0.1290 -0.2792
  716MOL0     C96537   5.799   4.295  11.183 -1.0074  0.1682  0.1846
  716MOL0     C96538   5.853   4.150  11.225 -0.4032  0.2906 -0.6316
  716MOL0     C96539   5.880   4.150  11.377  0.2096  0.3870  0.1668
  716MOL0     C96540   5.892   4.011  11.434  0.7511 -0.4715  0.1792
  716MOL0     C96541   6.014   3.928  11.381 -0.7594  1.4667  0.2784
  716MOL0     N96542   6.044   3.802  11.448 -0.6781  0.3678  0.7103
  716MOL0     C96543   6.166   3.762  11.501 -0.1403 -0.3808  0.1299
  716MOL0     C96544   6.158   3.630  11.534 -0.7657 -0.8358  0.1970
  716MOL0     C96545   6.271   3.541  11.579  0.0008  0.3015 -0.0601
  716MOL0     C96546   6.395   3.612  11.628  0.1577 -0.1616 -0.3802
  716MOL0     C96547   6.519   3.526  11.639 -0.6714 -0.1303  0.4178
  716MOL0     C96548   6.555   3.479  11.781 -0.6664  0.3077 -0.1022
  716MOL0     O96549   6.572   3.581  11.884  0.2556 -0.0952 -0.3292
  716MOL0     C96550   6.690   3.640  11.916 -0.5658  0.0164  0.1835
  716MOL0     C96551   6.697   3.732  12.023  0.1007 -0.5369 -0.9483
  716MOL0     C96552   6.822   3.782  12.050 -0.8656 -0.0351  0.7411
  716MOL0     C96553   6.939   3.745  11.982  0.2288 -0.4150  0.1194
  716MOL0     C96554   7.058   3.821  12.013 -0.1007  0.5948  0.2603
  716MOL0     O96555   7.145   3.830  11.913  0.2499  0.1656 -0.8440
  716MOL0     C96556   7.243   3.928  11.928 -0.7371 -0.0343  0.8051
  716MOL0     C96557   7.372   3.910  11.867 -0.0349  0.2918 -0.0762
  716MOL0     C96558   7.472   4.002  11.900 -0.8965 -0.1833  0.4024
  716MOL0     C96559   7.444   4.115  11.972  0.3236  0.3519  0.2316
  716MOL0     O96560   7.554   4.185  12.005  0.6095 -0.8117 -0.1451
  716MOL0     C96561   7.547   4.243  12.140 -0.2233  0.0793 -0.3268
  716MOL0     C96562   7.674   4.325  12.154 -0.0654  0.7529 -0.4051
  716MOL0     C96563   7.803   4.241  12.131 -0.4364 -0.9430 -0.1708
  716MOL0     C96564   7.916   4.307  12.210 -0.2169  0.2687  0.2758
  716MOL0     C96565   8.045   4.249  12.155  0.5743 -0.0755 -1.4394
  716MOL0     C96566   8.150   4.237  12.265  1.6017 -1.0899  0.0348
  716MOL0     C96567   8.284   4.180  12.215  0.1239  0.4484  0.3356
  716MOL0     C96568   8.401   4.172  12.314  0.5050 -1.1692 -0.4549
  716MOL0    Cl96569   8.543   4.090  12.248  0.5184 -0.2151  0.0850
  716MOL0     C96570   7.321   4.141  12.027 -0.7152  0.3250 -0.3558
  716MOL0     C96571   7.218   4.053  11.987  0.3164  0.1564 -0.3864
  716MOL0     O96572   7.077   3.850  12.128 -0.1797  0.1845  0.5871
  716MOL0     C96573   6.931   3.650  11.881  0.9169  0.5394 -0.0359
  716MOL0     C96574   6.808   3.599  11.847  1.0389  0.4396 -0.7568
  716MOL0     N96575   6.031   3.595  11.488  0.4099 -0.2428 -0.1085
  716MOL0     N96576   5.971   3.694  11.446  0.7851 -0.2922 -0.2854
  716MOL0     C96577   5.338   4.300  10.752 -0.6559 -1.2541 -1.1021
  716MOL0     C96578   5.209   4.284  10.723 -0.8298  0.3929 -1.1707
  716MOL0     C96579   4.750   4.335  10.857 -0.2978  0.5586  0.1193
  716MOL0     C96580   4.760   4.246  10.967 -0.6059 -0.8310 -0.0307
  716MOL0     C96581   4.645   4.178  11.007  0.7699 -0.2419  0.5785
  716MOL0     C96582   4.531   4.189  10.925  0.3269  0.1139  0.8501
  716MOL0     O96583   4.414   4.129  10.940  0.0770  0.8515 -0.2942
  716MOL0     C96584   4.412   4.014  11.032  0.1268  0.2734 -1.0367
  716MOL0     C96585   4.296   3.924  10.977  0.5055 -0.5046 -0.1832
  716MOL0     C96586   4.308   3.867  10.833 -0.0130 -0.0749 -0.5632
  716MOL0     C96587   4.436   3.789  10.827  0.3964 -0.2038 -0.0371
  716MOL0     C96588   4.463   3.719  10.693 -0.2549  0.6261 -1.0742
  716MOL0     C96589   4.480   3.689  10.580 -0.8336 -0.0262 -0.3209
  716MOL0     C96590   4.538   4.252  10.802 -0.1646 -1.0308 -0.1068
  716MOL0     C96591   4.645   4.331  10.761 -0.7921 -0.9811 -0.0692
  716MOL0     C96592   4.653   4.403  10.634 -0.8626 -0.2537  0.0210
  716MOL0     H96593   5.085   4.421  11.008  0.3021 -1.2982  1.9140
  716MOL0     H96594   5.340   4.470  11.042 -1.2273  0.0480  1.2872
  716MOL0     H96595   5.561   4.554  10.956 -0.6243 -0.3739  1.6408
  716MOL0     H96596   5.549   4.419  11.071  0.5263  2.1063  1.5011
  716MOL0     H96597   5.790   4.515  11.020 -1.7605  1.7057 -2.1155
  716MOL0     H96598   5.756   4.437  10.864 -1.0339 -1.4870 -0.7091
  716MOL0     H96599   5.893   4.286  11.003  0.0315  0.4260 -1.5744
  716MOL0     H96600   5.727   4.220  10.983 -0.1795  0.0413  0.4997
  716MOL0     H96601   5.866   4.374  11.218 -0.9125 -0.2423  0.9393
  716MOL0     H96602   5.699   4.316  11.221 -0.0002  3.9641  1.1378
  716MOL0     H96603   5.769   4.081  11.210 -0.5011  0.5478 -1.3251
  716MOL0     H96604   5.946   4.117  11.179 -0.4571 -1.9180  0.7412
  716MOL0     H96605   5.969   4.209  11.402 -0.0622  0.1061  1.8771
  716MOL0     H96606   5.793   4.196  11.425  0.2811  2.1844 -1.3005
  716MOL0     H96607   5.800   3.954  11.421  1.0593 -0.5525 -1.8809
  716MOL0     H96608   5.891   4.028  11.543  0.6158  1.4452 -0.0818
  716MOL0     H96609   5.996   3.896  11.278  0.9310  1.6105 -0.0969
  716MOL0     H96610   6.104   3.990  11.376 -1.0417  1.8359 -0.4230
  716MOL0     H96611   6.254   3.825  11.508  0.2479 -0.8598 -0.3747
  716MOL0     H96612   6.223   3.484  11.659  0.3018  3.5340  2.6524
  716MOL0     H96613   6.300   3.484  11.490 -0.7207  1.4433 -1.0797
  716MOL0     H96614   6.430   3.696  11.567 -0.7906  0.9481  0.5535
  716MOL0     H96615   6.370   3.651  11.727  0.5512 -0.6899 -0.0657
  716MOL0     H96616   6.599   3.573  11.581  0.1964 -0.7375  1.1076
  716MOL0     H96617   6.492   3.438  11.580 -1.1047 -1.3277  2.3086
  716MOL0     H96618   6.636   3.406  11.769  1.3232  1.6699  3.3023
  716MOL0     H96619   6.472   3.422  11.823  0.1885 -0.5012  0.5413
  716MOL0     H96620   6.615   3.763  12.086  0.0297  0.9851 -1.7569
  716MOL0     H96621   6.821   3.860  12.125  0.4417 -0.6853  1.4688
  716MOL0     H96622   7.394   3.821  11.809  1.1358 -0.7894  1.8879
  716MOL0     H96623   7.572   3.985  11.861 -0.9606 -0.8715  0.5244
  716MOL0     H96624   7.464   4.310  12.160 -1.2011 -0.3292 -2.7090
  716MOL0     H96625   7.554   4.154  12.203  2.4392 -0.8603 -1.7476
  716MOL0     H96626   7.670   4.418  12.096  4.2895 -0.7478 -3.6990
  716MOL0     H96627   7.676   4.363  12.256  0.9726 -0.0941 -0.0842
  716MOL0     H96628   7.789   4.139  12.167  0.9353 -0.5457  1.6272
  716MOL0     H96629   7.833   4.235  12.026 -1.5109  1.4469 -0.6952
  716MOL0     H96630   7.904   4.276  12.314 -0.3027 -1.5400 -0.2470
  716MOL0     H96631   7.911   4.416  12.213 -1.4914  0.2843 -1.4210
  716MOL0     H96632   8.086   4.313  12.077 -1.4350  1.1994 -1.5195
  716MOL0     H96633   8.025   4.150  12.112  2.1497 -0.8681 -0.4473
  716MOL0     H96634   8.171   4.339  12.296 -1.0583 -0.8651  1.3218
  716MOL0     H96635   8.106   4.190  12.353 -0.3416  2.4359  1.1016
  716MOL0     H96636   8.311   4.229  12.121 -1.8419  1.0331  0.0394
  716MOL0     H96637   8.265   4.077  12.181 -0.1704  0.6616 -0.1577
  716MOL0     H96638   8.431   4.277  12.325  1.2529 -1.4700  0.4920
  716MOL0     H96639   8.383   4.115  12.406  0.4729 -3.4718 -1.8127
  716MOL0     H96640   7.304   4.223  12.096 -0.1942  0.2897 -0.1818
  716MOL0     H96641   7.119   4.069  12.027  0.8264 -0.6590  1.2999
  716MOL0     H96642   7.019   3.615  11.827  1.1177  0.1254  0.5497
  716MOL0     H96643   6.805   3.539  11.756  0.3802  1.4440 -1.4285
  716MOL0     H96644   5.408   4.243  10.692 -0.0862 -2.9437  1.0542
  716MOL0     H96645   5.175   4.239  10.630  0.7269 -1.5381 -0.8659
  716MOL0     H96646   4.853   4.247  11.022 -0.9266  1.0678  0.5517
  716MOL0     H96647   4.644   4.111  11.093 -0.4464 -2.5900 -1.1685
  716MOL0     H96648   4.379   4.042  11.132 -2.0545 -1.0492 -1.3092
  716MOL0     H96649   4.508   3.962  11.033  0.6518  1.2346 -0.5976
  716MOL0     H96650   4.213   3.996  10.975  1.8499  1.2191  1.9113
  716MOL0     H96651   4.268   3.850  11.052  2.4775 -0.7980  0.3203
  716MOL0     H96652   4.326   3.956  10.771  2.5556  0.7780  1.2253
  716MOL0     H96653   4.222   3.805  10.805 -0.9539  0.4983  0.8796
  716MOL0     H96654   4.521   3.855  10.850 -1.9022  2.6493  0.9214
  716MOL0     H96655   4.446   3.707  10.899  1.9039  1.7101  2.0812
  716MOL0     H96656   4.490   3.630  10.491 -1.2190 -0.8706  0.1888
  716MOL0     H96657   4.449   4.247  10.739  0.1895 -0.9588 -0.6138
  716MOL0     H96658   4.750   4.381  10.589 -2.0973 -1.1068 -2.4452
  716MOL0     H96659   4.566   4.393  10.568 -1.0095  3.0561 -0.4482
  716MOL0     H96660   4.664   4.511  10.646 -2.0289  0.3112 -3.0271
  717MOL0     O96661   3.959   6.195   3.229 -0.3827 -0.2223  0.8558
  717MOL0     C96662   3.981   6.104   3.155 -0.0953  0.3093  0.9077
  717MOL0     O96663   3.949   5.972   3.172  0.3693 -0.5674  0.7223
  717MOL0     C96664   3.888   5.943   3.286  0.6030 -0.2229 -0.5235
  717MOL0     C96665   3.744   5.917   3.275 -1.5929 -1.0873  0.1940
  717MOL0     C96666   3.674   5.876   3.383  0.2435 -0.5617 -0.3878
  717MOL0     C96667   3.738   5.864   3.505 -0.5179  0.1513 -0.4887
  717MOL0     O96668   3.667   5.822   3.618 -0.3986 -0.3863  0.0439
  717MOL0     C96669   3.695   5.684   3.651 -0.5451 -0.0454 -0.4055
  717MOL0     C96670   3.584   5.607   3.708  0.4633 -0.3131 -0.3201
  717MOL0     C96671   3.477   5.586   3.586  0.3666 -0.0250 -0.4376
  717MOL0     C96672   3.347   5.541   3.648 -0.0492 -0.2020  0.1170
  717MOL0     C96673   3.233   5.534   3.544 -0.0094  0.1973 -0.0837
  717MOL0     C96674   3.261   5.417   3.454 -0.4005  0.5393 -0.0529
  717MOL0     C96675   3.132   5.371   3.383 -0.1922 -1.4618  0.5485
  717MOL0     C96676   3.023   5.319   3.478  0.7273  0.5679 -0.0604
  717MOL0     N96677   2.901   5.258   3.416  0.4884 -0.2268  0.3081
  717MOL0     C96678   2.866   5.122   3.415  1.2801 -0.6736  0.4893
  717MOL0     C96679   2.739   5.123   3.363 -1.4313  0.5994 -0.4225
  717MOL0     C96680   2.673   4.986   3.347 -0.4957 -0.2702 -0.3767
  717MOL0     C96681   2.525   5.012   3.321 -0.0413 -0.7320 -0.2520
  717MOL0     C96682   2.476   5.061   3.185 -0.9941 -0.7824  0.1303
  717MOL0     C96683   2.326   5.054   3.172  0.5193 -0.8611  0.6758
  717MOL0     O96684   2.282   4.928   3.216 -0.5933  0.4498 -0.5125
  717MOL0     C96685   2.145   4.909   3.225  0.3785 -0.3983 -0.0759
  717MOL0     C96686   2.107   4.775   3.261  0.2175 -0.5696  0.6290
  717MOL0     C96687   1.973   4.727   3.251  0.0135  0.3538  0.3038
  717MOL0     C96688   1.880   4.809   3.186  0.0445  0.3722  0.1930
  717MOL0     C96689   1.744   4.756   3.155 -0.0918  0.5479  0.2022
  717MOL0     O96690   1.681   4.657   3.241 -0.4114  0.2365  0.0589
  717MOL0     C96691   1.567   4.605   3.194  0.3660  0.9801  0.1835
  717MOL0     C96692   1.586   4.496   3.110  0.6487  0.7050 -0.5212
  717MOL0     C96693   1.470   4.429   3.062  0.6756  0.2369  0.0201
  717MOL0     C96694   1.340   4.476   3.091 -0.5173 -0.1444 -0.2675
  717MOL0     O96695   1.224   4.412   3.054 -0.4571 -0.0634 -0.3290
  717MOL0     C96696   1.231   4.278   3.003 -0.3435 -0.1232 -0.0894
  717MOL0     C96697   1.102   4.206   3.022  0.0366 -0.4728  0.2196
  717MOL0     C96698   1.099   4.067   3.080 -0.0815 -0.1616 -0.5486
  717MOL0     C96699   0.954   4.015   3.083  0.5841  0.0280 -0.7369
  717MOL0     C96700   0.847   4.081   3.176  0.2705  0.4655 -0.5359
  717MOL0     C96701   0.895   4.085   3.329 -0.2281 -0.8938  0.0720
  717MOL0     C96702   0.954   3.961   3.389  0.4773 -0.2989  0.5099
  717MOL0     C96703   0.870   3.831   3.368 -0.3263 -0.0244 -0.3888
  717MOL0    Cl96704   0.978   3.710   3.442  0.4424  0.0573  0.8365
  717MOL0     C96705   1.334   4.590   3.166  0.4428 -0.3917  0.3031
  717MOL0     C96706   1.442   4.652   3.224 -0.3755  0.1523  0.2581
  717MOL0     O96707   1.695   4.799   3.051  0.6234 -0.0233  0.1002
  717MOL0     C96708   1.916   4.943   3.157  0.7646 -0.3984  0.6500
  717MOL0     C96709   2.043   4.992   3.173  0.1074 -0.5374 -0.7229
  717MOL0     N96710   2.707   5.255   3.329  0.4580 -0.2822  0.2633
  717MOL0     N96711   2.796   5.334   3.373  0.5370  0.7887  0.0099
  717MOL0     C96712   3.873   5.885   3.517 -0.1584  0.3521  0.1209
  717MOL0     C96713   3.956   5.921   3.409  0.3182  0.1357 -0.4972
  717MOL0     C96714   4.048   6.147   3.031  0.9655  0.4416 -0.3731
  717MOL0     C96715   4.031   6.053   2.920  0.2827 -0.1377 -0.0404
  717MOL0     C96716   4.095   6.076   2.802  0.0626 -0.2706  0.4257
  717MOL0     C96717   4.186   6.179   2.780  0.3524 -0.3423 -0.3965
  717MOL0     O96718   4.245   6.177   2.657 -0.0630 -0.0344 -0.6742
  717MOL0     C96719   4.315   6.292   2.598  0.3020  0.1880  0.2037
  717MOL0     C96720   4.462   6.303   2.655  0.9655  0.1612 -0.1768
  717MOL0     C96721   4.544   6.420   2.629 -0.3336  0.4730 -0.2593
  717MOL0     C96722   4.524   6.552   2.715  0.7499 -0.7125 -0.0190
  717MOL0     C96723   4.399   6.618   2.681 -0.2552  0.1507 -0.5249
  717MOL0     C96724   4.298   6.681   2.655  0.5650 -0.6334 -0.1083
  717MOL0     C96725   4.199   6.277   2.888 -0.0877  0.3187 -0.0699
  717MOL0     C96726   4.126   6.258   3.009  0.0640  0.3952  0.6009
  717MOL0     C96727   4.160   6.360   3.111  0.3615 -1.1521  0.9742
  717MOL0     H96728   3.699   5.939   3.179  2.6067  1.0059 -1.5676
  717MOL0     H96729   3.567   5.863   3.398  0.6300 -3.0397  0.6399
  717MOL0     H96730   3.737   5.629   3.566 -1.4610 -3.2731  1.0972
  717MOL0     H96731   3.778   5.683   3.722 -0.7023 -0.7804 -0.2209
  717MOL0     H96732   3.540   5.655   3.796  0.1742 -0.6322 -0.2886
  717MOL0     H96733   3.622   5.509   3.740  0.0769 -0.8899 -1.5806
  717MOL0     H96734   3.511   5.502   3.525  0.0425  0.2926 -1.0582
  717MOL0     H96735   3.450   5.674   3.527 -2.6159  1.0750  2.2775
  717MOL0     H96736   3.363   5.443   3.694 -0.2666  0.0890  0.8387
  717MOL0     H96737   3.317   5.617   3.722  3.5647  1.3901  0.1344
  717MOL0     H96738   3.143   5.525   3.605  1.1780  2.4388  2.1824
  717MOL0     H96739   3.226   5.632   3.496 -2.5056  1.2509  2.2099
  717MOL0     H96740   3.328   5.449   3.374 -0.3542 -1.1664 -0.7426
  717MOL0     H96741   3.301   5.324   3.497 -2.1567 -0.9854 -1.5484
  717MOL0     H96742   3.159   5.298   3.306  1.4398 -0.8884  0.5474
  717MOL0     H96743   3.104   5.466   3.335 -0.8696 -1.5505  0.7586
  717MOL0     H96744   3.078   5.252   3.544  2.3688  0.5217 -1.3847
  717MOL0     H96745   2.969   5.391   3.540  0.1769 -1.8498  2.4187
  717MOL0     H96746   2.934   5.047   3.454  0.4704 -2.1932 -0.9371
  717MOL0     H96747   2.715   4.928   3.264  0.2988 -0.9918  0.5019
  717MOL0     H96748   2.693   4.933   3.441 -3.8574 -1.2444 -0.0818
  717MOL0     H96749   2.483   4.915   3.351 -1.6072 -0.4224 -1.2754
  717MOL0     H96750   2.485   5.080   3.396 -2.5433 -1.6924 -0.5812
  717MOL0     H96751   2.528   5.010   3.104 -2.2181  1.4685 -2.2024
  717MOL0     H96752   2.510   5.165   3.175  1.8216 -1.5228  0.8969
  717MOL0     H96753   2.295   5.053   3.068 -0.7656  1.0337  1.0005
  717MOL0     H96754   2.288   5.136   3.234 -0.1826 -1.0234  0.4717
  717MOL0     H96755   2.186   4.710   3.298 -0.2229  0.7521  4.2882
  717MOL0     H96756   1.942   4.624   3.263  0.6802 -0.2384 -2.3274
  717MOL0     H96757   1.678   4.448   3.077 -0.0363 -0.9475 -0.1343
  717MOL0     H96758   1.478   4.348   2.990 -3.7933 -0.1788 -0.2707
  717MOL0     H96759   1.254   4.282   2.897 -2.0238 -5.0732 -0.9069
  717MOL0     H96760   1.306   4.227   3.065 -1.3526 -0.4324  0.9178
  717MOL0     H96761   1.042   4.260   3.097  0.4997 -1.9524  1.7300
  717MOL0     H96762   1.042   4.202   2.931  0.1597 -0.0690  0.1205
  717MOL0     H96763   1.161   4.001   3.018 -1.8690 -0.8432 -1.6963
  717MOL0     H96764   1.131   4.064   3.184 -0.2955  2.1203 -0.3817
  717MOL0     H96765   0.953   3.907   3.101 -0.1893  0.2402  0.5950
  717MOL0     H96766   0.913   4.028   2.982  0.6760  1.4716 -0.6040
  717MOL0     H96767   0.755   4.021   3.177  0.0124  0.8643  0.0768
  717MOL0     H96768   0.831   4.184   3.144  3.1810  0.6470 -1.6518
  717MOL0     H96769   0.975   4.157   3.346  1.5020 -2.7350  0.0853
  717MOL0     H96770   0.812   4.131   3.384 -0.0540 -1.0240  0.4445
  717MOL0     H96771   0.966   3.997   3.492 -2.0044  1.9880  0.0955
  717MOL0     H96772   1.056   3.935   3.358 -0.5389 -1.4086 -2.2130
  717MOL0     H96773   0.772   3.827   3.415  1.3687 -0.6552  3.5789
  717MOL0     H96774   0.854   3.799   3.265 -0.6265 -2.5722  0.4016
  717MOL0     H96775   1.232   4.627   3.177  0.2137 -0.1379 -2.1001
  717MOL0     H96776   1.409   4.725   3.297  1.1089 -1.4135  2.6187
  717MOL0     H96777   1.841   5.015   3.124  0.5512 -0.7990  0.2434
  717MOL0     H96778   2.058   5.098   3.152 -3.8436  0.5079  0.7667
  717MOL0     H96779   3.925   5.913   3.607  2.7820  0.9064 -1.6244
  717MOL0     H96780   4.062   5.944   3.420  1.0906 -3.0194 -0.5249
  717MOL0     H96781   3.986   5.954   2.928 -0.5385 -0.0731 -2.9691
  717MOL0     H96782   4.086   6.003   2.723 -0.8506  1.3593 -1.0503
  717MOL0     H96783   4.249   6.376   2.622 -0.1065 -0.0305 -0.1389
  717MOL0     H96784   4.312   6.272   2.491  5.1003 -1.8501  0.1832
  717MOL0     H96785   4.524   6.223   2.613  0.3043 -1.2558  1.4320
  717MOL0     H96786   4.464   6.304   2.765 -0.7506  3.2549 -0.0591
  717MOL0     H96787   4.519   6.455   2.528 -1.7648  0.7193  0.1465
  717MOL0     H96788   4.646   6.388   2.648  0.1428  1.8651 -0.3583
  717MOL0     H96789   4.526   6.533   2.823 -1.0977  1.9354  0.5920
  717MOL0     H96790   4.611   6.614   2.690  0.8007 -0.4868  0.6924
  717MOL0     H96791   4.214   6.746   2.638  0.3634 -0.8528  0.0519
  717MOL0     H96792   4.269   6.359   2.876 -1.8773  1.8324 -0.7228
  717MOL0     H96793   4.109   6.455   3.091  0.8772 -0.4159  2.9519
  717MOL0     H96794   4.159   6.346   3.219 -1.7265  3.1316  1.7493
  717MOL0     H96795   4.267   6.374   3.095 -0.2855  0.1345 -4.1773
  718MOL0     O96796   1.085   9.065   3.327  0.6780 -0.1415 -0.2009
  718MOL0     C96797   1.030   9.176   3.309 -0.2051  0.7549 -0.0084
  718MOL0     O96798   1.101   9.290   3.320  0.4758 -0.1142 -0.4471
  718MOL0     C96799   1.232   9.280   3.363 -0.4689  0.2086  0.0334
  718MOL0     C96800   1.271   9.269   3.499  0.1187  1.2293  0.2761
  718MOL0     C96801   1.407   9.231   3.528 -0.1030  0.3591  0.0093
  718MOL0     C96802   1.504   9.212   3.422 -0.2070  0.4707 -0.4628
  718MOL0     O96803   1.636   9.174   3.444 -0.7645 -0.1806  0.6377
  718MOL0     C96804   1.649   9.053   3.534  0.1063  0.0525  0.5882
  718MOL0     C96805   1.638   8.917   3.460  0.6416  0.0960  0.4421
  718MOL0     C96806   1.745   8.863   3.362 -0.1491 -0.0843  0.2603
  718MOL0     C96807   1.768   8.947   3.233 -0.4167 -0.3070  0.6633
  718MOL0     C96808   1.882   8.907   3.142  0.0472  0.3220  0.3881
  718MOL0     C96809   1.912   8.759   3.135  0.4901  0.8520 -0.4089
  718MOL0     C96810   1.800   8.673   3.077 -1.2783  0.0066  0.2672
  718MOL0     C96811   1.755   8.703   2.940 -0.7778 -0.0719 -0.2846
  718MOL0     N96812   1.657   8.614   2.882  0.4061 -0.0923 -0.6980
  718MOL0     C96813   1.521   8.633   2.871  0.6557  0.4196 -0.5336
  718MOL0     C96814   1.468   8.507   2.859 -1.0972 -0.2759 -0.0456
  718MOL0     C96815   1.324   8.483   2.818  0.1567 -0.1580  0.7001
  718MOL0     C96816   1.230   8.466   2.941 -0.8317  0.5663  0.7418
  718MOL0     C96817   1.174   8.593   3.004  0.1816 -0.3991 -0.3416
  718MOL0     C96818   1.048   8.573   3.096  0.6817  0.7731 -0.2468
  718MOL0     O96819   0.939   8.508   3.027  0.1212  1.0348 -0.5682
  718MOL0     C96820   0.844   8.584   2.969 -0.1737 -0.3812 -0.1818
  718MOL0     C96821   0.737   8.516   2.920 -0.2153 -0.5949  0.7615
  718MOL0     C96822   0.634   8.578   2.863 -0.0484  0.6036 -0.0596
  718MOL0     C96823   0.630   8.721   2.842 -0.4037  0.7450  0.6204
  718MOL0     C96824   0.518   8.797   2.780 -0.2311 -0.0211  0.3216
  718MOL0     O96825   0.432   8.717   2.707 -0.2072 -0.4700  0.2754
  718MOL0     C96826   0.326   8.783   2.642 -0.2315  0.0433 -0.0496
  718MOL0     C96827   0.342   8.889   2.551 -0.3339 -0.6244  0.1864
  718MOL0     C96828   0.232   8.942   2.491  0.0907  0.3990 -0.7821
  718MOL0     C96829   0.110   8.904   2.513  0.5273  0.2258  0.2165
  718MOL0     O96830   0.004   8.956   2.451 -0.2073 -0.5386 -0.1212
  718MOL0     C96831  -0.020   8.926   2.313 -2.2564 -0.2512 -0.3226
  718MOL0     C96832  -0.112   8.807   2.291 -0.1078 -0.2151 -0.8920
  718MOL0     C96833  -0.259   8.824   2.342 -0.0249 -0.4195  0.5299
  718MOL0     C96834  -0.359   8.733   2.261  0.3911 -0.2984 -0.6298
  718MOL0     C96835  -0.450   8.652   2.354 -0.4071 -0.4106 -0.1972
  718MOL0     C96836  -0.553   8.575   2.285 -0.2562  1.0219  0.8419
  718MOL0     C96837  -0.648   8.511   2.389 -0.3822  0.2383 -0.3333
  718MOL0     C96838  -0.773   8.450   2.320 -0.6239 -0.2458 -1.3685
  718MOL0    Cl96839  -0.889   8.414   2.446 -0.4298  0.1401  0.2542
  718MOL0     C96840   0.085   8.796   2.599  0.4836 -0.2172 -0.2751
  718MOL0     C96841   0.197   8.744   2.669  0.1497  0.8802  0.4531
  718MOL0     O96842   0.516   8.918   2.788 -0.6181 -0.4851 -0.8704
  718MOL0     C96843   0.746   8.790   2.870 -0.5765  0.0057  0.0036
  718MOL0     C96844   0.845   8.724   2.950 -0.7801  0.3888 -0.0747
  718MOL0     N96845   1.580   8.416   2.840 -0.0099 -0.8799  0.2439
  718MOL0     N96846   1.686   8.482   2.857  0.6131  0.1162 -0.2050
  718MOL0     C96847   1.466   9.232   3.295  0.0688  0.3916  0.2263
  718MOL0     C96848   1.332   9.268   3.263  0.0462  0.3429 -0.2652
  718MOL0     C96849   0.881   9.186   3.275 -0.1651 -0.4882 -0.5382
  718MOL0     C96850   0.828   9.320   3.288 -0.2172  0.3700  0.9049
  718MOL0     C96851   0.694   9.346   3.270  0.8646 -0.2728 -0.1735
  718MOL0     C96852   0.610   9.238   3.241  0.0058 -0.8968 -0.6792
  718MOL0     O96853   0.479   9.264   3.212 -0.3928 -0.8343 -0.5936
  718MOL0     C96854   0.402   9.248   3.329  0.1971  0.6574  0.6848
  718MOL0     C96855   0.397   9.375   3.410 -0.6315  0.2553  0.0008
  718MOL0     C96856   0.324   9.487   3.336  0.1274 -0.1251  0.4050
  718MOL0     C96857   0.270   9.595   3.434  0.3080  1.3840  0.0814
  718MOL0     C96858   0.363   9.670   3.508  0.5178 -0.6158  0.2436
  718MOL0     C96859   0.447   9.717   3.579 -0.8992 -0.2987  0.3288
  718MOL0     C96860   0.659   9.106   3.241 -0.1502 -0.3090 -0.0533
  718MOL0     C96861   0.796   9.081   3.252  0.2412 -0.9162  0.8295
  718MOL0     C96862   0.838   8.941   3.262 -0.2632  0.0059 -0.5160
  718MOL0     H96863   1.193   9.275   3.575 -0.9267  0.9886 -0.7586
  718MOL0     H96864   1.442   9.223   3.631  0.8370  0.7053 -0.2677
  718MOL0     H96865   1.742   9.065   3.590  0.2052  0.0759  0.4190
  718MOL0     H96866   1.569   9.046   3.608 -0.7856 -1.9116 -0.4839
  718MOL0     H96867   1.541   8.927   3.410  1.3169  3.6955 -0.4190
  718MOL0     H96868   1.634   8.858   3.551  2.9498  1.2639  1.3720
  718MOL0     H96869   1.730   8.757   3.340 -0.0745 -0.1482  0.5128
  718MOL0     H96870   1.842   8.874   3.412 -0.0831  2.5963 -0.2937
  718MOL0     H96871   1.679   8.942   3.170  0.2504  0.1784 -0.3517
  718MOL0     H96872   1.769   9.048   3.275 -2.5660 -0.5398  1.3930
  718MOL0     H96873   1.871   8.937   3.037  2.9189 -3.4853 -1.2732
  718MOL0     H96874   1.975   8.955   3.173  0.6356 -0.6569  0.2030
  718MOL0     H96875   2.003   8.749   3.074  0.2030  1.5898 -0.9733
  718MOL0     H96876   1.935   8.711   3.231  0.8838 -1.3235 -1.5320
  718MOL0     H96877   1.709   8.668   3.136  0.1973 -0.6900  2.6263
  718MOL0     H96878   1.837   8.571   3.089  1.1120  0.9924  2.3041
  718MOL0     H96879   1.716   8.804   2.925  0.3487  0.4334  0.0266
  718MOL0     H96880   1.840   8.698   2.871 -1.3855  1.2481 -1.1673
  718MOL0     H96881   1.458   8.721   2.870 -2.3432 -1.5866 -1.6662
  718MOL0     H96882   1.284   8.564   2.757 -2.6579  0.1896  2.7832
  718MOL0     H96883   1.327   8.393   2.756  4.1390 -1.2200  2.1243
  718MOL0     H96884   1.139   8.425   2.896 -0.6101  0.1029  0.7028
  718MOL0     H96885   1.279   8.397   3.010  0.9736  0.1574 -0.8555
  718MOL0     H96886   1.163   8.670   2.926 -0.9076 -0.7875 -0.5930
  718MOL0     H96887   1.247   8.653   3.060 -1.5419  0.9514  0.5592
  718MOL0     H96888   1.014   8.670   3.133  1.5233  0.8468  0.3487
  718MOL0     H96889   1.069   8.513   3.185 -0.9845 -1.7754 -1.4301
  718MOL0     H96890   0.752   8.409   2.928  1.1837 -0.4217  0.6646
  718MOL0     H96891   0.551   8.513   2.837  1.1517 -0.2914 -1.8833
  718MOL0     H96892   0.436   8.939   2.529 -0.8273  1.7027  2.7186
  718MOL0     H96893   0.243   9.031   2.430 -0.0726  0.1104 -1.2381
  718MOL0     H96894  -0.063   9.013   2.263 -1.3227  0.0376 -0.6393
  718MOL0     H96895   0.072   8.896   2.262 -2.6773 -2.5775  0.1731
  718MOL0     H96896  -0.115   8.798   2.182 -1.6486  4.3592 -1.4203
  718MOL0     H96897  -0.074   8.714   2.334 -0.3624 -0.9237 -2.1288
  718MOL0     H96898  -0.258   8.818   2.451 -2.3042 -4.4846  0.5268
  718MOL0     H96899  -0.285   8.926   2.311 -1.3456 -1.5688 -2.5423
  718MOL0     H96900  -0.292   8.664   2.209  0.6851 -1.2130  0.9037
  718MOL0     H96901  -0.421   8.792   2.193  0.3539 -0.7319 -0.9753
  718MOL0     H96902  -0.499   8.724   2.421  3.8504  1.7079  0.9706
  718MOL0     H96903  -0.377   8.586   2.400  0.6497  1.5716  1.0962
  718MOL0     H96904  -0.605   8.632   2.208 -0.9276 -0.9097 -0.1810
  718MOL0     H96905  -0.499   8.492   2.239  0.5949 -0.0443  3.5321
  718MOL0     H96906  -0.684   8.587   2.460 -0.3884  0.0831 -0.1677
  718MOL0     H96907  -0.595   8.438   2.451 -0.0465  1.5284  0.9401
  718MOL0     H96908  -0.811   8.517   2.242 -2.0913 -0.4423 -0.8482
  718MOL0     H96909  -0.735   8.355   2.281  1.9933  0.2290 -0.2142
  718MOL0     H96910  -0.017   8.765   2.615  0.0697  1.0774 -0.2391
  718MOL0     H96911   0.181   8.660   2.737  3.0369 -0.2241 -0.0951
  718MOL0     H96912   0.754   8.895   2.845 -0.1872 -0.1108 -0.3815
  718MOL0     H96913   0.925   8.789   2.984  0.3110  0.1525 -2.0221
  718MOL0     H96914   1.543   9.213   3.221  2.2884 -0.9275  2.7094
  718MOL0     H96915   1.298   9.282   3.161  0.5613 -0.7850 -0.6108
  718MOL0     H96916   0.888   9.409   3.303 -0.5030  0.7188  0.0103
  718MOL0     H96917   0.663   9.449   3.259  0.8498 -0.0845  1.3411
  718MOL0     H96918   0.441   9.166   3.390 -1.9230 -2.5682 -1.9144
  718MOL0     H96919   0.298   9.220   3.308  0.4291 -1.6608  2.2412
  718MOL0     H96920   0.502   9.406   3.417 -0.4805 -0.4156  0.9045
  718MOL0     H96921   0.367   9.353   3.513  2.3001  1.0306  1.1196
  718MOL0     H96922   0.236   9.441   3.289  0.6831 -0.2764 -0.5179
  718MOL0     H96923   0.390   9.521   3.255  0.2149  1.3860  1.0818
  718MOL0     H96924   0.218   9.664   3.366 -0.4608  0.9873  0.2554
  718MOL0     H96925   0.202   9.538   3.498 -0.5436  0.6628 -1.4180
  718MOL0     H96926   0.529   9.745   3.642 -0.5804 -0.0525 -0.1909
  718MOL0     H96927   0.584   9.027   3.245 -1.3502  0.7843 -0.1723
  718MOL0     H96928   0.940   8.921   3.226  0.6403  2.8054  0.2707
  718MOL0     H96929   0.840   8.920   3.370  0.7913  1.3651 -0.2480
  718MOL0     H96930   0.768   8.875   3.211 -0.1997 -1.7030  1.4753
  719MOL0     O96931   1.345   3.750   1.348  0.4198 -0.2790 -0.6232
  719MOL0     C96932   1.297   3.848   1.411 -0.2084 -0.1904  1.0640
  719MOL0     O96933   1.376   3.928   1.493 -0.3482 -0.4206  0.8385
  719MOL0     C96934   1.515   3.923   1.501 -1.3259  0.2062 -0.8691
  719MOL0     C96935   1.578   4.044   1.532  0.1388 -0.1695  0.2254
  719MOL0     C96936   1.714   4.058   1.554 -1.1844  0.3945  0.9277
  719MOL0     C96937   1.799   3.947   1.532 -0.6397 -0.6328  0.6708
  719MOL0     O96938   1.930   3.961   1.531 -0.5135  0.2646  0.1974
  719MOL0     C96939   2.006   3.892   1.424  1.0685 -0.3596  0.1101
  719MOL0     C96940   2.128   3.977   1.397  0.1081 -0.0674  0.8090
  719MOL0     C96941   2.214   3.930   1.285  0.2396  0.5138  0.2537
  719MOL0     C96942   2.290   3.795   1.312 -0.3209  0.6961 -0.9895
  719MOL0     C96943   2.361   3.750   1.194 -0.6848  0.1569  0.6916
  719MOL0     C96944   2.489   3.667   1.240  0.2705 -0.5001  1.0335
  719MOL0     C96945   2.455   3.539   1.313  0.1744 -0.8155 -0.0871
  719MOL0     C96946   2.366   3.439   1.224  0.3973 -0.0251 -0.1857
  719MOL0     N96947   2.320   3.331   1.313  0.3380  0.3074  0.1179
  719MOL0     C96948   2.186   3.320   1.334  0.7698  0.2716  0.5199
  719MOL0     C96949   2.172   3.242   1.434  0.4144  0.1293  0.5057
  719MOL0     C96950   2.044   3.187   1.501  0.4228  0.5482  0.6289
  719MOL0     C96951   1.931   3.166   1.394 -0.6223  0.2714 -0.2924
  719MOL0     C96952   1.811   3.100   1.463 -0.4383  0.7634 -0.1541
  719MOL0     C96953   1.685   3.092   1.383  0.5515  0.5231  0.0618
  719MOL0     O96954   1.653   3.228   1.327 -0.3196  0.5982 -0.8403
  719MOL0     C96955   1.534   3.243   1.260  1.0582  0.1808 -0.1093
  719MOL0     C96956   1.471   3.135   1.197  0.0697 -0.0284 -0.2235
  719MOL0     C96957   1.354   3.145   1.129  0.4274  0.0615 -0.8214
  719MOL0     C96958   1.288   3.273   1.133 -0.6426 -0.0449 -0.1595
  719MOL0     C96959   1.150   3.285   1.074  0.2568 -0.2230  0.0441
  719MOL0     O96960   1.109   3.180   0.996 -0.1199 -0.6813 -0.2346
  719MOL0     C96961   0.981   3.181   0.946 -0.3006  0.2837  0.8039
  719MOL0     C96962   0.869   3.215   1.022  0.1802 -0.9870 -0.8938
  719MOL0     C96963   0.743   3.205   0.960  0.6429 -0.1923  0.4279
  719MOL0     C96964   0.725   3.163   0.827  0.3079 -0.7410 -0.1793
  719MOL0     O96965   0.606   3.129   0.772  0.7226 -0.3181 -0.4998
  719MOL0     C96966   0.498   3.203   0.814 -0.0035 -0.6188  0.0545
  719MOL0     C96967   0.359   3.174   0.754 -0.6443 -0.4413  0.3460
  719MOL0     C96968   0.304   3.030   0.800  0.3316 -0.0219 -0.1661
  719MOL0     C96969   0.157   3.035   0.752 -0.3234 -0.4006  0.6038
  719MOL0     C96970   0.077   2.914   0.780 -0.0757 -0.3452 -0.7341
  719MOL0     C96971  -0.076   2.951   0.764  0.1881  0.1308 -0.2384
  719MOL0     C96972  -0.164   2.834   0.787 -0.2877 -0.4660  0.3352
  719MOL0     C96973  -0.300   2.855   0.744 -0.3637 -1.0083  1.4567
  719MOL0    Cl96974  -0.369   2.999   0.815  0.0633  0.0578  0.0289
  719MOL0     C96975   0.837   3.133   0.759 -1.3352  0.5095  0.9899
  719MOL0     C96976   0.959   3.144   0.814 -0.1625 -0.4239 -0.5590
  719MOL0     O96977   1.092   3.394   1.090  0.5182 -0.6203 -0.6273
  719MOL0     C96978   1.341   3.382   1.201 -0.0004 -0.2469 -0.5930
  719MOL0     C96979   1.469   3.369   1.259 -0.3218 -0.4541 -0.5727
  719MOL0     N96980   2.296   3.220   1.496  1.0508 -0.0676  0.5470
  719MOL0     N96981   2.384   3.275   1.422  0.3875  0.1146 -0.0884
  719MOL0     C96982   1.739   3.819   1.510  0.4287  0.4548  0.2926
  719MOL0     C96983   1.596   3.804   1.497 -0.6890 -0.7991  0.9190
  719MOL0     C96984   1.152   3.875   1.383 -0.1281 -0.4868  0.3104
  719MOL0     C96985   1.076   3.791   1.303  0.1368 -0.3569  0.2264
  719MOL0     C96986   0.935   3.803   1.280 -0.6684 -1.0531  0.5006
  719MOL0     C96987   0.869   3.917   1.345 -0.4660 -0.0685 -0.2220
  719MOL0     O96988   0.734   3.933   1.344 -0.5163 -0.0182  0.2137
  719MOL0     C96989   0.659   3.839   1.260 -0.7597  0.3309  0.7511
  719MOL0     C96990   0.520   3.907   1.261 -0.3860 -0.2076 -0.6381
  719MOL0     C96991   0.443   3.857   1.390 -0.6545  0.8703  0.3929
  719MOL0     C96992   0.297   3.892   1.395  0.0859  0.2086 -0.3358
  719MOL0     C96993   0.207   3.828   1.293  0.3525  0.2204 -0.2239
  719MOL0     C96994   0.131   3.770   1.220 -1.0023  0.1575  0.3816
  719MOL0     C96995   0.948   4.001   1.426  0.2013  0.2671 -0.0131
  719MOL0     C96996   1.087   3.982   1.444  0.3713 -0.6375 -0.0810
  719MOL0     C96997   1.160   4.102   1.522  0.0406  0.6606  0.5459
  719MOL0     H96998   1.514   4.128   1.556  0.3296  0.0560 -0.0434
  719MOL0     H96999   1.751   4.151   1.596  2.6715 -0.8608  0.7286
  719MOL0     H97000   2.054   3.800   1.459  2.5470  0.5722  0.6426
  719MOL0     H97001   1.944   3.879   1.335  0.4520  0.8901  0.3407
  719MOL0     H97002   2.192   3.976   1.486 -0.6832  1.0979  1.4124
  719MOL0     H97003   2.090   4.078   1.382  0.7829  0.0681 -0.0367
  719MOL0     H97004   2.277   4.010   1.244  1.4261 -1.2911 -1.6741
  719MOL0     H97005   2.142   3.921   1.203 -1.4908  3.9772  1.1892
  719MOL0     H97006   2.356   3.808   1.398  0.9192 -0.3123 -1.7428
  719MOL0     H97007   2.228   3.714   1.350 -0.2816  1.5814  1.0723
  719MOL0     H97008   2.305   3.697   1.117  0.1358 -0.7787  0.7283
  719MOL0     H97009   2.401   3.848   1.166 -0.1204 -0.2305  0.1371
  719MOL0     H97010   2.556   3.653   1.155  0.6027  1.4557  0.9203
  719MOL0     H97011   2.554   3.733   1.299 -1.3248  2.4528 -0.2615
  719MOL0     H97012   2.401   3.567   1.404  2.6615  1.3906  0.8654
  719MOL0     H97013   2.547   3.496   1.355  0.0522 -1.5106 -0.5223
  719MOL0     H97014   2.280   3.477   1.169 -0.0267 -0.5318  0.1185
  719MOL0     H97015   2.426   3.392   1.146  0.5123  1.4686 -1.0338
  719MOL0     H97016   2.099   3.365   1.290 -0.1155 -1.6828  0.1643
  719MOL0     H97017   2.076   3.091   1.542  1.0380  0.2893 -0.4096
  719MOL0     H97018   2.010   3.244   1.587 -1.0040 -0.5771  0.8475
  719MOL0     H97019   1.898   3.259   1.347 -3.1427 -0.7325 -0.6231
  719MOL0     H97020   1.979   3.098   1.324  4.2631  4.1053 -1.2493
  719MOL0     H97021   1.789   3.159   1.553 -0.9477 -0.5353  0.6040
  719MOL0     H97022   1.833   2.997   1.495  0.7422  0.8719 -0.5921
  719MOL0     H97023   1.599   3.058   1.442 -1.4523  4.5692 -0.1500
  719MOL0     H97024   1.703   3.021   1.303 -1.4042  0.8947 -0.7768
  719MOL0     H97025   1.507   3.033   1.206 -1.5072 -0.5342  0.8548
  719MOL0     H97026   1.307   3.066   1.073  0.6483 -0.4455 -0.3057
  719MOL0     H97027   0.878   3.255   1.122 -2.7821 -0.7088 -0.6667
  719MOL0     H97028   0.655   3.227   1.019  0.6955  0.5081  0.2625
  719MOL0     H97029   0.476   3.194   0.921 -1.5570  1.1906 -0.0547
  719MOL0     H97030   0.527   3.308   0.800  0.0166 -0.5585  0.5248
  719MOL0     H97031   0.292   3.256   0.784  1.2942  1.5562 -0.4998
  719MOL0     H97032   0.362   3.191   0.646 -0.7111  0.6587  0.4962
  719MOL0     H97033   0.361   2.946   0.757  1.4877 -1.0321  3.0856
  719MOL0     H97034   0.309   3.032   0.909 -0.6169  1.4519 -0.1183
  719MOL0     H97035   0.152   3.050   0.644 -0.5413 -0.7649  0.5624
  719MOL0     H97036   0.108   3.121   0.799  2.6947  3.0292 -1.9392
  719MOL0     H97037   0.086   2.890   0.887  1.0618  2.5760 -0.0817
  719MOL0     H97038   0.099   2.830   0.714  1.1750 -0.5967 -0.0240
  719MOL0     H97039  -0.103   3.028   0.836  1.2196 -0.0873  0.4006
  719MOL0     H97040  -0.075   2.989   0.661  1.5376 -0.5308 -0.4923
  719MOL0     H97041  -0.155   2.815   0.894  1.9311  0.3234  0.3494
  719MOL0     H97042  -0.115   2.746   0.744  1.8409  0.0699  1.5061
  719MOL0     H97043  -0.310   2.850   0.635 -2.9670  2.2486  1.4100
  719MOL0     H97044  -0.351   2.767   0.784 -0.9521 -0.8173  1.1331
  719MOL0     H97045   0.838   3.079   0.665 -0.0870  1.4922  0.4064
  719MOL0     H97046   1.045   3.107   0.758  0.5664  0.9385 -0.3872
  719MOL0     H97047   1.285   3.473   1.218 -0.3791 -0.5533 -0.1973
  719MOL0     H97048   1.519   3.439   1.325  0.5825 -1.1472 -0.5012
  719MOL0     H97049   1.793   3.726   1.495  1.0519  0.5198  1.9459
  719MOL0     H97050   1.558   3.706   1.471 -2.8600  0.5145 -1.3315
  719MOL0     H97051   1.124   3.704   1.259  2.2189 -1.2584  3.7874
  719MOL0     H97052   0.871   3.737   1.222 -1.0676  0.7843 -1.2886
  719MOL0     H97053   0.652   3.736   1.298 -2.3034  0.8584  1.9974
  719MOL0     H97054   0.696   3.834   1.157  1.4311  0.5772  1.4756
  719MOL0     H97055   0.474   3.884   1.164  3.4765 -0.3817 -2.6510
  719MOL0     H97056   0.539   4.014   1.271 -0.6214 -0.2719  0.5486
  719MOL0     H97057   0.499   3.891   1.478  2.0345 -1.7797 -0.1221
  719MOL0     H97058   0.450   3.749   1.404 -1.7537  1.1485  4.1380
  719MOL0     H97059   0.255   3.854   1.489  0.5122 -0.4440 -0.4023
  719MOL0     H97060   0.289   4.000   1.388  1.4610  0.2354 -2.4567
  719MOL0     H97061   0.062   3.723   1.152  0.7730 -1.6777 -0.2266
  719MOL0     H97062   0.890   4.075   1.479  2.6187  0.6842  2.2154
  719MOL0     H97063   1.094   4.189   1.518 -0.8829 -0.0558 -1.0543
  719MOL0     H97064   1.185   4.061   1.620 -0.7304 -2.6412 -0.5004
  719MOL0     H97065   1.251   4.127   1.466  0.1567 -0.8424 -0.0075
  720MOL0     O97066   6.149   2.898   4.432  0.6148 -0.2453 -0.7236
  720MOL0     C97067   6.211   2.999   4.454 -0.4462 -0.3082  0.2574
  720MOL0     O97068   6.162   3.115   4.497  0.0640  0.7242 -0.2163
  720MOL0     C97069   6.026   3.143   4.477 -0.2615 -0.1258 -0.7114
  720MOL0     C97070   5.999   3.253   4.398 -0.0809 -0.0866 -0.2382
  720MOL0     C97071   5.869   3.297   4.378 -0.4692 -0.6778  0.1231
  720MOL0     C97072   5.757   3.240   4.437  0.1683 -0.5259 -0.3572
  720MOL0     O97073   5.633   3.272   4.399  0.5762  0.6498  0.8963
  720MOL0     C97074   5.598   3.342   4.280  0.6064  0.7307 -0.2744
  720MOL0     C97075   5.451   3.388   4.262 -0.4936 -0.5856 -0.3572
  720MOL0     C97076   5.427   3.475   4.142 -0.3278 -0.9208  0.2485
  720MOL0     C97077   5.279   3.537   4.131 -0.6687 -0.4034  0.1860
  720MOL0     C97078   5.281   3.643   4.019 -0.6905 -0.4027 -0.2142
  720MOL0     C97079   5.148   3.699   3.981 -0.4068  0.9211  0.2079
  720MOL0     C97080   5.048   3.738   4.087 -0.9425  0.2544  0.0656
  720MOL0     C97081   4.915   3.793   4.011  0.2312 -0.2010  0.0168
  720MOL0     N97082   4.832   3.686   3.943  0.0650  0.3746 -1.3016
  720MOL0     C97083   4.764   3.581   4.003  1.1361  0.4059 -0.3009
  720MOL0     C97084   4.723   3.509   3.898  0.5486  0.4951  0.2545
  720MOL0     C97085   4.625   3.392   3.907  0.1974 -0.1155  0.4591
  720MOL0     C97086   4.654   3.260   3.843 -0.1663 -0.9134  0.0342
  720MOL0     C97087   4.532   3.172   3.842  0.2705  0.4388 -0.4140
  720MOL0     C97088   4.537   3.039   3.770 -0.0912 -0.0637  0.2589
  720MOL0     O97089   4.664   2.973   3.792  0.8539  0.3833 -0.4760
  720MOL0     C97090   4.659   2.886   3.899  0.0692  0.7397  0.3859
  720MOL0     C97091   4.748   2.774   3.887 -0.2685 -0.3114 -0.0661
  720MOL0     C97092   4.745   2.680   3.989 -0.6539  1.0140  0.7161
  720MOL0     C97093   4.662   2.683   4.101 -0.1684  0.8947  0.1312
  720MOL0     C97094   4.670   2.574   4.204 -0.0342 -0.2917  0.7172
  720MOL0     O97095   4.751   2.464   4.167  0.2384 -0.0849 -0.0240
  720MOL0     C97096   4.724   2.347   4.235 -0.0214  0.3747 -0.0042
  720MOL0     C97097   4.623   2.264   4.178 -0.3721  0.2755 -0.8273
  720MOL0     C97098   4.604   2.133   4.238  0.1274 -0.6147 -0.8628
  720MOL0     C97099   4.683   2.090   4.351  0.4680  0.5096  0.2656
  720MOL0     O97100   4.685   1.968   4.410 -0.4624  0.1568 -0.5054
  720MOL0     C97101   4.600   1.873   4.359  0.7451 -0.8131 -0.2950
  720MOL0     C97102   4.452   1.905   4.413 -0.0430 -0.6582  0.4349
  720MOL0     C97103   4.437   1.895   4.567 -0.5442 -0.2132 -1.0333
  720MOL0     C97104   4.298   1.943   4.606 -0.2757 -0.5363 -0.1864
  720MOL0     C97105   4.274   1.897   4.753  0.0232  0.5140 -0.0916
  720MOL0     C97106   4.132   1.932   4.809 -0.4030  0.2172  0.7170
  720MOL0     C97107   4.114   1.872   4.951 -0.2257  0.7704  0.5473
  720MOL0     C97108   3.978   1.903   4.996 -0.5762 -0.0499  0.2811
  720MOL0    Cl97109   3.989   2.064   5.080 -0.0667  0.0702 -0.4140
  720MOL0     C97110   4.782   2.171   4.401  0.0829  0.0081  0.5160
  720MOL0     C97111   4.803   2.297   4.336 -0.3636  0.3438 -0.1213
  720MOL0     O97112   4.599   2.571   4.302 -0.0526  0.3217 -0.8675
  720MOL0     C97113   4.581   2.794   4.114  0.3300  0.3580  0.3934
  720MOL0     C97114   4.574   2.888   4.012  0.0583  0.3974  0.2440
  720MOL0     N97115   4.754   3.571   3.783 -0.9723  0.1373 -0.4433
  720MOL0     N97116   4.824   3.674   3.817 -0.2187  0.4237 -0.1264
  720MOL0     C97117   5.782   3.123   4.518 -0.0327  0.2698 -0.6987
  720MOL0     C97118   5.916   3.082   4.538  0.1554  0.4723  0.3572
  720MOL0     C97119   6.360   2.990   4.441 -0.5943 -0.0752  0.9509
  720MOL0     C97120   6.429   2.886   4.497 -0.3557 -0.1894 -0.6662
  720MOL0     C97121   6.569   2.879   4.498 -0.3411 -0.1799 -1.0010
  720MOL0     C97122   6.643   2.980   4.435  0.0241  0.2505 -0.0440
  720MOL0     O97123   6.777   2.980   4.419 -0.4249 -0.9599  0.4721
  720MOL0     C97124   6.836   2.855   4.392 -0.0138  0.1619  0.5001
  720MOL0     C97125   6.828   2.839   4.245  0.0754 -0.3911 -0.3158
  720MOL0     C97126   6.895   2.711   4.196 -0.1319 -0.1623  0.5263
  720MOL0     C97127   6.975   2.721   4.068 -0.0438  0.2579  0.1998
  720MOL0     C97128   6.898   2.686   3.948 -0.2639  0.2587  0.0373
  720MOL0     C97129   6.834   2.648   3.859  0.3518  0.1256  0.7995
  720MOL0     C97130   6.573   3.083   4.371 -0.1449 -0.2502 -0.7482
  720MOL0     C97131   6.434   3.079   4.362  0.3121  0.0578 -0.1355
  720MOL0     C97132   6.368   3.181   4.282  0.3383 -0.2106  0.7932
  720MOL0     H97133   6.086   3.312   4.371  1.3060 -2.1093 -0.4453
  720MOL0     H97134   5.852   3.387   4.320 -1.4104 -0.9760 -0.0770
  720MOL0     H97135   5.672   3.422   4.277  3.3407 -1.6401  0.0585
  720MOL0     H97136   5.636   3.284   4.196  2.1536  0.1388  0.7886
  720MOL0     H97137   5.425   3.458   4.342  1.0650  0.7047 -0.9074
  720MOL0     H97138   5.382   3.304   4.264 -0.5400 -0.5495  1.4359
  720MOL0     H97139   5.435   3.422   4.047  0.3437 -0.5800  0.1085
  720MOL0     H97140   5.488   3.565   4.127  1.6743 -1.9049  2.1051
  720MOL0     H97141   5.205   3.458   4.120 -1.5893  0.4610  0.0819
  720MOL0     H97142   5.261   3.589   4.225  1.9775 -0.6388  0.9223
  720MOL0     H97143   5.348   3.726   4.043 -1.8730  0.5529 -0.1530
  720MOL0     H97144   5.331   3.598   3.933  0.5177 -0.8517  0.6967
  720MOL0     H97145   5.173   3.782   3.914  3.8732 -0.6041 -0.4069
  720MOL0     H97146   5.108   3.625   3.911  3.2863  0.9236 -2.1562
  720MOL0     H97147   5.094   3.814   4.151 -2.7543  2.2361 -0.8899
  720MOL0     H97148   5.029   3.649   4.148 -0.1445  0.1925  0.2440
  720MOL0     H97149   4.862   3.837   4.095  0.9696  1.4173 -0.3155
  720MOL0     H97150   4.936   3.866   3.932  0.3917 -2.1963 -1.8852
  720MOL0     H97151   4.721   3.571   4.102 -0.1854  1.3216 -0.7460
  720MOL0     H97152   4.596   3.390   4.012 -2.4832 -0.9527 -0.2133
  720MOL0     H97153   4.543   3.427   3.844  1.2348  1.5022 -0.0566
  720MOL0     H97154   4.689   3.284   3.742  1.2653  2.4909  1.2162
  720MOL0     H97155   4.737   3.204   3.888  0.8373  1.5556  1.4691
  720MOL0     H97156   4.449   3.234   3.809 -0.9248 -1.2029 -0.6122
  720MOL0     H97157   4.511   3.159   3.949 -2.8302  1.1868 -0.8445
  720MOL0     H97158   4.529   3.065   3.664  1.6162 -1.3176 -0.2294
  720MOL0     H97159   4.449   2.978   3.788 -0.2470  0.4497  1.2556
  720MOL0     H97160   4.802   2.750   3.796 -1.7542  0.7171 -1.2764
  720MOL0     H97161   4.797   2.591   3.956 -1.5730  0.8352 -0.3432
  720MOL0     H97162   4.566   2.301   4.093 -2.5436  0.7260  0.7331
  720MOL0     H97163   4.542   2.054   4.196  1.8126 -1.7508 -1.3277
  720MOL0     H97164   4.604   1.879   4.250  0.3079  1.7233 -0.2256
  720MOL0     H97165   4.636   1.780   4.406 -0.2629 -0.3774  1.4197
  720MOL0     H97166   4.423   2.004   4.376 -1.3765 -1.1228  0.2060
  720MOL0     H97167   4.386   1.839   4.357 -1.7102  1.9390 -0.8585
  720MOL0     H97168   4.454   1.789   4.589  1.5300  0.2410 -0.2709
  720MOL0     H97169   4.511   1.956   4.619 -1.5671  0.4943 -0.3612
  720MOL0     H97170   4.217   1.901   4.546 -1.0336  2.5990 -1.5066
  720MOL0     H97171   4.291   2.049   4.584 -0.7580 -0.0221  2.2077
  720MOL0     H97172   4.344   1.957   4.812 -0.0091  3.5034 -2.7881
  720MOL0     H97173   4.295   1.791   4.765  0.3194  0.2912 -2.1855
  720MOL0     H97174   4.123   2.041   4.811 -0.9239  0.1803  0.4767
  720MOL0     H97175   4.064   1.882   4.740 -1.4190  3.9355 -1.2195
  720MOL0     H97176   4.192   1.912   5.017 -0.5997 -1.5068  2.4807
  720MOL0     H97177   4.136   1.765   4.953  0.9783  0.9869 -0.1304
  720MOL0     H97178   3.922   1.916   4.903  1.7801  0.6531 -1.1388
  720MOL0     H97179   3.932   1.828   5.061  0.4707  0.0298  1.1486
  720MOL0     H97180   4.840   2.136   4.486 -0.9271 -0.4287  1.0350
  720MOL0     H97181   4.873   2.363   4.385 -1.3583  0.2558  1.5037
  720MOL0     H97182   4.532   2.805   4.210 -0.0018 -3.1846  0.7427
  720MOL0     H97183   4.515   2.978   4.026 -0.7662  0.1141 -1.2343
  720MOL0     H97184   5.706   3.063   4.566 -0.8778 -0.6447 -3.0213
  720MOL0     H97185   5.920   3.002   4.610 -3.4849 -1.3444 -1.1849
  720MOL0     H97186   6.372   2.810   4.551 -1.4244  0.5795 -0.6689
  720MOL0     H97187   6.618   2.797   4.550  1.2919  2.6363  2.3679
  720MOL0     H97188   6.799   2.777   4.460 -0.3533  1.1393  1.4801
  720MOL0     H97189   6.940   2.856   4.428 -0.6715 -0.4955  2.5954
  720MOL0     H97190   6.862   2.927   4.191 -0.7676 -1.0867 -2.0556
  720MOL0     H97191   6.727   2.830   4.204  0.2382  2.3695 -1.5266
  720MOL0     H97192   6.825   2.630   4.174  0.6848 -0.1537 -2.7542
  720MOL0     H97193   6.960   2.667   4.272 -1.2242 -1.2001  0.9034
  720MOL0     H97194   7.021   2.819   4.055 -0.1712  0.0565 -2.5585
  720MOL0     H97195   7.063   2.659   4.089 -0.3822  0.7112  3.4767
  720MOL0     H97196   6.774   2.621   3.775  1.7973  0.2237 -0.3167
  720MOL0     H97197   6.628   3.153   4.310  2.3510 -1.3006  0.1774
  720MOL0     H97198   6.359   3.282   4.324 -0.3494 -0.8974  2.3928
  720MOL0     H97199   6.415   3.198   4.185 -2.7568  2.6117 -0.3925
  720MOL0     H97200   6.276   3.135   4.244  1.0490  0.5017 -1.9505
  721MOL0     O97201   8.015   0.047  10.469 -0.6441  0.8212  0.4819
  721MOL0     C97202   7.960  -0.032  10.549  0.3873  0.3007 -0.6253
  721MOL0     O97203   7.823  -0.029  10.570  0.3834 -0.3646 -0.3400
  721MOL0     C97204   7.750   0.057  10.488 -0.3862 -0.2458 -0.1276
  721MOL0     C97205   7.760   0.045  10.346 -1.0733 -1.3560  0.1325
  721MOL0     C97206   7.688   0.135  10.265 -0.7107 -0.5166 -0.3102
  721MOL0     C97207   7.623   0.238  10.319  0.4507 -0.6634  0.3700
  721MOL0     O97208   7.562   0.331  10.239 -0.3512 -0.0079 -0.4251
  721MOL0     C97209   7.421   0.337  10.256  0.2452  1.1012  0.6971
  721MOL0     C97210   7.380   0.388  10.116  0.3793  0.5132 -0.0699
  721MOL0     C97211   7.394   0.538  10.122 -0.3550 -1.0259 -0.0308
  721MOL0     C97212   7.324   0.603  10.008  0.6619 -0.5668  0.5460
  721MOL0     C97213   7.306   0.757  10.040 -0.0616 -0.5938 -0.1116
  721MOL0     C97214   7.429   0.846   9.996  0.1699  0.2835  0.4548
  721MOL0     C97215   7.448   0.839   9.843  0.6933 -0.6688  1.2777
  721MOL0     C97216   7.566   0.928   9.802  0.2070  0.0199  0.0775
  721MOL0     N97217   7.543   1.077   9.832 -0.1531  0.5344 -0.7814
  721MOL0     C97218   7.587   1.135   9.945  0.9774  0.2154 -0.6431
  721MOL0     C97219   7.559   1.267   9.935  0.3070  0.3366 -0.1805
  721MOL0     C97220   7.593   1.369  10.037 -0.1897  0.9819 -0.2057
  721MOL0     C97221   7.474   1.397  10.131 -0.1786  0.4373 -0.2470
  721MOL0     C97222   7.410   1.277  10.203 -0.7389 -0.4173 -0.9332
  721MOL0     C97223   7.282   1.297  10.279 -0.3479 -0.7352 -0.1591
  721MOL0     O97224   7.286   1.411  10.364  0.5317  0.0231 -0.1303
  721MOL0     C97225   7.206   1.523  10.341 -0.4447  0.2243 -0.6025
  721MOL0     C97226   7.072   1.522  10.361  0.5410  1.3483  0.2808
  721MOL0     C97227   6.990   1.624  10.323  0.1224  0.2002  0.3308
  721MOL0     C97228   7.042   1.741  10.275  0.4649 -0.5419 -0.6803
  721MOL0     C97229   6.947   1.833  10.211  0.2907 -0.2893  1.0324
  721MOL0     O97230   6.819   1.795  10.170  0.0181 -0.4841 -0.4448
  721MOL0     C97231   6.711   1.877  10.188  0.3355  0.4891 -0.1678
  721MOL0     C97232   6.612   1.897  10.095 -0.3441 -0.6467 -0.2698
  721MOL0     C97233   6.496   1.972  10.140  0.0200  0.6635  0.5440
  721MOL0     C97234   6.474   2.012  10.271  1.0275 -0.5818  0.3378
  721MOL0     O97235   6.347   2.064  10.298 -0.2025 -0.1954 -0.3520
  721MOL0     C97236   6.306   2.073  10.434 -1.0598 -0.0084  0.4323
  721MOL0     C97237   6.327   2.217  10.491  0.3132  0.3104 -0.1471
  721MOL0     C97238   6.314   2.331  10.388  0.4599  0.7358  0.4775
  721MOL0     C97239   6.184   2.398  10.413  0.2087 -0.1495 -0.1841
  721MOL0     C97240   6.072   2.323  10.352 -0.7461  0.7732 -0.2760
  721MOL0     C97241   6.003   2.399  10.236 -0.6597  0.0792 -0.4392
  721MOL0     C97242   5.868   2.329  10.205 -0.4038 -0.0588 -0.0226
  721MOL0     C97243   5.806   2.364  10.070  0.2216  0.3383  0.3153
  721MOL0    Cl97244   5.793   2.538  10.039  0.5014 -0.0003 -0.0846
  721MOL0     C97245   6.572   1.990  10.366 -0.2395  0.1614  0.7507
  721MOL0     C97246   6.690   1.918  10.318  0.2067 -0.2420 -0.9531
  721MOL0     O97247   6.985   1.943  10.207  0.6689 -0.3115  0.2407
  721MOL0     C97248   7.186   1.757  10.273 -0.1905 -0.6581  0.3118
  721MOL0     C97249   7.263   1.643  10.289 -0.4327 -0.1305  1.0056
  721MOL0     N97250   7.495   1.288   9.818  0.1897 -0.6374  0.8462
  721MOL0     N97251   7.490   1.176   9.751 -0.7494 -0.0764 -0.2706
  721MOL0     C97252   7.607   0.252  10.460 -0.2406  1.0006  1.2130
  721MOL0     C97253   7.667   0.155  10.543  0.3632 -0.1788  0.7191
  721MOL0     C97254   8.051  -0.137  10.610  0.3973  0.0687  0.3244
  721MOL0     C97255   7.985  -0.250  10.650 -0.4030 -0.2699 -0.6655
  721MOL0     C97256   8.051  -0.355  10.707 -0.1305  0.1337  0.0102
  721MOL0     C97257   8.189  -0.358  10.717 -0.4357  0.2592 -0.6635
  721MOL0     O97258   8.264  -0.464  10.765 -1.0008  0.0573  0.0218
  721MOL0     C97259   8.208  -0.599  10.776 -0.1526 -0.9770  0.4125
  721MOL0     C97260   8.308  -0.712  10.756 -0.7642  0.0601 -0.3520
  721MOL0     C97261   8.340  -0.746  10.604  0.3170  0.3115  0.7329
  721MOL0     C97262   8.207  -0.783  10.528  0.2168 -0.4231 -0.1454
  721MOL0     C97263   8.124  -0.878  10.596  0.8995  0.9300  1.0229
  721MOL0     C97264   8.049  -0.957  10.648 -0.6209 -0.8910 -0.4169
  721MOL0     C97265   8.260  -0.238  10.693  0.5573 -0.1875  1.1662
  721MOL0     C97266   8.192  -0.127  10.642 -0.3031  0.2586  0.0138
  721MOL0     C97267   8.280  -0.008  10.612 -0.7538  1.0721 -0.2364
  721MOL0     H97268   7.815  -0.034  10.294  0.6849  1.5982 -2.9369
  721MOL0     H97269   7.687   0.121  10.157 -1.2999  0.8248 -0.5084
  721MOL0     H97270   7.372   0.241  10.275  0.5656  1.1693  1.8822
  721MOL0     H97271   7.396   0.400  10.342 -1.4909  0.4513  0.7052
  721MOL0     H97272   7.283   0.353  10.082  1.4440 -2.1863 -0.5944
  721MOL0     H97273   7.449   0.346  10.042  1.3460  1.7158  0.1002
  721MOL0     H97274   7.501   0.541  10.098 -0.3690 -1.4618 -0.1635
  721MOL0     H97275   7.374   0.576  10.223  3.7501 -1.7453  1.2539
  721MOL0     H97276   7.388   0.577   9.923 -1.7784 -0.1653 -1.5193
  721MOL0     H97277   7.224   0.560  10.000  0.7086 -0.4708 -0.8662
  721MOL0     H97278   7.212   0.803  10.008  0.6842  1.7575  0.8186
  721MOL0     H97279   7.300   0.772  10.148  0.8223  0.6668 -0.2149
  721MOL0     H97280   7.411   0.947  10.034  1.2165  0.9314 -0.6761
  721MOL0     H97281   7.523   0.814  10.041 -0.2191 -1.3850  0.1416
  721MOL0     H97282   7.358   0.882   9.798  1.6627  0.3189  0.1996
  721MOL0     H97283   7.463   0.743   9.793  3.1897  1.9005 -3.6708
  721MOL0     H97284   7.652   0.886   9.856  0.1892  0.4211  0.4276
  721MOL0     H97285   7.577   0.927   9.693 -0.3249  0.0106  0.0231
  721MOL0     H97286   7.643   1.093  10.028 -0.2832 -0.8623 -0.3070
  721MOL0     H97287   7.681   1.333  10.091 -0.9245  0.4126  0.6331
  721MOL0     H97288   7.632   1.464   9.997  1.4342  0.7990  0.8801
  721MOL0     H97289   7.510   1.458  10.214 -1.3014  0.8716 -0.0672
  721MOL0     H97290   7.403   1.459  10.075  2.2146  2.8671 -0.7690
  721MOL0     H97291   7.485   1.238  10.272  1.1470  2.5555 -1.1680
  721MOL0     H97292   7.383   1.200  10.130 -2.5160 -0.1013 -0.6482
  721MOL0     H97293   7.267   1.205  10.336 -3.6413 -1.6057 -2.1657
  721MOL0     H97294   7.195   1.301  10.213 -2.4830 -3.4629  2.1871
  721MOL0     H97295   7.026   1.426  10.385  1.5568  0.0435 -2.5501
  721MOL0     H97296   6.884   1.616  10.343  0.7002 -2.2484  2.9210
  721MOL0     H97297   6.632   1.874   9.991 -1.2428 -2.5120 -0.0663
  721MOL0     H97298   6.413   1.987  10.072  0.8810 -2.0823 -1.2596
  721MOL0     H97299   6.200   2.048  10.445 -0.9476 -1.2374 -1.0159
  721MOL0     H97300   6.347   1.992  10.496 -0.1301  0.0139 -0.1286
  721MOL0     H97301   6.250   2.214  10.568  0.4207 -1.8446 -0.0414
  721MOL0     H97302   6.425   2.225  10.539 -0.0438  6.0491  0.3187
  721MOL0     H97303   6.399   2.395  10.415 -0.3345  0.7740  3.1178
  721MOL0     H97304   6.308   2.306  10.281 -3.1669  0.6711  0.6001
  721MOL0     H97305   6.194   2.499  10.373  0.1627  1.0975  2.6865
  721MOL0     H97306   6.158   2.406  10.519 -0.5102  0.7972 -0.4233
  721MOL0     H97307   5.997   2.280  10.420  1.4325 -0.4311  1.4997
  721MOL0     H97308   6.117   2.230  10.316 -1.8189 -0.0145  0.3492
  721MOL0     H97309   5.983   2.500  10.272 -1.0809 -0.1272 -0.0964
  721MOL0     H97310   6.075   2.408  10.153  0.9398  1.5767  1.0252
  721MOL0     H97311   5.795   2.334  10.286 -0.3451  1.4816 -0.0348
  721MOL0     H97312   5.883   2.221  10.196 -1.2696 -0.2067  0.2814
  721MOL0     H97313   5.853   2.313   9.985 -2.0523 -1.2933 -0.0657
  721MOL0     H97314   5.705   2.322  10.070  0.4875 -0.3209 -0.0979
  721MOL0     H97315   6.576   2.039  10.463  0.1759 -1.6789  1.7050
  721MOL0     H97316   6.772   1.895  10.385 -0.3234 -0.0364 -0.2294
  721MOL0     H97317   7.237   1.851  10.253  0.1597 -0.6371  1.2445
  721MOL0     H97318   7.370   1.644  10.274 -0.5858 -1.5145 -0.4371
  721MOL0     H97319   7.544   0.333  10.494  1.3815  2.3086  1.2552
  721MOL0     H97320   7.645   0.152  10.649  2.3341 -1.0249  1.1539
  721MOL0     H97321   7.877  -0.262  10.648 -0.2872 -3.0332  1.9519
  721MOL0     H97322   7.983  -0.435  10.733  1.7691 -1.8790 -0.7936
  721MOL0     H97323   8.131  -0.608  10.699  0.2909 -0.4151 -0.1101
  721MOL0     H97324   8.168  -0.600  10.877  2.9256 -2.8940  1.7421
  721MOL0     H97325   8.283  -0.808  10.803  1.9828 -0.5898 -0.0440
  721MOL0     H97326   8.403  -0.681  10.798  0.9428 -0.9532 -3.1535
  721MOL0     H97327   8.405  -0.834  10.596 -1.6867 -1.1579 -0.0483
  721MOL0     H97328   8.393  -0.666  10.550  0.8434 -1.2214 -1.1633
  721MOL0     H97329   8.139  -0.704  10.496 -0.6727 -0.5729  1.2859
  721MOL0     H97330   8.242  -0.828  10.435  2.0921  1.4986 -0.4449
  721MOL0     H97331   7.989  -1.028  10.701 -1.1430  0.2596  0.5994
  721MOL0     H97332   8.368  -0.235  10.700  0.5952  1.5323  0.4487
  721MOL0     H97333   8.342  -0.050  10.532 -0.3634 -0.5394  0.8470
  721MOL0     H97334   8.239   0.091  10.590 -0.0061  1.5750  0.5382
  721MOL0     H97335   8.349   0.002  10.697 -0.5559  1.4067 -0.4323
  722MOL0     O97336   7.639   3.497   6.265  0.3421  0.7196 -0.2318
  722MOL0     C97337   7.688   3.513   6.378  1.1884  0.1422  0.2313
  722MOL0     O97338   7.814   3.504   6.415  0.0402 -0.2082 -0.3831
  722MOL0     C97339   7.897   3.469   6.310 -0.7144  0.4789 -0.6919
  722MOL0     C97340   7.983   3.576   6.268 -0.3045  0.7994  0.3454
  722MOL0     C97341   8.092   3.551   6.192  0.0336  0.8072 -0.1680
  722MOL0     C97342   8.117   3.418   6.149  0.3825 -0.2645  0.6433
  722MOL0     O97343   8.228   3.382   6.070  0.8300 -0.5420 -0.5538
  722MOL0     C97344   8.328   3.479   6.042  0.5544  0.4181 -0.1905
  722MOL0     C97345   8.449   3.417   5.974 -0.4475 -0.1349 -0.6175
  722MOL0     C97346   8.504   3.294   6.047  0.4956  0.5291  0.0241
  722MOL0     C97347   8.564   3.315   6.185 -0.6345 -0.7535  0.7562
  722MOL0     C97348   8.603   3.196   6.265 -0.2495  0.1310  0.3580
  722MOL0     C97349   8.498   3.077   6.284  0.2018 -0.5222 -0.3752
  722MOL0     C97350   8.576   2.976   6.363 -0.9530  0.1081 -0.7030
  722MOL0     C97351   8.484   2.862   6.392 -0.2292  0.3264 -0.2162
  722MOL0     N97352   8.570   2.738   6.417 -0.0827  0.2545 -0.2344
  722MOL0     C97353   8.594   2.650   6.314  0.1081  0.5958  0.3747
  722MOL0     C97354   8.675   2.560   6.377  0.5055 -0.3643 -0.1658
  722MOL0     C97355   8.725   2.441   6.309 -0.0954 -0.3952 -0.3981
  722MOL0     C97356   8.880   2.442   6.279 -0.3970 -0.0539 -0.2042
  722MOL0     C97357   8.967   2.450   6.417 -0.3661 -0.6873 -0.0944
  722MOL0     C97358   9.114   2.416   6.398  0.1539 -1.2857 -0.0928
  722MOL0     O97359   9.180   2.538   6.369  0.8493 -0.4937 -0.4934
  722MOL0     C97360   9.316   2.531   6.355  1.0407 -0.8534 -0.2912
  722MOL0     C97361   9.387   2.416   6.388  0.2091  0.1793 -0.3309
  722MOL0     C97362   9.528   2.414   6.393  0.4051 -0.7415  0.3574
  722MOL0     C97363   9.597   2.529   6.359  0.1555  0.7769 -0.0657
  722MOL0     C97364   9.746   2.539   6.352  0.1291 -0.9925  0.3002
  722MOL0     O97365   9.815   2.451   6.437 -0.0508  0.1019  0.9670
  722MOL0     C97366   9.950   2.441   6.430  0.1540 -0.4604  0.5912
  722MOL0     C97367  10.011   2.323   6.427  0.9455  0.4801 -0.8457
  722MOL0     C97368  10.150   2.308   6.429 -0.0457  0.0038 -0.6183
  722MOL0     C97369  10.235   2.424   6.438  0.6262 -0.5425 -0.9301
  722MOL0     O97370  10.378   2.424   6.436  0.7627 -0.6486 -0.8224
  722MOL0     C97371  10.446   2.322   6.365  0.5413  0.5213 -0.1975
  722MOL0     C97372  10.592   2.351   6.346  0.2600 -0.1494 -0.3172
  722MOL0     C97373  10.644   2.265   6.228 -1.1713  0.0670  0.8340
  722MOL0     C97374  10.798   2.267   6.222 -0.6912  0.1874  0.5030
  722MOL0     C97375  10.848   2.406   6.198 -0.0916  1.2069 -0.4295
  722MOL0     C97376  11.012   2.407   6.191 -0.4042  0.4499  0.8955
  722MOL0     C97377  11.086   2.532   6.155 -0.6026  0.4614 -0.7024
  722MOL0     C97378  11.198   2.496   6.061 -0.8513  0.3118  0.2234
  722MOL0    Cl97379  11.302   2.636   6.035 -0.1373 -0.1703  0.3153
  722MOL0     C97380  10.167   2.545   6.454  0.8941 -0.7838  0.3312
  722MOL0     C97381  10.024   2.561   6.446 -0.0945  0.0281  0.2304
  722MOL0     O97382   9.799   2.612   6.263  0.4615 -0.2586 -0.3230
  722MOL0     C97383   9.529   2.648   6.335  0.1314 -0.7706  0.0538
  722MOL0     C97384   9.386   2.650   6.336  0.0820  0.2149  0.3049
  722MOL0     N97385   8.692   2.586   6.506  0.2190  0.1606  0.2761
  722MOL0     N97386   8.620   2.693   6.535 -0.0024  0.1548  0.2709
  722MOL0     C97387   8.028   3.309   6.175  0.2022 -0.8276  0.5559
  722MOL0     C97388   7.924   3.337   6.262  0.4277 -0.5056 -0.1677
  722MOL0     C97389   7.604   3.523   6.501 -0.4199  0.6959  0.0930
  722MOL0     C97390   7.632   3.448   6.618  0.1070  0.4986 -0.5565
  722MOL0     C97391   7.546   3.460   6.720  0.2257 -1.0988 -0.2941
  722MOL0     C97392   7.428   3.532   6.721 -0.3688  0.7306  0.5119
  722MOL0     O97393   7.335   3.544   6.822 -0.0125 -0.1116  0.1741
  722MOL0     C97394   7.364   3.506   6.962 -0.1856 -0.0249  0.5857
  722MOL0     C97395   7.245   3.541   7.062  0.1280  1.0338  0.1638
  722MOL0     C97396   7.247   3.692   7.077  0.8767  0.1469  0.2017
  722MOL0     C97397   7.135   3.742   7.168 -0.4566 -0.5718  0.8668
  722MOL0     C97398   7.012   3.744   7.092  0.0359  0.6845  0.3568
  722MOL0     C97399   6.903   3.758   7.037 -1.0182  0.2789 -0.2571
  722MOL0     C97400   7.399   3.606   6.610 -0.2801 -0.5480 -0.9818
  722MOL0     C97401   7.493   3.610   6.504  0.3256 -0.7804 -0.1576
  722MOL0     C97402   7.449   3.691   6.387 -0.5285  0.0453 -0.2934
  722MOL0     H97403   7.944   3.673   6.298 -1.1989  0.5722 -0.0468
  722MOL0     H97404   8.153   3.635   6.160  0.7274 -0.2260 -1.6691
  722MOL0     H97405   8.292   3.542   5.960 -0.5350  1.5464  1.1077
  722MOL0     H97406   8.360   3.545   6.124 -4.1533  0.5125  1.8971
  722MOL0     H97407   8.538   3.481   5.977 -0.7857  0.3995  3.5249
  722MOL0     H97408   8.420   3.398   5.870  1.9523 -0.8013 -1.2182
  722MOL0     H97409   8.587   3.251   5.991  2.8104  0.5477  3.1531
  722MOL0     H97410   8.421   3.223   6.061 -2.0109  3.4959  1.3854
  722MOL0     H97411   8.656   3.370   6.164  0.0463 -0.9848  2.8826
  722MOL0     H97412   8.494   3.376   6.243 -0.1217 -0.1737  0.7743
  722MOL0     H97413   8.686   3.147   6.213 -1.6497 -1.1326 -0.7771
  722MOL0     H97414   8.640   3.229   6.363 -1.1579  0.2108  0.6777
  722MOL0     H97415   8.407   3.091   6.342 -0.3504 -0.1897 -1.2921
  722MOL0     H97416   8.475   3.038   6.184  0.8079 -1.0437 -0.3212
  722MOL0     H97417   8.601   3.022   6.459  1.7156 -1.5251 -0.5058
  722MOL0     H97418   8.668   2.939   6.316  0.1136  0.2923  1.1371
  722MOL0     H97419   8.420   2.876   6.480  0.1151  0.3319  0.0322
  722MOL0     H97420   8.421   2.834   6.307  0.7370 -2.6106 -0.0790
  722MOL0     H97421   8.542   2.638   6.220 -0.2644  1.9481  0.3764
  722MOL0     H97422   8.698   2.348   6.360  0.5613  1.2435  3.1935
  722MOL0     H97423   8.676   2.430   6.211 -0.7465  0.0806 -0.1288
  722MOL0     H97424   8.904   2.353   6.220  1.5395  1.0900 -1.1976
  722MOL0     H97425   8.916   2.531   6.227  2.4483 -0.2890  1.2161
  722MOL0     H97426   8.927   2.376   6.487  2.3223 -1.6624  0.5293
  722MOL0     H97427   8.957   2.546   6.469 -0.0960 -1.0885  0.7211
  722MOL0     H97428   9.139   2.337   6.327 -0.0187 -0.9869 -0.4963
  722MOL0     H97429   9.145   2.372   6.493  0.5106 -3.7057 -1.2623
  722MOL0     H97430   9.330   2.326   6.406 -2.2400  1.8816  1.0356
  722MOL0     H97431   9.587   2.323   6.404  1.0802 -0.4261 -0.5007
  722MOL0     H97432   9.936   2.246   6.409  0.3546  0.5403  1.1386
  722MOL0     H97433  10.188   2.208   6.415  0.7245 -1.0850  5.7945
  722MOL0     H97434  10.439   2.228   6.420  0.4972  0.2740 -0.6276
  722MOL0     H97435  10.396   2.301   6.270 -4.7870  0.5944  2.2309
  722MOL0     H97436  10.597   2.456   6.315  1.6637 -0.5487 -1.5826
  722MOL0     H97437  10.634   2.313   6.440 -0.8383  2.1657  1.1992
  722MOL0     H97438  10.615   2.162   6.253 -0.3216  0.1240  2.1550
  722MOL0     H97439  10.600   2.304   6.136 -0.1109 -0.2019  0.1940
  722MOL0     H97440  10.828   2.198   6.143  2.0002  1.0356  0.6697
  722MOL0     H97441  10.834   2.226   6.316  2.5071  0.7340 -0.3596
  722MOL0     H97442  10.824   2.489   6.265 -0.3771  3.2795 -2.9055
  722MOL0     H97443  10.816   2.440   6.099  3.1338  1.0794 -1.6424
  722MOL0     H97444  11.054   2.380   6.289 -0.4814  1.1605  1.1327
  722MOL0     H97445  11.037   2.322   6.128 -2.3831 -0.9359  1.8500
  722MOL0     H97446  11.124   2.581   6.245 -4.0496 -0.0088  1.1801
  722MOL0     H97447  11.029   2.604   6.095  0.0920  1.8583  0.2517
  722MOL0     H97448  11.259   2.416   6.105 -0.7623 -0.5796 -1.4555
  722MOL0     H97449  11.147   2.457   5.973  1.3396 -2.8568  0.1701
  722MOL0     H97450  10.218   2.636   6.482 -1.0758  1.6386 -3.0761
  722MOL0     H97451   9.970   2.649   6.481  0.5284  0.7530 -0.5921
  722MOL0     H97452   9.578   2.745   6.334  0.9409 -1.1387  1.5346
  722MOL0     H97453   9.326   2.740   6.330 -2.4923 -1.2253  2.1437
  722MOL0     H97454   8.048   3.208   6.141 -0.3608 -0.4356 -1.0424
  722MOL0     H97455   7.859   3.258   6.297 -2.1809  0.9252 -1.5243
  722MOL0     H97456   7.720   3.385   6.616  1.0170  1.7351 -1.7311
  722MOL0     H97457   7.570   3.399   6.807  1.4836  2.1251  1.7781
  722MOL0     H97458   7.457   3.558   6.986  1.0267  0.1372 -3.6275
  722MOL0     H97459   7.372   3.398   6.974  0.2517 -0.1483 -0.7040
  722MOL0     H97460   7.257   3.489   7.157  0.7469  2.3420  0.8289
  722MOL0     H97461   7.150   3.512   7.017 -0.9144  2.6657  1.2236
  722MOL0     H97462   7.238   3.745   6.982  2.7277  2.6079  1.2961
  722MOL0     H97463   7.340   3.706   7.132  0.2263  1.6340  1.0115
  722MOL0     H97464   7.131   3.678   7.257  1.6492 -3.2733 -0.8331
  722MOL0     H97465   7.147   3.846   7.200  1.0019  0.8908 -3.7010
  722MOL0     H97466   6.801   3.754   7.006 -1.3879 -0.6539  0.9969
  722MOL0     H97467   7.307   3.664   6.607  2.4146  4.1781 -3.4440
  722MOL0     H97468   7.401   3.624   6.315  3.3036 -2.2918 -0.9589
  722MOL0     H97469   7.378   3.770   6.414 -1.5662 -1.2209  0.8200
  722MOL0     H97470   7.531   3.745   6.339 -0.3079  0.4583  0.5257
  723MOL0     O97471   6.206   7.986   5.332  0.4939 -0.5279  0.8180
  723MOL0     C97472   6.198   8.114   5.346 -0.7144  1.1255 -0.0156
  723MOL0     O97473   6.302   8.198   5.355  0.1040 -0.6603  0.2562
  723MOL0     C97474   6.432   8.153   5.345 -0.3319  0.1399  0.1603
  723MOL0     C97475   6.523   8.212   5.427 -0.6193 -0.4025  0.2903
  723MOL0     C97476   6.652   8.163   5.434 -0.0966  0.6221  0.8047
  723MOL0     C97477   6.697   8.051   5.365 -0.3402 -0.1533 -0.0853
  723MOL0     O97478   6.826   8.018   5.394 -0.4164 -0.4963 -0.4869
  723MOL0     C97479   6.923   8.027   5.293  0.4555 -0.2640 -0.0015
  723MOL0     C97480   6.920   8.150   5.210 -0.5036 -0.3002 -0.0171
  723MOL0     C97481   7.039   8.151   5.116 -0.2395 -0.5666  0.8625
  723MOL0     C97482   7.020   8.221   4.978 -0.5777  0.6242  0.8089
  723MOL0     C97483   7.154   8.260   4.918  0.2395 -0.1785 -0.2926
  723MOL0     C97484   7.143   8.364   4.809 -0.7844 -0.1164  0.1557
  723MOL0     C97485   7.279   8.407   4.753 -0.2104  0.9983 -0.1380
  723MOL0     C97486   7.327   8.531   4.829  1.1387  0.3170  0.4559
  723MOL0     N97487   7.461   8.559   4.783  0.1977 -0.5084 -0.2464
  723MOL0     C97488   7.508   8.614   4.660 -0.3737 -0.0915 -0.3725
  723MOL0     C97489   7.639   8.639   4.687  0.3314 -0.4296  0.1915
  723MOL0     C97490   7.736   8.681   4.580 -0.4914  0.7868  0.7748
  723MOL0     C97491   7.850   8.584   4.533 -0.3644  0.1313 -0.7603
  723MOL0     C97492   7.974   8.589   4.616 -0.2197  0.4068 -0.1248
  723MOL0     C97493   8.103   8.534   4.539  0.5601 -0.3871  0.3833
  723MOL0     O97494   8.226   8.575   4.610  0.2596 -0.3546  0.3920
  723MOL0     C97495   8.352   8.523   4.568  0.5032  0.8937 -0.2741
  723MOL0     C97496   8.372   8.428   4.470 -0.0484  0.1623  0.6234
  723MOL0     C97497   8.501   8.386   4.449  0.0023 -0.6049 -0.5569
  723MOL0     C97498   8.609   8.428   4.530 -0.2685 -0.6886  0.0062
  723MOL0     C97499   8.752   8.374   4.509 -0.5687  0.2252  0.3657
  723MOL0     O97500   8.776   8.251   4.445  0.1462  0.2365  0.4658
  723MOL0     C97501   8.906   8.197   4.455  0.2381 -0.3120  0.1713
  723MOL0     C97502   9.015   8.254   4.390 -0.9585  0.0393  0.3448
  723MOL0     C97503   9.146   8.207   4.410  0.5686  0.3008  0.1473
  723MOL0     C97504   9.165   8.098   4.503  0.2934  0.4783 -0.7994
  723MOL0     O97505   9.294   8.049   4.502  0.5656 -0.7980 -0.2770
  723MOL0     C97506   9.319   7.954   4.614 -0.4410  0.0946  0.4892
  723MOL0     C97507   9.467   7.917   4.629  0.3942 -0.8483 -0.2584
  723MOL0     C97508   9.545   8.018   4.712  1.4433  0.1314 -0.3058
  723MOL0     C97509   9.692   7.988   4.703  0.8128  0.4260  0.3843
  723MOL0     C97510   9.767   8.094   4.788  0.0903  0.0847 -0.8259
  723MOL0     C97511   9.922   8.071   4.782  0.4766 -0.3634 -0.6018
  723MOL0     C97512   9.959   7.947   4.859  0.2669 -0.3048 -0.4116
  723MOL0     C97513  10.109   7.959   4.898 -0.9870  0.1822 -0.8619
  723MOL0    Cl97514  10.166   7.796   4.919 -0.1118  0.1781 -0.0787
  723MOL0     C97515   9.051   8.036   4.556 -0.4197 -0.3711 -0.2000
  723MOL0     C97516   8.924   8.088   4.541  0.5996  0.0005  0.3571
  723MOL0     O97517   8.842   8.445   4.549  0.0908 -1.0954 -0.4042
  723MOL0     C97518   8.583   8.514   4.632 -0.3354  0.0313 -0.9531
  723MOL0     C97519   8.456   8.562   4.653  0.6794 -0.1407 -0.1016
  723MOL0     N97520   7.675   8.587   4.810 -0.2676 -0.3721 -0.0635
  723MOL0     N97521   7.572   8.533   4.861 -0.1738  1.1033 -0.1053
  723MOL0     C97522   6.613   7.987   5.272 -0.0413 -0.2956  0.4328
  723MOL0     C97523   6.479   8.034   5.271 -0.0595 -0.4749  0.9339
  723MOL0     C97524   6.067   8.171   5.322  0.7200 -0.3019  0.4036
  723MOL0     C97525   6.056   8.267   5.219  0.0389 -0.4707  0.0147
  723MOL0     C97526   5.928   8.306   5.174  0.2696 -1.2114 -0.0100
  723MOL0     C97527   5.810   8.270   5.233 -0.1891  0.5200 -0.0845
  723MOL0     O97528   5.692   8.326   5.192 -0.4420  0.3275  0.1614
  723MOL0     C97529   5.563   8.274   5.243  0.2146  0.2756  0.4807
  723MOL0     C97530   5.447   8.318   5.160 -0.3383 -0.1507 -0.2737
  723MOL0     C97531   5.313   8.259   5.203 -0.1164 -0.4370  0.3740
  723MOL0     C97532   5.244   8.364   5.297  0.7323  0.2647  0.6973
  723MOL0     C97533   5.101   8.327   5.305 -1.5489 -0.1003  0.4460
  723MOL0     C97534   4.986   8.282   5.325 -0.4991 -1.0358 -0.8830
  723MOL0     C97535   5.822   8.175   5.337 -0.2489 -0.5292  0.3463
  723MOL0     C97536   5.946   8.126   5.384 -0.4308 -0.4094 -0.2442
  723MOL0     C97537   5.942   8.010   5.480  0.4482  0.0134  0.4756
  723MOL0     H97538   6.493   8.298   5.485 -0.1557 -3.2129  5.2871
  723MOL0     H97539   6.714   8.216   5.506 -0.4476  2.3837 -0.1467
  723MOL0     H97540   7.023   8.016   5.337  0.0143 -2.9908  0.4934
  723MOL0     H97541   6.913   7.939   5.229 -1.5863 -0.0062 -0.1129
  723MOL0     H97542   6.915   8.241   5.270  0.4554 -0.7171  0.7298
  723MOL0     H97543   6.830   8.143   5.149  0.6624  1.0350 -2.0002
  723MOL0     H97544   7.061   8.047   5.092 -0.2808 -1.2522  3.4628
  723MOL0     H97545   7.120   8.204   5.167  1.5184 -0.0985 -2.2085
  723MOL0     H97546   6.970   8.148   4.914 -0.2543  1.9832 -1.0733
  723MOL0     H97547   6.957   8.310   4.978  0.7100  1.5627 -0.6464
  723MOL0     H97548   7.222   8.303   4.992  1.9180  1.3843 -2.6028
  723MOL0     H97549   7.206   8.172   4.878 -2.0932 -1.4090 -0.8518
  723MOL0     H97550   7.092   8.323   4.721  0.3781 -0.3504 -0.4330
  723MOL0     H97551   7.083   8.453   4.830  0.3942  1.0629 -1.2362
  723MOL0     H97552   7.267   8.436   4.648 -0.8246 -0.7971 -0.5947
  723MOL0     H97553   7.345   8.321   4.761 -2.4750 -0.6518  3.8761
  723MOL0     H97554   7.253   8.606   4.798  1.6890  0.3724 -0.7752
  723MOL0     H97555   7.313   8.499   4.933 -2.0072  1.5199  0.5244
  723MOL0     H97556   7.463   8.637   4.564  0.5876  1.1235 -0.5659
  723MOL0     H97557   7.676   8.707   4.492  2.4637  0.7003 -1.4359
  723MOL0     H97558   7.780   8.776   4.612  4.7128 -1.7109  2.2587
  723MOL0     H97559   7.811   8.483   4.550  1.8048 -0.7446 -0.6889
  723MOL0     H97560   7.886   8.596   4.430  0.6063  0.7951 -0.3576
  723MOL0     H97561   7.967   8.541   4.714  2.4848  3.2025  1.6364
  723MOL0     H97562   7.997   8.693   4.640 -0.9663  0.3109  1.1020
  723MOL0     H97563   8.110   8.553   4.431 -1.0325 -3.0196 -0.2855
  723MOL0     H97564   8.095   8.426   4.552 -1.8845 -0.0864  2.0172
  723MOL0     H97565   8.285   8.380   4.427 -2.3071  1.8739  2.9720
  723MOL0     H97566   8.516   8.308   4.375 -1.1646 -1.3329 -0.0573
  723MOL0     H97567   9.009   8.333   4.317  0.4300  0.7374  0.9521
  723MOL0     H97568   9.221   8.255   4.349  4.5987 -1.8034  3.0104
  723MOL0     H97569   9.287   7.976   4.716  0.7111 -0.4425  0.9810
  723MOL0     H97570   9.260   7.869   4.580  1.0323 -0.2639 -1.3627
  723MOL0     H97571   9.467   7.819   4.678  0.1724 -0.6051  0.2273
  723MOL0     H97572   9.509   7.919   4.527  0.7338 -0.1191 -0.1133
  723MOL0     H97573   9.525   8.117   4.670  0.0447  0.3839  0.8918
  723MOL0     H97574   9.520   8.009   4.818  0.0751 -2.8308 -0.7907
  723MOL0     H97575   9.733   7.985   4.602 -2.1128 -3.0094 -0.9434
  723MOL0     H97576   9.698   7.887   4.743  1.0684  0.6761  0.9874
  723MOL0     H97577   9.741   8.092   4.894  2.7744  4.6351  0.1779
  723MOL0     H97578   9.742   8.191   4.744 -0.8966  0.3811  0.3276
  723MOL0     H97579   9.957   8.071   4.678  0.5686  0.6215 -0.5828
  723MOL0     H97580   9.966   8.157   4.834 -0.2529  1.5669 -2.9543
  723MOL0     H97581   9.962   7.862   4.790 -0.6496 -1.7565  1.2479
  723MOL0     H97582   9.899   7.921   4.947 -0.1614 -2.0164 -1.1635
  723MOL0     H97583  10.172   8.000   4.818  0.2840  2.0600  0.9810
  723MOL0     H97584  10.129   8.020   4.986  1.0942 -1.0193 -0.4463
  723MOL0     H97585   9.064   7.952   4.624  0.0558 -0.2791 -0.1727
  723MOL0     H97586   8.836   8.050   4.592  0.1273  0.7683  0.1197
  723MOL0     H97587   8.669   8.541   4.693  1.1221 -1.7814 -2.1011
  723MOL0     H97588   8.428   8.628   4.735  0.0041  1.4287 -1.5519
  723MOL0     H97589   6.640   7.904   5.207 -3.1061  0.4388 -2.0027
  723MOL0     H97590   6.405   7.976   5.217 -1.3720  0.0394  2.1326
  723MOL0     H97591   6.142   8.309   5.168  1.0073  0.5047  2.3140
  723MOL0     H97592   5.935   8.387   5.102 -0.1132  1.7732  3.0198
  723MOL0     H97593   5.544   8.304   5.346  0.4322  1.5738  0.1622
  723MOL0     H97594   5.563   8.164   5.243  1.8029  0.2449  0.3791
  723MOL0     H97595   5.481   8.302   5.057 -0.4512 -3.7583  0.1230
  723MOL0     H97596   5.451   8.426   5.178  1.6402  0.0678 -1.6722
  723MOL0     H97597   5.314   8.170   5.267  0.4649  0.8647  2.2503
  723MOL0     H97598   5.254   8.245   5.112 -0.2813  0.2295  0.3693
  723MOL0     H97599   5.284   8.358   5.398  1.7462  0.0191  0.3009
  723MOL0     H97600   5.248   8.467   5.258  2.2440 -0.2712 -0.6967
  723MOL0     H97601   4.891   8.252   5.364  0.3175 -0.1052  2.0606
  723MOL0     H97602   5.728   8.142   5.380 -1.1801  1.7958  0.2468
  723MOL0     H97603   5.859   8.016   5.552  0.5974  1.8586  0.5477
  723MOL0     H97604   5.911   7.915   5.435 -2.0797  0.5013  1.0201
  723MOL0     H97605   6.039   7.997   5.528  0.4150 -1.5212  0.1695
  724MOL0     O97606   6.666   9.492   7.119 -0.1026  0.0148 -0.1059
  724MOL0     C97607   6.783   9.524   7.120 -0.3605 -0.0438 -0.1425
  724MOL0     O97608   6.868   9.496   7.224  0.5527 -0.9908 -0.2340
  724MOL0     C97609   6.813   9.459   7.344  0.1627 -0.2066  0.3623
  724MOL0     C97610   6.866   9.523   7.455  0.0825  0.3534 -0.6179
  724MOL0     C97611   6.813   9.494   7.579  0.7229 -0.3926  0.0323
  724MOL0     C97612   6.720   9.390   7.605  0.0184 -0.2999  0.1177
  724MOL0     O97613   6.657   9.371   7.722  0.3867  1.0833 -0.2693
  724MOL0     C97614   6.654   9.461   7.833  0.1657 -1.5014 -0.1807
  724MOL0     C97615   6.563   9.591   7.835  0.1080  0.1954 -0.8509
  724MOL0     C97616   6.579   9.686   7.956  0.1534 -0.3159 -0.7600
  724MOL0     C97617   6.462   9.779   7.958  0.0730  0.5479 -0.5343
  724MOL0     C97618   6.494   9.913   8.025 -0.5889  0.1383 -0.4007
  724MOL0     C97619   6.387  10.019   8.002 -0.5210  0.1309 -0.3457
  724MOL0     C97620   6.410  10.158   8.062  0.0854  0.6725 -0.3381
  724MOL0     C97621   6.295  10.256   8.030  0.9178 -0.7037 -0.0433
  724MOL0     N97622   6.371  10.388   8.028  1.0903  0.1902 -0.6356
  724MOL0     C97623   6.452  10.429   8.137  0.7865  0.0741  0.5220
  724MOL0     C97624   6.514  10.539   8.085  0.3775 -0.3162 -0.2412
  724MOL0     C97625   6.607  10.634   8.157 -0.0464 -0.2341  0.2326
  724MOL0     C97626   6.746  10.581   8.198 -0.4477  0.9637 -1.0375
  724MOL0     C97627   6.841  10.684   8.253  0.2333 -0.2622 -0.1967
  724MOL0     C97628   6.968  10.615   8.299  0.5300 -0.1025  0.5923
  724MOL0     O97629   7.064  10.708   8.341  0.3290 -0.3540 -1.0178
  724MOL0     C97630   7.193  10.668   8.380  1.2777  0.4397  0.5108
  724MOL0     C97631   7.231  10.528   8.395 -0.0619 -0.4752 -0.2932
  724MOL0     C97632   7.365  10.502   8.421  0.1391  0.2588 -0.0012
  724MOL0     C97633   7.464  10.604   8.438  0.6396 -0.1079 -0.4807
  724MOL0     C97634   7.607  10.570   8.463 -0.4142 -1.0936 -0.1073
  724MOL0     O97635   7.630  10.440   8.464 -0.5301  0.4224  0.3761
  724MOL0     C97636   7.740  10.396   8.397 -0.1257  0.2006  0.6531
  724MOL0     C97637   7.766  10.264   8.425 -0.2772  0.3202 -0.0581
  724MOL0     C97638   7.880  10.195   8.377  0.3144 -0.8998 -0.1752
  724MOL0     C97639   7.972  10.263   8.296 -0.8261  0.1617  0.3259
  724MOL0     O97640   8.088  10.193   8.256 -0.9061 -0.0655 -0.5142
  724MOL0     C97641   8.143  10.104   8.356  0.6335  0.3362 -0.2513
  724MOL0     C97642   8.289  10.083   8.327 -0.7276 -0.4615 -0.3910
  724MOL0     C97643   8.355  10.000   8.442 -0.5351  0.2617  0.3757
  724MOL0     C97644   8.506   9.982   8.417 -0.5346 -0.0334 -0.5705
  724MOL0     C97645   8.580   9.873   8.502  0.6484  0.1375 -0.0703
  724MOL0     C97646   8.725   9.858   8.460  0.0142 -0.1951  0.2843
  724MOL0     C97647   8.799   9.744   8.533 -0.2167 -0.1314  0.1512
  724MOL0     C97648   8.728   9.604   8.539 -0.3292 -0.3206  0.1952
  724MOL0    Cl97649   8.845   9.492   8.629  0.0082  0.1323 -0.0582
  724MOL0     C97650   7.946  10.394   8.250  0.1234  0.1987 -0.1138
  724MOL0     C97651   7.829  10.458   8.310 -0.2340  0.1990 -0.4332
  724MOL0     O97652   7.696  10.657   8.475  0.1091  0.7085 -0.3232
  724MOL0     C97653   7.425  10.736   8.413  0.3775  0.1426 -0.8016
  724MOL0     C97654   7.292  10.761   8.378 -0.4283  0.0030 -0.2552
  724MOL0     N97655   6.473  10.564   7.953 -0.0960 -0.2155  0.2151
  724MOL0     N97656   6.383  10.472   7.922 -0.9330 -0.0435  0.3062
  724MOL0     C97657   6.686   9.314   7.493  0.1365  0.2972  0.0189
  724MOL0     C97658   6.721   9.350   7.365 -0.1988  0.2465 -0.0898
  724MOL0     C97659   6.821   9.606   6.998 -0.4067  0.4532  0.6979
  724MOL0     C97660   6.721   9.620   6.893  0.2503 -0.6648 -0.4979
  724MOL0     C97661   6.755   9.680   6.771 -0.0931 -0.0664 -0.4165
  724MOL0     C97662   6.890   9.714   6.747  0.0030 -0.9531  0.4016
  724MOL0     O97663   6.920   9.772   6.619  0.3970  0.0511  0.3731
  724MOL0     C97664   7.050   9.832   6.603 -0.0960 -0.8242  0.4220
  724MOL0     C97665   7.058   9.970   6.666 -0.7931 -0.0709  0.4643
  724MOL0     C97666   7.200  10.037   6.638  0.1547  0.0647  0.6135
  724MOL0     C97667   7.215  10.183   6.688  0.6490  0.1760 -0.1451
  724MOL0     C97668   7.327  10.247   6.619  1.0474  0.7367 -0.6847
  724MOL0     C97669   7.423  10.298   6.568  0.4838  0.6563  0.4186
  724MOL0     C97670   6.987   9.692   6.839  1.6005 -0.2473  0.0493
  724MOL0     C97671   6.956   9.642   6.966 -0.1467  0.2398 -0.5179
  724MOL0     C97672   7.067   9.605   7.061  0.7334 -0.1215  0.0291
  724MOL0     H97673   6.933   9.607   7.440  0.9362 -0.1192  0.3631
  724MOL0     H97674   6.851   9.554   7.661  2.3112 -1.0278 -0.2008
  724MOL0     H97675   6.615   9.414   7.924 -2.3526  3.5998  1.7814
  724MOL0     H97676   6.754   9.497   7.855 -0.0079 -0.2136 -1.3831
  724MOL0     H97677   6.458   9.560   7.831 -0.0515  0.5770  0.0266
  724MOL0     H97678   6.583   9.658   7.751  3.4759 -2.3812 -2.2967
  724MOL0     H97679   6.669   9.746   7.947 -0.4016  1.5860  3.6965
  724MOL0     H97680   6.592   9.618   8.042  1.5962  0.8303 -0.0349
  724MOL0     H97681   6.433   9.792   7.854 -0.2343 -3.7004 -1.1659
  724MOL0     H97682   6.376   9.730   8.005  1.0726 -2.0839 -1.2460
  724MOL0     H97683   6.513   9.906   8.133  1.0924  1.8269 -0.5371
  724MOL0     H97684   6.591   9.954   7.994 -0.2342  0.3693  0.9372
  724MOL0     H97685   6.376  10.035   7.894 -0.1006  0.2706 -0.3699
  724MOL0     H97686   6.291   9.988   8.043 -1.0785  1.1656 -0.8368
  724MOL0     H97687   6.509  10.193   8.031 -0.4412  3.5574  0.8724
  724MOL0     H97688   6.408  10.160   8.172 -4.1288  0.3674 -0.2774
  724MOL0     H97689   6.258  10.229   7.931  1.4925 -3.1919  0.3563
  724MOL0     H97690   6.215  10.256   8.105 -1.7713 -3.1718 -2.6554
  724MOL0     H97691   6.462  10.376   8.231 -2.3978  0.1174  0.9828
  724MOL0     H97692   6.603  10.734   8.113  0.1121  0.2326  1.2470
  724MOL0     H97693   6.561  10.651   8.255  0.1348  0.1752  0.2514
  724MOL0     H97694   6.747  10.499   8.271  1.2302  1.8115 -0.0611
  724MOL0     H97695   6.792  10.546   8.105 -0.0129  0.0069 -0.4769
  724MOL0     H97696   6.800  10.732   8.342 -1.3585  1.3743 -1.7165
  724MOL0     H97697   6.873  10.758   8.180  1.5758 -1.2690 -0.6643
  724MOL0     H97698   7.008  10.548   8.222 -1.0249  1.5490 -1.8228
  724MOL0     H97699   6.955  10.550   8.386  2.5705  2.0286  2.6062
  724MOL0     H97700   7.163  10.444   8.394  0.9258 -1.3145  0.6969
  724MOL0     H97701   7.392  10.399   8.442 -0.0821  0.0523 -0.6922
  724MOL0     H97702   7.703  10.216   8.499 -0.0454 -0.4710 -0.3688
  724MOL0     H97703   7.880  10.093   8.413 -0.8514 -0.2130  1.8993
  724MOL0     H97704   8.142  10.149   8.456 -0.6463  1.2084 -0.6314
  724MOL0     H97705   8.092  10.007   8.356  1.6499 -0.2141 -0.0416
  724MOL0     H97706   8.303  10.028   8.234  2.2854 -2.4561  1.0553
  724MOL0     H97707   8.349  10.175   8.324 -2.4551  0.6719 -2.3073
  724MOL0     H97708   8.336  10.052   8.536 -0.6910  0.9459 -0.0298
  724MOL0     H97709   8.295   9.908   8.445 -0.9472  0.4287 -1.5221
  724MOL0     H97710   8.556  10.078   8.437 -1.8814  1.4849 -3.7064
  724MOL0     H97711   8.522   9.963   8.310  2.0673 -1.4907 -0.0111
  724MOL0     H97712   8.528   9.777   8.489  0.9084 -0.1417  0.8544
  724MOL0     H97713   8.585   9.899   8.608  2.5122  0.9481 -0.3260
  724MOL0     H97714   8.717   9.828   8.355 -0.7086 -2.0187  0.8276
  724MOL0     H97715   8.778   9.954   8.457 -2.3089  1.1495 -0.4457
  724MOL0     H97716   8.826   9.781   8.633 -0.6500  1.1058 -0.1627
  724MOL0     H97717   8.892   9.718   8.481 -2.1843 -1.8981 -2.7599
  724MOL0     H97718   8.630   9.601   8.587 -0.3258 -0.1379  0.2122
  724MOL0     H97719   8.704   9.554   8.444 -1.0796 -0.4387  0.4367
  724MOL0     H97720   8.020  10.445   8.188 -0.4624 -1.3777 -2.2298
  724MOL0     H97721   7.810  10.560   8.278 -2.0311 -0.4005 -1.4198
  724MOL0     H97722   7.490  10.821   8.427 -0.3636  0.7536 -0.9939
  724MOL0     H97723   7.262  10.863   8.357  2.1547  0.7323 -0.6857
  724MOL0     H97724   6.620   9.234   7.523 -3.5788  3.7920  2.2516
  724MOL0     H97725   6.700   9.283   7.282  3.9302  1.0462 -2.0335
  724MOL0     H97726   6.620   9.587   6.914  0.5008 -1.5832 -0.6754
  724MOL0     H97727   6.679   9.687   6.694 -0.2751 -1.1182 -0.3421
  724MOL0     H97728   7.054   9.853   6.496 -1.2501 -1.9242  0.1284
  724MOL0     H97729   7.125   9.753   6.614  1.4526  0.5766  0.3006
  724MOL0     H97730   7.035   9.969   6.773 -2.4681 -2.2592  0.1527
  724MOL0     H97731   6.986  10.039   6.621 -0.4228  0.3598  0.5171
  724MOL0     H97732   7.215  10.033   6.530 -1.3578 -1.1314  0.4259
  724MOL0     H97733   7.288   9.980   6.672 -0.1169  0.1792  1.5325
  724MOL0     H97734   7.126  10.236   6.654 -0.6319 -1.8279 -0.0847
  724MOL0     H97735   7.230  10.183   6.796  0.3159  1.3735 -0.0885
  724MOL0     H97736   7.494  10.345   6.503  0.5795 -2.2063 -1.7420
  724MOL0     H97737   7.087   9.724   6.811  0.4229  3.1420 -0.8062
  724MOL0     H97738   7.054   9.649   7.160  0.1922  2.0553 -0.9497
  724MOL0     H97739   7.067   9.496   7.076 -1.6435 -0.3063 -0.8404
  724MOL0     H97740   7.169   9.634   7.032  0.5377  1.3789  0.7979
  725MOL0     O97741   2.654   8.046   7.982 -0.3327 -0.4920  0.0364
  725MOL0     C97742   2.598   8.153   7.950  0.3817 -0.1236 -0.0711
  725MOL0     O97743   2.470   8.168   7.899  0.6139 -0.1295  0.0592
  725MOL0     C97744   2.386   8.057   7.914  0.3680 -0.1761  1.2278
  725MOL0     C97745   2.292   8.064   8.011  0.0101  0.5089  0.0409
  725MOL0     C97746   2.200   7.952   8.029 -1.2187 -0.2355 -1.5334
  725MOL0     C97747   2.205   7.839   7.943  0.6318 -0.0258  0.3120
  725MOL0     O97748   2.118   7.731   7.943 -0.9570 -0.6383 -0.4832
  725MOL0     C97749   2.063   7.697   8.073 -0.0135  0.0871  0.2826
  725MOL0     C97750   1.983   7.574   8.052 -0.8252 -0.4015 -0.0167
  725MOL0     C97751   2.055   7.461   7.980 -0.8075 -0.0210 -0.2647
  725MOL0     C97752   2.205   7.425   8.019  0.4476  0.2359 -0.4564
  725MOL0     C97753   2.245   7.289   7.964 -0.8683 -0.3061  0.3828
  725MOL0     C97754   2.389   7.262   8.002  0.4643 -0.1898 -0.4164
  725MOL0     C97755   2.457   7.131   7.955  0.5401  0.1793 -0.8904
  725MOL0     C97756   2.440   7.121   7.803 -0.2653  0.8117 -0.2364
  725MOL0     N97757   2.508   7.000   7.753  0.3676  0.4439  0.3903
  725MOL0     C97758   2.639   6.972   7.751  0.0181 -0.7870 -0.1413
  725MOL0     C97759   2.662   6.848   7.697 -0.6556 -0.4521  0.6518
  725MOL0     C97760   2.796   6.776   7.676 -0.5122  0.3057  0.4847
  725MOL0     C97761   2.792   6.702   7.541  0.1643  0.0145 -0.2278
  725MOL0     C97762   2.889   6.589   7.543  0.2131 -0.1781  0.2058
  725MOL0     C97763   3.041   6.611   7.548 -1.2028  0.0172 -0.3884
  725MOL0     O97764   3.085   6.656   7.679  0.5729  0.1470 -0.2941
  725MOL0     C97765   3.219   6.656   7.702  0.6365 -0.2094 -1.4750
  725MOL0     C97766   3.317   6.651   7.605 -0.3278 -0.0627 -0.6673
  725MOL0     C97767   3.449   6.686   7.637 -0.0783 -0.3700  0.8782
  725MOL0     C97768   3.491   6.690   7.773 -0.5958  0.0254  0.2239
  725MOL0     C97769   3.630   6.704   7.804  0.0469  0.0037  1.0207
  725MOL0     O97770   3.681   6.657   7.923 -0.0303  0.3878 -0.7832
  725MOL0     C97771   3.807   6.648   7.954 -0.3277 -0.2482  0.2619
  725MOL0     C97772   3.846   6.659   8.088  0.2042 -0.2966 -0.2317
  725MOL0     C97773   3.984   6.660   8.120  0.0245  0.2989  0.1047
  725MOL0     C97774   4.084   6.627   8.030  0.1134 -0.2469  0.7318
  725MOL0     O97775   4.217   6.636   8.049  0.1323  0.7564 -0.8264
  725MOL0     C97776   4.258   6.719   8.149  0.7069 -1.5731  0.4009
  725MOL0     C97777   4.409   6.726   8.190 -0.0317 -0.3922  1.1629
  725MOL0     C97778   4.488   6.726   8.058 -0.3147 -0.2241  0.3406
  725MOL0     C97779   4.629   6.664   8.066  0.8755  0.8177  0.3416
  725MOL0     C97780   4.727   6.718   7.957  0.6980  0.3598 -0.6711
  725MOL0     C97781   4.849   6.631   7.932 -0.0474 -0.0559 -1.1194
  725MOL0     C97782   4.926   6.673   7.812 -0.2489 -0.0353  0.3967
  725MOL0     C97783   5.048   6.585   7.809 -0.0611 -0.8143 -0.2691
  725MOL0    Cl97784   5.001   6.430   7.731 -0.2067 -0.3599  0.2905
  725MOL0     C97785   4.050   6.605   7.900  0.5660  0.8390 -0.0043
  725MOL0     C97786   3.907   6.607   7.863 -0.2865  0.3329 -0.0753
  725MOL0     O97787   3.701   6.743   7.712  0.0479 -0.0143  0.0390
  725MOL0     C97788   3.397   6.683   7.880  0.8860 -0.3436  0.9344
  725MOL0     C97789   3.261   6.671   7.841 -0.2939 -0.1566 -0.9936
  725MOL0     N97790   2.537   6.804   7.663  0.0785  0.7702 -0.2409
  725MOL0     N97791   2.446   6.895   7.696 -0.4771  0.6700 -0.2446
  725MOL0     C97792   2.291   7.849   7.835  0.9054  0.7144 -0.9140
  725MOL0     C97793   2.370   7.953   7.814 -0.1244 -0.2561  1.0266
  725MOL0     C97794   2.666   8.277   7.977 -1.0073 -0.2933  0.3275
  725MOL0     C97795   2.609   8.371   8.070 -0.7067  0.9923  0.8827
  725MOL0     C97796   2.680   8.480   8.106  0.0542 -0.2699  0.5881
  725MOL0     C97797   2.806   8.512   8.058 -0.0912 -0.7645  0.1711
  725MOL0     O97798   2.874   8.621   8.103  0.9394  0.5159  0.5520
  725MOL0     C97799   2.933   8.600   8.222  0.4120  0.5229 -0.0352
  725MOL0     C97800   3.073   8.656   8.230 -0.0495  0.2288  0.2281
  725MOL0     C97801   3.160   8.574   8.132 -0.7844  0.4691  0.0336
  725MOL0     C97802   3.306   8.586   8.169 -0.7018  0.4330 -0.3437
  725MOL0     C97803   3.374   8.514   8.060 -0.1044 -0.2803  0.3101
  725MOL0     C97804   3.409   8.456   7.963  0.9803 -0.1387  0.9622
  725MOL0     C97805   2.866   8.414   7.982 -0.2695  0.4111  0.0414
  725MOL0     C97806   2.803   8.296   7.943  1.1118  0.0775 -0.1512
  725MOL0     C97807   2.880   8.199   7.858  1.0050  0.4577 -0.5237
  725MOL0     H97808   2.312   8.142   8.083 -2.3546  2.8465 -1.6501
  725MOL0     H97809   2.130   7.967   8.110  0.6814  1.7164 -0.1640
  725MOL0     H97810   2.137   7.664   8.147  0.0077 -2.3175 -0.7213
  725MOL0     H97811   2.003   7.775   8.120 -0.9812  0.6167 -1.6993
  725MOL0     H97812   1.886   7.604   8.012 -1.9750 -2.2859  1.1751
  725MOL0     H97813   1.961   7.537   8.153  3.0152  0.5609  1.3570
  725MOL0     H97814   2.054   7.482   7.873 -2.2560  1.1112 -0.0550
  725MOL0     H97815   1.991   7.373   7.991  3.0569 -2.7930  3.0786
  725MOL0     H97816   2.267   7.505   7.976 -1.3579  2.9968  1.6970
  725MOL0     H97817   2.206   7.423   8.129 -2.0964 -1.9269 -0.3877
  725MOL0     H97818   2.180   7.207   7.995 -2.6329 -0.0869 -2.3968
  725MOL0     H97819   2.230   7.294   7.856  0.3165 -0.4160  0.1937
  725MOL0     H97820   2.458   7.343   7.975  1.5609  0.6523  3.9571
  725MOL0     H97821   2.373   7.259   8.111 -3.3282  0.5042 -0.8232
  725MOL0     H97822   2.416   7.044   8.006  0.7483  0.5714 -0.0477
  725MOL0     H97823   2.562   7.144   7.982 -0.2130  3.7948  0.8617
  725MOL0     H97824   2.339   7.116   7.763  0.5970  1.3309 -2.6492
  725MOL0     H97825   2.483   7.211   7.758  1.2837 -0.4837 -1.4834
  725MOL0     H97826   2.722   7.028   7.793 -1.3208  1.6834 -0.5932
  725MOL0     H97827   2.891   6.830   7.674 -0.4702  0.2282 -1.8872
  725MOL0     H97828   2.814   6.694   7.746 -1.5731 -1.1984 -0.9391
  725MOL0     H97829   2.689   6.667   7.529  0.0031 -0.4448  2.0757
  725MOL0     H97830   2.812   6.771   7.459 -1.5292  0.9380  0.1050
  725MOL0     H97831   2.875   6.538   7.447  2.9602  0.2859 -0.5222
  725MOL0     H97832   2.866   6.515   7.620  0.7684 -1.4202 -0.7819
  725MOL0     H97833   3.067   6.676   7.464 -0.7276  0.0639 -0.2105
  725MOL0     H97834   3.089   6.513   7.542  0.5648  0.6925  1.4720
  725MOL0     H97835   3.286   6.636   7.502  0.2849 -0.3583 -0.8086
  725MOL0     H97836   3.521   6.684   7.556  3.0896 -0.5415  3.5031
  725MOL0     H97837   3.790   6.675   8.179  3.2352  0.1179  1.6810
  725MOL0     H97838   4.006   6.674   8.225 -1.3210 -1.8874  0.7396
  725MOL0     H97839   4.249   6.816   8.099  0.3764 -0.4887  2.4396
  725MOL0     H97840   4.198   6.714   8.241 -1.2309  2.3575 -0.4590
  725MOL0     H97841   4.425   6.808   8.261 -0.5506 -0.3198  1.1985
  725MOL0     H97842   4.430   6.639   8.253 -0.2323  0.6114  2.6917
  725MOL0     H97843   4.438   6.671   7.978 -0.8568 -0.9666  1.1661
  725MOL0     H97844   4.497   6.832   8.033 -1.3547 -0.0876  0.4823
  725MOL0     H97845   4.623   6.555   8.062  0.0620  0.8868 -1.3387
  725MOL0     H97846   4.663   6.683   8.168 -0.8204 -1.2624  1.3793
  725MOL0     H97847   4.759   6.818   7.987  0.9613 -0.4006  1.8599
  725MOL0     H97848   4.669   6.736   7.867 -2.1891 -2.5156  0.4218
  725MOL0     H97849   4.903   6.642   8.026 -1.1703  0.2955 -0.4913
  725MOL0     H97850   4.824   6.524   7.926  3.1667 -0.8798 -1.5580
  725MOL0     H97851   4.971   6.773   7.821 -1.6260  0.5791  0.7792
  725MOL0     H97852   4.856   6.675   7.728 -3.0382 -0.7390  2.5524
  725MOL0     H97853   5.118   6.631   7.739 -0.6186 -2.0189 -1.6760
  725MOL0     H97854   5.092   6.572   7.908 -2.5266  2.1543  1.3888
  725MOL0     H97855   4.124   6.591   7.822 -1.1939 -1.8600 -1.3456
  725MOL0     H97856   3.883   6.597   7.758  2.5305  1.2073 -0.9056
  725MOL0     H97857   3.423   6.677   7.985 -0.2228 -0.9218  1.1975
  725MOL0     H97858   3.189   6.656   7.920 -0.0739  0.7328 -0.6144
  725MOL0     H97859   2.284   7.770   7.760  0.9414  1.7007 -1.9957
  725MOL0     H97860   2.433   7.966   7.726  0.9477 -2.5454  1.3663
  725MOL0     H97861   2.510   8.355   8.111 -1.0833 -2.7818 -1.0501
  725MOL0     H97862   2.637   8.546   8.181 -3.1169 -1.6854  0.1706
  725MOL0     H97863   2.931   8.493   8.246 -1.9628  0.2084 -1.2686
  725MOL0     H97864   2.869   8.644   8.299  0.9315 -1.0882  1.3932
  725MOL0     H97865   3.121   8.647   8.328 -0.0487 -1.7407  0.0896
  725MOL0     H97866   3.075   8.764   8.216  0.2902  0.4766  2.0272
  725MOL0     H97867   3.145   8.610   8.029  1.3004 -0.6503 -0.7199
  725MOL0     H97868   3.130   8.469   8.126  0.3068 -0.1424  3.3006
  725MOL0     H97869   3.345   8.687   8.153  4.1593 -0.8732  1.6494
  725MOL0     H97870   3.338   8.550   8.267 -0.9152 -1.4123 -0.9187
  725MOL0     H97871   3.453   8.404   7.881 -0.6981 -1.4120  0.8160
  725MOL0     H97872   2.970   8.424   7.955 -0.2865 -1.3145 -0.7478
  725MOL0     H97873   2.807   8.138   7.806  1.0646 -0.5449  0.5165
  725MOL0     H97874   2.945   8.247   7.785 -1.4442  0.6523 -2.6923
  725MOL0     H97875   2.942   8.131   7.918 -1.1667  1.9466  3.9154
  726MOL0     O97876  10.605   3.903   2.446  0.2740  0.2655  0.7912
  726MOL0     C97877  10.642   3.968   2.534  1.0115 -0.0097  0.2124
  726MOL0     O97878  10.657   4.107   2.518 -1.1514  0.6715 -0.2480
  726MOL0     C97879  10.577   4.167   2.422 -0.6343 -0.8491 -0.5962
  726MOL0     C97880  10.437   4.151   2.431  0.1668 -0.5369 -0.0035
  726MOL0     C97881  10.351   4.221   2.344  1.1589  0.3549  0.7723
  726MOL0     C97882  10.403   4.312   2.254 -0.6962 -0.2011 -0.0934
  726MOL0     O97883  10.315   4.386   2.183 -0.2104 -0.7131 -0.8142
  726MOL0     C97884  10.359   4.507   2.118  0.2362  0.4880 -0.1071
  726MOL0     C97885  10.239   4.599   2.093 -0.5673 -0.2838  0.0969
  726MOL0     C97886  10.135   4.542   1.993 -0.0115 -0.6410  0.0873
  726MOL0     C97887  10.012   4.635   1.962  0.6303 -0.3807  0.0831
  726MOL0     C97888   9.914   4.562   1.875  0.1446 -0.1687  0.2366
  726MOL0     C97889   9.804   4.654   1.826 -0.2670 -0.5881 -1.4243
  726MOL0     C97890   9.704   4.591   1.732  0.5619  0.1184 -0.5066
  726MOL0     C97891   9.604   4.699   1.673 -0.9627 -0.8828  0.3845
  726MOL0     N97892   9.500   4.646   1.592  0.1589  0.0469 -0.1220
  726MOL0     C97893   9.399   4.715   1.534  0.7988 -0.5222 -0.8110
  726MOL0     C97894   9.317   4.631   1.479 -0.8180  0.3823  0.3813
  726MOL0     C97895   9.182   4.655   1.440  0.0787 -0.7782 -0.2117
  726MOL0     C97896   9.179   4.720   1.307  0.5015 -0.6174  0.5330
  726MOL0     C97897   9.050   4.795   1.282 -0.8848 -0.3764 -0.0457
  726MOL0     C97898   8.917   4.708   1.276 -0.1115 -0.2781  0.6322
  726MOL0     O97899   8.817   4.798   1.231  0.1984 -1.3467  0.4362
  726MOL0     C97900   8.704   4.745   1.171 -0.6022  0.1800  0.3879
  726MOL0     C97901   8.617   4.847   1.127  0.5624  0.3677  0.9046
  726MOL0     C97902   8.496   4.818   1.054  0.4621  0.2356  1.2307
  726MOL0     C97903   8.467   4.685   1.024  0.3966 -0.3547  0.8670
  726MOL0     C97904   8.346   4.650   0.957  0.2056 -0.5511  1.0221
  726MOL0     O97905   8.265   4.749   0.921  0.2029  0.4229  0.5097
  726MOL0     C97906   8.165   4.724   0.827  0.7136 -0.3026  0.3113
  726MOL0     C97907   8.033   4.767   0.857 -0.5606  0.4510 -0.9118
  726MOL0     C97908   7.925   4.743   0.772  0.3680 -0.1947 -0.8053
  726MOL0     C97909   7.947   4.676   0.656 -0.4731  0.4614  0.5537
  726MOL0     O97910   7.846   4.663   0.565 -0.3552 -0.9184  0.3250
  726MOL0     C97911   7.849   4.553   0.482  0.3303  0.1076  0.3625
  726MOL0     C97912   7.711   4.554   0.420  0.0888 -0.2114 -0.0963
  726MOL0     C97913   7.678   4.428   0.334 -0.4641 -0.6279  0.4913
  726MOL0     C97914   7.536   4.443   0.262 -0.3231  0.2270 -0.9108
  726MOL0     C97915   7.420   4.428   0.362 -0.5225  0.0159  0.4854
  726MOL0     C97916   7.284   4.481   0.310  0.0005  0.1570  1.1524
  726MOL0     C97917   7.270   4.635   0.297 -0.3764  0.5445 -0.7108
  726MOL0     C97918   7.132   4.677   0.235 -0.1700 -0.0920  0.3425
  726MOL0    Cl97919   6.994   4.584   0.308  0.2476 -0.1108  0.0828
  726MOL0     C97920   8.073   4.643   0.617 -0.5335 -0.0449  0.5935
  726MOL0     C97921   8.179   4.665   0.702 -0.1013 -0.0945  0.4894
  726MOL0     O97922   8.325   4.528   0.930 -0.6223 -0.4570  0.0781
  726MOL0     C97923   8.558   4.582   1.071  0.0910  0.1549 -0.3513
  726MOL0     C97924   8.676   4.615   1.149  0.6454 -1.1941  0.3973
  726MOL0     N97925   9.374   4.502   1.493  0.1920  0.1336 -0.2123
  726MOL0     N97926   9.478   4.513   1.562  0.3568  1.0032 -0.1126
  726MOL0     C97927  10.539   4.316   2.239  0.2566 -0.8736 -0.2033
  726MOL0     C97928  10.628   4.252   2.322  0.4525 -0.0747  0.4662
  726MOL0     C97929  10.691   3.892   2.653 -0.1137 -1.0351  0.2970
  726MOL0     C97930  10.698   3.751   2.652 -0.8602 -1.0469  0.0225
  726MOL0     C97931  10.728   3.682   2.766  0.7134 -0.0271  0.3801
  726MOL0     C97932  10.779   3.743   2.875  0.1899 -0.7408 -0.8598
  726MOL0     O97933  10.815   3.659   2.980 -0.4691 -0.8561  0.9916
  726MOL0     C97934  10.922   3.684   3.072 -0.1174 -0.1692 -0.1650
  726MOL0     C97935  10.888   3.770   3.190 -0.4357  0.3300 -1.0718
  726MOL0     C97936  11.001   3.825   3.269  0.6396  0.3933  0.4556
  726MOL0     C97937  10.987   3.808   3.420 -0.6342 -1.6955  0.1040
  726MOL0     C97938  10.873   3.876   3.483  0.8615  0.5708  0.2889
  726MOL0     C97939  10.770   3.924   3.528  0.9738 -0.4353  0.3387
  726MOL0     C97940  10.801   3.883   2.870 -0.6832  0.2643  0.2981
  726MOL0     C97941  10.749   3.961   2.761 -0.0510  0.3404 -1.2414
  726MOL0     C97942  10.758   4.109   2.773  0.3534 -0.3387 -0.8139
  726MOL0     H97943  10.394   4.081   2.503 -1.0997 -0.5142 -0.7121
  726MOL0     H97944  10.246   4.221   2.369  0.4305  1.4781 -1.9036
  726MOL0     H97945  10.432   4.555   2.183  2.0744 -1.7471 -0.3857
  726MOL0     H97946  10.407   4.481   2.023  3.5455 -0.1015  1.5674
  726MOL0     H97947  10.281   4.695   2.063  1.7401 -1.1821  0.2072
  726MOL0     H97948  10.193   4.634   2.186  1.5464  0.7066  0.8303
  726MOL0     H97949  10.104   4.446   2.035  1.4371 -1.4454 -0.6294
  726MOL0     H97950  10.184   4.528   1.896 -2.3661  0.3947 -1.3506
  726MOL0     H97951   9.962   4.663   2.055  1.2639  0.1928  0.2643
  726MOL0     H97952  10.052   4.722   1.909 -0.6929  1.1375  1.4655
  726MOL0     H97953   9.964   4.526   1.785 -1.0380 -0.4374 -0.3384
  726MOL0     H97954   9.866   4.480   1.928 -0.4995  0.9689  1.4871
  726MOL0     H97955   9.748   4.697   1.909  1.5478  1.5772 -1.2242
  726MOL0     H97956   9.858   4.736   1.778 -0.1786 -0.6554 -1.4409
  726MOL0     H97957   9.636   4.529   1.791  2.5713 -1.0793  0.6273
  726MOL0     H97958   9.759   4.529   1.661 -0.0461  0.0912 -0.9636
  726MOL0     H97959   9.563   4.767   1.748  1.0839 -0.6009  1.3316
  726MOL0     H97960   9.662   4.760   1.603 -2.5958 -0.3921 -0.5922
  726MOL0     H97961   9.391   4.822   1.550  2.0114 -0.7302  1.9028
  726MOL0     H97962   9.134   4.556   1.437  0.7630 -1.0994 -1.3809
  726MOL0     H97963   9.131   4.729   1.502 -0.4133 -0.1287 -1.3592
  726MOL0     H97964   9.255   4.798   1.297  2.8906 -2.5921  2.2017
  726MOL0     H97965   9.184   4.650   1.224 -0.9332 -0.1905  0.0501
  726MOL0     H97966   9.056   4.834   1.180 -0.0856  1.3840  0.6345
  726MOL0     H97967   9.043   4.887   1.341 -0.6117 -0.3868  0.0012
  726MOL0     H97968   8.904   4.667   1.376  1.9245  1.8316  1.8620
  726MOL0     H97969   8.929   4.626   1.203  1.0396  1.2470 -0.9687
  726MOL0     H97970   8.643   4.950   1.150 -0.2984  0.8671 -0.2837
  726MOL0     H97971   8.432   4.901   1.024 -0.2154 -0.2746  1.2535
  726MOL0     H97972   8.025   4.810   0.956  0.4446  1.5474 -1.2882
  726MOL0     H97973   7.821   4.769   0.794 -0.1926 -0.9922 -2.3528
  726MOL0     H97974   7.921   4.566   0.401  0.9349  2.1922  1.1816
  726MOL0     H97975   7.866   4.458   0.533  0.5621  0.3236  0.6890
  726MOL0     H97976   7.641   4.565   0.504 -0.5184 -2.9774 -0.1329
  726MOL0     H97977   7.700   4.648   0.365 -1.8039 -0.5373 -0.3393
  726MOL0     H97978   7.763   4.407   0.268 -1.2333 -3.2485  0.2360
  726MOL0     H97979   7.680   4.343   0.402  0.7204 -0.5195  0.6096
  726MOL0     H97980   7.538   4.365   0.185 -2.7213 -0.2068 -0.6006
  726MOL0     H97981   7.528   4.534   0.201 -0.1496  0.0497 -1.2008
  726MOL0     H97982   7.448   4.484   0.451  1.7232  3.0768 -1.9535
  726MOL0     H97983   7.413   4.321   0.387  1.8032 -0.9618 -2.4266
  726MOL0     H97984   7.278   4.445   0.207  0.6483  1.1748  0.7353
  726MOL0     H97985   7.210   4.442   0.379  1.6910 -6.0402  0.0931
  726MOL0     H97986   7.350   4.672   0.233 -0.1481 -0.7599 -1.2052
  726MOL0     H97987   7.282   4.678   0.397 -0.2663  0.6793 -0.7812
  726MOL0     H97988   7.109   4.784   0.242  1.4691  0.4016 -1.1907
  726MOL0     H97989   7.134   4.661   0.127 -1.8665  1.8335 -0.0344
  726MOL0     H97990   8.092   4.612   0.515  1.3589 -0.9563  1.1795
  726MOL0     H97991   8.281   4.636   0.676  0.6326  1.4807  1.4110
  726MOL0     H97992   8.546   4.476   1.054  1.1512  0.0872 -0.7476
  726MOL0     H97993   8.752   4.542   1.175  3.5027  1.2723 -0.4137
  726MOL0     H97994  10.581   4.397   2.180  1.4677 -2.4247 -1.5670
  726MOL0     H97995  10.736   4.268   2.325  0.4780 -0.2933  0.8311
  726MOL0     H97996  10.661   3.687   2.572 -0.0489 -1.4062 -0.0737
  726MOL0     H97997  10.715   3.574   2.772 -1.8786  0.0506 -1.8287
  726MOL0     H97998  11.017   3.719   3.031 -0.0447 -0.0824  0.0769
  726MOL0     H97999  10.957   3.592   3.119 -2.2305 -0.7200  0.4338
  726MOL0     H98000  10.820   3.723   3.261 -1.4301 -0.4709 -2.4979
  726MOL0     H98001  10.829   3.855   3.156  0.0452  1.8801  1.7015
  726MOL0     H98002  11.004   3.933   3.253 -1.9096  0.5432  0.6642
  726MOL0     H98003  11.096   3.784   3.231 -1.5703 -3.1229 -1.8513
  726MOL0     H98004  10.989   3.702   3.447 -1.1588 -0.9532  3.5022
  726MOL0     H98005  11.073   3.851   3.471  0.4527 -0.7249 -2.3788
  726MOL0     H98006  10.680   3.967   3.567  2.7962  1.5805  2.6117
  726MOL0     H98007  10.856   3.948   2.936  0.2983  1.8317 -1.9276
  726MOL0     H98008  10.662   4.158   2.753 -0.2770 -2.0222 -2.1281
  726MOL0     H98009  10.796   4.141   2.870 -0.6302 -1.5126 -0.0111
  726MOL0     H98010  10.825   4.144   2.694 -1.4286 -0.3206 -2.4121
  727MOL0     O98011   8.092   7.085   8.522 -0.0643  0.2428  0.4977
  727MOL0     C98012   8.037   7.108   8.412  0.4654 -0.1475 -0.5275
  727MOL0     O98013   8.050   7.040   8.289 -0.7375  0.3323  0.1193
  727MOL0     C98014   8.160   6.966   8.253 -0.2456 -0.0616  0.1679
  727MOL0     C98015   8.166   6.948   8.120 -0.6681  0.0290  1.0331
  727MOL0     C98016   8.278   6.881   8.063  0.5162 -0.5047  0.3482
  727MOL0     C98017   8.391   6.836   8.135 -0.2963 -0.4321  0.1002
  727MOL0     O98018   8.505   6.778   8.080 -0.4544  0.6790  0.1533
  727MOL0     C98019   8.587   6.697   8.163  0.5971  0.3202 -0.6704
  727MOL0     C98020   8.710   6.653   8.100  0.0898  0.2625 -0.1168
  727MOL0     C98021   8.806   6.575   8.193 -0.5190 -0.6560  1.3529
  727MOL0     C98022   8.948   6.584   8.134  0.7163  0.4901 -0.2106
  727MOL0     C98023   9.048   6.514   8.221 -1.0466  0.4360 -0.1679
  727MOL0     C98024   9.028   6.358   8.231 -0.1372  0.1153 -0.4784
  727MOL0     C98025   8.987   6.282   8.104  0.2610  0.5614  0.6965
  727MOL0     C98026   9.102   6.292   8.006  0.0165  0.4580 -0.3542
  727MOL0     N98027   9.096   6.197   7.900 -0.2563  0.1101 -0.3539
  727MOL0     C98028   9.024   6.206   7.788 -0.8409 -0.5298 -0.3826
  727MOL0     C98029   9.012   6.084   7.731 -0.2113  0.3531  0.5831
  727MOL0     C98030   8.958   6.033   7.606 -0.1238  0.9331 -0.0267
  727MOL0     C98031   8.969   6.124   7.488 -0.3287  1.0127 -0.3538
  727MOL0     C98032   8.904   6.072   7.355 -0.0822  1.0144 -0.2103
  727MOL0     C98033   8.961   6.160   7.239  0.1567  0.0302  0.3611
  727MOL0     O98034   8.913   6.298   7.234  0.0498 -0.0370 -0.0631
  727MOL0     C98035   8.794   6.323   7.166 -0.1065  0.4918 -0.0554
  727MOL0     C98036   8.778   6.446   7.089 -0.1734  0.6556  0.9598
  727MOL0     C98037   8.661   6.478   7.022 -0.7866  0.9072  0.4161
  727MOL0     C98038   8.551   6.383   7.016 -0.8686  0.0137 -0.4719
  727MOL0     C98039   8.428   6.399   6.930 -0.7844 -0.0426  1.1047
  727MOL0     O98040   8.446   6.487   6.827  0.4889 -0.0103 -0.8871
  727MOL0     C98041   8.341   6.513   6.751  0.9657  0.6987  0.7487
  727MOL0     C98042   8.288   6.429   6.647  0.5277  0.1631  0.1321
  727MOL0     C98043   8.170   6.458   6.571 -0.1302  0.1584  0.0840
  727MOL0     C98044   8.100   6.575   6.617  0.0638  1.0846 -0.7275
  727MOL0     O98045   7.984   6.618   6.559  0.2560  0.6827 -0.3907
  727MOL0     C98046   7.922   6.525   6.477 -0.3857 -0.5724  0.1909
  727MOL0     C98047   7.794   6.591   6.425  0.8391 -0.4821 -0.1877
  727MOL0     C98048   7.677   6.492   6.400 -0.3944  0.2783  0.5626
  727MOL0     C98049   7.555   6.556   6.324  0.3652  0.6840  0.7455
  727MOL0     C98050   7.446   6.453   6.298  0.1222 -0.1507 -0.8443
  727MOL0     C98051   7.355   6.500   6.189  0.0329 -0.4764  0.5472
  727MOL0     C98052   7.248   6.394   6.182 -0.0901 -0.1191 -0.9823
  727MOL0     C98053   7.123   6.431   6.095  0.2615 -0.0487  0.1959
  727MOL0    Cl98054   7.163   6.396   5.918 -0.0607 -0.5117  0.0402
  727MOL0     C98055   8.151   6.655   6.705 -0.1502  0.0637 -0.2161
  727MOL0     C98056   8.270   6.633   6.774 -0.0741  1.0542 -0.9226
  727MOL0     O98057   8.330   6.325   6.949 -0.6805 -0.1025 -0.1929
  727MOL0     C98058   8.566   6.267   7.100 -0.0469 -0.0688 -0.6392
  727MOL0     C98059   8.686   6.240   7.172  0.5385  0.0652 -1.4537
  727MOL0     N98060   9.093   6.011   7.811 -0.2843 -0.4322 -0.3651
  727MOL0     N98061   9.144   6.070   7.910 -0.0298 -0.4204 -0.0343
  727MOL0     C98062   8.374   6.852   8.277 -0.2982 -0.1325 -0.1622
  727MOL0     C98063   8.257   6.909   8.336 -0.6091  0.7330 -0.2625
  727MOL0     C98064   7.940   7.218   8.398  0.6074 -0.4645 -0.4826
  727MOL0     C98065   7.891   7.252   8.269 -0.1428  0.1696 -0.3823
  727MOL0     C98066   7.790   7.342   8.249  1.3610 -0.0730  0.0072
  727MOL0     C98067   7.727   7.406   8.357 -0.3102  0.1856 -0.8737
  727MOL0     O98068   7.621   7.489   8.321 -0.0419  0.1699 -0.0783
  727MOL0     C98069   7.522   7.521   8.420  0.5542  1.3096  0.2894
  727MOL0     C98070   7.436   7.400   8.452 -0.1229  0.0362  0.2396
  727MOL0     C98071   7.383   7.324   8.331 -0.4273  0.1751 -0.5245
  727MOL0     C98072   7.291   7.206   8.371 -0.0691  0.2535 -0.4120
  727MOL0     C98073   7.278   7.105   8.269 -0.7995 -0.4250  0.0003
  727MOL0     C98074   7.264   7.022   8.186 -0.7023 -0.1664  0.6638
  727MOL0     C98075   7.789   7.391   8.484  0.4210 -1.0686 -0.3486
  727MOL0     C98076   7.890   7.295   8.508  0.9201 -0.0130 -0.1798
  727MOL0     C98077   7.936   7.269   8.652  1.0495  0.0673 -0.3970
  727MOL0     H98078   8.094   6.980   8.045  1.4824 -0.5662 -1.4135
  727MOL0     H98079   8.296   6.871   7.957 -1.0892 -1.0362  0.0978
  727MOL0     H98080   8.613   6.742   8.260 -0.9962 -3.3500  1.7094
  727MOL0     H98081   8.519   6.616   8.193 -0.7496  1.7303  0.2503
  727MOL0     H98082   8.759   6.742   8.060  0.5297 -0.1546 -0.5144
  727MOL0     H98083   8.678   6.591   8.016  0.8409 -2.4118  1.4417
  727MOL0     H98084   8.774   6.470   8.188  1.5350 -1.3278  1.2526
  727MOL0     H98085   8.816   6.605   8.298  2.5520 -1.5868  1.4300
  727MOL0     H98086   8.950   6.560   8.027 -1.2792  3.4299 -1.0355
  727MOL0     H98087   8.965   6.692   8.138 -1.9080  1.0009 -0.9679
  727MOL0     H98088   9.148   6.532   8.179 -2.0434  2.8593 -1.6951
  727MOL0     H98089   9.052   6.556   8.322 -3.2622 -1.2712  0.7000
  727MOL0     H98090   9.113   6.309   8.278 -0.8742  0.4149  1.2327
  727MOL0     H98091   8.956   6.349   8.313 -1.1217  2.2453 -1.0358
  727MOL0     H98092   8.894   6.324   8.064  2.4074  1.4073 -4.1957
  727MOL0     H98093   8.966   6.178   8.129  0.0016  1.0619  2.7020
  727MOL0     H98094   9.109   6.391   7.960  1.3579  0.5048 -0.0999
  727MOL0     H98095   9.195   6.273   8.061 -0.8851  1.1255  1.4950
  727MOL0     H98096   8.975   6.290   7.739 -0.2799 -1.3775 -2.5216
  727MOL0     H98097   9.007   5.939   7.581 -0.9194  0.3726  0.4639
  727MOL0     H98098   8.854   6.008   7.628  1.1532 -3.8614  1.8789
  727MOL0     H98099   8.926   6.222   7.513 -0.0931  0.4579  2.4800
  727MOL0     H98100   9.075   6.133   7.463 -0.6163 -0.1978 -2.1936
  727MOL0     H98101   8.795   6.062   7.359 -0.1297  1.6784  0.8666
  727MOL0     H98102   8.939   5.969   7.350 -1.9564  0.1064  2.4372
  727MOL0     H98103   8.951   6.117   7.139  0.4998 -0.4169  0.5164
  727MOL0     H98104   9.070   6.165   7.247  0.3011 -1.2877 -0.5775
  727MOL0     H98105   8.859   6.518   7.094 -0.3806  0.9219  0.5237
  727MOL0     H98106   8.652   6.574   6.974 -0.8947  0.3287 -0.7620
  727MOL0     H98107   8.350   6.342   6.627  0.1362  0.4025 -2.3996
  727MOL0     H98108   8.138   6.403   6.483  1.9430  0.4886 -0.9474
  727MOL0     H98109   7.993   6.523   6.393  0.5029  3.6484  0.6124
  727MOL0     H98110   7.907   6.427   6.523  0.0095  0.1625  1.9742
  727MOL0     H98111   7.761   6.661   6.503  2.3211 -2.0730  1.9682
  727MOL0     H98112   7.813   6.652   6.336 -1.5477  1.0691  0.2834
  727MOL0     H98113   7.724   6.415   6.338  1.1598  0.0969  1.9005
  727MOL0     H98114   7.646   6.462   6.501  1.1912 -1.2853  0.6395
  727MOL0     H98115   7.591   6.596   6.229  1.7177 -1.6809  0.1892
  727MOL0     H98116   7.515   6.630   6.394  4.5459  1.2041  2.9055
  727MOL0     H98117   7.397   6.432   6.393 -0.1171  1.0962 -0.6816
  727MOL0     H98118   7.496   6.366   6.252  1.3147 -0.0729  0.2581
  727MOL0     H98119   7.317   6.597   6.220  2.2818  0.9627 -0.8804
  727MOL0     H98120   7.419   6.505   6.100  0.8222 -0.1550  1.1249
  727MOL0     H98121   7.215   6.380   6.285 -0.8557  3.4183 -0.6090
  727MOL0     H98122   7.300   6.305   6.145  0.6401  1.0167 -2.8709
  727MOL0     H98123   7.036   6.367   6.115 -0.6354  1.2931  0.7438
  727MOL0     H98124   7.089   6.535   6.096 -2.2411 -0.8116  1.1861
  727MOL0     H98125   8.090   6.740   6.735 -2.4149 -2.2581  2.2813
  727MOL0     H98126   8.297   6.708   6.848 -3.9249 -0.1030  1.9715
  727MOL0     H98127   8.489   6.190   7.108  3.6998 -4.1506 -0.0627
  727MOL0     H98128   8.677   6.156   7.240  1.6283  2.5628  2.1110
  727MOL0     H98129   8.453   6.829   8.348 -0.7448  2.0171  1.1510
  727MOL0     H98130   8.252   6.913   8.445  1.3550  0.4762 -0.1195
  727MOL0     H98131   7.927   7.200   8.181 -1.6581 -0.9053 -0.4081
  727MOL0     H98132   7.748   7.362   8.151 -3.5276  1.6922  2.1325
  727MOL0     H98133   7.458   7.590   8.365 -0.7936  0.4905  0.7754
  727MOL0     H98134   7.563   7.568   8.510 -0.7118  1.7135  0.6683
  727MOL0     H98135   7.349   7.433   8.509  0.2049  0.8445  0.2735
  727MOL0     H98136   7.484   7.326   8.516  1.0351 -1.1778 -1.8875
  727MOL0     H98137   7.466   7.275   8.279 -0.5772 -1.4952  0.7306
  727MOL0     H98138   7.338   7.401   8.267 -1.2779  0.3500  0.2616
  727MOL0     H98139   7.330   7.156   8.459  0.6350  1.9019  0.2524
  727MOL0     H98140   7.190   7.233   8.404  0.0013 -1.0457  0.9586
  727MOL0     H98141   7.233   6.949   8.114 -2.1191 -1.5896  2.5968
  727MOL0     H98142   7.744   7.455   8.560 -0.2245 -0.8189 -0.9345
  727MOL0     H98143   8.043   7.282   8.666  0.9955  1.5666 -1.2448
  727MOL0     H98144   7.894   7.337   8.727 -0.7563 -2.3416  0.9368
  727MOL0     H98145   7.914   7.167   8.686  4.8492 -1.7756 -2.7587
  728MOL0     O98146   6.655   7.158   6.670 -0.0067 -0.3745 -0.2510
  728MOL0     C98147   6.623   7.271   6.632  0.1823 -0.5678 -0.3899
  728MOL0     O98148   6.700   7.382   6.659 -0.1930  0.1042 -0.3514
  728MOL0     C98149   6.837   7.362   6.672  0.7678  0.0641  0.7840
  728MOL0     C98150   6.913   7.392   6.784 -0.0164  0.1867 -0.3314
  728MOL0     C98151   7.052   7.366   6.791  0.2301 -0.7408 -0.0725
  728MOL0     C98152   7.120   7.320   6.670  0.0966  1.2940 -0.3418
  728MOL0     O98153   7.256   7.315   6.653  0.3664  0.9736 -0.4863
  728MOL0     C98154   7.350   7.355   6.759 -0.8865  0.1724 -0.6158
  728MOL0     C98155   7.488   7.302   6.726 -0.0543 -0.2414 -0.4716
  728MOL0     C98156   7.477   7.153   6.696 -0.3999  0.4492  0.2104
  728MOL0     C98157   7.613   7.078   6.700 -0.2181 -0.3306  0.3394
  728MOL0     C98158   7.610   6.925   6.677  0.1914  0.4326  0.2834
  728MOL0     C98159   7.540   6.844   6.787 -0.3573  0.2897 -0.6522
  728MOL0     C98160   7.508   6.701   6.724 -0.0128 -0.6581  0.7255
  728MOL0     C98161   7.393   6.698   6.629  0.1745 -0.8131 -0.0072
  728MOL0     N98162   7.268   6.717   6.701  0.0572  0.0377  0.2715
  728MOL0     C98163   7.206   6.837   6.703  0.5962  0.0863 -0.0519
  728MOL0     C98164   7.100   6.821   6.790 -0.3955 -0.0203  0.7170
  728MOL0     C98165   7.002   6.924   6.849  0.4302 -0.5998  0.4039
  728MOL0     C98166   7.014   6.947   7.000  0.4213 -1.2487  0.1021
  728MOL0     C98167   7.146   7.018   7.015 -0.4383 -0.3296 -0.8658
  728MOL0     C98168   7.193   7.007   7.157 -0.2196 -1.1835 -0.7821
  728MOL0     O98169   7.275   7.121   7.185 -0.2169  0.2411  0.2575
  728MOL0     C98170   7.414   7.105   7.171 -0.8386  0.3298 -0.3889
  728MOL0     C98171   7.493   7.213   7.186 -0.4823 -0.4569  0.5515
  728MOL0     C98172   7.629   7.212   7.159  1.2934 -0.3877  0.1547
  728MOL0     C98173   7.695   7.085   7.138  1.0427 -0.5103 -0.3492
  728MOL0     C98174   7.840   7.074   7.130  0.3768  1.7612 -0.3461
  728MOL0     O98175   7.893   6.950   7.103  0.8142 -0.4597 -0.2374
  728MOL0     C98176   8.027   6.949   7.127 -0.5965  0.1708 -0.9489
  728MOL0     C98177   8.101   6.916   7.017 -0.0448 -0.6510  0.1076
  728MOL0     C98178   8.239   6.914   7.027 -0.4178 -0.6772 -1.1866
  728MOL0     C98179   8.312   6.940   7.145 -0.1644  0.3623 -0.1326
  728MOL0     O98180   8.448   6.938   7.164  0.3486  0.2270  0.3258
  728MOL0     C98181   8.525   6.918   7.040  0.3227 -0.2179 -0.1429
  728MOL0     C98182   8.670   6.894   7.086  0.2754 -0.2961 -0.5325
  728MOL0     C98183   8.768   6.876   6.973  0.6064 -0.6428  0.4664
  728MOL0     C98184   8.912   6.873   7.028 -0.1946  0.0888 -0.0576
  728MOL0     C98185   9.013   6.809   6.935 -0.3696 -0.3498 -0.4366
  728MOL0     C98186   9.034   6.881   6.797 -0.0543 -0.1092  0.1110
  728MOL0     C98187   9.089   7.020   6.811 -0.2610 -1.0513 -0.4301
  728MOL0     C98188   9.142   7.078   6.676  1.2765 -1.0737 -0.0314
  728MOL0    Cl98189   9.217   7.244   6.710 -0.5264  0.1709  0.3574
  728MOL0     C98190   8.232   6.971   7.261  0.6428  0.5290  0.6936
  728MOL0     C98191   8.083   6.978   7.252 -1.3607  0.7287  0.0042
  728MOL0     O98192   7.902   7.175   7.159  0.4977 -0.0324 -0.1325
  728MOL0     C98193   7.619   6.970   7.147 -0.3969 -0.8417  0.7016
  728MOL0     C98194   7.478   6.976   7.154 -0.5502 -0.8141 -0.3009
  728MOL0     N98195   7.088   6.688   6.831 -0.7189  0.2852 -0.1200
  728MOL0     N98196   7.190   6.625   6.769 -0.0633  0.3815  0.2562
  728MOL0     C98197   7.033   7.304   6.553 -0.1899  0.5334 -0.0197
  728MOL0     C98198   6.899   7.326   6.552 -0.7600  0.9308 -0.0137
  728MOL0     C98199   6.497   7.298   6.556 -0.6717 -0.6292 -0.9227
  728MOL0     C98200   6.505   7.411   6.467 -0.1313  0.8337 -1.1801
  728MOL0     C98201   6.386   7.459   6.408 -0.3168 -1.3935 -0.5875
  728MOL0     C98202   6.266   7.392   6.422 -0.1281  0.3591  0.1012
  728MOL0     O98203   6.154   7.446   6.363 -0.2629 -0.0240  0.8928
  728MOL0     C98204   6.033   7.430   6.439  0.1357  0.2876 -0.0452
  728MOL0     C98205   5.917   7.508   6.378  0.2934  0.3973  0.8195
  728MOL0     C98206   5.876   7.455   6.244 -0.7332 -0.5630  0.2797
  728MOL0     C98207   5.727   7.471   6.212  0.2742  1.1975 -0.9567
  728MOL0     C98208   5.678   7.612   6.222 -0.3707  0.0006  0.5623
  728MOL0     C98209   5.633   7.726   6.231 -0.1457 -0.5340 -1.0956
  728MOL0     C98210   6.264   7.286   6.511 -0.5742 -0.4072  0.2239
  728MOL0     C98211   6.376   7.238   6.577  0.1784  0.0256 -0.1177
  728MOL0     C98212   6.363   7.111   6.666  0.0942 -0.1263  0.2703
  728MOL0     H98213   6.872   7.441   6.872 -0.9824 -1.3420  0.1222
  728MOL0     H98214   7.109   7.383   6.882 -0.9891  0.5080  0.5003
  728MOL0     H98215   7.353   7.464   6.770 -2.3423  0.1378  0.5757
  728MOL0     H98216   7.337   7.314   6.860 -0.0049  2.4976  0.5092
  728MOL0     H98217   7.551   7.322   6.813 -1.5075  2.2483  0.1178
  728MOL0     H98218   7.520   7.351   6.634 -1.2263  0.5049 -0.4986
  728MOL0     H98219   7.439   7.150   6.594 -2.1392  0.7000  0.8174
  728MOL0     H98220   7.402   7.098   6.755  0.0733  1.2317  1.5808
  728MOL0     H98221   7.689   7.115   6.631 -1.5374 -0.2469 -1.1186
  728MOL0     H98222   7.648   7.099   6.802  1.2949  1.5644 -0.5035
  728MOL0     H98223   7.558   6.904   6.584 -0.6388  0.2497  0.7729
  728MOL0     H98224   7.715   6.893   6.668  0.2489  0.7242 -0.0819
  728MOL0     H98225   7.603   6.833   6.876  1.1086 -1.2140 -1.8132
  728MOL0     H98226   7.448   6.895   6.818  0.4905  1.5938 -0.1879
  728MOL0     H98227   7.487   6.633   6.807 -2.9278  2.9267  3.2518
  728MOL0     H98228   7.599   6.665   6.676  0.3768 -1.9065  2.3096
  728MOL0     H98229   7.399   6.767   6.543 -4.0560 -2.1452 -1.6235
  728MOL0     H98230   7.389   6.598   6.585 -0.6668 -1.8682  2.3188
  728MOL0     H98231   7.250   6.924   6.657  1.7691 -0.0796  0.7218
  728MOL0     H98232   7.018   7.014   6.787 -1.5099 -0.7360 -0.3594
  728MOL0     H98233   6.902   6.890   6.823  0.5919 -0.1988 -0.8195
  728MOL0     H98234   6.927   7.011   7.019  0.5416 -0.9444 -0.3455
  728MOL0     H98235   7.011   6.852   7.054  0.1743 -1.7258 -0.7221
  728MOL0     H98236   7.134   7.120   6.977 -1.9505  0.0951  0.6069
  728MOL0     H98237   7.220   6.974   6.949  1.5285  1.6524 -0.1176
  728MOL0     H98238   7.236   6.912   7.189  0.7203 -0.4752  0.1277
  728MOL0     H98239   7.102   7.025   7.214 -0.6218 -3.3739 -0.6403
  728MOL0     H98240   7.441   7.306   7.209 -0.1547 -0.5418  1.7029
  728MOL0     H98241   7.688   7.303   7.156 -0.0633  0.5112 -1.1302
  728MOL0     H98242   8.052   6.892   6.923 -1.8934 -2.4074  1.4427
  728MOL0     H98243   8.304   6.898   6.942 -0.1580 -0.0933 -1.0975
  728MOL0     H98244   8.500   6.829   6.981  0.4543  0.9631 -2.0494
  728MOL0     H98245   8.510   7.000   6.970  1.2752 -0.6752 -0.9143
  728MOL0     H98246   8.700   6.981   7.146 -2.9878 -0.1638  1.1492
  728MOL0     H98247   8.669   6.805   7.149 -0.7439 -1.9467 -2.7598
  728MOL0     H98248   8.750   6.778   6.928  0.1785  0.7259 -2.6084
  728MOL0     H98249   8.744   6.958   6.905  0.0472  2.0119  3.6168
  728MOL0     H98250   8.910   6.823   7.126  0.7854  0.7616  0.3321
  728MOL0     H98251   8.947   6.976   7.046 -0.0040  0.1492 -0.7555
  728MOL0     H98252   8.970   6.716   6.895 -1.5816  1.3989 -3.5243
  728MOL0     H98253   9.103   6.799   6.996 -0.8449 -1.2283  0.1476
  728MOL0     H98254   9.102   6.820   6.736 -0.2177  0.2262 -0.4190
  728MOL0     H98255   8.942   6.882   6.738 -0.4757  0.0181  0.7628
  728MOL0     H98256   9.162   7.031   6.891 -1.5215  0.8555  0.5487
  728MOL0     H98257   9.011   7.083   6.856  1.4948 -0.2452  1.6761
  728MOL0     H98258   9.216   7.019   6.621  1.8022  0.7995 -1.4685
  728MOL0     H98259   9.058   7.093   6.607 -1.4402  0.8339  3.4158
  728MOL0     H98260   8.278   6.998   7.355 -2.2011  0.8608  2.0886
  728MOL0     H98261   8.028   6.980   7.346  2.5418 -5.5013  3.1520
  728MOL0     H98262   7.657   6.868   7.145  0.7354 -0.4315  0.6200
  728MOL0     H98263   7.427   6.882   7.131  2.7197 -2.8810  0.1878
  728MOL0     H98264   7.094   7.283   6.466 -1.1444  2.4299 -1.2151
  728MOL0     H98265   6.848   7.303   6.459  0.8152  1.5637 -1.0637
  728MOL0     H98266   6.597   7.466   6.452 -0.7670  2.1654 -0.3543
  728MOL0     H98267   6.391   7.546   6.344 -2.4141  2.1960  3.6560
  728MOL0     H98268   6.040   7.452   6.546  0.5237 -2.8677  0.6718
  728MOL0     H98269   6.008   7.324   6.439 -1.1105  0.5467 -1.6696
  728MOL0     H98270   5.935   7.616   6.371  0.3928  0.7156  4.1829
  728MOL0     H98271   5.834   7.507   6.449  0.3777 -1.9953  0.9516
  728MOL0     H98272   5.897   7.348   6.249 -2.0752 -0.7954  2.8668
  728MOL0     H98273   5.927   7.503   6.160 -3.6842 -0.4363 -1.5703
  728MOL0     H98274   5.690   7.424   6.120  1.7444 -0.3852 -0.7947
  728MOL0     H98275   5.673   7.412   6.287 -0.5546 -0.3087 -2.6607
  728MOL0     H98276   5.603   7.828   6.219  2.7119  0.3034 -2.0213
  728MOL0     H98277   6.176   7.225   6.530 -1.8789  1.6992  1.3498
  728MOL0     H98278   6.261   7.098   6.702 -0.1723  3.4639  1.1337
  728MOL0     H98279   6.395   7.025   6.606 -1.6473  0.9214 -2.3494
  728MOL0     H98280   6.424   7.126   6.756  0.2048  1.8402 -0.0979
  729MOL0     O98281   4.208   8.648   5.222 -0.3036 -0.0542  0.8171
  729MOL0     C98282   4.206   8.681   5.102  0.5494 -0.8261  0.3152
  729MOL0     O98283   4.241   8.597   4.993  0.3395 -0.7939 -0.3697
  729MOL0     C98284   4.328   8.501   5.019  0.3304 -0.1099 -0.3736
  729MOL0     C98285   4.457   8.523   5.073 -0.0147 -0.0788  0.1486
  729MOL0     C98286   4.544   8.415   5.075  0.6343  0.7002  0.0592
  729MOL0     C98287   4.524   8.292   5.022  0.1137  0.7344 -0.0248
  729MOL0     O98288   4.604   8.184   5.037  0.6349  0.9293 -0.5079
  729MOL0     C98289   4.738   8.215   5.078 -0.1749  0.3017  0.9313
  729MOL0     C98290   4.852   8.101   5.076  0.2109 -0.1842  0.1181
  729MOL0     C98291   4.831   7.999   5.183 -0.1734  0.3086 -0.5223
  729MOL0     C98292   4.936   7.876   5.171  0.2456 -0.6272  0.6092
  729MOL0     C98293   4.978   7.834   5.307 -1.5243  0.1087 -0.4713
  729MOL0     C98294   5.096   7.923   5.356 -0.2028  0.1816  0.2145
  729MOL0     C98295   5.108   7.919   5.509 -0.0975  0.6832  0.8887
  729MOL0     C98296   5.232   8.004   5.550  0.1033  0.5903  0.8173
  729MOL0     N98297   5.360   7.965   5.499 -0.3431  0.4068 -0.2755
  729MOL0     C98298   5.403   7.839   5.465  0.0293 -0.1647 -1.0256
  729MOL0     C98299   5.538   7.841   5.445 -0.3887 -0.2685  0.4191
  729MOL0     C98300   5.611   7.713   5.403  1.3069 -0.8012 -0.6423
  729MOL0     C98301   5.532   7.627   5.295  0.1269 -0.0306 -0.3076
  729MOL0     C98302   5.612   7.499   5.242 -0.1296  0.2311  0.1402
  729MOL0     C98303   5.740   7.516   5.172 -0.2823 -0.2041  0.0347
  729MOL0     O98304   5.716   7.598   5.053  0.4498 -0.4656  0.0704
  729MOL0     C98305   5.811   7.696   5.019  0.0665 -0.0815 -0.6796
  729MOL0     C98306   5.790   7.832   5.022 -0.4205  0.3566  0.5141
  729MOL0     C98307   5.903   7.916   4.996  0.7667 -0.2007  0.1956
  729MOL0     C98308   6.022   7.870   4.952  0.1823 -0.7289  1.2286
  729MOL0     C98309   6.119   7.976   4.923 -0.5608 -0.0704  0.5405
  729MOL0     O98310   6.097   8.113   4.945 -0.2972  0.4081  0.7714
  729MOL0     C98311   6.195   8.206   4.906  0.1010  0.6542  0.2286
  729MOL0     C98312   6.307   8.207   4.985 -1.1313  0.1761  0.4940
  729MOL0     C98313   6.407   8.302   4.963 -0.6258 -0.2412 -1.0752
  729MOL0     C98314   6.397   8.394   4.861 -0.4934 -0.8876 -0.6898
  729MOL0     O98315   6.499   8.488   4.836 -0.3495 -0.0449 -0.3093
  729MOL0     C98316   6.635   8.440   4.831 -0.2449 -0.6326  0.2286
  729MOL0     C98317   6.736   8.533   4.895  0.6035  0.1528 -0.6828
  729MOL0     C98318   6.692   8.573   5.042  0.2276  0.1391  0.0165
  729MOL0     C98319   6.813   8.649   5.101  0.3106  0.4347  0.8025
  729MOL0     C98320   6.798   8.678   5.250 -0.0896 -0.0650 -0.3942
  729MOL0     C98321   6.847   8.549   5.324  0.1012 -0.4251  0.0607
  729MOL0     C98322   6.948   8.583   5.437  0.5603 -0.4642 -0.7761
  729MOL0     C98323   7.070   8.487   5.449  0.1319 -0.3983  0.5332
  729MOL0    Cl98324   7.038   8.377   5.592 -0.0535 -0.3345  0.2768
  729MOL0     C98325   6.283   8.401   4.789  0.0814 -0.8809  0.0670
  729MOL0     C98326   6.180   8.303   4.807  0.0066  0.1832  0.2012
  729MOL0     O98327   6.210   7.934   4.846 -0.0561  0.2964  0.1458
  729MOL0     C98328   6.042   7.732   4.930 -0.0568 -0.0522  0.0999
  729MOL0     C98329   5.935   7.646   4.972 -0.5678  0.0391 -0.4239
  729MOL0     N98330   5.572   7.977   5.470  0.4182 -0.1250  0.5519
  729MOL0     N98331   5.471   8.043   5.489 -0.0567  0.1289  0.1165
  729MOL0     C98332   4.402   8.284   4.953 -0.2311 -0.3884 -0.3763
  729MOL0     C98333   4.306   8.381   4.950 -0.1573 -0.3631 -0.5437
  729MOL0     C98334   4.171   8.822   5.073 -1.0654 -0.1710  0.7832
  729MOL0     C98335   4.281   8.908   5.037  1.0818  0.2840  0.1030
  729MOL0     C98336   4.249   9.043   4.995  0.0212  0.6766 -0.1919
  729MOL0     C98337   4.120   9.089   5.000 -0.5772 -0.9913  0.6296
  729MOL0     O98338   4.100   9.213   4.954 -0.3807 -0.0239  0.5003
  729MOL0     C98339   3.970   9.279   4.970  0.4737 -0.7247 -0.4798
  729MOL0     C98340   3.991   9.422   4.989  0.0640 -0.2482 -0.1468
  729MOL0     C98341   4.098   9.461   5.085 -0.0813 -0.0818  0.2092
  729MOL0     C98342   4.112   9.611   5.078  0.2311 -1.1096  0.0862
  729MOL0     C98343   4.224   9.670   5.152 -0.1225  0.2077  0.0628
  729MOL0     C98344   4.318   9.724   5.216 -0.3039  0.2358 -0.4464
  729MOL0     C98345   4.020   9.003   5.042  0.6360 -0.3530  0.9400
  729MOL0     C98346   4.043   8.867   5.063 -1.0804  0.6072 -0.6952
  729MOL0     C98347   3.920   8.789   5.095  0.0421  0.0196  0.7894
  729MOL0     H98348   4.492   8.620   5.106 -0.9271  0.0108  0.8904
  729MOL0     H98349   4.637   8.432   5.129  0.0545 -0.3920  1.4674
  729MOL0     H98350   4.779   8.291   5.011  2.4757 -1.8115 -0.0296
  729MOL0     H98351   4.748   8.260   5.177  0.4022  0.7974  0.6598
  729MOL0     H98352   4.949   8.151   5.088  1.2492 -2.3037  1.1725
  729MOL0     H98353   4.852   8.056   4.977  0.1030 -1.0806  0.5115
  729MOL0     H98354   4.734   7.949   5.187 -0.2988  0.5761 -0.1596
  729MOL0     H98355   4.844   8.052   5.278 -0.6024  1.5273 -1.1340
  729MOL0     H98356   4.894   7.794   5.111  0.6248 -0.8305  0.6174
  729MOL0     H98357   5.022   7.906   5.111 -0.7533  1.4170  0.1100
  729MOL0     H98358   4.894   7.827   5.376  1.4664  0.1598  3.4997
  729MOL0     H98359   5.024   7.734   5.304 -0.8466  0.4227 -0.8866
  729MOL0     H98360   5.183   7.890   5.298 -0.3133 -2.0079  1.1724
  729MOL0     H98361   5.077   8.026   5.326 -0.4927  0.2002  0.4593
  729MOL0     H98362   5.120   7.812   5.529  0.0650 -0.3255 -3.5457
  729MOL0     H98363   5.019   7.959   5.559 -1.0846 -0.2133 -0.0898
  729MOL0     H98364   5.221   8.105   5.510  0.0991  0.2404 -0.0822
  729MOL0     H98365   5.231   8.013   5.659 -1.1857 -0.1004  0.8871
  729MOL0     H98366   5.343   7.750   5.453 -1.2974  0.1007  2.3790
  729MOL0     H98367   5.707   7.747   5.362  1.5125 -0.8414 -0.1930
  729MOL0     H98368   5.619   7.663   5.500  0.4315  3.4642  1.8821
  729MOL0     H98369   5.442   7.578   5.334  0.6736  0.1982  1.3357
  729MOL0     H98370   5.508   7.694   5.212  2.7054  1.2834 -0.0790
  729MOL0     H98371   5.536   7.440   5.190 -1.5223  1.5481  0.5909
  729MOL0     H98372   5.643   7.444   5.331  0.7299  1.0083  0.3394
  729MOL0     H98373   5.780   7.417   5.147 -0.6590 -0.3461 -0.0126
  729MOL0     H98374   5.817   7.565   5.232 -1.3102  2.8720 -0.9769
  729MOL0     H98375   5.691   7.875   5.035 -0.8250 -1.0511  2.7205
  729MOL0     H98376   5.880   8.021   5.009  0.7466  0.1751 -2.2967
  729MOL0     H98377   6.322   8.134   5.064  1.8819 -0.6404 -0.6898
  729MOL0     H98378   6.489   8.310   5.034 -3.8742 -0.7924  3.1045
  729MOL0     H98379   6.647   8.336   4.863  1.9859 -1.2166 -2.2193
  729MOL0     H98380   6.664   8.431   4.726 -0.8596 -0.3549  0.0292
  729MOL0     H98381   6.833   8.481   4.890 -0.0978 -1.0596 -3.4406
  729MOL0     H98382   6.734   8.625   4.836 -2.8166 -0.6616 -2.0506
  729MOL0     H98383   6.597   8.626   5.049 -0.6885 -1.4332  0.0966
  729MOL0     H98384   6.686   8.484   5.107  1.8269 -0.3975 -0.5105
  729MOL0     H98385   6.805   8.748   5.056 -0.1178 -1.0582 -2.6584
  729MOL0     H98386   6.910   8.606   5.073  0.1633  0.2197  0.6250
  729MOL0     H98387   6.698   8.710   5.279 -0.6152 -1.8291 -0.1039
  729MOL0     H98388   6.868   8.760   5.267 -1.8271  0.7993  3.9881
  729MOL0     H98389   6.760   8.498   5.364 -0.0989 -1.0666 -1.1474
  729MOL0     H98390   6.891   8.484   5.248  2.7754  1.2313  0.0448
  729MOL0     H98391   6.892   8.580   5.530  1.0614  0.2036 -0.4449
  729MOL0     H98392   6.971   8.690   5.436  1.3494 -0.5880  0.8679
  729MOL0     H98393   7.103   8.440   5.356  0.4611  2.4852 -0.9582
  729MOL0     H98394   7.163   8.536   5.481 -0.2402 -1.0678  2.7846
  729MOL0     H98395   6.273   8.492   4.731 -1.6533  0.4191  2.2205
  729MOL0     H98396   6.083   8.320   4.760 -0.0905 -2.6942 -0.8346
  729MOL0     H98397   6.141   7.700   4.900 -0.1801 -2.3712  1.8972
  729MOL0     H98398   5.942   7.539   4.954 -2.6903 -0.0100 -1.2745
  729MOL0     H98399   4.406   8.189   4.901 -0.8554 -2.7591  3.4766
  729MOL0     H98400   4.220   8.357   4.887 -1.7684  0.8518  1.0799
  729MOL0     H98401   4.385   8.882   5.047  0.9821  0.6297  2.5904
  729MOL0     H98402   4.328   9.111   4.962 -0.0068  0.3274 -1.0084
  729MOL0     H98403   3.908   9.250   5.055  3.3533 -2.3174  1.2111
  729MOL0     H98404   3.918   9.262   4.875  2.1383 -1.0665 -1.3687
  729MOL0     H98405   3.900   9.454   5.039  1.1316 -0.0385  1.7323
  729MOL0     H98406   4.014   9.472   4.894  0.2065 -2.1507 -1.1534
  729MOL0     H98407   4.193   9.410   5.069 -0.3290  0.2991 -3.0735
  729MOL0     H98408   4.064   9.431   5.184 -0.3031 -2.9968 -0.6747
  729MOL0     H98409   4.108   9.646   4.974 -0.7990  0.2660  0.5590
  729MOL0     H98410   4.025   9.640   5.137  1.3438  0.5662  1.0077
  729MOL0     H98411   4.406   9.771   5.256  0.3321 -1.4748  0.2533
  729MOL0     H98412   3.916   9.028   5.060  0.5689 -0.0267  0.1306
  729MOL0     H98413   3.935   8.681   5.088 -2.5510 -0.5394  2.4426
  729MOL0     H98414   3.880   8.820   5.192  1.2680  0.6863  1.0989
  729MOL0     H98415   3.849   8.797   5.012  0.9709 -1.3793 -0.1835
  730MOL0     O98416   4.939   5.363   9.577 -0.0889 -0.3993 -0.0360
  730MOL0     C98417   4.880   5.269   9.629 -0.0546  0.9577 -0.8977
  730MOL0     O98418   4.939   5.147   9.667 -0.4059  0.3056  0.4922
  730MOL0     C98419   5.071   5.128   9.655  0.1737  0.1976  0.8488
  730MOL0     C98420   5.124   5.042   9.561 -0.1303 -1.1437  0.2812
  730MOL0     C98421   5.258   5.017   9.534 -0.2269 -0.3301  0.3903
  730MOL0     C98422   5.355   5.089   9.618 -1.0048  0.2519  0.0473
  730MOL0     O98423   5.493   5.098   9.595  0.3383  0.5269  0.7686
  730MOL0     C98424   5.553   5.014   9.496 -0.6744 -0.0999 -0.3879
  730MOL0     C98425   5.702   5.006   9.518  0.6606 -0.3974  0.3740
  730MOL0     C98426   5.729   4.931   9.647 -0.2817  0.1464  0.7556
  730MOL0     C98427   5.863   4.867   9.636 -0.0122  0.3661 -0.0038
  730MOL0     C98428   5.985   4.962   9.655  0.1800 -0.3599  0.3401
  730MOL0     C98429   6.113   4.883   9.639  0.0039  0.6876  0.3889
  730MOL0     C98430   6.243   4.956   9.660  0.1420  0.1231  0.0449
  730MOL0     C98431   6.294   4.932   9.806  0.7823 -0.6169  0.3868
  730MOL0     N98432   6.419   4.994   9.834  0.8305  0.0216 -0.3997
  730MOL0     C98433   6.427   5.113   9.902  0.3388 -0.1201  0.1148
  730MOL0     C98434   6.555   5.143   9.902  0.0416 -0.3300  0.7395
  730MOL0     C98435   6.615   5.264   9.978  0.7651  0.4100  0.4290
  730MOL0     C98436   6.742   5.310   9.927 -0.1917 -0.2739  0.6786
  730MOL0     C98437   6.813   5.417  10.014  0.0431  0.5634  0.0476
  730MOL0     C98438   6.933   5.470   9.939 -0.5400  0.6489  0.0459
  730MOL0     O98439   7.012   5.564  10.013 -0.3097  0.1240  0.2568
  730MOL0     C98440   7.141   5.562   9.992 -0.1813  0.4886  0.8195
  730MOL0     C98441   7.209   5.633  10.088  0.5735  0.7399 -0.3981
  730MOL0     C98442   7.351   5.629  10.094  0.4216  0.4632  0.0578
  730MOL0     C98443   7.417   5.567   9.984  0.1038  0.7087 -0.0911
  730MOL0     C98444   7.568   5.563   9.998 -0.5555  0.3190  0.3256
  730MOL0     O98445   7.619   5.571  10.124 -0.3305  0.2133  0.1666
  730MOL0     C98446   7.750   5.568  10.136 -0.4771 -0.4303 -0.7460
  730MOL0     C98447   7.815   5.698  10.154 -0.9878 -0.2518  0.9177
  730MOL0     C98448   7.951   5.709  10.172  1.2444 -0.0040  0.1169
  730MOL0     C98449   8.024   5.585  10.180 -1.0010 -0.6356  0.5740
  730MOL0     O98450   8.163   5.598  10.205  0.5858 -0.2727 -0.2678
  730MOL0     C98451   8.243   5.481  10.196  0.1894  0.3413 -0.4749
  730MOL0     C98452   8.256   5.396  10.331  0.9645 -0.3866 -0.2186
  730MOL0     C98453   8.233   5.246  10.299 -0.2788 -0.1427 -0.3763
  730MOL0     C98454   8.291   5.167  10.418 -0.7504  0.3297 -0.0573
  730MOL0     C98455   8.208   5.176  10.541  0.0401  0.0708 -0.0853
  730MOL0     C98456   8.259   5.097  10.662 -1.1697 -0.9106 -0.7673
  730MOL0     C98457   8.386   5.163  10.736 -0.2979  0.5255  0.3146
  730MOL0     C98458   8.417   5.111  10.878  0.7903 -0.0326  0.0924
  730MOL0    Cl98459   8.573   5.164  10.936 -0.0637  0.0438  0.0071
  730MOL0     C98460   7.957   5.464  10.176 -0.8435  0.5761 -0.1461
  730MOL0     C98461   7.822   5.452  10.155  0.9648 -0.8386  0.0633
  730MOL0     O98462   7.633   5.525   9.903 -0.1183 -0.0081 -0.0492
  730MOL0     C98463   7.356   5.507   9.885  0.6811  0.5243  0.2844
  730MOL0     C98464   7.214   5.505   9.889 -0.0372 -0.1255  0.4227
  730MOL0     N98465   6.623   5.046   9.825  0.1455 -0.1416 -0.1879
  730MOL0     N98466   6.544   4.951   9.796 -0.3782 -0.0330 -0.3870
  730MOL0     C98467   5.304   5.175   9.722 -0.3522  0.4194  0.6863
  730MOL0     C98468   5.165   5.194   9.735  0.6827  0.5647  0.5638
  730MOL0     C98469   4.738   5.268   9.641  1.0135  0.1968  0.3351
  730MOL0     C98470   4.650   5.160   9.596 -0.0424 -0.2498 -0.0349
  730MOL0     C98471   4.512   5.176   9.616  0.3999 -1.1013  0.2118
  730MOL0     C98472   4.455   5.297   9.666  0.3356  0.2589 -0.5289
  730MOL0     O98473   4.324   5.321   9.674  0.2599  0.2555 -0.0320
  730MOL0     C98474   4.222   5.251   9.592 -0.6187 -1.5225  0.5526
  730MOL0     C98475   4.136   5.359   9.532  0.8269 -0.4481 -0.5141
  730MOL0     C98476   4.212   5.439   9.436 -0.2960 -0.2035 -0.1519
  730MOL0     C98477   4.118   5.550   9.365  0.3634  0.2865 -1.0884
  730MOL0     C98478   4.196   5.656   9.304 -0.7362  0.3391 -0.4645
  730MOL0     C98479   4.255   5.744   9.250 -0.6788  0.2048 -0.2061
  730MOL0     C98480   4.539   5.384   9.728 -0.5365  0.8603  0.7383
  730MOL0     C98481   4.680   5.376   9.711  0.2184  0.5698  0.5930
  730MOL0     C98482   4.748   5.495   9.765 -0.0912 -0.6744 -0.0015
  730MOL0     H98483   5.059   4.993   9.489  0.1101  1.6184 -1.9985
  730MOL0     H98484   5.299   4.955   9.455  6.1527  2.3168  0.9671
  730MOL0     H98485   5.521   4.909   9.490 -0.6695 -0.0228 -2.9229
  730MOL0     H98486   5.536   5.056   9.397  2.0487 -1.0093 -1.3247
  730MOL0     H98487   5.744   5.106   9.521 -0.7689  0.3919 -2.2609
  730MOL0     H98488   5.742   4.954   9.430  4.4086 -0.5793  2.0080
  730MOL0     H98489   5.655   4.852   9.665 -0.4699  0.4583  1.3902
  730MOL0     H98490   5.745   4.998   9.731 -0.2758  3.6643 -1.8171
  730MOL0     H98491   5.878   4.784   9.705  1.2869 -1.4885 -2.3699
  730MOL0     H98492   5.869   4.824   9.536  1.6603  2.8344 -1.0509
  730MOL0     H98493   5.971   5.056   9.601 -1.8362 -0.3867  0.7413
  730MOL0     H98494   5.991   4.993   9.760  1.1581 -0.5357  0.3504
  730MOL0     H98495   6.106   4.793   9.700  0.6118 -0.0972 -0.6565
  730MOL0     H98496   6.116   4.863   9.531 -4.0125  0.8907  0.1244
  730MOL0     H98497   6.241   5.063   9.639  0.5600 -0.0938 -1.1661
  730MOL0     H98498   6.314   4.914   9.588  0.1459 -1.7495  1.0725
  730MOL0     H98499   6.223   4.977   9.877  2.2438  1.8817  0.3979
  730MOL0     H98500   6.298   4.824   9.819 -1.6876 -0.8003  0.0248
  730MOL0     H98501   6.346   5.159   9.957  1.2247  1.0574  0.4760
  730MOL0     H98502   6.536   5.339   9.968 -1.3257 -1.8214 -0.9135
  730MOL0     H98503   6.619   5.230  10.082 -0.3706  0.8338  0.6289
  730MOL0     H98504   6.809   5.225   9.938  0.8161  0.1297 -1.7651
  730MOL0     H98505   6.747   5.329   9.819  2.0395  0.1393  0.8025
  730MOL0     H98506   6.842   5.366  10.106  0.8176  0.1488 -0.4175
  730MOL0     H98507   6.750   5.504  10.036  1.2463  1.1638  1.2849
  730MOL0     H98508   6.912   5.528   9.848  3.5429  1.9151 -0.2778
  730MOL0     H98509   6.993   5.380   9.927 -1.9598 -0.1930 -0.9987
  730MOL0     H98510   7.161   5.680  10.173  1.6698  1.6933 -0.2852
  730MOL0     H98511   7.401   5.666  10.182  0.1435  1.8318 -0.3236
  730MOL0     H98512   7.756   5.790  10.157 -1.2644 -0.4123  0.4850
  730MOL0     H98513   7.992   5.809  10.180  0.7726  0.0471  2.3258
  730MOL0     H98514   8.201   5.420  10.115 -1.6085 -0.1333  0.7516
  730MOL0     H98515   8.341   5.523  10.170  0.4305  1.5008  2.0171
  730MOL0     H98516   8.359   5.404  10.369  0.7633 -1.4564  0.5742
  730MOL0     H98517   8.195   5.433  10.414  3.7482  2.1088  0.9229
  730MOL0     H98518   8.131   5.215  10.271  0.0809  0.8090 -2.9483
  730MOL0     H98519   8.301   5.234  10.214  1.4749  2.1118  0.6092
  730MOL0     H98520   8.394   5.187  10.449 -0.7644 -0.9586  0.8823
  730MOL0     H98521   8.289   5.063  10.386  0.7195 -0.3560  1.8619
  730MOL0     H98522   8.108   5.136  10.523  0.2560  0.5618 -2.9065
  730MOL0     H98523   8.206   5.278  10.580  3.7221  0.0977  0.4039
  730MOL0     H98524   8.171   5.102  10.728 -0.2659  3.1013  0.4049
  730MOL0     H98525   8.286   4.996  10.630 -0.9319 -1.1778  0.2395
  730MOL0     H98526   8.368   5.271  10.742  0.9725  0.6982  1.6298
  730MOL0     H98527   8.470   5.143  10.668 -0.4379 -1.1676  0.6131
  730MOL0     H98528   8.342   5.151  10.948 -0.3459 -0.1498 -1.0164
  730MOL0     H98529   8.392   5.005  10.884 -0.0806  0.1511 -0.1995
  730MOL0     H98530   8.011   5.370  10.184 -0.2741  1.0221  1.7295
  730MOL0     H98531   7.779   5.353  10.158  3.7298 -2.2798 -2.2251
  730MOL0     H98532   7.409   5.456   9.805  0.3090 -1.4991  1.2808
  730MOL0     H98533   7.181   5.440   9.809  1.3825 -1.1094  0.6144
  730MOL0     H98534   5.374   5.236   9.779 -0.1250  3.1267 -2.2305
  730MOL0     H98535   5.133   5.260   9.816  3.6840  1.1838  1.3918
  730MOL0     H98536   4.678   5.067   9.548  0.2091 -0.9347  1.3613
  730MOL0     H98537   4.443   5.098   9.586 -0.0179 -0.7480  0.2525
  730MOL0     H98538   4.160   5.184   9.652  0.7579 -1.3347  2.2765
  730MOL0     H98539   4.261   5.197   9.505 -3.5339  1.0638 -2.6930
  730MOL0     H98540   4.105   5.418   9.618 -2.5005 -2.1142 -0.4529
  730MOL0     H98541   4.045   5.323   9.483 -0.8631  1.9838  0.6632
  730MOL0     H98542   4.268   5.393   9.355  0.0436  4.1973 -2.7364
  730MOL0     H98543   4.288   5.493   9.492 -0.8796  1.5488 -0.9569
  730MOL0     H98544   4.060   5.505   9.284  2.9342 -1.7307 -1.9554
  730MOL0     H98545   4.071   5.599   9.451  4.1773 -0.4472  1.6625
  730MOL0     H98546   4.304   5.823   9.197  1.6524 -0.5150  0.7439
  730MOL0     H98547   4.496   5.473   9.772  1.8918  1.2874  2.4520
  730MOL0     H98548   4.857   5.497   9.754 -0.0610  1.1559  0.3563
  730MOL0     H98549   4.716   5.591   9.722  1.7529  0.2013  0.4987
  730MOL0     H98550   4.732   5.494   9.873  2.4334 -1.4162  0.4295
  731MOL0     O98551   7.699   0.195   7.260  0.2939 -0.2607 -0.0024
  731MOL0     C98552   7.719   0.209   7.144  0.4187  0.6848  0.3616
  731MOL0     O98553   7.837   0.203   7.085 -0.6655 -0.3499 -0.1412
  731MOL0     C98554   7.961   0.196   7.152 -0.0645 -0.5119 -0.9916
  731MOL0     C98555   8.030   0.312   7.200  0.1261  0.2307  0.4050
  731MOL0     C98556   8.155   0.293   7.258  0.6958  0.2204  0.7409
  731MOL0     C98557   8.218   0.169   7.272 -0.1369  0.5003 -0.4690
  731MOL0     O98558   8.347   0.146   7.308 -0.6525 -0.0751  0.4813
  731MOL0     C98559   8.436   0.252   7.349 -0.2210  0.0853 -0.1107
  731MOL0     C98560   8.565   0.182   7.391 -0.0401 -0.2309  0.4975
  731MOL0     C98561   8.666   0.274   7.451  0.5075  1.2970 -0.5314
  731MOL0     C98562   8.766   0.204   7.539  1.4711 -0.1684 -0.3565
  731MOL0     C98563   8.865   0.302   7.582 -0.4462 -0.1325  1.5341
  731MOL0     C98564   8.952   0.234   7.690 -0.5599 -0.6651  0.0604
  731MOL0     C98565   9.067   0.327   7.745 -0.6128 -0.3589 -0.4804
  731MOL0     C98566   9.158   0.360   7.622 -0.3383  0.6305 -0.3360
  731MOL0     N98567   9.299   0.392   7.676 -0.0323  0.4919 -0.2319
  731MOL0     C98568   9.349   0.517   7.691 -0.0387 -0.1200 -0.2342
  731MOL0     C98569   9.485   0.499   7.719  1.0150  0.1565 -0.3950
  731MOL0     C98570   9.599   0.593   7.735 -0.0056  0.7577 -0.0408
  731MOL0     C98571   9.563   0.706   7.829 -0.1540  0.0891  0.2997
  731MOL0     C98572   9.676   0.813   7.850  0.1506  0.6425 -0.1906
  731MOL0     C98573   9.639   0.905   7.963 -0.5776  0.4428  0.2963
  731MOL0     O98574   9.733   1.020   7.971  0.1682 -0.1163  0.0830
  731MOL0     C98575   9.723   1.126   7.875 -0.0699  0.1812  0.1357
  731MOL0     C98576   9.822   1.220   7.879  0.2483  0.2684 -0.2277
  731MOL0     C98577   9.822   1.317   7.780  0.0908 -0.1050 -0.0587
  731MOL0     C98578   9.733   1.322   7.674  0.0205 -0.1345  0.6605
  731MOL0     C98579   9.736   1.447   7.587  0.1505 -0.8130 -0.1542
  731MOL0     O98580   9.821   1.546   7.631 -0.3220 -0.0487 -0.3328
  731MOL0     C98581   9.852   1.649   7.534  0.1141  0.0250 -0.2027
  731MOL0     C98582   9.980   1.667   7.489 -0.6211 -0.7361  0.5176
  731MOL0     C98583  10.006   1.764   7.386 -0.0949  0.4391 -0.7870
  731MOL0     C98584   9.905   1.842   7.335 -0.2510  0.2564 -0.1057
  731MOL0     O98585   9.930   1.935   7.237 -0.7348  0.6361  0.1110
  731MOL0     C98586   9.873   2.064   7.250  0.9259  0.3802  0.8682
  731MOL0     C98587   9.746   2.062   7.166 -0.5919 -0.3007 -0.0766
  731MOL0     C98588   9.651   2.170   7.204  0.2086  0.1104  0.5241
  731MOL0     C98589   9.704   2.308   7.172  0.4528  0.3282 -0.0117
  731MOL0     C98590   9.595   2.416   7.137 -1.1078  0.3121 -1.0032
  731MOL0     C98591   9.554   2.486   7.271  0.3763  1.4205  0.3346
  731MOL0     C98592   9.455   2.596   7.274 -0.3890 -0.3421  0.2894
  731MOL0     C98593   9.473   2.672   7.405  0.7982 -0.0801 -0.1138
  731MOL0    Cl98594   9.457   2.551   7.540  0.3243 -0.2301  0.4220
  731MOL0     C98595   9.779   1.820   7.386 -1.3226 -0.2794 -1.3472
  731MOL0     C98596   9.750   1.725   7.478  0.1893  0.4134 -0.2855
  731MOL0     O98597   9.658   1.456   7.485 -0.0872 -0.3688 -0.3288
  731MOL0     C98598   9.634   1.212   7.663 -0.1665 -0.7756 -0.1877
  731MOL0     C98599   9.635   1.120   7.761  0.4002 -0.2896 -0.4874
  731MOL0     N98600   9.507   0.366   7.709  0.0978  0.1696 -0.0310
  731MOL0     N98601   9.395   0.306   7.694  0.1290  1.1572  0.1705
  731MOL0     C98602   8.155   0.063   7.208  0.8057 -0.3767 -0.4661
  731MOL0     C98603   8.022   0.075   7.157 -0.1797 -0.1829 -0.3570
  731MOL0     C98604   7.605   0.217   7.050 -0.1279 -0.5100  0.0420
  731MOL0     C98605   7.628   0.187   6.913  0.2881 -0.3722 -0.7373
  731MOL0     C98606   7.528   0.173   6.822 -0.2485  0.7898  0.0658
  731MOL0     C98607   7.390   0.179   6.864 -0.3069 -0.8405  0.8690
  731MOL0     O98608   7.276   0.150   6.792 -0.4914  0.1255 -0.8275
  731MOL0     C98609   7.283   0.108   6.657 -0.2860 -0.1177  0.5204
  731MOL0     C98610   7.145   0.096   6.612  0.1959  0.4348 -0.2810
  731MOL0     C98611   7.133   0.104   6.454 -0.1864 -0.1009 -0.3836
  731MOL0     C98612   6.986   0.134   6.436 -0.2593  0.5049  0.2122
  731MOL0     C98613   6.945   0.159   6.299  0.1857 -0.5083  0.5250
  731MOL0     C98614   6.931   0.187   6.187 -0.2230 -1.2759  0.6494
  731MOL0     C98615   7.369   0.208   6.997  0.4897  0.6788 -0.2097
  731MOL0     C98616   7.470   0.225   7.093  0.0703 -0.8039  0.6026
  731MOL0     C98617   7.423   0.249   7.239 -0.4688 -0.2144 -0.0931
  731MOL0     H98618   7.980   0.407   7.187 -2.9308 -1.0809  1.4719
  731MOL0     H98619   8.203   0.376   7.309 -0.4913  2.1276 -1.0587
  731MOL0     H98620   8.450   0.325   7.268  2.4513 -0.2947 -0.0900
  731MOL0     H98621   8.387   0.301   7.433  1.7461  2.1205 -0.0471
  731MOL0     H98622   8.610   0.133   7.305 -1.8602  0.0895 -0.6822
  731MOL0     H98623   8.544   0.115   7.475  3.1969  1.3533  2.8149
  731MOL0     H98624   8.613   0.349   7.511 -3.4989 -0.4808 -1.4887
  731MOL0     H98625   8.720   0.323   7.370  0.6758  2.0142  0.0024
  731MOL0     H98626   8.708   0.149   7.614 -1.2127 -1.0871 -2.9279
  731MOL0     H98627   8.819   0.130   7.478 -0.0051  0.3802 -2.3752
  731MOL0     H98628   8.926   0.331   7.496 -1.8344  0.4496  0.7017
  731MOL0     H98629   8.829   0.395   7.627 -0.7543 -0.1254  1.2794
  731MOL0     H98630   8.890   0.211   7.777  1.2851 -1.0128  1.3268
  731MOL0     H98631   8.992   0.138   7.658 -1.0817 -0.3442 -1.7242
  731MOL0     H98632   9.120   0.259   7.813 -0.2150  1.5598  1.2224
  731MOL0     H98633   9.043   0.419   7.798  2.2596 -0.5972  1.4431
  731MOL0     H98634   9.169   0.272   7.558 -0.4784 -0.8203  1.5281
  731MOL0     H98635   9.111   0.444   7.570 -2.3619 -2.1157 -3.3026
  731MOL0     H98636   9.301   0.611   7.669  2.8612  1.3522 -0.8163
  731MOL0     H98637   9.682   0.536   7.779  0.6353  1.2407 -0.6155
  731MOL0     H98638   9.633   0.624   7.636 -3.1961  0.7538 -1.2568
  731MOL0     H98639   9.467   0.751   7.803 -0.3860  0.5886  1.9169
  731MOL0     H98640   9.548   0.656   7.925  0.2811 -0.8569 -0.1129
  731MOL0     H98641   9.687   0.865   7.754 -0.3697 -1.6150 -1.5495
  731MOL0     H98642   9.776   0.775   7.869  0.2497  0.4280 -1.1175
  731MOL0     H98643   9.651   0.847   8.055  4.4970 -1.2620 -1.1128
  731MOL0     H98644   9.538   0.942   7.941  0.2456  2.0584 -0.9162
  731MOL0     H98645   9.889   1.211   7.964 -0.1149 -0.7800 -0.0435
  731MOL0     H98646   9.901   1.392   7.784  1.4024 -1.4412  0.0197
  731MOL0     H98647  10.057   1.600   7.525  0.0598  0.6891  1.8609
  731MOL0     H98648  10.105   1.776   7.343 -0.2190 -1.6427 -1.7443
  731MOL0     H98649   9.861   2.094   7.355  3.1247  2.5186  0.6042
  731MOL0     H98650   9.943   2.142   7.217  0.2507  0.3205 -0.7589
  731MOL0     H98651   9.778   2.085   7.064  2.8654  0.9175  1.1366
  731MOL0     H98652   9.699   1.964   7.176  3.6980 -2.7858 -1.6782
  731MOL0     H98653   9.556   2.169   7.150  1.6274 -1.5712 -2.1655
  731MOL0     H98654   9.639   2.160   7.312  3.4742 -0.1112  0.9958
  731MOL0     H98655   9.776   2.314   7.090 -1.4582  1.5410 -1.6969
  731MOL0     H98656   9.777   2.327   7.252  2.0751 -0.2559 -1.2763
  731MOL0     H98657   9.519   2.359   7.083 -2.2121 -2.8275  3.2839
  731MOL0     H98658   9.627   2.493   7.065 -3.9965  1.6578 -0.9858
  731MOL0     H98659   9.510   2.403   7.328 -0.6115  2.7725  1.6231
  731MOL0     H98660   9.640   2.521   7.328 -0.8634  3.4084  1.1213
  731MOL0     H98661   9.349   2.574   7.259 -1.0075  1.0141  2.2254
  731MOL0     H98662   9.478   2.665   7.192  0.2436 -3.0641 -1.9671
  731MOL0     H98663   9.565   2.730   7.418  1.5514 -0.8385 -1.6689
  731MOL0     H98664   9.385   2.737   7.416  0.0613 -0.9103 -0.9205
  731MOL0     H98665   9.696   1.888   7.366  0.4634  2.3545 -0.4071
  731MOL0     H98666   9.650   1.699   7.512  0.8517  0.6787  2.0143
  731MOL0     H98667   9.564   1.217   7.581 -1.8681 -0.0317  1.2447
  731MOL0     H98668   9.554   1.048   7.752 -0.1397  0.1888  0.4374
  731MOL0     H98669   8.211  -0.029   7.206  2.5345  0.5913  0.8565
  731MOL0     H98670   7.969  -0.014   7.124  0.2658 -0.8574  0.7004
  731MOL0     H98671   7.729   0.162   6.882  1.1157  0.8328  0.8212
  731MOL0     H98672   7.532   0.133   6.721  2.7614  1.9474 -0.3747
  731MOL0     H98673   7.323   0.006   6.653 -0.4866 -0.2159  0.9205
  731MOL0     H98674   7.327   0.191   6.601 -0.3669 -0.3457  0.1233
  731MOL0     H98675   7.093   0.179   6.661 -0.9195 -0.0142 -0.6866
  731MOL0     H98676   7.103   0.000   6.644 -0.8170  0.6313 -0.9869
  731MOL0     H98677   7.164   0.010   6.407  2.2713 -0.3856  1.6112
  731MOL0     H98678   7.192   0.186   6.413 -0.3176  0.4272  0.4645
  731MOL0     H98679   6.930   0.053   6.483 -0.1260  1.8495  2.8914
  731MOL0     H98680   6.958   0.225   6.490  0.2297 -0.7259  2.6980
  731MOL0     H98681   6.928   0.213   6.084  0.6523 -1.3506  0.5993
  731MOL0     H98682   7.269   0.217   7.040  0.5816  2.3773 -0.2610
  731MOL0     H98683   7.453   0.174   7.312  0.1496  1.3005  1.2733
  731MOL0     H98684   7.472   0.342   7.270  2.0159 -1.8768  1.3058
  731MOL0     H98685   7.316   0.267   7.252 -1.0891 -2.6786 -1.1999
  732MOL0     O98686   8.336  10.989   4.963  0.8919  0.5063  0.7974
  732MOL0     C98687   8.230  10.940   5.004  0.5104 -0.4404 -0.2922
  732MOL0     O98688   8.227  10.827   5.085 -0.0072 -0.2724  0.7214
  732MOL0     C98689   8.336  10.751   5.084  0.1889 -0.3784  0.1677
  732MOL0     C98690   8.355  10.650   4.990  0.1919  0.2627  0.1025
  732MOL0     C98691   8.471  10.574   4.986  0.0783 -0.6764  0.3656
  732MOL0     C98692   8.577  10.590   5.074  0.2950  0.2203 -0.3806
  732MOL0     O98693   8.697  10.518   5.076 -0.0663  0.2097  0.4380
  732MOL0     C98694   8.719  10.440   4.960 -0.0822  0.2288  0.2048
  732MOL0     C98695   8.860  10.376   4.971 -0.3722 -0.4322 -0.4805
  732MOL0     C98696   8.969  10.479   4.953 -1.0559 -0.4652  0.0662
  732MOL0     C98697   9.113  10.426   4.984  0.2615  0.5748 -0.7429
  732MOL0     C98698   9.214  10.531   5.029  0.8273  0.2863 -0.3047
  732MOL0     C98699   9.245  10.642   4.929  0.2320  0.0850  1.1125
  732MOL0     C98700   9.330  10.757   4.993 -0.0126  1.5730  0.2009
  732MOL0     C98701   9.487  10.738   4.985  1.6623  0.6330  0.2686
  732MOL0     N98702   9.540  10.733   4.848 -0.5500 -0.3317 -0.0379
  732MOL0     C98703   9.545  10.835   4.761 -0.3038  0.4562 -0.3164
  732MOL0     C98704   9.578  10.780   4.644  0.0197  0.6390 -0.0390
  732MOL0     C98705   9.607  10.857   4.512 -0.7758  0.1399  0.5307
  732MOL0     C98706   9.756  10.901   4.501  0.1814  0.5524 -0.2151
  732MOL0     C98707   9.848  10.775   4.491  1.5436 -0.6679  0.1195
  732MOL0     C98708   9.998  10.809   4.463 -0.1824  0.2983 -0.6540
  732MOL0     O98709  10.068  10.696   4.513 -0.5758 -0.5869 -0.1603
  732MOL0     C98710  10.203  10.721   4.508 -0.5589  0.6485 -0.4604
  732MOL0     C98711  10.270  10.728   4.625 -0.2110  0.3126 -0.0171
  732MOL0     C98712  10.412  10.750   4.638  0.8485 -0.6017  0.4010
  732MOL0     C98713  10.487  10.779   4.524 -0.1734  0.0140 -0.1786
  732MOL0     C98714  10.635  10.799   4.542 -0.1126  0.6895 -0.3262
  732MOL0     O98715  10.685  10.783   4.666  0.7210 -0.7193 -0.0524
  732MOL0     C98716  10.814  10.777   4.688  0.3980  0.3927 -0.1868
  732MOL0     C98717  10.871  10.889   4.750  0.2844 -0.0018 -0.4223
  732MOL0     C98718  10.990  10.869   4.825 -0.7050 -0.5161  0.6514
  732MOL0     C98719  11.063  10.749   4.813  0.6691  0.3075  0.5208
  732MOL0     O98720  11.185  10.737   4.873  0.4661 -0.0137 -0.4196
  732MOL0     C98721  11.306  10.685   4.812 -0.2772  0.2531 -0.4425
  732MOL0     C98722  11.430  10.733   4.886 -0.8972  0.5701  0.0890
  732MOL0     C98723  11.438  10.691   5.034 -0.8759 -0.1093 -0.6128
  732MOL0     C98724  11.561  10.757   5.104 -0.4077  0.1713 -0.2785
  732MOL0     C98725  11.588  10.677   5.231  0.5818 -0.0012  0.1739
  732MOL0     C98726  11.694  10.738   5.332  0.2296  0.0570 -1.1039
  732MOL0     C98727  11.832  10.766   5.285 -0.7310 -0.5613  0.1028
  732MOL0     C98728  11.924  10.790   5.398 -0.0383 -0.6372  0.2693
  732MOL0    Cl98729  11.945  10.634   5.467  0.4110 -0.0030 -0.3101
  732MOL0     C98730  11.012  10.642   4.732  0.2675 -0.9440 -0.0147
  732MOL0     C98731  10.883  10.655   4.675  0.2318  0.4294  0.7020
  732MOL0     O98732  10.702  10.799   4.443 -0.1414 -0.9828  0.4841
  732MOL0     C98733  10.417  10.771   4.402  0.0823  0.1375  0.0464
  732MOL0     C98734  10.278  10.732   4.391  0.0507  0.2870  0.7406
  732MOL0     N98735   9.584  10.644   4.652 -0.7053  0.2059  0.5830
  732MOL0     N98736   9.570  10.620   4.775  0.2675  0.5931  0.7554
  732MOL0     C98737   8.564  10.689   5.170 -0.4199  0.5524 -0.3294
  732MOL0     C98738   8.444  10.767   5.176 -0.4666 -0.4101 -0.4003
  732MOL0     C98739   8.100  11.009   4.979 -0.0036 -0.2687  0.2357
  732MOL0     C98740   7.998  10.965   5.060  0.0249 -0.0820  0.3649
  732MOL0     C98741   7.871  11.031   5.048  0.3554 -0.4115  0.2768
  732MOL0     C98742   7.840  11.132   4.952  0.2874  0.3861 -0.1530
  732MOL0     O98743   7.714  11.183   4.948  0.3502 -0.5022 -0.3441
  732MOL0     C98744   7.681  11.278   4.841 -0.2927  0.2369 -0.4103
  732MOL0     C98745   7.532  11.319   4.853  0.2847 -0.1590  0.1248
  732MOL0     C98746   7.434  11.191   4.854  0.2951  0.3111 -0.3738
  732MOL0     C98747   7.287  11.211   4.839  0.5624 -0.4700 -0.5093
  732MOL0     C98748   7.218  11.272   4.957 -0.1005  0.1014  0.5791
  732MOL0     C98749   7.172  11.316   5.061 -0.2755 -0.2118 -0.1510
  732MOL0     C98750   7.958  11.179   4.881  0.0111 -0.1740 -0.1950
  732MOL0     C98751   8.089  11.123   4.889  0.2541  0.2177 -0.4313
  732MOL0     C98752   8.193  11.184   4.801 -0.3449 -0.7458  0.2135
  732MOL0     H98753   8.283  10.644   4.908  1.9551  0.1515 -1.5021
  732MOL0     H98754   8.497  10.521   4.895  2.3221  2.7753 -1.2361
  732MOL0     H98755   8.640  10.365   4.962 -0.9394  0.7635 -4.2338
  732MOL0     H98756   8.712  10.488   4.862  0.8866  1.4506  0.6964
  732MOL0     H98757   8.877  10.291   4.904  1.5774 -1.3644  1.1116
  732MOL0     H98758   8.874  10.325   5.066 -2.3837  2.6244  1.6643
  732MOL0     H98759   8.943  10.567   5.013 -1.5861 -0.4669 -0.1580
  732MOL0     H98760   8.947  10.508   4.849 -1.2828 -0.1726  0.1959
  732MOL0     H98761   9.107  10.351   5.064 -2.2425  0.8365 -0.6104
  732MOL0     H98762   9.151  10.380   4.893  0.9569  0.6921 -0.5167
  732MOL0     H98763   9.188  10.584   5.121 -0.6300  1.3884 -1.2934
  732MOL0     H98764   9.312  10.488   5.049  0.8909  2.0232  4.3300
  732MOL0     H98765   9.300  10.603   4.843  2.7677 -2.0610  3.5111
  732MOL0     H98766   9.149  10.673   4.888 -0.0089 -1.1120  0.7458
  732MOL0     H98767   9.287  10.779   5.091  1.8740  2.3265  0.9003
  732MOL0     H98768   9.311  10.855   4.946 -1.7562  3.1339  3.8250
  732MOL0     H98769   9.538  10.823   5.031 -2.6384  5.2997 -2.4966
  732MOL0     H98770   9.512  10.646   5.038 -1.8851  0.0765  1.2662
  732MOL0     H98771   9.520  10.938   4.787  1.1752  0.5086  1.0263
  732MOL0     H98772   9.577  10.794   4.428  4.0869 -1.7772 -0.0658
  732MOL0     H98773   9.533  10.937   4.501  0.6116  1.0782 -4.9892
  732MOL0     H98774   9.765  10.956   4.407  0.3156  0.6158 -0.1666
  732MOL0     H98775   9.787  10.955   4.591  0.4136  0.2401 -0.1054
  732MOL0     H98776   9.805  10.742   4.396  1.0434  1.5472 -0.4805
  732MOL0     H98777   9.834  10.700   4.570  0.7586 -1.5294 -0.7922
  732MOL0     H98778  10.035  10.886   4.530 -1.0533 -0.7040  1.0358
  732MOL0     H98779  10.015  10.835   4.358 -0.1927 -0.8119 -0.9528
  732MOL0     H98780  10.222  10.710   4.721 -4.5114 -3.4951 -2.4807
  732MOL0     H98781  10.459  10.744   4.736 -2.2386  0.0122  2.0617
  732MOL0     H98782  10.815  10.982   4.747 -1.0246 -0.6960  0.7756
  732MOL0     H98783  11.047  10.942   4.881  0.9582 -0.4241 -1.0260
  732MOL0     H98784  11.308  10.576   4.803  4.2891 -0.3137  3.1631
  732MOL0     H98785  11.310  10.726   4.711 -0.4443  2.6774  0.4572
  732MOL0     H98786  11.520  10.695   4.837 -3.3263 -5.0966 -0.7944
  732MOL0     H98787  11.425  10.842   4.889  1.3347  0.7063  0.9544
  732MOL0     H98788  11.354  10.734   5.088 -0.7212  0.3383 -0.7189
  732MOL0     H98789  11.433  10.582   5.038 -0.3812 -0.1124  0.4968
  732MOL0     H98790  11.533  10.861   5.123  1.5528  0.6026  0.5228
  732MOL0     H98791  11.653  10.753   5.044  1.9340 -1.9832  3.0633
  732MOL0     H98792  11.619  10.576   5.203 -4.1817 -1.7287  0.3346
  732MOL0     H98793  11.490  10.659   5.275 -0.7933 -1.5406 -3.2224
  732MOL0     H98794  11.652  10.834   5.366  1.2616  0.0544  0.2864
  732MOL0     H98795  11.691  10.670   5.418 -3.1458  1.4428  0.0424
  732MOL0     H98796  11.830  10.860   5.230  0.1334  0.1667  1.2681
  732MOL0     H98797  11.864  10.684   5.221 -0.1623 -0.4239  0.2112
  732MOL0     H98798  12.017  10.828   5.355  1.5566 -4.5429 -0.1697
  732MOL0     H98799  11.886  10.866   5.467  1.1920 -0.4166  0.7254
  732MOL0     H98800  11.078  10.556   4.739  2.5060  0.8022  1.9935
  732MOL0     H98801  10.829  10.576   4.623  0.6855  1.3987 -1.3442
  732MOL0     H98802  10.474  10.786   4.311 -0.4422 -0.5308 -0.4056
  732MOL0     H98803  10.227  10.718   4.297 -0.8689 -3.8079  1.6724
  732MOL0     H98804   8.643  10.707   5.242 -0.1720 -0.2038 -0.3994
  732MOL0     H98805   8.452  10.848   5.247  3.4359 -0.0914 -0.9416
  732MOL0     H98806   8.013  10.890   5.137  0.6160 -2.2669 -1.7567
  732MOL0     H98807   7.787  10.998   5.108  1.8313 -1.4465  1.8711
  732MOL0     H98808   7.710  11.230   4.747  1.0999  1.0321 -0.4149
  732MOL0     H98809   7.751  11.361   4.854  1.3864 -0.4777 -3.9709
  732MOL0     H98810   7.499  11.383   4.770  2.0386 -0.9657 -1.2570
  732MOL0     H98811   7.513  11.375   4.945  2.7485 -2.6779  2.3336
  732MOL0     H98812   7.451  11.133   4.945 -1.0201  1.1546  0.4473
  732MOL0     H98813   7.470  11.125   4.774  1.4455  0.0015  0.3801
  732MOL0     H98814   7.271  11.287   4.762  3.0008 -1.7380 -2.4347
  732MOL0     H98815   7.245  11.113   4.813  1.2372 -0.8553 -0.1545
  732MOL0     H98816   7.140  11.358   5.154  0.0738 -0.1951 -0.0370
  732MOL0     H98817   7.946  11.266   4.816 -2.5904 -1.1612 -1.1621
  732MOL0     H98818   8.293  11.139   4.798  0.4730  0.9835  0.4260
  732MOL0     H98819   8.149  11.174   4.701 -0.1971 -4.0911  0.3523
  732MOL0     H98820   8.196  11.288   4.833 -1.7424  0.3488 -2.8723
  733MOL0     O98821  10.865  10.250   7.084 -0.9513 -0.0646  0.1745
  733MOL0     C98822  10.842  10.334   6.994 -0.1707  0.3031 -0.3623
  733MOL0     O98823  10.933  10.399   6.917  0.2480  1.0213 -0.2680
  733MOL0     C98824  11.056  10.396   6.974  0.2538  0.0228  0.6881
  733MOL0     C98825  11.088  10.487   7.071  0.2262 -0.1423  0.5370
  733MOL0     C98826  11.218  10.507   7.117 -0.0419  1.5305 -0.0048
  733MOL0     C98827  11.322  10.428   7.066 -0.4135 -0.0687  0.4739
  733MOL0     O98828  11.446  10.460   7.115  0.5801 -0.4175  0.2068
  733MOL0     C98829  11.568  10.412   7.054  0.4628  0.3615  0.6816
  733MOL0     C98830  11.583  10.472   6.914  0.0512  0.4815 -0.9527
  733MOL0     C98831  11.726  10.543   6.899 -0.0270 -0.1692  0.0455
  733MOL0     C98832  11.757  10.576   6.759  0.1291  0.3028 -0.4677
  733MOL0     C98833  11.672  10.677   6.685  0.0904 -0.4982 -0.4463
  733MOL0     C98834  11.713  10.673   6.533 -0.0459 -0.1897  0.6277
  733MOL0     C98835  11.677  10.788   6.445  0.7211 -0.7886  0.2131
  733MOL0     C98836  11.522  10.801   6.417  0.2863 -0.5018 -0.8212
  733MOL0     N98837  11.478  10.899   6.324 -0.6870 -0.2648  0.4484
  733MOL0     C98838  11.354  10.898   6.275  0.2251 -1.0224  0.2905
  733MOL0     C98839  11.341  11.021   6.217  0.3097  0.7166  0.9417
  733MOL0     C98840  11.232  11.082   6.129 -0.2533 -0.3871  0.1885
  733MOL0     C98841  11.113  10.988   6.082  0.2259 -0.8910 -0.5287
  733MOL0     C98842  11.048  11.043   5.957  0.0946  0.1785 -0.6855
  733MOL0     C98843  10.942  10.942   5.922  0.7586  0.0263 -0.0885
  733MOL0     O98844  10.884  10.946   5.792 -0.1724 -0.1331 -0.9542
  733MOL0     C98845  10.759  10.890   5.777  0.1888  0.3002 -0.0908
  733MOL0     C98846  10.701  10.785   5.856 -0.9056 -0.2549 -0.1807
  733MOL0     C98847  10.567  10.755   5.836  0.3783 -0.5418 -0.5509
  733MOL0     C98848  10.496  10.803   5.728 -0.2613 -0.4230 -0.0272
  733MOL0     C98849  10.359  10.760   5.688  0.3565  0.6982 -0.8152
  733MOL0     O98850  10.293  10.837   5.596  0.2916  0.6046  0.4872
  733MOL0     C98851  10.162  10.803   5.562 -0.2520  0.2223 -0.1190
  733MOL0     C98852  10.116  10.851   5.441  0.0755 -0.3521 -0.1157
  733MOL0     C98853   9.981  10.862   5.407  0.1277 -0.0038  0.3439
  733MOL0     C98854   9.889  10.814   5.507 -0.1214  0.4105  1.4812
  733MOL0     O98855   9.752  10.807   5.486  0.1517  0.4199 -0.5281
  733MOL0     C98856   9.696  10.790   5.356 -0.2946  1.1187 -0.6239
  733MOL0     C98857   9.573  10.698   5.373  0.0327  0.5726 -0.4675
  733MOL0     C98858   9.462  10.749   5.456 -0.5984  0.5548 -0.0160
  733MOL0     C98859   9.339  10.655   5.420 -0.0207  0.8370 -0.6610
  733MOL0     C98860   9.211  10.678   5.500  0.1493 -0.4036 -0.0650
  733MOL0     C98861   9.096  10.603   5.427  0.4372 -0.1298 -0.2217
  733MOL0     C98862   8.964  10.614   5.497  0.0555  0.2927 -0.5832
  733MOL0     C98863   8.858  10.552   5.412  0.1893  0.1997 -0.2801
  733MOL0    Cl98864   8.704  10.562   5.508  0.0750 -0.1729  0.2135
  733MOL0     C98865   9.933  10.780   5.630  0.5200  0.0364  0.0644
  733MOL0     C98866  10.067  10.769   5.658  0.3895  0.3286  0.3589
  733MOL0     O98867  10.320  10.660   5.744  1.0389  0.6489  0.2565
  733MOL0     C98868  10.557  10.896   5.650  0.3978 -0.0895  0.6094
  733MOL0     C98869  10.685  10.942   5.674  1.0712 -0.2537  0.4742
  733MOL0     N98870  11.453  11.091   6.232 -0.9409  0.6582  1.2986
  733MOL0     N98871  11.538  11.021   6.298  1.3165  0.1496  0.0509
  733MOL0     C98872  11.293  10.334   6.964 -0.1092 -0.0553 -0.7057
  733MOL0     C98873  11.157  10.314   6.922 -0.5749  0.9152 -0.7599
  733MOL0     C98874  10.702  10.338   6.955  0.0149 -0.1074 -0.3397
  733MOL0     C98875  10.630  10.213   6.957  0.1818  0.1148  0.1122
  733MOL0     C98876  10.495  10.219   6.922 -0.1034  0.6606 -0.1663
  733MOL0     C98877  10.430  10.337   6.884 -0.2291 -0.1313 -0.1907
  733MOL0     O98878  10.300  10.319   6.838  0.2846 -0.4156 -0.7030
  733MOL0     C98879  10.211  10.432   6.850 -0.6450  0.0749 -0.0634
  733MOL0     C98880  10.218  10.511   6.717 -1.0729  0.0091  0.0439
  733MOL0     C98881  10.135  10.637   6.737 -0.2636 -1.0531  0.4088
  733MOL0     C98882  10.240  10.749   6.727  0.0971 -0.3936 -0.0687
  733MOL0     C98883  10.305  10.778   6.857 -0.1105  0.3566  0.3110
  733MOL0     C98884  10.351  10.790   6.967 -0.1638 -0.4676  0.1438
  733MOL0     C98885  10.497  10.458   6.902  0.6499  0.5925 -0.3006
  733MOL0     C98886  10.631  10.458   6.928 -0.1619 -0.5341  0.2301
  733MOL0     C98887  10.700  10.594   6.910  0.5754  0.1282  1.1844
  733MOL0     H98888  11.015  10.559   7.103  2.1018  1.6993  0.8935
  733MOL0     H98889  11.226  10.583   7.194 -0.9541 -0.2149  1.9201
  733MOL0     H98890  11.659  10.420   7.114 -0.9364  0.3371  2.9234
  733MOL0     H98891  11.557  10.303   7.047 -3.4772  0.6952 -0.7943
  733MOL0     H98892  11.502  10.541   6.887  0.7226  0.4429 -3.3839
  733MOL0     H98893  11.586  10.387   6.845 -0.6179 -1.7221  1.6166
  733MOL0     H98894  11.800  10.479   6.948 -0.5984 -0.7189  0.2011
  733MOL0     H98895  11.735  10.639   6.950 -1.1460  0.8255 -1.5432
  733MOL0     H98896  11.861  10.609   6.759  1.0664 -2.4035 -0.4765
  733MOL0     H98897  11.755  10.484   6.700 -1.7397 -0.3961  0.6131
  733MOL0     H98898  11.564  10.678   6.699  0.3521  1.1857  1.8759
  733MOL0     H98899  11.704  10.767   6.737 -1.7690 -0.0732  0.0176
  733MOL0     H98900  11.820  10.659   6.518 -0.1269  0.0440 -0.1978
  733MOL0     H98901  11.675  10.580   6.489  0.5900  0.4784 -1.4602
  733MOL0     H98902  11.714  10.760   6.346  0.4358 -1.6797  0.3552
  733MOL0     H98903  11.719  10.884   6.478  0.9125 -1.3660  1.7013
  733MOL0     H98904  11.486  10.699   6.394  0.5299 -1.2464  1.7679
  733MOL0     H98905  11.471  10.823   6.511  0.4577 -0.6935 -0.6848
  733MOL0     H98906  11.276  10.822   6.272 -3.4166  2.2173  2.6351
  733MOL0     H98907  11.189  11.164   6.187 -0.8462  0.2877 -1.1615
  733MOL0     H98908  11.278  11.129   6.042  1.4479  1.4308  1.9760
  733MOL0     H98909  11.153  10.889   6.062 -1.6998 -1.7085 -0.6200
  733MOL0     H98910  11.042  10.980   6.165  0.3072  0.6300 -0.2790
  733MOL0     H98911  11.121  11.050   5.875 -0.8501 -0.7481 -1.6361
  733MOL0     H98912  11.003  11.140   5.980 -0.3230 -0.4376  1.2710
  733MOL0     H98913  10.859  10.944   5.993  0.9207 -3.1404  0.3391
  733MOL0     H98914  10.992  10.846   5.938  1.7367 -0.0311 -2.9497
  733MOL0     H98915  10.761  10.723   5.922  1.4159  0.4732 -1.5104
  733MOL0     H98916  10.525  10.682   5.904  3.1860 -1.8835 -0.1105
  733MOL0     H98917  10.179  10.881   5.358 -2.0969 -1.9190 -2.4667
  733MOL0     H98918   9.948  10.905   5.313 -2.3248 -0.3863  0.9554
  733MOL0     H98919   9.665  10.887   5.316 -1.7173  1.3439  0.9056
  733MOL0     H98920   9.768  10.747   5.287  1.7613  2.4946  0.5459
  733MOL0     H98921   9.539  10.663   5.275  0.5117 -1.8627  0.1553
  733MOL0     H98922   9.604  10.603   5.418  0.8380  0.8202 -0.4737
  733MOL0     H98923   9.496  10.727   5.558 -1.8209  0.0679  0.3125
  733MOL0     H98924   9.448  10.857   5.456  1.7244  0.9164  1.0962
  733MOL0     H98925   9.380  10.553   5.419  0.7524  1.1407 -1.8290
  733MOL0     H98926   9.317  10.675   5.315 -0.2206  2.1792 -0.3766
  733MOL0     H98927   9.193  10.785   5.505  0.2561 -0.2554 -2.0136
  733MOL0     H98928   9.220  10.632   5.599  1.7336  0.6717  0.3220
  733MOL0     H98929   9.088  10.643   5.326  2.0494  1.2572  0.1555
  733MOL0     H98930   9.132  10.499   5.424  0.8887  0.0463 -1.1714
  733MOL0     H98931   8.933  10.715   5.528  0.9439 -0.0648  1.6147
  733MOL0     H98932   8.977  10.562   5.592 -0.3015  0.9218 -0.1779
  733MOL0     H98933   8.833  10.609   5.322 -1.6118 -1.6583 -1.0169
  733MOL0     H98934   8.874  10.446   5.391  2.1877  0.3755  0.1377
  733MOL0     H98935   9.853  10.760   5.701  1.3002  3.9091  2.3459
  733MOL0     H98936  10.088  10.750   5.763  0.0708 -1.2813  0.1525
  733MOL0     H98937  10.502  10.929   5.563 -0.6657 -2.1038  0.4592
  733MOL0     H98938  10.742  11.012   5.613  2.4529 -0.4270  1.5203
  733MOL0     H98939  11.364  10.257   6.938  0.6089 -0.6058  2.4387
  733MOL0     H98940  11.132  10.224   6.866 -1.0887 -0.4528  1.5603
  733MOL0     H98941  10.675  10.115   6.970 -1.4417 -0.8584 -1.1644
  733MOL0     H98942  10.442  10.124   6.920  0.6299  0.1353  2.4033
  733MOL0     H98943  10.242  10.493   6.935 -1.0332 -1.7381  1.4650
  733MOL0     H98944  10.109  10.393   6.862 -1.6719  2.6436  0.1312
  733MOL0     H98945  10.189  10.450   6.631  2.6275  1.6703 -2.6916
  733MOL0     H98946  10.323  10.534   6.695 -0.3049 -1.2137  2.2029
  733MOL0     H98947  10.072  10.643   6.826 -1.8619  2.0012 -0.7790
  733MOL0     H98948  10.065  10.640   6.653  0.6406  0.0953 -0.3407
  733MOL0     H98949  10.319  10.731   6.653  0.7705 -2.7742  1.1477
  733MOL0     H98950  10.189  10.837   6.686 -1.5946 -2.1384 -1.9687
  733MOL0     H98951  10.389  10.815   7.064  0.3563 -0.0961 -0.1511
  733MOL0     H98952  10.446  10.550   6.878 -0.7403 -0.2754 -0.7707
  733MOL0     H98953  10.753  10.600   6.815  2.2156 -1.8789  1.8897
  733MOL0     H98954  10.625  10.672   6.927  1.8888  1.6252  0.3458
  733MOL0     H98955  10.773  10.619   6.988  0.2067 -0.7807  1.8521
  734MOL0     O98956   3.549   6.178   0.777  0.5084 -0.7699 -0.4244
  734MOL0     C98957   3.455   6.115   0.729 -0.5264  1.0386 -0.0251
  734MOL0     O98958   3.317   6.133   0.744  0.6922  0.5276  0.2212
  734MOL0     C98959   3.277   6.220   0.845 -1.2027 -0.2065 -0.0443
  734MOL0     C98960   3.213   6.345   0.816 -0.1088  0.5492 -0.5149
  734MOL0     C98961   3.184   6.437   0.925 -0.5779 -0.4316 -0.1400
  734MOL0     C98962   3.211   6.399   1.054 -0.6681 -0.2732 -0.0490
  734MOL0     O98963   3.172   6.492   1.157  1.0021 -0.0706  0.5280
  734MOL0     C98964   3.140   6.449   1.287 -0.2856 -0.2584  0.1600
  734MOL0     C98965   3.066   6.567   1.350 -0.1040 -0.5078 -0.6866
  734MOL0     C98966   2.985   6.521   1.467  0.7241  0.0586  0.5745
  734MOL0     C98967   2.847   6.476   1.412  0.1548 -0.1769 -0.3007
  734MOL0     C98968   2.757   6.484   1.533  0.4915 -0.0187 -0.2949
  734MOL0     C98969   2.616   6.427   1.510 -0.4097  0.0716  0.0707
  734MOL0     C98970   2.541   6.437   1.637  0.6310 -0.0910 -0.6201
  734MOL0     C98971   2.391   6.400   1.596 -0.4436  0.6591  0.2626
  734MOL0     N98972   2.303   6.391   1.719  1.0417  0.6235  0.8575
  734MOL0     C98973   2.173   6.434   1.734 -0.8595 -0.3623 -0.0368
  734MOL0     C98974   2.140   6.389   1.851 -0.0121  0.1095 -0.7418
  734MOL0     C98975   2.031   6.413   1.946 -0.0177 -0.0442 -0.1498
  734MOL0     C98976   1.943   6.285   1.967 -0.4699  1.1272 -0.8700
  734MOL0     C98977   1.854   6.264   1.852 -0.2576  0.5655 -0.0699
  734MOL0     C98978   1.801   6.121   1.846  0.1610 -0.0418  0.5320
  734MOL0     O98979   1.795   6.065   1.710  0.2329 -0.3844  0.0718
  734MOL0     C98980   1.902   6.026   1.635 -1.2015 -0.5641  0.6838
  734MOL0     C98981   2.041   6.057   1.654  1.3505  1.0307  0.0151
  734MOL0     C98982   2.140   6.027   1.557  0.5203 -0.2053 -1.8600
  734MOL0     C98983   2.107   5.952   1.444  0.4687  0.4066  0.5623
  734MOL0     C98984   2.202   5.925   1.332 -0.0480 -0.0173  0.3519
  734MOL0     O98985   2.325   5.973   1.364 -0.5120 -0.1477  0.1630
  734MOL0     C98986   2.426   5.957   1.270 -0.3576 -0.3559 -0.0844
  734MOL0     C98987   2.500   6.072   1.236 -0.0315 -0.6342  0.5691
  734MOL0     C98988   2.614   6.058   1.154 -1.0486  0.0202 -0.3064
  734MOL0     C98989   2.655   5.930   1.103  0.1108 -0.0090 -0.0920
  734MOL0     O98990   2.766   5.914   1.018  0.8567  0.0350  0.7320
  734MOL0     C98991   2.887   5.976   1.065  0.2944 -0.3256  0.1070
  734MOL0     C98992   2.970   5.896   1.156 -0.4019 -0.7572  0.8492
  734MOL0     C98993   3.117   5.935   1.124  0.4348 -0.9677  0.1422
  734MOL0     C98994   3.214   5.825   1.178 -0.0174  0.4384 -0.0377
  734MOL0     C98995   3.352   5.840   1.109  0.1260 -0.1042 -0.4422
  734MOL0     C98996   3.451   5.723   1.137  1.1367  0.0490  0.4793
  734MOL0     C98997   3.570   5.732   1.024 -0.3152 -0.1525  0.9269
  734MOL0     C98998   3.652   5.598   1.005 -0.6256 -0.0897  0.2170
  734MOL0    Cl98999   3.742   5.574   1.155  0.0572  0.0389 -0.5805
  734MOL0     C99000   2.582   5.819   1.136  0.1768  0.1540  0.0153
  734MOL0     C99001   2.470   5.832   1.228 -0.5587  0.9885 -0.5000
  734MOL0     O99002   2.172   5.858   1.234 -0.9189 -0.3357 -0.2511
  734MOL0     C99003   1.978   5.911   1.434  0.5433 -0.3616 -0.3285
  734MOL0     C99004   1.878   5.936   1.530  0.1113 -0.5663 -0.0848
  734MOL0     N99005   2.237   6.309   1.896  0.3853  0.3957 -0.2879
  734MOL0     N99006   2.331   6.300   1.814 -0.2077  0.2124  0.8504
  734MOL0     C99007   3.262   6.267   1.083  0.5753 -0.5392 -0.8547
  734MOL0     C99008   3.294   6.186   0.976 -0.3377  1.1388 -1.0972
  734MOL0     C99009   3.496   6.010   0.631 -0.0615 -1.0976 -0.0232
  734MOL0     C99010   3.409   5.990   0.520 -0.0199  0.2065 -0.0629
  734MOL0     C99011   3.449   5.918   0.402 -0.1000 -0.8039 -0.3869
  734MOL0     C99012   3.579   5.871   0.386 -0.0718 -0.4109 -0.4089
  734MOL0     O99013   3.599   5.808   0.264 -0.0264  0.1988  0.5377
  734MOL0     C99014   3.714   5.721   0.249 -0.6145  0.3745 -0.4118
  734MOL0     C99015   3.730   5.663   0.112  0.4932 -0.4575  0.1114
  734MOL0     C99016   3.736   5.762  -0.006 -0.4529  0.4401  0.2060
  734MOL0     C99017   3.820   5.883   0.015  0.9170 -0.1168  0.1096
  734MOL0     C99018   3.967   5.864   0.023 -0.1656  0.3815 -0.2325
  734MOL0     C99019   4.085   5.852   0.020  0.1615  0.0844 -0.0335
  734MOL0     C99020   3.660   5.875   0.502 -0.1880  0.1403  0.1771
  734MOL0     C99021   3.620   5.935   0.627 -0.5001  0.0574 -0.3606
  734MOL0     C99022   3.717   5.930   0.749  0.2667 -0.0690  0.6883
  734MOL0     H99023   3.188   6.356   0.711  1.5555 -2.1287 -1.2966
  734MOL0     H99024   3.130   6.531   0.913 -0.9301 -0.4411  1.2490
  734MOL0     H99025   3.083   6.356   1.292 -0.8190  0.0686  0.2200
  734MOL0     H99026   3.232   6.438   1.346  0.7842 -0.5458 -1.4919
  734MOL0     H99027   3.004   6.614   1.273 -0.6428 -0.1536 -0.0540
  734MOL0     H99028   3.138   6.639   1.389 -0.7204 -0.7597  1.0067
  734MOL0     H99029   2.976   6.614   1.523 -1.3688  1.2632 -1.5890
  734MOL0     H99030   3.030   6.439   1.523 -3.6192 -2.7383  0.3960
  734MOL0     H99031   2.812   6.545   1.335 -0.2159  1.1910  1.0303
  734MOL0     H99032   2.853   6.374   1.373 -0.3501 -0.6599  0.8337
  734MOL0     H99033   2.813   6.422   1.603  0.6817 -0.7109 -1.0508
  734MOL0     H99034   2.743   6.584   1.575 -4.0751 -0.0960 -1.0975
  734MOL0     H99035   2.572   6.474   1.421  0.6013 -2.6000 -1.9562
  734MOL0     H99036   2.617   6.321   1.484 -1.9047  0.0349  0.0437
  734MOL0     H99037   2.547   6.534   1.687 -1.2926 -1.1730  1.9485
  734MOL0     H99038   2.575   6.365   1.712  4.0505  2.1144  0.1867
  734MOL0     H99039   2.337   6.465   1.526 -0.7231 -1.5634 -1.7187
  734MOL0     H99040   2.381   6.306   1.540  1.2906  0.7732 -0.2928
  734MOL0     H99041   2.110   6.506   1.682  0.2291  2.3038  2.0550
  734MOL0     H99042   2.076   6.435   2.043 -3.1676  0.4875  1.3384
  734MOL0     H99043   1.977   6.498   1.901 -0.7280 -0.8631 -0.8877
  734MOL0     H99044   2.002   6.196   1.988 -2.0720  0.0134 -0.8831
  734MOL0     H99045   1.883   6.300   2.057 -0.0523  0.6268 -0.5048
  734MOL0     H99046   1.915   6.266   1.761  0.1941 -1.2057  0.1582
  734MOL0     H99047   1.771   6.335   1.863 -1.2936 -0.7509  0.9575
  734MOL0     H99048   1.694   6.121   1.872  0.5365 -1.6684  2.2415
  734MOL0     H99049   1.846   6.049   1.914 -1.5530 -0.6077  1.1163
  734MOL0     H99050   2.068   6.118   1.740  2.2113 -0.8722  1.1555
  734MOL0     H99051   2.240   6.063   1.579  1.0607 -1.7967 -1.6015
  734MOL0     H99052   2.462   6.166   1.274 -1.3597  0.8533 -3.8543
  734MOL0     H99053   2.658   6.154   1.134 -2.2709  0.3107 -1.7898
  734MOL0     H99054   2.939   6.005   0.973 -0.5886  1.8141  0.2255
  734MOL0     H99055   2.866   6.064   1.125 -0.8109 -1.7491  1.9325
  734MOL0     H99056   2.942   5.899   1.262 -2.6677 -0.4386  0.2961
  734MOL0     H99057   2.965   5.791   1.127  0.1768  0.5173 -5.0284
  734MOL0     H99058   3.142   5.949   1.018  1.8790  0.5956  0.6576
  734MOL0     H99059   3.148   6.028   1.172  1.2535 -1.0727 -0.1678
  734MOL0     H99060   3.177   5.723   1.166 -0.4261  0.5039  0.6172
  734MOL0     H99061   3.236   5.836   1.285  0.5229  1.3774 -0.2351
  734MOL0     H99062   3.398   5.933   1.145 -0.4632  0.0444 -0.0610
  734MOL0     H99063   3.335   5.848   1.001  1.6890 -2.3983 -0.9136
  734MOL0     H99064   3.494   5.723   1.238 -0.7500  2.0367  1.3792
  734MOL0     H99065   3.405   5.626   1.117  4.5072 -1.1558 -2.4223
  734MOL0     H99066   3.632   5.809   1.070  0.8239 -0.9021  0.6886
  734MOL0     H99067   3.534   5.777   0.931  1.1400 -2.8866 -1.1243
  734MOL0     H99068   3.585   5.514   0.986  1.7214 -1.2984 -3.8408
  734MOL0     H99069   3.724   5.582   0.925 -1.5203 -3.1518 -0.0838
  734MOL0     H99070   2.604   5.718   1.103  0.2379 -0.5269  2.0318
  734MOL0     H99071   2.403   5.747   1.239 -0.8112  0.9931 -1.8091
  734MOL0     H99072   1.950   5.861   1.342 -1.5805  1.8830 -1.0405
  734MOL0     H99073   1.777   5.902   1.510 -0.0892  1.3259 -2.8237
  734MOL0     H99074   3.273   6.239   1.187  2.1665 -0.7294 -1.0567
  734MOL0     H99075   3.342   6.091   0.998 -1.4174  0.8705  0.2503
  734MOL0     H99076   3.312   6.037   0.506  0.3594  1.5846  1.6250
  734MOL0     H99077   3.379   5.904   0.321  0.8206 -2.8756 -0.8943
  734MOL0     H99078   3.718   5.630   0.309 -0.5241  1.0558  0.6480
  734MOL0     H99079   3.800   5.784   0.274  0.3032 -1.1406  0.4007
  734MOL0     H99080   3.647   5.595   0.092  2.7934 -3.9158  1.3946
  734MOL0     H99081   3.827   5.612   0.120  1.9041  2.2049  1.4522
  734MOL0     H99082   3.637   5.798  -0.036 -0.2201 -0.0443 -1.2507
  734MOL0     H99083   3.784   5.698  -0.081 -1.0888  1.1576 -0.8447
  734MOL0     H99084   3.797   5.961  -0.058 -2.1505  0.0722  1.1597
  734MOL0     H99085   3.785   5.921   0.111 -0.1129 -1.7198  0.4015
  734MOL0     H99086   4.189   5.830   0.022  0.0813 -0.3758 -0.5815
  734MOL0     H99087   3.751   5.817   0.505 -1.3229 -1.6992  0.9115
  734MOL0     H99088   3.803   5.992   0.722  0.1655 -0.0415  0.4217
  734MOL0     H99089   3.668   5.964   0.841 -2.5571 -0.3535 -0.6085
  734MOL0     H99090   3.756   5.828   0.755 -1.4257 -1.0016 -2.2530
  735MOL0     O99091   7.145   4.469   6.179 -0.0151 -0.2632 -0.0613
  735MOL0     C99092   7.073   4.376   6.207  0.1307  0.3914 -0.3475
  735MOL0     O99093   7.104   4.249   6.195 -0.4992 -0.1618  0.2428
  735MOL0     C99094   7.240   4.223   6.180 -0.2587  0.0921 -0.4012
  735MOL0     C99095   7.270   4.129   6.080 -0.7924 -0.7975  0.2949
  735MOL0     C99096   7.408   4.087   6.062  0.6341  0.9026 -0.4249
  735MOL0     C99097   7.509   4.150   6.136  0.2662 -0.8449 -1.0183
  735MOL0     O99098   7.641   4.131   6.114 -0.3833 -0.3681  0.7799
  735MOL0     C99099   7.693   4.101   5.979  0.2604  0.7911  0.7267
  735MOL0     C99100   7.841   4.090   5.978 -1.1729  1.0498 -0.7261
  735MOL0     C99101   7.907   3.967   6.060 -0.1330  0.4625 -0.0527
  735MOL0     C99102   8.059   3.952   6.042  0.2032 -0.1628  0.1388
  735MOL0     C99103   8.126   3.927   5.900 -0.0048  0.2950 -0.4854
  735MOL0     C99104   8.066   3.813   5.822  1.1756  0.2747  0.5618
  735MOL0     C99105   8.160   3.795   5.692 -0.6583 -0.3015 -0.6810
  735MOL0     C99106   8.136   3.895   5.587 -0.0639 -0.1979  0.6677
  735MOL0     N99107   7.995   3.903   5.545  0.1965 -0.0056  0.2274
  735MOL0     C99108   7.906   3.999   5.580 -0.5412  0.2416 -0.5911
  735MOL0     C99109   7.791   3.956   5.537  0.4682 -0.2588  0.0492
  735MOL0     C99110   7.662   4.027   5.573 -0.2169 -0.0851  0.6233
  735MOL0     C99111   7.557   3.992   5.478 -0.1650 -0.1739 -0.4152
  735MOL0     C99112   7.420   4.062   5.525 -0.6619 -0.3330 -0.7281
  735MOL0     C99113   7.343   4.005   5.651  0.7513  1.5792  0.3096
  735MOL0     O99114   7.275   4.111   5.708  0.2531 -0.7858 -0.0729
  735MOL0     C99115   7.132   4.120   5.699 -0.9399  0.9288 -0.8218
  735MOL0     C99116   7.066   4.209   5.791  0.3701  0.3612 -0.0469
  735MOL0     C99117   6.928   4.199   5.799  0.7032  0.4848  0.1254
  735MOL0     C99118   6.842   4.123   5.708 -1.2811 -0.7779 -0.5750
  735MOL0     C99119   6.697   4.102   5.732 -0.9709  0.0793  0.1575
  735MOL0     O99120   6.636   4.159   5.842 -0.0435  0.2779  0.0699
  735MOL0     C99121   6.499   4.171   5.857  0.3606 -0.0060 -0.4515
  735MOL0     C99122   6.401   4.172   5.758 -0.5891  0.5487  0.3029
  735MOL0     C99123   6.266   4.170   5.785  0.2830  0.3336  1.1455
  735MOL0     C99124   6.223   4.172   5.916 -0.3846 -0.0779 -0.2509
  735MOL0     O99125   6.095   4.186   5.952 -0.5226  0.7584 -0.5205
  735MOL0     C99126   6.000   4.129   5.857  0.4046  0.2467  0.4473
  735MOL0     C99127   5.857   4.114   5.920  0.3006  0.4318 -0.1034
  735MOL0     C99128   5.787   4.243   5.925 -0.2931 -0.7661 -0.7302
  735MOL0     C99129   5.634   4.239   5.956  0.2779  0.1791  0.3997
  735MOL0     C99130   5.538   4.194   5.836  0.5126 -0.4395 -0.8840
  735MOL0     C99131   5.393   4.237   5.849 -0.3470  0.5730 -0.1189
  735MOL0     C99132   5.312   4.132   5.920  0.1204  0.0607  0.0336
  735MOL0     C99133   5.159   4.144   5.903 -0.3294 -0.0802 -0.0722
  735MOL0    Cl99134   5.118   4.310   5.873 -0.1699  0.1894 -0.4137
  735MOL0     C99135   6.314   4.169   6.020 -0.0961 -0.2507  0.0422
  735MOL0     C99136   6.455   4.162   5.991 -0.5683  0.7422 -0.3823
  735MOL0     O99137   6.630   4.033   5.653  0.8702  0.0193  0.3387
  735MOL0     C99138   6.909   4.068   5.600 -0.0257 -0.3840 -0.4535
  735MOL0     C99139   7.052   4.054   5.594  0.0785 -0.0206 -0.1598
  735MOL0     N99140   7.805   3.830   5.490  0.2458  0.5974  0.1626
  735MOL0     N99141   7.932   3.791   5.493  0.4943 -0.4179  0.3845
  735MOL0     C99142   7.472   4.245   6.235  0.9519  0.4059 -0.1453
  735MOL0     C99143   7.338   4.274   6.265 -1.2325  0.2446 -0.7775
  735MOL0     C99144   6.923   4.402   6.236 -0.0441  0.1087 -0.7813
  735MOL0     C99145   6.890   4.537   6.273  0.3119  0.4202  0.6773
  735MOL0     C99146   6.755   4.574   6.288 -1.2428 -0.5905  0.6583
  735MOL0     C99147   6.653   4.483   6.288 -0.7769 -0.1267 -0.2630
  735MOL0     O99148   6.524   4.516   6.301 -0.0703 -0.3448  0.1036
  735MOL0     C99149   6.492   4.651   6.332  0.1278  0.8521 -0.1729
  735MOL0     C99150   6.345   4.654   6.369 -0.8081 -0.4017 -0.1751
  735MOL0     C99151   6.247   4.594   6.281  0.2626 -0.9256 -0.4837
  735MOL0     C99152   6.102   4.596   6.345 -0.1390 -0.8667 -0.1875
  735MOL0     C99153   5.991   4.576   6.244  0.9897 -0.2022  0.1458
  735MOL0     C99154   5.896   4.588   6.167  0.2815 -0.8140 -0.4896
  735MOL0     C99155   6.689   4.345   6.270 -1.3478  0.1444  1.2704
  735MOL0     C99156   6.823   4.300   6.239 -0.0726 -0.5943 -0.4068
  735MOL0     C99157   6.844   4.156   6.223  0.4608  0.3130  0.1209
  735MOL0     H99158   7.190   4.093   6.016 -0.6054  0.4204 -0.6753
  735MOL0     H99159   7.439   4.009   5.993 -0.9436 -0.5027  0.3709
  735MOL0     H99160   7.666   3.999   5.951  2.6841 -0.1371  1.5306
  735MOL0     H99161   7.666   4.174   5.902 -1.4765  0.7528  1.2607
  735MOL0     H99162   7.892   4.175   6.024 -0.8664  0.9476 -0.8823
  735MOL0     H99163   7.866   4.092   5.872 -0.0227  3.4556 -0.4880
  735MOL0     H99164   7.858   3.874   6.034 -2.6022  1.9761 -1.1758
  735MOL0     H99165   7.884   3.973   6.166 -1.7181  1.6398 -0.4274
  735MOL0     H99166   8.112   4.035   6.090  1.5022  0.9980 -3.0111
  735MOL0     H99167   8.091   3.864   6.098  2.1192  0.2745 -0.2123
  735MOL0     H99168   8.134   4.017   5.838  0.4233 -0.6291 -1.8290
  735MOL0     H99169   8.231   3.906   5.920  0.6656  0.3227 -3.5031
  735MOL0     H99170   8.052   3.720   5.878  1.2735  1.2297  2.2563
  735MOL0     H99171   7.965   3.840   5.790  1.2866 -0.8037 -0.7701
  735MOL0     H99172   8.129   3.701   5.645 -3.2284  0.0355  0.1775
  735MOL0     H99173   8.260   3.788   5.735 -1.8131 -1.9832  2.0746
  735MOL0     H99174   8.167   3.994   5.624  1.1129 -0.2936 -0.0036
  735MOL0     H99175   8.189   3.868   5.496 -1.5407  0.4676 -0.4292
  735MOL0     H99176   7.908   4.088   5.642  0.3528 -1.3845  1.8482
  735MOL0     H99177   7.632   4.012   5.676 -1.3472  2.0721  0.6687
  735MOL0     H99178   7.691   4.132   5.562  5.3407 -1.0826  2.6017
  735MOL0     H99179   7.579   4.050   5.389  1.5678  1.8829  1.2417
  735MOL0     H99180   7.539   3.885   5.464  1.6513 -0.5226 -0.2766
  735MOL0     H99181   7.358   4.078   5.437  0.0218  0.2049 -1.1289
  735MOL0     H99182   7.446   4.165   5.553 -1.8206  0.0191 -0.8956
  735MOL0     H99183   7.420   3.965   5.718 -0.8085 -0.3627  1.0366
  735MOL0     H99184   7.283   3.923   5.611  1.4387  2.2721 -2.3406
  735MOL0     H99185   7.117   4.271   5.864 -3.3179  0.6415  2.5653
  735MOL0     H99186   6.879   4.251   5.881 -2.0225 -2.6260  0.7167
  735MOL0     H99187   6.433   4.176   5.654  0.0840  0.3661  0.4974
  735MOL0     H99188   6.195   4.169   5.703  1.2223 -0.4834  0.3219
  735MOL0     H99189   5.994   4.182   5.761  1.3190 -3.1931 -1.6902
  735MOL0     H99190   6.037   4.028   5.837  1.3091 -1.1721  7.0255
  735MOL0     H99191   5.796   4.052   5.853 -2.0044  0.0162  2.1800
  735MOL0     H99192   5.854   4.050   6.009  1.2466  0.1005 -0.2977
  735MOL0     H99193   5.826   4.298   6.012 -1.5512  2.0849 -1.8218
  735MOL0     H99194   5.803   4.299   5.833 -0.4793 -0.7996 -0.7827
  735MOL0     H99195   5.601   4.342   5.977  0.8476 -0.0225  2.5669
  735MOL0     H99196   5.620   4.191   6.053  0.7964  1.0719  0.9351
  735MOL0     H99197   5.546   4.085   5.831  2.5961 -0.4449  0.9045
  735MOL0     H99198   5.575   4.241   5.744  1.5879  1.2469  0.3343
  735MOL0     H99199   5.385   4.331   5.903 -0.6436  1.3293 -1.4325
  735MOL0     H99200   5.363   4.251   5.745 -0.1522  0.6527 -0.1653
  735MOL0     H99201   5.320   4.141   6.028  1.6422 -1.3024  0.0655
  735MOL0     H99202   5.336   4.027   5.901 -0.1196 -0.0152  0.1407
  735MOL0     H99203   5.129   4.080   5.819 -1.4492 -0.4580  0.5879
  735MOL0     H99204   5.098   4.116   5.989 -0.8679  0.9412 -0.1115
  735MOL0     H99205   6.271   4.168   6.120  2.6881  0.3471  1.3308
  735MOL0     H99206   6.532   4.163   6.068 -0.5842  0.7515 -0.3665
  735MOL0     H99207   6.857   4.042   5.508  1.6194 -1.1421 -1.2145
  735MOL0     H99208   7.113   4.016   5.512  0.9930 -1.2392  1.0409
  735MOL0     H99209   7.545   4.287   6.303 -0.1785  0.1365  1.2913
  735MOL0     H99210   7.306   4.336   6.348 -1.4704 -1.4055  0.4006
  735MOL0     H99211   6.967   4.611   6.257 -0.4402  1.0291 -0.2702
  735MOL0     H99212   6.737   4.680   6.300  0.2055 -0.1683 -0.6026
  735MOL0     H99213   6.493   4.714   6.243 -1.5204  0.3943 -0.5524
  735MOL0     H99214   6.561   4.693   6.406  1.7701 -3.4172  1.0177
  735MOL0     H99215   6.306   4.756   6.378  0.2326  0.1295 -1.4003
  735MOL0     H99216   6.354   4.620   6.472  2.9735 -2.9466 -1.1627
  735MOL0     H99217   6.273   4.489   6.261  0.1490 -1.4459  1.8325
  735MOL0     H99218   6.243   4.645   6.184  1.5042 -1.3520 -0.7811
  735MOL0     H99219   6.096   4.527   6.430 -1.6650  0.1169  0.5377
  735MOL0     H99220   6.091   4.694   6.393 -0.0733 -0.4659 -0.9758
  735MOL0     H99221   5.822   4.594   6.090  0.2381  1.5178 -0.3393
  735MOL0     H99222   6.606   4.280   6.248  1.1914 -2.6611 -0.7739
  735MOL0     H99223   6.754   4.097   6.246  1.9277 -2.0059  0.3106
  735MOL0     H99224   6.879   4.130   6.123 -2.3248  3.2877 -1.8253
  735MOL0     H99225   6.912   4.135   6.306  0.0443  1.3963  0.7633
  736MOL0     O99226   6.401   3.142   0.572 -0.3234  1.1889  0.6837
  736MOL0     C99227   6.381   3.239   0.637  0.6506  0.1739 -0.0013
  736MOL0     O99228   6.464   3.295   0.728  0.1284  0.6885  0.0044
  736MOL0     C99229   6.567   3.231   0.776 -0.1038 -0.1842 -0.5225
  736MOL0     C99230   6.696   3.248   0.725  1.5285  0.2392 -1.0706
  736MOL0     C99231   6.796   3.173   0.775  0.1378 -0.0558 -1.0626
  736MOL0     C99232   6.782   3.080   0.880  0.8104 -0.0198 -0.3826
  736MOL0     O99233   6.885   3.008   0.935  0.1670  0.9273  0.6737
  736MOL0     C99234   7.022   3.041   0.899  0.6419 -0.4287 -0.2159
  736MOL0     C99235   7.111   2.969   0.996  0.6585 -0.5499  0.2531
  736MOL0     C99236   7.256   3.026   0.982  0.8227 -0.5580 -0.5939
  736MOL0     C99237   7.354   2.948   1.061  0.6976  0.7920  0.2102
  736MOL0     C99238   7.497   2.988   1.026  0.4188  0.3142 -0.3897
  736MOL0     C99239   7.596   2.976   1.133  0.2559  0.2967 -0.4534
  736MOL0     C99240   7.593   2.848   1.211 -0.0400  0.3416  0.4437
  736MOL0     C99241   7.682   2.846   1.332 -0.6601  0.7325  0.2130
  736MOL0     N99242   7.666   2.729   1.416 -0.6839  0.2823 -0.2132
  736MOL0     C99243   7.751   2.689   1.513 -0.3024 -0.6070  0.4130
  736MOL0     C99244   7.682   2.591   1.576  0.7677  0.1054 -1.0901
  736MOL0     C99245   7.729   2.502   1.695 -0.0795  0.2670 -0.1502
  736MOL0     C99246   7.875   2.519   1.724 -0.0466  0.4623 -0.5598
  736MOL0     C99247   7.945   2.390   1.762  1.0435  0.6286  0.1539
  736MOL0     C99248   8.086   2.406   1.817  0.5137  0.9812 -0.0366
  736MOL0     O99249   8.143   2.277   1.847  0.4726  0.1837  0.0424
  736MOL0     C99250   8.272   2.260   1.895  0.1931 -1.1170  0.2113
  736MOL0     C99251   8.318   2.127   1.913  0.4894 -0.2994  0.4164
  736MOL0     C99252   8.436   2.093   1.985  0.0666 -0.9246  0.4515
  736MOL0     C99253   8.509   2.197   2.041 -0.0992 -0.4962 -0.2823
  736MOL0     C99254   8.627   2.166   2.134 -0.7501  0.1117  0.0731
  736MOL0     O99255   8.664   2.027   2.132 -0.3278 -0.6580 -0.5704
  736MOL0     C99256   8.787   1.995   2.189  0.3519 -0.3580 -0.1767
  736MOL0     C99257   8.793   1.941   2.311  0.0507 -0.0482  0.3066
  736MOL0     C99258   8.913   1.929   2.377  0.0997  0.3372 -0.2934
  736MOL0     C99259   9.032   1.961   2.313 -0.3858 -0.2483  0.2353
  736MOL0     O99260   9.159   1.953   2.373  0.6896 -0.4232  0.5199
  736MOL0     C99261   9.157   1.922   2.515  0.4452  0.5422  0.5631
  736MOL0     C99262   9.291   1.951   2.581 -0.0267 -0.2731 -0.7971
  736MOL0     C99263   9.322   2.103   2.619 -0.3902 -0.2015  0.0630
  736MOL0     C99264   9.296   2.122   2.769 -0.0295  1.5342  0.2402
  736MOL0     C99265   9.278   2.274   2.803 -0.1480  0.2163 -0.4668
  736MOL0     C99266   9.310   2.299   2.945  0.6622 -0.0893  0.3868
  736MOL0     C99267   9.289   2.459   2.958  0.6342 -0.3835  0.1709
  736MOL0     C99268   9.313   2.498   3.105 -0.3087  0.5592  0.2849
  736MOL0    Cl99269   9.242   2.400   3.238  0.4030 -0.2902  0.2867
  736MOL0     C99270   9.023   2.021   2.187 -0.9561 -0.0447  0.5478
  736MOL0     C99271   8.904   2.033   2.125  0.1324 -1.1718 -0.6131
  736MOL0     O99272   8.677   2.255   2.200  0.2355 -0.0498  0.8217
  736MOL0     C99273   8.468   2.329   2.028 -0.1890  0.4184 -0.0656
  736MOL0     C99274   8.353   2.360   1.956  0.3860  0.0694 -0.0079
  736MOL0     N99275   7.564   2.586   1.514 -0.7377  0.4038 -0.7270
  736MOL0     N99276   7.545   2.666   1.423  0.3478  0.4276 -0.2190
  736MOL0     C99277   6.654   3.065   0.942 -0.3459 -0.5657  0.5602
  736MOL0     C99278   6.549   3.135   0.881 -0.6507 -0.2701 -1.3876
  736MOL0     C99279   6.262   3.307   0.606  0.4714 -0.0657  0.8551
  736MOL0     C99280   6.267   3.445   0.627 -0.7747  0.4865 -0.0331
  736MOL0     C99281   6.154   3.523   0.602  0.3846 -0.6259  0.2701
  736MOL0     C99282   6.036   3.468   0.545 -0.3304  0.2614  0.5848
  736MOL0     O99283   5.931   3.554   0.518  0.3898 -0.7504 -0.0047
  736MOL0     C99284   5.806   3.502   0.462  0.7699 -0.1699 -0.1716
  736MOL0     C99285   5.782   3.577   0.330  0.4116 -0.8109  0.5598
  736MOL0     C99286   5.637   3.577   0.280 -0.2521  0.3499  1.0463
  736MOL0     C99287   5.630   3.664   0.154  0.1527  0.0442  0.0902
  736MOL0     C99288   5.490   3.686   0.122 -0.3064  0.2453 -0.4034
  736MOL0     C99289   5.371   3.691   0.103 -0.7685 -0.3047  0.6329
  736MOL0     C99290   6.042   3.333   0.509 -1.4033  0.2515 -0.0136
  736MOL0     C99291   6.143   3.255   0.548 -0.3626  0.6815 -0.7518
  736MOL0     C99292   6.110   3.110   0.533 -0.2420  0.9726 -0.0391
  736MOL0     H99293   6.717   3.314   0.641  0.6451 -0.6639 -2.0249
  736MOL0     H99294   6.896   3.180   0.732  0.5529 -1.2927 -0.3553
  736MOL0     H99295   7.041   3.034   0.791 -0.8400  2.5779 -0.8016
  736MOL0     H99296   7.043   3.145   0.926  0.3326 -0.3661 -0.2139
  736MOL0     H99297   7.117   2.860   0.990 -1.6513 -0.9556  3.0280
  736MOL0     H99298   7.080   3.000   1.096  0.0199 -1.7897  0.4557
  736MOL0     H99299   7.250   3.133   1.006 -1.5144 -0.3829 -1.7165
  736MOL0     H99300   7.287   3.023   0.877  3.2422 -1.8721  0.0839
  736MOL0     H99301   7.334   2.955   1.168 -3.2616  1.8120 -0.4364
  736MOL0     H99302   7.344   2.840   1.048 -2.2835  0.7338  2.1562
  736MOL0     H99303   7.529   2.922   0.945  0.4147  1.6909 -1.5525
  736MOL0     H99304   7.514   3.090   0.993 -0.4428  0.1828 -1.2872
  736MOL0     H99305   7.694   2.982   1.086  1.4092 -0.9074  1.6876
  736MOL0     H99306   7.585   3.069   1.189 -1.2866  1.9185 -3.1673
  736MOL0     H99307   7.617   2.771   1.137 -2.9444 -0.6977  0.4394
  736MOL0     H99308   7.491   2.823   1.242 -1.0169  1.5388 -1.6031
  736MOL0     H99309   7.783   2.860   1.292 -0.9213  3.2544  0.2997
  736MOL0     H99310   7.672   2.933   1.398  1.2632  1.1517  0.0276
  736MOL0     H99311   7.853   2.724   1.529 -0.3916 -0.8357  1.5507
  736MOL0     H99312   7.659   2.519   1.777 -0.4671  0.2419 -0.4661
  736MOL0     H99313   7.710   2.400   1.659 -1.1322  0.3144  0.2515
  736MOL0     H99314   7.927   2.573   1.644 -0.1933 -2.4541 -2.8151
  736MOL0     H99315   7.880   2.586   1.811 -0.3233 -2.0361  1.5074
  736MOL0     H99316   7.952   2.327   1.673 -2.0119 -1.3526  1.1651
  736MOL0     H99317   7.887   2.337   1.837  1.1044  2.5366  1.6291
  736MOL0     H99318   8.072   2.458   1.913 -3.7293  0.1570 -0.0008
  736MOL0     H99319   8.154   2.463   1.754  1.5417  0.3055  0.4270
  736MOL0     H99320   8.256   2.044   1.878 -3.5870  3.2545 -1.7739
  736MOL0     H99321   8.458   1.989   2.004  0.6200 -0.8046  0.4792
  736MOL0     H99322   8.702   1.911   2.362  1.1308  1.1657  3.1697
  736MOL0     H99323   8.891   1.887   2.475 -3.0076  1.3662 -0.4112
  736MOL0     H99324   9.086   1.985   2.569 -1.0979 -1.3464  0.8843
  736MOL0     H99325   9.120   1.820   2.532 -2.2139  1.2802 -0.2023
  736MOL0     H99326   9.301   1.884   2.666 -0.0298 -1.8113 -1.9799
  736MOL0     H99327   9.373   1.919   2.516  0.1223 -2.5815  0.4418
  736MOL0     H99328   9.428   2.128   2.601 -0.8434  1.4689 -0.5244
  736MOL0     H99329   9.264   2.171   2.555  1.9244  1.5961 -0.2953
  736MOL0     H99330   9.385   2.091   2.823  0.5598  0.5378 -1.2224
  736MOL0     H99331   9.210   2.065   2.807  0.8591 -1.2930 -1.6612
  736MOL0     H99332   9.179   2.311   2.776  0.0353  2.2409  1.4203
  736MOL0     H99333   9.352   2.325   2.741  0.5537 -0.5055 -0.2492
  736MOL0     H99334   9.239   2.238   3.002 -0.9392 -1.7260 -3.0729
  736MOL0     H99335   9.411   2.262   2.964  1.9854  2.5015 -1.0592
  736MOL0     H99336   9.186   2.480   2.928  0.2083 -0.7449  1.3052
  736MOL0     H99337   9.354   2.525   2.900 -0.2498  0.7097  0.3908
  736MOL0     H99338   9.421   2.502   3.121 -0.3937 -2.4759  2.5695
  736MOL0     H99339   9.268   2.598   3.107  0.0818  0.7458  2.3687
  736MOL0     H99340   9.118   2.055   2.147 -0.2403 -0.1493  2.0876
  736MOL0     H99341   8.886   2.084   2.031  3.6137 -0.7860 -1.2011
  736MOL0     H99342   8.528   2.413   2.063  0.2638 -0.4608  1.3562
  736MOL0     H99343   8.324   2.465   1.951  0.9716  0.2293 -0.2757
  736MOL0     H99344   6.641   3.008   1.034 -0.6641 -1.6808 -0.1613
  736MOL0     H99345   6.446   3.134   0.913  0.0612  1.2373  1.2090
  736MOL0     H99346   6.358   3.491   0.664  0.0201  1.2392 -2.6654
  736MOL0     H99347   6.162   3.630   0.623  2.1929 -0.4213 -1.2634
  736MOL0     H99348   5.734   3.528   0.539  1.4234  5.7582 -1.0711
  736MOL0     H99349   5.798   3.396   0.439 -0.4201  0.2948 -2.1381
  736MOL0     H99350   5.842   3.538   0.247 -1.5081 -0.2841 -1.1627
  736MOL0     H99351   5.814   3.679   0.354 -0.1384 -0.6001  0.4069
  736MOL0     H99352   5.569   3.603   0.362  0.5743 -3.6897  3.2675
  736MOL0     H99353   5.610   3.474   0.254  0.4996  0.3056  0.3997
  736MOL0     H99354   5.681   3.757   0.183 -0.2017 -0.6924  3.5385
  736MOL0     H99355   5.688   3.623   0.071  3.4381  1.2931  1.5861
  736MOL0     H99356   5.270   3.702   0.069 -0.4712  1.4462  0.2199
  736MOL0     H99357   5.967   3.285   0.446  0.8579 -0.8275 -2.0410
  736MOL0     H99358   6.004   3.096   0.556 -0.0410 -0.9602 -0.0934
  736MOL0     H99359   6.124   3.070   0.433  3.2328  1.7389  0.0248
  736MOL0     H99360   6.161   3.037   0.596 -2.2438  0.4251  1.0460
  737MOL0     O99361   3.273   5.983   7.698  0.3905 -0.3193 -0.2042
  737MOL0     C99362   3.211   6.078   7.649  0.2381 -0.6497  0.5085
  737MOL0     O99363   3.262   6.201   7.627  0.0906 -0.2143  0.6938
  737MOL0     C99364   3.390   6.225   7.654  0.6407  0.0164 -0.1579
  737MOL0     C99365   3.458   6.187   7.771 -0.4325 -0.2894 -0.7973
  737MOL0     C99366   3.593   6.229   7.800 -0.7223 -0.0316 -0.3308
  737MOL0     C99367   3.664   6.317   7.713 -0.0854  0.6520  0.3689
  737MOL0     O99368   3.794   6.351   7.725 -0.5895  0.7962  0.0382
  737MOL0     C99369   3.877   6.255   7.787 -0.1256 -0.9010  0.2749
  737MOL0     C99370   4.009   6.277   7.710 -0.0152 -0.4768 -0.4138
  737MOL0     C99371   4.120   6.182   7.750  1.0201  0.7669 -0.4196
  737MOL0     C99372   4.265   6.231   7.778  0.4304 -0.0415  0.2616
  737MOL0     C99373   4.325   6.321   7.670 -0.4099  0.3763  0.5256
  737MOL0     C99374   4.452   6.387   7.729 -0.2993 -0.0902 -0.1130
  737MOL0     C99375   4.500   6.487   7.629 -0.1586 -0.0027 -0.2127
  737MOL0     C99376   4.576   6.435   7.510  0.0970 -0.5264 -0.8234
  737MOL0     N99377   4.483   6.431   7.386  0.1520 -0.5543 -0.5734
  737MOL0     C99378   4.414   6.324   7.320  0.1751 -0.1823 -0.6666
  737MOL0     C99379   4.344   6.382   7.227 -0.6599  0.3869 -0.8455
  737MOL0     C99380   4.279   6.289   7.132  0.0911 -0.3089 -0.1308
  737MOL0     C99381   4.221   6.351   7.010 -1.3058 -0.2172 -1.3161
  737MOL0     C99382   4.145   6.237   6.932 -0.1721 -0.0038  0.3966
  737MOL0     C99383   4.032   6.167   7.012  0.2562  0.0660  0.4518
  737MOL0     O99384   3.939   6.101   6.917  0.1126 -0.5651 -0.3350
  737MOL0     C99385   3.808   6.094   6.955  0.5675  0.6645  0.3227
  737MOL0     C99386   3.772   6.043   7.075  1.1867  0.9156 -0.9647
  737MOL0     C99387   3.637   6.030   7.113 -0.1823 -0.1142 -0.6321
  737MOL0     C99388   3.536   6.076   7.036  0.5539 -0.3604 -0.3344
  737MOL0     C99389   3.387   6.075   7.064  1.1685  0.3061 -0.6757
  737MOL0     O99390   3.306   6.089   6.958  0.1843  0.2206  0.0600
  737MOL0     C99391   3.176   6.045   6.958  0.1042 -0.7639  0.6867
  737MOL0     C99392   3.094   6.116   6.867  0.0508  0.1088  0.5595
  737MOL0     C99393   2.955   6.075   6.855 -0.2260 -1.0162 -0.0062
  737MOL0     C99394   2.910   5.967   6.932 -0.1806  0.6703  0.0374
  737MOL0     O99395   2.781   5.932   6.925 -0.0366  0.6209  1.0278
  737MOL0     C99396   2.698   6.014   6.991  0.4591 -0.2717 -0.0441
  737MOL0     C99397   2.552   5.980   6.938  0.3916  0.4375 -0.6143
  737MOL0     C99398   2.449   6.069   6.997  0.0418  0.0466  0.4015
  737MOL0     C99399   2.312   6.028   6.941 -0.8946  0.5379 -0.2371
  737MOL0     C99400   2.192   6.063   7.047  1.0682 -0.7816  1.3337
  737MOL0     C99401   2.060   5.986   7.024 -0.2575 -0.2015 -0.0695
  737MOL0     C99402   1.956   6.021   7.126 -0.1731 -0.8435  0.3031
  737MOL0     C99403   1.829   5.948   7.096 -0.3455 -1.0963 -0.7178
  737MOL0    Cl99404   1.849   5.776   7.088 -0.2169 -0.4060  0.2526
  737MOL0     C99405   2.994   5.900   7.015  0.2266 -0.2303 -0.2949
  737MOL0     C99406   3.123   5.940   7.029 -0.0056 -0.1721 -0.3714
  737MOL0     O99407   3.345   6.052   7.182  0.1057  0.0593 -0.1789
  737MOL0     C99408   3.564   6.120   6.908 -0.7668  0.0812  0.1546
  737MOL0     C99409   3.702   6.132   6.870  0.2141  0.2804 -0.2830
  737MOL0     N99410   4.361   6.518   7.218 -0.1984 -1.0340  0.3108
  737MOL0     N99411   4.447   6.551   7.311 -0.4960  0.4791  0.4791
  737MOL0     C99412   3.586   6.352   7.597 -0.1228 -0.0214  0.7197
  737MOL0     C99413   3.452   6.314   7.569 -0.9485  0.0346 -0.3192
  737MOL0     C99414   3.063   6.071   7.619 -0.8028  0.1152 -0.4055
  737MOL0     C99415   3.006   6.182   7.558  0.2888  0.2244  0.7985
  737MOL0     C99416   2.871   6.171   7.518 -0.2207 -0.2728 -0.3189
  737MOL0     C99417   2.798   6.058   7.537 -0.4817 -0.6377  0.9330
  737MOL0     O99418   2.670   6.030   7.476  0.6901  0.3552  0.1258
  737MOL0     C99419   2.602   6.129   7.380 -0.5614  1.3269  0.6929
  737MOL0     C99420   2.489   6.191   7.458  0.4309  0.4617  0.2402
  737MOL0     C99421   2.369   6.085   7.474 -0.5655 -0.9344 -0.3068
  737MOL0     C99422   2.229   6.136   7.503 -0.8749 -0.3634  0.0023
  737MOL0     C99423   2.171   6.214   7.396  0.0112  0.1142  0.2862
  737MOL0     C99424   2.131   6.299   7.314 -0.6572  0.0157  0.3321
  737MOL0     C99425   2.849   5.949   7.610  0.3829 -0.6053  0.9850
  737MOL0     C99426   2.984   5.950   7.652 -0.6297  1.3862 -0.4891
  737MOL0     C99427   3.028   5.824   7.731  0.2201  1.1113 -0.0970
  737MOL0     H99428   3.412   6.133   7.854  0.0875 -1.0986 -1.0313
  737MOL0     H99429   3.644   6.195   7.890 -3.3037  1.9062  2.0197
  737MOL0     H99430   3.891   6.279   7.893  5.1718  0.4188 -0.4059
  737MOL0     H99431   3.857   6.148   7.791  4.1956 -1.8484  2.7770
  737MOL0     H99432   4.046   6.378   7.727  1.2538 -1.1055  0.7461
  737MOL0     H99433   3.995   6.271   7.601 -0.6338  0.5263 -0.4041
  737MOL0     H99434   4.127   6.120   7.660  0.0357  0.1151 -0.0583
  737MOL0     H99435   4.087   6.118   7.832 -0.3135  1.4936 -0.3569
  737MOL0     H99436   4.271   6.287   7.872  0.6028 -0.5394  0.5551
  737MOL0     H99437   4.335   6.146   7.780  1.6053  0.9087  1.7749
  737MOL0     H99438   4.351   6.270   7.577 -1.3621  2.7176 -1.1253
  737MOL0     H99439   4.254   6.401   7.648 -0.7720  0.3203  1.4296
  737MOL0     H99440   4.425   6.441   7.819  0.2772  1.4211 -0.8033
  737MOL0     H99441   4.526   6.309   7.751  0.0174  0.5339  1.1051
  737MOL0     H99442   4.573   6.547   7.684  0.7688  0.2261 -1.6176
  737MOL0     H99443   4.423   6.555   7.591  0.8127  2.2171  1.5374
  737MOL0     H99444   4.653   6.509   7.487 -0.3065 -0.1964 -1.1059
  737MOL0     H99445   4.624   6.343   7.545 -0.1818  0.7693  3.5812
  737MOL0     H99446   4.392   6.220   7.342  0.1403 -0.5901 -2.4988
  737MOL0     H99447   4.358   6.219   7.102 -0.2417  0.1099 -2.1032
  737MOL0     H99448   4.205   6.235   7.193 -0.0965 -0.1934 -0.2576
  737MOL0     H99449   4.148   6.430   7.031 -1.1254  0.7005 -3.7444
  737MOL0     H99450   4.299   6.404   6.954 -2.0211  1.7317 -0.5832
  737MOL0     H99451   4.220   6.160   6.913  0.5396  0.0682  2.5691
  737MOL0     H99452   4.113   6.268   6.832  0.6946 -0.2460  0.0336
  737MOL0     H99453   3.978   6.246   7.065  1.3431  1.6636 -0.7461
  737MOL0     H99454   4.071   6.100   7.089  1.3879  1.3017  0.9856
  737MOL0     H99455   3.848   6.016   7.147 -0.0192  0.9751  0.3884
  737MOL0     H99456   3.630   5.987   7.212 -3.0779 -1.1281 -1.1806
  737MOL0     H99457   3.128   6.196   6.802  1.5603 -0.7222  0.2834
  737MOL0     H99458   2.886   6.121   6.786  2.1402 -0.2370 -2.0169
  737MOL0     H99459   2.692   5.992   7.098 -0.7226  1.9059  0.4146
  737MOL0     H99460   2.728   6.119   6.980  3.2411 -0.7689  1.7316
  737MOL0     H99461   2.546   5.986   6.829 -2.1979  1.2789 -0.4813
  737MOL0     H99462   2.535   5.873   6.957 -1.6546  0.2223 -3.1634
  737MOL0     H99463   2.453   6.071   7.106 -1.3272  2.4427  0.4728
  737MOL0     H99464   2.465   6.176   6.982  3.8132 -0.1936  1.7896
  737MOL0     H99465   2.310   5.921   6.919 -2.2882  0.3137  0.8259
  737MOL0     H99466   2.304   6.077   6.844 -1.6533 -0.3156 -0.6192
  737MOL0     H99467   2.180   6.172   7.041  1.0338 -0.7163  2.3364
  737MOL0     H99468   2.234   6.033   7.144  0.2115 -3.1959  1.0145
  737MOL0     H99469   2.017   5.997   6.924 -0.6056 -3.4690 -0.3858
  737MOL0     H99470   2.085   5.879   7.028  1.3695  0.1085 -1.2602
  737MOL0     H99471   1.932   6.128   7.123 -0.4084 -0.8734 -3.7547
  737MOL0     H99472   1.994   5.999   7.226  0.5215  2.8214  0.9959
  737MOL0     H99473   1.764   5.974   7.180  1.5761 -0.8938  0.7783
  737MOL0     H99474   1.791   5.992   7.003  0.6439  1.6493  0.0676
  737MOL0     H99475   2.962   5.807   7.061 -1.7470  1.6049  2.3764
  737MOL0     H99476   3.194   5.887   7.092  1.0722  0.4105 -1.0639
  737MOL0     H99477   3.488   6.154   6.839 -3.4529 -0.6442  2.5518
  737MOL0     H99478   3.716   6.153   6.765  1.0911 -3.1751 -0.9582
  737MOL0     H99479   3.642   6.414   7.527 -0.9901  1.1092  1.0032
  737MOL0     H99480   3.403   6.346   7.478  0.1047  2.1027 -0.2236
  737MOL0     H99481   3.054   6.277   7.535 -0.5075  0.2472 -0.9953
  737MOL0     H99482   2.835   6.260   7.469  4.6193  0.7782 -2.5463
  737MOL0     H99483   2.571   6.076   7.290 -0.4785  0.4997  1.1469
  737MOL0     H99484   2.678   6.202   7.348 -0.7245  1.7761  1.2939
  737MOL0     H99485   2.448   6.272   7.397  1.0107  2.2232  2.0784
  737MOL0     H99486   2.537   6.238   7.544  0.5223 -0.2221  0.5649
  737MOL0     H99487   2.389   6.027   7.564 -1.0902 -0.9329 -0.1871
  737MOL0     H99488   2.368   6.029   7.379 -2.0019  1.8124 -2.0491
  737MOL0     H99489   2.169   6.044   7.499 -2.8921  0.7402  2.0515
  737MOL0     H99490   2.221   6.191   7.597  3.8274  1.2308 -0.3144
  737MOL0     H99491   2.085   6.363   7.241 -2.0191  1.7418  2.5625
  737MOL0     H99492   2.777   5.868   7.621 -0.7874  0.2691  0.1334
  737MOL0     H99493   2.946   5.754   7.749  1.5225  0.0009  1.8393
  737MOL0     H99494   3.113   5.777   7.681 -0.8060  0.1783 -1.0250
  737MOL0     H99495   3.055   5.856   7.833 -3.4237  3.1170  0.4165
  738MOL0     O99496   5.153   7.166   8.700  0.0038  0.0492  0.1123
  738MOL0     C99497   5.270   7.187   8.657  0.2510  0.1869 -0.5228
  738MOL0     O99498   5.381   7.116   8.700 -0.4075 -0.1129  0.0218
  738MOL0     C99499   5.362   6.989   8.761 -0.6153 -0.0266  0.4738
  738MOL0     C99500   5.417   6.877   8.707 -1.0077  0.2290 -0.8741
  738MOL0     C99501   5.423   6.755   8.775 -1.1905 -0.4426  1.3724
  738MOL0     C99502   5.349   6.731   8.893 -0.0765 -0.4615  0.3352
  738MOL0     O99503   5.354   6.601   8.949 -0.2257 -0.1011  0.1022
  738MOL0     C99504   5.292   6.589   9.074 -0.2739 -0.0216 -1.3695
  738MOL0     C99505   5.278   6.441   9.116 -0.1680 -0.5258 -0.3705
  738MOL0     C99506   5.419   6.375   9.107  0.3253 -0.0693  0.6912
  738MOL0     C99507   5.425   6.281   9.217  0.2974  0.2308 -0.1693
  738MOL0     C99508   5.564   6.217   9.217  0.0429 -0.2192  0.0603
  738MOL0     C99509   5.690   6.312   9.218  0.4564 -0.9210 -0.0738
  738MOL0     C99510   5.813   6.243   9.250  0.3338  0.6713  0.4186
  738MOL0     C99511   5.921   6.342   9.279  0.0156 -0.3785 -0.4225
  738MOL0     N99512   5.985   6.397   9.160  0.7657  0.5378 -0.1402
  738MOL0     C99513   6.087   6.339   9.102  0.6638  0.6842  0.9034
  738MOL0     C99514   6.095   6.410   8.988 -0.4600  0.0220 -0.5881
  738MOL0     C99515   6.198   6.393   8.883  0.0513  0.9669  0.4255
  738MOL0     C99516   6.345   6.415   8.949  1.4095  0.2810 -0.3873
  738MOL0     C99517   6.465   6.430   8.848  0.8575 -0.6593 -0.4748
  738MOL0     C99518   6.455   6.329   8.730  0.4233 -0.4304  0.7131
  738MOL0     O99519   6.456   6.197   8.779 -0.4774  0.6029  0.1616
  738MOL0     C99520   6.578   6.122   8.785  1.3196 -0.2704  0.3320
  738MOL0     C99521   6.675   6.122   8.689  0.3519  0.3688  0.7603
  738MOL0     C99522   6.787   6.033   8.690 -0.4573 -1.1967 -0.3346
  738MOL0     C99523   6.806   5.949   8.800  0.6360 -0.1682  0.9964
  738MOL0     C99524   6.908   5.851   8.791 -0.7594  0.2735 -0.4368
  738MOL0     O99525   6.954   5.824   8.665  0.5818  0.2886  0.1792
  738MOL0     C99526   7.028   5.709   8.658  0.5376 -0.0395  0.0401
  738MOL0     C99527   6.974   5.576   8.677  0.1768  0.5124  0.7255
  738MOL0     C99528   7.055   5.461   8.663 -0.0580  0.5794  0.3369
  738MOL0     C99529   7.189   5.481   8.632 -0.8388 -0.1133  0.5944
  738MOL0     O99530   7.285   5.386   8.639 -0.0233  0.0248 -0.8271
  738MOL0     C99531   7.325   5.344   8.775  0.4941  0.2285 -0.6603
  738MOL0     C99532   7.382   5.204   8.771  0.4480  0.4821  0.0424
  738MOL0     C99533   7.269   5.086   8.766  0.1536 -0.3710 -0.1115
  738MOL0     C99534   7.337   4.960   8.842 -0.1268  0.6395  0.7689
  738MOL0     C99535   7.265   4.836   8.815 -0.4472  0.1940 -0.2529
  738MOL0     C99536   7.353   4.715   8.851  0.3467 -0.3185 -0.2665
  738MOL0     C99537   7.279   4.588   8.850  0.6728 -0.1464 -0.6873
  738MOL0     C99538   7.352   4.484   8.927  0.0514  0.6182  0.4996
  738MOL0    Cl99539   7.500   4.438   8.827 -0.0413 -0.1453 -0.0388
  738MOL0     C99540   7.243   5.613   8.605 -0.3044  0.2337 -0.0790
  738MOL0     C99541   7.159   5.724   8.614  0.2811  0.6468  0.5613
  738MOL0     O99542   6.930   5.787   8.892  0.6049  0.6365  1.0342
  738MOL0     C99543   6.706   5.954   8.900  0.2101 -0.0804  0.2869
  738MOL0     C99544   6.593   6.037   8.895 -0.1607  0.0676 -0.4331
  738MOL0     N99545   5.994   6.514   8.980  0.0003 -0.0175 -0.1772
  738MOL0     N99546   5.933   6.503   9.097  0.0975 -0.0470 -0.0504
  738MOL0     C99547   5.296   6.846   8.955  0.7825 -0.0316  0.5297
  738MOL0     C99548   5.295   6.971   8.888 -0.3439  0.5918 -0.2235
  738MOL0     C99549   5.284   7.305   8.578 -0.6189  0.8803  0.3735
  738MOL0     C99550   5.405   7.375   8.584  0.3077 -0.3486 -0.2787
  738MOL0     C99551   5.431   7.485   8.494  0.5594  0.8527  0.4412
  738MOL0     C99552   5.337   7.522   8.399 -0.3255  0.1019 -0.7624
  738MOL0     O99553   5.357   7.623   8.309  0.0189 -0.3708 -0.2999
  738MOL0     C99554   5.362   7.757   8.370  0.3167 -0.5043 -0.1343
  738MOL0     C99555   5.387   7.869   8.263 -0.7505 -0.9760 -0.0051
  738MOL0     C99556   5.404   8.007   8.325  0.5900 -0.2860 -0.9739
  738MOL0     C99557   5.470   8.111   8.238 -0.3184 -0.0652  0.3822
  738MOL0     C99558   5.484   8.239   8.313 -0.2912  0.1198  0.4371
  738MOL0     C99559   5.528   8.343   8.367 -1.4135  0.1253 -0.9054
  738MOL0     C99560   5.214   7.451   8.403  0.3568 -0.5213  0.0597
  738MOL0     C99561   5.188   7.341   8.487  1.1601 -0.0157 -0.4126
  738MOL0     C99562   5.074   7.252   8.435 -0.0122  0.3098 -1.0212
  738MOL0     H99563   5.463   6.891   8.610  0.3625 -0.3365 -0.3268
  738MOL0     H99564   5.452   6.669   8.715  0.6719  2.5010 -2.2780
  738MOL0     H99565   5.355   6.640   9.147 -4.3128  0.9997  1.8218
  738MOL0     H99566   5.194   6.638   9.069  0.7858  2.7135  1.5696
  738MOL0     H99567   5.215   6.396   9.038  1.3337 -0.6374 -1.5757
  738MOL0     H99568   5.231   6.456   9.213  2.0553  2.0965  0.4238
  738MOL0     H99569   5.491   6.457   9.115 -1.3969  1.6756 -0.6196
  738MOL0     H99570   5.425   6.314   9.016  2.0165  0.3619  0.4871
  738MOL0     H99571   5.406   6.330   9.313 -1.8034  4.4928 -2.4734
  738MOL0     H99572   5.349   6.202   9.213 -1.1843  1.6197 -0.7561
  738MOL0     H99573   5.567   6.145   9.299 -0.2227 -3.3750 -2.4929
  738MOL0     H99574   5.568   6.167   9.119  1.7769 -1.3368  0.6748
  738MOL0     H99575   5.718   6.357   9.122  0.5710  0.3987  0.5580
  738MOL0     H99576   5.674   6.393   9.290 -0.1261  0.2458 -1.4769
  738MOL0     H99577   5.857   6.179   9.172  0.9240  1.8205 -0.2181
  738MOL0     H99578   5.790   6.186   9.340 -0.8678 -0.6566 -0.6675
  738MOL0     H99579   5.880   6.428   9.332  2.7282  2.3968 -2.4619
  738MOL0     H99580   6.000   6.289   9.333 -0.5268 -3.0188 -2.0568
  738MOL0     H99581   6.146   6.251   9.127  1.2907  1.0371  0.6948
  738MOL0     H99582   6.192   6.295   8.835  0.3570  2.0453 -1.9501
  738MOL0     H99583   6.175   6.468   8.807 -2.4264 -0.6928 -0.5939
  738MOL0     H99584   6.342   6.502   9.014 -2.0313 -0.4134  0.5883
  738MOL0     H99585   6.361   6.331   9.017  0.9903  0.1370 -0.4673
  738MOL0     H99586   6.560   6.421   8.902  1.0020 -1.5037 -0.8506
  738MOL0     H99587   6.472   6.535   8.816  0.2575 -1.1284 -2.2358
  738MOL0     H99588   6.534   6.350   8.658 -0.1802  0.2982  0.2574
  738MOL0     H99589   6.367   6.355   8.669 -1.7028 -1.7079  3.0370
  738MOL0     H99590   6.667   6.190   8.605 -1.6579  0.5862  1.0706
  738MOL0     H99591   6.862   6.034   8.613  0.0068 -0.7671  0.1144
  738MOL0     H99592   6.867   5.556   8.677  0.3155 -0.4245 -0.8578
  738MOL0     H99593   7.013   5.361   8.677 -1.4601  1.0562 -0.2744
  738MOL0     H99594   7.405   5.410   8.809 -0.3158  0.8758  0.0337
  738MOL0     H99595   7.241   5.348   8.845  0.2843  0.8264 -0.9406
  738MOL0     H99596   7.417   5.202   8.667 -2.2982 -2.2772 -0.9933
  738MOL0     H99597   7.462   5.188   8.843  1.8950  2.9555 -0.9152
  738MOL0     H99598   7.182   5.117   8.824  1.3877 -1.5844  2.5726
  738MOL0     H99599   7.237   5.065   8.664 -0.6269 -0.5657  0.1623
  738MOL0     H99600   7.328   4.975   8.950 -1.2884 -0.4680  0.8499
  738MOL0     H99601   7.444   4.946   8.829 -0.7704 -1.4587 -4.6790
  738MOL0     H99602   7.239   4.827   8.709 -1.0108  2.9924 -0.4054
  738MOL0     H99603   7.179   4.828   8.881  0.5181  0.3634  1.0525
  738MOL0     H99604   7.431   4.705   8.775  1.8852  0.3520  1.1608
  738MOL0     H99605   7.398   4.738   8.948  1.2381 -0.9896 -0.5078
  738MOL0     H99606   7.270   4.556   8.745  3.0567  1.0674 -1.3366
  738MOL0     H99607   7.183   4.590   8.902  0.9459 -0.6695 -0.1573
  738MOL0     H99608   7.381   4.515   9.027  0.5537  0.0952  0.5194
  738MOL0     H99609   7.291   4.396   8.946  0.3258 -0.4987 -2.9867
  738MOL0     H99610   7.345   5.641   8.581 -0.3060 -0.9125 -1.5984
  738MOL0     H99611   7.191   5.821   8.578  0.7880  0.1961 -0.2427
  738MOL0     H99612   6.705   5.894   8.990  2.6066  1.4910  1.4528
  738MOL0     H99613   6.516   6.034   8.971 -1.2228  0.5000 -1.4499
  738MOL0     H99614   5.243   6.849   9.050 -2.4505  1.3935 -1.1499
  738MOL0     H99615   5.252   7.057   8.939  1.5575  0.8677  1.0143
  738MOL0     H99616   5.471   7.342   8.664 -2.1257  1.2827  2.6199
  738MOL0     H99617   5.521   7.544   8.490  1.3727 -0.4002 -0.5414
  738MOL0     H99618   5.435   7.764   8.452  0.0778  0.1944  0.0285
  738MOL0     H99619   5.265   7.786   8.411  1.8831  2.7796  1.7254
  738MOL0     H99620   5.320   7.864   8.177  1.5176  0.9380 -2.0682
  738MOL0     H99621   5.480   7.835   8.216 -0.0628 -4.1897  3.2571
  738MOL0     H99622   5.453   7.994   8.422  1.1872  0.0270 -1.2322
  738MOL0     H99623   5.299   8.035   8.343  0.4888 -0.7198 -0.8487
  738MOL0     H99624   5.567   8.080   8.197 -0.0465 -0.5397  1.3447
  738MOL0     H99625   5.405   8.131   8.153 -0.1729  0.4979  0.3944
  738MOL0     H99626   5.568   8.421   8.429 -1.3334  1.9458 -3.0993
  738MOL0     H99627   5.147   7.473   8.321 -2.0064 -1.7692  1.5429
  738MOL0     H99628   5.064   7.275   8.329 -1.2142 -1.2089 -1.2678
  738MOL0     H99629   5.092   7.144   8.440  2.2170  0.5400 -2.7581
  738MOL0     H99630   4.978   7.268   8.486 -0.3606 -2.9976 -0.4098
  739MOL0     O99631   2.645   1.680   8.766  0.1582 -0.1213 -0.1886
  739MOL0     C99632   2.646   1.698   8.642  0.0022 -0.0535 -0.4699
  739MOL0     O99633   2.743   1.778   8.578 -0.5581  0.0836  0.5972
  739MOL0     C99634   2.852   1.830   8.639  0.2736 -0.1594  0.2266
  739MOL0     C99635   2.909   1.804   8.767  0.6439  0.1509  0.3484
  739MOL0     C99636   3.013   1.878   8.819 -0.4521  0.1823  0.5517
  739MOL0     C99637   3.070   1.987   8.754  0.3667 -0.1642  0.4223
  739MOL0     O99638   3.162   2.068   8.815  0.8928 -0.2747 -0.4034
  739MOL0     C99639   3.240   2.035   8.931  0.2168 -0.2690 -1.1889
  739MOL0     C99640   3.322   2.167   8.951 -0.1176  0.4103  0.0134
  739MOL0     C99641   3.239   2.279   9.011  0.4080 -0.7050  0.0765
  739MOL0     C99642   3.311   2.416   9.007  1.1417  0.0581 -0.0077
  739MOL0     C99643   3.306   2.497   9.142 -0.2867 -0.7799 -0.3209
  739MOL0     C99644   3.415   2.470   9.248  0.2158  0.6107 -0.3802
  739MOL0     C99645   3.381   2.352   9.334 -0.0293  1.2938 -0.3106
  739MOL0     C99646   3.482   2.322   9.438 -0.8452 -0.2631  0.3018
  739MOL0     N99647   3.609   2.264   9.390 -0.3855 -0.6420 -0.0313
  739MOL0     C99648   3.708   2.337   9.330 -0.0724 -0.5678  0.1897
  739MOL0     C99649   3.807   2.249   9.305  0.3722 -0.8631  0.4691
  739MOL0     C99650   3.948   2.287   9.258  0.9189  0.2192 -0.3722
  739MOL0     C99651   4.077   2.231   9.322  0.2956 -0.2514 -0.2143
  739MOL0     C99652   4.099   2.078   9.284 -0.2584 -0.0114 -0.0704
  739MOL0     C99653   4.238   2.036   9.336  1.1083 -0.6523  0.6349
  739MOL0     O99654   4.338   2.137   9.282 -0.0130  0.3767 -0.0640
  739MOL0     C99655   4.473   2.113   9.284 -0.9196  1.2366 -0.0692
  739MOL0     C99656   4.547   2.175   9.188  0.0655  0.1760  0.6162
  739MOL0     C99657   4.692   2.155   9.164 -0.4500  0.3716 -0.6296
  739MOL0     C99658   4.750   2.051   9.240  0.4974 -0.1683  0.0579
  739MOL0     C99659   4.896   2.015   9.219  0.4623 -0.0500  0.3206
  739MOL0     O99660   4.956   2.055   9.096 -0.2956 -0.5850  0.1130
  739MOL0     C99661   5.081   2.109   9.107  0.4434 -0.1268 -0.5792
  739MOL0     C99662   5.098   2.243   9.139  0.5461  0.1843  0.5166
  739MOL0     C99663   5.222   2.304   9.136  0.0739 -0.3496 -0.0847
  739MOL0     C99664   5.333   2.237   9.074  0.6049  0.8089  0.5335
  739MOL0     O99665   5.458   2.293   9.051  0.2765 -0.2538 -0.1591
  739MOL0     C99666   5.474   2.435   9.086 -0.3773  0.1181  0.1642
  739MOL0     C99667   5.607   2.484   9.028  1.0452 -0.0149  0.0572
  739MOL0     C99668   5.727   2.406   9.086  1.1069  0.0453  0.8430
  739MOL0     C99669   5.852   2.483   9.058 -0.0488  0.6047  1.0875
  739MOL0     C99670   5.961   2.418   9.137  0.0847  0.2808  0.4723
  739MOL0     C99671   6.088   2.416   9.042 -0.4499 -0.4157  0.6558
  739MOL0     C99672   6.207   2.336   9.101  0.2823  0.0252 -0.0834
  739MOL0     C99673   6.258   2.388   9.235  0.0110 -1.1089  0.2997
  739MOL0    Cl99674   6.400   2.293   9.277  0.1190 -0.1175  0.1343
  739MOL0     C99675   5.311   2.102   9.042  0.1982  0.0014  0.8377
  739MOL0     C99676   5.189   2.035   9.066 -0.3090  0.0811 -1.0975
  739MOL0     O99677   4.957   1.974   9.320 -0.6133 -0.1724  0.1814
  739MOL0     C99678   4.671   1.986   9.344 -0.7366 -0.1444  0.0397
  739MOL0     C99679   4.537   2.023   9.365  0.4528 -1.0846 -0.0956
  739MOL0     N99680   3.761   2.131   9.348 -0.1185 -0.0396  0.8522
  739MOL0     N99681   3.651   2.142   9.411 -0.0150  0.2546  0.3881
  739MOL0     C99682   3.013   2.022   8.628 -0.7988 -1.0125 -0.1171
  739MOL0     C99683   2.911   1.939   8.574 -0.3363 -0.1347  1.0239
  739MOL0     C99684   2.542   1.626   8.559  0.6066  0.0392  0.7556
  739MOL0     C99685   2.490   1.501   8.606 -0.1906 -0.5554 -0.1797
  739MOL0     C99686   2.398   1.425   8.532 -0.3545  0.1690  0.5070
  739MOL0     C99687   2.348   1.475   8.415 -0.0058 -0.1287  0.0975
  739MOL0     O99688   2.274   1.387   8.334 -1.0441  1.0277  0.0415
  739MOL0     C99689   2.307   1.396   8.193  0.5588 -0.5317 -0.0059
  739MOL0     C99690   2.248   1.274   8.112 -0.8878 -0.0312  1.5557
  739MOL0     C99691   2.095   1.291   8.100 -0.2867  1.2131  0.0065
  739MOL0     C99692   2.021   1.265   8.231 -0.1656  0.6683  0.0143
  739MOL0     C99693   1.884   1.214   8.209 -0.0814  0.1428 -1.0125
  739MOL0     C99694   1.765   1.184   8.185  0.1273 -0.5128  0.4425
  739MOL0     C99695   2.398   1.598   8.370  0.2648 -0.2015  0.8877
  739MOL0     C99696   2.487   1.678   8.437  0.2402 -0.7343  0.1290
  739MOL0     C99697   2.527   1.808   8.380 -0.3233  0.0693 -0.8396
  739MOL0     H99698   2.873   1.731   8.838  1.4001 -0.2746  0.3012
  739MOL0     H99699   3.032   1.849   8.922 -2.0067  0.9083  1.0770
  739MOL0     H99700   3.184   2.009   9.021  0.7680 -0.5143 -0.9084
  739MOL0     H99701   3.306   1.949   8.912  0.6729 -0.2892  0.3781
  739MOL0     H99702   3.354   2.197   8.851 -1.2611  1.6067 -0.0246
  739MOL0     H99703   3.402   2.145   9.023  0.2142  1.8816  0.1446
  739MOL0     H99704   3.217   2.262   9.117 -0.8981  1.1451  0.1432
  739MOL0     H99705   3.145   2.286   8.954  1.0317  2.4431 -0.7367
  739MOL0     H99706   3.417   2.412   8.981  1.8659 -1.3413  2.7967
  739MOL0     H99707   3.250   2.470   8.934 -1.8707 -1.5299  1.1744
  739MOL0     H99708   3.318   2.600   9.109 -0.3110 -0.5214  0.4447
  739MOL0     H99709   3.211   2.490   9.195 -0.7168 -1.5998 -1.1756
  739MOL0     H99710   3.512   2.467   9.198 -0.5011  2.7072 -2.0771
  739MOL0     H99711   3.415   2.564   9.304 -2.2180  0.2496  0.3224
  739MOL0     H99712   3.360   2.263   9.274 -3.4449  2.2494 -0.7527
  739MOL0     H99713   3.288   2.385   9.382  0.7672  2.2611  0.6127
  739MOL0     H99714   3.504   2.421   9.479  1.0661  0.2736 -1.8197
  739MOL0     H99715   3.436   2.256   9.512 -1.0179  0.0339  0.4621
  739MOL0     H99716   3.707   2.445   9.329 -2.1810 -0.5397  0.8476
  739MOL0     H99717   3.933   2.254   9.154 -2.3121 -0.8245  0.3143
  739MOL0     H99718   3.947   2.395   9.272  0.2072  0.0099  1.4400
  739MOL0     H99719   4.160   2.291   9.283 -1.1450  1.6874 -0.4756
  739MOL0     H99720   4.053   2.246   9.428 -1.9506 -1.5612 -0.4635
  739MOL0     H99721   4.085   2.075   9.175  0.4637  3.2962 -0.3778
  739MOL0     H99722   4.027   2.010   9.330  0.1336  0.8559  1.8971
  739MOL0     H99723   4.254   1.934   9.300 -1.2091 -0.2650 -1.8977
  739MOL0     H99724   4.239   2.020   9.444  2.8274 -0.6541  0.6433
  739MOL0     H99725   4.498   2.242   9.119  1.0709  1.3464  1.0116
  739MOL0     H99726   4.750   2.219   9.098  2.3208  0.7215  1.9356
  739MOL0     H99727   5.023   2.307   9.185 -0.7014 -2.1322  1.9024
  739MOL0     H99728   5.227   2.404   9.177 -0.2068 -0.9102  1.3808
  739MOL0     H99729   5.398   2.503   9.046  1.2138  2.4030  0.8346
  739MOL0     H99730   5.472   2.451   9.195 -1.6378  2.5266 -0.1519
  739MOL0     H99731   5.614   2.485   8.919 -0.3140  2.0192 -0.0661
  739MOL0     H99732   5.611   2.587   9.066 -0.0517 -0.7423  2.3625
  739MOL0     H99733   5.715   2.407   9.195 -2.9131 -0.5855  0.5671
  739MOL0     H99734   5.738   2.306   9.042 -2.1315  0.2078 -0.6545
  739MOL0     H99735   5.835   2.588   9.084 -0.3944  1.0219 -0.6868
  739MOL0     H99736   5.871   2.485   8.951 -3.0438  1.1571  0.4712
  739MOL0     H99737   5.943   2.313   9.162  2.2085 -0.5047 -0.9497
  739MOL0     H99738   5.981   2.471   9.230 -0.3713 -0.3704  0.9430
  739MOL0     H99739   6.050   2.369   8.951 -3.8871  2.6534  0.2660
  739MOL0     H99740   6.120   2.515   9.009 -1.6067 -0.8515 -2.0988
  739MOL0     H99741   6.284   2.351   9.024 -1.8571  1.7969 -2.0186
  739MOL0     H99742   6.186   2.229   9.110 -1.5260  0.5282  2.9407
  739MOL0     H99743   6.280   2.495   9.228 -2.7491 -0.4273  0.7709
  739MOL0     H99744   6.178   2.380   9.309 -0.3881 -1.3029 -0.1399
  739MOL0     H99745   5.394   2.036   9.018 -0.3730 -0.9887  1.5310
  739MOL0     H99746   5.170   1.931   9.042 -0.4927 -0.3613  0.8482
  739MOL0     H99747   4.727   1.910   9.396 -0.8450  1.2006  2.2651
  739MOL0     H99748   4.487   1.973   9.447 -0.8348  1.5796  0.8600
  739MOL0     H99749   3.057   2.108   8.580 -0.5279 -0.0474  1.7398
  739MOL0     H99750   2.866   1.966   8.479 -0.1412 -1.4268  0.5449
  739MOL0     H99751   2.538   1.457   8.692 -0.3602 -1.8684 -0.7456
  739MOL0     H99752   2.384   1.328   8.578  1.2199 -0.3261 -0.0063
  739MOL0     H99753   2.416   1.401   8.186  0.4723 -0.8935 -2.4248
  739MOL0     H99754   2.266   1.490   8.154 -0.9559  1.8324  6.1799
  739MOL0     H99755   2.267   1.180   8.165 -2.4003 -0.8000  0.7747
  739MOL0     H99756   2.293   1.271   8.012 -0.9150  0.9869  1.4987
  739MOL0     H99757   2.051   1.220   8.030 -0.8351  2.6979 -1.2127
  739MOL0     H99758   2.065   1.391   8.069 -0.0257  2.0577  2.3333
  739MOL0     H99759   2.072   1.204   8.306 -2.5392 -0.0142  1.1756
  739MOL0     H99760   2.016   1.356   8.291 -1.1069  0.2169  0.6423
  739MOL0     H99761   1.668   1.141   8.171  0.7328 -1.7279 -0.2289
  739MOL0     H99762   2.340   1.636   8.286  2.2379 -2.6233 -1.7901
  739MOL0     H99763   2.457   1.848   8.306 -0.9212  4.9265  1.9072
  739MOL0     H99764   2.542   1.889   8.452  1.2352 -0.1352 -0.8915
  739MOL0     H99765   2.620   1.798   8.324 -0.0834 -3.4349 -0.0368
  740MOL0     O99766   6.289   6.342   8.414  0.0752 -0.6499  0.3182
  740MOL0     C99767   6.221   6.241   8.445 -0.5054  0.5615 -0.0077
  740MOL0     O99768   6.268   6.110   8.429  0.1660 -1.0183 -0.2522
  740MOL0     C99769   6.391   6.088   8.375 -0.6182  0.1254 -0.5791
  740MOL0     C99770   6.455   5.973   8.430 -0.0439 -0.2957  0.7491
  740MOL0     C99771   6.560   5.923   8.359 -0.1324  0.1506  0.6245
  740MOL0     C99772   6.614   5.976   8.242 -0.2290 -0.6989 -0.2640
  740MOL0     O99773   6.717   5.911   8.177 -0.2960 -0.8797  0.1250
  740MOL0     C99774   6.844   5.985   8.187 -0.2388  0.6536 -0.2376
  740MOL0     C99775   6.898   5.978   8.049 -0.5976 -0.9935  0.6973
  740MOL0     C99776   7.045   6.034   8.043  0.1947 -0.3157  0.4555
  740MOL0     C99777   7.087   6.033   7.896 -0.8874  0.3904 -0.0402
  740MOL0     C99778   7.236   6.071   7.876  0.5747 -0.1361 -0.3712
  740MOL0     C99779   7.248   6.221   7.878 -0.9497  0.4809 -0.8215
  740MOL0     C99780   7.399   6.276   7.858  0.6643  0.0530  1.1646
  740MOL0     C99781   7.442   6.289   7.708  0.2501 -0.1718  0.4823
  740MOL0     N99782   7.576   6.337   7.679 -0.5208 -0.8767  0.4883
  740MOL0     C99783   7.698   6.300   7.732 -0.5044 -0.1226  0.0114
  740MOL0     C99784   7.795   6.347   7.645  0.1170 -0.7758  0.3865
  740MOL0     C99785   7.943   6.324   7.674  0.0994  0.2290 -0.3591
  740MOL0     C99786   8.005   6.443   7.763 -1.1076  0.2000  0.2364
  740MOL0     C99787   7.981   6.426   7.909 -0.1421  0.1865 -0.2976
  740MOL0     C99788   7.998   6.565   7.989 -0.1455 -0.3083  0.0804
  740MOL0     O99789   8.136   6.607   7.992  0.8935 -0.4160 -0.6842
  740MOL0     C99790   8.224   6.523   8.049 -0.1232 -0.1694 -0.1196
  740MOL0     C99791   8.216   6.474   8.183  0.7650 -0.2612  0.6311
  740MOL0     C99792   8.314   6.395   8.240  0.0851 -0.9465  0.2000
  740MOL0     C99793   8.428   6.362   8.164 -0.1521 -0.5265  0.3157
  740MOL0     C99794   8.548   6.284   8.221  0.2351  0.9220  0.5749
  740MOL0     O99795   8.557   6.261   8.352  0.4842 -0.4160 -0.7554
  740MOL0     C99796   8.664   6.193   8.415  0.7612  0.5025  0.1538
  740MOL0     C99797   8.776   6.110   8.369  0.2597 -0.5544  0.2592
  740MOL0     C99798   8.859   6.070   8.476 -0.5204  0.6963  0.1300
  740MOL0     C99799   8.834   6.093   8.609 -0.0493  0.0282  0.0992
  740MOL0     O99800   8.927   6.046   8.702  0.2535 -0.3084  0.4122
  740MOL0     C99801   9.033   5.944   8.687  0.4458  0.7145  2.1297
  740MOL0     C99802   9.125   5.933   8.799 -0.6203 -0.5837 -0.2541
  740MOL0     C99803   9.195   5.802   8.789  0.9408 -0.2821  0.2121
  740MOL0     C99804   9.280   5.766   8.911 -1.4613 -0.0096  0.0078
  740MOL0     C99805   9.373   5.641   8.908  0.0898  0.5019  0.0337
  740MOL0     C99806   9.485   5.640   8.812 -0.1261  0.6274 -0.1032
  740MOL0     C99807   9.593   5.538   8.860 -0.0283  0.1475 -0.1681
  740MOL0     C99808   9.717   5.537   8.773 -0.2635 -0.1438 -0.4645
  740MOL0    Cl99809   9.776   5.703   8.732 -0.4287 -0.5670 -0.6240
  740MOL0     C99810   8.720   6.156   8.652 -1.2667  0.6218  0.4021
  740MOL0     C99811   8.646   6.213   8.550  0.9250  0.4226 -0.8199
  740MOL0     O99812   8.634   6.237   8.146  0.4851  0.6472  0.1044
  740MOL0     C99813   8.431   6.396   8.031  0.0652  0.4124  0.8225
  740MOL0     C99814   8.330   6.475   7.968 -0.7697 -0.1170 -1.0724
  740MOL0     N99815   7.730   6.410   7.548 -0.7096 -1.0038  0.5289
  740MOL0     N99816   7.607   6.400   7.557  0.4509 -0.6326  1.3118
  740MOL0     C99817   6.542   6.083   8.180  0.3484 -0.5141  0.7676
  740MOL0     C99818   6.437   6.134   8.253  0.4515  0.6217 -0.7883
  740MOL0     C99819   6.086   6.258   8.508  0.3679 -1.2021  0.0965
  740MOL0     C99820   6.008   6.356   8.448  0.3707 -0.0239  0.6195
  740MOL0     C99821   5.903   6.410   8.511 -0.1662  1.0320  0.7745
  740MOL0     C99822   5.849   6.347   8.624 -0.3190 -0.0000  0.5023
  740MOL0     O99823   5.744   6.408   8.682  0.8546 -1.4446 -0.3356
  740MOL0     C99824   5.686   6.355   8.803 -0.7759 -1.3245 -0.5084
  740MOL0     C99825   5.604   6.235   8.772  0.2294 -0.0161 -0.0940
  740MOL0     C99826   5.483   6.255   8.669 -0.5542 -0.1539  0.6236
  740MOL0     C99827   5.360   6.175   8.717 -0.4870  0.9079 -0.3213
  740MOL0     C99828   5.235   6.223   8.655 -0.8964  0.5323 -0.6376
  740MOL0     C99829   5.124   6.236   8.625  0.3547 -0.6115  1.2947
  740MOL0     C99830   5.913   6.228   8.671 -0.0635  0.4526 -0.7316
  740MOL0     C99831   6.032   6.190   8.621  0.2763 -0.0559  0.0616
  740MOL0     C99832   6.114   6.078   8.697 -0.0924  0.6567 -0.5200
  740MOL0     H99833   6.421   5.923   8.521 -0.8437  0.7803  1.0684
  740MOL0     H99834   6.616   5.835   8.390  2.2339  1.8398  1.4295
  740MOL0     H99835   6.829   6.090   8.211 -2.3163 -0.2802  3.3825
  740MOL0     H99836   6.921   5.945   8.254  0.2873 -1.9134 -2.2053
  740MOL0     H99837   6.834   6.028   7.975  2.3508  0.3106 -1.1867
  740MOL0     H99838   6.903   5.873   8.017  1.8823  0.2908 -4.2260
  740MOL0     H99839   7.120   5.980   8.101  1.5439  0.0878 -0.8571
  740MOL0     H99840   7.043   6.137   8.079  2.0167 -0.1836  0.2503
  740MOL0     H99841   7.081   5.931   7.855 -1.0470  1.4275 -2.8329
  740MOL0     H99842   7.016   6.101   7.847  1.2310  2.1079 -0.9034
  740MOL0     H99843   7.290   6.036   7.965 -2.4595  1.5958  2.3708
  740MOL0     H99844   7.294   6.025   7.795  1.2491 -2.1774  1.1778
  740MOL0     H99845   7.197   6.273   7.796  1.3181  2.5814 -1.0259
  740MOL0     H99846   7.207   6.257   7.973  1.9169 -1.4072  1.3019
  740MOL0     H99847   7.464   6.209   7.917 -0.1945 -1.6303  0.2841
  740MOL0     H99848   7.402   6.374   7.907  0.2017 -1.1742  3.8631
  740MOL0     H99849   7.443   6.194   7.654  1.2320  1.2576 -2.2361
  740MOL0     H99850   7.368   6.358   7.666  0.0804  1.7222  3.5912
  740MOL0     H99851   7.731   6.233   7.811 -0.4757 -1.1699 -0.8699
  740MOL0     H99852   7.952   6.227   7.723 -3.5822  1.3235  3.0730
  740MOL0     H99853   7.996   6.321   7.579  1.4171 -1.4762  0.3831
  740MOL0     H99854   8.112   6.456   7.749 -0.8508  0.5174  2.2407
  740MOL0     H99855   7.962   6.540   7.737 -0.6335  0.2380 -0.4195
  740MOL0     H99856   8.036   6.344   7.955 -2.9091 -1.2930  0.5849
  740MOL0     H99857   7.877   6.400   7.932  0.5231  0.1708  3.3085
  740MOL0     H99858   7.953   6.554   8.088 -1.3506 -0.1187 -0.4302
  740MOL0     H99859   7.944   6.647   7.941 -0.1584 -0.1911  0.2937
  740MOL0     H99860   8.141   6.524   8.243 -0.7741 -1.9505  0.2177
  740MOL0     H99861   8.302   6.369   8.344 -0.1653  0.7034  0.6118
  740MOL0     H99862   8.812   6.098   8.268  0.6467 -2.5723  0.5902
  740MOL0     H99863   8.959   6.038   8.448 -1.5958 -1.8829 -1.0520
  740MOL0     H99864   8.968   5.857   8.682  0.5325  0.7068 -1.3881
  740MOL0     H99865   9.085   5.955   8.591 -2.7135  0.3525  0.2434
  740MOL0     H99866   9.198   6.014   8.796  0.9230 -1.6044  3.6823
  740MOL0     H99867   9.076   5.960   8.893 -0.9367 -0.4063 -0.4672
  740MOL0     H99868   9.126   5.724   8.756  0.9146  1.1187 -3.6263
  740MOL0     H99869   9.256   5.813   8.699 -0.6092 -0.1125 -0.8747
  740MOL0     H99870   9.208   5.754   8.992 -1.3714  0.9172  0.2256
  740MOL0     H99871   9.345   5.852   8.929 -0.5672  0.1802 -3.4523
  740MOL0     H99872   9.303   5.564   8.873  0.5187 -0.0451  0.3736
  740MOL0     H99873   9.398   5.631   9.014 -1.4764 -4.3797  0.2000
  740MOL0     H99874   9.454   5.600   8.715  1.8804  0.9376 -0.9371
  740MOL0     H99875   9.530   5.740   8.809 -0.8604  1.0881  2.3092
  740MOL0     H99876   9.551   5.438   8.873 -2.0354  1.0914  1.0939
  740MOL0     H99877   9.623   5.574   8.959 -2.4936  1.0430  0.3110
  740MOL0     H99878   9.805   5.494   8.822  0.1139  1.9596  0.8204
  740MOL0     H99879   9.692   5.480   8.683 -1.0532  2.2500 -1.8752
  740MOL0     H99880   8.704   6.183   8.756 -0.2139  2.4007  0.1453
  740MOL0     H99881   8.561   6.272   8.583  1.0229 -0.0457  0.3179
  740MOL0     H99882   8.512   6.358   7.968  0.6387 -0.2739  1.9382
  740MOL0     H99883   8.340   6.499   7.863  1.6252  0.0707 -0.8540
  740MOL0     H99884   6.554   6.122   8.080 -1.2267 -2.2496 -0.1497
  740MOL0     H99885   6.381   6.219   8.215 -0.7443  1.5825  2.7287
  740MOL0     H99886   6.045   6.400   8.357 -3.4005  2.4422  0.0423
  740MOL0     H99887   5.845   6.499   8.487 -3.3563 -1.1015 -0.0326
  740MOL0     H99888   5.630   6.440   8.841  2.5302  0.6758  0.3609
  740MOL0     H99889   5.765   6.329   8.874 -1.6211 -2.3181  0.0771
  740MOL0     H99890   5.562   6.199   8.867 -0.1326 -0.9416 -0.5877
  740MOL0     H99891   5.659   6.147   8.736  0.0442  0.7107 -2.2622
  740MOL0     H99892   5.515   6.233   8.567 -0.4205  1.1969  0.3558
  740MOL0     H99893   5.457   6.361   8.666 -1.5240 -0.3036  2.2263
  740MOL0     H99894   5.366   6.068   8.697  1.9315  0.3813  2.5351
  740MOL0     H99895   5.361   6.191   8.825  0.8077 -1.0587 -0.0072
  740MOL0     H99896   5.025   6.264   8.598  1.1829  0.2989 -1.0227
  740MOL0     H99897   5.876   6.176   8.759 -0.7608  0.0042 -1.2775
  740MOL0     H99898   6.080   6.069   8.801 -1.4557 -1.8598 -1.0993
  740MOL0     H99899   6.101   5.981   8.649 -0.4905  0.4775 -0.0611
  740MOL0     H99900   6.220   6.103   8.696  0.0201  0.3145  0.8709
  741MOL0     O99901  11.298   3.368   5.044  0.6676  1.2014 -0.1377
  741MOL0     C99902  11.292   3.383   5.167  0.0276 -1.2460  0.1091
  741MOL0     O99903  11.390   3.419   5.257 -0.1891  0.1151 -0.5369
  741MOL0     C99904  11.522   3.450   5.220  1.0876 -0.5036  0.5424
  741MOL0     C99905  11.578   3.426   5.085  0.4882  0.4238 -0.8395
  741MOL0     C99906  11.713   3.465   5.070  0.4128 -0.1944 -0.1442
  741MOL0     C99907  11.793   3.516   5.179  0.9025  0.0245 -0.0781
  741MOL0     O99908  11.921   3.556   5.162 -0.0487  0.5325  0.6235
  741MOL0     C99909  12.004   3.604   5.262  0.9934 -0.6267 -0.0832
  741MOL0     C99910  12.049   3.483   5.346 -0.9222 -0.2091 -0.1731
  741MOL0     C99911  12.123   3.381   5.254 -1.3821 -0.4219 -0.1986
  741MOL0     C99912  12.134   3.246   5.334 -0.4841  0.5528 -0.3931
  741MOL0     C99913  12.244   3.160   5.265  0.1256 -1.0016 -0.8771
  741MOL0     C99914  12.281   3.049   5.362  0.7306  0.9569  0.2988
  741MOL0     C99915  12.367   2.943   5.289  0.0758  0.8020 -0.6859
  741MOL0     C99916  12.491   3.011   5.222 -1.0476  0.4914 -0.1370
  741MOL0     N99917  12.557   2.905   5.150 -0.3427  0.3024 -0.3887
  741MOL0     C99918  12.610   2.780   5.201  0.6354 -0.9059 -0.3307
  741MOL0     C99919  12.628   2.703   5.094  0.3110 -0.0801 -0.2245
  741MOL0     C99920  12.689   2.567   5.079  0.1580 -0.4969  0.6172
  741MOL0     C99921  12.826   2.564   5.013 -0.4582  0.2624  0.3178
  741MOL0     C99922  12.882   2.418   4.996 -0.2868  0.8598  0.1112
  741MOL0     C99923  13.019   2.400   4.925 -0.8314  0.3721 -0.6624
  741MOL0     O99924  13.133   2.411   5.015 -0.5214 -0.2554  0.3018
  741MOL0     C99925  13.261   2.362   4.993  1.0345 -0.5166 -0.4763
  741MOL0     C99926  13.355   2.386   5.094 -0.1254 -0.2184  0.3583
  741MOL0     C99927  13.487   2.339   5.084 -0.6981  0.6450  0.8312
  741MOL0     C99928  13.519   2.257   4.973 -0.6207 -0.1760 -0.4063
  741MOL0     C99929  13.653   2.201   4.958 -0.2478 -1.1905 -0.5662
  741MOL0     O99930  13.754   2.258   5.044  0.6626  0.1959  0.4552
  741MOL0     C99931  13.875   2.204   5.031 -0.4240 -0.9484  0.5041
  741MOL0     C99932  13.937   2.160   5.145  0.6687 -1.1752  0.1839
  741MOL0     C99933  14.064   2.113   5.149  0.2814  0.2476 -0.6229
  741MOL0     C99934  14.136   2.116   5.031  0.0016 -0.1090 -0.4636
  741MOL0     O99935  14.266   2.072   5.010  0.4039  0.0853 -0.1398
  741MOL0     C99936  14.325   1.981   5.094 -0.2982  1.0363 -0.1770
  741MOL0     C99937  14.466   1.951   5.071 -0.2259 -0.2761 -0.9628
  741MOL0     C99938  14.512   1.812   5.105 -0.0394  0.2576 -0.2881
  741MOL0     C99939  14.538   1.778   5.253  0.1800 -0.9073 -0.0485
  741MOL0     C99940  14.601   1.634   5.259 -1.0055  0.4019 -0.4951
  741MOL0     C99941  14.642   1.590   5.404 -0.0223  0.2143  0.5182
  741MOL0     C99942  14.742   1.693   5.474  0.0213 -0.1872 -0.1182
  741MOL0     C99943  14.783   1.630   5.603 -0.4701 -0.2604  0.3394
  741MOL0    Cl99944  14.641   1.621   5.711  0.6114 -0.0284 -0.2180
  741MOL0     C99945  14.077   2.176   4.918 -0.4415  1.5918 -0.1364
  741MOL0     C99946  13.944   2.217   4.912  0.2398  0.5551 -0.3036
  741MOL0     O99947  13.664   2.099   4.890 -1.0198  0.0579 -0.4086
  741MOL0     C99948  13.426   2.244   4.870 -0.1432  0.3424 -0.1385
  741MOL0     C99949  13.292   2.291   4.875 -0.7290  0.1178 -0.8938
  741MOL0     N99950  12.578   2.769   4.983  0.0819 -0.9679 -0.2914
  741MOL0     N99951  12.544   2.888   5.017  0.3527 -0.4322  0.0904
  741MOL0     C99952  11.733   3.541   5.304  1.1136  0.3300 -0.0351
  741MOL0     C99953  11.595   3.512   5.321  0.3213 -0.7981  0.1687
  741MOL0     C99954  11.162   3.344   5.227  0.2552  0.8084 -1.0602
  741MOL0     C99955  11.163   3.303   5.364 -0.4326 -0.5206 -0.3467
  741MOL0     C99956  11.050   3.252   5.427 -0.5759  0.8081 -0.6691
  741MOL0     C99957  10.930   3.242   5.364  0.8282  0.0813  0.3973
  741MOL0     O99958  10.806   3.196   5.408  0.4506 -0.5384 -0.1124
  741MOL0     C99959  10.798   3.172   5.554  0.0274 -0.2934 -0.6541
  741MOL0     C99960  10.852   3.035   5.598  0.1711  0.2341 -0.4795
  741MOL0     C99961  10.829   3.027   5.749 -0.2494 -0.0642 -0.0855
  741MOL0     C99962  10.874   2.897   5.813 -0.1066  0.4624 -0.0203
  741MOL0     C99963  11.009   2.901   5.847 -0.5906  0.7351 -0.3996
  741MOL0     C99964  11.126   2.908   5.896  0.3889  0.8045  0.3085
  741MOL0     C99965  10.929   3.301   5.233 -0.2812 -0.4090  0.2885
  741MOL0     C99966  11.040   3.336   5.156 -0.2601 -1.2476  0.7647
  741MOL0     C99967  11.009   3.379   5.017 -0.7966  0.3924 -0.1527
  741MOL0     H99968  11.537   3.393   4.990  0.2701 -1.7962 -0.0282
  741MOL0     H99969  11.751   3.450   4.970  0.3533 -2.1071  0.0833
  741MOL0     H99970  12.095   3.654   5.227 -0.6365  2.9289  0.2575
  741MOL0     H99971  11.950   3.682   5.317  1.4379 -0.3920  0.0210
  741MOL0     H99972  11.963   3.430   5.390 -0.9174 -1.4145 -1.5454
  741MOL0     H99973  12.119   3.519   5.422 -1.1857 -0.8088  0.3705
  741MOL0     H99974  12.224   3.421   5.242 -1.6582 -0.0590 -1.3952
  741MOL0     H99975  12.082   3.369   5.153  1.7287  1.2539 -1.8293
  741MOL0     H99976  12.163   3.277   5.435 -3.3492  2.2892  0.0160
  741MOL0     H99977  12.042   3.189   5.351  0.5756 -1.3374 -0.7326
  741MOL0     H99978  12.201   3.111   5.177 -0.3429  0.5199 -1.5471
  741MOL0     H99979  12.336   3.215   5.241  1.2544 -2.7806 -0.7924
  741MOL0     H99980  12.328   3.086   5.454  0.3453 -0.6613  1.1847
  741MOL0     H99981  12.195   2.991   5.396  2.8345 -2.2690  0.5766
  741MOL0     H99982  12.311   2.889   5.212 -0.8486  0.7277  0.0333
  741MOL0     H99983  12.403   2.880   5.371  0.1968  3.4313  1.4081
  741MOL0     H99984  12.468   3.084   5.144 -2.0428  0.9675  0.5773
  741MOL0     H99985  12.570   3.035   5.293  1.5111 -3.4797 -1.3242
  741MOL0     H99986  12.637   2.760   5.304  0.7598  1.3265  0.1287
  741MOL0     H99987  12.686   2.510   5.172 -2.9888 -0.9293  0.3831
  741MOL0     H99988  12.618   2.520   5.010  0.2541 -0.7417  0.6839
  741MOL0     H99989  12.827   2.617   4.918 -1.7921  0.3537  0.3378
  741MOL0     H99990  12.888   2.617   5.086 -2.2419  0.8153  1.5032
  741MOL0     H99991  12.811   2.357   4.941  0.7947  0.7185 -1.1716
  741MOL0     H99992  12.890   2.373   5.096 -0.8376 -1.0628 -0.6531
  741MOL0     H99993  13.037   2.474   4.846  1.1870  1.3882  0.6611
  741MOL0     H99994  13.003   2.299   4.887  1.0561 -1.6351  3.2630
  741MOL0     H99995  13.340   2.458   5.174 -2.4251  0.6258 -0.7314
  741MOL0     H99996  13.561   2.354   5.162 -1.4335 -1.1153  1.9257
  741MOL0     H99997  13.894   2.160   5.245  2.8866  0.1309  1.2235
  741MOL0     H99998  14.110   2.077   5.241  2.3245  2.1320 -0.8117
  741MOL0     H99999  14.312   2.018   5.195 -0.0857  1.2780 -0.2379
  741MOL0     H    0  14.277   1.883   5.101  0.8728  0.4941  0.6938
  741MOL0     H    1  14.488   1.974   4.966  2.7684 -1.9586 -0.8180
  741MOL0     H    2  14.524   2.032   5.118 -0.1486 -1.7148  1.6362
  741MOL0     H    3  14.433   1.746   5.070  1.2598 -0.3986 -2.1539
  741MOL0     H    4  14.600   1.788   5.044  0.8121  3.5770 -0.5941
  741MOL0     H    5  14.447   1.782   5.315 -1.6950 -0.2930 -2.6722
  741MOL0     H    6  14.616   1.851   5.277 -1.5644  1.0891 -0.1658
  741MOL0     H    7  14.691   1.638   5.198 -0.9045  0.6126 -0.3335
  741MOL0     H    8  14.531   1.564   5.213  0.0054  0.1314 -1.6745
  741MOL0     H    9  14.547   1.590   5.458 -0.6398 -0.6999 -0.5317
  741MOL0     H   10  14.688   1.491   5.413  2.9914  1.3326 -1.1693
  741MOL0     H   11  14.698   1.793   5.482  1.1283  0.2763  0.5220
  741MOL0     H   12  14.827   1.707   5.406 -1.3125 -0.9298 -1.9962
  741MOL0     H   13  14.828   1.531   5.599 -0.3359 -0.1697 -0.8549
  741MOL0     H   14  14.855   1.701   5.644  0.1087  0.6193 -2.0378
  741MOL0     H   15  14.147   2.185   4.835  2.1870 -0.1867  1.7033
  741MOL0     H   16  13.893   2.252   4.823 -0.8376  1.2770  0.5552
  741MOL0     H   17  13.448   2.193   4.777 -2.3650 -0.6908 -0.1391
  741MOL0     H   18  13.213   2.276   4.802  0.1515  3.2949 -2.7323
  741MOL0     H   19  11.798   3.571   5.386 -0.2842 -0.6624  1.4901
  741MOL0     H   20  11.546   3.524   5.417  0.3208 -0.9066  0.1821
  741MOL0     H   21  11.253   3.307   5.423 -0.8600 -4.0669  0.7742
  741MOL0     H   22  11.054   3.220   5.530  0.8595  0.2466 -0.8732
  741MOL0     H   23  10.693   3.182   5.585 -0.4199  0.3239 -2.2485
  741MOL0     H   24  10.846   3.252   5.610 -2.2219 -0.1512  1.2475
  741MOL0     H   25  10.956   3.016   5.568  0.2868 -0.1671  0.1570
  741MOL0     H   26  10.799   2.955   5.546  1.3872  0.1849 -1.7171
  741MOL0     H   27  10.720   3.017   5.757 -0.3417 -0.5721 -1.6587
  741MOL0     H   28  10.863   3.112   5.809 -3.4189 -0.3479  2.4015
  741MOL0     H   29  10.825   2.888   5.910  0.2113 -1.4212 -0.0062
  741MOL0     H   30  10.842   2.815   5.747 -0.0521  0.9289 -0.6413
  741MOL0     H   31  11.220   2.899   5.947  0.3338  1.9574  0.6591
  741MOL0     H   32  10.833   3.317   5.185 -2.5475 -0.0541  4.4490
  741MOL0     H   33  11.088   3.448   4.988  0.0177  0.9405  2.9316
  741MOL0     H   34  11.003   3.288   4.956  1.9465 -0.2903  0.4500
  741MOL0     H   35  10.918   3.439   5.025 -0.9086  0.0417  1.9660
  742MOL0     O   36   8.092   9.912   9.974 -0.6847 -0.0860 -0.6553
  742MOL0     C   37   8.136   9.801  10.008  0.4851 -0.5795 -0.1006
  742MOL0     O   38   8.265   9.772  10.031 -0.1833 -0.0962  0.3832
  742MOL0     C   39   8.365   9.835   9.957  0.7576 -0.8968 -0.4706
  742MOL0     C   40   8.351   9.916   9.840 -0.0481 -0.3295  0.7682
  742MOL0     C   41   8.452   9.966   9.763 -0.5240 -0.6425  0.3975
  742MOL0     C   42   8.578   9.925   9.799 -0.9873 -0.7181  0.3067
  742MOL0     O   43   8.683   9.968   9.721  0.2935  0.0248 -0.3225
  742MOL0     C   44   8.814   9.977   9.761  0.2492 -0.1196  0.5724
  742MOL0     C   45   8.879  10.041   9.636  0.2206 -0.1282 -0.2683
  742MOL0     C   46   9.032  10.059   9.673  0.3303  0.5424 -0.5921
  742MOL0     C   47   9.120  10.101   9.558  0.2586 -0.1912 -0.8699
  742MOL0     C   48   9.268  10.085   9.607  0.6969 -0.0971 -0.2003
  742MOL0     C   49   9.352  10.108   9.483 -0.3834  0.0081 -0.8091
  742MOL0     C   50   9.362   9.988   9.385 -0.3971 -0.1476  0.9357
  742MOL0     C   51   9.384  10.030   9.237 -0.0800  0.7750  0.3201
  742MOL0     N   52   9.386   9.919   9.144 -0.2855  0.1925 -0.1103
  742MOL0     C   53   9.501   9.847   9.112 -0.4245  0.2082  1.2852
  742MOL0     C   54   9.463   9.747   9.040  0.4977  0.7805  1.0850
  742MOL0     C   55   9.548   9.645   8.979 -1.2142 -0.0204  0.4755
  742MOL0     C   56   9.610   9.690   8.848  0.0740  0.3168  0.3247
  742MOL0     C   57   9.666   9.573   8.763  0.2115 -0.1299  1.2919
  742MOL0     C   58   9.790   9.514   8.821 -0.6078 -0.2929  1.1350
  742MOL0     O   59   9.892   9.554   8.728 -0.8483 -0.9492  0.3253
  742MOL0     C   60  10.015   9.586   8.787 -0.3770 -0.0793  0.2894
  742MOL0     C   61  10.061   9.538   8.912  0.0275  0.1482  0.1921
  742MOL0     C   62  10.183   9.568   8.963 -0.4620  0.6121  0.2727
  742MOL0     C   63  10.275   9.642   8.892  0.1341  0.4736  0.0516
  742MOL0     C   64  10.415   9.649   8.937  0.4895 -0.3423  0.1820
  742MOL0     O   65  10.502   9.736   8.869  0.4541  0.4717 -0.1013
  742MOL0     C   66  10.634   9.713   8.862 -1.3344 -0.9528 -1.2718
  742MOL0     C   67  10.718   9.818   8.818 -1.3200 -1.1700  0.2000
  742MOL0     C   68  10.856   9.805   8.804  0.0584  1.3332  0.3042
  742MOL0     C   69  10.919   9.679   8.833  0.0169  0.3852  0.0624
  742MOL0     O   70  11.064   9.664   8.818  1.4067 -1.0528 -0.0618
  742MOL0     C   71  11.123   9.537   8.821 -0.2876 -0.3669 -0.4605
  742MOL0     C   72  11.245   9.540   8.731 -0.1799  0.8898  0.1366
  742MOL0     C   73  11.304   9.400   8.736 -0.4753 -0.2231  0.5394
  742MOL0     C   74  11.418   9.397   8.630  0.1199 -0.0579 -1.0395
  742MOL0     C   75  11.492   9.270   8.626 -0.4010 -0.0497  0.4466
  742MOL0     C   76  11.614   9.255   8.521  0.0647  0.5632  0.1130
  742MOL0     C   77  11.702   9.121   8.534 -0.0916 -0.3387 -0.4236
  742MOL0     C   78  11.784   9.100   8.665 -0.5528 -1.0904 -0.2850
  742MOL0    Cl   79  11.891   9.244   8.710  0.9090 -0.0600  0.0541
  742MOL0     C   80  10.840   9.577   8.889 -0.2985  0.0992  0.4922
  742MOL0     C   81  10.702   9.590   8.898  0.8478 -0.7145  0.6055
  742MOL0     O   82  10.449   9.583   9.030 -0.3625 -0.8059 -0.5485
  742MOL0     C   83  10.237   9.689   8.764  0.4517  0.7315  0.0761
  742MOL0     C   84  10.110   9.657   8.712 -0.4673  0.1316  0.5367
  742MOL0     N   85   9.324   9.751   9.026  0.2040 -0.8643 -0.0146
  742MOL0     N   86   9.280   9.857   9.088  0.9980  0.2718  0.1419
  742MOL0     C   87   8.600   9.849   9.915  0.0840  0.5502  1.1156
  742MOL0     C   88   8.496   9.792   9.986  0.2992 -0.4933  0.3509
  742MOL0     C   89   8.024   9.710  10.057  0.3675 -0.0517 -0.9203
  742MOL0     C   90   7.890   9.727   9.999 -0.0117  0.1260 -0.5605
  742MOL0     C   91   7.783   9.659  10.043 -0.5859  0.5656 -0.5566
  742MOL0     C   92   7.801   9.553  10.138 -0.3581 -0.3621  0.2784
  742MOL0     O   93   7.701   9.475  10.185 -0.0657 -0.1056  0.6800
  742MOL0     C   94   7.567   9.510  10.154  1.2204 -0.1707  0.4900
  742MOL0     C   95   7.516   9.451  10.022  0.0327 -0.2778 -0.2246
  742MOL0     C   96   7.513   9.301  10.030  0.2254  0.0657 -0.0142
  742MOL0     C   97   7.398   9.248   9.926  0.8140 -0.4861  0.8733
  742MOL0     C   98   7.429   9.290   9.788  0.3665  0.3113  0.5555
  742MOL0     C   99   7.468   9.318   9.679  0.3239  0.2961 -0.1356
  742MOL0     C  100   7.929   9.532  10.189 -0.8338 -0.1528 -0.6322
  742MOL0     C  101   8.039   9.607  10.155 -0.2811 -0.0371  0.2693
  742MOL0     C  102   8.171   9.567  10.227 -0.2119  0.2586  0.2386
  742MOL0     H  103   8.250   9.944   9.812  0.4760 -0.2088 -1.1632
  742MOL0     H  104   8.433  10.023   9.672  0.5331  3.0927  2.3290
  742MOL0     H  105   8.828  10.026   9.858 -2.4570 -2.7780  2.4857
  742MOL0     H  106   8.855   9.876   9.776  1.0247  0.1623  0.4174
  742MOL0     H  107   8.834  10.137   9.612 -0.2553  0.0583  1.2533
  742MOL0     H  108   8.863   9.975   9.551 -3.1414  1.9502 -1.4141
  742MOL0     H  109   9.055   9.955   9.696 -0.3973  0.2128 -1.2835
  742MOL0     H  110   9.053  10.125   9.758 -2.2378  0.8339 -0.0892
  742MOL0     H  111   9.113  10.029   9.475  0.8743 -0.1763 -0.9445
  742MOL0     H  112   9.098  10.202   9.521  1.8917  0.1876 -0.9108
  742MOL0     H  113   9.285  10.153   9.691  2.3088  0.0003 -0.5706
  742MOL0     H  114   9.284   9.987   9.653 -1.4306 -0.8360 -0.9012
  742MOL0     H  115   9.325  10.202   9.433 -0.8600  0.5222  0.3792
  742MOL0     H  116   9.448  10.134   9.527 -1.5605  1.6153  0.9794
  742MOL0     H  117   9.270   9.929   9.384 -2.1153  2.2966 -1.5880
  742MOL0     H  118   9.446   9.931   9.425 -0.0549 -1.6336 -1.6655
  742MOL0     H  119   9.311  10.106   9.206  1.7343  1.4655 -2.7485
  742MOL0     H  120   9.479  10.085   9.228 -0.3816  0.9628 -2.7845
  742MOL0     H  121   9.602   9.881   9.132 -1.4388  2.9471  2.2657
  742MOL0     H  122   9.619   9.605   9.052  0.8472  1.1471 -0.7869
  742MOL0     H  123   9.482   9.561   8.955 -1.0019 -0.3983  1.1692
  742MOL0     H  124   9.532   9.734   8.784 -0.3362  5.0377  3.5360
  742MOL0     H  125   9.685   9.769   8.861 -0.3464  1.2431 -2.2985
  742MOL0     H  126   9.668   9.608   8.660 -4.3423  1.4349  1.5046
  742MOL0     H  127   9.594   9.491   8.768  1.7380 -1.4767  2.1284
  742MOL0     H  128   9.769   9.407   8.820  1.3700 -0.7201 -0.0160
  742MOL0     H  129   9.809   9.540   8.926  1.8267  0.2972  0.6171
  742MOL0     H  130  10.010   9.461   8.969  0.1972  1.0228  1.5775
  742MOL0     H  131  10.215   9.519   9.054  0.6153 -2.2531 -1.5275
  742MOL0     H  132  10.673   9.917   8.812  1.5792  0.2169 -0.8079
  742MOL0     H  133  10.919   9.890   8.781  0.4598  0.8378 -0.4404
  742MOL0     H  134  11.153   9.511   8.923 -1.2223  0.7490  0.1267
  742MOL0     H  135  11.048   9.468   8.783 -2.6710  1.1042  1.2774
  742MOL0     H  136  11.213   9.562   8.629 -0.9713 -0.2352  0.1248
  742MOL0     H  137  11.318   9.609   8.773  0.0433  0.7833 -0.0730
  742MOL0     H  138  11.349   9.369   8.831  2.0086  0.5381 -0.2991
  742MOL0     H  139  11.228   9.328   8.705  1.2558 -1.3752 -1.3452
  742MOL0     H  140  11.490   9.478   8.647 -0.1196 -0.1377  0.4962
  742MOL0     H  141  11.371   9.408   8.532  0.9792 -2.1371 -1.7307
  742MOL0     H  142  11.430   9.182   8.603 -1.6737  1.0448 -0.4379
  742MOL0     H  143  11.530   9.261   8.728  1.0614 -0.9776 -0.1447
  742MOL0     H  144  11.557   9.268   8.428 -2.4178 -0.1563  1.4263
  742MOL0     H  145  11.685   9.338   8.526  3.3741 -2.0656 -0.2367
  742MOL0     H  146  11.777   9.130   8.454 -0.0411 -0.1648 -0.3570
  742MOL0     H  147  11.631   9.038   8.531  1.9748 -2.4938  3.4267
  742MOL0     H  148  11.720   9.092   8.753  2.2743 -1.7953  1.8359
  742MOL0     H  149  11.836   9.005   8.678 -1.4455 -1.8089 -1.6749
  742MOL0     H  150  10.880   9.484   8.929  1.5454 -0.4422 -2.2696
  742MOL0     H  151  10.646   9.502   8.928  0.8230 -1.5400 -1.6635
  742MOL0     H  152  10.313   9.741   8.706  5.0365 -4.5950  0.4024
  742MOL0     H  153  10.077   9.695   8.616 -4.0631  1.2956  2.0906
  742MOL0     H  154   8.703   9.823   9.937  0.1935  0.9520  1.0874
  742MOL0     H  155   8.514   9.728  10.072 -0.1109  0.2155  0.9714
  742MOL0     H  156   7.868   9.799   9.920  0.9773  2.6039  1.2933
  742MOL0     H  157   7.691   9.693   9.996 -0.0093  1.8359 -0.8137
  742MOL0     H  158   7.562   9.619  10.157 -0.1195 -0.2064  0.1278
  742MOL0     H  159   7.504   9.475  10.236 -0.9062  0.3286 -0.8492
  742MOL0     H  160   7.581   9.488   9.943 -0.2916 -0.8276 -0.7542
  742MOL0     H  161   7.414   9.490  10.013  0.5673  0.9447 -1.2727
  742MOL0     H  162   7.476   9.266  10.127 -2.0026 -1.6949 -1.3901
  742MOL0     H  163   7.615   9.266  10.012  0.3968 -0.1734  1.3049
  742MOL0     H  164   7.401   9.139   9.925  0.9473 -0.5165  2.6255
  742MOL0     H  165   7.294   9.279   9.940 -0.2568 -1.0606 -4.0545
  742MOL0     H  166   7.516   9.350   9.589 -0.2384  0.3937 -0.4018
  742MOL0     H  167   7.924   9.452  10.261  2.2173  0.4105  0.3531
  742MOL0     H  168   8.224   9.489  10.173  1.0120  1.1620  0.0944
  742MOL0     H  169   8.234   9.652  10.254 -0.0928  0.3808 -0.4079
  742MOL0     H  170   8.141   9.525  10.324  1.2840 -1.8365 -0.1547
  743MOL0     O  171   3.838   3.152   1.876  0.7806 -1.0772 -0.6697
  743MOL0     C  172   3.785   3.065   1.805  0.0586  0.0921  0.6607
  743MOL0     O  173   3.805   3.057   1.661  0.9026 -0.0308  0.1421
  743MOL0     C  174   3.884   3.142   1.592  1.2213 -0.3432 -0.5276
  743MOL0     C  175   3.876   3.127   1.454 -0.2151  0.3490  0.3492
  743MOL0     C  176   3.937   3.208   1.357 -0.7469 -0.4784 -0.2813
  743MOL0     C  177   4.026   3.310   1.393  0.8229  0.3395  0.4034
  743MOL0     O  178   4.085   3.391   1.294 -0.3325 -0.0858 -0.2830
  743MOL0     C  179   4.204   3.459   1.328 -0.4845 -0.8036  0.2096
  743MOL0     C  180   4.278   3.488   1.204 -0.3927  0.9608 -0.2988
  743MOL0     C  181   4.413   3.546   1.240 -0.5052 -0.2641  0.2058
  743MOL0     C  182   4.482   3.585   1.098  0.5785 -0.7981 -0.5425
  743MOL0     C  183   4.632   3.600   1.116 -0.2050  0.3931 -0.1426
  743MOL0     C  184   4.658   3.749   1.097 -0.3769 -0.2328  0.2422
  743MOL0     C  185   4.813   3.800   1.108  0.3675 -0.2160 -0.2669
  743MOL0     C  186   4.865   3.898   0.997  0.1977 -0.4029  0.7150
  743MOL0     N  187   4.996   3.942   1.034 -0.7182 -0.1338  0.2086
  743MOL0     C  188   5.036   3.980   1.166 -0.3432 -1.0951  0.1946
  743MOL0     C  189   5.148   4.049   1.150 -0.2082  0.3878 -0.4377
  743MOL0     C  190   5.227   4.119   1.256  0.6006 -0.5462  0.1475
  743MOL0     C  191   5.329   4.026   1.322  0.5045 -0.9444  0.4823
  743MOL0     C  192   5.433   4.099   1.409  0.9905 -0.5385  0.6127
  743MOL0     C  193   5.575   4.061   1.366 -0.2125  0.0225 -0.2366
  743MOL0     O  194   5.595   3.921   1.383  0.0180  1.3272 -0.0703
  743MOL0     C  195   5.722   3.873   1.412 -0.3226  0.0437  0.1812
  743MOL0     C  196   5.738   3.768   1.498  0.6521  0.3004  0.5179
  743MOL0     C  197   5.859   3.702   1.544  0.0572  0.1583  0.4152
  743MOL0     C  198   5.978   3.745   1.481  0.6620 -0.3745 -0.8167
  743MOL0     C  199   6.111   3.681   1.511 -0.6058 -1.1054 -0.4431
  743MOL0     O  200   6.213   3.703   1.425 -0.1796 -0.6324  0.0836
  743MOL0     C  201   6.347   3.682   1.469  0.1599 -0.0854  0.0485
  743MOL0     C  202   6.410   3.774   1.555  0.0936  0.4209 -0.5422
  743MOL0     C  203   6.535   3.746   1.598 -0.5714  0.4534  0.0633
  743MOL0     C  204   6.612   3.643   1.526  0.4197 -1.0873  0.5191
  743MOL0     O  205   6.747   3.622   1.551 -0.6117  0.2168 -0.4106
  743MOL0     C  206   6.834   3.730   1.572  0.3845  0.9567 -0.2015
  743MOL0     C  207   6.975   3.689   1.601  0.2192  0.4286 -0.2498
  743MOL0     C  208   6.983   3.619   1.733 -0.0060 -0.5229  0.0426
  743MOL0     C  209   7.125   3.607   1.793  0.3501  1.2572  0.8757
  743MOL0     C  210   7.204   3.497   1.718 -0.1222  0.1588 -0.9174
  743MOL0     C  211   7.333   3.462   1.809 -0.0221 -0.3066  0.5247
  743MOL0     C  212   7.405   3.338   1.755  0.0734 -0.2173 -0.1350
  743MOL0     C  213   7.496   3.268   1.850 -0.4436 -0.2913  0.0106
  743MOL0    Cl  214   7.651   3.377   1.830 -0.5699 -0.0946 -0.0963
  743MOL0     C  215   6.548   3.559   1.445  0.2747  0.1830 -1.0023
  743MOL0     C  216   6.408   3.571   1.411 -0.6163  0.2042 -0.8498
  743MOL0     O  217   6.104   3.606   1.610  0.2561  0.3060 -0.0583
  743MOL0     C  218   5.963   3.862   1.398 -0.2225  0.0910 -0.1358
  743MOL0     C  219   5.845   3.924   1.373  0.0423 -0.8527 -0.5751
  743MOL0     N  220   5.176   4.055   1.016  0.1083  0.3029  0.2555
  743MOL0     N  221   5.086   3.982   0.949 -0.5537 -0.7744 -0.7075
  743MOL0     C  222   4.042   3.329   1.535 -0.7020 -0.1661  0.2816
  743MOL0     C  223   3.972   3.249   1.629  0.5232  0.4073 -1.1046
  743MOL0     C  224   3.690   2.969   1.867  0.6565  0.6790  0.7510
  743MOL0     C  225   3.591   2.903   1.786  0.6012  0.2677 -0.5309
  743MOL0     C  226   3.488   2.819   1.833 -0.0826  0.1698  0.1986
  743MOL0     C  227   3.484   2.796   1.972  0.5942 -0.1897  0.3187
  743MOL0     O  228   3.384   2.711   2.014 -0.0009 -0.2606  0.7147
  743MOL0     C  229   3.338   2.718   2.153  0.1440  0.2801  0.2448
  743MOL0     C  230   3.259   2.847   2.179 -0.3723  0.2716  0.0985
  743MOL0     C  231   3.164   2.850   2.302  0.1942  0.5925  0.3071
  743MOL0     C  232   3.034   2.774   2.287  0.6742 -0.0739 -0.2029
  743MOL0     C  233   3.059   2.647   2.352 -0.1930 -0.6392 -0.2035
  743MOL0     C  234   3.088   2.536   2.392  0.6764  0.3183  0.5421
  743MOL0     C  235   3.579   2.861   2.055  0.4851 -0.5689 -0.3976
  743MOL0     C  236   3.674   2.948   2.006  0.5168  0.3930 -0.1477
  743MOL0     C  237   3.752   3.026   2.107 -1.0289 -0.7517 -1.0422
  743MOL0     H  238   3.824   3.037   1.423 -0.3261 -0.1390  1.8264
  743MOL0     H  239   3.935   3.185   1.251 -0.4442  1.5419 -0.7700
  743MOL0     H  240   4.183   3.552   1.381  2.7857  0.3137 -0.2438
  743MOL0     H  241   4.273   3.400   1.390 -0.3094  0.3592  1.1633
  743MOL0     H  242   4.227   3.554   1.133  0.3834 -0.2844 -2.0870
  743MOL0     H  243   4.299   3.397   1.147 -3.4874  0.0454 -0.1669
  743MOL0     H  244   4.485   3.475   1.280  0.9210 -0.8611 -3.0773
  743MOL0     H  245   4.397   3.629   1.310 -2.7483  0.3216 -0.9056
  743MOL0     H  246   4.464   3.499   1.032 -2.7027  0.5976 -1.7006
  743MOL0     H  247   4.417   3.664   1.059 -1.5868  0.0229  4.0308
  743MOL0     H  248   4.657   3.569   1.218 -3.3112  0.0413  0.5926
  743MOL0     H  249   4.692   3.551   1.038 -2.8175 -0.6858 -1.5794
  743MOL0     H  250   4.627   3.770   0.994 -0.8311 -3.3292 -0.3529
  743MOL0     H  251   4.595   3.811   1.161 -2.1712  0.7544 -2.3149
  743MOL0     H  252   4.875   3.710   1.111 -1.1349 -1.2558  0.9386
  743MOL0     H  253   4.808   3.857   1.201 -3.1074  1.4978 -1.3270
  743MOL0     H  254   4.859   3.866   0.892  0.2197  3.0021 -0.4307
  743MOL0     H  255   4.791   3.977   1.007 -0.9600 -1.4341  0.6238
  743MOL0     H  256   4.990   3.961   1.263 -1.8374 -0.4288 -0.3510
  743MOL0     H  257   5.282   4.197   1.201 -2.3895 -0.8688 -3.7330
  743MOL0     H  258   5.165   4.154   1.339  0.7758  0.2540 -0.0488
  743MOL0     H  259   5.267   3.964   1.387 -1.0482 -0.4280 -0.4644
  743MOL0     H  260   5.370   3.974   1.235 -1.4865 -1.1400 -0.4074
  743MOL0     H  261   5.412   4.066   1.511 -0.6550  0.6929  0.7101
  743MOL0     H  262   5.424   4.207   1.403  0.6124 -0.4419  2.5119
  743MOL0     H  263   5.648   4.114   1.427  1.4458 -0.9999 -1.2374
  743MOL0     H  264   5.593   4.090   1.262 -2.8476 -3.1173 -1.7326
  743MOL0     H  265   5.649   3.713   1.529  0.6153  0.9999  1.7009
  743MOL0     H  266   5.866   3.630   1.624  2.4650  1.8924  1.9129
  743MOL0     H  267   6.345   3.849   1.600 -2.4527 -1.6046 -0.6496
  743MOL0     H  268   6.581   3.813   1.670 -1.1769 -1.5081  2.3940
  743MOL0     H  269   6.835   3.789   1.480  1.8445 -1.6497 -1.9826
  743MOL0     H  270   6.797   3.783   1.661 -1.5024 -3.2880  1.8574
  743MOL0     H  271   7.005   3.624   1.519  1.0998  1.0363 -0.4228
  743MOL0     H  272   7.033   3.781   1.590  1.9323 -0.5704  0.1193
  743MOL0     H  273   6.924   3.681   1.802 -0.9516 -1.9967  0.5994
  743MOL0     H  274   6.925   3.526   1.736  1.0419 -1.1622  1.6452
  743MOL0     H  275   7.111   3.589   1.900  1.6047 -0.5411  0.7795
  743MOL0     H  276   7.177   3.702   1.775 -0.4363  1.0776 -3.5775
  743MOL0     H  277   7.243   3.547   1.629  1.3436  1.1860  0.2522
  743MOL0     H  278   7.158   3.406   1.680  0.2083  0.1537 -1.3094
  743MOL0     H  279   7.408   3.539   1.827  2.0246 -2.1747  0.4861
  743MOL0     H  280   7.291   3.432   1.906 -1.2888  0.6859  0.3135
  743MOL0     H  281   7.474   3.364   1.675  3.6369 -0.5699  2.5545
  743MOL0     H  282   7.330   3.269   1.716 -0.7980  0.3000  0.5839
  743MOL0     H  283   7.461   3.244   1.951  1.0523  0.8412  0.8465
  743MOL0     H  284   7.527   3.173   1.807  1.3802  0.9555 -1.6279
  743MOL0     H  285   6.598   3.476   1.396 -0.7547 -1.6418  0.8915
  743MOL0     H  286   6.361   3.510   1.334  3.4852 -0.3421 -3.2369
  743MOL0     H  287   6.045   3.896   1.335 -2.7063  4.7027 -1.3264
  743MOL0     H  288   5.840   3.999   1.294 -3.5511 -1.1549 -0.7874
  743MOL0     H  289   4.100   3.408   1.582  0.4895 -2.1749  2.3669
  743MOL0     H  290   3.985   3.270   1.734  5.7313  1.5275 -1.6822
  743MOL0     H  291   3.590   2.928   1.680 -0.2337 -1.9186 -1.1109
  743MOL0     H  292   3.420   2.758   1.776  0.4372 -1.5673  1.3719
  743MOL0     H  293   3.413   2.710   2.232 -1.0923  0.5950  1.4863
  743MOL0     H  294   3.269   2.633   2.158 -1.6151  1.5400 -1.0405
  743MOL0     H  295   3.204   2.874   2.089 -1.3844  0.2634  0.6951
  743MOL0     H  296   3.344   2.913   2.201  0.0843 -0.5162  0.8021
  743MOL0     H  297   3.152   2.958   2.318  0.2817  0.9310 -1.6853
  743MOL0     H  298   3.218   2.813   2.390  0.3135 -0.3750 -0.1679
  743MOL0     H  299   2.951   2.821   2.341  1.5213  1.4358 -0.1816
  743MOL0     H  300   3.009   2.761   2.181 -2.6363  0.3482  0.4159
  743MOL0     H  301   3.101   2.434   2.422 -0.6811 -0.1081 -0.2010
  743MOL0     H  302   3.576   2.829   2.158  0.7389 -2.1297 -0.8444
  743MOL0     H  303   3.858   2.998   2.101 -0.9349 -0.7477  0.3262
  743MOL0     H  304   3.731   3.133   2.099 -0.9575 -0.8285 -2.5206
  743MOL0     H  305   3.714   2.998   2.205 -0.9332 -2.6452 -1.5099
  744MOL0     O  306   8.005   3.100   0.906  0.1040 -0.2365  0.2885
  744MOL0     C  307   8.009   3.147   1.026  0.3764  0.3479 -0.0470
  744MOL0     O  308   7.966   3.271   1.065  0.4741  0.6556  0.3434
  744MOL0     C  309   7.892   3.343   0.972  0.6136  0.0478  0.2020
  744MOL0     C  310   7.792   3.298   0.875 -0.1988 -0.4910 -0.3014
  744MOL0     C  311   7.731   3.383   0.791 -0.4460  0.4838 -0.3103
  744MOL0     C  312   7.755   3.515   0.792 -0.1875 -0.2869  0.7211
  744MOL0     O  313   7.702   3.603   0.693  0.2785  0.3293  0.3404
  744MOL0     C  314   7.802   3.677   0.622 -0.3090  0.3410  0.1594
  744MOL0     C  315   7.855   3.607   0.496  0.5197 -0.6124  0.3867
  744MOL0     C  316   7.754   3.579   0.392 -0.2983 -0.0376 -0.1117
  744MOL0     C  317   7.698   3.430   0.405  0.8065  0.7119  0.0864
  744MOL0     C  318   7.587   3.401   0.301  0.7922 -0.7364  0.8253
  744MOL0     C  319   7.452   3.475   0.314  0.8684  0.0982 -0.2307
  744MOL0     C  320   7.400   3.440   0.457 -0.3303  0.1488  0.0109
  744MOL0     C  321   7.254   3.491   0.472 -0.3199 -0.2084  0.2163
  744MOL0     N  322   7.202   3.473   0.608  0.7378  0.2305  0.3940
  744MOL0     C  323   7.222   3.551   0.710  0.1802 -0.8086 -0.2232
  744MOL0     C  324   7.170   3.496   0.826 -0.3584  0.1329  0.8717
  744MOL0     C  325   7.205   3.547   0.960 -0.0261  0.2998  0.1854
  744MOL0     C  326   7.341   3.492   1.020  0.3030  0.5828  0.6206
  744MOL0     C  327   7.385   3.558   1.150  0.1939  0.4514  0.2937
  744MOL0     C  328   7.512   3.489   1.204 -0.0300 -0.1306 -0.4348
  744MOL0     O  329   7.470   3.376   1.277 -0.4486 -0.2113  0.7248
  744MOL0     C  330   7.576   3.306   1.337 -0.8417 -0.8900  0.6275
  744MOL0     C  331   7.708   3.335   1.314 -0.3805  0.5060 -0.6827
  744MOL0     C  332   7.811   3.276   1.387  0.6619 -0.4996 -0.5498
  744MOL0     C  333   7.792   3.189   1.492  0.1475 -1.2403  0.1400
  744MOL0     C  334   7.912   3.124   1.558 -0.0158 -0.0963 -0.0712
  744MOL0     O  335   7.873   3.005   1.620 -0.9671 -0.1539  0.6226
  744MOL0     C  336   7.969   2.937   1.690 -0.1038 -0.5637  0.4614
  744MOL0     C  337   7.939   2.896   1.814 -0.0621 -0.6661 -1.0162
  744MOL0     C  338   8.030   2.827   1.896  0.6239 -0.0304 -0.8324
  744MOL0     C  339   8.161   2.790   1.848 -0.3166  0.5830  1.1019
  744MOL0     O  340   8.254   2.721   1.920  0.1465 -0.9277  0.7171
  744MOL0     C  341   8.357   2.805   1.976  0.1518  0.7576  0.0895
  744MOL0     C  342   8.362   2.781   2.126  0.9190 -0.2444  0.3811
  744MOL0     C  343   8.245   2.858   2.199 -0.8509 -0.2846  0.1540
  744MOL0     C  344   8.247   2.832   2.353  0.5014  0.1619  0.3700
  744MOL0     C  345   8.127   2.902   2.428 -0.2096  0.2374  0.8248
  744MOL0     C  346   8.128   2.867   2.577  0.3028 -0.3758 -0.1334
  744MOL0     C  347   8.016   2.933   2.659  0.3262  0.0717 -0.2236
  744MOL0     C  348   8.022   2.899   2.812 -0.2416 -1.1830  0.6449
  744MOL0    Cl  349   8.116   3.010   2.912  0.1106 -0.4208 -0.1193
  744MOL0     C  350   8.193   2.838   1.718  0.6150 -0.4391  0.2435
  744MOL0     C  351   8.104   2.906   1.642  0.6104  0.3346  0.0024
  744MOL0     O  352   8.026   3.168   1.538  0.3173  0.3353  0.4797
  744MOL0     C  353   7.659   3.148   1.514  0.2452  0.3038 -1.4238
  744MOL0     C  354   7.559   3.201   1.431  0.2351  1.3142  0.6173
  744MOL0     N  355   7.115   3.380   0.783  0.3653  0.5461  0.2467
  744MOL0     N  356   7.139   3.362   0.655 -0.1019 -0.8321  0.0720
  744MOL0     C  357   7.833   3.575   0.901 -0.3529  0.5389  0.1097
  744MOL0     C  358   7.890   3.483   0.991  0.1198 -0.5165  0.3095
  744MOL0     C  359   8.073   3.063   1.126 -0.3050  0.3455  0.1081
  744MOL0     C  360   8.159   3.127   1.215 -0.2130  0.2829  0.0452
  744MOL0     C  361   8.243   3.059   1.304 -0.6051  0.4498  0.3708
  744MOL0     C  362   8.249   2.921   1.295  0.0506 -0.2983 -0.0513
  744MOL0     O  363   8.339   2.846   1.360  0.9186 -0.5354  0.3787
  744MOL0     C  364   8.452   2.905   1.431 -0.5877 -0.1143  0.3651
  744MOL0     C  365   8.563   2.801   1.430 -1.0897 -0.0307  0.5669
  744MOL0     C  366   8.548   2.694   1.535  0.5293  0.3633  1.0134
  744MOL0     C  367   8.657   2.592   1.501 -0.6127 -0.0221 -0.1426
  744MOL0     C  368   8.655   2.504   1.612 -0.4558  0.6323 -0.2202
  744MOL0     C  369   8.669   2.446   1.714  0.3933  0.2345 -0.9032
  744MOL0     C  370   8.168   2.850   1.212 -0.4699  0.1313 -0.3436
  744MOL0     C  371   8.075   2.921   1.129 -0.4149 -0.8443  0.5115
  744MOL0     C  372   7.988   2.833   1.042  0.0206  0.8118  0.6105
  744MOL0     H  373   7.773   3.191   0.866  2.3247 -1.0370 -0.0220
  744MOL0     H  374   7.665   3.341   0.716 -3.4371  2.4039  1.0213
  744MOL0     H  375   7.762   3.774   0.592 -0.7388  0.3214  0.6464
  744MOL0     H  376   7.889   3.683   0.687 -1.3755 -0.4916  1.7354
  744MOL0     H  377   7.896   3.513   0.534  2.0358 -0.0991  0.1023
  744MOL0     H  378   7.938   3.666   0.455 -0.2499 -1.1986 -2.2062
  744MOL0     H  379   7.805   3.581   0.295  0.6321 -2.5776  0.2516
  744MOL0     H  380   7.680   3.660   0.389 -0.8307 -0.5292 -0.4926
  744MOL0     H  381   7.773   3.351   0.390 -1.7721 -1.9052  0.0612
  744MOL0     H  382   7.665   3.414   0.508 -0.7426  1.2870 -0.2999
  744MOL0     H  383   7.626   3.435   0.204 -1.9262  1.4847  0.3951
  744MOL0     H  384   7.567   3.295   0.287 -2.2203 -0.2698  1.0872
  744MOL0     H  385   7.463   3.583   0.301 -3.2430  0.7401  0.1302
  744MOL0     H  386   7.374   3.433   0.249  0.9676 -2.4504  1.1781
  744MOL0     H  387   7.473   3.469   0.532  0.1155  2.4073 -1.2055
  744MOL0     H  388   7.393   3.331   0.461  0.2420  0.1571  3.0713
  744MOL0     H  389   7.252   3.599   0.454 -0.8014 -0.4747 -1.4976
  744MOL0     H  390   7.199   3.445   0.390  1.2995 -2.5742  0.3434
  744MOL0     H  391   7.269   3.648   0.697  2.2677 -2.0456 -2.8591
  744MOL0     H  392   7.192   3.655   0.951 -0.9280  0.3541  1.7901
  744MOL0     H  393   7.115   3.525   1.017  0.7723 -4.0306  0.1204
  744MOL0     H  394   7.315   3.390   1.050  0.5947  0.2114 -0.3530
  744MOL0     H  395   7.412   3.486   0.938  1.2836  0.8695  1.4216
  744MOL0     H  396   7.301   3.561   1.219  1.0210  3.7194  1.3647
  744MOL0     H  397   7.398   3.665   1.129 -2.7427  0.7192 -0.5787
  744MOL0     H  398   7.570   3.560   1.265  1.2477 -2.4090  1.1464
  744MOL0     H  399   7.575   3.457   1.121  2.0349 -0.2487  1.1122
  744MOL0     H  400   7.742   3.404   1.238  4.5064 -0.1966  0.5509
  744MOL0     H  401   7.914   3.292   1.356  1.1794 -0.8062  0.8817
  744MOL0     H  402   7.835   2.915   1.838  0.1502 -0.1451 -0.4884
  744MOL0     H  403   7.989   2.790   1.990 -0.1826 -2.5020 -2.0508
  744MOL0     H  404   8.448   2.789   1.917 -0.8526 -2.6602 -0.7256
  744MOL0     H  405   8.324   2.908   1.965 -0.9816  0.5273  1.1520
  744MOL0     H  406   8.376   2.676   2.151  0.8910 -0.0468  1.2537
  744MOL0     H  407   8.441   2.826   2.186  0.2601  0.7268  0.5505
  744MOL0     H  408   8.236   2.965   2.178  1.3431 -0.2664 -0.9008
  744MOL0     H  409   8.150   2.824   2.158 -1.5008 -1.0865  2.1868
  744MOL0     H  410   8.346   2.851   2.394  0.3745 -1.8156  1.7071
  744MOL0     H  411   8.239   2.724   2.364 -1.3335  0.2547  0.2313
  744MOL0     H  412   8.027   2.873   2.395  0.5175  0.6640 -1.9592
  744MOL0     H  413   8.132   3.011   2.433  2.7361  0.1590  1.7604
  744MOL0     H  414   8.131   2.759   2.590  1.4547 -0.1507  1.9068
  744MOL0     H  415   8.217   2.915   2.618  0.0690  2.0070 -2.1319
  744MOL0     H  416   7.916   2.903   2.627 -0.7643  0.9583  2.1731
  744MOL0     H  417   8.023   3.041   2.646  0.1659  0.2126  0.8232
  744MOL0     H  418   7.916   2.903   2.840 -0.5933  1.2410 -0.7473
  744MOL0     H  419   8.074   2.803   2.823  1.7947 -0.5021 -1.9028
  744MOL0     H  420   8.296   2.835   1.684  1.2933  0.3284  2.0319
  744MOL0     H  421   8.119   2.919   1.535 -1.0046 -1.0317 -0.4393
  744MOL0     H  422   7.643   3.059   1.575  2.1934 -0.7095 -2.2983
  744MOL0     H  423   7.461   3.156   1.443  1.3068 -1.4355 -0.3939
  744MOL0     H  424   7.840   3.683   0.911 -0.8188  0.4384  1.8619
  744MOL0     H  425   7.952   3.523   1.070  0.8685 -0.7139 -0.1676
  744MOL0     H  426   8.145   3.233   1.235  0.5369  0.1412  1.5181
  744MOL0     H  427   8.298   3.111   1.381 -1.3716  0.9023  0.6245
  744MOL0     H  428   8.433   2.949   1.529  2.5172  0.1846  0.9276
  744MOL0     H  429   8.499   2.988   1.377  0.1005 -0.2191  0.7959
  744MOL0     H  430   8.657   2.856   1.444 -0.4721 -0.2761 -2.0716
  744MOL0     H  431   8.581   2.762   1.330  2.1730 -3.0609  2.1054
  744MOL0     H  432   8.449   2.650   1.551  0.7440 -0.8234 -0.6607
  744MOL0     H  433   8.587   2.732   1.629  1.6958 -2.9894  2.0506
  744MOL0     H  434   8.648   2.537   1.407  2.1225 -2.6146  0.9548
  744MOL0     H  435   8.747   2.654   1.501 -2.8149  3.5895  2.0491
  744MOL0     H  436   8.683   2.406   1.812 -2.4072 -1.0711 -0.9489
  744MOL0     H  437   8.170   2.742   1.210  0.4927  0.0739 -3.9633
  744MOL0     H  438   7.993   2.867   0.938  2.3531 -0.1262  0.3527
  744MOL0     H  439   8.019   2.728   1.037  1.7588  1.2249  1.7094
  744MOL0     H  440   7.884   2.848   1.070  0.2366  0.1610  1.8146
  745MOL0     O  441   2.343  10.757   2.135 -0.4675 -0.4154  0.0434
  745MOL0     C  442   2.419  10.790   2.045 -0.8399  1.0178 -0.2181
  745MOL0     O  443   2.380  10.842   1.922 -0.7325  0.1671  0.4260
  745MOL0     C  444   2.246  10.834   1.892 -0.2067 -0.1422 -0.3547
  745MOL0     C  445   2.147  10.921   1.947 -0.3458  0.6355 -0.2262
  745MOL0     C  446   2.013  10.907   1.922 -0.2998  0.7555 -0.1137
  745MOL0     C  447   1.971  10.798   1.837  0.6836 -0.4679 -0.0112
  745MOL0     O  448   1.842  10.759   1.819  0.1049  0.3373 -0.4581
  745MOL0     C  449   1.742  10.855   1.787 -0.5683 -0.7205  0.6743
  745MOL0     C  450   1.614  10.832   1.853  0.1361  1.2292 -0.5399
  745MOL0     C  451   1.571  10.684   1.846 -0.3949  0.5274  0.8353
  745MOL0     C  452   1.429  10.656   1.908  0.0721 -0.4528  0.0851
  745MOL0     C  453   1.412  10.503   1.916 -0.2686  0.4615 -1.0259
  745MOL0     C  454   1.287  10.462   1.995 -0.4777  0.0508 -0.1270
  745MOL0     C  455   1.298  10.317   2.046  0.6843  0.2314 -0.3476
  745MOL0     C  456   1.376  10.301   2.176 -0.1548  0.3175 -0.1265
  745MOL0     N  457   1.448  10.172   2.169 -0.7131  0.2503  0.0840
  745MOL0     C  458   1.581  10.153   2.117  0.0213  0.1380  0.8465
  745MOL0     C  459   1.613  10.028   2.142 -0.9451  0.7498 -0.3083
  745MOL0     C  460   1.736   9.945   2.102  1.1694 -0.3190  0.0717
  745MOL0     C  461   1.860  10.026   2.038  0.3167  0.5608  0.0590
  745MOL0     C  462   1.964   9.922   1.990  0.6622 -0.0124  1.0184
  745MOL0     C  463   2.104   9.976   1.961 -0.7815  0.6219 -0.8181
  745MOL0     O  464   2.187   9.870   1.920  0.0666 -0.1016 -0.2325
  745MOL0     C  465   2.314   9.871   1.971  0.3880 -0.0721 -0.6135
  745MOL0     C  466   2.386   9.989   2.001  0.1844 -0.1550  0.3184
  745MOL0     C  467   2.516   9.989   2.053  0.5257  0.0460 -0.4775
  745MOL0     C  468   2.576   9.871   2.093  0.8395  0.0097 -0.5712
  745MOL0     C  469   2.711   9.859   2.158  0.3087 -0.3337 -0.4810
  745MOL0     O  470   2.774   9.978   2.166 -0.5242  0.3145 -0.6996
  745MOL0     C  471   2.912   9.970   2.212  0.6410 -1.1041 -0.1816
  745MOL0     C  472   3.001   9.886   2.156  1.0932  0.4583 -0.4760
  745MOL0     C  473   3.132   9.884   2.212  0.2014 -0.5354 -0.2209
  745MOL0     C  474   3.168   9.957   2.325 -0.5899 -1.5911 -0.5837
  745MOL0     O  475   3.294   9.954   2.380 -0.6014  0.4190 -0.7183
  745MOL0     C  476   3.398   9.907   2.295 -0.7242  0.6563  0.1427
  745MOL0     C  477   3.534   9.936   2.359 -0.1277  0.1842 -0.2506
  745MOL0     C  478   3.654   9.890   2.269  0.0268 -0.5339 -0.1844
  745MOL0     C  479   3.786   9.914   2.339 -0.1945  0.2038  0.1003
  745MOL0     C  480   3.908   9.921   2.249 -0.2752 -0.8610  1.0012
  745MOL0     C  481   3.913  10.040   2.157  0.1845  0.3723  0.5035
  745MOL0     C  482   4.060  10.058   2.093  0.7194 -0.3738  0.5264
  745MOL0     C  483   4.101   9.924   2.022  0.5635  0.4428 -0.0696
  745MOL0    Cl  484   4.261   9.942   1.955  0.0138 -0.1241 -0.4318
  745MOL0     C  485   3.075  10.048   2.379  0.4450  0.6045  0.6822
  745MOL0     C  486   2.945  10.049   2.327 -0.3294  0.6134 -0.7486
  745MOL0     O  487   2.751   9.755   2.196 -0.1621  0.5056  0.0742
  745MOL0     C  488   2.508   9.754   2.063  1.4250 -0.3358  0.6169
  745MOL0     C  489   2.374   9.757   2.010 -0.3612 -0.0639  0.2378
  745MOL0     N  490   1.509   9.978   2.216  0.0571 -0.5629 -0.4056
  745MOL0     N  491   1.406  10.061   2.231 -0.5880  0.6112  0.7508
  745MOL0     C  492   2.069  10.718   1.771  0.5837  0.1598  0.0432
  745MOL0     C  493   2.204  10.744   1.792  0.7333 -0.0600 -0.2552
  745MOL0     C  494   2.574  10.780   2.070  0.1238 -0.2750 -0.4505
  745MOL0     C  495   2.660  10.768   1.953  0.6397 -0.1109  0.2633
  745MOL0     C  496   2.796  10.743   1.962 -0.8229  0.3045 -0.0799
  745MOL0     C  497   2.860  10.735   2.088 -0.4527  0.4755  0.1040
  745MOL0     O  498   2.991  10.715   2.109 -0.7671 -0.0013 -0.9033
  745MOL0     C  499   3.074  10.831   2.104  0.0610 -0.4696  0.4295
  745MOL0     C  500   3.133  10.868   2.234  0.1481 -0.0485 -0.6258
  745MOL0     C  501   3.235  10.759   2.271 -0.1882 -0.0938  0.2216
  745MOL0     C  502   3.313  10.775   2.407 -0.4334 -0.3197  0.1860
  745MOL0     C  503   3.239  10.744   2.531 -0.0378  0.3341  0.2516
  745MOL0     C  504   3.153  10.737   2.613  0.0506  0.4146  0.3370
  745MOL0     C  505   2.772  10.730   2.204 -0.1420  0.4042  0.4768
  745MOL0     C  506   2.631  10.766   2.199 -0.6250 -0.2135 -0.4954
  745MOL0     C  507   2.548  10.775   2.323  0.7474  0.0923 -0.7104
  745MOL0     H  508   2.179  10.998   2.017 -0.4008  0.7962 -0.3758
  745MOL0     H  509   1.928  10.964   1.960 -2.4637 -0.9382 -2.0524
  745MOL0     H  510   1.763  10.961   1.802  0.1705 -0.5914 -1.0439
  745MOL0     H  511   1.732  10.841   1.679  2.1305 -4.3946  0.7388
  745MOL0     H  512   1.544  10.895   1.797 -0.7453 -0.4736 -1.4231
  745MOL0     H  513   1.617  10.847   1.961  2.7928 -0.7492 -0.2281
  745MOL0     H  514   1.639  10.618   1.902 -2.0224 -1.0781  1.0393
  745MOL0     H  515   1.585  10.639   1.747  0.8080  2.4831  0.0558
  745MOL0     H  516   1.422  10.702   2.007  0.3442 -0.1006 -0.0543
  745MOL0     H  517   1.351  10.708   1.851  0.3503  0.3829  0.4485
  745MOL0     H  518   1.401  10.469   1.812  0.6258 -0.4346 -0.8455
  745MOL0     H  519   1.504  10.466   1.961  1.7148  2.5319 -3.1477
  745MOL0     H  520   1.277  10.531   2.079 -1.9617 -1.0147  0.6110
  745MOL0     H  521   1.199  10.475   1.932  1.0864  3.5240 -1.8923
  745MOL0     H  522   1.344  10.262   1.963 -0.1957  1.0243 -1.3858
  745MOL0     H  523   1.208  10.261   2.069  0.5663  1.5342  2.8168
  745MOL0     H  524   1.441  10.388   2.191 -1.9884  2.0697 -1.7577
  745MOL0     H  525   1.312  10.299   2.264  0.5683  0.9922  0.4314
  745MOL0     H  526   1.638  10.234   2.073 -2.9868  1.5520 -0.7438
  745MOL0     H  527   1.772   9.893   2.191  0.8222  2.6755  2.1160
  745MOL0     H  528   1.714   9.868   2.028  0.9902  1.7967 -2.2186
  745MOL0     H  529   1.830  10.088   1.953 -0.4739 -0.8600 -0.7402
  745MOL0     H  530   1.892  10.099   2.113 -1.9604  1.9311 -0.1996
  745MOL0     H  531   1.929   9.871   1.900  2.9137  1.5305 -0.8614
  745MOL0     H  532   1.964   9.841   2.064 -1.3559  1.1565  2.3865
  745MOL0     H  533   2.129  10.030   2.053  1.1305  1.4775 -1.7980
  745MOL0     H  534   2.115  10.042   1.874  2.4498  0.3688 -0.7040
  745MOL0     H  535   2.343  10.085   1.973 -1.1296 -0.5373  0.9375
  745MOL0     H  536   2.567  10.084   2.067  0.6760  0.4028 -2.9900
  745MOL0     H  537   2.963   9.823   2.076  1.1093 -1.3139  0.8483
  745MOL0     H  538   3.204   9.816   2.167  2.4596  2.2033 -1.0961
  745MOL0     H  539   3.389   9.799   2.279 -1.5673  0.4863  1.5588
  745MOL0     H  540   3.392   9.952   2.195  1.6376  0.0008 -0.3545
  745MOL0     H  541   3.539  10.039   2.395  0.3058  0.1066 -0.0859
  745MOL0     H  542   3.543   9.876   2.450  1.3094  1.7412  0.6795
  745MOL0     H  543   3.652   9.782   2.248  2.0043 -0.1557 -2.8872
  745MOL0     H  544   3.650   9.945   2.175  0.9042  0.1261  0.1528
  745MOL0     H  545   3.798   9.828   2.406 -2.2195  0.5646  1.0266
  745MOL0     H  546   3.779  10.008   2.395  0.0998 -1.2593  2.7792
  745MOL0     H  547   3.944   9.829   2.203  3.4135  0.6520  0.4699
  745MOL0     H  548   3.993   9.946   2.314  0.2628  1.3323 -0.4397
  745MOL0     H  549   3.846  10.017   2.074  3.5909 -1.4280 -1.9689
  745MOL0     H  550   3.879  10.136   2.198 -0.5525  0.0374  0.6836
  745MOL0     H  551   4.142  10.077   2.163  2.1956  2.8951 -1.8288
  745MOL0     H  552   4.051  10.130   2.012  0.6766 -1.3337 -0.3483
  745MOL0     H  553   4.103   9.836   2.086 -0.5693  0.2492 -0.2771
  745MOL0     H  554   4.028   9.922   1.940  2.2096 -1.9561 -1.6195
  745MOL0     H  555   3.105  10.113   2.460  1.2618  0.9551  0.1047
  745MOL0     H  556   2.876  10.119   2.372  1.0054  4.5942 -4.2233
  745MOL0     H  557   2.551   9.657   2.082  0.7319 -1.4291 -2.7103
  745MOL0     H  558   2.328   9.660   1.996  1.1705 -1.1060  1.9719
  745MOL0     H  559   2.036  10.639   1.704  2.4419  1.0372 -2.0180
  745MOL0     H  560   2.276  10.677   1.746  0.3737 -0.6818  0.0809
  745MOL0     H  561   2.617  10.778   1.854  2.2246  2.8893 -0.2272
  745MOL0     H  562   2.863  10.741   1.877  0.2361  1.2175  0.7090
  745MOL0     H  563   3.035  10.921   2.055 -0.3912  0.8710  3.0898
  745MOL0     H  564   3.158  10.798   2.041  0.6036  0.5038  0.6199
  745MOL0     H  565   3.057  10.873   2.313  2.9166 -0.3879  2.2896
  745MOL0     H  566   3.185  10.963   2.217 -0.5469  0.4813  0.1506
  745MOL0     H  567   3.300  10.755   2.183  0.8607  4.1194  0.5960
  745MOL0     H  568   3.180  10.664   2.269 -0.6215 -0.0187  3.2412
  745MOL0     H  569   3.389  10.697   2.398  0.7060  0.8894 -1.1676
  745MOL0     H  570   3.355  10.876   2.402 -4.7110  1.6309 -2.3827
  745MOL0     H  571   3.073  10.728   2.683 -1.1384  0.6978 -0.9431
  745MOL0     H  572   2.822  10.713   2.298  2.9861  0.6726 -1.0188
  745MOL0     H  573   2.620  10.783   2.406  1.7097  2.5897 -1.6746
  745MOL0     H  574   2.484  10.864   2.324  0.1630 -0.3250 -0.2565
  745MOL0     H  575   2.482  10.688   2.328  1.0208 -0.1999 -1.9706
  746MOL0     O  576  10.644   2.919   2.249 -0.2649 -0.0215 -0.2844
  746MOL0     C  577  10.647   3.033   2.194  0.3670  0.4475 -0.3373
  746MOL0     O  578  10.701   3.063   2.076 -0.7018  0.4831 -0.3578
  746MOL0     C  579  10.741   2.954   2.004  0.1149 -0.3864  0.8055
  746MOL0     C  580  10.855   2.890   2.035  0.0040  0.1955 -0.2775
  746MOL0     C  581  10.886   2.772   1.967  0.1356 -0.3988 -0.2803
  746MOL0     C  582  10.807   2.738   1.857  0.5443  0.7138 -0.0505
  746MOL0     O  583  10.843   2.629   1.774 -0.7218 -0.6618  1.0104
  746MOL0     C  584  10.983   2.609   1.744 -0.0242 -0.2840  0.0940
  746MOL0     C  585  11.026   2.738   1.678  0.0803  0.8818  0.1403
  746MOL0     C  586  11.178   2.719   1.631  0.2542  0.2238  0.1141
  746MOL0     C  587  11.194   2.608   1.527 -0.4666  0.3228  0.8035
  746MOL0     C  588  11.346   2.596   1.478  0.3967  0.3676  0.5924
  746MOL0     C  589  11.369   2.502   1.355  0.0314 -0.3147 -0.8539
  746MOL0     C  590  11.516   2.492   1.301 -0.4219 -0.1399 -0.1127
  746MOL0     C  591  11.625   2.441   1.405 -0.0177  0.0651  0.7938
  746MOL0     N  592  11.743   2.387   1.336  0.4858 -0.3333  0.3286
  746MOL0     C  593  11.822   2.434   1.232 -0.1303 -0.1705  1.1312
  746MOL0     C  594  11.923   2.346   1.207 -0.1505 -0.1544  0.7705
  746MOL0     C  595  12.045   2.352   1.106 -0.6437  0.7886 -0.2997
  746MOL0     C  596  12.169   2.273   1.145  0.3469  0.0389  0.4983
  746MOL0     C  597  12.222   2.319   1.274  0.2203  0.0128 -0.0722
  746MOL0     C  598  12.342   2.233   1.316 -0.4385  0.1508 -0.5407
  746MOL0     O  599  12.438   2.262   1.212 -0.4754 -0.2560 -0.2713
  746MOL0     C  600  12.568   2.297   1.232 -0.4166 -0.8013  0.5407
  746MOL0     C  601  12.646   2.281   1.350 -0.2484  0.0443  0.3488
  746MOL0     C  602  12.778   2.320   1.355  0.9457 -0.4741 -0.0343
  746MOL0     C  603  12.842   2.369   1.242  0.7192  0.0189 -1.4508
  746MOL0     C  604  12.975   2.434   1.254 -0.1384  0.3117 -0.3037
  746MOL0     O  605  13.029   2.437   1.377 -0.5085 -0.5837  0.3626
  746MOL0     C  606  13.145   2.516   1.392 -0.5658 -0.2386  0.5807
  746MOL0     C  607  13.246   2.453   1.470  0.3613  0.1347 -0.1511
  746MOL0     C  608  13.368   2.514   1.489 -0.8363  0.5142 -0.0785
  746MOL0     C  609  13.388   2.637   1.442 -1.6407 -0.2401  0.7261
  746MOL0     O  610  13.515   2.675   1.473 -0.6554 -0.0544 -0.4221
  746MOL0     C  611  13.573   2.779   1.387 -0.2792 -1.3650  0.0587
  746MOL0     C  612  13.724   2.790   1.413  0.8930 -0.3894 -0.4403
  746MOL0     C  613  13.809   2.670   1.359  1.1763 -0.1447 -0.0976
  746MOL0     C  614  13.923   2.636   1.459  0.6470 -0.1622 -0.7152
  746MOL0     C  615  13.874   2.536   1.567  0.2452  0.8321  0.5615
  746MOL0     C  616  14.003   2.493   1.644 -0.5057  0.3280  0.1861
  746MOL0     C  617  13.984   2.363   1.708  0.1262  0.4754 -0.0315
  746MOL0     C  618  14.060   2.356   1.839 -0.0507 -0.0766  0.5465
  746MOL0    Cl  619  14.025   2.197   1.917  0.0757 -0.0316 -0.6076
  746MOL0     C  620  13.286   2.702   1.372  0.8222 -0.6592 -0.0780
  746MOL0     C  621  13.160   2.645   1.355  0.0488  0.0471  0.3074
  746MOL0     O  622  13.006   2.511   1.162  0.0079  0.2980 -0.0474
  746MOL0     C  623  12.765   2.376   1.122  0.0897  0.4115 -1.2192
  746MOL0     C  624  12.635   2.339   1.115  0.4650  0.9578  0.4565
  746MOL0     N  625  11.895   2.240   1.294  0.0368  0.2674 -0.3679
  746MOL0     N  626  11.793   2.256   1.369  0.4077 -0.7882  0.3577
  746MOL0     C  627  10.689   2.807   1.820 -0.0756 -0.3360 -0.9759
  746MOL0     C  628  10.669   2.919   1.898  0.2332  1.5237 -0.2629
  746MOL0     C  629  10.582   3.146   2.271 -0.4762 -0.2464  0.0568
  746MOL0     C  630  10.646   3.274   2.259  0.3412 -0.0737  0.0275
  746MOL0     C  631  10.582   3.381   2.314  0.7078 -0.1100  0.0364
  746MOL0     C  632  10.474   3.369   2.397  0.4150 -0.3458 -0.1284
  746MOL0     O  633  10.431   3.491   2.446  0.4010 -0.3662  0.2013
  746MOL0     C  634  10.300   3.500   2.495 -0.2746 -0.2010 -0.6559
  746MOL0     C  635  10.294   3.532   2.649  0.1084 -0.1928  0.1121
  746MOL0     C  636  10.319   3.683   2.669 -0.1662 -0.7469 -0.5073
  746MOL0     C  637  10.207   3.775   2.639 -0.3229 -0.0663 -0.7805
  746MOL0     C  638  10.249   3.913   2.681  0.0646  0.2597  0.0634
  746MOL0     C  639  10.278   4.019   2.726 -0.6476  0.2984  0.9020
  746MOL0     C  640  10.416   3.244   2.403 -1.2455 -0.1148 -0.4852
  746MOL0     C  641  10.469   3.130   2.348  0.1395 -0.7107  0.7578
  746MOL0     C  642  10.388   3.000   2.369 -0.4685  0.5706  0.6603
  746MOL0     H  643  10.926   2.913   2.114 -3.1790  1.8049  2.3738
  746MOL0     H  644  10.978   2.726   2.000 -1.0941 -2.4381  0.4489
  746MOL0     H  645  11.046   2.587   1.830  1.7247 -4.1198 -1.9367
  746MOL0     H  646  10.987   2.522   1.677  2.0026  0.4891 -0.8556
  746MOL0     H  647  11.021   2.824   1.745 -0.5024  0.7255  0.3049
  746MOL0     H  648  10.958   2.763   1.596 -1.3413 -0.7145  0.7654
  746MOL0     H  649  11.244   2.700   1.715  1.0063  4.1721  0.6205
  746MOL0     H  650  11.200   2.821   1.598 -5.1142  1.1170 -1.8953
  746MOL0     H  651  11.159   2.512   1.568  1.4907 -0.7243  0.1719
  746MOL0     H  652  11.132   2.640   1.442 -2.4787 -0.8812  1.7294
  746MOL0     H  653  11.390   2.695   1.463 -0.4043  0.2925 -3.1540
  746MOL0     H  654  11.397   2.547   1.561  0.0313 -1.7417 -0.3564
  746MOL0     H  655  11.331   2.404   1.385 -3.2053  1.1891  0.5021
  746MOL0     H  656  11.310   2.546   1.274 -2.4062  1.2914  1.6031
  746MOL0     H  657  11.549   2.593   1.275  2.2332 -0.8098  0.4005
  746MOL0     H  658  11.529   2.428   1.213  4.0507  0.0871  0.1357
  746MOL0     H  659  11.663   2.529   1.458 -1.2931  1.2951 -0.2527
  746MOL0     H  660  11.569   2.370   1.466  0.3616  0.1479  1.2484
  746MOL0     H  661  11.810   2.528   1.180  0.5753 -1.5867 -1.8061
  746MOL0     H  662  12.003   2.298   1.020 -0.8537 -1.8115  1.3177
  746MOL0     H  663  12.072   2.454   1.081 -0.8264  0.6966 -0.8751
  746MOL0     H  664  12.127   2.172   1.159 -0.3245 -0.1920 -2.5797
  746MOL0     H  665  12.249   2.281   1.071 -0.1550 -0.9232 -0.1833
  746MOL0     H  666  12.148   2.317   1.355  0.8543  1.3778  0.5788
  746MOL0     H  667  12.257   2.422   1.260 -0.4689  0.0439 -1.6750
  746MOL0     H  668  12.323   2.126   1.324 -1.4355  0.3787  0.3257
  746MOL0     H  669  12.376   2.270   1.413  1.9158 -0.6290 -1.0022
  746MOL0     H  670  12.591   2.237   1.433  0.7866 -0.4967  0.7595
  746MOL0     H  671  12.834   2.301   1.445  2.8996 -1.6025 -1.4193
  746MOL0     H  672  13.223   2.352   1.500  1.4390 -0.9198 -2.6010
  746MOL0     H  673  13.444   2.471   1.554 -0.3258  2.4378  0.6885
  746MOL0     H  674  13.543   2.775   1.282 -4.6899  4.0369  0.5911
  746MOL0     H  675  13.526   2.876   1.404 -2.9398 -2.6559  0.6380
  746MOL0     H  676  13.772   2.881   1.374  3.0990 -1.1272  0.4002
  746MOL0     H  677  13.731   2.790   1.522 -3.5286 -2.8345  0.0627
  746MOL0     H  678  13.745   2.582   1.350 -1.3767  1.6815 -0.8418
  746MOL0     H  679  13.850   2.699   1.262 -1.0591  4.3617  0.0215
  746MOL0     H  680  13.957   2.731   1.501 -1.6124 -0.4193  1.9303
  746MOL0     H  681  14.011   2.587   1.416  1.3641  0.9168 -0.5166
  746MOL0     H  682  13.838   2.449   1.512  0.2317  0.8456  0.5495
  746MOL0     H  683  13.791   2.574   1.628 -1.5701 -1.3854 -0.3678
  746MOL0     H  684  14.089   2.488   1.576 -1.4517 -0.9771 -0.9613
  746MOL0     H  685  14.007   2.571   1.721  1.4070 -0.2074  0.6939
  746MOL0     H  686  13.998   2.275   1.644 -0.7793 -0.3462  0.8481
  746MOL0     H  687  13.880   2.339   1.735  0.7713 -2.0194  0.5049
  746MOL0     H  688  14.168   2.372   1.835 -0.3022  2.1336  1.1345
  746MOL0     H  689  14.017   2.433   1.904  1.7997  0.6456  0.9538
  746MOL0     H  690  13.298   2.804   1.336 -0.3541  0.7992  3.2662
  746MOL0     H  691  13.078   2.703   1.314  1.0293  1.0054 -0.3648
  746MOL0     H  692  12.816   2.428   1.042  0.7036  3.3468  0.9183
  746MOL0     H  693  12.584   2.349   1.020  0.1883 -0.8915  0.3789
  746MOL0     H  694  10.629   2.772   1.737  1.0840 -1.2129 -1.4581
  746MOL0     H  695  10.580   2.980   1.885 -1.0168  0.3042  1.9857
  746MOL0     H  696  10.743   3.284   2.211  1.3331  1.4636  2.1876
  746MOL0     H  697  10.603   3.484   2.292 -1.2122 -0.2039 -2.8065
  746MOL0     H  698  10.242   3.409   2.475  1.0407 -1.3383  0.4463
  746MOL0     H  699  10.262   3.584   2.437  0.4646 -0.7720 -2.0177
  746MOL0     H  700  10.361   3.466   2.703 -1.7315 -1.1159  1.3719
  746MOL0     H  701  10.195   3.508   2.689  0.7676  0.4881  2.3037
  746MOL0     H  702  10.409   3.708   2.613 -0.5433  0.9391 -0.4166
  746MOL0     H  703  10.358   3.704   2.769  0.8451  2.4665 -1.4532
  746MOL0     H  704  10.188   3.777   2.531 -0.3201  1.9521 -0.7839
  746MOL0     H  705  10.122   3.746   2.702  0.5034  1.6754  1.2389
  746MOL0     H  706  10.337   4.102   2.760  4.2335 -1.9424 -1.0462
  746MOL0     H  707  10.330   3.229   2.467 -2.0046  2.4919 -0.7839
  746MOL0     H  708  10.405   2.930   2.287  0.2473 -0.2485  1.4889
  746MOL0     H  709  10.421   2.959   2.464  0.6725  1.8522  0.8405
  746MOL0     H  710  10.280   3.013   2.382 -0.9920 -2.9929  0.8014
  747MOL0     O  711   1.788   3.003   7.731  1.2187 -0.1077  0.0699
  747MOL0     C  712   1.710   3.042   7.818  0.1570  0.0965 -0.2349
  747MOL0     O  713   1.569   3.069   7.803  0.0288  0.4927  0.6599
  747MOL0     C  714   1.519   3.067   7.672 -0.6768  0.5122 -0.6578
  747MOL0     C  715   1.557   3.165   7.573  0.3395 -0.3528  0.2253
  747MOL0     C  716   1.493   3.171   7.455  0.6431 -0.2872  1.0386
  747MOL0     C  717   1.402   3.067   7.418 -0.2198 -0.2987  0.1803
  747MOL0     O  718   1.355   3.066   7.281 -0.5082 -0.3512 -0.8294
  747MOL0     C  719   1.244   2.979   7.260 -0.5603 -0.7461 -0.2761
  747MOL0     C  720   1.170   3.014   7.134  0.3763  0.2993  0.5518
  747MOL0     C  721   1.074   3.134   7.141 -0.3959 -0.8859  0.4744
  747MOL0     C  722   1.003   3.165   7.004  0.5934 -0.0468 -0.3277
  747MOL0     C  723   0.928   3.298   7.005  0.5476  0.7111 -0.0696
  747MOL0     C  724   0.990   3.393   6.908  0.0309 -0.0606  0.2405
  747MOL0     C  725   1.121   3.451   6.944 -0.3134  0.6350 -0.4777
  747MOL0     C  726   1.168   3.538   6.826  0.3136  0.1712 -0.2434
  747MOL0     N  727   1.300   3.593   6.838 -0.4969 -0.2031  0.5404
  747MOL0     C  728   1.404   3.566   6.749  0.4954 -0.5075  0.0635
  747MOL0     C  729   1.492   3.672   6.769  0.9878 -0.1729  0.7039
  747MOL0     C  730   1.631   3.697   6.712 -0.0194 -0.1748  0.8661
  747MOL0     C  731   1.631   3.815   6.609 -0.2847 -0.1443  0.2934
  747MOL0     C  732   1.571   3.773   6.487 -0.0946  0.9159  0.5357
  747MOL0     C  733   1.651   3.689   6.396  0.7175 -0.6360  1.1465
  747MOL0     O  734   1.782   3.650   6.446 -0.1479  0.2294 -0.5162
  747MOL0     C  735   1.887   3.622   6.361 -0.3199 -0.3057  0.5549
  747MOL0     C  736   1.999   3.592   6.432  0.3675  0.7717 -0.3082
  747MOL0     C  737   2.112   3.543   6.374  1.2220  0.9463  0.4471
  747MOL0     C  738   2.116   3.533   6.231 -0.2576 -0.0448 -0.3404
  747MOL0     C  739   2.249   3.502   6.164  0.0091  0.1770  0.3238
  747MOL0     O  740   2.273   3.538   6.033  0.1890 -0.5427 -0.5396
  747MOL0     C  741   2.399   3.511   5.983  0.4482  0.1584  0.3580
  747MOL0     C  742   2.409   3.451   5.860  0.7951 -0.2572  0.3249
  747MOL0     C  743   2.530   3.418   5.795 -0.4687  0.6386  0.9895
  747MOL0     C  744   2.649   3.454   5.848  1.0687  1.2941  0.1823
  747MOL0     O  745   2.762   3.411   5.782 -0.3742  0.3035  0.1579
  747MOL0     C  746   2.871   3.389   5.867 -0.5642  0.1447  0.2398
  747MOL0     C  747   2.967   3.514   5.852  0.3185 -0.8070  0.2453
  747MOL0     C  748   3.004   3.526   5.704  0.9768  0.5587  0.9398
  747MOL0     C  749   3.107   3.636   5.657  0.4827  0.9037 -0.5769
  747MOL0     C  750   3.230   3.625   5.757  0.3105 -1.0844  0.5683
  747MOL0     C  751   3.285   3.479   5.755  0.1195 -0.3177 -0.7153
  747MOL0     C  752   3.428   3.464   5.795  0.6312 -0.0578 -0.4758
  747MOL0     C  753   3.495   3.340   5.723 -0.9074  0.2772  0.2131
  747MOL0    Cl  754   3.639   3.284   5.827 -0.3059 -0.1324 -0.0438
  747MOL0     C  755   2.643   3.532   5.966 -0.9632 -0.2154  0.2588
  747MOL0     C  756   2.519   3.554   6.033 -0.6714 -0.7353 -0.2457
  747MOL0     O  757   2.328   3.445   6.239  0.6338  0.6222 -0.7690
  747MOL0     C  758   1.998   3.564   6.158 -0.1123  0.2374  0.5844
  747MOL0     C  759   1.885   3.608   6.222  0.0915  0.2362 -0.1229
  747MOL0     N  760   1.446   3.753   6.867 -0.0934 -1.2262  0.0327
  747MOL0     N  761   1.329   3.712   6.894 -0.5322 -0.0897 -0.7909
  747MOL0     C  762   1.362   2.976   7.508  0.2576  0.0241  0.8946
  747MOL0     C  763   1.422   2.975   7.639  0.1672 -0.3938  0.3605
  747MOL0     C  764   1.765   3.066   7.955  0.2816  0.4835  0.3199
  747MOL0     C  765   1.670   3.056   8.063  0.5338 -0.9230 -0.2532
  747MOL0     C  766   1.706   3.079   8.196  0.1276  0.1777 -0.1848
  747MOL0     C  767   1.829   3.129   8.229 -0.4236 -1.0980 -0.4320
  747MOL0     O  768   1.861   3.171   8.360 -0.0850  0.0152  0.7153
  747MOL0     C  769   1.764   3.152   8.460 -0.1191 -0.6116  0.8605
  747MOL0     C  770   1.810   3.192   8.599 -0.2669  0.0010 -0.7997
  747MOL0     C  771   1.847   3.336   8.628 -0.3522  0.0833 -1.1614
  747MOL0     C  772   1.735   3.434   8.597  0.3924 -1.1075  0.5740
  747MOL0     C  773   1.624   3.406   8.680 -0.6819  0.9424 -0.1157
  747MOL0     C  774   1.525   3.385   8.745 -0.0731  0.2663  0.2920
  747MOL0     C  775   1.923   3.136   8.127  1.0002  0.7403 -0.2356
  747MOL0     C  776   1.893   3.101   7.992  0.3779  0.5525  0.4638
  747MOL0     C  777   2.016   3.107   7.903  0.5284  0.2209 -0.4172
  747MOL0     H  778   1.633   3.240   7.593 -0.4646  1.9973 -4.0562
  747MOL0     H  779   1.522   3.246   7.382 -1.6963  1.8645  2.1665
  747MOL0     H  780   1.284   2.878   7.245  1.2905 -0.0564 -0.2143
  747MOL0     H  781   1.166   2.968   7.337  0.7399 -1.4155  0.9990
  747MOL0     H  782   1.110   2.928   7.105  0.5386  0.7001 -1.0603
  747MOL0     H  783   1.244   3.023   7.054 -0.5262 -0.1653 -0.3516
  747MOL0     H  784   1.126   3.222   7.181 -1.7071  0.1063  0.0901
  747MOL0     H  785   0.986   3.116   7.204  0.5040 -2.7579  1.2734
  747MOL0     H  786   1.077   3.172   6.924  1.7328  1.0526  0.7770
  747MOL0     H  787   0.935   3.081   6.987  1.9123 -0.9304 -1.4393
  747MOL0     H  788   0.823   3.284   6.975  0.5056  1.9895 -0.6105
  747MOL0     H  789   0.920   3.347   7.103  1.4451  1.2851 -0.2803
  747MOL0     H  790   0.995   3.346   6.809 -0.0727  0.4535 -0.0122
  747MOL0     H  791   0.924   3.480   6.911 -2.3829 -1.7619 -0.1925
  747MOL0     H  792   1.194   3.386   6.992  1.0466  3.0932  1.0177
  747MOL0     H  793   1.097   3.514   7.030 -3.3389 -1.2199  0.1528
  747MOL0     H  794   1.163   3.488   6.728  0.5284 -1.8808  0.7480
  747MOL0     H  795   1.108   3.629   6.820  1.3187  1.3477  4.0748
  747MOL0     H  796   1.413   3.480   6.683 -1.0133  0.3331 -1.2958
  747MOL0     H  797   1.704   3.724   6.789  0.9024 -3.2283  1.1789
  747MOL0     H  798   1.672   3.604   6.671  5.0062  1.5038  1.3519
  747MOL0     H  799   1.570   3.895   6.653 -1.0003 -2.7557  4.6290
  747MOL0     H  800   1.730   3.854   6.583  0.6151 -2.4175  0.0382
  747MOL0     H  801   1.531   3.854   6.424 -2.6860 -1.5629 -1.2706
  747MOL0     H  802   1.476   3.722   6.507  0.4771  0.2792  1.6679
  747MOL0     H  803   1.655   3.743   6.302 -1.5326 -3.2423 -0.6132
  747MOL0     H  804   1.591   3.598   6.381 -4.2476  2.4725 -0.0148
  747MOL0     H  805   1.994   3.587   6.540 -2.7473  2.6459 -0.2303
  747MOL0     H  806   2.194   3.512   6.438 -0.0197 -2.3145  0.6658
  747MOL0     H  807   2.314   3.429   5.812  0.6954  0.1807  0.3170
  747MOL0     H  808   2.522   3.360   5.704  1.4679  0.0086  1.1868
  747MOL0     H  809   2.847   3.375   5.973  0.5861 -1.0378  0.3748
  747MOL0     H  810   2.927   3.299   5.840 -0.8995 -0.3804  1.2553
  747MOL0     H  811   2.932   3.607   5.897 -0.0764 -1.1327  0.6213
  747MOL0     H  812   3.054   3.492   5.915 -1.7588 -2.7973  2.6103
  747MOL0     H  813   3.044   3.429   5.676 -0.8295 -1.1253  3.6793
  747MOL0     H  814   2.910   3.543   5.650  1.0690  0.3381  0.7075
  747MOL0     H  815   3.067   3.738   5.648 -1.5865 -0.0003 -2.8252
  747MOL0     H  816   3.130   3.626   5.550 -2.9325  3.6814 -1.7747
  747MOL0     H  817   3.196   3.662   5.854 -0.2413  1.9832 -0.6876
  747MOL0     H  818   3.311   3.690   5.723 -0.0268 -1.3751 -0.8617
  747MOL0     H  819   3.220   3.417   5.817 -0.2606 -0.4483 -1.2379
  747MOL0     H  820   3.269   3.442   5.654 -1.6518 -2.5253  0.2789
  747MOL0     H  821   3.445   3.460   5.903 -0.4913  0.5815 -0.2568
  747MOL0     H  822   3.477   3.553   5.755  1.2659 -0.6354 -1.0014
  747MOL0     H  823   3.414   3.273   5.695  0.3373 -1.4884  0.6357
  747MOL0     H  824   3.537   3.372   5.627 -0.3926 -3.2380 -0.8693
  747MOL0     H  825   2.734   3.574   6.009  0.8354 -2.1227 -1.4757
  747MOL0     H  826   2.533   3.613   6.123 -2.1595  1.3011 -1.2696
  747MOL0     H  827   2.016   3.568   6.051 -1.8624 -0.9390  0.2178
  747MOL0     H  828   1.788   3.628   6.178  0.3655  0.8126 -0.4607
  747MOL0     H  829   1.280   2.905   7.501 -1.4937  2.0463 -0.2510
  747MOL0     H  830   1.404   2.890   7.704  0.6464 -1.2596 -0.6199
  747MOL0     H  831   1.565   3.041   8.040  0.5081  0.6110 -1.2737
  747MOL0     H  832   1.621   3.062   8.262  2.0244  0.4660  2.5301
  747MOL0     H  833   1.733   3.047   8.457 -0.5870 -0.4816 -2.5188
  747MOL0     H  834   1.680   3.221   8.448  1.7637  1.3992 -2.1495
  747MOL0     H  835   1.895   3.133   8.635  1.5256  2.2516 -1.1099
  747MOL0     H  836   1.726   3.160   8.662 -0.9121 -0.3854 -1.8375
  747MOL0     H  837   1.930   3.361   8.562  0.8662 -0.2676  0.2009
  747MOL0     H  838   1.897   3.340   8.725 -0.7461 -0.4322 -0.9320
  747MOL0     H  839   1.765   3.539   8.592 -2.4713 -0.1937  0.7314
  747MOL0     H  840   1.697   3.420   8.495  0.5662 -0.5219  0.4238
  747MOL0     H  841   1.447   3.363   8.816 -0.3088  1.9279  0.6031
  747MOL0     H  842   2.026   3.155   8.155  0.7356  2.0307 -0.1045
  747MOL0     H  843   2.027   3.196   7.839  1.3173  1.6894  1.6451
  747MOL0     H  844   2.101   3.082   7.967 -1.2845  1.9127  2.9307
  747MOL0     H  845   2.001   3.029   7.828  0.4849 -3.0092  2.6920
  748MOL0     O  846   5.092   9.878   7.948 -0.4901  0.1046 -0.3900
  748MOL0     C  847   5.147   9.940   7.852 -0.2586  0.9122  0.3636
  748MOL0     O  848   5.093  10.032   7.783 -0.2601 -0.1801  0.6257
  748MOL0     C  849   4.965  10.030   7.749 -0.0203 -0.2567  0.1471
  748MOL0     C  850   4.920  10.150   7.692 -0.5769 -0.1198  0.2179
  748MOL0     C  851   4.799  10.157   7.632  0.2732 -0.1830 -0.1753
  748MOL0     C  852   4.712  10.049   7.611 -0.5851  0.6549 -0.5172
  748MOL0     O  853   4.592  10.071   7.556  0.2953 -0.4315 -0.4720
  748MOL0     C  854   4.497   9.967   7.545 -0.1081  0.1134  0.2221
  748MOL0     C  855   4.370  10.000   7.464  0.2202  0.7472  0.6859
  748MOL0     C  856   4.269   9.893   7.452  0.3778  1.2538  0.8756
  748MOL0     C  857   4.151   9.937   7.356 -0.1758 -0.2535 -1.1974
  748MOL0     C  858   4.048   9.832   7.344  0.4730 -0.4777  0.2416
  748MOL0     C  859   3.948   9.881   7.238 -0.1439 -0.2033 -0.4820
  748MOL0     C  860   3.818   9.797   7.230  0.0633 -0.4498  0.7845
  748MOL0     C  861   3.735   9.813   7.356 -0.0276 -0.3281  0.1315
  748MOL0     N  862   3.609   9.747   7.348  0.1600 -0.2644 -0.0391
  748MOL0     C  863   3.534   9.727   7.234 -0.3844 -0.1549 -0.5287
  748MOL0     C  864   3.424   9.654   7.261 -0.6322  0.3490 -0.1921
  748MOL0     C  865   3.309   9.644   7.166 -0.5894  0.0344  0.0439
  748MOL0     C  866   3.280   9.499   7.123 -0.3636 -1.2096  0.3344
  748MOL0     C  867   3.199   9.419   7.227  0.3524 -0.3060 -0.2960
  748MOL0     C  868   3.201   9.271   7.202  1.5837  1.0753 -0.6089
  748MOL0     O  869   3.175   9.231   7.060  0.1398  1.2469 -0.0601
  748MOL0     C  870   3.043   9.230   7.009 -0.4175  0.5300  0.1123
  748MOL0     C  871   3.023   9.199   6.872 -0.0928 -0.1746  0.5017
  748MOL0     C  872   2.893   9.202   6.814  0.1047 -0.3099 -0.8244
  748MOL0     C  873   2.770   9.210   6.893  0.2234  0.9743  0.1476
  748MOL0     C  874   2.643   9.191   6.827 -0.6888  1.3699 -0.6407
  748MOL0     O  875   2.647   9.127   6.703  0.5343  0.1240  0.2239
  748MOL0     C  876   2.521   9.115   6.638 -0.1856  0.7426  0.1265
  748MOL0     C  877   2.498   9.182   6.517  0.6393  0.5887  0.3339
  748MOL0     C  878   2.381   9.173   6.442 -0.3539  0.5244 -0.4839
  748MOL0     C  879   2.275   9.096   6.494 -0.1975  0.2090  0.9885
  748MOL0     O  880   2.159   9.085   6.428  0.4210 -0.3385 -0.4338
  748MOL0     C  881   2.130   8.954   6.382  0.0440 -0.0619 -0.4074
  748MOL0     C  882   2.226   8.920   6.275  0.3024  0.8568 -0.0740
  748MOL0     C  883   2.177   8.804   6.200 -0.4472 -0.2227  0.3193
  748MOL0     C  884   2.249   8.772   6.073 -0.0825  0.7933 -0.7887
  748MOL0     C  885   2.180   8.641   6.026  0.1276 -0.3242 -0.4941
  748MOL0     C  886   2.271   8.570   5.926 -0.5386 -0.1585  0.3927
  748MOL0     C  887   2.392   8.496   5.989 -0.2503  0.0905  0.0603
  748MOL0     C  888   2.469   8.419   5.886 -0.1981 -0.0286  0.0158
  748MOL0    Cl  889   2.364   8.321   5.788 -0.2039  0.3953  0.2230
  748MOL0     C  890   2.289   9.037   6.619  0.4351  0.2659 -0.3886
  748MOL0     C  891   2.413   9.047   6.692 -0.1774  0.0986  0.1138
  748MOL0     O  892   2.545   9.234   6.882  0.7812 -0.0170 -0.1978
  748MOL0     C  893   2.789   9.235   7.027  0.0377 -0.1298  0.3463
  748MOL0     C  894   2.924   9.245   7.086  0.6697  0.2376 -0.2081
  748MOL0     N  895   3.431   9.630   7.394  0.7368 -0.6737  0.4352
  748MOL0     N  896   3.538   9.694   7.445  0.3789  1.3677 -0.3734
  748MOL0     C  897   4.762   9.927   7.674  0.8319 -0.9182  0.3445
  748MOL0     C  898   4.883   9.918   7.746  0.0776  0.5608 -0.5772
  748MOL0     C  899   5.299   9.931   7.840  0.1989 -0.8708 -0.6784
  748MOL0     C  900   5.375  10.044   7.779 -0.2458  0.3607  0.1215
  748MOL0     C  901   5.514  10.044   7.791  0.4447  0.3031 -0.1244
  748MOL0     C  902   5.582   9.935   7.838 -0.1109  0.4899 -0.1279
  748MOL0     O  903   5.717   9.956   7.853 -0.2999  0.1396  0.0542
  748MOL0     C  904   5.806   9.853   7.792 -0.6450  0.4006  0.2309
  748MOL0     C  905   5.933   9.840   7.867  0.0340 -0.8894  0.7723
  748MOL0     C  906   6.011   9.974   7.882 -0.4544  0.6235  0.2730
  748MOL0     C  907   6.015  10.066   7.765 -0.1119 -1.0827 -0.7736
  748MOL0     C  908   6.119  10.022   7.667  0.4699  0.1751 -0.0505
  748MOL0     C  909   6.179   9.974   7.576 -0.0311  0.3288  0.4736
  748MOL0     C  910   5.516   9.826   7.894 -0.1365 -0.1957  0.1324
  748MOL0     C  911   5.377   9.829   7.901 -0.0803  0.0458  0.9043
  748MOL0     C  912   5.322   9.712   7.978 -0.2598  0.6047  0.2395
  748MOL0     H  913   4.980  10.239   7.711 -1.4805  0.9557 -1.7460
  748MOL0     H  914   4.760  10.249   7.591 -4.2346 -1.5186  0.5687
  748MOL0     H  915   4.553   9.877   7.516  2.2480  1.1984  1.0945
  748MOL0     H  916   4.460   9.935   7.642  1.9415 -0.2449  0.9409
  748MOL0     H  917   4.395  10.034   7.363 -3.1855  0.4734 -0.3966
  748MOL0     H  918   4.311  10.080   7.510 -2.2223 -1.5649  1.8148
  748MOL0     H  919   4.232   9.857   7.549 -1.6555  2.7865  0.7336
  748MOL0     H  920   4.323   9.806   7.413  2.3677  0.5319  4.7954
  748MOL0     H  921   4.106  10.024   7.405  0.2652 -1.3347  1.2837
  748MOL0     H  922   4.189   9.962   7.257  2.0278 -1.7497 -0.7983
  748MOL0     H  923   4.091   9.737   7.310  2.2474  0.7454 -1.1013
  748MOL0     H  924   4.000   9.814   7.440 -0.4349  0.2934 -0.0525
  748MOL0     H  925   3.929   9.984   7.267  2.2813  0.0091  0.6052
  748MOL0     H  926   4.004   9.869   7.145 -0.4194 -0.9486 -0.5618
  748MOL0     H  927   3.843   9.693   7.208 -2.0131 -0.6171 -1.1109
  748MOL0     H  928   3.768   9.835   7.140  3.7559 -1.8549 -2.1223
  748MOL0     H  929   3.781   9.779   7.449  1.6512 -1.0731 -0.9219
  748MOL0     H  930   3.712   9.919   7.372 -2.0971 -0.8930  1.2294
  748MOL0     H  931   3.565   9.772   7.141 -0.8785  2.4839  0.4978
  748MOL0     H  932   3.223   9.684   7.220 -1.0541 -0.7393 -0.0994
  748MOL0     H  933   3.331   9.704   7.077  0.6687  0.5520  0.6724
  748MOL0     H  934   3.230   9.496   7.026  1.7408 -0.8755 -0.8180
  748MOL0     H  935   3.379   9.454   7.112  0.3887  0.6767 -1.0750
  748MOL0     H  936   3.094   9.450   7.225 -0.0800 -1.7014 -2.4962
  748MOL0     H  937   3.244   9.439   7.325 -1.2817  1.4914  0.1491
  748MOL0     H  938   3.123   9.226   7.265 -0.1835  3.2782 -1.0984
  748MOL0     H  939   3.293   9.221   7.234  0.8483 -1.1262 -1.7414
  748MOL0     H  940   3.108   9.167   6.812  0.0838 -0.3187  0.8203
  748MOL0     H  941   2.873   9.187   6.708 -3.5217  3.3635 -0.9227
  748MOL0     H  942   2.581   9.239   6.475  0.1256 -0.0606 -1.6775
  748MOL0     H  943   2.382   9.247   6.362  1.8732  1.0768 -0.0242
  748MOL0     H  944   2.124   8.874   6.456 -2.6597  1.3366  1.0367
  748MOL0     H  945   2.030   8.968   6.341  0.3949  1.6771 -0.7646
  748MOL0     H  946   2.243   9.008   6.213 -2.1507  1.4373  0.0113
  748MOL0     H  947   2.324   8.898   6.319 -0.2494  0.2592  0.8935
  748MOL0     H  948   2.192   8.719   6.268  1.9123 -1.3640 -1.5078
  748MOL0     H  949   2.069   8.815   6.186 -0.4280  1.1774  1.0537
  748MOL0     H  950   2.351   8.750   6.106 -1.2154 -3.1186  0.7193
  748MOL0     H  951   2.251   8.850   5.997  0.7134  0.9799 -0.5856
  748MOL0     H  952   2.090   8.674   5.973 -0.1044 -0.9866 -0.5169
  748MOL0     H  953   2.155   8.575   6.110 -1.1416  2.6345  1.6441
  748MOL0     H  954   2.209   8.503   5.867 -0.5512  1.7886 -1.9751
  748MOL0     H  955   2.317   8.650   5.868  1.0492 -0.1548  1.5894
  748MOL0     H  956   2.362   8.427   6.069 -0.4886 -1.4800 -1.3253
  748MOL0     H  957   2.452   8.577   6.031 -1.9752  1.1985  0.4686
  748MOL0     H  958   2.533   8.484   5.826 -1.5634 -0.0930 -1.5692
  748MOL0     H  959   2.535   8.350   5.939 -1.9955 -1.3558  0.6050
  748MOL0     H  960   2.213   8.976   6.666 -0.3121 -1.0120 -3.0353
  748MOL0     H  961   2.416   8.989   6.784 -0.4646  0.9923  0.6931
  748MOL0     H  962   2.708   9.260   7.094 -2.0076  3.7317 -3.0766
  748MOL0     H  963   2.925   9.276   7.190  0.0615  2.1756 -0.7322
  748MOL0     H  964   4.700   9.838   7.668  0.8512 -0.8724 -0.7005
  748MOL0     H  965   4.916   9.824   7.789 -1.3875 -0.5776 -1.8080
  748MOL0     H  966   5.335  10.130   7.728  0.1941  2.0337  2.4681
  748MOL0     H  967   5.566  10.129   7.748  0.1047  0.2101 -0.7317
  748MOL0     H  968   5.822   9.873   7.686  1.2300 -0.5410  0.2825
  748MOL0     H  969   5.768   9.751   7.790 -0.9207  0.4558  1.6322
  748MOL0     H  970   6.003   9.768   7.824  0.8657  0.0069  0.5986
  748MOL0     H  971   5.911   9.806   7.969 -1.8645  1.5503  1.2881
  748MOL0     H  972   6.113   9.941   7.902 -0.6414 -0.4789 -0.4992
  748MOL0     H  973   5.974  10.029   7.968  0.2000 -1.9147  2.2974
  748MOL0     H  974   5.916  10.074   7.719 -2.0857 -3.0343  2.7772
  748MOL0     H  975   6.034  10.159   7.819 -4.2485  0.4202 -1.5112
  748MOL0     H  976   6.245   9.940   7.499  0.3193  1.1868  0.3863
  748MOL0     H  977   5.573   9.750   7.947 -0.1953 -0.3441 -0.0160
  748MOL0     H  978   5.394   9.631   7.968 -2.5627 -1.2963 -2.8137
  748MOL0     H  979   5.308   9.742   8.082  0.1301 -0.4324  0.5974
  748MOL0     H  980   5.229   9.669   7.941 -0.4058  0.4844  0.7372
  749MOL0     O  981   0.710   8.729   5.175  0.0678 -0.4640 -0.1488
  749MOL0     C  982   0.721   8.698   5.057  1.2329 -1.4449  0.2170
  749MOL0     O  983   0.830   8.711   4.984 -0.1491 -0.3624 -0.4120
  749MOL0     C  984   0.938   8.762   5.048  0.3549 -0.4098 -0.8653
  749MOL0     C  985   1.007   8.851   4.976 -0.1978 -0.8205 -0.6014
  749MOL0     C  986   1.119   8.921   5.030  0.3555  0.4613  0.7344
  749MOL0     C  987   1.187   8.867   5.139  0.4473  0.1494  0.7645
  749MOL0     O  988   1.301   8.939   5.193 -0.7434 -0.2178  0.4749
  749MOL0     C  989   1.296   9.086   5.166  0.8984  0.3543 -0.7682
  749MOL0     C  990   1.396   9.152   5.258  0.2307 -0.4245  0.8586
  749MOL0     C  991   1.354   9.157   5.399  1.3993  0.7052 -0.2785
  749MOL0     C  992   1.438   9.261   5.485 -1.1917 -0.1996 -0.3816
  749MOL0     C  993   1.379   9.279   5.622  0.9514  0.3097 -0.6092
  749MOL0     C  994   1.349   9.150   5.701  0.6501 -0.6888  0.1988
  749MOL0     C  995   1.289   9.175   5.841  0.2389 -0.3567 -0.7039
  749MOL0     C  996   1.259   9.049   5.915  0.9358  0.0475 -1.1024
  749MOL0     N  997   1.212   9.081   6.044 -0.8433 -0.1655  0.4223
  749MOL0     C  998   1.087   9.081   6.104  0.6712  0.6027 -0.6550
  749MOL0     C  999   1.093   9.139   6.230  1.0662  0.0335  0.1148
  749MOL0     C 1000   0.998   9.159   6.343  0.0640 -0.2969  0.0333
  749MOL0     C 1001   0.873   9.228   6.294 -0.5772 -0.2512 -0.3438
  749MOL0     C 1002   0.786   9.251   6.422 -1.3116 -0.4804  0.1626
  749MOL0     C 1003   0.729   9.115   6.471  0.1969  0.5924 -0.2535
  749MOL0     O 1004   0.630   9.077   6.373  0.4874 -0.5693 -0.0381
  749MOL0     C 1005   0.540   8.976   6.411  0.0964  0.2865  0.3815
  749MOL0     C 1006   0.434   8.963   6.327 -0.6815  0.2222  0.0228
  749MOL0     C 1007   0.333   8.867   6.364 -0.1900 -1.3925 -1.2050
  749MOL0     C 1008   0.342   8.799   6.490  0.6342 -0.5496 -0.3586
  749MOL0     C 1009   0.225   8.715   6.536  1.0140  0.5161 -0.2917
  749MOL0     O 1010   0.211   8.701   6.675  0.2061  0.1443 -0.8202
  749MOL0     C 1011   0.127   8.604   6.725  0.0607 -0.1503 -0.1825
  749MOL0     C 1012   0.075   8.623   6.848 -0.1810 -0.2014 -0.2130
  749MOL0     C 1013  -0.013   8.528   6.911 -0.3102 -0.3556 -0.8650
  749MOL0     C 1014  -0.063   8.422   6.840 -0.4858  0.1362  0.0754
  749MOL0     O 1015  -0.134   8.331   6.920  0.3281 -0.0948 -0.7447
  749MOL0     C 1016  -0.253   8.290   6.860 -0.3498  0.4821  0.0410
  749MOL0     C 1017  -0.321   8.193   6.955  0.6024 -0.3154 -0.9961
  749MOL0     C 1018  -0.470   8.192   6.923  0.0747  0.4356 -0.0707
  749MOL0     C 1019  -0.544   8.299   7.001  0.3296 -0.2019  0.5512
  749MOL0     C 1020  -0.691   8.296   6.966 -0.7877  0.1327  0.3714
  749MOL0     C 1021  -0.794   8.373   7.044 -0.0927 -0.0898 -0.0601
  749MOL0     C 1022  -0.929   8.299   7.063 -0.5252 -0.1064  0.2498
  749MOL0     C 1023  -1.038   8.391   7.115  0.4358  0.3420  0.6747
  749MOL0    Cl 1024  -1.011   8.417   7.290 -0.2783 -0.2120 -0.0517
  749MOL0     C 1025  -0.011   8.405   6.703 -1.2067  0.4995 -0.5766
  749MOL0     C 1026   0.091   8.489   6.652  0.2122 -0.8437  0.2438
  749MOL0     O 1027   0.138   8.685   6.453 -0.4358  0.1379 -0.0762
  749MOL0     C 1028   0.452   8.823   6.572 -0.8106  0.7319  0.4832
  749MOL0     C 1029   0.550   8.906   6.529  1.4110  0.3144  0.0783
  749MOL0     N 1030   1.222   9.184   6.245  0.6926 -0.1950 -0.0893
  749MOL0     N 1031   1.285   9.146   6.141  0.0558 -0.1553  0.7615
  749MOL0     C 1032   1.109   8.770   5.214 -0.7708  0.7492  0.8273
  749MOL0     C 1033   0.983   8.730   5.173 -0.0766 -0.9396  0.4353
  749MOL0     C 1034   0.613   8.621   4.979  0.4909  0.1683 -0.0800
  749MOL0     C 1035   0.602   8.639   4.840 -0.8505 -0.8794 -0.1130
  749MOL0     C 1036   0.522   8.554   4.761 -0.5366  0.0398  0.0004
  749MOL0     C 1037   0.444   8.455   4.819  0.8276 -0.2964 -0.0305
  749MOL0     O 1038   0.382   8.368   4.739  0.6411  0.3528 -0.0588
  749MOL0     C 1039   0.242   8.410   4.719 -0.6820  0.5563  0.8303
  749MOL0     C 1040   0.166   8.279   4.692 -0.0643 -0.2769  0.0039
  749MOL0     C 1041   0.022   8.300   4.648  0.0682  0.2563 -0.6733
  749MOL0     C 1042  -0.050   8.175   4.693  0.0356 -0.0291 -0.0985
  749MOL0     C 1043  -0.185   8.212   4.635 -1.8871 -0.3909 -0.4098
  749MOL0     C 1044  -0.283   8.229   4.576  0.6850  0.4129 -0.0993
  749MOL0     C 1045   0.437   8.450   4.959 -0.7715 -0.0437  0.2935
  749MOL0     C 1046   0.529   8.530   5.038  0.7273 -0.3414 -0.4446
  749MOL0     C 1047   0.527   8.502   5.190 -0.0710  0.9654 -0.2712
  749MOL0     H 1048   0.974   8.867   4.874  3.0403  0.8267 -1.5471
  749MOL0     H 1049   1.163   8.998   4.968 -1.6294  0.3341 -0.9251
  749MOL0     H 1050   1.320   9.105   5.061  0.1541  0.5537 -0.9120
  749MOL0     H 1051   1.195   9.128   5.178  0.2210 -1.6266  0.9440
  749MOL0     H 1052   1.405   9.248   5.206 -0.7123 -1.1406 -0.7281
  749MOL0     H 1053   1.492   9.101   5.246  0.1616 -0.6336  1.2072
  749MOL0     H 1054   1.364   9.057   5.443  1.7092  1.2717  0.9901
  749MOL0     H 1055   1.251   9.190   5.412  0.9833 -0.0256 -1.5998
  749MOL0     H 1056   1.539   9.223   5.505 -0.6286  0.3664 -1.9865
  749MOL0     H 1057   1.460   9.353   5.430 -0.4948 -1.6448 -2.7180
  749MOL0     H 1058   1.445   9.342   5.683  1.7599  1.4651 -2.5766
  749MOL0     H 1059   1.287   9.338   5.618  1.7297  1.9287  2.2791
  749MOL0     H 1060   1.278   9.089   5.645  1.7089 -1.8432  0.0582
  749MOL0     H 1061   1.432   9.079   5.715 -0.1917 -2.0187 -1.2194
  749MOL0     H 1062   1.195   9.229   5.829  0.7983  0.6953 -0.5243
  749MOL0     H 1063   1.342   9.251   5.899  0.4938 -0.2408 -1.0793
  749MOL0     H 1064   1.185   8.984   5.868  0.3372 -0.2364  0.1844
  749MOL0     H 1065   1.353   8.996   5.934  0.8151  0.4877  0.9831
  749MOL0     H 1066   0.997   9.029   6.075  0.5875 -0.0672  0.7255
  749MOL0     H 1067   0.971   9.060   6.380 -1.1362  0.3867  1.0441
  749MOL0     H 1068   1.042   9.211   6.428  1.5152 -1.3162 -0.0503
  749MOL0     H 1069   0.894   9.330   6.260  0.6591 -0.6235 -0.7981
  749MOL0     H 1070   0.814   9.182   6.214 -0.6150  0.6651 -0.8648
  749MOL0     H 1071   0.709   9.324   6.396 -0.2913  1.1154  1.4532
  749MOL0     H 1072   0.847   9.292   6.503  0.6178 -3.3406  0.3262
  749MOL0     H 1073   0.684   9.120   6.570  3.1158  2.9204  1.1159
  749MOL0     H 1074   0.807   9.040   6.483  4.9061  4.9179 -0.1461
  749MOL0     H 1075   0.434   9.029   6.241 -0.1084 -2.5223 -2.2615
  749MOL0     H 1076   0.246   8.848   6.303 -1.6949  0.6152  0.1625
  749MOL0     H 1077   0.097   8.716   6.899  4.1103 -2.2802  2.2145
  749MOL0     H 1078  -0.047   8.548   7.012  0.6470 -0.4129 -0.5206
  749MOL0     H 1079  -0.313   8.380   6.843 -1.5790 -0.0709  1.2621
  749MOL0     H 1080  -0.233   8.229   6.771  0.6270  0.7004  0.1062
  749MOL0     H 1081  -0.273   8.097   6.932  1.4606 -0.7375  2.1084
  749MOL0     H 1082  -0.306   8.223   7.059 -5.2818  2.6583 -0.6157
  749MOL0     H 1083  -0.491   8.207   6.817  1.2096 -0.0539 -0.3900
  749MOL0     H 1084  -0.509   8.101   6.969 -1.0264  1.1883  0.5211
  749MOL0     H 1085  -0.482   8.390   7.002  0.7584 -0.4812  1.7515
  749MOL0     H 1086  -0.536   8.269   7.106  1.1616  1.3103  0.9495
  749MOL0     H 1087  -0.732   8.195   6.977  1.2719 -0.9924 -1.5271
  749MOL0     H 1088  -0.699   8.332   6.863 -3.2247 -1.2037  0.0205
  749MOL0     H 1089  -0.751   8.384   7.144  1.0983 -1.8351 -0.3281
  749MOL0     H 1090  -0.805   8.468   6.990  0.2760 -0.9595 -1.7598
  749MOL0     H 1091  -0.918   8.211   7.128  1.4878 -0.0572  0.0316
  749MOL0     H 1092  -0.972   8.261   6.970  1.0909  0.7151 -0.8760
  749MOL0     H 1093  -1.028   8.481   7.054 -1.4408  0.5299  0.6043
  749MOL0     H 1094  -1.129   8.333   7.096  0.0276  1.5321 -1.3245
  749MOL0     H 1095  -0.043   8.333   6.628  1.2359  0.3226 -1.5166
  749MOL0     H 1096   0.128   8.470   6.552  2.1266  1.3507  0.4393
  749MOL0     H 1097   0.474   8.759   6.657 -0.7521  0.7078  0.4503
  749MOL0     H 1098   0.643   8.913   6.584  3.3115 -1.8401 -2.5463
  749MOL0     H 1099   1.133   8.728   5.311  1.0075 -0.5157 -0.0931
  749MOL0     H 1100   0.922   8.670   5.238 -2.5671  2.7431  1.8337
  749MOL0     H 1101   0.654   8.723   4.795 -1.7361 -0.2845 -0.0667
  749MOL0     H 1102   0.534   8.556   4.653 -0.3763  2.2613  0.0286
  749MOL0     H 1103   0.231   8.474   4.631  1.8415  1.4372  1.0778
  749MOL0     H 1104   0.202   8.436   4.818 -2.8541  0.8541 -0.0557
  749MOL0     H 1105   0.176   8.212   4.778 -1.7111  0.6775  1.0056
  749MOL0     H 1106   0.211   8.237   4.602  1.5765 -0.4095  0.8609
  749MOL0     H 1107   0.006   8.323   4.542 -1.1266 -1.4343 -0.9126
  749MOL0     H 1108  -0.020   8.379   4.711 -0.2882 -0.1399 -0.4121
  749MOL0     H 1109  -0.015   8.083   4.644  0.5396 -1.2670  2.4226
  749MOL0     H 1110  -0.045   8.156   4.800  1.9021  0.6417 -0.0371
  749MOL0     H 1111  -0.376   8.243   4.525  0.0952  1.2324  1.1457
  749MOL0     H 1112   0.372   8.385   5.017 -0.6824  2.1585  3.0773
  749MOL0     H 1113   0.503   8.596   5.241 -2.2391  0.4391 -0.2329
  749MOL0     H 1114   0.455   8.423   5.212  0.8364  0.3636  0.6228
  749MOL0     H 1115   0.627   8.478   5.228  0.8024  2.4713 -1.4823
  750MOL0     O 1116   4.062   5.130   3.698 -0.3139 -0.6769 -0.0843
  750MOL0     C 1117   4.070   5.039   3.613 -0.0932  0.8078 -0.8184
  750MOL0     O 1118   4.188   5.007   3.550  0.1825  0.0809 -0.5415
  750MOL0     C 1119   4.287   5.108   3.563 -0.2315  0.2363  0.3622
  750MOL0     C 1120   4.408   5.100   3.641  0.0977  0.1788  0.0498
  750MOL0     C 1121   4.498   5.211   3.656  0.2708 -0.0258  0.6158
  750MOL0     C 1122   4.462   5.327   3.589 -0.0107 -0.3439  0.1700
  750MOL0     O 1123   4.555   5.430   3.591  0.1002  0.2315  0.0683
  750MOL0     C 1124   4.553   5.530   3.486  0.3880 -0.4093  0.6456
  750MOL0     C 1125   4.681   5.622   3.506 -0.4205  0.5406 -0.0748
  750MOL0     C 1126   4.661   5.756   3.442  0.9971 -0.4726  0.0413
  750MOL0     C 1127   4.804   5.816   3.439 -0.2860  0.4817  0.8703
  750MOL0     C 1128   4.820   5.966   3.399  0.3639  0.1643  0.2106
  750MOL0     C 1129   4.745   5.999   3.267  0.3894 -0.4857  0.1869
  750MOL0     C 1130   4.791   5.914   3.152 -1.4217  0.6904 -0.4265
  750MOL0     C 1131   4.938   5.936   3.105  1.1337 -0.6393 -0.7504
  750MOL0     N 1132   4.967   5.837   3.000 -0.0786  0.0882  0.0443
  750MOL0     C 1133   4.928   5.837   2.870 -0.4796 -0.4598  0.9707
  750MOL0     C 1134   5.005   5.750   2.803  0.6580  0.1613  1.2054
  750MOL0     C 1135   5.006   5.732   2.649  0.4389 -0.0785 -0.0455
  750MOL0     C 1136   5.013   5.584   2.628 -0.0323  0.4075  0.0203
  750MOL0     C 1137   5.075   5.542   2.496  0.2057  0.7062 -0.3686
  750MOL0     C 1138   5.114   5.395   2.489 -0.4649  0.2182 -0.1063
  750MOL0     O 1139   5.184   5.375   2.367 -0.0251 -0.4647  0.1125
  750MOL0     C 1140   5.235   5.258   2.327 -0.0713 -0.0175  0.3813
  750MOL0     C 1141   5.254   5.137   2.400  0.3729 -0.2947 -0.9932
  750MOL0     C 1142   5.331   5.037   2.345 -0.0344  0.8309  0.3103
  750MOL0     C 1143   5.377   5.037   2.212 -0.3188  0.3510  0.9667
  750MOL0     C 1144   5.452   4.923   2.158 -0.0543 -0.0068 -0.2913
  750MOL0     O 1145   5.489   4.934   2.022 -0.3518 -0.0680 -0.5196
  750MOL0     C 1146   5.567   4.838   1.956 -0.4533  0.1490 -0.6737
  750MOL0     C 1147   5.634   4.886   1.847 -0.3941 -0.2817  0.8685
  750MOL0     C 1148   5.724   4.808   1.774 -0.9628  0.7232 -0.1723
  750MOL0     C 1149   5.754   4.674   1.815  0.0957  0.8146 -0.5352
  750MOL0     O 1150   5.838   4.593   1.741 -0.1654 -1.0933  0.6859
  750MOL0     C 1151   5.958   4.544   1.802 -0.6668  0.0392 -0.4802
  750MOL0     C 1152   6.041   4.434   1.740 -0.2220 -0.3587 -0.7645
  750MOL0     C 1153   6.126   4.477   1.626 -0.7628 -0.1792 -0.4924
  750MOL0     C 1154   6.196   4.360   1.566 -1.0750  0.1509  0.6071
  750MOL0     C 1155   6.319   4.309   1.633  0.5484 -0.0532 -0.1958
  750MOL0     C 1156   6.328   4.160   1.630  0.0844  0.4579  0.5183
  750MOL0     C 1157   6.459   4.103   1.676 -0.8376  0.8055 -0.0796
  750MOL0     C 1158   6.579   4.127   1.586  0.2406 -0.6132  0.2297
  750MOL0    Cl 1159   6.729   4.063   1.650  0.0458  0.0343 -0.3851
  750MOL0     C 1160   5.682   4.616   1.924  0.0676 -0.4833  0.2887
  750MOL0     C 1161   5.597   4.702   1.994  0.0709  0.8311  0.7863
  750MOL0     O 1162   5.488   4.835   2.240 -0.1804 -0.5987 -0.2460
  750MOL0     C 1163   5.339   5.151   2.133 -0.7282  0.7029 -0.6430
  750MOL0     C 1164   5.275   5.266   2.196 -0.4911 -0.2560  0.7156
  750MOL0     N 1165   5.099   5.710   2.889 -0.2358 -0.4691 -0.1156
  750MOL0     N 1166   5.078   5.754   3.009 -0.0785  0.1139  0.3290
  750MOL0     C 1167   4.342   5.333   3.515  0.0497  0.5446  0.6435
  750MOL0     C 1168   4.266   5.226   3.487 -0.2578 -0.0794  0.0884
  750MOL0     C 1169   3.947   4.972   3.567  0.2474  0.1725  0.6997
  750MOL0     C 1170   3.841   4.978   3.652  0.2133 -0.7586  0.2357
  750MOL0     C 1171   3.719   4.936   3.608 -0.0687 -0.3957  0.4041
  750MOL0     C 1172   3.702   4.867   3.485  0.4006  0.5050 -0.1123
  750MOL0     O 1173   3.577   4.818   3.472  0.6975  0.0477  0.4190
  750MOL0     C 1174   3.559   4.695   3.404 -0.4834  0.8130 -0.1009
  750MOL0     C 1175   3.455   4.624   3.476  0.2765  0.4247  0.4005
  750MOL0     C 1176   3.409   4.496   3.413 -1.3729  0.0521  0.1227
  750MOL0     C 1177   3.316   4.416   3.511 -0.0721  0.4224 -0.3913
  750MOL0     C 1178   3.232   4.324   3.438 -0.2203  0.3317 -0.8199
  750MOL0     C 1179   3.169   4.271   3.353 -0.7527  0.6617  0.3486
  750MOL0     C 1180   3.815   4.845   3.398  0.5009 -0.2458 -0.2599
  750MOL0     C 1181   3.937   4.903   3.435 -0.1267  1.0637  0.7448
  750MOL0     C 1182   4.048   4.877   3.332  0.4404 -1.0392  0.4919
  750MOL0     H 1183   4.433   5.007   3.691  2.7649  0.1706 -1.1259
  750MOL0     H 1184   4.591   5.201   3.711  1.7151 -0.4638 -1.7259
  750MOL0     H 1185   4.566   5.474   3.393  0.2393 -0.1461  0.4645
  750MOL0     H 1186   4.459   5.584   3.490  0.9842  0.6436  0.8918
  750MOL0     H 1187   4.764   5.572   3.456  1.5482  3.1014  0.4005
  750MOL0     H 1188   4.702   5.635   3.612  2.8751  1.2501 -0.7142
  750MOL0     H 1189   4.597   5.822   3.502  2.3708  0.3081  0.6937
  750MOL0     H 1190   4.623   5.753   3.340  2.0439 -2.0805 -0.3334
  750MOL0     H 1191   4.851   5.801   3.537 -1.6747 -2.0636  1.2258
  750MOL0     H 1192   4.868   5.760   3.370 -2.1752  1.3069 -1.7067
  750MOL0     H 1193   4.760   6.007   3.481 -1.3566  0.2653 -1.0540
  750MOL0     H 1194   4.922   6.003   3.406  0.4410 -0.0820  0.4185
  750MOL0     H 1195   4.638   5.982   3.283  0.5202 -2.0733 -0.4402
  750MOL0     H 1196   4.766   6.104   3.245  2.7129 -0.7209  1.0787
  750MOL0     H 1197   4.735   5.944   3.063  1.1580 -2.6518 -3.4644
  750MOL0     H 1198   4.762   5.808   3.151  1.6415 -0.2302 -1.3414
  750MOL0     H 1199   4.946   6.035   3.058  0.1780 -0.7169 -1.0937
  750MOL0     H 1200   5.006   5.921   3.189  1.5930  0.4843 -0.9049
  750MOL0     H 1201   4.861   5.902   2.815  0.1224 -0.7409 -0.1168
  750MOL0     H 1202   4.910   5.759   2.604 -0.2885 -2.1364  0.1549
  750MOL0     H 1203   5.091   5.791   2.612  0.5233  1.3653  2.2297
  750MOL0     H 1204   5.080   5.535   2.700  0.3387 -1.8144 -1.7136
  750MOL0     H 1205   4.906   5.563   2.632  0.0547  0.1175  1.9328
  750MOL0     H 1206   5.157   5.612   2.477 -2.0089  3.6325  0.0342
  750MOL0     H 1207   5.003   5.571   2.419 -2.1991  1.5982  2.0552
  750MOL0     H 1208   5.026   5.330   2.498 -0.6469  0.0444 -2.4620
  750MOL0     H 1209   5.171   5.364   2.577 -0.4505  0.6383  0.0308
  750MOL0     H 1210   5.217   5.123   2.501  3.6787 -1.6853  0.1390
  750MOL0     H 1211   5.340   4.954   2.415 -2.8215  0.2763  0.1362
  750MOL0     H 1212   5.620   4.988   1.813 -0.5678  0.2525  2.4272
  750MOL0     H 1213   5.771   4.850   1.686 -1.7446  0.8587 -0.5350
  750MOL0     H 1214   6.030   4.626   1.801 -2.0348  1.6070  4.1938
  750MOL0     H 1215   5.927   4.522   1.905 -0.1418  1.2085 -0.0647
  750MOL0     H 1216   6.098   4.392   1.823 -0.0361  0.6572 -0.3610
  750MOL0     H 1217   5.979   4.356   1.695  1.2865 -2.1843  0.1835
  750MOL0     H 1218   6.063   4.539   1.562 -2.4167 -0.5179  0.7585
  750MOL0     H 1219   6.200   4.536   1.682  0.0254 -2.2631  0.7547
  750MOL0     H 1220   6.233   4.392   1.468  1.7519 -1.9489  0.8630
  750MOL0     H 1221   6.126   4.278   1.545  0.1583 -1.2791  1.8378
  750MOL0     H 1222   6.332   4.345   1.736 -0.7075  3.3402 -1.0692
  750MOL0     H 1223   6.406   4.350   1.582  1.9183 -0.8219  1.4445
  750MOL0     H 1224   6.234   4.121   1.671 -0.5688 -2.1318 -2.9962
  750MOL0     H 1225   6.317   4.132   1.525 -2.0183  0.0394  0.7943
  750MOL0     H 1226   6.443   4.000   1.710 -0.7937  1.3140  1.6035
  750MOL0     H 1227   6.491   4.144   1.773  3.3941 -2.0407 -0.0206
  750MOL0     H 1228   6.540   4.084   1.492 -2.5626 -1.3149  1.5946
  750MOL0     H 1229   6.592   4.236   1.590 -2.3748 -0.2226  0.0607
  750MOL0     H 1230   5.713   4.519   1.961  0.3507 -0.4989  0.0164
  750MOL0     H 1231   5.547   4.660   2.081  2.1806 -0.7308  1.3336
  750MOL0     H 1232   5.362   5.154   2.027 -1.8931 -1.6528 -1.0194
  750MOL0     H 1233   5.242   5.347   2.132  2.3314 -0.1746 -0.7623
  750MOL0     H 1234   4.322   5.419   3.451  0.6729 -0.2780 -0.7041
  750MOL0     H 1235   4.177   5.247   3.429  0.4154  0.8832 -0.6149
  750MOL0     H 1236   3.860   5.011   3.754 -1.3126 -0.0185  0.3030
  750MOL0     H 1237   3.635   4.945   3.675 -0.5658  1.2465 -0.3650
  750MOL0     H 1238   3.640   4.624   3.420 -2.6332 -1.6689  0.4991
  750MOL0     H 1239   3.534   4.700   3.297 -2.2793 -0.6707  0.1879
  750MOL0     H 1240   3.366   4.688   3.475 -0.0075  0.0364 -0.5054
  750MOL0     H 1241   3.489   4.606   3.578  2.9974 -1.5820 -0.7216
  750MOL0     H 1242   3.494   4.429   3.396 -1.4936 -0.4837  1.4629
  750MOL0     H 1243   3.357   4.513   3.318  1.9518 -0.6810 -2.0148
  750MOL0     H 1244   3.380   4.351   3.571  0.6767  1.2319 -0.2824
  750MOL0     H 1245   3.254   4.483   3.571  1.4209  0.1279  1.5877
  750MOL0     H 1246   3.110   4.235   3.272 -1.6759  0.6405  1.0189
  750MOL0     H 1247   3.819   4.780   3.311  1.9795 -2.0780  1.0991
  750MOL0     H 1248   4.010   4.822   3.246  2.5002 -0.3611 -0.9233
  750MOL0     H 1249   4.092   4.973   3.304  1.8492 -1.6830  0.4162
  750MOL0     H 1250   4.141   4.826   3.356  1.2901 -1.9901 -3.9795
  751MOL0     O 1251   6.502   5.342   5.831 -0.6316  0.1705 -0.1811
  751MOL0     C 1252   6.457   5.406   5.930 -0.3620  1.4117 -0.5809
  751MOL0     O 1253   6.534   5.458   6.034  0.3069 -0.8845  0.1479
  751MOL0     C 1254   6.675   5.453   6.037 -0.0961 -0.4190 -0.9745
  751MOL0     C 1255   6.757   5.445   5.929 -0.4293  0.6411  0.8031
  751MOL0     C 1256   6.902   5.437   5.943  0.4399  0.8132 -0.4749
  751MOL0     C 1257   6.961   5.448   6.070  0.1797 -0.2362  0.7822
  751MOL0     O 1258   7.093   5.441   6.091 -0.6281 -0.4653 -0.0574
  751MOL0     C 1259   7.150   5.315   6.059  0.1390  0.0913  0.0654
  751MOL0     C 1260   7.200   5.251   6.195  0.0051  0.8059  0.2055
  751MOL0     C 1261   7.291   5.339   6.284  0.7688  0.7433 -0.6203
  751MOL0     C 1262   7.351   5.246   6.400  0.3985 -0.4444 -0.1907
  751MOL0     C 1263   7.227   5.222   6.492 -0.6592  0.1890 -0.0963
  751MOL0     C 1264   7.280   5.128   6.602  0.1260 -0.6175  0.0124
  751MOL0     C 1265   7.169   5.114   6.711 -0.8214 -0.0381 -0.2817
  751MOL0     C 1266   7.172   4.973   6.787  0.5088  0.1505 -0.3479
  751MOL0     N 1267   7.044   4.963   6.855  0.2061 -0.5827  0.5385
  751MOL0     C 1268   6.967   5.056   6.905 -0.5374  0.2557 -0.5559
  751MOL0     C 1269   6.880   4.996   6.989  0.5220  0.5719 -0.5145
  751MOL0     C 1270   6.773   5.070   7.074 -0.2306  0.2570  0.4043
  751MOL0     C 1271   6.806   5.086   7.229  0.5005  0.8602  0.3154
  751MOL0     C 1272   6.947   5.116   7.266 -1.4643 -0.3249 -0.3763
  751MOL0     C 1273   6.987   5.257   7.211  0.1031 -0.0145  0.3146
  751MOL0     O 1274   7.124   5.281   7.235 -0.5380  0.1396  0.3865
  751MOL0     C 1275   7.196   5.328   7.130  0.2190  0.2250 -0.3614
  751MOL0     C 1276   7.144   5.412   7.027  0.4309 -0.0459  0.1472
  751MOL0     C 1277   7.228   5.480   6.943  0.6229  0.2870 -0.2029
  751MOL0     C 1278   7.368   5.455   6.947 -0.6118 -0.3627  0.0281
  751MOL0     C 1279   7.459   5.514   6.840  0.7471  0.8121 -0.1383
  751MOL0     O 1280   7.394   5.611   6.777  0.8375  0.4184  0.3631
  751MOL0     C 1281   7.468   5.676   6.679 -0.2460 -0.7164  0.2809
  751MOL0     C 1282   7.599   5.732   6.705  0.2824 -0.2720  0.0048
  751MOL0     C 1283   7.672   5.800   6.607 -0.6160  0.5216  0.7258
  751MOL0     C 1284   7.616   5.812   6.470 -0.7422 -0.8316 -0.8713
  751MOL0     O 1285   7.693   5.866   6.365  0.9226 -0.4534 -0.3264
  751MOL0     C 1286   7.805   5.948   6.392 -0.2429 -0.2559  0.1879
  751MOL0     C 1287   7.814   6.050   6.282 -0.2562  0.3185 -0.4436
  751MOL0     C 1288   7.951   6.117   6.292  0.4255  1.0606  0.4615
  751MOL0     C 1289   7.961   6.220   6.178  1.0001  0.2206 -0.4181
  751MOL0     C 1290   8.090   6.292   6.186  0.0835 -0.9803 -0.1267
  751MOL0     C 1291   8.110   6.399   6.070 -0.1189  0.0229  0.3193
  751MOL0     C 1292   8.259   6.437   6.043 -0.5736  1.0428  0.1257
  751MOL0     C 1293   8.257   6.566   5.966  0.2727  0.1812  0.4067
  751MOL0    Cl 1294   8.172   6.533   5.805  0.0493  0.3865  0.2911
  751MOL0     C 1295   7.488   5.762   6.450 -0.7340  0.0340 -0.2437
  751MOL0     C 1296   7.418   5.687   6.552  0.2119 -0.7458  0.3973
  751MOL0     O 1297   7.563   5.455   6.806 -0.1835  0.6195 -0.1042
  751MOL0     C 1298   7.419   5.373   7.048  0.0123 -0.1688  0.0590
  751MOL0     C 1299   7.335   5.309   7.144 -0.0362 -0.1819 -0.0579
  751MOL0     N 1300   6.901   4.859   6.976  0.2724 -0.7283 -0.1794
  751MOL0     N 1301   6.997   4.841   6.897 -0.0414 -0.5199 -0.4390
  751MOL0     C 1302   6.874   5.475   6.172  0.2118 -0.1644 -0.8287
  751MOL0     C 1303   6.730   5.472   6.162 -0.1978  0.1498 -1.2058
  751MOL0     C 1304   6.313   5.421   5.934  0.1251 -0.0553 -0.5572
  751MOL0     C 1305   6.261   5.510   6.026  0.8905  0.0491 -0.4341
  751MOL0     C 1306   6.123   5.544   6.036  0.7533 -0.7495  0.6553
  751MOL0     C 1307   6.032   5.471   5.955  0.9234 -1.0489 -0.0726
  751MOL0     O 1308   5.893   5.473   5.964  0.6555 -0.1054 -0.3186
  751MOL0     C 1309   5.835   5.564   6.051 -0.3670 -0.3354  1.1145
  751MOL0     C 1310   5.680   5.556   6.032  0.0975  0.3822 -1.1464
  751MOL0     C 1311   5.619   5.651   6.140 -0.5091  1.1095 -0.4300
  751MOL0     C 1312   5.473   5.677   6.115  0.0543  0.0097  1.0240
  751MOL0     C 1313   5.449   5.787   6.022  0.7924  0.4370  0.3741
  751MOL0     C 1314   5.416   5.860   5.934 -0.2230  0.1614  0.2476
  751MOL0     C 1315   6.084   5.376   5.871 -0.6818 -0.3785 -0.0201
  751MOL0     C 1316   6.220   5.344   5.860 -0.4384 -0.2457  0.7769
  751MOL0     C 1317   6.244   5.228   5.765  0.0930  0.3781  0.3679
  751MOL0     H 1318   6.716   5.430   5.829  0.6205 -1.7584  0.6574
  751MOL0     H 1319   6.972   5.427   5.861  1.2497 -1.9375  0.4488
  751MOL0     H 1320   7.076   5.247   6.016 -2.6302  1.9131  1.7000
  751MOL0     H 1321   7.233   5.335   5.989  1.3459 -1.7831  0.8943
  751MOL0     H 1322   7.262   5.165   6.166  1.5022  1.8297  0.2656
  751MOL0     H 1323   7.110   5.214   6.245  0.1904  0.0314 -0.0145
  751MOL0     H 1324   7.230   5.426   6.308 -1.3719 -0.9962  0.6591
  751MOL0     H 1325   7.377   5.375   6.226  1.7968 -1.1258 -0.3465
  751MOL0     H 1326   7.391   5.152   6.361  1.7459  1.2648 -3.2742
  751MOL0     H 1327   7.433   5.302   6.444 -1.8573  2.1080  1.0580
  751MOL0     H 1328   7.204   5.318   6.538 -1.4801  0.3414 -0.8107
  751MOL0     H 1329   7.147   5.165   6.444  0.5406 -0.4333 -1.4348
  751MOL0     H 1330   7.292   5.024   6.570  1.9311 -0.9380  1.5231
  751MOL0     H 1331   7.378   5.162   6.638  0.2792  0.7060 -1.5612
  751MOL0     H 1332   7.080   5.121   6.648 -0.5968  0.8393 -0.5125
  751MOL0     H 1333   7.181   5.186   6.792  1.4357 -0.9629  0.2939
  751MOL0     H 1334   7.179   4.888   6.718 -1.2949 -2.2560  2.2188
  751MOL0     H 1335   7.257   4.955   6.853  0.1774  0.1512  0.0845
  751MOL0     H 1336   6.996   5.161   6.915 -3.7051  1.3012 -1.1393
  751MOL0     H 1337   6.758   5.169   7.031  1.8259  0.4332 -0.0257
  751MOL0     H 1338   6.680   5.013   7.065 -1.4136  1.8286  1.9259
  751MOL0     H 1339   6.741   5.156   7.281  0.2585  1.9888 -1.4119
  751MOL0     H 1340   6.780   4.993   7.280 -1.8850  0.7614 -0.9409
  751MOL0     H 1341   7.017   5.045   7.221  1.5736 -0.2549  3.6675
  751MOL0     H 1342   6.959   5.120   7.374 -0.6961  1.8325 -0.4783
  751MOL0     H 1343   6.938   5.341   7.261  1.0561  1.3661 -0.9973
  751MOL0     H 1344   6.958   5.268   7.106  1.2274 -2.4862 -0.3233
  751MOL0     H 1345   7.037   5.424   7.017  0.5575  0.5376 -0.5750
  751MOL0     H 1346   7.182   5.548   6.872  0.0523  1.6647  1.4442
  751MOL0     H 1347   7.638   5.747   6.806 -2.2112  2.6095  0.6850
  751MOL0     H 1348   7.768   5.842   6.635  1.1351 -3.3357  1.1412
  751MOL0     H 1349   7.816   5.994   6.490  0.3156  2.6144 -1.0992
  751MOL0     H 1350   7.888   5.878   6.381 -0.6220 -0.3825 -2.7071
  751MOL0     H 1351   7.806   6.009   6.181 -0.5083  0.4625 -0.4818
  751MOL0     H 1352   7.732   6.121   6.295 -1.2363 -0.7059 -0.9734
  751MOL0     H 1353   7.948   6.175   6.385  0.5094  2.1410 -0.1942
  751MOL0     H 1354   8.030   6.041   6.296  0.2436  0.8916  0.9778
  751MOL0     H 1355   7.881   6.293   6.188  0.4534 -0.2144 -1.4004
  751MOL0     H 1356   7.945   6.166   6.084 -2.7794  0.7393 -0.2114
  751MOL0     H 1357   8.175   6.223   6.187  1.0839  0.1801  2.4121
  751MOL0     H 1358   8.097   6.342   6.283  1.6210  2.1979 -1.7035
  751MOL0     H 1359   8.065   6.356   5.980  0.0426  0.8686 -0.1799
  751MOL0     H 1360   8.058   6.491   6.099 -1.5589 -0.0229 -1.9190
  751MOL0     H 1361   8.313   6.357   5.991  0.2293  1.0171  0.9777
  751MOL0     H 1362   8.308   6.445   6.140 -3.1070  0.3249  1.5481
  751MOL0     H 1363   8.210   6.644   6.027 -0.2008  0.3212 -0.1319
  751MOL0     H 1364   8.359   6.598   5.942  0.8536  0.4551  2.9702
  751MOL0     H 1365   7.454   5.771   6.347  0.0396  0.1202 -0.5027
  751MOL0     H 1366   7.323   5.639   6.530  0.8320 -1.2370 -1.3724
  751MOL0     H 1367   7.527   5.365   7.050  0.0776  0.7252  1.0385
  751MOL0     H 1368   7.376   5.253   7.227 -3.1655 -0.6512  1.3129
  751MOL0     H 1369   6.902   5.496   6.275 -0.8437  1.9045 -0.8963
  751MOL0     H 1370   6.674   5.501   6.251 -0.1938  0.5400 -1.3303
  751MOL0     H 1371   6.326   5.563   6.096  0.6074  0.3690 -0.4078
  751MOL0     H 1372   6.098   5.621   6.108 -0.7682  0.4136 -1.0095
  751MOL0     H 1373   5.861   5.664   6.014 -1.7683  0.6524  2.6082
  751MOL0     H 1374   5.865   5.549   6.155 -1.5809 -1.0004  1.3879
  751MOL0     H 1375   5.650   5.451   6.044  1.3604  0.0286 -0.9936
  751MOL0     H 1376   5.647   5.601   5.938 -0.8360  2.3996  0.0756
  751MOL0     H 1377   5.679   5.741   6.125  0.2012  0.5973 -0.7384
  751MOL0     H 1378   5.638   5.620   6.243 -4.1298  1.8422  0.5905
  751MOL0     H 1379   5.412   5.592   6.084 -2.6247  2.7478 -1.9608
  751MOL0     H 1380   5.435   5.703   6.215  0.0736  1.7142  0.6106
  751MOL0     H 1381   5.384   5.933   5.863 -0.0472 -1.7795 -1.9659
  751MOL0     H 1382   6.009   5.324   5.811  0.8004 -2.2200 -0.4018
  751MOL0     H 1383   6.336   5.172   5.782 -0.8340 -0.5234  2.7439
  751MOL0     H 1384   6.160   5.159   5.777 -0.8721  1.5409  0.4757
  751MOL0     H 1385   6.248   5.265   5.662  0.2331  0.7230  0.4977
  752MOL0     O 1386   5.638   9.518   5.542  0.1080  0.8318  0.2217
  752MOL0     C 1387   5.645   9.402   5.582 -0.2796 -0.2425 -0.5982
  752MOL0     O 1388   5.754   9.346   5.652 -0.6175 -0.0828  0.1177
  752MOL0     C 1389   5.883   9.403   5.641  1.0807 -0.3899  0.3572
  752MOL0     C 1390   5.901   9.534   5.666 -0.4328 -1.2497 -0.2730
  752MOL0     C 1391   6.031   9.585   5.642 -0.6971  0.4097  0.6631
  752MOL0     C 1392   6.140   9.503   5.614 -0.6013 -0.8257  0.1941
  752MOL0     O 1393   6.267   9.558   5.599  0.2864  0.4231 -0.2243
  752MOL0     C 1394   6.322   9.586   5.724  0.6358 -0.6750 -0.7520
  752MOL0     C 1395   6.388   9.724   5.728  0.3276 -0.4346 -0.4775
  752MOL0     C 1396   6.537   9.680   5.689  0.2958  0.0514  0.6246
  752MOL0     C 1397   6.626   9.805   5.684 -0.1931  0.0404  0.2363
  752MOL0     C 1398   6.765   9.762   5.625 -0.3997  0.2189  0.4355
  752MOL0     C 1399   6.857   9.699   5.729 -0.3207 -0.6038  0.1968
  752MOL0     C 1400   6.996   9.665   5.668  0.4815 -0.9258  0.6454
  752MOL0     C 1401   6.972   9.533   5.586  0.8153  0.2574 -0.5335
  752MOL0     N 1402   7.098   9.469   5.560  0.1061 -0.3494 -0.7279
  752MOL0     C 1403   7.160   9.475   5.444 -0.7261 -0.2429  0.4339
  752MOL0     C 1404   7.285   9.416   5.455 -0.0455  0.5921  0.5782
  752MOL0     C 1405   7.391   9.403   5.344 -0.5803  0.3997  0.0296
  752MOL0     C 1406   7.413   9.549   5.298 -1.1579  0.3627  0.4991
  752MOL0     C 1407   7.524   9.560   5.190  0.6672  0.2676  0.2037
  752MOL0     C 1408   7.551   9.700   5.156  0.6461  0.1011  0.2647
  752MOL0     O 1409   7.624   9.695   5.036 -0.7452 -0.6219 -0.4816
  752MOL0     C 1410   7.708   9.801   5.015  0.0571 -0.0616  0.5205
  752MOL0     C 1411   7.704   9.923   5.076  0.9224 -0.4248  0.8453
  752MOL0     C 1412   7.789  10.032   5.045 -0.3259  0.5333 -0.0134
  752MOL0     C 1413   7.885  10.019   4.942 -0.6050 -0.0590  0.1681
  752MOL0     C 1414   7.974  10.128   4.899 -0.8445 -0.2595  0.4968
  752MOL0     O 1415   8.039  10.122   4.780  0.5176  0.9375  0.3447
  752MOL0     C 1416   8.149  10.195   4.756 -0.4255 -0.4793 -0.8626
  752MOL0     C 1417   8.276  10.138   4.745 -0.4085 -0.2820  0.0602
  752MOL0     C 1418   8.382  10.222   4.725  0.8916  0.2642  0.4299
  752MOL0     C 1419   8.355  10.358   4.700 -0.3459 -0.0622 -0.3139
  752MOL0     O 1420   8.476  10.422   4.660  0.6211  0.0241 -0.4193
  752MOL0     C 1421   8.468  10.526   4.559  0.0189 -0.0630 -0.1431
  752MOL0     C 1422   8.593  10.568   4.495  0.6135 -0.2591  1.2379
  752MOL0     C 1423   8.701  10.626   4.588 -0.3253  0.4865  0.1001
  752MOL0     C 1424   8.664  10.766   4.651  1.0678  0.0562  0.4944
  752MOL0     C 1425   8.742  10.809   4.774  0.4746  0.2775  0.1958
  752MOL0     C 1426   8.893  10.820   4.763  0.0976 -0.6475  0.0363
  752MOL0     C 1427   8.956  10.935   4.850 -0.4727  0.0630  1.0326
  752MOL0     C 1428   9.092  10.978   4.792 -1.2147  0.9050  0.5695
  752MOL0    Cl 1429   9.158  11.117   4.890  0.0343  0.2443 -0.1616
  752MOL0     C 1430   8.231  10.411   4.707  0.4961  0.2470 -0.6790
  752MOL0     C 1431   8.122  10.332   4.732  0.0524 -0.0738 -0.7097
  752MOL0     O 1432   7.990  10.226   4.970 -0.1804 -0.6330 -0.6458
  752MOL0     C 1433   7.891   9.896   4.884  1.2496  0.7050  0.1232
  752MOL0     C 1434   7.805   9.792   4.914 -0.2364  0.6345 -0.9266
  752MOL0     N 1435   7.292   9.374   5.588  0.2699  0.7233  0.0005
  752MOL0     N 1436   7.182   9.408   5.651 -0.1370 -0.0852  0.1621
  752MOL0     C 1437   6.116   9.371   5.595  0.2918 -0.1703 -0.1735
  752MOL0     C 1438   5.991   9.315   5.620 -0.1464  0.0019  0.6255
  752MOL0     C 1439   5.520   9.327   5.597  0.3883  0.1832  0.3222
  752MOL0     C 1440   5.512   9.224   5.684 -0.1672  0.8763 -0.0445
  752MOL0     C 1441   5.380   9.163   5.707 -0.1861 -0.5678  0.2212
  752MOL0     C 1442   5.271   9.195   5.632 -0.2647  0.2312  0.0650
  752MOL0     O 1443   5.152   9.129   5.667  0.0514  0.2199 -0.0863
  752MOL0     C 1444   5.035   9.138   5.589  0.6394  0.6579 -0.5602
  752MOL0     C 1445   4.941   9.259   5.605  0.3857 -0.2527 -0.1097
  752MOL0     C 1446   4.850   9.255   5.732  0.0649 -0.4797  0.1045
  752MOL0     C 1447   4.933   9.225   5.858 -0.6802 -0.1994  0.1120
  752MOL0     C 1448   5.030   9.328   5.893 -0.3855 -0.4116 -0.4461
  752MOL0     C 1449   5.108   9.417   5.915  0.6219 -0.9199  0.3064
  752MOL0     C 1450   5.288   9.274   5.520  0.6199  0.1741  0.4549
  752MOL0     C 1451   5.406   9.344   5.503 -0.7954  0.1426 -0.4780
  752MOL0     C 1452   5.420   9.434   5.375 -0.6911 -0.8684 -0.8309
  752MOL0     H 1453   5.820   9.600   5.696  0.7132 -0.7389  1.9659
  752MOL0     H 1454   6.057   9.689   5.663 -1.0297  1.2321 -2.4434
  752MOL0     H 1455   6.241   9.596   5.797 -0.1518 -2.1081 -1.3993
  752MOL0     H 1456   6.388   9.503   5.752  0.9571 -0.5121 -1.0070
  752MOL0     H 1457   6.394   9.762   5.830  1.7994 -0.7338 -0.4348
  752MOL0     H 1458   6.335   9.790   5.659  0.2189  0.8202  0.7605
  752MOL0     H 1459   6.531   9.620   5.597 -0.2862 -0.2302  0.8421
  752MOL0     H 1460   6.573   9.614   5.769 -0.4437 -1.3849 -0.1874
  752MOL0     H 1461   6.569   9.871   5.617 -0.9835 -1.8379 -1.0549
  752MOL0     H 1462   6.639   9.855   5.780  2.7804  0.4968 -0.2989
  752MOL0     H 1463   6.761   9.692   5.540 -0.2827  3.2855 -2.3157
  752MOL0     H 1464   6.798   9.861   5.591 -2.3972  0.1976 -1.8509
  752MOL0     H 1465   6.865   9.767   5.814 -3.9743 -2.1610  2.0421
  752MOL0     H 1466   6.814   9.612   5.780 -0.4034  0.3418  1.8358
  752MOL0     H 1467   7.067   9.642   5.748  0.4946 -0.4815  0.7650
  752MOL0     H 1468   7.036   9.748   5.609  1.6089 -0.5207  1.9113
  752MOL0     H 1469   6.910   9.464   5.644 -1.0328  1.5823 -0.8369
  752MOL0     H 1470   6.917   9.549   5.493 -1.6488  1.9646  1.0898
  752MOL0     H 1471   7.137   9.537   5.358  0.2467  2.0968  1.7933
  752MOL0     H 1472   7.480   9.350   5.377  0.8838 -0.6213 -4.8022
  752MOL0     H 1473   7.354   9.332   5.270 -3.6647  0.3923  1.3865
  752MOL0     H 1474   7.324   9.601   5.261  0.1248  2.3022 -0.0293
  752MOL0     H 1475   7.439   9.608   5.386 -5.0719  2.1782  0.6577
  752MOL0     H 1476   7.487   9.507   5.102  0.6262  2.1673 -0.9598
  752MOL0     H 1477   7.619   9.512   5.213 -0.2947 -1.4497  0.7856
  752MOL0     H 1478   7.612   9.752   5.231  0.2176 -0.5197  1.0635
  752MOL0     H 1479   7.457   9.756   5.145  0.1810 -1.0737 -2.7825
  752MOL0     H 1480   7.638   9.943   5.160  0.7136 -1.7149  1.0138
  752MOL0     H 1481   7.778  10.126   5.097  2.4947  0.1596  1.4288
  752MOL0     H 1482   8.274  10.035   4.780 -0.8545 -0.6121 -0.9030
  752MOL0     H 1483   8.479  10.174   4.738  0.9281  0.0625 -0.5141
  752MOL0     H 1484   8.405  10.490   4.477  2.0117  1.8645 -2.7040
  752MOL0     H 1485   8.422  10.617   4.598  1.7786  1.1789 -0.7903
  752MOL0     H 1486   8.642  10.485   4.444  1.9229 -0.1728  2.2911
  752MOL0     H 1487   8.564  10.624   4.406  1.0770 -1.2935  0.4175
  752MOL0     H 1488   8.722  10.553   4.667  1.3956 -0.5068 -1.1735
  752MOL0     H 1489   8.794  10.654   4.536 -0.7078  2.5469  0.4683
  752MOL0     H 1490   8.559  10.771   4.681  0.9578  0.0751  0.1000
  752MOL0     H 1491   8.669  10.844   4.575 -0.2790  0.6371  0.9690
  752MOL0     H 1492   8.725  10.732   4.850 -1.0684  2.6290  2.3969
  752MOL0     H 1493   8.700  10.904   4.807  0.5695  0.4057 -0.0514
  752MOL0     H 1494   8.949  10.730   4.793  0.4973 -0.1078  0.9449
  752MOL0     H 1495   8.908  10.836   4.656  0.8204 -0.5933  0.1389
  752MOL0     H 1496   8.962  10.909   4.956 -1.4880  0.1927  1.1291
  752MOL0     H 1497   8.894  11.024   4.847 -0.7249 -0.1142  0.9674
  752MOL0     H 1498   9.157  10.891   4.802 -3.7908 -1.8910 -3.7284
  752MOL0     H 1499   9.084  11.010   4.688 -3.0076  2.5699  1.1599
  752MOL0     H 1500   8.216  10.517   4.685 -1.9766 -0.0938 -0.9547
  752MOL0     H 1501   8.020  10.370   4.740 -1.0828 -2.8910 -0.6578
  752MOL0     H 1502   7.962   9.877   4.805  1.3844 -0.4540  0.5055
  752MOL0     H 1503   7.843   9.704   4.863 -1.8126 -0.9479  0.4879
  752MOL0     H 1504   6.195   9.313   5.548 -0.3943  0.5580 -2.3613
  752MOL0     H 1505   5.971   9.209   5.610  1.1058 -0.2207  0.3939
  752MOL0     H 1506   5.596   9.213   5.751  2.1492  4.4208 -2.0577
  752MOL0     H 1507   5.375   9.097   5.793  4.7814 -0.1795  1.0769
  752MOL0     H 1508   4.959   9.062   5.612 -1.5707  2.9534  0.2212
  752MOL0     H 1509   5.064   9.112   5.487 -0.7953 -2.4391 -0.2914
  752MOL0     H 1510   4.879   9.272   5.516  1.3181  1.1801 -0.5966
  752MOL0     H 1511   5.011   9.344   5.609 -0.2763  0.3150  4.3305
  752MOL0     H 1512   4.781   9.171   5.718 -2.0044  1.1471  0.0963
  752MOL0     H 1513   4.795   9.350   5.732  1.3580  0.3400 -1.9349
  752MOL0     H 1514   4.871   9.223   5.948  0.9974 -0.0205  1.3157
  752MOL0     H 1515   4.989   9.134   5.836  0.6660  0.9466 -1.4824
  752MOL0     H 1516   5.188   9.483   5.941  0.7080 -0.2655 -1.4885
  752MOL0     H 1517   5.207   9.280   5.448  0.7384  0.1083  0.3146
  752MOL0     H 1518   5.340   9.432   5.301  1.9273  0.2535 -3.9426
  752MOL0     H 1519   5.415   9.536   5.414  3.2370  0.4020 -3.0942
  752MOL0     H 1520   5.510   9.405   5.320  0.5232 -2.4399  1.7547
  753MOL0     O 1521  10.027   1.688   2.609 -0.5350 -0.8204 -0.5074
  753MOL0     C 1522   9.956   1.593   2.627 -0.0814  0.0842 -1.1122
  753MOL0     O 1523   9.993   1.468   2.613 -0.2819 -0.8677 -0.2553
  753MOL0     C 1524  10.114   1.428   2.559  0.8446 -0.5425  0.7913
  753MOL0     C 1525  10.241   1.472   2.612  0.8115 -0.6493 -0.1925
  753MOL0     C 1526  10.352   1.435   2.543 -0.8958 -0.0584  0.5399
  753MOL0     C 1527  10.360   1.344   2.436  0.7309  0.5765  0.5248
  753MOL0     O 1528  10.485   1.320   2.383 -0.3313 -0.2494  0.2004
  753MOL0     C 1529  10.516   1.209   2.309 -0.0789 -0.6748  0.4845
  753MOL0     C 1530  10.664   1.177   2.278  0.3334 -0.0129  0.9084
  753MOL0     C 1531  10.732   1.112   2.399 -0.2233 -1.4677 -1.0855
  753MOL0     C 1532  10.687   0.964   2.427 -0.4289  0.5245  0.2979
  753MOL0     C 1533  10.790   0.896   2.523  0.2711  0.6275  1.5893
  753MOL0     C 1534  10.783   0.745   2.544 -0.0712 -0.2079  0.3111
  753MOL0     C 1535  10.902   0.677   2.611  0.2500 -0.1755 -0.0550
  753MOL0     C 1536  11.037   0.684   2.529 -0.0340  0.7119  0.4608
  753MOL0     N 1537  11.118   0.571   2.571 -0.2865  0.1808  0.8139
  753MOL0     C 1538  11.183   0.554   2.690  0.3360  0.0571 -0.5116
  753MOL0     C 1539  11.221   0.426   2.687  0.5747  0.1164 -0.1647
  753MOL0     C 1540  11.280   0.354   2.805  0.2358 -0.5131  0.2115
  753MOL0     C 1541  11.431   0.373   2.797 -0.4988  0.3233  0.2174
  753MOL0     C 1542  11.493   0.306   2.666 -0.0207 -0.6532  0.6670
  753MOL0     C 1543  11.647   0.285   2.680 -0.7530 -0.7085 -0.0670
  753MOL0     O 1544  11.669   0.181   2.588 -0.4067 -1.0418  0.7497
  753MOL0     C 1545  11.797   0.123   2.575 -0.8751 -0.5243  0.3433
  753MOL0     C 1546  11.806   0.026   2.480 -0.2910 -0.0827  0.3131
  753MOL0     C 1547  11.915  -0.060   2.466 -0.1981  1.3383  0.3579
  753MOL0     C 1548  12.028  -0.036   2.542 -0.2975 -0.4322 -1.4387
  753MOL0     C 1549  12.148  -0.117   2.537  0.1864  0.1429 -0.4433
  753MOL0     O 1550  12.258  -0.068   2.596 -0.2738  0.4705 -0.0658
  753MOL0     C 1551  12.366  -0.157   2.600  0.6901 -0.2694  0.2500
  753MOL0     C 1552  12.481  -0.121   2.540 -1.3345 -0.2874  0.4270
  753MOL0     C 1553  12.600  -0.203   2.550  0.2939 -0.2868 -0.9178
  753MOL0     C 1554  12.592  -0.325   2.630 -0.2956 -0.1713  0.3476
  753MOL0     O 1555  12.711  -0.397   2.634  0.0100 -0.2720  0.6836
  753MOL0     C 1556  12.710  -0.491   2.737 -0.6366  0.7966  0.0738
  753MOL0     C 1557  12.843  -0.568   2.758 -0.7727 -0.6661  0.7347
  753MOL0     C 1558  12.969  -0.478   2.715  0.6509 -0.0694 -0.6008
  753MOL0     C 1559  13.072  -0.574   2.651 -0.3838 -0.1066  0.5575
  753MOL0     C 1560  13.206  -0.505   2.641 -0.9394  0.4650  0.0850
  753MOL0     C 1561  13.263  -0.451   2.773 -0.2569  0.4135 -1.0381
  753MOL0     C 1562  13.412  -0.441   2.754  0.0417 -0.7404  0.7255
  753MOL0     C 1563  13.482  -0.423   2.887  0.5222  0.6804 -0.0258
  753MOL0    Cl 1564  13.447  -0.262   2.965 -0.0297 -0.2863 -0.1669
  753MOL0     C 1565  12.462  -0.368   2.673 -0.3851 -0.2243 -0.5572
  753MOL0     C 1566  12.355  -0.282   2.670 -0.1501  0.9052 -0.5189
  753MOL0     O 1567  12.131  -0.221   2.472 -0.0715  0.3221  0.5859
  753MOL0     C 1568  12.019   0.067   2.645  0.0927  0.8794  1.0166
  753MOL0     C 1569  11.911   0.142   2.663  0.9028  0.5364  0.1950
  753MOL0     N 1570  11.178   0.360   2.573 -0.2261 -0.0894 -0.2065
  753MOL0     N 1571  11.119   0.449   2.508 -0.8571  0.7334 -0.0635
  753MOL0     C 1572  10.240   1.312   2.382 -0.4029  0.4924 -0.0286
  753MOL0     C 1573  10.120   1.359   2.438 -1.0355  0.2952 -0.1464
  753MOL0     C 1574   9.818   1.607   2.664  0.0056 -0.7182 -0.3139
  753MOL0     C 1575   9.735   1.495   2.673 -0.5570  0.6194  0.4254
  753MOL0     C 1576   9.603   1.500   2.702  0.6582  0.7859 -0.5058
  753MOL0     C 1577   9.530   1.627   2.715  0.5174  0.0642  0.3275
  753MOL0     O 1578   9.402   1.646   2.751 -0.3813 -0.6175  0.0806
  753MOL0     C 1579   9.311   1.538   2.761  0.7397  0.5952 -0.4907
  753MOL0     C 1580   9.167   1.582   2.764  0.5844  0.1115 -0.8882
  753MOL0     C 1581   9.126   1.621   2.907 -0.8934 -0.3896  0.6661
  753MOL0     C 1582   9.155   1.772   2.933  0.2423  1.3700 -0.0544
  753MOL0     C 1583   9.058   1.851   2.862  0.1129 -0.4129  0.6226
  753MOL0     C 1584   8.966   1.918   2.826  0.1420 -0.4668  0.1461
  753MOL0     C 1585   9.611   1.739   2.704 -0.0854  0.9478 -0.9008
  753MOL0     C 1586   9.751   1.733   2.697  0.1339 -1.0577 -0.1574
  753MOL0     C 1587   9.825   1.863   2.711 -0.5514 -0.0513  0.0930
  753MOL0     H 1588  10.241   1.533   2.701 -2.6810  0.4329 -0.8025
  753MOL0     H 1589  10.449   1.470   2.576 -1.9422  3.8765 -0.0802
  753MOL0     H 1590  10.477   1.127   2.370  1.0561 -0.3974  1.6533
  753MOL0     H 1591  10.465   1.226   2.215 -1.0287 -3.0428  0.4988
  753MOL0     H 1592  10.716   1.272   2.260  2.2367 -1.1682 -0.0451
  753MOL0     H 1593  10.676   1.109   2.193  0.8518 -0.8813  1.6572
  753MOL0     H 1594  10.732   1.173   2.490 -1.6799 -0.5835 -1.6541
  753MOL0     H 1595  10.834   1.111   2.359 -1.5288 -0.2471 -4.8268
  753MOL0     H 1596  10.587   0.964   2.471 -0.5134  0.0179  0.1160
  753MOL0     H 1597  10.695   0.911   2.332 -0.6980 -2.0152  1.6010
  753MOL0     H 1598  10.887   0.905   2.472  0.2324 -0.2705  1.3316
  753MOL0     H 1599  10.778   0.941   2.622 -3.0818  1.8744  0.7380
  753MOL0     H 1600  10.694   0.720   2.602  0.9670  1.2031  2.6702
  753MOL0     H 1601  10.774   0.704   2.443 -0.9815 -0.0983  0.3444
  753MOL0     H 1602  10.875   0.573   2.630 -0.3519 -0.0987 -0.4795
  753MOL0     H 1603  10.930   0.718   2.709 -1.4083  0.3740  0.2279
  753MOL0     H 1604  10.999   0.677   2.427 -0.5611  1.7023  0.5755
  753MOL0     H 1605  11.096   0.772   2.554 -0.6568  0.5077  2.9217
  753MOL0     H 1606  11.205   0.611   2.780  1.1397  1.7302 -1.7097
  753MOL0     H 1607  11.244   0.402   2.896  1.5406 -2.0745  1.6259
  753MOL0     H 1608  11.250   0.249   2.811 -0.6787 -0.1947  1.7226
  753MOL0     H 1609  11.460   0.479   2.793  0.7032  0.0348  0.8501
  753MOL0     H 1610  11.464   0.330   2.892 -0.7338 -1.6573 -0.5620
  753MOL0     H 1611  11.472   0.358   2.572  1.9699 -0.3455  0.3472
  753MOL0     H 1612  11.440   0.211   2.653 -0.6093 -0.0091 -2.3042
  753MOL0     H 1613  11.675   0.250   2.780  1.3881  0.3763 -0.2442
  753MOL0     H 1614  11.695   0.381   2.659 -0.3722 -0.5572  1.3909
  753MOL0     H 1615  11.718   0.021   2.417  0.1429  0.0271 -0.3138
  753MOL0     H 1616  11.907  -0.147   2.402 -0.1838  2.3464 -1.0608
  753MOL0     H 1617  12.481  -0.033   2.477 -0.1855 -0.0489  0.7291
  753MOL0     H 1618  12.690  -0.162   2.506 -1.3314  2.9462 -1.5254
  753MOL0     H 1619  12.683  -0.447   2.833 -0.2271 -1.6348  1.3947
  753MOL0     H 1620  12.637  -0.567   2.707 -2.0096  2.5827 -1.2874
  753MOL0     H 1621  12.853  -0.603   2.861  0.5100 -1.4369  0.3713
  753MOL0     H 1622  12.833  -0.651   2.687 -1.6194 -0.1061  0.1923
  753MOL0     H 1623  12.953  -0.397   2.643 -0.4127 -0.8809 -1.3128
  753MOL0     H 1624  13.006  -0.423   2.802  2.0890 -3.5843  1.1873
  753MOL0     H 1625  13.041  -0.603   2.550 -0.0554  2.2697 -0.2963
  753MOL0     H 1626  13.081  -0.666   2.709  0.1124 -1.6437 -1.7827
  753MOL0     H 1627  13.194  -0.435   2.558 -2.7224 -1.2217 -1.1778
  753MOL0     H 1628  13.281  -0.576   2.605 -0.3982 -0.0031  1.9972
  753MOL0     H 1629  13.217  -0.354   2.798  0.8116  0.7749 -0.3875
  753MOL0     H 1630  13.236  -0.534   2.838 -2.8144  0.1770 -2.2876
  753MOL0     H 1631  13.425  -0.353   2.690  1.9036 -0.4697  1.4127
  753MOL0     H 1632  13.455  -0.526   2.700 -3.0928 -0.4898 -2.5091
  753MOL0     H 1633  13.441  -0.498   2.955 -1.1637  1.5803  0.0032
  753MOL0     H 1634  13.587  -0.445   2.866 -0.0356 -2.6526  0.1599
  753MOL0     H 1635  12.443  -0.469   2.708 -3.9066  1.4226  3.0774
  753MOL0     H 1636  12.264  -0.328   2.709  1.7468 -3.4558 -0.6908
  753MOL0     H 1637  12.104   0.083   2.711  1.2568 -2.1451  0.4189
  753MOL0     H 1638  11.898   0.213   2.744 -3.4896  3.6825 -2.7794
  753MOL0     H 1639  10.229   1.258   2.288  1.5490  0.5933 -0.3534
  753MOL0     H 1640  10.022   1.339   2.395 -1.0608  1.7463 -0.8144
  753MOL0     H 1641   9.786   1.402   2.651 -1.7035  0.3320 -1.2146
  753MOL0     H 1642   9.561   1.403   2.727  0.7782  1.1921  1.4583
  753MOL0     H 1643   9.336   1.478   2.849 -0.5610 -1.0896 -1.1998
  753MOL0     H 1644   9.306   1.463   2.680  0.4362 -2.1484  1.9021
  753MOL0     H 1645   9.100   1.506   2.724  3.7717 -2.8046 -1.1527
  753MOL0     H 1646   9.157   1.678   2.712 -0.9501  3.4811  4.7370
  753MOL0     H 1647   9.181   1.552   2.972  0.2267 -1.1192 -0.9843
  753MOL0     H 1648   9.021   1.595   2.921 -0.7516 -1.2368  0.2378
  753MOL0     H 1649   9.137   1.799   3.038  2.1991 -1.6246  1.2112
  753MOL0     H 1650   9.254   1.813   2.909  0.8634  0.0765  0.1694
  753MOL0     H 1651   8.879   1.974   2.796 -1.3721 -1.0141  3.2207
  753MOL0     H 1652   9.560   1.833   2.722 -0.8909  1.0223 -3.1523
  753MOL0     H 1653   9.867   1.892   2.614  1.1788 -1.1005  0.4639
  753MOL0     H 1654   9.783   1.950   2.762  1.9663  0.4158  1.5500
  753MOL0     H 1655   9.907   1.833   2.778 -0.7625  0.9228  0.8071
  754MOL0     O 1656   4.168   3.707   2.613 -0.5475  0.2493  0.1357
  754MOL0     C 1657   4.156   3.639   2.719  0.2459 -0.5539 -0.4938
  754MOL0     O 1658   4.238   3.650   2.829  0.4332  0.2451  0.2743
  754MOL0     C 1659   4.351   3.722   2.812 -0.4685  0.2881 -0.8387
  754MOL0     C 1660   4.357   3.833   2.897  1.0306 -0.8051 -0.2149
  754MOL0     C 1661   4.467   3.930   2.900  0.1642  0.6957 -0.4386
  754MOL0     C 1662   4.574   3.902   2.821 -0.6393  0.4672  0.1810
  754MOL0     O 1663   4.692   3.970   2.819  0.0282 -0.5281 -0.2873
  754MOL0     C 1664   4.727   4.047   2.932  0.1275 -0.1181  1.0331
  754MOL0     C 1665   4.759   3.962   3.062 -0.2807 -0.2622 -0.0677
  754MOL0     C 1666   4.853   4.046   3.154 -0.1185  0.1091 -1.0102
  754MOL0     C 1667   4.959   4.143   3.084 -0.1664  0.0610  0.3302
  754MOL0     C 1668   5.056   4.189   3.192 -0.1816  0.4434 -0.0102
  754MOL0     C 1669   5.145   4.312   3.157  0.0388  0.0717  0.3895
  754MOL0     C 1670   5.238   4.329   3.271  0.1214  0.3196 -0.1104
  754MOL0     C 1671   5.349   4.433   3.236 -0.0216  0.0315 -0.2586
  754MOL0     N 1672   5.448   4.364   3.152  0.3615  0.3542  0.1690
  754MOL0     C 1673   5.441   4.341   3.017 -0.1124  0.2432  0.1976
  754MOL0     C 1674   5.543   4.257   2.983  1.4612  0.2339 -0.0731
  754MOL0     C 1675   5.588   4.195   2.845 -0.4901 -0.1067 -0.5870
  754MOL0     C 1676   5.476   4.152   2.747  0.6183  0.6395 -0.3688
  754MOL0     C 1677   5.385   4.038   2.816 -1.1705 -0.1019  0.3312
  754MOL0     C 1678   5.252   4.020   2.742  0.4176 -0.1736 -0.2692
  754MOL0     O 1679   5.268   4.038   2.599  0.2187  0.0514 -0.3410
  754MOL0     C 1680   5.145   4.055   2.530  0.8459  0.0532  0.5622
  754MOL0     C 1681   5.146   4.132   2.412  0.2443  0.3918  0.4426
  754MOL0     C 1682   5.039   4.119   2.324 -0.3089 -0.0933 -0.0120
  754MOL0     C 1683   4.910   4.071   2.368 -0.6755  1.0944  0.4596
  754MOL0     C 1684   4.787   4.065   2.283  0.2440 -0.2509  0.9428
  754MOL0     O 1685   4.790   4.117   2.156 -0.1066 -0.5425  0.1782
  754MOL0     C 1686   4.672   4.147   2.095 -1.2817 -0.8789  0.3199
  754MOL0     C 1687   4.657   4.129   1.956 -0.5511  0.8124  0.7723
  754MOL0     C 1688   4.537   4.164   1.892  0.0313  0.2708 -0.2500
  754MOL0     C 1689   4.429   4.224   1.968 -0.4558  0.3144  0.0572
  754MOL0     O 1690   4.338   4.281   1.885 -0.0458 -0.5274  0.5622
  754MOL0     C 1691   4.232   4.353   1.953 -0.5806 -0.5258 -0.2260
  754MOL0     C 1692   4.183   4.457   1.853 -0.7822  0.1746 -0.1285
  754MOL0     C 1693   4.085   4.554   1.912 -0.6127 -0.2875 -0.0761
  754MOL0     C 1694   4.119   4.703   1.872  0.2689 -0.9173  0.3942
  754MOL0     C 1695   4.000   4.798   1.903 -0.2403 -0.2973 -0.3990
  754MOL0     C 1696   3.938   4.802   2.047 -0.1895  0.7050  0.1639
  754MOL0     C 1697   3.785   4.845   2.054  0.1249  0.2500  0.4153
  754MOL0     C 1698   3.734   4.880   2.199 -0.3444  0.5512 -0.1259
  754MOL0    Cl 1699   3.567   4.913   2.155 -0.1895 -0.1954 -0.5143
  754MOL0     C 1700   4.436   4.216   2.107 -1.3829  0.7061 -0.2487
  754MOL0     C 1701   4.565   4.190   2.167 -0.1532  0.2019  0.4973
  754MOL0     O 1702   4.689   3.997   2.325  0.8939 -0.5472  0.8980
  754MOL0     C 1703   4.903   4.013   2.490  0.5747 -0.0233  0.6069
  754MOL0     C 1704   5.018   4.008   2.574 -0.8686  0.8967  0.1949
  754MOL0     N 1705   5.611   4.226   3.099 -1.1006  0.3478  0.3066
  754MOL0     N 1706   5.549   4.285   3.197  0.2866 -0.2818  0.5287
  754MOL0     C 1707   4.564   3.802   2.725  0.0452 -0.2833 -0.2312
  754MOL0     C 1708   4.459   3.713   2.721  0.8238  1.3413 -0.2624
  754MOL0     C 1709   4.034   3.562   2.731 -0.1990 -0.2487 -0.0832
  754MOL0     C 1710   3.939   3.550   2.625  0.2399  0.6777  0.4189
  754MOL0     C 1711   3.822   3.469   2.630  0.3598  0.2032 -0.1980
  754MOL0     C 1712   3.794   3.401   2.751 -0.2620 -0.6117  0.4707
  754MOL0     O 1713   3.676   3.332   2.778  0.0495 -0.2707  0.7450
  754MOL0     C 1714   3.581   3.308   2.668  1.0397 -0.8673 -0.7869
  754MOL0     C 1715   3.478   3.204   2.694  0.0741  0.5183  0.1347
  754MOL0     C 1716   3.380   3.199   2.583 -0.6612 -0.2489 -1.0215
  754MOL0     C 1717   3.418   3.157   2.436  0.0641  0.7116 -0.3654
  754MOL0     C 1718   3.471   3.024   2.427  0.0447 -0.7325 -0.0943
  754MOL0     C 1719   3.495   2.904   2.408  0.0916 -0.5739 -0.1483
  754MOL0     C 1720   3.891   3.402   2.859  0.7576 -1.1460  0.3709
  754MOL0     C 1721   4.009   3.483   2.853  0.2350  0.2389  0.2820
  754MOL0     C 1722   4.097   3.450   2.974 -0.9409 -0.3280 -0.4653
  754MOL0     H 1723   4.268   3.860   2.953 -0.6363 -2.2722 -1.9891
  754MOL0     H 1724   4.455   4.012   2.970 -0.7877 -1.0873  1.5681
  754MOL0     H 1725   4.821   4.093   2.898 -0.7286  0.3525 -0.8406
  754MOL0     H 1726   4.651   4.119   2.960 -0.5464 -0.6633  0.6508
  754MOL0     H 1727   4.810   3.871   3.028  0.5974  0.7320 -1.5256
  754MOL0     H 1728   4.666   3.938   3.115  0.5912  0.9375  2.1360
  754MOL0     H 1729   4.909   3.965   3.200  3.1070  0.7209 -3.5243
  754MOL0     H 1730   4.795   4.107   3.225 -1.1295 -2.2117  0.2634
  754MOL0     H 1731   5.017   4.095   3.004  1.1434 -0.1960  1.4070
  754MOL0     H 1732   4.923   4.238   3.044  0.9049  0.6378  0.6949
  754MOL0     H 1733   5.011   4.211   3.290  2.2607 -2.4017  1.9225
  754MOL0     H 1734   5.118   4.101   3.211 -1.1765 -0.1563  0.5714
  754MOL0     H 1735   5.192   4.287   3.061  3.0429 -0.5219  1.8726
  754MOL0     H 1736   5.091   4.404   3.137 -1.4942 -1.5123 -3.7606
  754MOL0     H 1737   5.285   4.235   3.299 -0.6899 -0.3936 -1.0576
  754MOL0     H 1738   5.191   4.385   3.353 -0.5821  1.9393 -1.5564
  754MOL0     H 1739   5.300   4.520   3.193 -1.4242 -1.1239 -1.0940
  754MOL0     H 1740   5.397   4.468   3.328  1.1953 -1.5111 -0.2470
  754MOL0     H 1741   5.383   4.404   2.950 -0.2565 -0.1482 -0.0492
  754MOL0     H 1742   5.645   4.269   2.789 -0.2443  1.3103  1.4106
  754MOL0     H 1743   5.655   4.114   2.877 -1.2510 -0.1479  1.0484
  754MOL0     H 1744   5.413   4.238   2.723  1.2343  0.4592 -2.8175
  754MOL0     H 1745   5.516   4.105   2.657 -4.2530 -2.7323 -1.1695
  754MOL0     H 1746   5.368   4.066   2.920  0.6403  1.7843  0.2024
  754MOL0     H 1747   5.430   3.939   2.819  0.4846  0.4587 -2.3158
  754MOL0     H 1748   5.175   4.089   2.779  0.0341 -0.3657 -0.7104
  754MOL0     H 1749   5.220   3.917   2.762 -0.2406  0.2316  0.9195
  754MOL0     H 1750   5.229   4.182   2.362 -1.4120  1.5132 -1.3413
  754MOL0     H 1751   5.042   4.145   2.218 -5.0249 -2.3241 -0.9330
  754MOL0     H 1752   4.748   4.101   1.905 -0.4541  2.2531  0.0895
  754MOL0     H 1753   4.541   4.153   1.784  2.0413 -0.3468 -0.1682
  754MOL0     H 1754   4.154   4.280   1.971 -0.1713 -0.6086  1.3002
  754MOL0     H 1755   4.250   4.402   2.049 -1.2064 -1.5465  0.4153
  754MOL0     H 1756   4.268   4.513   1.813 -1.0427  1.1367  0.6013
  754MOL0     H 1757   4.139   4.401   1.770  2.3422 -3.0783  0.1527
  754MOL0     H 1758   3.989   4.538   1.863 -0.2513  1.9101 -1.6697
  754MOL0     H 1759   4.083   4.542   2.021  0.8637 -1.1783 -0.1152
  754MOL0     H 1760   4.146   4.704   1.766 -0.6834 -0.9975  0.1409
  754MOL0     H 1761   4.206   4.737   1.929  0.6842  0.3982 -0.9684
  754MOL0     H 1762   3.914   4.762   1.846 -0.1445  0.3291 -0.9416
  754MOL0     H 1763   4.030   4.898   1.873  0.0861 -0.2954 -0.0766
  754MOL0     H 1764   3.923   4.697   2.072  0.6029 -0.0880 -2.4169
  754MOL0     H 1765   3.993   4.863   2.119 -0.3869  1.4785 -0.3234
  754MOL0     H 1766   3.734   4.759   2.008  1.9183 -0.7236  0.1279
  754MOL0     H 1767   3.776   4.926   1.982  1.4714 -1.4132 -1.7682
  754MOL0     H 1768   3.739   4.794   2.266 -0.1591  0.0533 -0.7596
  754MOL0     H 1769   3.782   4.966   2.245  1.3569  0.3576 -1.4087
  754MOL0     H 1770   4.345   4.235   2.163 -2.9552 -1.6728 -1.8177
  754MOL0     H 1771   4.579   4.209   2.273  2.6102  0.0002  0.2347
  754MOL0     H 1772   4.806   3.975   2.519 -1.8081  2.3366 -3.3493
  754MOL0     H 1773   5.000   3.968   2.673  1.1812 -0.7810 -0.0437
  754MOL0     H 1774   4.648   3.786   2.658 -1.4725  0.4425 -2.4110
  754MOL0     H 1775   4.451   3.639   2.642 -0.9344  2.6434 -1.3904
  754MOL0     H 1776   3.947   3.610   2.535 -1.5176 -1.0303 -0.9546
  754MOL0     H 1777   3.750   3.473   2.549  0.9493 -1.9599 -0.9065
  754MOL0     H 1778   3.641   3.274   2.583 -2.0366  0.1294 -3.6155
  754MOL0     H 1779   3.516   3.392   2.640 -1.4559 -2.9765 -1.8057
  754MOL0     H 1780   3.424   3.230   2.785 -0.5595  1.1831 -0.4174
  754MOL0     H 1781   3.520   3.104   2.707 -3.3025 -0.8987  1.3371
  754MOL0     H 1782   3.320   3.290   2.585  2.2503  1.7931 -0.5578
  754MOL0     H 1783   3.308   3.122   2.613 -0.4495 -0.2905 -0.6073
  754MOL0     H 1784   3.333   3.164   2.368  0.2835  0.2741 -0.6850
  754MOL0     H 1785   3.475   3.243   2.399  1.4450  0.6373  1.4496
  754MOL0     H 1786   3.535   2.805   2.400  2.0694  0.0623  0.9861
  754MOL0     H 1787   3.870   3.339   2.946  2.0212  0.4949  1.9450
  754MOL0     H 1788   4.078   3.537   3.038 -0.0235  0.4679 -1.2490
  754MOL0     H 1789   4.057   3.362   3.024  0.4780 -0.5234  0.3791
  754MOL0     H 1790   4.203   3.435   2.951  0.0098 -2.4681  4.1722
  755MOL0     O 1791   7.352   7.128   6.287 -0.1070 -0.2863 -0.1702
  755MOL0     C 1792   7.256   7.162   6.221 -0.0938 -0.2796  0.7556
  755MOL0     O 1793   7.235   7.287   6.173  0.2432 -0.2856 -0.9265
  755MOL0     C 1794   7.352   7.365   6.182 -0.0534  0.5846 -0.2791
  755MOL0     C 1795   7.428   7.384   6.067 -0.0967 -0.3180 -0.6226
  755MOL0     C 1796   7.553   7.445   6.082  0.1655 -0.2214  0.0620
  755MOL0     C 1797   7.593   7.492   6.205 -0.6324 -0.2747 -0.2910
  755MOL0     O 1798   7.716   7.548   6.220 -0.1063  0.6553  0.4791
  755MOL0     C 1799   7.775   7.635   6.114 -0.1774 -0.0888 -0.9579
  755MOL0     C 1800   7.886   7.723   6.185  0.0215  0.7356  0.1735
  755MOL0     C 1801   7.991   7.631   6.264 -0.5218 -0.6886  0.8719
  755MOL0     C 1802   8.126   7.626   6.178  0.0143 -0.7534 -0.0278
  755MOL0     C 1803   8.219   7.508   6.212  1.0196 -0.6555  0.1228
  755MOL0     C 1804   8.313   7.491   6.101 -0.6732  0.1550 -0.1343
  755MOL0     C 1805   8.453   7.447   6.135 -0.1575 -0.0013 -0.0369
  755MOL0     C 1806   8.513   7.364   6.019 -0.2362 -1.3270  0.0959
  755MOL0     N 1807   8.649   7.317   6.053 -0.3626 -0.3379 -0.9396
  755MOL0     C 1808   8.774   7.339   5.993 -0.1135 -0.3733  0.0099
  755MOL0     C 1809   8.866   7.266   6.061  0.1909 -0.1819 -1.0138
  755MOL0     C 1810   9.020   7.257   6.034  0.1851  0.1254 -0.5309
  755MOL0     C 1811   9.065   7.324   5.919  1.0413  0.0605  0.8574
  755MOL0     C 1812   9.200   7.256   5.864  0.0739  0.1636 -1.3327
  755MOL0     C 1813   9.265   7.349   5.769  0.3201 -0.9932 -0.6353
  755MOL0     O 1814   9.409   7.326   5.778 -0.0048  0.4311  0.2912
  755MOL0     C 1815   9.494   7.398   5.697 -0.5422  0.1951 -0.0233
  755MOL0     C 1816   9.614   7.344   5.665 -0.1318  0.8064 -0.2683
  755MOL0     C 1817   9.691   7.405   5.571  0.3482  1.1384 -0.1111
  755MOL0     C 1818   9.666   7.533   5.525 -0.8293  0.2294 -0.1023
  755MOL0     C 1819   9.750   7.613   5.428  0.4024  0.2152 -0.4078
  755MOL0     O 1820   9.874   7.638   5.475 -0.6486  0.6929  0.6213
  755MOL0     C 1821   9.955   7.728   5.406 -0.1792  0.0677  0.1573
  755MOL0     C 1822  10.084   7.690   5.371  0.4210 -0.5235 -0.9120
  755MOL0     C 1823  10.169   7.774   5.315  0.3398  0.4713  1.0017
  755MOL0     C 1824  10.140   7.907   5.275 -1.7994 -0.0530 -0.3722
  755MOL0     O 1825  10.230   7.986   5.201  0.0494  0.3326 -0.5631
  755MOL0     C 1826  10.356   8.000   5.266 -0.9891 -0.1095 -0.1069
  755MOL0     C 1827  10.460   8.050   5.167  0.0238 -0.1339 -0.1642
  755MOL0     C 1828  10.486   7.939   5.072 -0.4631 -0.4650  0.4219
  755MOL0     C 1829  10.580   7.978   4.951 -0.5164 -0.6791  0.0177
  755MOL0     C 1830  10.603   7.875   4.836  0.5337 -0.8354 -0.1096
  755MOL0     C 1831  10.686   7.761   4.882  0.3001  0.2714 -0.2479
  755MOL0     C 1832  10.670   7.651   4.780 -0.2193 -0.0122 -0.0623
  755MOL0     C 1833  10.717   7.522   4.844  0.7443  0.7849  0.3041
  755MOL0    Cl 1834  10.698   7.363   4.752 -0.2752 -0.3623 -0.1440
  755MOL0     C 1835  10.013   7.945   5.298 -0.3074  0.0608 -0.4823
  755MOL0     C 1836   9.919   7.864   5.363 -0.7057  0.3524 -0.6649
  755MOL0     O 1837   9.691   7.678   5.339 -0.0004  0.0393 -0.5326
  755MOL0     C 1838   9.546   7.599   5.578 -0.5976 -0.3240  0.7510
  755MOL0     C 1839   9.454   7.527   5.655  0.3947 -0.2534  0.6846
  755MOL0     N 1840   8.795   7.217   6.173  0.4093  0.5598  0.0580
  755MOL0     N 1841   8.671   7.252   6.168  0.3727 -0.5522 -0.0079
  755MOL0     C 1842   7.516   7.479   6.316  0.3728  0.1747 -0.0540
  755MOL0     C 1843   7.387   7.418   6.306  1.3554  0.2695  0.4558
  755MOL0     C 1844   7.157   7.057   6.186  0.2360  0.2834 -0.1370
  755MOL0     C 1845   7.050   7.089   6.098  0.4598 -0.5167 -0.6572
  755MOL0     C 1846   6.960   6.990   6.054  0.1096  0.5627 -0.3952
  755MOL0     C 1847   6.970   6.859   6.091  0.6342 -0.3088 -0.4802
  755MOL0     O 1848   6.895   6.763   6.031  0.2178 -0.0817  0.3599
  755MOL0     C 1849   6.777   6.809   5.960  0.0484  0.3942  0.3429
  755MOL0     C 1850   6.705   6.684   5.899  0.2879 -0.2262 -0.6027
  755MOL0     C 1851   6.650   6.576   6.000 -0.9824 -0.2583  0.0836
  755MOL0     C 1852   6.758   6.479   6.032 -0.0971  0.5187  0.8506
  755MOL0     C 1853   6.694   6.354   6.088 -0.3106 -0.3438 -0.2943
  755MOL0     C 1854   6.622   6.267   6.136  0.9512 -1.3421 -0.6123
  755MOL0     C 1855   7.061   6.832   6.188  1.2132  0.6040  0.3806
  755MOL0     C 1856   7.158   6.922   6.237  0.0712 -0.7332 -0.3623
  755MOL0     C 1857   7.236   6.877   6.349 -0.6842 -0.0328 -0.5786
  755MOL0     H 1858   7.400   7.337   5.973  1.4860  0.0271 -1.2954
  755MOL0     H 1859   7.598   7.459   5.985  0.1905  0.1062  0.1199
  755MOL0     H 1860   7.829   7.576   6.040 -1.2588 -1.3448 -0.7974
  755MOL0     H 1861   7.698   7.684   6.054 -0.9497 -0.8882 -0.6571
  755MOL0     H 1862   7.839   7.794   6.254  0.4765 -1.3252  2.7715
  755MOL0     H 1863   7.920   7.782   6.100 -2.9607  0.7887 -1.1106
  755MOL0     H 1864   7.947   7.533   6.281 -0.5722 -0.9227 -0.4558
  755MOL0     H 1865   8.018   7.680   6.358  0.5355  0.4089  0.0373
  755MOL0     H 1866   8.090   7.600   6.077  0.4026 -0.8377 -0.1450
  755MOL0     H 1867   8.189   7.714   6.186  1.5733 -1.9093  0.9684
  755MOL0     H 1868   8.269   7.528   6.308  1.8326 -0.0570 -0.4111
  755MOL0     H 1869   8.151   7.422   6.213  0.0852 -0.0279 -2.3212
  755MOL0     H 1870   8.269   7.408   6.044  0.0917 -0.3780  0.0482
  755MOL0     H 1871   8.313   7.582   6.040 -2.4975  2.0780  2.5019
  755MOL0     H 1872   8.466   7.396   6.231  0.3035  1.9402  0.9910
  755MOL0     H 1873   8.504   7.543   6.146 -0.3703 -0.1138  2.3889
  755MOL0     H 1874   8.447   7.279   6.003 -0.0692 -1.6509  1.0618
  755MOL0     H 1875   8.526   7.430   5.932  2.1008 -0.7071  0.8615
  755MOL0     H 1876   8.779   7.396   5.900 -1.8055  0.0792  0.1563
  755MOL0     H 1877   9.077   7.286   6.123  2.7871 -3.2859 -0.8787
  755MOL0     H 1878   9.046   7.151   6.021 -0.4253 -0.5041  2.4754
  755MOL0     H 1879   8.996   7.307   5.836  2.0053 -1.0317  0.2513
  755MOL0     H 1880   9.079   7.431   5.940  0.7185  0.0827  0.9585
  755MOL0     H 1881   9.189   7.159   5.814 -0.9228  1.3140 -3.4246
  755MOL0     H 1882   9.256   7.238   5.957 -1.8798  2.5381  0.4157
  755MOL0     H 1883   9.246   7.454   5.793  0.7059 -1.4212  1.7675
  755MOL0     H 1884   9.234   7.342   5.664 -0.6684  1.3574 -0.5643
  755MOL0     H 1885   9.641   7.249   5.711 -1.7860 -0.9256 -2.6426
  755MOL0     H 1886   9.786   7.357   5.548  0.3733  1.1034  0.0565
  755MOL0     H 1887  10.099   7.586   5.398  0.3737 -0.7146 -1.5955
  755MOL0     H 1888  10.266   7.731   5.293  0.4235  0.2783  1.7163
  755MOL0     H 1889  10.342   8.070   5.349 -2.6728 -3.1764  2.4376
  755MOL0     H 1890  10.390   7.912   5.321  1.6238  1.8126  1.5699
  755MOL0     H 1891  10.429   8.144   5.121 -1.5054 -1.4623 -1.9753
  755MOL0     H 1892  10.555   8.055   5.222 -0.1048  0.6869 -0.0089
  755MOL0     H 1893  10.526   7.849   5.120  2.2959 -0.3376 -1.3776
  755MOL0     H 1894  10.388   7.918   5.028  0.3071 -0.0330 -1.6264
  755MOL0     H 1895  10.676   8.010   4.994  0.7597 -0.6343 -2.7044
  755MOL0     H 1896  10.554   8.072   4.900  2.8690 -1.0323 -2.6759
  755MOL0     H 1897  10.650   7.927   4.752 -0.4735  0.7308  0.2520
  755MOL0     H 1898  10.503   7.844   4.803  0.4512  0.4435 -1.1549
  755MOL0     H 1899  10.790   7.796   4.885 -0.3551  2.2661  1.2789
  755MOL0     H 1900  10.661   7.731   4.984 -1.0206 -0.9586 -0.8974
  755MOL0     H 1901  10.731   7.671   4.692 -0.5200 -0.0532 -0.2840
  755MOL0     H 1902  10.569   7.646   4.738  0.7491  0.4447 -2.6350
  755MOL0     H 1903  10.826   7.532   4.853  1.2870 -1.0961 -2.6197
  755MOL0     H 1904  10.674   7.516   4.944  1.9861  1.0419  0.8730
  755MOL0     H 1905   9.984   8.045   5.267 -0.8322  0.0523 -0.0161
  755MOL0     H 1906   9.819   7.899   5.388  0.6361  1.7060  3.7565
  755MOL0     H 1907   9.516   7.697   5.543 -0.6893 -0.4639  0.4442
  755MOL0     H 1908   9.359   7.576   5.677  0.3774 -0.7557  1.8229
  755MOL0     H 1909   7.549   7.514   6.413 -2.4174 -1.2210  1.5575
  755MOL0     H 1910   7.326   7.392   6.392  1.9820  0.3315  0.9204
  755MOL0     H 1911   7.043   7.188   6.055 -0.4393 -0.4708 -0.4401
  755MOL0     H 1912   6.895   7.032   5.977 -1.9061 -1.0921  0.3295
  755MOL0     H 1913   6.789   6.886   5.884  1.2065 -0.0209  0.0845
  755MOL0     H 1914   6.704   6.839   6.036 -3.1949  1.4786 -2.9117
  755MOL0     H 1915   6.772   6.634   5.828 -0.8428 -1.5538 -0.7632
  755MOL0     H 1916   6.624   6.707   5.829 -1.5219  1.5830  1.9340
  755MOL0     H 1917   6.576   6.514   5.948 -0.2539 -0.9967 -0.0924
  755MOL0     H 1918   6.613   6.631   6.087 -1.9298  2.3233 -1.8290
  755MOL0     H 1919   6.821   6.451   5.947  1.3973  0.5084  1.9168
  755MOL0     H 1920   6.824   6.522   6.108  1.9848 -0.5548 -0.2633
  755MOL0     H 1921   6.557   6.197   6.183  1.9090  0.0134  3.0491
  755MOL0     H 1922   7.069   6.728   6.218  1.7857  1.6830  4.6393
  755MOL0     H 1923   7.323   6.830   6.303 -1.2884 -0.3621 -1.4261
  755MOL0     H 1924   7.251   6.955   6.424 -2.9261 -1.6333  1.7017
  755MOL0     H 1925   7.180   6.804   6.408 -2.7767  3.3956  2.0565
  756MOL0     O 1926  10.094   8.185   9.358 -0.1096 -0.1906  0.3708
  756MOL0     C 1927  10.113   8.137   9.468  1.0109  0.8384 -0.0848
  756MOL0     O 1928  10.237   8.135   9.526  0.0200  0.3528 -1.1695
  756MOL0     C 1929  10.345   8.149   9.449 -0.0898 -0.6588 -0.1695
  756MOL0     C 1930  10.399   8.284   9.436  0.2169 -0.4203 -0.4590
  756MOL0     C 1931  10.524   8.302   9.370 -0.1556 -0.5635  0.0323
  756MOL0     C 1932  10.596   8.192   9.331  0.2586 -0.0920 -0.0345
  756MOL0     O 1933  10.710   8.217   9.251  0.0125 -0.4358 -1.4234
  756MOL0     C 1934  10.748   8.125   9.147 -0.3692 -0.1809 -1.2338
  756MOL0     C 1935  10.710   8.182   9.013 -0.3344  0.5390  0.0549
  756MOL0     C 1936  10.759   8.324   8.982  0.5357  1.5042  0.2676
  756MOL0     C 1937  10.909   8.349   9.011 -0.4887  0.0297  0.7121
  756MOL0     C 1938  10.947   8.499   8.979  0.4324  0.4330 -0.1649
  756MOL0     C 1939  10.946   8.543   8.832  0.7729 -0.4166  0.7825
  756MOL0     C 1940  11.006   8.441   8.726  0.7001 -0.6686 -0.2779
  756MOL0     C 1941  11.153   8.409   8.740 -0.1258 -0.0806  0.4438
  756MOL0     N 1942  11.183   8.318   8.628 -0.1592  0.2049 -0.5278
  756MOL0     C 1943  11.233   8.358   8.510  1.1385 -0.4532  0.2884
  756MOL0     C 1944  11.235   8.240   8.432 -0.4106  0.1675 -0.0354
  756MOL0     C 1945  11.282   8.224   8.291  0.0222 -0.1526 -0.0398
  756MOL0     C 1946  11.426   8.178   8.287 -0.2085  0.1901  0.1372
  756MOL0     C 1947  11.436   8.029   8.271 -0.7857  0.8541  0.0240
  756MOL0     C 1948  11.581   7.979   8.277 -0.4879  0.4536  0.1411
  756MOL0     O 1949  11.602   7.939   8.135 -0.0257  0.5602  0.0776
  756MOL0     C 1950  11.735   7.926   8.095  0.4930  0.1164 -0.6556
  756MOL0     C 1951  11.755   7.957   7.960  0.3689 -0.0953 -0.7468
  756MOL0     C 1952  11.881   7.978   7.909 -0.3106  0.6333 -0.1064
  756MOL0     C 1953  12.001   7.955   7.990  0.0953  0.5917  0.2196
  756MOL0     C 1954  12.138   7.990   7.944  0.2326 -0.5599  0.0875
  756MOL0     O 1955  12.248   7.984   8.029 -0.7118  0.1256  0.2997
  756MOL0     C 1956  12.370   7.980   7.967 -0.3475  0.1637 -0.3935
  756MOL0     C 1957  12.464   7.878   8.000  0.2627  0.9542 -0.3524
  756MOL0     C 1958  12.575   7.847   7.928  0.6387  1.0470  0.3243
  756MOL0     C 1959  12.618   7.924   7.816 -0.7327  0.3934  0.0184
  756MOL0     O 1960  12.735   7.911   7.744  0.4303 -0.3701  0.5264
  756MOL0     C 1961  12.826   7.802   7.772 -1.0132 -0.0638 -0.0665
  756MOL0     C 1962  12.775   7.664   7.724 -0.1683  0.6572  0.1259
  756MOL0     C 1963  12.766   7.652   7.565  0.0198  0.4200  0.9400
  756MOL0     C 1964  12.728   7.513   7.507  0.2695  0.6570 -0.7093
  756MOL0     C 1965  12.843   7.417   7.505  0.2658  0.8878  0.4743
  756MOL0     C 1966  12.828   7.290   7.423  0.2958  0.2355  0.0176
  756MOL0     C 1967  12.876   7.294   7.274  0.4291 -0.4553 -0.9853
  756MOL0     C 1968  12.866   7.156   7.206 -0.0448 -0.8166  0.2729
  756MOL0    Cl 1969  12.975   7.037   7.284  0.3914  0.0538 -0.5096
  756MOL0     C 1970  12.540   8.040   7.797 -0.4109 -0.5801  0.2900
  756MOL0     C 1971  12.426   8.069   7.880  0.1232 -1.2014 -0.3042
  756MOL0     O 1972  12.140   8.019   7.822 -0.1552 -0.1383 -0.1592
  756MOL0     C 1973  11.972   7.907   8.121 -0.0774 -0.6475 -0.0833
  756MOL0     C 1974  11.840   7.896   8.183 -0.0271  0.0158  0.7996
  756MOL0     N 1975  11.196   8.131   8.510  0.1419 -0.6345 -0.5771
  756MOL0     N 1976  11.179   8.182   8.621 -0.5711 -0.4074 -1.1469
  756MOL0     C 1977  10.555   8.061   9.373 -0.3281  0.2712  0.1512
  756MOL0     C 1978  10.431   8.041   9.429  0.1807  0.2092 -0.8395
  756MOL0     C 1979   9.995   8.115   9.559 -0.5835 -0.0193 -1.1076
  756MOL0     C 1980   9.868   8.127   9.505 -0.7663  0.3441  0.9621
  756MOL0     C 1981   9.755   8.081   9.576 -0.1148 -0.3162  0.4797
  756MOL0     C 1982   9.772   8.019   9.703  0.1253 -0.4053  0.3567
  756MOL0     O 1983   9.657   7.975   9.767  0.1938  0.0550 -0.2351
  756MOL0     C 1984   9.673   7.836   9.810 -0.6737 -0.6558  0.2719
  756MOL0     C 1985   9.565   7.736   9.747 -0.8546  0.1025  0.1464
  756MOL0     C 1986   9.430   7.801   9.757  0.2986  0.1684 -0.4043
  756MOL0     C 1987   9.374   7.814   9.902 -0.3569  0.5346 -0.0357
  756MOL0     C 1988   9.332   7.677   9.952  0.7375  0.5273 -0.1808
  756MOL0     C 1989   9.306   7.557   9.982 -0.8320 -0.1466 -0.8544
  756MOL0     C 1990   9.896   8.031   9.763  0.0503  0.5252 -0.6692
  756MOL0     C 1991  10.009   8.067   9.693  0.3158  0.1382 -0.5305
  756MOL0     C 1992  10.134   8.057   9.781  0.0965  0.3891  0.2393
  756MOL0     H 1993  10.337   8.369   9.462  0.9681 -0.0788  0.2454
  756MOL0     H 1994  10.561   8.401   9.344  1.1923 -0.7737  1.0433
  756MOL0     H 1995  10.855   8.105   9.141 -0.6082 -1.6763 -0.7438
  756MOL0     H 1996  10.697   8.029   9.153 -0.5315 -0.0567 -0.6162
  756MOL0     H 1997  10.600   8.184   9.016 -0.3026  1.5013  1.6273
  756MOL0     H 1998  10.734   8.125   8.923 -2.3356 -0.3673  0.0276
  756MOL0     H 1999  10.705   8.393   9.048 -3.9882  1.2038 -2.6585
  756MOL0     H 2000  10.728   8.342   8.879  0.5026  1.4154  0.2623
  756MOL0     H 2001  10.934   8.325   9.114  0.3100  1.6116  0.9209
  756MOL0     H 2002  10.970   8.284   8.948  0.0635  0.2199  1.0507
  756MOL0     H 2003  10.892   8.575   9.035  0.9285  0.2036  0.6404
  756MOL0     H 2004  11.043   8.518   9.028  0.6499  0.6119 -0.6403
  756MOL0     H 2005  10.845   8.571   8.801  0.8874  0.3444  1.0743
  756MOL0     H 2006  11.008   8.633   8.832  1.4388 -0.8400  2.2660
  756MOL0     H 2007  10.984   8.472   8.624  2.0119  1.5414  0.0583
  756MOL0     H 2008  10.952   8.348   8.748  1.7454 -1.0768  0.6835
  756MOL0     H 2009  11.214   8.499   8.729  0.3053 -0.4546 -0.3396
  756MOL0     H 2010  11.180   8.367   8.838  3.8137 -0.6928 -0.7256
  756MOL0     H 2011  11.261   8.457   8.478 -0.0479 -0.5476 -1.1437
  756MOL0     H 2012  11.214   8.146   8.255 -1.2187  1.0590 -0.4237
  756MOL0     H 2013  11.264   8.313   8.229  3.0238 -0.0980 -1.0196
  756MOL0     H 2014  11.474   8.229   8.203  1.3079 -0.0912  0.7984
  756MOL0     H 2015  11.488   8.216   8.369 -0.2615  0.8904 -0.1415
  756MOL0     H 2016  11.383   7.986   8.186 -0.0778 -0.5430  0.2458
  756MOL0     H 2017  11.382   7.992   8.359  0.3704  1.2607  0.9474
  756MOL0     H 2018  11.606   7.905   8.354  2.4642  0.4994 -0.6819
  756MOL0     H 2019  11.647   8.058   8.314 -2.2448  1.9266  0.2468
  756MOL0     H 2020  11.669   7.973   7.896  0.1573  1.6165 -0.0951
  756MOL0     H 2021  11.890   8.017   7.808 -2.2926  2.7268  0.4238
  756MOL0     H 2022  12.420   7.805   8.067 -0.1585  0.3825 -1.2266
  756MOL0     H 2023  12.634   7.759   7.954 -0.4053 -0.7169 -2.7683
  756MOL0     H 2024  12.917   7.813   7.713 -0.4564 -0.3709  0.7206
  756MOL0     H 2025  12.860   7.806   7.876 -4.4544  0.5520  1.1719
  756MOL0     H 2026  12.853   7.599   7.764  0.3041  1.3124  0.2848
  756MOL0     H 2027  12.676   7.634   7.759 -0.4840  0.1011 -1.1901
  756MOL0     H 2028  12.687   7.723   7.539 -0.5146  0.5771  2.8877
  756MOL0     H 2029  12.864   7.674   7.522 -0.8029  0.8023 -0.8383
  756MOL0     H 2030  12.692   7.526   7.405 -2.2552  0.8395  0.1307
  756MOL0     H 2031  12.642   7.466   7.556  1.6401 -1.3728 -0.1329
  756MOL0     H 2032  12.847   7.388   7.610 -2.2851  2.0837  0.9776
  756MOL0     H 2033  12.936   7.467   7.474  1.7609 -2.7871 -1.5680
  756MOL0     H 2034  12.884   7.217   7.483 -0.8701 -1.1809 -0.5494
  756MOL0     H 2035  12.723   7.259   7.427  0.9497 -2.0774  1.3942
  756MOL0     H 2036  12.977   7.335   7.274  0.4860 -0.5912 -1.3643
  756MOL0     H 2037  12.804   7.359   7.223  2.7617  2.0955 -1.2444
  756MOL0     H 2038  12.760   7.129   7.215  0.0404 -0.6288  2.7930
  756MOL0     H 2039  12.895   7.163   7.101  0.1337  2.1072  0.4566
  756MOL0     H 2040  12.567   8.099   7.710  2.7820 -0.2697  1.3420
  756MOL0     H 2041  12.365   8.158   7.875 -1.8379 -2.5367 -1.3399
  756MOL0     H 2042  12.051   7.873   8.188 -0.9514 -1.6410  0.4830
  756MOL0     H 2043  11.814   7.858   8.281 -3.9220 -2.8738 -1.0723
  756MOL0     H 2044  10.625   7.986   9.338 -0.2218  0.0937  0.7305
  756MOL0     H 2045  10.400   7.945   9.470 -1.0241  0.1198 -1.8965
  756MOL0     H 2046   9.847   8.152   9.402 -0.2109  3.0750  1.4197
  756MOL0     H 2047   9.659   8.082   9.524  1.1979  3.0544 -2.2456
  756MOL0     H 2048   9.648   7.839   9.917 -3.0959 -0.9730 -0.2319
  756MOL0     H 2049   9.773   7.796   9.791 -0.8766 -0.8645 -0.3717
  756MOL0     H 2050   9.583   7.641   9.797  1.1534  0.0710 -0.5153
  756MOL0     H 2051   9.579   7.718   9.639 -0.8031 -0.5059  0.2504
  756MOL0     H 2052   9.363   7.733   9.704  0.6458 -1.1563  0.7963
  756MOL0     H 2053   9.436   7.894   9.700 -2.8051  0.5983 -0.1559
  756MOL0     H 2054   9.442   7.858   9.975  0.8097 -1.8811  0.4413
  756MOL0     H 2055   9.280   7.871   9.897 -1.5816 -1.1032  2.4521
  756MOL0     H 2056   9.299   7.454  10.011 -2.3580  0.8684  2.9843
  756MOL0     H 2057   9.912   7.998   9.865 -0.2744 -2.4406 -1.4699
  756MOL0     H 2058  10.192   8.147   9.760 -1.0154  1.1458  0.3344
  756MOL0     H 2059  10.115   8.050   9.889  1.4365  1.3610  0.5640
  756MOL0     H 2060  10.178   7.967   9.737  0.9736  1.1691 -0.5025
  757MOL0     O 2061   6.238   7.321   2.936  0.0908 -0.6922  0.6416
  757MOL0     C 2062   6.157   7.278   3.017 -0.8100  0.9705  0.3810
  757MOL0     O 2063   6.037   7.324   3.045 -0.0925 -0.6070  0.2994
  757MOL0     C 2064   5.983   7.437   2.988  0.3871 -1.8812  0.4726
  757MOL0     C 2065   6.003   7.553   3.063 -0.1877  0.0771  0.1004
  757MOL0     C 2066   5.955   7.681   3.020 -0.0707 -0.7865  0.9983
  757MOL0     C 2067   5.889   7.687   2.899  0.5422  0.0605  0.1718
  757MOL0     O 2068   5.841   7.814   2.865 -0.4809  0.0618 -0.0830
  757MOL0     C 2069   5.735   7.820   2.763  0.0585 -0.1018 -0.9464
  757MOL0     C 2070   5.675   7.956   2.782  0.4620  0.6128 -0.6750
  757MOL0     C 2071   5.610   7.983   2.912  0.2614  0.3962 -1.1302
  757MOL0     C 2072   5.535   8.120   2.908 -0.0150 -0.6161  0.5405
  757MOL0     C 2073   5.455   8.139   3.036 -0.6870 -0.3313 -0.3713
  757MOL0     C 2074   5.375   8.262   3.027 -0.4818 -0.6643  0.2282
  757MOL0     C 2075   5.464   8.388   3.019 -0.3608  0.3109 -0.8367
  757MOL0     C 2076   5.389   8.518   3.013  0.2100 -0.2461 -0.6374
  757MOL0     N 2077   5.475   8.635   3.022  0.4840 -0.0756  0.1327
  757MOL0     C 2078   5.559   8.663   3.129 -0.0180  0.0488 -0.4886
  757MOL0     C 2079   5.637   8.767   3.083  0.0870 -0.9378 -0.4926
  757MOL0     C 2080   5.744   8.849   3.151  1.1232 -0.1880  0.5638
  757MOL0     C 2081   5.875   8.834   3.069 -0.2990 -0.5963  0.5672
  757MOL0     C 2082   5.983   8.923   3.129  0.8227 -0.1628  0.9470
  757MOL0     C 2083   6.100   8.936   3.030 -0.7969  0.2206 -0.0769
  757MOL0     O 2084   6.168   8.817   2.997  0.3300  0.1769  0.8475
  757MOL0     C 2085   6.254   8.746   3.077  0.0956  0.6229  0.1660
  757MOL0     C 2086   6.328   8.806   3.181  0.2358 -0.1469 -0.1298
  757MOL0     C 2087   6.402   8.729   3.270  0.0042 -0.5488  0.0266
  757MOL0     C 2088   6.405   8.589   3.257 -0.0547 -0.6287 -0.6050
  757MOL0     C 2089   6.495   8.514   3.351  0.6268 -0.2237  0.9334
  757MOL0     O 2090   6.494   8.374   3.341 -0.1718  0.1070 -0.3344
  757MOL0     C 2091   6.597   8.307   3.408  0.1525 -0.0147  0.2556
  757MOL0     C 2092   6.726   8.356   3.423  0.2641 -0.2686  0.5260
  757MOL0     C 2093   6.825   8.267   3.476  0.4174  0.1625 -0.5069
  757MOL0     C 2094   6.792   8.133   3.514  0.0657 -0.1288  0.7295
  757MOL0     O 2095   6.889   8.044   3.546 -0.6269  0.8473 -0.3139
  757MOL0     C 2096   6.901   7.914   3.483 -0.3175 -0.5752 -0.3967
  757MOL0     C 2097   7.046   7.851   3.487  0.0138  0.2821 -0.5184
  757MOL0     C 2098   7.152   7.936   3.423  0.9884  0.0963  0.6553
  757MOL0     C 2099   7.287   7.864   3.432  0.0495 -0.1671 -0.4046
  757MOL0     C 2100   7.406   7.950   3.379  0.2482 -0.7634 -0.2150
  757MOL0     C 2101   7.540   7.939   3.450 -0.4945  0.3358  0.1591
  757MOL0     C 2102   7.651   8.014   3.368  0.7603 -0.4776 -0.8491
  757MOL0     C 2103   7.795   7.971   3.424  0.2866 -0.1892  0.7444
  757MOL0    Cl 2104   7.883   8.094   3.512  0.1895 -0.0427  0.3692
  757MOL0     C 2105   6.659   8.092   3.502  0.2394  0.6994  0.0173
  757MOL0     C 2106   6.567   8.179   3.454 -0.4450  0.6273 -0.1712
  757MOL0     O 2107   6.554   8.582   3.429  0.7962 -0.7927  0.5168
  757MOL0     C 2108   6.336   8.530   3.151  0.1179  0.4956  0.6403
  757MOL0     C 2109   6.262   8.604   3.061 -0.4546 -0.4363  0.4152
  757MOL0     N 2110   5.605   8.799   2.952 -0.0194  0.5400 -0.8877
  757MOL0     N 2111   5.511   8.713   2.921 -0.3294 -1.2985 -0.2727
  757MOL0     C 2112   5.877   7.571   2.813 -0.4310  0.9768 -0.4379
  757MOL0     C 2113   5.923   7.447   2.858 -0.0256 -0.2255 -1.1945
  757MOL0     C 2114   6.187   7.145   3.076 -0.4501  0.0767  0.2709
  757MOL0     C 2115   6.088   7.080   3.141  0.9456  1.1709  0.0871
  757MOL0     C 2116   6.112   6.947   3.181  0.0722 -0.1760  0.5400
  757MOL0     C 2117   6.238   6.888   3.158 -0.1102  0.0968  0.1948
  757MOL0     O 2118   6.259   6.759   3.196  0.3453 -0.3354  0.1323
  757MOL0     C 2119   6.167   6.682   3.269 -0.5424  0.4748  1.4981
  757MOL0     C 2120   6.173   6.716   3.417  0.6381 -0.0876  0.7000
  757MOL0     C 2121   6.088   6.611   3.489  0.4445  0.9012  0.0129
  757MOL0     C 2122   6.121   6.594   3.633 -1.0608 -0.5440 -0.8782
  757MOL0     C 2123   6.067   6.469   3.702 -0.5521 -0.7411 -0.6989
  757MOL0     C 2124   6.020   6.373   3.758 -0.2817  0.1239 -0.3414
  757MOL0     C 2125   6.346   6.959   3.091  0.7901 -0.4356  0.0703
  757MOL0     C 2126   6.320   7.086   3.062 -0.3624 -0.8401  0.5771
  757MOL0     C 2127   6.444   7.167   3.018 -0.1681  0.0806 -0.3777
  757MOL0     H 2128   6.046   7.541   3.162  2.4882 -0.2052 -1.0361
  757MOL0     H 2129   5.960   7.770   3.082  1.3303 -1.4333  1.8749
  757MOL0     H 2130   5.761   7.818   2.657 -3.2415 -0.5201 -1.8529
  757MOL0     H 2131   5.668   7.735   2.774 -4.3526  3.1389  0.3530
  757MOL0     H 2132   5.600   7.968   2.703  0.8138  1.5002 -0.8870
  757MOL0     H 2133   5.751   8.034   2.768  0.5816  0.4120 -1.1692
  757MOL0     H 2134   5.682   8.004   2.992  1.5046 -2.3440 -1.4491
  757MOL0     H 2135   5.547   7.902   2.949 -0.1001  1.8054  1.6744
  757MOL0     H 2136   5.613   8.197   2.910  0.1704 -0.7020 -1.4589
  757MOL0     H 2137   5.477   8.123   2.816 -3.2145 -3.7627  2.1861
  757MOL0     H 2138   5.391   8.057   3.069 -2.9959  2.7052  3.6601
  757MOL0     H 2139   5.527   8.156   3.117  0.1181 -0.1842 -1.1071
  757MOL0     H 2140   5.310   8.260   2.939  1.8356 -0.6870 -1.5603
  757MOL0     H 2141   5.320   8.269   3.121 -0.5814  1.7228  0.0552
  757MOL0     H 2142   5.518   8.389   2.924  2.3573  1.0812  0.6038
  757MOL0     H 2143   5.526   8.395   3.109 -1.2599 -0.8159 -0.0923
  757MOL0     H 2144   5.326   8.515   2.924 -0.4409 -0.4180 -0.1870
  757MOL0     H 2145   5.323   8.523   3.101  1.5518 -0.2996  0.4084
  757MOL0     H 2146   5.560   8.618   3.228 -2.9182 -0.7230 -0.7254
  757MOL0     H 2147   5.695   8.947   3.154 -1.4061 -1.3577  0.2265
  757MOL0     H 2148   5.755   8.814   3.254 -0.2673 -2.6138 -0.0113
  757MOL0     H 2149   5.903   8.729   3.074  2.0081 -0.0373  0.5422
  757MOL0     H 2150   5.860   8.865   2.965  2.9235 -0.3393  0.0534
  757MOL0     H 2151   6.019   8.861   3.212  1.0120 -1.4015 -0.0269
  757MOL0     H 2152   5.934   9.020   3.140  0.5958  0.0085 -1.0865
  757MOL0     H 2153   6.173   9.001   3.080 -1.3368 -0.4771  1.7118
  757MOL0     H 2154   6.063   8.996   2.947  1.8759  0.8505 -0.9189
  757MOL0     H 2155   6.308   8.912   3.195 -0.9265 -0.1971 -1.1777
  757MOL0     H 2156   6.438   8.781   3.358  0.8279 -2.5900  0.9495
  757MOL0     H 2157   6.760   8.454   3.392  1.6797 -1.0196 -0.4178
  757MOL0     H 2158   6.930   8.296   3.483  0.1110  1.7403 -1.8724
  757MOL0     H 2159   6.826   7.847   3.526 -0.3528 -0.8210 -0.8319
  757MOL0     H 2160   6.876   7.928   3.378 -1.0440  2.8243  0.1221
  757MOL0     H 2161   7.072   7.857   3.593 -1.6985  4.6183 -0.1670
  757MOL0     H 2162   7.046   7.747   3.452 -2.4155 -0.4139  1.3204
  757MOL0     H 2163   7.129   7.938   3.316  2.7920 -2.5243  0.1174
  757MOL0     H 2164   7.157   8.038   3.461  2.7958 -0.3449  1.7046
  757MOL0     H 2165   7.273   7.766   3.384 -3.2025  0.1684 -0.3725
  757MOL0     H 2166   7.300   7.857   3.541 -1.4410  3.5258  0.1379
  757MOL0     H 2167   7.377   8.056   3.378  2.4828 -0.0875  0.6121
  757MOL0     H 2168   7.419   7.926   3.273  0.4186  1.0471 -0.6330
  757MOL0     H 2169   7.536   7.972   3.554 -5.5348  0.0693  0.3175
  757MOL0     H 2170   7.566   7.833   3.445  0.9099  0.6432  0.4395
  757MOL0     H 2171   7.644   8.122   3.384 -1.0081 -0.7139  0.3218
  757MOL0     H 2172   7.647   7.984   3.263 -0.0713  0.5487 -1.1229
  757MOL0     H 2173   7.783   7.882   3.487  1.1375 -0.6864  0.2276
  757MOL0     H 2174   7.859   7.943   3.340  1.2463 -0.3310  1.5062
  757MOL0     H 2175   6.619   7.997   3.533  1.6799  0.2496  0.5970
  757MOL0     H 2176   6.464   8.145   3.442  0.1116 -0.2869 -3.2967
  757MOL0     H 2177   6.326   8.422   3.147 -1.6356  0.6159  0.8273
  757MOL0     H 2178   6.193   8.565   2.988  0.2471 -0.4726 -0.2434
  757MOL0     H 2179   5.834   7.577   2.714 -2.2693  1.7647  0.3736
  757MOL0     H 2180   5.924   7.356   2.798  0.3474  0.4795 -2.3006
  757MOL0     H 2181   5.991   7.127   3.152 -0.9084 -1.4473 -3.1376
  757MOL0     H 2182   6.030   6.904   3.237 -0.5183  0.3925  0.1247
  757MOL0     H 2183   6.216   6.584   3.271 -1.3619 -0.0520 -0.9271
  757MOL0     H 2184   6.072   6.677   3.216  0.3148 -0.1986 -0.0326
  757MOL0     H 2185   6.128   6.815   3.425 -2.2128 -1.3137  0.9448
  757MOL0     H 2186   6.275   6.720   3.457  1.0311  1.9884 -0.3972
  757MOL0     H 2187   6.083   6.510   3.447 -3.9335 -0.9994  4.1429
  757MOL0     H 2188   5.983   6.641   3.479  0.0443 -0.0077  1.2259
  757MOL0     H 2189   6.230   6.587   3.642 -1.2647 -1.8067  1.6281
  757MOL0     H 2190   6.079   6.682   3.683 -0.9005 -2.1947  2.4896
  757MOL0     H 2191   5.961   6.287   3.785  0.7599 -0.2546  0.7689
  757MOL0     H 2192   6.444   6.918   3.072 -0.0350 -1.7828 -1.4657
  757MOL0     H 2193   6.540   7.124   3.047 -0.0983 -0.9277 -1.9934
  757MOL0     H 2194   6.443   7.174   2.909 -2.9086  3.1420 -0.3291
  757MOL0     H 2195   6.446   7.271   3.052 -2.5121 -0.2201  0.8962
  758MOL0     O 2196   3.053   8.368   3.058 -0.4874  0.2509  0.1686
  758MOL0     C 2197   3.093   8.324   2.947  0.0376 -0.7466  0.2742
  758MOL0     O 2198   3.222   8.309   2.923  0.5585  0.3056 -0.2547
  758MOL0     C 2199   3.316   8.285   3.017 -0.3957  0.0075 -0.5116
  758MOL0     C 2200   3.294   8.235   3.149 -0.1565 -0.7735  0.5314
  758MOL0     C 2201   3.403   8.225   3.234 -0.1542  0.8651 -0.2101
  758MOL0     C 2202   3.533   8.265   3.196  1.1360 -0.2443  0.0446
  758MOL0     O 2203   3.635   8.255   3.284 -0.2947 -0.4560  0.2053
  758MOL0     C 2204   3.768   8.287   3.249 -0.1194 -0.1708  0.4461
  758MOL0     C 2205   3.859   8.254   3.361 -0.1836  0.4114 -0.3479
  758MOL0     C 2206   4.003   8.270   3.322  0.0275 -0.6664  0.6182
  758MOL0     C 2207   4.100   8.221   3.418  0.6495 -0.0582 -0.2856
  758MOL0     C 2208   4.246   8.265   3.400 -0.0714 -0.3839  0.6449
  758MOL0     C 2209   4.345   8.165   3.463  0.1969  0.2326 -0.5841
  758MOL0     C 2210   4.463   8.235   3.543  0.2879 -0.6811  0.3955
  758MOL0     C 2211   4.553   8.306   3.440 -1.3858 -0.7310 -0.7875
  758MOL0     N 2212   4.648   8.394   3.502  0.1789  0.0880 -0.2895
  758MOL0     C 2213   4.677   8.426   3.638 -0.1886  0.4080  0.0040
  758MOL0     C 2214   4.781   8.523   3.629  0.0501  0.2872  1.0750
  758MOL0     C 2215   4.855   8.579   3.748 -1.0866 -0.6140  0.4102
  758MOL0     C 2216   4.986   8.503   3.761  0.7489 -0.1056 -0.3035
  758MOL0     C 2217   5.048   8.541   3.895 -0.7104  0.5995 -0.0843
  758MOL0     C 2218   5.203   8.516   3.889  0.0203 -0.2863 -0.2049
  758MOL0     O 2219   5.231   8.387   3.832  0.1368  0.2575 -0.1585
  758MOL0     C 2220   5.362   8.336   3.839 -0.1164 -0.2454 -0.5195
  758MOL0     C 2221   5.374   8.207   3.774 -1.2532 -0.7746 -0.4603
  758MOL0     C 2222   5.503   8.142   3.783 -1.1108 -0.3197 -0.2025
  758MOL0     C 2223   5.618   8.211   3.840 -0.4013  0.7725 -0.6566
  758MOL0     C 2224   5.749   8.141   3.835  0.8696 -0.0310  0.5484
  758MOL0     O 2225   5.864   8.213   3.851  0.1516  0.0542  0.2777
  758MOL0     C 2226   5.974   8.147   3.894 -0.6920 -0.4553  0.6181
  758MOL0     C 2227   6.086   8.165   3.806 -0.4204 -0.3257 -0.2124
  758MOL0     C 2228   6.216   8.127   3.837 -0.7404 -0.3499 -0.1634
  758MOL0     C 2229   6.251   8.076   3.957 -0.5864 -0.0951 -0.3663
  758MOL0     O 2230   6.376   8.067   4.006 -0.3317 -0.3647 -0.1201
  758MOL0     C 2231   6.482   8.112   3.922  0.3827 -0.4371 -0.7895
  758MOL0     C 2232   6.544   8.009   3.827 -0.1921 -0.0179  0.4400
  758MOL0     C 2233   6.635   7.908   3.898  0.0178  0.0517 -0.7906
  758MOL0     C 2234   6.709   7.819   3.794  1.3067 -1.0425  0.1388
  758MOL0     C 2235   6.781   7.711   3.864  0.0910  1.0304  0.3919
  758MOL0     C 2236   6.873   7.641   3.762  0.2512  0.4388  0.1231
  758MOL0     C 2237   6.971   7.547   3.839 -0.4835 -0.4250  0.3181
  758MOL0     C 2238   7.049   7.464   3.736  1.7567 -0.6347 -0.1660
  758MOL0    Cl 2239   7.157   7.556   3.643 -0.1214 -0.2960 -0.0338
  758MOL0     C 2240   6.139   8.046   4.040 -0.1157  0.2315 -0.9414
  758MOL0     C 2241   6.002   8.076   4.011  0.4048 -0.6938  0.4985
  758MOL0     O 2242   5.746   8.013   3.815 -0.1559 -0.0523 -0.5088
  758MOL0     C 2243   5.600   8.336   3.898  0.6058 -0.0613  0.0290
  758MOL0     C 2244   5.475   8.395   3.896 -0.5333 -0.2031 -0.0442
  758MOL0     N 2245   4.810   8.547   3.494  0.0520 -0.2487 -0.0007
  758MOL0     N 2246   4.732   8.471   3.421  0.3341  0.4015 -0.1825
  758MOL0     C 2247   3.558   8.305   3.073  0.6176  0.0285  0.3580
  758MOL0     C 2248   3.450   8.319   2.975  0.0268 -0.1630  0.6309
  758MOL0     C 2249   3.004   8.293   2.835 -0.9615  0.8673 -0.7707
  758MOL0     C 2250   2.871   8.294   2.872  0.2680 -0.1730 -0.1326
  758MOL0     C 2251   2.783   8.276   2.766  0.1201 -0.6692  0.5977
  758MOL0     C 2252   2.815   8.251   2.633 -1.3692  0.0312  0.2986
  758MOL0     O 2253   2.736   8.238   2.526 -0.7649  0.5071  0.0151
  758MOL0     C 2254   2.592   8.233   2.539  0.3569 -0.2454  0.4090
  758MOL0     C 2255   2.556   8.093   2.579  0.9026  0.7853  0.5679
  758MOL0     C 2256   2.567   7.987   2.468  0.2714 -0.0783 -0.2559
  758MOL0     C 2257   2.520   7.850   2.525 -0.3947 -0.3808  0.6563
  758MOL0     C 2258   2.648   7.779   2.561 -1.0894  0.2658 -0.0871
  758MOL0     C 2259   2.761   7.723   2.588  0.5207  1.1536 -0.8091
  758MOL0     C 2260   2.947   8.241   2.600  0.0594 -0.9147  0.5940
  758MOL0     C 2261   3.044   8.256   2.700 -1.1605  0.2758 -0.6069
  758MOL0     C 2262   3.187   8.234   2.654  0.4555 -0.5289 -0.3090
  758MOL0     H 2263   3.196   8.206   3.186 -1.4734 -0.1916 -2.2545
  758MOL0     H 2264   3.403   8.175   3.330 -0.7817  1.8685  0.3283
  758MOL0     H 2265   3.795   8.224   3.164 -1.0818  3.9886 -3.2616
  758MOL0     H 2266   3.775   8.390   3.213  1.5962 -0.6126 -0.6235
  758MOL0     H 2267   3.852   8.148   3.389 -1.7844  1.1769  2.5560
  758MOL0     H 2268   3.832   8.308   3.452  0.8682 -1.4956  1.1675
  758MOL0     H 2269   4.031   8.374   3.306  1.3664 -1.3042 -1.7785
  758MOL0     H 2270   4.013   8.222   3.224  1.3697 -0.3173  0.5698
  758MOL0     H 2271   4.065   8.234   3.521  3.1892 -0.8133  0.7558
  758MOL0     H 2272   4.112   8.115   3.396  1.1176 -0.1212  0.2369
  758MOL0     H 2273   4.268   8.275   3.293  1.1461  0.2724  0.9344
  758MOL0     H 2274   4.267   8.366   3.436 -1.5228  0.0248  0.3935
  758MOL0     H 2275   4.294   8.100   3.536  2.0233 -0.6351 -0.0065
  758MOL0     H 2276   4.395   8.109   3.383  2.0106  1.0241 -0.0520
  758MOL0     H 2277   4.524   8.157   3.589  2.2408 -1.7457 -3.5486
  758MOL0     H 2278   4.422   8.297   3.623  0.6103  4.2051 -2.8065
  758MOL0     H 2279   4.605   8.240   3.371  1.4034  0.7325 -0.2148
  758MOL0     H 2280   4.490   8.371   3.379 -0.6252  0.1287 -0.6827
  758MOL0     H 2281   4.634   8.380   3.727 -1.3526  1.7621  0.1893
  758MOL0     H 2282   4.867   8.686   3.733  2.0867 -0.9720 -0.2814
  758MOL0     H 2283   4.797   8.561   3.839 -0.8931 -1.4805  0.3806
  758MOL0     H 2284   4.971   8.395   3.745  1.2564  0.1651 -2.9851
  758MOL0     H 2285   5.049   8.544   3.682  1.2422 -0.3293 -0.0377
  758MOL0     H 2286   5.004   8.468   3.963 -0.9717  1.4290  0.6545
  758MOL0     H 2287   5.027   8.644   3.924 -0.4130  0.7817 -0.4973
  758MOL0     H 2288   5.245   8.533   3.989  0.1606  1.7453 -0.5723
  758MOL0     H 2289   5.253   8.588   3.824  3.1880 -2.6600 -0.6231
  758MOL0     H 2290   5.292   8.154   3.726 -0.4801 -0.9568 -1.6030
  758MOL0     H 2291   5.521   8.041   3.747  1.1301 -0.5039  1.2686
  758MOL0     H 2292   6.084   8.226   3.716 -0.1214 -1.3081 -0.8987
  758MOL0     H 2293   6.290   8.165   3.767  0.2540 -1.4822  0.2474
  758MOL0     H 2294   6.453   8.205   3.871  3.0749  0.8536 -0.1748
  758MOL0     H 2295   6.569   8.123   3.987  0.9952 -1.7434 -1.3550
  758MOL0     H 2296   6.461   7.960   3.775  0.7396 -0.1753 -0.9600
  758MOL0     H 2297   6.605   8.058   3.751  0.2878 -0.8000  0.3144
  758MOL0     H 2298   6.704   7.953   3.970  1.0200 -2.5010 -0.0470
  758MOL0     H 2299   6.563   7.837   3.941 -0.4496  0.8378 -0.2565
  758MOL0     H 2300   6.776   7.884   3.737  0.9569 -3.5305 -3.4255
  758MOL0     H 2301   6.645   7.775   3.717  0.2856  1.5881 -0.6102
  758MOL0     H 2302   6.706   7.637   3.890  0.6389 -1.5978 -4.2993
  758MOL0     H 2303   6.841   7.758   3.943  1.8426  2.5906 -1.7279
  758MOL0     H 2304   6.812   7.583   3.693  0.4378 -0.8407  0.9961
  758MOL0     H 2305   6.928   7.724   3.717 -0.6357  1.9065  1.6319
  758MOL0     H 2306   6.904   7.478   3.891 -2.7333  3.0951  2.4795
  758MOL0     H 2307   7.042   7.596   3.906 -2.2111  2.9797 -0.1580
  758MOL0     H 2308   7.099   7.384   3.792  0.0896 -1.2269  0.5386
  758MOL0     H 2309   6.987   7.404   3.669  2.4186 -2.1186  0.5112
  758MOL0     H 2310   6.168   7.999   4.133 -0.0160  1.8274 -0.1410
  758MOL0     H 2311   5.929   8.051   4.087  0.1745 -0.5621  0.3221
  758MOL0     H 2312   5.693   8.379   3.935  1.7770 -0.4948 -2.2599
  758MOL0     H 2313   5.466   8.485   3.956 -1.9792 -0.2883 -0.1078
  758MOL0     H 2314   3.659   8.307   3.034  0.8626 -0.0622  0.9670
  758MOL0     H 2315   3.479   8.360   2.879  1.5302  1.1217  1.5881
  758MOL0     H 2316   2.829   8.317   2.969 -0.1670 -1.1806 -0.0762
  758MOL0     H 2317   2.678   8.290   2.790 -0.0678 -1.6674  0.3928
  758MOL0     H 2318   2.548   8.268   2.445 -0.0925  0.2006  0.7788
  758MOL0     H 2319   2.573   8.295   2.627  0.4974 -1.4661  1.3312
  758MOL0     H 2320   2.454   8.091   2.616  0.5968 -1.5021 -0.2496
  758MOL0     H 2321   2.618   8.051   2.659  0.6911 -2.1293 -0.6777
  758MOL0     H 2322   2.666   7.988   2.422 -0.0934  1.6976 -1.0859
  758MOL0     H 2323   2.497   8.007   2.386  1.9365  0.3215 -1.6315
  758MOL0     H 2324   2.449   7.858   2.608  1.4358  0.5207  2.2234
  758MOL0     H 2325   2.466   7.797   2.447 -0.2400  2.9713 -1.9646
  758MOL0     H 2326   2.839   7.665   2.633  0.3911  0.5782 -1.3079
  758MOL0     H 2327   2.963   8.216   2.495  0.5723  0.9048  0.2055
  758MOL0     H 2328   3.187   8.228   2.544 -0.5067  2.4835 -0.5567
  758MOL0     H 2329   3.256   8.314   2.682  0.2808 -0.6664  0.5341
  758MOL0     H 2330   3.220   8.140   2.700  0.4656 -0.6772 -0.6124
  759MOL0     O 2331   4.133   8.399  10.724 -0.3037 -0.4412  0.4819
  759MOL0     C 2332   4.233   8.411  10.654 -1.4178 -0.0509 -0.4036
  759MOL0     O 2333   4.251   8.504  10.550  0.6367 -0.1940  0.2452
  759MOL0     C 2334   4.138   8.574  10.515  0.4098 -0.2009 -0.1303
  759MOL0     C 2335   4.055   8.530  10.402 -0.2954 -1.0683  0.8001
  759MOL0     C 2336   3.945   8.608  10.354 -0.3218 -0.2799 -0.7986
  759MOL0     C 2337   3.922   8.728  10.416  0.3419 -0.4314  0.5922
  759MOL0     O 2338   3.815   8.801  10.377  0.5877 -0.2666  0.2892
  759MOL0     C 2339   3.690   8.764  10.439  1.0159  0.3038  0.2658
  759MOL0     C 2340   3.655   8.861  10.554 -0.2952 -0.5813  0.1273
  759MOL0     C 2341   3.533   8.798  10.617 -0.8540 -0.0295 -0.2697
  759MOL0     C 2342   3.474   8.879  10.733  0.4511  0.1580  0.4493
  759MOL0     C 2343   3.324   8.885  10.721  0.4062 -0.7665 -0.6706
  759MOL0     C 2344   3.246   8.759  10.749 -0.2106 -0.5119 -0.2949
  759MOL0     C 2345   3.098   8.765  10.720  0.1614  0.3075  0.0962
  759MOL0     C 2346   3.019   8.660  10.808 -0.1647 -0.6010  0.3091
  759MOL0     N 2347   2.873   8.659  10.796 -0.3471 -0.0604  0.8260
  759MOL0     C 2348   2.792   8.559  10.742 -0.0480 -1.0205 -0.2783
  759MOL0     C 2349   2.671   8.624  10.747  0.4467  0.7595  0.2931
  759MOL0     C 2350   2.535   8.561  10.724  0.7409 -0.5611 -0.8393
  759MOL0     C 2351   2.537   8.411  10.762  0.9066  0.1889 -0.2963
  759MOL0     C 2352   2.389   8.360  10.744 -0.5087 -0.1309 -0.5485
  759MOL0     C 2353   2.377   8.216  10.799  0.3031  0.2081  0.2629
  759MOL0     O 2354   2.241   8.180  10.796 -0.1823  0.2766 -0.1768
  759MOL0     C 2355   2.195   8.061  10.840 -0.0364  0.4743 -0.7009
  759MOL0     C 2356   2.269   7.949  10.877 -0.0315 -0.1160 -0.9927
  759MOL0     C 2357   2.209   7.825  10.909  0.1763 -0.1971 -1.2100
  759MOL0     C 2358   2.071   7.818  10.909 -0.5697  0.3727 -0.4291
  759MOL0     C 2359   2.005   7.693  10.944 -0.6839  0.2905  0.2086
  759MOL0     O 2360   1.873   7.690  10.919 -0.8335 -0.1294 -0.0874
  759MOL0     C 2361   1.806   7.571  10.949 -0.8854 -0.8305  0.3144
  759MOL0     C 2362   1.700   7.555  10.856  0.5093  0.3588 -0.6891
  759MOL0     C 2363   1.642   7.430  10.857  1.4007  1.3623  0.1693
  759MOL0     C 2364   1.665   7.330  10.960  0.2326 -0.6744  0.2449
  759MOL0     O 2365   1.593   7.214  10.968 -0.8563  0.0704 -0.0665
  759MOL0     C 2366   1.520   7.167  10.850 -0.7870 -0.3774 -0.2623
  759MOL0     C 2367   1.378   7.233  10.858 -0.1638  0.4703 -0.8554
  759MOL0     C 2368   1.280   7.147  10.767 -0.9125 -0.7174 -0.6491
  759MOL0     C 2369   1.158   7.233  10.753  0.1002  0.0903 -0.1864
  759MOL0     C 2370   1.076   7.168  10.640  0.5525  0.0924  0.0192
  759MOL0     C 2371   0.928   7.177  10.689  0.0000  0.0433 -0.1991
  759MOL0     C 2372   0.835   7.104  10.593  0.6697 -0.3384  0.8316
  759MOL0     C 2373   0.686   7.095  10.652 -0.1660 -0.5652 -0.2995
  759MOL0    Cl 2374   0.649   7.242  10.732 -0.1681  0.7687 -0.1954
  759MOL0     C 2375   1.760   7.358  11.060  0.3120 -0.3497  0.2475
  759MOL0     C 2376   1.833   7.473  11.050 -0.8738  0.1195  0.5275
  759MOL0     O 2377   2.067   7.609  11.004  0.4679  0.4860  0.2050
  759MOL0     C 2378   1.994   7.926  10.867  0.7802 -0.1908  0.3945
  759MOL0     C 2379   2.055   8.046  10.836  0.1543 -0.4634  0.1020
  759MOL0     N 2380   2.687   8.752  10.791  0.3422  0.8873 -0.8531
  759MOL0     N 2381   2.803   8.773  10.811 -0.7720  1.0494  0.5469
  759MOL0     C 2382   3.998   8.776  10.518 -0.0413 -0.3793 -0.3203
  759MOL0     C 2383   4.108   8.704  10.567  0.0100  0.0488 -0.0927
  759MOL0     C 2384   4.358   8.328  10.670 -0.5012  0.7165 -0.9038
  759MOL0     C 2385   4.488   8.384  10.662 -0.5464  0.3551 -0.2834
  759MOL0     C 2386   4.601   8.315  10.711  0.3158  0.0790  0.2704
  759MOL0     C 2387   4.588   8.192  10.770 -0.8598 -0.4849  0.7429
  759MOL0     O 2388   4.713   8.140  10.800  0.7001  0.1707 -0.9128
  759MOL0     C 2389   4.712   8.000  10.784 -0.4777  0.7913 -0.3161
  759MOL0     C 2390   4.857   7.954  10.809  0.1976 -0.1758 -0.4275
  759MOL0     C 2391   4.959   7.975  10.690 -1.2345  0.6847  0.2961
  759MOL0     C 2392   5.102   7.996  10.732 -0.4344  0.3577  0.0530
  759MOL0     C 2393   5.170   7.882  10.792 -0.1793  0.8067 -0.1249
  759MOL0     C 2394   5.214   7.782  10.848  0.3386 -0.0166  0.5999
  759MOL0     C 2395   4.462   8.133  10.792  0.1207 -0.9499  0.9620
  759MOL0     C 2396   4.355   8.206  10.747  0.2165  0.2046 -0.5144
  759MOL0     C 2397   4.227   8.128  10.767  0.3388  0.9140  0.1024
  759MOL0     H 2398   4.071   8.432  10.357  2.6799 -0.1825 -0.2988
  759MOL0     H 2399   3.887   8.562  10.274 -1.0172  1.7743 -1.5551
  759MOL0     H 2400   3.613   8.784  10.363 -0.7560  0.7535  2.0817
  759MOL0     H 2401   3.689   8.656  10.453  1.8425  0.4637  1.6521
  759MOL0     H 2402   3.635   8.962  10.518  3.2133  1.0154  2.1448
  759MOL0     H 2403   3.742   8.871  10.619 -0.8831  2.0631  0.6074
  759MOL0     H 2404   3.565   8.700  10.654  0.5977  0.0283 -1.3079
  759MOL0     H 2405   3.458   8.783  10.539 -1.1006  2.5741 -0.6128
  759MOL0     H 2406   3.490   8.844  10.835  1.1911  2.4395  1.1889
  759MOL0     H 2407   3.518   8.979  10.724  1.3270 -0.1248  1.4415
  759MOL0     H 2408   3.298   8.958  10.798  2.0535 -0.1815 -0.6293
  759MOL0     H 2409   3.295   8.920  10.622 -1.4156 -0.6980 -0.1427
  759MOL0     H 2410   3.299   8.680  10.695  2.2221  0.9570 -0.2055
  759MOL0     H 2411   3.255   8.751  10.858  1.7359 -0.2508 -0.3960
  759MOL0     H 2412   3.084   8.739  10.615 -1.1327  1.4679 -0.0469
  759MOL0     H 2413   3.061   8.865  10.744 -1.6015  0.1595 -1.7748
  759MOL0     H 2414   3.056   8.557  10.800 -0.3691 -0.5401 -3.8092
  759MOL0     H 2415   3.047   8.696  10.907  3.8973  2.4396 -1.6447
  759MOL0     H 2416   2.815   8.454  10.730 -4.8467 -2.5806  1.7690
  759MOL0     H 2417   2.459   8.617  10.779  2.9317  2.1164 -0.3011
  759MOL0     H 2418   2.519   8.585  10.618 -0.2823 -0.6684 -0.7222
  759MOL0     H 2419   2.606   8.356  10.697  0.9490 -0.5298  0.3362
  759MOL0     H 2420   2.565   8.395  10.867  1.8818 -1.8103 -0.8183
  759MOL0     H 2421   2.357   8.358  10.640  2.5825  2.4593 -1.7205
  759MOL0     H 2422   2.318   8.422  10.800 -0.1578  1.4501 -1.8009
  759MOL0     H 2423   2.411   8.211  10.903  2.1034 -0.5482 -0.3070
  759MOL0     H 2424   2.415   8.135  10.735 -2.3442 -1.7061  0.9345
  759MOL0     H 2425   2.377   7.955  10.887  0.0765 -1.4450 -1.1138
  759MOL0     H 2426   2.268   7.735  10.925 -0.4231 -0.6734 -1.6226
  759MOL0     H 2427   1.671   7.629  10.781  0.9374 -1.2606 -2.5546
  759MOL0     H 2428   1.567   7.413  10.780 -1.2253  1.7988  2.4746
  759MOL0     H 2429   1.565   7.189  10.752  0.5900 -1.4670  0.0891
  759MOL0     H 2430   1.511   7.060  10.871 -3.8856  0.3397  2.9262
  759MOL0     H 2431   1.341   7.221  10.960 -1.7669 -1.3346 -1.5822
  759MOL0     H 2432   1.378   7.341  10.839 -1.6488  0.3422 -1.7646
  759MOL0     H 2433   1.323   7.122  10.670 -0.5114 -1.7872 -0.2151
  759MOL0     H 2434   1.264   7.049  10.814  0.9654 -0.1143  1.4393
  759MOL0     H 2435   1.173   7.340  10.736  1.7794 -0.1478 -0.3158
  759MOL0     H 2436   1.109   7.235  10.851  1.0080  0.1551  0.2723
  759MOL0     H 2437   1.100   7.062  10.637  0.3800  0.0652 -0.5426
  759MOL0     H 2438   1.086   7.219  10.543 -0.7247 -1.4247 -0.9763
  759MOL0     H 2439   0.905   7.119  10.779  2.2942 -2.8512 -1.3031
  759MOL0     H 2440   0.900   7.282  10.704 -2.5565 -0.6811  0.5745
  759MOL0     H 2441   0.863   7.002  10.563 -0.9793 -0.2387 -1.2884
  759MOL0     H 2442   0.832   7.153  10.495 -4.4218 -3.0369 -0.6986
  759MOL0     H 2443   0.613   7.065  10.575 -0.2989  3.2514 -1.8808
  759MOL0     H 2444   0.689   7.018  10.729 -1.6136 -1.6118 -1.2235
  759MOL0     H 2445   1.789   7.295  11.143  4.7483  1.5033  0.3594
  759MOL0     H 2446   1.908   7.479  11.129 -0.5458  2.2957  0.1044
  759MOL0     H 2447   1.886   7.914  10.868  0.4602  2.1520  0.4715
  759MOL0     H 2448   2.005   8.142  10.827 -0.9033 -1.0068 -0.0150
  759MOL0     H 2449   3.978   8.867  10.575  2.3879  1.0823 -1.6490
  759MOL0     H 2450   4.164   8.743  10.651  1.4400  0.7339 -1.3124
  759MOL0     H 2451   4.489   8.483  10.617 -0.5153  0.4133 -0.1559
  759MOL0     H 2452   4.702   8.353  10.703  1.5329 -2.7492  0.9191
  759MOL0     H 2453   4.677   7.981  10.682  0.2528  0.7036 -0.5550
  759MOL0     H 2454   4.647   7.959  10.862  0.0503 -0.1878 -0.3720
  759MOL0     H 2455   4.859   7.847  10.830  2.2322 -0.2193 -0.6277
  759MOL0     H 2456   4.893   8.013  10.894  0.8440  0.3244 -1.0473
  759MOL0     H 2457   4.919   8.054  10.625 -2.5827 -0.0646  0.1818
  759MOL0     H 2458   4.962   7.884  10.629  3.1413  1.1699 -0.5278
  759MOL0     H 2459   5.151   8.033  10.642  3.2728 -1.2218  1.2544
  759MOL0     H 2460   5.103   8.061  10.820 -0.2524 -4.1106  3.7365
  759MOL0     H 2461   5.285   7.715  10.892  0.5914  1.4812  2.6647
  759MOL0     H 2462   4.447   8.038  10.843  2.7231 -2.0488 -0.1284
  759MOL0     H 2463   4.242   8.021  10.786  2.5039  1.0815 -0.4731
  759MOL0     H 2464   4.169   8.163  10.853 -1.8707 -2.3134  0.1119
  759MOL0     H 2465   4.160   8.137  10.681  0.7391 -2.2479 -0.6524
  760MOL0     O 2466   7.440   8.974   1.344 -0.6630 -0.5533 -0.8164
  760MOL0     C 2467   7.338   8.918   1.386  0.6422 -0.0449  0.2562
  760MOL0     O 2468   7.329   8.779   1.429 -1.1379  0.1837  0.2979
  760MOL0     C 2469   7.453   8.713   1.413  0.0608 -0.1745  0.1064
  760MOL0     C 2470   7.571   8.759   1.484 -0.0493  0.4187  0.1648
  760MOL0     C 2471   7.699   8.690   1.463  0.1614 -0.8437  1.0744
  760MOL0     C 2472   7.711   8.576   1.389  0.0261 -0.0490  0.5883
  760MOL0     O 2473   7.821   8.497   1.380 -1.1283 -0.0691  0.0482
  760MOL0     C 2474   7.947   8.557   1.404  0.2136  0.4283 -0.6293
  760MOL0     C 2475   8.056   8.459   1.399 -0.2793 -0.4287  1.3356
  760MOL0     C 2476   8.178   8.551   1.400 -0.1350 -0.1272  0.0222
  760MOL0     C 2477   8.305   8.470   1.427  0.3277  0.7682 -0.2764
  760MOL0     C 2478   8.431   8.560   1.460  1.3631  0.1749  0.3373
  760MOL0     C 2479   8.548   8.485   1.520 -0.1326  0.0132  0.0853
  760MOL0     C 2480   8.668   8.587   1.531  0.4690  0.1348 -0.4840
  760MOL0     C 2481   8.809   8.523   1.561  0.2111 -0.4957 -0.4104
  760MOL0     N 2482   8.915   8.598   1.493  0.0130 -1.1181  0.3146
  760MOL0     C 2483   8.925   8.736   1.488 -0.3997 -0.3618  0.5829
  760MOL0     C 2484   9.032   8.761   1.417 -0.1384  0.2744 -0.1334
  760MOL0     C 2485   9.093   8.900   1.416 -0.6179 -1.7161 -0.2851
  760MOL0     C 2486   9.236   8.911   1.354 -0.2979  0.5751 -0.0367
  760MOL0     C 2487   9.347   8.904   1.465 -0.0650 -0.2215 -0.1114
  760MOL0     C 2488   9.472   8.847   1.406 -0.4705 -0.2546  0.4283
  760MOL0     O 2489   9.512   8.939   1.291  0.3371  0.2192 -0.4160
  760MOL0     C 2490   9.613   8.901   1.210 -1.0334  0.1710 -0.0573
  760MOL0     C 2491   9.659   9.004   1.125 -0.3202  0.4122  0.2191
  760MOL0     C 2492   9.778   8.982   1.049 -0.5431  0.7983  0.1853
  760MOL0     C 2493   9.848   8.861   1.067  0.8082  0.1669  0.2717
  760MOL0     C 2494   9.991   8.849   1.006 -0.0451 -0.2826 -0.0717
  760MOL0     O 2495  10.029   8.959   0.938  0.7207 -0.5032  0.7947
  760MOL0     C 2496  10.156   8.959   0.879 -0.2819 -0.1861 -0.0344
  760MOL0     C 2497  10.164   8.957   0.736 -1.0571 -0.5257 -0.5025
  760MOL0     C 2498  10.291   8.969   0.670 -0.2689 -0.0220  0.4869
  760MOL0     C 2499  10.411   8.988   0.738  0.6878  0.2402  0.4390
  760MOL0     O 2500  10.523   9.041   0.680  0.0878  0.4318  0.4353
  760MOL0     C 2501  10.591   8.973   0.573  0.3634 -0.2038 -0.6217
  760MOL0     C 2502  10.668   8.850   0.629  0.5726 -0.9894  0.5635
  760MOL0     C 2503  10.721   8.769   0.520  0.2604  0.1546 -0.8235
  760MOL0     C 2504  10.832   8.682   0.572 -0.3123  0.6534  0.1485
  760MOL0     C 2505  10.914   8.639   0.450 -0.4811 -0.5923 -0.3885
  760MOL0     C 2506  11.040   8.563   0.492 -0.4109 -0.0078 -0.7929
  760MOL0     C 2507  11.012   8.430   0.560  0.2696  0.6639  0.1479
  760MOL0     C 2508  10.925   8.338   0.473  0.8012  0.2195  0.5017
  760MOL0    Cl 2509  10.979   8.303   0.316 -0.2457  0.0574  0.1141
  760MOL0     C 2510  10.407   8.980   0.876 -0.9961 -0.3247  0.6902
  760MOL0     C 2511  10.287   8.953   0.944  0.2535 -0.2453 -0.5623
  760MOL0     O 2512  10.056   8.751   1.025  0.4550 -0.9558  0.1143
  760MOL0     C 2513   9.805   8.757   1.156 -0.0601 -0.2707 -0.3205
  760MOL0     C 2514   9.686   8.776   1.226 -0.2896 -0.8593 -0.7662
  760MOL0     N 2515   9.091   8.644   1.380  0.3964 -0.6414 -0.5731
  760MOL0     N 2516   9.018   8.542   1.421 -1.0334 -0.8745 -0.8014
  760MOL0     C 2517   7.590   8.520   1.330 -0.0530 -0.4538 -0.3468
  760MOL0     C 2518   7.467   8.590   1.340 -0.0225 -0.2364 -0.3489
  760MOL0     C 2519   7.214   8.999   1.385 -0.3607 -0.4152 -0.9996
  760MOL0     C 2520   7.102   8.936   1.334  0.1767  0.8416  0.0000
  760MOL0     C 2521   6.969   8.983   1.343  0.0944 -0.1281 -0.1337
  760MOL0     C 2522   6.948   9.102   1.407 -0.3465  0.2344  0.0881
  760MOL0     O 2523   6.823   9.149   1.412  0.2315 -0.4165 -0.0393
  760MOL0     C 2524   6.725   9.081   1.493 -0.2380 -0.6874 -0.4358
  760MOL0     C 2525   6.594   9.169   1.507 -1.2781  0.0644  0.0907
  760MOL0     C 2526   6.500   9.099   1.605  0.0152  1.4209 -0.7430
  760MOL0     C 2527   6.380   9.201   1.640 -0.3201  0.2972  0.0738
  760MOL0     C 2528   6.416   9.307   1.742  0.0299 -0.2186  0.4213
  760MOL0     C 2529   6.432   9.393   1.825  0.1704 -0.5580 -0.6033
  760MOL0     C 2530   7.054   9.181   1.437 -0.4904 -0.6464  0.1983
  760MOL0     C 2531   7.184   9.137   1.427 -0.4793 -0.1550  0.2203
  760MOL0     C 2532   7.299   9.230   1.460 -0.9124  0.2897  0.7779
  760MOL0     H 2533   7.555   8.852   1.538 -0.7073  1.2662 -1.4346
  760MOL0     H 2534   7.781   8.727   1.524  0.7992  1.7299 -1.1377
  760MOL0     H 2535   7.962   8.643   1.339  1.0438 -0.9831 -2.4017
  760MOL0     H 2536   7.942   8.587   1.509  0.0276 -1.9030  0.1042
  760MOL0     H 2537   8.062   8.394   1.311 -3.1605 -0.1857  0.8486
  760MOL0     H 2538   8.066   8.408   1.495 -0.7660  1.5487  2.5064
  760MOL0     H 2539   8.176   8.613   1.491  0.4139 -1.5368  1.0213
  760MOL0     H 2540   8.195   8.612   1.311  1.6383  0.1353  0.4933
  760MOL0     H 2541   8.290   8.403   1.512 -1.6495  0.2654 -0.9747
  760MOL0     H 2542   8.321   8.398   1.346  0.9033  0.3850  0.1665
  760MOL0     H 2543   8.464   8.617   1.373 -1.1145  1.2719  0.0237
  760MOL0     H 2544   8.399   8.639   1.529 -0.6711 -0.9605  0.7538
  760MOL0     H 2545   8.522   8.453   1.621 -1.7829  2.1671  0.4250
  760MOL0     H 2546   8.574   8.398   1.458 -0.6364 -3.7184  4.5365
  760MOL0     H 2547   8.652   8.661   1.610 -0.2196 -0.3206 -0.1930
  760MOL0     H 2548   8.662   8.651   1.442 -4.0272  0.3179 -0.2807
  760MOL0     H 2549   8.832   8.531   1.667  3.1074  0.1645 -1.0020
  760MOL0     H 2550   8.825   8.416   1.551  1.8621 -0.8257  3.7780
  760MOL0     H 2551   8.864   8.805   1.545  0.8842  1.0129  0.3556
  760MOL0     H 2552   9.037   8.974   1.359  1.7825  3.1921  2.9819
  760MOL0     H 2553   9.081   8.932   1.520 -1.4839 -1.4187 -0.4676
  760MOL0     H 2554   9.250   8.832   1.280  2.0613  1.6615 -0.8702
  760MOL0     H 2555   9.253   9.009   1.308  3.3269  1.0479  1.9877
  760MOL0     H 2556   9.300   8.849   1.547 -1.3768 -0.1046 -0.7548
  760MOL0     H 2557   9.374   9.003   1.501  0.4941 -0.2529 -0.4255
  760MOL0     H 2558   9.446   8.756   1.351  0.9244 -0.6912  0.4547
  760MOL0     H 2559   9.549   8.833   1.482 -0.3485  2.7664  0.9803
  760MOL0     H 2560   9.602   9.094   1.106 -0.4376  0.1562 -0.6624
  760MOL0     H 2561   9.812   9.047   0.969 -0.3988  2.0192  1.2081
  760MOL0     H 2562  10.081   8.949   0.667 -0.5592  0.0500 -1.1791
  760MOL0     H 2563  10.301   8.977   0.562 -0.2153  0.8013  0.5454
  760MOL0     H 2564  10.513   8.929   0.511 -0.5861  0.1890  0.2704
  760MOL0     H 2565  10.660   9.033   0.513 -0.1821 -1.4835 -2.6369
  760MOL0     H 2566  10.751   8.887   0.690  1.1298 -0.5412 -0.4426
  760MOL0     H 2567  10.608   8.795   0.703 -2.4638  0.5683 -0.5442
  760MOL0     H 2568  10.637   8.722   0.467 -0.1002  2.2342 -2.1978
  760MOL0     H 2569  10.757   8.842   0.448 -3.0088  5.1490  1.9882
  760MOL0     H 2570  10.805   8.593   0.629 -0.6355  1.6166  1.5657
  760MOL0     H 2571  10.901   8.737   0.637  0.7706 -1.7907  1.2054
  760MOL0     H 2572  10.935   8.727   0.389 -1.3926  0.5919  0.9371
  760MOL0     H 2573  10.845   8.581   0.388  1.0544  0.3911 -3.1687
  760MOL0     H 2574  11.093   8.531   0.402  2.1206 -2.1014  1.2610
  760MOL0     H 2575  11.108   8.627   0.548 -0.7332  1.2257 -1.7738
  760MOL0     H 2576  10.983   8.443   0.664  2.8355  0.5934  0.9466
  760MOL0     H 2577  11.104   8.370   0.556 -0.2544 -0.0973 -1.2664
  760MOL0     H 2578  10.920   8.240   0.520  2.4258  0.5621  1.4811
  760MOL0     H 2579  10.821   8.370   0.463 -0.0424 -1.6088  2.5288
  760MOL0     H 2580  10.494   8.990   0.940 -2.2208 -0.3712  2.4232
  760MOL0     H 2581  10.289   8.960   1.052  0.3138  1.1183 -0.6278
  760MOL0     H 2582   9.867   8.675   1.189 -2.5685 -0.7165  4.0814
  760MOL0     H 2583   9.660   8.703   1.302 -0.6322  1.7985  1.8262
  760MOL0     H 2584   7.580   8.429   1.272  2.2280 -1.5950  0.9175
  760MOL0     H 2585   7.377   8.550   1.294  0.3980  3.2957 -5.0017
  760MOL0     H 2586   7.127   8.844   1.284 -0.3670  0.1450  0.9812
  760MOL0     H 2587   6.886   8.936   1.292 -1.9891  4.3449 -1.4051
  760MOL0     H 2588   6.757   9.060   1.596 -3.3676  1.5552  1.1308
  760MOL0     H 2589   6.696   8.983   1.453  2.3019 -1.3123 -0.9285
  760MOL0     H 2590   6.557   9.185   1.405  1.4523  0.9367 -0.8421
  760MOL0     H 2591   6.634   9.258   1.556  1.2796 -2.0903  2.2021
  760MOL0     H 2592   6.548   9.061   1.696 -0.3407  1.3031 -0.6017
  760MOL0     H 2593   6.448   9.012   1.565 -2.8797  3.0222 -0.7589
  760MOL0     H 2594   6.344   9.237   1.543  0.0596  1.1730  0.2443
  760MOL0     H 2595   6.299   9.143   1.686  1.2782 -1.5987  0.6333
  760MOL0     H 2596   6.450   9.473   1.894 -1.5782 -0.4339 -0.2390
  760MOL0     H 2597   7.032   9.286   1.453  0.1226 -0.3400 -0.9002
  760MOL0     H 2598   7.393   9.182   1.488  0.9912  0.9826 -3.7468
  760MOL0     H 2599   7.327   9.287   1.372  1.2080 -0.9966  0.5588
  760MOL0     H 2600   7.270   9.304   1.535  2.4986  1.4711  1.0956
  761MOL0     O 2601   6.775   9.934   8.241  0.3814 -0.2805  1.1055
  761MOL0     C 2602   6.882   9.966   8.296 -1.1767 -0.2608 -0.1701
  761MOL0     O 2603   6.950  10.084   8.287  0.6016 -0.5497 -0.3815
  761MOL0     C 2604   6.918  10.157   8.175  0.3575 -0.8980  0.8818
  761MOL0     C 2605   6.814  10.248   8.174  0.7925  0.4514 -0.6303
  761MOL0     C 2606   6.787  10.303   8.045  0.0030 -0.4365  0.0609
  761MOL0     C 2607   6.876  10.298   7.935  0.3548  0.1974 -0.2478
  761MOL0     O 2608   6.845  10.344   7.807  0.9207  0.7706  0.6373
  761MOL0     C 2609   6.713  10.298   7.762 -0.1005 -0.3423  0.6154
  761MOL0     C 2610   6.713  10.327   7.608 -0.4825  0.6747  0.7866
  761MOL0     C 2611   6.607  10.227   7.545  0.3559  1.1016  0.3454
  761MOL0     C 2612   6.456  10.240   7.590 -0.5930  0.0314  0.0878
  761MOL0     C 2613   6.385  10.363   7.524  0.1107  0.4833  0.1302
  761MOL0     C 2614   6.254  10.400   7.593  0.0451 -0.9609  0.0814
  761MOL0     C 2615   6.157  10.482   7.515 -0.4529 -0.4234  0.1992
  761MOL0     C 2616   6.204  10.623   7.472 -0.0446 -0.1275 -0.8479
  761MOL0     N 2617   6.193  10.724   7.580 -0.4379 -0.2162  0.6997
  761MOL0     C 2618   6.260  10.707   7.699  0.0141 -0.3416  0.0018
  761MOL0     C 2619   6.177  10.741   7.800 -0.4006 -1.1825  0.2497
  761MOL0     C 2620   6.204  10.753   7.946 -0.2107 -0.0961  0.6972
  761MOL0     C 2621   6.319  10.855   7.979 -0.4422  0.3242  0.0615
  761MOL0     C 2622   6.269  11.008   7.952 -0.5294 -0.0545 -0.4712
  761MOL0     C 2623   6.372  11.104   8.016 -0.3311  0.2988  0.1514
  761MOL0     O 2624   6.508  11.093   7.966  0.0126 -0.2948 -0.1476
  761MOL0     C 2625   6.609  11.132   8.050  0.7510 -0.7073 -0.6050
  761MOL0     C 2626   6.592  11.212   8.164 -0.2634 -0.0970 -0.3943
  761MOL0     C 2627   6.695  11.238   8.253 -0.5171  0.7115  0.8910
  761MOL0     C 2628   6.821  11.180   8.222 -0.8506 -0.0763  0.4305
  761MOL0     C 2629   6.924  11.192   8.330  0.2896 -0.4057 -0.0179
  761MOL0     O 2630   7.055  11.194   8.284 -0.2321  0.6688 -0.3441
  761MOL0     C 2631   7.164  11.181   8.371 -0.0476 -0.0003  0.4890
  761MOL0     C 2632   7.284  11.133   8.315  0.2448  0.0612  0.7149
  761MOL0     C 2633   7.391  11.090   8.403  0.5649  0.0530  0.5958
  761MOL0     C 2634   7.387  11.105   8.542 -0.3213  0.0667  0.2323
  761MOL0     O 2635   7.474  11.037   8.616 -0.5757 -0.2205 -0.3847
  761MOL0     C 2636   7.522  11.122   8.719 -0.4463  1.0284 -0.0853
  761MOL0     C 2637   7.669  11.087   8.757 -0.0842 -0.5021  0.0728
  761MOL0     C 2638   7.669  10.948   8.817 -0.0896  0.0207 -0.4014
  761MOL0     C 2639   7.814  10.915   8.874  1.0479  0.8446  0.7268
  761MOL0     C 2640   7.829  10.769   8.909  0.1252 -1.5750  0.0383
  761MOL0     C 2641   7.848  10.684   8.784  0.2416 -0.2264  0.2179
  761MOL0     C 2642   7.812  10.536   8.809  0.7188 -0.4311  0.7783
  761MOL0     C 2643   7.654  10.536   8.815 -0.3506  0.1504  0.5783
  761MOL0    Cl 2644   7.598  10.549   8.978  0.2667 -0.1653 -0.1133
  761MOL0     C 2645   7.275  11.159   8.590  0.1889 -0.4384 -0.2457
  761MOL0     C 2646   7.165  11.194   8.517  0.7368 -0.0329  0.6010
  761MOL0     O 2647   6.875  11.204   8.451  0.2975 -0.4038  0.4582
  761MOL0     C 2648   6.842  11.102   8.110  0.7846 -0.1075  0.3335
  761MOL0     C 2649   6.734  11.082   8.020  0.3171 -0.2839 -0.1035
  761MOL0     N 2650   6.068  10.791   7.752  0.6208 -0.7891 -0.6157
  761MOL0     N 2651   6.080  10.778   7.623  1.1430  0.0938 -0.3660
  761MOL0     C 2652   6.985  10.226   7.960  0.5074  0.1902  0.3364
  761MOL0     C 2653   7.011  10.154   8.077  0.5930  0.4061  0.3089
  761MOL0     C 2654   6.957   9.863   8.373  1.2412 -0.4105 -0.0796
  761MOL0     C 2655   7.097   9.851   8.327 -0.3702  0.5180  0.2754
  761MOL0     C 2656   7.181   9.759   8.394  0.3151 -0.2061  0.0107
  761MOL0     C 2657   7.124   9.675   8.492  0.1111 -0.1137 -0.3163
  761MOL0     O 2658   7.217   9.602   8.567 -0.0821  0.5914 -0.6266
  761MOL0     C 2659   7.183   9.496   8.667  1.2187  0.0579 -0.2996
  761MOL0     C 2660   7.158   9.546   8.812 -0.0092 -0.2250  0.0561
  761MOL0     C 2661   7.275   9.624   8.883 -0.3621  0.3482  0.3104
  761MOL0     C 2662   7.242   9.678   9.020  0.1701 -0.2777 -0.5244
  761MOL0     C 2663   7.180   9.815   9.006  0.2185 -1.1349  0.6178
  761MOL0     C 2664   7.134   9.925   8.982  0.5584  0.0431  0.8677
  761MOL0     C 2665   6.991   9.687   8.526 -0.6161 -0.0354 -0.3855
  761MOL0     C 2666   6.901   9.785   8.474 -0.1341 -0.0783  0.9540
  761MOL0     C 2667   6.759   9.786   8.525 -0.5374 -0.3823  0.3200
  761MOL0     H 2668   6.739  10.253   8.252 -0.3157 -0.0033 -1.6354
  761MOL0     H 2669   6.691  10.354   8.037 -0.2568 -1.1144 -1.7087
  761MOL0     H 2670   6.718  10.190   7.772  1.2783 -0.5219 -1.4504
  761MOL0     H 2671   6.629  10.345   7.815  0.9926  0.2728  1.8515
  761MOL0     H 2672   6.807  10.314   7.554 -1.6415 -0.0082 -1.1581
  761MOL0     H 2673   6.691  10.434   7.596  0.7767  1.0492  1.6336
  761MOL0     H 2674   6.631  10.122   7.564 -2.9942  0.0677 -0.3877
  761MOL0     H 2675   6.606  10.241   7.437 -0.3142  1.7953  0.4364
  761MOL0     H 2676   6.409  10.146   7.558 -0.5421  0.1437 -0.3348
  761MOL0     H 2677   6.456  10.238   7.699 -0.2710  1.8915  0.1655
  761MOL0     H 2678   6.453  10.447   7.508 -0.1051  0.9177  1.3657
  761MOL0     H 2679   6.357  10.333   7.423  1.6557 -2.0582  0.3813
  761MOL0     H 2680   6.197  10.310   7.619 -1.4078 -0.0848  0.0028
  761MOL0     H 2681   6.291  10.460   7.676  2.5812  2.7833 -3.3835
  761MOL0     H 2682   6.075  10.493   7.586 -1.4626  2.3532 -1.2371
  761MOL0     H 2683   6.130  10.430   7.422 -0.7842 -0.9159  0.5674
  761MOL0     H 2684   6.304  10.631   7.428 -0.9032  3.1835 -2.5240
  761MOL0     H 2685   6.140  10.648   7.386  1.4531 -2.3548 -2.7321
  761MOL0     H 2686   6.353  10.655   7.723  0.2609  0.4988  0.9769
  761MOL0     H 2687   6.112  10.793   7.988 -0.2140  1.2859 -0.5475
  761MOL0     H 2688   6.214  10.653   7.990 -3.4111 -1.2788 -0.9912
  761MOL0     H 2689   6.349  10.839   8.083 -1.4837 -0.4425  0.2683
  761MOL0     H 2690   6.409  10.833   7.921 -1.9437  0.7448 -2.5787
  761MOL0     H 2691   6.174  11.023   8.003 -0.2610  1.7782 -0.4572
  761MOL0     H 2692   6.262  11.037   7.847  0.8819  1.9903 -0.0586
  761MOL0     H 2693   6.378  11.073   8.121  0.6855 -2.9192 -0.7444
  761MOL0     H 2694   6.334  11.206   8.011 -2.7019 -0.3732  2.3907
  761MOL0     H 2695   6.494  11.259   8.170  0.4012  1.2264  0.5411
  761MOL0     H 2696   6.678  11.297   8.343 -1.5480  0.5657  0.8063
  761MOL0     H 2697   7.278  11.103   8.211  0.3021  0.1236  0.6935
  761MOL0     H 2698   7.473  11.039   8.355 -0.0656  0.3725 -0.8635
  761MOL0     H 2699   7.522  11.227   8.690  0.0276  0.9287 -0.4591
  761MOL0     H 2700   7.462  11.109   8.809  1.6490 -2.7241  0.9926
  761MOL0     H 2701   7.728  11.083   8.665 -0.7600  2.3164 -0.5571
  761MOL0     H 2702   7.718  11.167   8.813  1.7437 -1.6498  0.1734
  761MOL0     H 2703   7.589  10.934   8.890 -1.2723  0.6772 -1.5209
  761MOL0     H 2704   7.643  10.880   8.735 -2.8459 -0.1597  0.5311
  761MOL0     H 2705   7.833  10.974   8.964  1.1321  4.5775 -1.5558
  761MOL0     H 2706   7.884  10.939   8.794 -0.5897 -1.7398 -1.6963
  761MOL0     H 2707   7.747  10.739   8.975 -0.7753  0.7881  0.0957
  761MOL0     H 2708   7.923  10.754   8.965 -0.1980  2.0018  1.8335
  761MOL0     H 2709   7.799  10.727   8.696  1.4252  1.6014  0.3861
  761MOL0     H 2710   7.953  10.670   8.755 -0.1672 -2.8596 -0.1795
  761MOL0     H 2711   7.862  10.491   8.895 -2.7914 -1.9149  2.2371
  761MOL0     H 2712   7.842  10.483   8.718 -0.6152 -2.9544  1.7294
  761MOL0     H 2713   7.610  10.614   8.752  0.7328  0.7193  0.5115
  761MOL0     H 2714   7.620  10.440   8.773  0.7605  1.0222 -2.6026
  761MOL0     H 2715   7.247  11.170   8.694  0.2123 -1.5150 -0.1155
  761MOL0     H 2716   7.076  11.218   8.573  1.6791  3.9546  0.6953
  761MOL0     H 2717   6.938  11.052   8.096  0.9861  0.2101  0.5598
  761MOL0     H 2718   6.748  11.020   7.932  0.8141 -0.0291 -0.2034
  761MOL0     H 2719   7.062  10.219   7.885  1.5126 -1.5423  1.4505
  761MOL0     H 2720   7.109  10.108   8.084  1.0866  1.4292  0.2582
  761MOL0     H 2721   7.135   9.883   8.230 -0.6340 -2.4520 -0.9080
  761MOL0     H 2722   7.282   9.738   8.361  1.7018 -0.3420  3.8710
  761MOL0     H 2723   7.248   9.409   8.671 -1.4557 -2.0529  2.3501
  761MOL0     H 2724   7.081   9.460   8.651  0.0857  0.5715  4.3405
  761MOL0     H 2725   7.126   9.460   8.872 -0.0351 -0.0579  0.2810
  761MOL0     H 2726   7.069   9.609   8.815 -0.5722 -0.7888 -2.3983
  761MOL0     H 2727   7.319   9.696   8.812  0.8989  0.2567  0.9655
  761MOL0     H 2728   7.341   9.542   8.910 -1.5616 -0.9362 -0.5394
  761MOL0     H 2729   7.187   9.604   9.081  2.9457 -2.0928 -0.0394
  761MOL0     H 2730   7.327   9.693   9.087 -0.8816 -0.6330  0.9483
  761MOL0     H 2731   7.112  10.029   8.972  1.5000  0.1611 -0.2261
  761MOL0     H 2732   6.950   9.629   8.609  0.9266  0.0054  0.4339
  761MOL0     H 2733   6.684   9.794   8.446  0.8530 -1.7519 -1.2169
  761MOL0     H 2734   6.744   9.699   8.590 -0.4438 -2.9300 -2.8279
  761MOL0     H 2735   6.741   9.875   8.586 -1.0130  0.0293 -0.4071
  762MOL0     O 2736   7.638   2.340  11.102  0.0016  0.9027  0.4816
  762MOL0     C 2737   7.664   2.239  11.029 -0.1874 -0.5293  0.4582
  762MOL0     O 2738   7.575   2.151  10.976  0.7815  0.8564 -0.5112
  762MOL0     C 2739   7.451   2.171  11.025  0.3914  0.4975 -0.7336
  762MOL0     C 2740   7.404   2.127  11.152 -0.5461 -0.0766 -0.0690
  762MOL0     C 2741   7.272   2.157  11.200 -0.0135 -0.3201 -0.0172
  762MOL0     C 2742   7.184   2.222  11.115  0.3440  0.4077  1.0045
  762MOL0     O 2743   7.059   2.262  11.152 -0.2528 -0.4102 -1.0811
  762MOL0     C 2744   6.975   2.170  11.211  1.4681 -0.6808 -0.0121
  762MOL0     C 2745   6.840   2.158  11.129 -0.4168  0.3477 -0.0013
  762MOL0     C 2746   6.743   2.038  11.157 -0.1920  0.5272  0.2194
  762MOL0     C 2747   6.801   1.920  11.229  1.1802  0.4043  0.4898
  762MOL0     C 2748   6.691   1.814  11.245 -0.0583 -0.7560 -0.6340
  762MOL0     C 2749   6.747   1.679  11.291  0.4521  0.7609 -0.6449
  762MOL0     C 2750   6.800   1.680  11.432 -0.6038 -0.0551 -0.6656
  762MOL0     C 2751   6.944   1.707  11.439 -0.2109 -0.2828  0.6941
  762MOL0     N 2752   6.967   1.816  11.533  0.4234 -0.4285 -0.3883
  762MOL0     C 2753   6.915   1.824  11.656 -0.4738 -0.0150  0.4109
  762MOL0     C 2754   6.957   1.941  11.701  0.3577  0.2180  0.2074
  762MOL0     C 2755   6.907   1.992  11.828 -0.4061 -0.5175  0.3306
  762MOL0     C 2756   6.908   1.889  11.940  0.4261  0.7140 -0.4285
  762MOL0     C 2757   6.954   1.935  12.080 -0.3398  0.3748  0.1856
  762MOL0     C 2758   7.110   1.912  12.079  0.0651  0.2625  0.4955
  762MOL0     O 2759   7.163   1.969  12.205 -0.2175  0.5802 -0.1801
  762MOL0     C 2760   7.303   1.994  12.201 -0.5985  0.3202  0.3883
  762MOL0     C 2761   7.392   1.908  12.135  0.5736  0.7111  0.4421
  762MOL0     C 2762   7.531   1.924  12.154 -0.7354 -0.2310  0.7412
  762MOL0     C 2763   7.584   2.034  12.232 -0.0880 -0.4954  0.1539
  762MOL0     C 2764   7.734   2.049  12.260  0.0940  0.5814  0.4780
  762MOL0     O 2765   7.820   1.955  12.203 -0.2163 -0.3884  0.2233
  762MOL0     C 2766   7.959   1.960  12.245  0.5461 -0.3545  0.0982
  762MOL0     C 2767   7.999   1.918  12.377 -0.0102 -0.1332  0.4928
  762MOL0     C 2768   8.128   1.923  12.422  0.6891  0.1137 -0.4386
  762MOL0     C 2769   8.231   1.979  12.339  0.2924  0.6355 -0.3477
  762MOL0     O 2770   8.357   2.009  12.381  1.0314  0.0711 -0.5451
  762MOL0     C 2771   8.407   1.943  12.494 -0.9849  0.3474  0.8595
  762MOL0     C 2772   8.551   1.932  12.497 -0.8608 -0.2590 -0.5986
  762MOL0     C 2773   8.611   1.891  12.371 -0.4863  0.3356  0.4907
  762MOL0     C 2774   8.758   1.845  12.376 -0.8930  0.0556 -0.4986
  762MOL0     C 2775   8.779   1.723  12.282  0.1211 -0.2392  0.5352
  762MOL0     C 2776   8.921   1.663  12.265 -0.3902  0.0876  0.7084
  762MOL0     C 2777   8.931   1.541  12.173 -0.8523 -0.7230  1.1391
  762MOL0     C 2778   9.073   1.502  12.128 -0.0855  0.1935 -0.8751
  762MOL0    Cl 2779   9.061   1.356  12.023  0.2020 -0.4290  0.1332
  762MOL0     C 2780   8.192   2.018  12.209  0.9174  0.7313 -0.7129
  762MOL0     C 2781   8.062   1.999  12.158  0.2990  0.0017 -1.3044
  762MOL0     O 2782   7.765   2.145  12.333  0.2639 -0.9362 -0.1115
  762MOL0     C 2783   7.497   2.127  12.291 -0.5023 -0.1546 -0.3985
  762MOL0     C 2784   7.354   2.098  12.284  0.2116 -0.2776 -0.1248
  762MOL0     N 2785   7.037   2.004  11.609  0.7957 -0.0464  0.3667
  762MOL0     N 2786   7.043   1.928  11.509  0.8909  0.4974  0.0387
  762MOL0     C 2787   7.217   2.248  10.979  1.1752  0.2162 -0.0110
  762MOL0     C 2788   7.346   2.218  10.939 -0.6117 -0.3211  0.3966
  762MOL0     C 2789   7.807   2.219  10.991  0.0865 -1.3098  0.5904
  762MOL0     C 2790   7.853   2.095  10.937  0.2776 -0.4305  0.0731
  762MOL0     C 2791   7.986   2.069  10.907 -0.2761  0.5226 -0.0190
  762MOL0     C 2792   8.087   2.169  10.919  0.2861 -0.1510  0.8482
  762MOL0     O 2793   8.217   2.160  10.886  0.6143  0.2249  0.1330
  762MOL0     C 2794   8.256   2.043  10.825 -0.5285 -0.6954  0.5158
  762MOL0     C 2795   8.411   2.018  10.818 -0.1404  0.7272 -0.2920
  762MOL0     C 2796   8.471   2.000  10.960  0.9585  0.0608  0.2077
  762MOL0     C 2797   8.581   1.900  10.971  0.5848  0.2621 -0.0280
  762MOL0     C 2798   8.681   1.947  10.879  0.1432  0.2659  0.6154
  762MOL0     C 2799   8.753   2.000  10.801  0.1836 -0.2321 -0.1958
  762MOL0     C 2800   8.039   2.288  10.968  0.4653  0.4894  0.0809
  762MOL0     C 2801   7.908   2.321  11.000 -0.3930 -0.2532 -0.1329
  762MOL0     C 2802   7.895   2.460  11.059  0.3236 -0.0048  0.9505
  762MOL0     H 2803   7.469   2.064  11.212 -0.7240  0.0594  0.2711
  762MOL0     H 2804   7.243   2.139  11.303 -1.0156  2.9342  0.3704
  762MOL0     H 2805   7.009   2.066  11.210 -1.0534 -1.6286 -2.7537
  762MOL0     H 2806   6.955   2.209  11.311 -1.8319 -0.5290 -0.6161
  762MOL0     H 2807   6.877   2.152  11.026  2.3340  2.0318  0.7711
  762MOL0     H 2808   6.790   2.255  11.141  0.9229  0.7242  4.2213
  762MOL0     H 2809   6.686   2.011  11.068 -0.5907  1.9089  0.0397
  762MOL0     H 2810   6.677   2.074  11.236  0.9080  2.1672  0.4568
  762MOL0     H 2811   6.888   1.882  11.176  0.6761 -0.8866  0.5629
  762MOL0     H 2812   6.836   1.949  11.329  0.6091  1.3684  0.4211
  762MOL0     H 2813   6.615   1.845  11.318 -0.9016 -2.4108 -0.7759
  762MOL0     H 2814   6.642   1.801  11.148 -0.8763  0.4232 -0.4027
  762MOL0     H 2815   6.663   1.609  11.293 -1.3292  2.6365 -3.3346
  762MOL0     H 2816   6.821   1.642  11.219  0.4787  2.5108 -1.5755
  762MOL0     H 2817   6.785   1.588  11.489  1.5723 -0.6636 -1.0098
  762MOL0     H 2818   6.747   1.761  11.483 -0.1725 -1.7577  2.7675
  762MOL0     H 2819   6.992   1.616  11.477 -0.5761  0.4215  3.0543
  762MOL0     H 2820   6.987   1.737  11.343 -1.0964  1.0738  0.6975
  762MOL0     H 2821   6.836   1.755  11.681  0.9186 -2.6724 -1.9399
  762MOL0     H 2822   6.975   2.070  11.863  1.1205 -1.6728  0.0745
  762MOL0     H 2823   6.807   2.032  11.813 -1.0062 -2.5620 -1.6540
  762MOL0     H 2824   6.814   1.834  11.940  0.5647  0.4716 -0.3460
  762MOL0     H 2825   6.972   1.809  11.899  0.0646  0.3396 -0.2676
  762MOL0     H 2826   6.913   1.866  12.154  3.0477 -0.9593  0.9763
  762MOL0     H 2827   6.915   2.036  12.096 -7.0390 -1.6418 -0.3719
  762MOL0     H 2828   7.158   1.956  11.990  1.6087  1.6742  1.9444
  762MOL0     H 2829   7.135   1.806  12.070 -1.5385 -0.0727 -0.3598
  762MOL0     H 2830   7.361   1.818  12.083 -0.2137  1.8807 -1.2194
  762MOL0     H 2831   7.592   1.859  12.091 -1.5239  0.3509 -0.6802
  762MOL0     H 2832   7.918   1.876  12.437 -0.0746  0.1312  0.5959
  762MOL0     H 2833   8.148   1.895  12.525  1.7604  0.1076 -0.6457
  762MOL0     H 2834   8.381   1.992  12.588 -0.0242 -1.2869  2.0410
  762MOL0     H 2835   8.365   1.844  12.513 -0.7229  0.0957  0.1543
  762MOL0     H 2836   8.594   2.031  12.519 -0.2031 -0.8134  0.7708
  762MOL0     H 2837   8.577   1.873  12.586 -0.8256  0.5420 -0.0583
  762MOL0     H 2838   8.552   1.816  12.317  0.1982  0.4649 -0.4686
  762MOL0     H 2839   8.616   1.978  12.304 -1.2274 -0.1898 -0.2757
  762MOL0     H 2840   8.783   1.811  12.478  0.0833 -1.0054 -1.0593
  762MOL0     H 2841   8.817   1.927  12.335 -0.4398  1.7353  3.1024
  762MOL0     H 2842   8.756   1.742  12.177  3.7050  0.4523 -0.2761
  762MOL0     H 2843   8.708   1.651  12.322 -1.0552 -0.1487 -1.2739
  762MOL0     H 2844   8.986   1.741  12.224  0.6942 -1.0824  0.0963
  762MOL0     H 2845   8.969   1.638  12.361  1.5150  0.4579 -0.0939
  762MOL0     H 2846   8.870   1.568  12.086  0.8513 -0.4559 -0.0239
  762MOL0     H 2847   8.887   1.459  12.230  0.2934 -0.6958  2.1111
  762MOL0     H 2848   9.117   1.583  12.069 -1.1985  1.7096  0.2873
  762MOL0     H 2849   9.143   1.485  12.211  1.2470  1.1241 -1.7730
  762MOL0     H 2850   8.253   2.073  12.138 -0.7516  0.6834 -2.2328
  762MOL0     H 2851   8.026   2.029  12.060  1.3343 -1.8854 -2.3217
  762MOL0     H 2852   7.547   2.209  12.342  0.8710 -2.0761  1.5266
  762MOL0     H 2853   7.287   2.166  12.336  1.4140 -0.0437  1.1819
  762MOL0     H 2854   7.140   2.288  10.914 -1.1699 -0.4134  2.2065
  762MOL0     H 2855   7.375   2.261  10.844  0.2306  0.7702  1.1123
  762MOL0     H 2856   7.786   2.010  10.933 -0.3182 -0.0390  1.2872
  762MOL0     H 2857   8.001   1.967  10.873 -0.6026  0.9924 -1.6479
  762MOL0     H 2858   8.223   2.039  10.720  2.1655  3.3407 -0.7043
  762MOL0     H 2859   8.211   1.954  10.871  1.1322 -1.9003 -0.1162
  762MOL0     H 2860   8.456   2.106  10.771 -3.6209  2.1688 -1.2574
  762MOL0     H 2861   8.436   1.928  10.760  3.0879  0.3849  1.3615
  762MOL0     H 2862   8.391   1.956  11.021  0.0519  0.2053 -0.8503
  762MOL0     H 2863   8.508   2.096  10.999  0.9324  0.3192 -0.3937
  762MOL0     H 2864   8.614   1.899  11.076  2.1343  1.3620 -0.4626
  762MOL0     H 2865   8.548   1.801  10.939 -0.1539  0.7514 -0.8180
  762MOL0     H 2866   8.808   2.051  10.725 -0.6780 -1.4044 -1.6614
  762MOL0     H 2867   8.113   2.367  10.982 -0.7673  2.2550 -2.5279
  762MOL0     H 2868   7.816   2.523  11.018  1.1761  1.3037  1.2590
  762MOL0     H 2869   7.877   2.443  11.166  1.4181 -0.0946  1.1304
  762MOL0     H 2870   7.984   2.519  11.038 -0.3143  0.0689 -2.0295
  763MOL0     O 2871   5.674   7.687   6.869  0.3754  0.3036 -0.5945
  763MOL0     C 2872   5.583   7.768   6.873  0.1703  0.2880  0.4778
  763MOL0     O 2873   5.579   7.881   6.949 -0.0520 -0.1899  0.0544
  763MOL0     C 2874   5.686   7.900   7.031  0.2397 -1.0046 -0.7191
  763MOL0     C 2875   5.777   8.014   7.014 -0.4927 -0.1689  0.7218
  763MOL0     C 2876   5.892   8.018   7.083  0.2712 -0.3130  0.0138
  763MOL0     C 2877   5.925   7.926   7.182  1.0139 -0.0169  0.4049
  763MOL0     O 2878   6.040   7.932   7.257  0.6750 -1.0323  0.3682
  763MOL0     C 2879   6.146   7.864   7.210  0.2292 -0.2272  0.9781
  763MOL0     C 2880   6.289   7.907   7.246  0.3149 -0.0038  0.6601
  763MOL0     C 2881   6.301   8.056   7.204  0.1105 -0.5148  1.0009
  763MOL0     C 2882   6.441   8.101   7.215 -0.6856 -0.2555 -0.2079
  763MOL0     C 2883   6.469   8.232   7.154 -0.3597  0.3714 -0.3243
  763MOL0     C 2884   6.613   8.256   7.104  0.2051  0.2254 -0.2111
  763MOL0     C 2885   6.625   8.389   7.034 -0.3505 -0.1547 -0.4506
  763MOL0     C 2886   6.664   8.503   7.124  0.2253 -0.1708  0.2494
  763MOL0     N 2887   6.808   8.507   7.147 -0.2959 -0.0422 -0.5819
  763MOL0     C 2888   6.874   8.431   7.235 -0.1856  0.0313  0.1889
  763MOL0     C 2889   7.005   8.461   7.210 -0.3491 -0.3143 -0.2679
  763MOL0     C 2890   7.112   8.395   7.283  0.6648 -0.3275 -0.1790
  763MOL0     C 2891   7.124   8.464   7.427  0.4355 -0.0342 -0.2085
  763MOL0     C 2892   7.206   8.594   7.430  0.3150 -0.9028  1.0814
  763MOL0     C 2893   7.211   8.661   7.574  0.4552 -0.1904  0.1371
  763MOL0     O 2894   7.284   8.578   7.673 -0.0158 -0.2746  1.2770
  763MOL0     C 2895   7.411   8.604   7.701  0.2563  0.4121 -0.4623
  763MOL0     C 2896   7.505   8.678   7.633  0.4671 -0.3998 -0.0460
  763MOL0     C 2897   7.643   8.696   7.670 -0.4086 -1.0328  0.1549
  763MOL0     C 2898   7.678   8.632   7.791 -0.2704  0.6342  0.8453
  763MOL0     C 2899   7.821   8.642   7.845  0.5107 -0.5863  0.0181
  763MOL0     O 2900   7.841   8.615   7.980 -0.2859 -0.0278  0.3116
  763MOL0     C 2901   7.972   8.583   8.023  0.4366 -0.6764 -0.2726
  763MOL0     C 2902   8.059   8.509   7.951 -0.1698  0.5335  0.1482
  763MOL0     C 2903   8.178   8.467   8.016 -0.6071 -0.1916 -0.1454
  763MOL0     C 2904   8.214   8.519   8.149 -0.7424  0.6815  0.3289
  763MOL0     O 2905   8.326   8.490   8.219 -0.2447  0.4009 -0.2332
  763MOL0     C 2906   8.427   8.410   8.150 -0.7946  0.3777  0.5567
  763MOL0     C 2907   8.534   8.376   8.252 -0.7004 -0.1706 -0.5771
  763MOL0     C 2908   8.606   8.505   8.305  0.0550  0.9679 -0.0393
  763MOL0     C 2909   8.709   8.461   8.411  0.2744  0.8368  0.6349
  763MOL0     C 2910   8.763   8.588   8.464  0.6861 -0.5027  0.0048
  763MOL0     C 2911   8.853   8.568   8.589 -0.4324  0.2163  0.5810
  763MOL0     C 2912   8.976   8.484   8.562 -1.0236 -0.4462  0.0315
  763MOL0     C 2913   9.069   8.485   8.689 -0.1272 -0.6599  0.6585
  763MOL0    Cl 2914   8.977   8.401   8.810 -0.2022 -0.6803  0.0592
  763MOL0     C 2915   8.128   8.605   8.210 -0.6112 -1.0081  0.2649
  763MOL0     C 2916   8.005   8.635   8.145 -0.3281 -0.3410 -0.7302
  763MOL0     O 2917   7.901   8.679   7.760  0.3225  0.1430 -0.9351
  763MOL0     C 2918   7.589   8.555   7.858 -0.1169  0.7408 -0.1224
  763MOL0     C 2919   7.451   8.539   7.816 -0.1886  0.8566  0.4303
  763MOL0     N 2920   7.014   8.553   7.104 -0.4398 -0.2238  1.1208
  763MOL0     N 2921   6.896   8.587   7.074 -0.5783  0.0003  0.7281
  763MOL0     C 2922   5.835   7.825   7.208  1.1379  0.1953 -0.2090
  763MOL0     C 2923   5.717   7.810   7.134 -0.0649  0.4513  0.4576
  763MOL0     C 2924   5.458   7.750   6.785 -0.3006  0.2638 -0.6192
  763MOL0     C 2925   5.334   7.814   6.828 -0.6179  1.0597  0.6368
  763MOL0     C 2926   5.208   7.809   6.759  0.1201  0.2905  0.3988
  763MOL0     C 2927   5.217   7.754   6.626 -0.1778  0.5813  0.1477
  763MOL0     O 2928   5.108   7.760   6.541  0.9736 -0.2964 -0.5110
  763MOL0     C 2929   4.995   7.686   6.590 -0.0409  0.4096  0.2850
  763MOL0     C 2930   4.903   7.662   6.470  0.0900 -0.1985 -0.2906
  763MOL0     C 2931   4.976   7.568   6.370 -0.0964  0.1381 -0.2944
  763MOL0     C 2932   4.919   7.582   6.230 -0.0363  0.0728  0.4685
  763MOL0     C 2933   4.803   7.492   6.220  0.6317 -0.3186 -0.7285
  763MOL0     C 2934   4.705   7.419   6.230 -0.0557 -0.5067 -0.3731
  763MOL0     C 2935   5.327   7.674   6.596  0.9371  0.6310 -0.2771
  763MOL0     C 2936   5.445   7.663   6.667 -0.1939 -0.4078  0.2085
  763MOL0     C 2937   5.570   7.584   6.618  0.5317 -0.2715 -0.0806
  763MOL0     H 2938   5.771   8.093   6.939 -0.2774 -2.0878 -1.4397
  763MOL0     H 2939   5.966   8.093   7.057  0.6855 -0.4833  0.6746
  763MOL0     H 2940   6.142   7.759   7.240 -0.5436  0.4517  3.5125
  763MOL0     H 2941   6.148   7.859   7.101  0.6788 -0.5581  0.9969
  763MOL0     H 2942   6.361   7.841   7.197  2.1127 -0.1367  3.3207
  763MOL0     H 2943   6.304   7.889   7.353  1.0768  1.7603  0.8766
  763MOL0     H 2944   6.249   8.118   7.277  2.0446  2.7850 -0.2030
  763MOL0     H 2945   6.264   8.077   7.103  0.8470  0.4017  0.9057
  763MOL0     H 2946   6.460   8.092   7.322 -0.1279  1.4284 -0.1357
  763MOL0     H 2947   6.504   8.024   7.170  3.1265  2.3069  0.2624
  763MOL0     H 2948   6.406   8.233   7.065 -2.3164  0.2121  0.9841
  763MOL0     H 2949   6.447   8.308   7.230 -2.0642  0.1065 -0.5303
  763MOL0     H 2950   6.679   8.248   7.191  0.9267  2.1969 -0.5328
  763MOL0     H 2951   6.652   8.179   7.036  1.9686  1.5275 -0.7473
  763MOL0     H 2952   6.536   8.419   6.977  0.6734  1.8289 -1.1234
  763MOL0     H 2953   6.708   8.365   6.966  1.1900  0.6063  1.0968
  763MOL0     H 2954   6.631   8.600   7.086 -1.1797 -0.8945 -0.4522
  763MOL0     H 2955   6.616   8.487   7.222  0.8538 -2.0856  0.2917
  763MOL0     H 2956   6.839   8.359   7.308 -0.6766 -0.6047 -0.6509
  763MOL0     H 2957   7.090   8.288   7.287 -1.6858  0.1062 -0.0398
  763MOL0     H 2958   7.209   8.406   7.235  0.8535  1.6279  0.5702
  763MOL0     H 2959   7.029   8.501   7.467  0.1387  1.4471 -2.1274
  763MOL0     H 2960   7.165   8.385   7.492 -2.2058  1.2614  3.3544
  763MOL0     H 2961   7.175   8.664   7.352  2.2033 -1.7481 -0.5144
  763MOL0     H 2962   7.307   8.561   7.404  1.2140 -0.2873  3.5422
  763MOL0     H 2963   7.111   8.685   7.612  0.8542 -1.0923  1.8984
  763MOL0     H 2964   7.258   8.759   7.584  1.3746 -0.8489  4.3922
  763MOL0     H 2965   7.482   8.714   7.533 -0.5442  2.7806  1.2019
  763MOL0     H 2966   7.729   8.718   7.607  0.4848 -6.0555 -0.8209
  763MOL0     H 2967   8.022   8.459   7.862  3.6153 -1.3397 -0.5778
  763MOL0     H 2968   8.239   8.411   7.946 -1.3924  1.0085 -1.8557
  763MOL0     H 2969   8.379   8.322   8.107  0.5997  2.0309 -5.2373
  763MOL0     H 2970   8.478   8.451   8.062 -1.8333 -0.1871 -0.3370
  763MOL0     H 2971   8.478   8.327   8.331 -1.8543  2.9522  0.7072
  763MOL0     H 2972   8.608   8.312   8.204  0.5236  0.3612  0.5373
  763MOL0     H 2973   8.655   8.557   8.222  1.5146  0.9481  0.7754
  763MOL0     H 2974   8.529   8.567   8.350  0.3576  0.5411  1.1104
  763MOL0     H 2975   8.796   8.419   8.359  1.1895  2.2221  0.9954
  763MOL0     H 2976   8.668   8.388   8.482 -0.6616 -0.1556 -0.8808
  763MOL0     H 2977   8.694   8.670   8.481  0.7305 -0.8207  2.0024
  763MOL0     H 2978   8.817   8.634   8.381  0.0172 -2.4621 -1.6112
  763MOL0     H 2979   8.873   8.666   8.634 -2.5537  0.4488  1.1387
  763MOL0     H 2980   8.792   8.518   8.666  0.1804  1.2866  1.8041
  763MOL0     H 2981   9.033   8.536   8.485 -1.6792  1.1427  0.5725
  763MOL0     H 2982   8.959   8.381   8.531 -1.6425 -0.8123  1.4818
  763MOL0     H 2983   9.163   8.430   8.678  0.2544 -0.3249  2.0556
  763MOL0     H 2984   9.090   8.590   8.711 -0.9371 -0.4655  0.5419
  763MOL0     H 2985   8.146   8.642   8.310  0.3571  3.1367 -1.2514
  763MOL0     H 2986   7.934   8.701   8.195  0.1560  0.2200 -0.7724
  763MOL0     H 2987   7.622   8.502   7.947 -2.2230  2.3116  1.7100
  763MOL0     H 2988   7.387   8.470   7.868  0.1185  1.1524  1.2114
  763MOL0     H 2989   5.856   7.755   7.288  1.3768 -2.6903 -2.5863
  763MOL0     H 2990   5.645   7.737   7.168  1.6000 -0.7155  1.6584
  763MOL0     H 2991   5.334   7.866   6.923 -1.8509 -0.1008  1.3086
  763MOL0     H 2992   5.114   7.848   6.796 -1.9456  0.8241 -4.6264
  763MOL0     H 2993   4.943   7.741   6.669 -0.0964  2.3744 -1.0297
  763MOL0     H 2994   5.015   7.590   6.637  2.4508  0.2737 -0.9099
  763MOL0     H 2995   4.873   7.756   6.423 -0.0769  0.0791  0.3684
  763MOL0     H 2996   4.820   7.601   6.507  1.3106 -0.3189  2.5034
  763MOL0     H 2997   4.976   7.464   6.404  1.7246 -0.0529 -0.7831
  763MOL0     H 2998   5.082   7.594   6.371  0.5575 -2.2486  0.3233
  763MOL0     H 2999   4.882   7.681   6.201  2.4840  1.1757  0.7071
  763MOL0     H 3000   4.993   7.565   6.151 -0.1629 -1.7483  0.7191
  763MOL0     H 3001   4.622   7.351   6.234  0.8199 -1.5893 -0.1995
  763MOL0     H 3002   5.304   7.622   6.504 -0.6258 -0.5130  0.6963
  763MOL0     H 3003   5.606   7.515   6.695 -2.2669  0.4640  2.0500
  763MOL0     H 3004   5.536   7.530   6.529  0.4744 -0.3639 -0.0030
  763MOL0     H 3005   5.649   7.655   6.592  1.1687 -0.4086  1.3706
  764MOL0     O 3006  11.035   7.201  11.385  0.6287 -0.5869  0.0189
  764MOL0     C 3007  11.018   7.127  11.484 -0.1673 -0.0015 -0.3809
  764MOL0     O 3008  10.958   7.173  11.603 -0.2111  0.1889 -0.1612
  764MOL0     C 3009  10.925   7.301  11.626 -0.0697 -1.0834 -0.3366
  764MOL0     C 3010  10.954   7.349  11.753  0.0215  0.2067  0.2037
  764MOL0     C 3011  10.911   7.479  11.789 -0.5928  0.2104 -0.0042
  764MOL0     C 3012  10.832   7.554  11.712 -0.6997  0.0421  0.3876
  764MOL0     O 3013  10.798   7.685  11.735  0.1786 -0.0657 -0.5790
  764MOL0     C 3014  10.846   7.759  11.859 -0.8272 -0.0458  0.4619
  764MOL0     C 3015  10.987   7.808  11.877 -0.2091  0.6029  0.1134
  764MOL0     C 3016  11.030   7.906  11.768 -0.7667  0.3493  0.3505
  764MOL0     C 3017  11.095   7.824  11.650  1.2094 -0.3228 -0.0261
  764MOL0     C 3018  11.140   7.913  11.540  1.1569 -0.2907  0.6757
  764MOL0     C 3019  11.263   8.003  11.569  0.1295  0.2404  0.4996
  764MOL0     C 3020  11.324   8.074  11.444  1.0322  0.1572  0.0891
  764MOL0     C 3021  11.221   8.169  11.381 -0.1005  0.0220  0.8600
  764MOL0     N 3022  11.289   8.267  11.297  0.6700 -0.3451  0.4130
  764MOL0     C 3023  11.361   8.231  11.187 -0.7249 -0.0780 -1.1778
  764MOL0     C 3024  11.438   8.336  11.163 -0.4427  0.2687 -0.5655
  764MOL0     C 3025  11.547   8.352  11.052  0.0867  0.6282  0.9362
  764MOL0     C 3026  11.683   8.430  11.075  0.0916  0.4663 -0.4456
  764MOL0     C 3027  11.797   8.346  11.141  0.6528  0.0593  0.0250
  764MOL0     C 3028  11.904   8.447  11.183  0.4682  0.5651 -0.6569
  764MOL0     O 3029  12.021   8.373  11.232 -0.4956  0.9163 -0.5296
  764MOL0     C 3030  12.127   8.451  11.258 -0.3008 -0.1469  0.2028
  764MOL0     C 3031  12.227   8.385  11.325  0.2784  0.0536 -0.2121
  764MOL0     C 3032  12.342   8.452  11.369 -0.0784 -1.1584 -0.0831
  764MOL0     C 3033  12.357   8.589  11.342 -1.1172 -0.5460  0.5178
  764MOL0     C 3034  12.481   8.657  11.389  0.0633  0.5687 -0.2988
  764MOL0     O 3035  12.577   8.585  11.442 -0.4816  0.2352  0.1266
  764MOL0     C 3036  12.676   8.655  11.504  0.5640  0.6896 -0.6504
  764MOL0     C 3037  12.795   8.686  11.435  0.0631 -0.2656  1.1022
  764MOL0     C 3038  12.904   8.750  11.500 -0.1352  0.3967  0.2993
  764MOL0     C 3039  12.890   8.784  11.637  0.9309 -0.3206  0.2427
  764MOL0     O 3040  12.992   8.823  11.717  0.4592 -0.3777  0.0715
  764MOL0     C 3041  13.105   8.872  11.659  0.7350 -0.1788 -1.0811
  764MOL0     C 3042  13.197   8.921  11.763 -0.6817  0.7510 -0.0617
  764MOL0     C 3043  13.277   8.814  11.840 -0.0349 -0.3928 -0.5536
  764MOL0     C 3044  13.351   8.860  11.970 -0.2494 -0.2973 -0.3044
  764MOL0     C 3045  13.452   8.964  11.936  0.4945 -0.5353 -0.4160
  764MOL0     C 3046  13.545   8.969  12.051 -0.4560 -0.1093 -0.4317
  764MOL0     C 3047  13.658   9.076  12.040  0.4737  0.1772  0.7544
  764MOL0     C 3048  13.715   9.103  12.174 -0.6858 -0.0561 -1.1423
  764MOL0    Cl 3049  13.791   8.955  12.245 -0.0002  0.1320  0.0386
  764MOL0     C 3050  12.765   8.768  11.705  0.1778 -0.3007 -0.2793
  764MOL0     C 3051  12.658   8.708  11.640 -0.4521  0.4037 -0.4372
  764MOL0     O 3052  12.479   8.779  11.376  0.6685  0.1549  0.1928
  764MOL0     C 3053  12.257   8.660  11.278  0.4696  0.1939 -0.2020
  764MOL0     C 3054  12.140   8.588  11.236 -0.3965  0.0111  0.1347
  764MOL0     N 3055  11.409   8.434  11.256  0.1144 -0.7602  0.1983
  764MOL0     N 3056  11.317   8.390  11.332  0.1266 -0.1008  0.1125
  764MOL0     C 3057  10.800   7.509  11.588  0.1429  0.3710  0.1299
  764MOL0     C 3058  10.846   7.386  11.537 -0.3669  0.5610 -0.2723
  764MOL0     C 3059  11.063   6.983  11.472 -0.0815 -0.3733 -0.6757
  764MOL0     C 3060  11.051   6.929  11.342  0.0230  0.4043 -0.3577
  764MOL0     C 3061  11.103   6.796  11.325 -0.4117  0.2554  0.3944
  764MOL0     C 3062  11.148   6.722  11.427  0.1881 -0.5214  0.7491
  764MOL0     O 3063  11.198   6.595  11.401  0.2358 -0.1981  0.2919
  764MOL0     C 3064  11.213   6.501  11.508  0.0087 -0.6667 -0.1556
  764MOL0     C 3065  11.212   6.363  11.451 -0.2919  0.8850 -0.9606
  764MOL0     C 3066  11.087   6.345  11.370  0.0104  0.5372 -0.5497
  764MOL0     C 3067  11.062   6.196  11.351 -0.0782  0.4146 -0.6121
  764MOL0     C 3068  10.931   6.176  11.294 -0.7772  0.0028 -0.2862
  764MOL0     C 3069  10.818   6.170  11.250 -0.2455  0.0759  0.5278
  764MOL0     C 3070  11.136   6.773  11.561 -0.2240  0.2181  0.8360
  764MOL0     C 3071  11.109   6.910  11.576  0.3130  0.3597 -0.6558
  764MOL0     C 3072  11.140   6.967  11.715 -0.1962 -0.0525 -0.5679
  764MOL0     H 3073  11.020   7.292  11.818  0.9552  1.2694  0.2163
  764MOL0     H 3074  10.930   7.513  11.890 -2.1128 -3.2998  1.6679
  764MOL0     H 3075  10.782   7.847  11.858 -0.5249  0.1729 -0.7224
  764MOL0     H 3076  10.832   7.704  11.953  0.5970  1.5199  1.6672
  764MOL0     H 3077  11.056   7.723  11.880 -1.0588 -0.0868  0.6651
  764MOL0     H 3078  10.996   7.857  11.974  1.4568 -2.0748  1.4344
  764MOL0     H 3079  11.116   7.953  11.815  1.1244 -0.4970 -2.0299
  764MOL0     H 3080  10.956   7.979  11.735 -1.7820 -1.1724 -0.9043
  764MOL0     H 3081  11.187   7.785  11.694 -0.3091 -1.2907  2.5102
  764MOL0     H 3082  11.031   7.743  11.615  2.0757 -1.7373  1.5212
  764MOL0     H 3083  11.161   7.860  11.447  0.8594  1.6008 -0.5225
  764MOL0     H 3084  11.055   7.976  11.514  0.6346 -1.3050 -0.1235
  764MOL0     H 3085  11.229   8.069  11.649 -0.6330 -0.4063  0.7284
  764MOL0     H 3086  11.338   7.941  11.618 -0.4481  0.1988  1.3437
  764MOL0     H 3087  11.355   7.999  11.371 -1.2735  0.0008 -0.8005
  764MOL0     H 3088  11.408   8.134  11.479  2.6491 -1.2289 -1.2542
  764MOL0     H 3089  11.142   8.132  11.315  0.3826 -0.0530  0.3073
  764MOL0     H 3090  11.163   8.224  11.455 -2.3364 -0.8649 -0.1392
  764MOL0     H 3091  11.363   8.137  11.133 -0.6227  0.5038 -2.2220
  764MOL0     H 3092  11.548   8.261  10.993 -3.4190 -0.4270  2.2380
  764MOL0     H 3093  11.492   8.416  10.982  0.1985 -0.1535  0.1209
  764MOL0     H 3094  11.708   8.462  10.973  0.5202  1.2608 -0.1050
  764MOL0     H 3095  11.648   8.512  11.138 -0.2244 -2.5305  3.7018
  764MOL0     H 3096  11.829   8.266  11.074 -0.4483 -0.3954  0.0110
  764MOL0     H 3097  11.757   8.300  11.232 -0.5952  0.1043 -0.4745
  764MOL0     H 3098  11.863   8.506  11.265  0.9743 -1.7517  1.3947
  764MOL0     H 3099  11.933   8.505  11.095 -2.2981  0.2766 -1.8623
  764MOL0     H 3100  12.222   8.279  11.348 -1.2777  0.4011  1.1805
  764MOL0     H 3101  12.414   8.399  11.429  0.9058 -1.8018 -1.7567
  764MOL0     H 3102  12.802   8.657  11.330 -3.3352 -0.0165  0.7118
  764MOL0     H 3103  12.998   8.764  11.448 -0.3494 -2.5389 -1.0882
  764MOL0     H 3104  13.149   8.807  11.582  0.9495  0.7384 -1.7553
  764MOL0     H 3105  13.073   8.955  11.596 -0.7855 -0.0485 -0.1877
  764MOL0     H 3106  13.267   8.983  11.706  0.0639  2.4722  2.5393
  764MOL0     H 3107  13.149   8.989  11.834 -1.3258  0.7848 -0.5183
  764MOL0     H 3108  13.208   8.734  11.869 -0.1788 -0.0339  0.1091
  764MOL0     H 3109  13.356   8.773  11.776  2.0136 -0.8014  2.0426
  764MOL0     H 3110  13.402   8.773  12.012  0.5663  0.8556  1.2055
  764MOL0     H 3111  13.279   8.902  12.041  2.5330  0.9982  1.9551
  764MOL0     H 3112  13.403   9.060  11.918 -0.9923 -0.8923  1.4317
  764MOL0     H 3113  13.509   8.947  11.844  0.2927  2.6671 -1.2565
  764MOL0     H 3114  13.484   8.989  12.139 -0.4057 -0.5108 -0.3039
  764MOL0     H 3115  13.595   8.873  12.067  1.8852  1.3801  2.1488
  764MOL0     H 3116  13.621   9.162  11.984 -1.3439 -1.8861 -1.4581
  764MOL0     H 3117  13.733   9.020  11.985 -1.3068 -1.9699  0.3574
  764MOL0     H 3118  13.783   9.189  12.166 -2.0360  1.0616 -1.0573
  764MOL0     H 3119  13.634   9.123  12.245 -1.4087 -1.1367 -1.6493
  764MOL0     H 3120  12.757   8.800  11.809  2.3004  0.9666 -0.4559
  764MOL0     H 3121  12.566   8.692  11.696 -0.5331 -1.4551 -1.0541
  764MOL0     H 3122  12.248   8.766  11.261 -0.1892  0.1280 -0.2937
  764MOL0     H 3123  12.060   8.640  11.183 -1.6779 -0.5037  1.4909
  764MOL0     H 3124  10.739   7.571  11.522 -0.4180  1.5093  1.6441
  764MOL0     H 3125  10.826   7.352  11.436  0.8664  1.6361 -0.9012
  764MOL0     H 3126  11.010   6.969  11.250 -0.6647 -0.7938 -0.5956
  764MOL0     H 3127  11.103   6.755  11.225  1.6043 -0.3463  0.6030
  764MOL0     H 3128  11.128   6.497  11.578  1.0259  0.3298  1.1900
  764MOL0     H 3129  11.301   6.519  11.570  0.0102  0.2111 -0.4095
  764MOL0     H 3130  11.233   6.281  11.519  2.6718 -0.1999 -2.9634
  764MOL0     H 3131  11.297   6.345  11.384 -0.8411  1.7351 -1.9262
  764MOL0     H 3132  11.107   6.394  11.274  2.3628 -0.4956 -0.6656
  764MOL0     H 3133  11.003   6.375  11.432 -0.9198 -0.5978 -1.2235
  764MOL0     H 3134  11.139   6.166  11.279 -1.6205  2.6298 -3.4054
  764MOL0     H 3135  11.075   6.151  11.449 -1.0355  0.0628 -0.6279
  764MOL0     H 3136  10.713   6.176  11.229 -0.7888  2.3178  3.2298
  764MOL0     H 3137  11.156   6.727  11.657 -0.1806 -0.7043  0.4061
  764MOL0     H 3138  11.152   7.074  11.697 -0.4911  0.3460  1.3229
  764MOL0     H 3139  11.059   6.954  11.788  0.2700 -0.5731 -0.1356
  764MOL0     H 3140  11.233   6.925  11.753 -0.9316 -2.1396 -0.9209
  765MOL0     O 3141   5.521   2.876   8.994 -0.2407 -0.0512 -0.1191
  765MOL0     C 3142   5.638   2.902   8.975 -0.0145 -0.9829 -0.4443
  765MOL0     O 3143   5.687   2.953   8.860 -0.3082  0.0151 -0.8309
  765MOL0     C 3144   5.600   2.990   8.764 -0.1189  0.1895  0.6079
  765MOL0     C 3145   5.565   2.915   8.644 -0.0490 -0.8799 -0.3118
  765MOL0     C 3146   5.469   2.963   8.547 -0.5208  0.6922  0.3846
  765MOL0     C 3147   5.413   3.090   8.566  0.2901  0.2091 -0.6829
  765MOL0     O 3148   5.335   3.160   8.475 -0.0556  0.0766  0.4992
  765MOL0     C 3149   5.276   3.085   8.357 -0.6646  0.1684  0.7807
  765MOL0     C 3150   5.384   3.070   8.237  0.3132  0.4213 -0.0146
  765MOL0     C 3151   5.311   3.094   8.109  0.4774 -0.0305  0.0357
  765MOL0     C 3152   5.396   3.112   7.987 -0.9072 -0.2654  0.4722
  765MOL0     C 3153   5.338   3.092   7.850 -0.5200  0.3033  0.5566
  765MOL0     C 3154   5.287   2.959   7.814  0.0015  0.1869 -0.8598
  765MOL0     C 3155   5.263   2.934   7.667  0.1517 -0.3085  0.4850
  765MOL0     C 3156   5.142   3.012   7.603  0.2707 -0.1287  0.8660
  765MOL0     N 3157   5.008   2.963   7.639  1.0618  0.2078  0.8809
  765MOL0     C 3158   4.947   2.896   7.541  0.0169  1.0276 -0.2088
  765MOL0     C 3159   4.812   2.897   7.590 -0.2146 -0.3931 -0.1429
  765MOL0     C 3160   4.693   2.875   7.503  0.4890 -0.1420  0.3135
  765MOL0     C 3161   4.658   2.727   7.510  0.7222 -0.5230 -0.5168
  765MOL0     C 3162   4.749   2.647   7.419  0.1534 -0.4821 -0.3009
  765MOL0     C 3163   4.730   2.498   7.449 -0.2515 -0.7002  0.0883
  765MOL0     O 3164   4.776   2.425   7.339  0.5358  0.4535 -0.1266
  765MOL0     C 3165   4.915   2.389   7.340 -0.5350 -0.1674  0.4441
  765MOL0     C 3166   4.992   2.403   7.219  0.4595  0.1255 -1.2883
  765MOL0     C 3167   5.113   2.338   7.207 -0.4291 -0.2458 -0.6831
  765MOL0     C 3168   5.165   2.265   7.315 -0.6034  0.3700 -0.3213
  765MOL0     C 3169   5.297   2.196   7.308  0.8080  0.9148  0.7057
  765MOL0     O 3170   5.346   2.182   7.183  0.0657 -0.1173  0.6296
  765MOL0     C 3171   5.484   2.145   7.172 -0.0539  0.4244 -1.8282
  765MOL0     C 3172   5.587   2.211   7.240  0.1013 -0.1631  0.1712
  765MOL0     C 3173   5.720   2.171   7.234  1.2616  0.5393  0.0051
  765MOL0     C 3174   5.755   2.070   7.147 -0.9494 -0.4446  0.3559
  765MOL0     O 3175   5.878   2.024   7.117  0.4900  0.1070  1.0294
  765MOL0     C 3176   5.970   2.123   7.077 -0.7673 -0.2940  1.1444
  765MOL0     C 3177   6.110   2.061   7.081  0.3462  0.1458 -0.2660
  765MOL0     C 3178   6.130   1.942   6.985 -0.4744  0.5572 -0.1363
  765MOL0     C 3179   6.272   1.882   6.992  0.8714 -0.1738  0.2371
  765MOL0     C 3180   6.328   1.789   6.876  0.3481 -0.2195  0.0142
  765MOL0     C 3181   6.479   1.774   6.869 -0.5190  0.5269 -0.4557
  765MOL0     C 3182   6.535   1.682   6.755  0.3583 -0.3650 -0.0405
  765MOL0     C 3183   6.456   1.707   6.627  0.6673  0.2139 -0.1519
  765MOL0    Cl 3184   6.539   1.621   6.491  0.0623 -0.1886  0.2958
  765MOL0     C 3185   5.653   2.002   7.079  0.6403 -1.0434  0.6565
  765MOL0     C 3186   5.518   2.033   7.092 -0.3486 -0.6203  0.1687
  765MOL0     O 3187   5.354   2.167   7.408 -0.9149  0.1096  0.8860
  765MOL0     C 3188   5.093   2.257   7.436 -0.2040  0.7622 -0.1823
  765MOL0     C 3189   4.978   2.324   7.448  0.2971  0.3197  0.3181
  765MOL0     N 3190   4.813   2.955   7.720 -0.1447 -0.8079  0.2483
  765MOL0     N 3191   4.934   2.997   7.746 -0.2914 -0.2481  0.8284
  765MOL0     C 3192   5.444   3.159   8.680  0.1781  0.6329  0.4123
  765MOL0     C 3193   5.533   3.113   8.783 -0.5827 -0.2092  0.3511
  765MOL0     C 3194   5.740   2.894   9.085 -0.3985  0.1279 -0.7738
  765MOL0     C 3195   5.687   2.905   9.215  0.4287  0.6962  0.3406
  765MOL0     C 3196   5.772   2.889   9.328  0.4306  0.1511 -0.3395
  765MOL0     C 3197   5.910   2.872   9.310  0.0392 -0.2677  0.0854
  765MOL0     O 3198   5.989   2.857   9.421  0.1597  0.6061 -0.2144
  765MOL0     C 3199   6.109   2.787   9.404  0.0432  0.0374 -0.5652
  765MOL0     C 3200   6.149   2.733   9.532 -0.5162 -0.4213 -0.4773
  765MOL0     C 3201   6.291   2.678   9.526 -0.7721 -0.2675 -0.9609
  765MOL0     C 3202   6.361   2.642   9.657 -0.2369 -0.4219  0.5273
  765MOL0     C 3203   6.393   2.766   9.734 -0.2399 -0.6043  0.9210
  765MOL0     C 3204   6.427   2.876   9.780  0.5182 -0.0607  0.2412
  765MOL0     C 3205   5.964   2.862   9.182 -0.1106 -0.4488 -0.1515
  765MOL0     C 3206   5.882   2.870   9.065 -0.2279 -0.2530 -0.3612
  765MOL0     C 3207   5.950   2.856   8.934  0.3613  0.0651 -0.0098
  765MOL0     H 3208   5.607   2.816   8.628 -1.3199 -1.0886 -2.6996
  765MOL0     H 3209   5.441   2.902   8.462  3.2092 -2.5142  1.1612
  765MOL0     H 3210   5.243   2.988   8.395 -0.8111 -0.0424  0.1272
  765MOL0     H 3211   5.190   3.136   8.313 -1.3867 -1.1730  0.6084
  765MOL0     H 3212   5.431   2.972   8.247  0.1836  0.4111  0.5685
  765MOL0     H 3213   5.462   3.143   8.259 -0.9480  1.8042  0.0821
  765MOL0     H 3214   5.252   3.186   8.108 -1.2346 -1.0559 -2.6719
  765MOL0     H 3215   5.241   3.011   8.101 -0.1978  0.7168 -4.6612
  765MOL0     H 3216   5.440   3.212   7.990  1.4859 -0.9887 -3.6866
  765MOL0     H 3217   5.482   3.045   7.989  0.9885  1.9009 -1.7498
  765MOL0     H 3218   5.259   3.166   7.832  0.0777  0.2451 -3.0542
  765MOL0     H 3219   5.408   3.124   7.773  1.1165  0.2800  1.9939
  765MOL0     H 3220   5.353   2.880   7.850 -1.2969 -1.4712 -1.9359
  765MOL0     H 3221   5.187   2.946   7.857  0.6063  1.3297  0.9716
  765MOL0     H 3222   5.238   2.829   7.649  0.6166  0.0670 -2.8381
  765MOL0     H 3223   5.352   2.950   7.606 -0.3570 -0.5740 -0.3341
  765MOL0     H 3224   5.153   3.115   7.636 -2.1942  0.5376 -0.1350
  765MOL0     H 3225   5.146   3.025   7.494  2.1038  0.1720  0.9387
  765MOL0     H 3226   4.982   2.875   7.441  1.8781  1.9190  0.2186
  765MOL0     H 3227   4.609   2.940   7.531 -0.1236  1.3274 -4.1808
  765MOL0     H 3228   4.726   2.905   7.403  0.0344  1.3483  0.5748
  765MOL0     H 3229   4.657   2.695   7.615 -1.4913  0.5664 -0.1385
  765MOL0     H 3230   4.554   2.718   7.479  0.0815  0.2804  1.2159
  765MOL0     H 3231   4.851   2.681   7.438  0.2346  0.0077 -1.5254
  765MOL0     H 3232   4.723   2.659   7.314  1.7469 -0.6464 -0.7362
  765MOL0     H 3233   4.621   2.494   7.454 -0.4602  2.6120 -0.0258
  765MOL0     H 3234   4.773   2.469   7.546  1.5182  1.6995  0.1121
  765MOL0     H 3235   4.952   2.457   7.134 -0.4694 -2.0153 -2.2902
  765MOL0     H 3236   5.164   2.340   7.111 -0.8775 -0.0670 -0.9215
  765MOL0     H 3237   5.557   2.299   7.296 -1.4073  1.3223 -2.7283
  765MOL0     H 3238   5.802   2.223   7.282  0.9164  0.9095  0.1993
  765MOL0     H 3239   5.943   2.156   6.976 -0.2643 -1.6105  0.5630
  765MOL0     H 3240   5.958   2.214   7.137 -2.6717  0.3044 -0.0487
  765MOL0     H 3241   6.186   2.133   7.053  2.1381 -0.7934  1.8862
  765MOL0     H 3242   6.125   2.026   7.184  1.4784 -1.3582 -0.9177
  765MOL0     H 3243   6.051   1.868   7.003 -2.0718  0.8147 -4.8136
  765MOL0     H 3244   6.110   1.993   6.890  1.9452  0.7433 -0.6042
  765MOL0     H 3245   6.275   1.829   7.088  0.0539  0.0981  0.4227
  765MOL0     H 3246   6.339   1.968   7.001 -0.2597  0.7472  0.1476
  765MOL0     H 3247   6.288   1.820   6.779  0.1385 -2.7593 -0.7856
  765MOL0     H 3248   6.294   1.686   6.892 -2.0217  0.3450 -0.8770
  765MOL0     H 3249   6.526   1.868   6.841 -1.0093  0.7591 -0.5022
  765MOL0     H 3250   6.523   1.744   6.964  1.6160  1.6229 -1.0480
  765MOL0     H 3251   6.521   1.579   6.788 -4.3978  0.3146  0.8494
  765MOL0     H 3252   6.641   1.709   6.747  0.6600 -1.9538 -2.2844
  765MOL0     H 3253   6.362   1.656   6.647  0.3477  0.8123 -0.0952
  765MOL0     H 3254   6.444   1.810   6.592 -1.5714 -0.1847 -0.6938
  765MOL0     H 3255   5.685   1.923   7.011  1.1763 -0.8074  0.6287
  765MOL0     H 3256   5.451   1.968   7.038  1.8759 -2.0643 -1.0061
  765MOL0     H 3257   5.129   2.192   7.515  0.8108 -0.9482 -1.9476
  765MOL0     H 3258   4.936   2.312   7.547  2.8803  1.2858  1.6543
  765MOL0     H 3259   5.404   3.258   8.699  2.2470  1.6169 -0.0706
  765MOL0     H 3260   5.543   3.173   8.873  2.9092  1.2991 -0.8810
  765MOL0     H 3261   5.585   2.938   9.234  0.9631  1.2637  2.5728
  765MOL0     H 3262   5.729   2.895   9.428  1.5997 -1.3229  0.2971
  765MOL0     H 3263   6.189   2.850   9.365  2.2051 -1.2430  1.5394
  765MOL0     H 3264   6.099   2.703   9.334  0.5797  0.3389 -1.0063
  765MOL0     H 3265   6.076   2.658   9.563  0.0915  0.3121  3.1495
  765MOL0     H 3266   6.146   2.817   9.602  2.5650  0.1583 -0.8795
  765MOL0     H 3267   6.356   2.750   9.474  1.3226 -2.4039 -1.4714
  765MOL0     H 3268   6.297   2.603   9.447 -2.8392 -2.4341  0.7992
  765MOL0     H 3269   6.293   2.573   9.710 -2.5679 -0.7512 -2.5844
  765MOL0     H 3270   6.452   2.583   9.641 -1.3967 -1.8088 -1.4135
  765MOL0     H 3271   6.447   2.972   9.821 -0.7099 -0.6222  2.2732
  765MOL0     H 3272   6.070   2.843   9.168 -0.4430 -5.4228  2.0463
  765MOL0     H 3273   6.042   2.799   8.950  1.3482  1.4845 -0.4467
  765MOL0     H 3274   5.889   2.815   8.853 -0.0157  0.3977  0.1049
  765MOL0     H 3275   5.975   2.951   8.886  0.3877 -0.0507 -0.2282
  766MOL0     O 3276   8.193   2.084  11.376 -0.0225  0.5262  0.4408
  766MOL0     C 3277   8.094   2.142  11.333  0.2225 -0.4908 -0.2111
  766MOL0     O 3278   8.084   2.271  11.296 -0.2572  0.5661 -0.1012
  766MOL0     C 3279   8.203   2.341  11.293 -0.4320  0.5167 -0.4261
  766MOL0     C 3280   8.297   2.305  11.198  0.0702 -0.0608 -0.6104
  766MOL0     C 3281   8.417   2.378  11.194  1.0845 -0.0195 -0.1675
  766MOL0     C 3282   8.412   2.511  11.252  0.3471  0.8356 -0.2650
  766MOL0     O 3283   8.516   2.598  11.240 -0.4378  0.2209 -0.1208
  766MOL0     C 3284   8.620   2.549  11.156  1.0245  0.0382 -0.2125
  766MOL0     C 3285   8.717   2.663  11.171 -0.0146  0.3813 -0.5649
  766MOL0     C 3286   8.824   2.673  11.058 -0.3881  0.6903  0.9507
  766MOL0     C 3287   8.871   2.819  11.061 -0.4585  0.5315 -0.4349
  766MOL0     C 3288   9.010   2.821  10.975 -0.4259  0.1883  0.5217
  766MOL0     C 3289   9.064   2.970  10.944 -0.2569  0.2605  0.5182
  766MOL0     C 3290   9.216   2.969  10.936 -0.0871  0.4355  0.1326
  766MOL0     C 3291   9.276   3.102  10.893  0.6141  0.8787 -0.2681
  766MOL0     N 3292   9.416   3.081  10.854  0.2231  0.3632 -0.2014
  766MOL0     C 3293   9.455   3.096  10.725  0.1397  0.6693  0.2910
  766MOL0     C 3294   9.593   3.099  10.732  0.4176 -0.3414  0.1352
  766MOL0     C 3295   9.688   3.132  10.614  0.0974  0.2065 -1.2673
  766MOL0     C 3296   9.815   3.053  10.604 -0.0318 -0.7198  0.2057
  766MOL0     C 3297   9.910   3.100  10.706 -0.2980 -0.0868 -0.4497
  766MOL0     C 3298  10.033   3.019  10.697  0.0252 -0.0497 -0.1555
  766MOL0     O 3299  10.118   3.088  10.787 -0.7541  0.4724  0.2762
  766MOL0     C 3300  10.260   3.075  10.753 -0.8191  0.1006  0.6207
  766MOL0     C 3301  10.321   2.960  10.701 -0.7256  0.5631  0.4072
  766MOL0     C 3302  10.456   2.961  10.665 -0.5956 -0.3622  0.5575
  766MOL0     C 3303  10.533   3.076  10.677 -0.8677  0.1465 -0.5001
  766MOL0     C 3304  10.675   3.066  10.634  0.0846  0.6050  0.5288
  766MOL0     O 3305  10.735   2.941  10.615  0.3654 -0.0877 -0.2016
  766MOL0     C 3306  10.873   2.941  10.599  0.8138  0.0858 -0.2958
  766MOL0     C 3307  10.951   2.878  10.694 -0.8732  0.2187  0.6675
  766MOL0     C 3308  11.090   2.890  10.695  0.2654  0.1041 -0.0535
  766MOL0     C 3309  11.154   2.955  10.582 -1.2637 -0.1171  0.9360
  766MOL0     O 3310  11.284   2.950  10.542  0.2389  0.6857 -0.4221
  766MOL0     C 3311  11.377   2.954  10.656  0.1078 -0.5212  0.2022
  766MOL0     C 3312  11.502   2.867  10.625  0.3911 -0.3763  0.4912
  766MOL0     C 3313  11.559   2.890  10.491  0.0890 -0.1395  0.6911
  766MOL0     C 3314  11.632   3.026  10.501 -0.7427 -1.0678  0.1784
  766MOL0     C 3315  11.704   3.048  10.365  0.6172  0.3680 -0.4163
  766MOL0     C 3316  11.801   3.169  10.379  0.0862  0.1251  0.4295
  766MOL0     C 3317  11.890   3.180  10.254 -0.4296  0.4285 -0.3098
  766MOL0     C 3318  11.937   3.322  10.245 -0.3380 -0.2455  0.4451
  766MOL0    Cl 3319  11.992   3.402  10.398  0.2907  0.0732 -0.3022
  766MOL0     C 3320  11.072   3.019  10.484 -0.0013  0.0991 -0.0418
  766MOL0     C 3321  10.933   3.007  10.494 -0.0246 -0.5398 -0.2240
  766MOL0     O 3322  10.737   3.167  10.637  0.4159 -0.2985 -0.6646
  766MOL0     C 3323  10.472   3.190  10.730 -0.1424 -0.3866 -0.1044
  766MOL0     C 3324  10.345   3.183  10.774  0.3119  0.3844  0.5229
  766MOL0     N 3325   9.632   3.080  10.863 -0.0821  0.1991  0.0263
  766MOL0     N 3326   9.528   3.062  10.933 -0.4609  0.2680 -0.1482
  766MOL0     C 3327   8.304   2.552  11.334  0.3822  0.1497 -0.3467
  766MOL0     C 3328   8.202   2.464  11.355 -0.7932 -0.0980 -0.2060
  766MOL0     C 3329   7.970   2.069  11.319 -0.0457 -0.5165 -0.5102
  766MOL0     C 3330   7.856   2.137  11.339  0.6242  0.3721  1.0751
  766MOL0     C 3331   7.734   2.070  11.351 -0.2435 -0.5492  0.1155
  766MOL0     C 3332   7.724   1.931  11.334 -0.3928 -0.5308  0.3939
  766MOL0     O 3333   7.604   1.870  11.343 -1.2261 -0.3791  0.0366
  766MOL0     C 3334   7.592   1.737  11.385 -0.0513  1.0363 -0.3956
  766MOL0     C 3335   7.458   1.717  11.466  0.1639  0.1189  0.4072
  766MOL0     C 3336   7.336   1.759  11.375 -0.3017  0.6142  0.0195
  766MOL0     C 3337   7.329   1.681  11.241  0.5989  0.2534  0.5326
  766MOL0     C 3338   7.309   1.535  11.256 -0.0861 -0.7059 -0.0751
  766MOL0     C 3339   7.280   1.422  11.285 -0.6060  0.7951 -0.1770
  766MOL0     C 3340   7.845   1.870  11.296 -0.9488 -0.4496 -0.1016
  766MOL0     C 3341   7.968   1.935  11.294  0.2150  0.1420  0.6019
  766MOL0     C 3342   8.091   1.841  11.265 -0.2145 -0.3986  0.2053
  766MOL0     H 3343   8.287   2.209  11.147  0.7443 -1.1387  1.1710
  766MOL0     H 3344   8.496   2.344  11.128  2.2621  1.0344  0.6458
  766MOL0     H 3345   8.655   2.455  11.201  3.9329  1.5945  1.0332
  766MOL0     H 3346   8.594   2.540  11.050 -1.2371 -0.8009  0.3504
  766MOL0     H 3347   8.755   2.663  11.273 -2.2535 -1.0311  0.3239
  766MOL0     H 3348   8.659   2.755  11.162 -2.4013 -1.0631 -0.5588
  766MOL0     H 3349   8.774   2.651  10.963  0.2248  0.9784  0.5472
  766MOL0     H 3350   8.905   2.603  11.079 -0.5351  0.4761  0.7989
  766MOL0     H 3351   8.796   2.890  11.023  0.1944  1.9068  0.7713
  766MOL0     H 3352   8.903   2.846  11.161  0.4557  0.8945 -0.8229
  766MOL0     H 3353   9.081   2.778  11.046 -2.0175 -3.2432  0.2510
  766MOL0     H 3354   9.008   2.766  10.881  1.3620  0.2895  0.3924
  766MOL0     H 3355   9.014   3.008  10.854 -1.1479  1.0991  1.3425
  766MOL0     H 3356   9.028   3.025  11.031 -1.9613  0.4536 -0.2622
  766MOL0     H 3357   9.250   2.891  10.867 -2.4645 -0.8754  0.3150
  766MOL0     H 3358   9.251   2.942  11.036  0.0481 -3.7473 -0.8465
  766MOL0     H 3359   9.212   3.142  10.813 -0.3743  2.0513  1.0490
  766MOL0     H 3360   9.273   3.186  10.963  1.5071  1.2909 -0.6976
  766MOL0     H 3361   9.402   3.108  10.631  3.2382 -1.6572 -1.9572
  766MOL0     H 3362   9.626   3.108  10.527 -1.5486 -0.9794  0.1704
  766MOL0     H 3363   9.707   3.239  10.606 -0.1902  0.3019 -0.7097
  766MOL0     H 3364   9.794   2.947  10.619  3.4421 -1.3962  1.2238
  766MOL0     H 3365   9.854   3.077  10.505 -2.0504 -0.1358 -0.4919
  766MOL0     H 3366   9.877   3.086  10.809  0.2797  1.2388 -0.0525
  766MOL0     H 3367   9.934   3.207  10.695  0.4150 -0.0705  0.9996
  766MOL0     H 3368  10.058   3.028  10.591  0.4999  3.2944  0.1448
  766MOL0     H 3369  10.017   2.915  10.728 -0.4528 -0.5086 -1.8188
  766MOL0     H 3370  10.261   2.873  10.678 -0.0622  0.1929  0.0509
  766MOL0     H 3371  10.498   2.866  10.633 -1.3075 -1.2198  2.0816
  766MOL0     H 3372  10.898   2.817  10.767 -3.4566 -1.3506 -2.2822
  766MOL0     H 3373  11.144   2.844  10.777 -1.1121  0.6920  1.2237
  766MOL0     H 3374  11.412   3.058  10.664  0.5894 -0.3953 -2.5675
  766MOL0     H 3375  11.339   2.930  10.756  1.7560  0.6963  1.1878
  766MOL0     H 3376  11.579   2.875  10.702 -0.4389 -0.9628  1.4019
  766MOL0     H 3377  11.455   2.769  10.628 -0.7702  0.1208 -0.6375
  766MOL0     H 3378  11.618   2.801  10.466  1.5930  0.9213  0.3472
  766MOL0     H 3379  11.478   2.888  10.417  0.6029  1.1588  0.0685
  766MOL0     H 3380  11.703   3.018  10.584 -2.5877 -0.8257  1.8454
  766MOL0     H 3381  11.560   3.106  10.517 -0.7648 -0.6907 -1.5488
  766MOL0     H 3382  11.635   3.059  10.281 -0.4793 -0.3505  0.3730
  766MOL0     H 3383  11.757   2.956  10.339 -0.3772  0.1487 -1.7434
  766MOL0     H 3384  11.748   3.261  10.405  0.1524 -0.2186  1.8221
  766MOL0     H 3385  11.873   3.137  10.455 -0.9940 -2.6781  0.3915
  766MOL0     H 3386  11.844   3.169  10.155 -0.5182  2.5511 -0.5385
  766MOL0     H 3387  11.968   3.106  10.275 -1.4324  0.0272  2.3990
  766MOL0     H 3388  12.019   3.328  10.172 -0.4268 -2.8858  0.0465
  766MOL0     H 3389  11.854   3.380  10.204 -0.4155 -0.5269  0.2025
  766MOL0     H 3390  11.105   3.062  10.390  2.1148  1.0194  1.0479
  766MOL0     H 3391  10.865   3.051  10.422  0.9362  1.6848  0.1196
  766MOL0     H 3392  10.538   3.273  10.755 -0.8462 -0.2030  1.2210
  766MOL0     H 3393  10.305   3.267  10.829  2.6834  1.7736  0.2372
  766MOL0     H 3394   8.294   2.647  11.386 -1.3072 -0.0763 -0.2018
  766MOL0     H 3395   8.117   2.498  11.414  0.8379  0.3615  2.0158
  766MOL0     H 3396   7.853   2.245  11.356  1.7796  0.8622 -1.3219
  766MOL0     H 3397   7.637   2.117  11.364 -1.3830 -1.8403 -2.9009
  766MOL0     H 3398   7.667   1.713  11.461 -2.2723 -0.0132  1.5886
  766MOL0     H 3399   7.618   1.654  11.320 -0.3195 -1.6540  2.6638
  766MOL0     H 3400   7.440   1.784  11.550 -1.2161  2.9823 -1.9683
  766MOL0     H 3401   7.447   1.614  11.500 -3.5447  0.5055  0.8083
  766MOL0     H 3402   7.336   1.865  11.348 -2.3513  0.2280 -1.7007
  766MOL0     H 3403   7.239   1.753  11.425 -0.6090 -0.0907 -0.6505
  766MOL0     H 3404   7.251   1.728  11.181  1.5353  2.6865  1.0963
  766MOL0     H 3405   7.416   1.702  11.178  0.9434 -1.8119  0.2354
  766MOL0     H 3406   7.235   1.328  11.305  0.8887  0.0550 -0.1582
  766MOL0     H 3407   7.833   1.764  11.273  2.2601 -0.7497 -0.9362
  766MOL0     H 3408   8.161   1.898  11.203 -0.6608 -0.4996 -0.3932
  766MOL0     H 3409   8.134   1.796  11.355 -1.7315 -3.0351 -0.2969
  766MOL0     H 3410   8.065   1.758  11.199  0.5325 -1.9922  1.8174
  767MOL0     O 3411   7.090   3.578   0.165 -0.1487  0.0797 -0.7095
  767MOL0     C 3412   7.118   3.555   0.045  2.0280  0.2734  0.3273
  767MOL0     O 3413   7.224   3.586  -0.033 -0.1961 -0.7859  0.9313
  767MOL0     C 3414   7.316   3.672   0.012  0.1442  0.2590 -0.4138
  767MOL0     C 3415   7.444   3.648  -0.037 -0.7028  0.4455 -0.2376
  767MOL0     C 3416   7.547   3.737  -0.010 -0.1672 -0.8357  0.1938
  767MOL0     C 3417   7.529   3.838   0.075  0.1201  0.0815 -0.5939
  767MOL0     O 3418   7.637   3.923   0.109  0.2696 -0.2356  0.4096
  767MOL0     C 3419   7.604   4.061   0.135 -0.5755  0.3691 -0.5484
  767MOL0     C 3420   7.730   4.136   0.144 -0.2926  1.1906 -1.5463
  767MOL0     C 3421   7.798   4.086   0.270 -1.1302  0.0069 -0.4472
  767MOL0     C 3422   7.943   4.134   0.294 -1.0203 -0.5834  0.0215
  767MOL0     C 3423   8.013   4.084   0.414  0.4916  0.2892 -0.0955
  767MOL0     C 3424   8.058   3.944   0.391 -0.0830 -0.5647 -0.2051
  767MOL0     C 3425   8.174   3.907   0.478  0.3040 -0.4074  0.1825
  767MOL0     C 3426   8.139   3.876   0.621  1.0049 -0.2327  0.0066
  767MOL0     N 3427   8.221   3.789   0.693 -0.2489  0.1819 -0.1399
  767MOL0     C 3428   8.362   3.801   0.705 -0.7426  0.3487 -0.5313
  767MOL0     C 3429   8.398   3.696   0.775  0.8115 -0.0613  0.1913
  767MOL0     C 3430   8.539   3.656   0.811 -0.1489  0.5795 -0.1137
  767MOL0     C 3431   8.569   3.700   0.953 -0.5059  0.3757 -0.0956
  767MOL0     C 3432   8.714   3.659   0.977 -1.1649  0.6115 -0.0752
  767MOL0     C 3433   8.769   3.729   1.107 -0.3330 -0.1248 -1.0171
  767MOL0     O 3434   8.889   3.660   1.143  0.3268 -0.2736  0.9616
  767MOL0     C 3435   8.988   3.718   1.212  0.2959 -0.2318 -0.8257
  767MOL0     C 3436   9.064   3.623   1.280 -0.7682  1.4363 -0.8920
  767MOL0     C 3437   9.174   3.654   1.364  0.3690 -0.5611  0.5968
  767MOL0     C 3438   9.204   3.793   1.390  0.1688  0.2329  0.1647
  767MOL0     C 3439   9.329   3.850   1.453 -0.6865  0.0029 -0.2926
  767MOL0     O 3440   9.353   3.984   1.443  0.3721 -0.7580 -0.0270
  767MOL0     C 3441   9.482   4.033   1.465 -0.4023 -0.4830  0.0788
  767MOL0     C 3442   9.486   4.167   1.513 -0.0285  0.0585 -0.3361
  767MOL0     C 3443   9.608   4.229   1.544  0.3570  0.3715 -0.2016
  767MOL0     C 3444   9.732   4.168   1.524 -0.3949 -0.5059 -0.1524
  767MOL0     O 3445   9.843   4.242   1.571  0.1029  0.5172 -0.0942
  767MOL0     C 3446   9.967   4.217   1.507  0.2539  0.3895  0.4631
  767MOL0     C 3447  10.069   4.324   1.545  1.1018  0.3864  0.0691
  767MOL0     C 3448  10.031   4.460   1.473 -0.4588  0.1566 -0.2728
  767MOL0     C 3449  10.069   4.471   1.326  0.3907  0.0062 -0.0236
  767MOL0     C 3450  10.091   4.612   1.278  0.2245  0.0594  0.4448
  767MOL0     C 3451  10.159   4.608   1.141  0.0650 -0.0544 -0.3737
  767MOL0     C 3452  10.083   4.529   1.030  0.4201 -0.4232 -0.1955
  767MOL0     C 3453   9.943   4.583   1.015 -0.3016 -0.1112  0.1828
  767MOL0    Cl 3454   9.857   4.510   0.861  0.2989  0.4100 -0.5895
  767MOL0     C 3455   9.727   4.037   1.468  0.7041  0.4197 -0.7016
  767MOL0     C 3456   9.604   3.972   1.438 -0.6839  0.5848  0.4965
  767MOL0     O 3457   9.406   3.773   1.512 -0.3368 -0.6378 -0.6165
  767MOL0     C 3458   9.117   3.888   1.333  0.2028 -0.5357  0.1828
  767MOL0     C 3459   9.006   3.852   1.239 -0.4180 -0.0571 -0.1864
  767MOL0     N 3460   8.286   3.611   0.801 -0.3456 -0.0570 -0.1734
  767MOL0     N 3461   8.180   3.665   0.747  0.1401  0.1527  0.8869
  767MOL0     C 3462   7.399   3.863   0.135  0.2001  0.0913  0.2335
  767MOL0     C 3463   7.290   3.780   0.103 -0.2186  0.2041  1.1510
  767MOL0     C 3464   7.010   3.471  -0.013  0.6295  0.6896 -0.9295
  767MOL0     C 3465   6.930   3.397   0.069  0.1887 -0.1889  0.1838
  767MOL0     C 3466   6.805   3.346   0.029 -1.0921 -0.3259 -0.4016
  767MOL0     C 3467   6.782   3.322  -0.108  0.7309 -0.4055  0.2653
  767MOL0     O 3468   6.679   3.241  -0.144 -0.0564  0.0739  0.1220
  767MOL0     C 3469   6.557   3.302  -0.173  0.1161  0.6018  0.1759
  767MOL0     C 3470   6.448   3.260  -0.075  0.6966  0.4688  0.0743
  767MOL0     C 3471   6.387   3.115  -0.111 -0.4573 -1.0949 -0.4816
  767MOL0     C 3472   6.459   3.008  -0.027 -0.1640  0.5188  0.0308
  767MOL0     C 3473   6.387   2.979   0.096 -0.4431  0.0921  0.0029
  767MOL0     C 3474   6.340   2.972   0.205 -0.8685  0.4055 -1.1407
  767MOL0     C 3475   6.874   3.369  -0.196 -0.3740 -0.3619 -0.1002
  767MOL0     C 3476   6.983   3.448  -0.154 -0.1349 -0.2407 -0.2782
  767MOL0     C 3477   7.061   3.509  -0.268 -0.1904 -0.4116  0.6757
  767MOL0     H 3478   7.456   3.554  -0.090 -1.2908  0.5571 -0.5703
  767MOL0     H 3479   7.644   3.731  -0.058  0.6734  1.7007  1.4283
  767MOL0     H 3480   7.542   4.097   0.052  1.4092 -1.3651 -2.8996
  767MOL0     H 3481   7.545   4.073   0.227  0.2826 -1.5045  0.2850
  767MOL0     H 3482   7.708   4.243   0.146  1.2038  1.5147 -0.0931
  767MOL0     H 3483   7.801   4.119   0.062  1.0630  1.5871 -0.4897
  767MOL0     H 3484   7.815   3.978   0.272  1.9768  0.4022 -0.1019
  767MOL0     H 3485   7.733   4.110   0.355 -1.0238 -0.2610 -0.2908
  767MOL0     H 3486   8.008   4.107   0.210 -0.7382 -0.3610  0.1672
  767MOL0     H 3487   7.943   4.243   0.290  1.0991 -0.5631 -1.9401
  767MOL0     H 3488   8.091   4.153   0.447 -0.5363  1.6659 -0.5002
  767MOL0     H 3489   7.941   4.077   0.496  0.6377  2.7976  0.3126
  767MOL0     H 3490   7.971   3.879   0.404 -1.0392  0.4278 -1.3588
  767MOL0     H 3491   8.105   3.923   0.294  1.1171  1.0266 -0.0139
  767MOL0     H 3492   8.239   3.991   0.455 -2.8336  1.3739 -3.2231
  767MOL0     H 3493   8.222   3.815   0.445  2.5186  0.3143  1.1710
  767MOL0     H 3494   8.128   3.969   0.678  1.6200 -0.5408  0.6406
  767MOL0     H 3495   8.035   3.844   0.631  0.4699  1.2041 -0.6431
  767MOL0     H 3496   8.430   3.874   0.663 -2.4084  1.3162 -1.6529
  767MOL0     H 3497   8.568   3.551   0.810  1.7714  1.0656 -1.1812
  767MOL0     H 3498   8.595   3.718   0.740 -0.0735  3.5998  2.3258
  767MOL0     H 3499   8.569   3.808   0.968 -1.3364  0.1132  2.0779
  767MOL0     H 3500   8.500   3.657   1.026  1.3428 -0.4263  1.2853
  767MOL0     H 3501   8.788   3.684   0.901 -1.9795 -0.1823 -1.1438
  767MOL0     H 3502   8.716   3.551   0.995 -1.1303  0.8813  1.7216
  767MOL0     H 3503   8.696   3.721   1.189  0.4516  1.9545 -0.0652
  767MOL0     H 3504   8.773   3.837   1.095 -2.8931  0.0521 -0.9227
  767MOL0     H 3505   9.015   3.526   1.277 -3.1600  2.5413 -0.1871
  767MOL0     H 3506   9.231   3.568   1.398 -0.5700 -1.6237 -0.4101
  767MOL0     H 3507   9.390   4.212   1.534 -0.0989 -1.0996  2.1392
  767MOL0     H 3508   9.615   4.322   1.600 -0.8832  0.2058  0.2678
  767MOL0     H 3509  10.000   4.116   1.529 -3.3057 -0.8575  0.6746
  767MOL0     H 3510   9.945   4.227   1.400  0.6145 -1.8149  0.1409
  767MOL0     H 3511  10.077   4.328   1.654 -5.4698  2.3269  0.8990
  767MOL0     H 3512  10.165   4.289   1.507 -0.1955 -3.0401 -0.4780
  767MOL0     H 3513   9.923   4.476   1.477 -0.2454  3.0174 -2.3952
  767MOL0     H 3514  10.079   4.541   1.529 -1.4699  0.3658  0.3203
  767MOL0     H 3515   9.993   4.416   1.269 -1.3037  1.5820  0.6201
  767MOL0     H 3516  10.164   4.426   1.297 -0.2086 -0.7277 -0.9451
  767MOL0     H 3517  10.151   4.657   1.357 -0.7686  0.3520  1.0399
  767MOL0     H 3518   9.999   4.669   1.267  1.0804  1.7830  1.7618
  767MOL0     H 3519  10.181   4.710   1.107 -0.4462 -0.1357 -0.9771
  767MOL0     H 3520  10.257   4.561   1.151  0.4443  0.3402 -1.9525
  767MOL0     H 3521  10.077   4.421   1.046 -0.7323 -0.2789  0.5027
  767MOL0     H 3522  10.132   4.536   0.932 -1.2620  3.0390 -0.9443
  767MOL0     H 3523   9.897   4.541   1.105  3.2397 -0.3169  2.0532
  767MOL0     H 3524   9.935   4.692   1.019 -2.3893 -0.2505  3.1461
  767MOL0     H 3525   9.820   3.990   1.439  0.8448 -0.8100  1.5605
  767MOL0     H 3526   9.598   3.877   1.386 -2.5155 -0.0850  1.8159
  767MOL0     H 3527   9.136   3.993   1.351 -0.6524 -0.5102  1.0694
  767MOL0     H 3528   8.944   3.935   1.207 -0.2209 -1.0216 -3.3776
  767MOL0     H 3529   7.380   3.944   0.205  1.6447 -0.9689  1.9543
  767MOL0     H 3530   7.191   3.800   0.144 -0.3715  0.9204  0.4518
  767MOL0     H 3531   6.942   3.396   0.177 -1.9408 -3.6367  0.5227
  767MOL0     H 3532   6.735   3.313   0.105  1.3033  1.1202  2.6890
  767MOL0     H 3533   6.528   3.265  -0.271  0.5727 -2.3329  1.0449
  767MOL0     H 3534   6.546   3.410  -0.163 -2.3467  0.4474 -0.0222
  767MOL0     H 3535   6.368   3.331  -0.098 -0.8239 -1.5133 -1.1783
  767MOL0     H 3536   6.491   3.282   0.023  1.6134  3.0671 -0.8375
  767MOL0     H 3537   6.403   3.097  -0.218 -1.6534  0.6969 -0.9916
  767MOL0     H 3538   6.280   3.115  -0.087 -0.2887 -1.6426  0.3237
  767MOL0     H 3539   6.466   2.911  -0.076 -2.8985 -1.2375  2.7550
  767MOL0     H 3540   6.556   3.046   0.007  0.4262 -0.8237 -0.0907
  767MOL0     H 3541   6.302   2.962   0.305 -0.9259  1.0715 -1.0929
  767MOL0     H 3542   6.862   3.352  -0.302  0.7970 -0.2804 -0.2607
  767MOL0     H 3543   7.012   3.488  -0.364  1.9489 -1.1400 -0.3196
  767MOL0     H 3544   7.075   3.617  -0.267  1.1922 -0.4427 -2.3648
  767MOL0     H 3545   7.160   3.464  -0.277 -1.1173 -3.0839  2.5330
  768MOL0     O 3546   6.730   7.094   5.777 -0.0232 -0.4941  0.8281
  768MOL0     C 3547   6.723   7.148   5.668 -0.3275 -0.8225  0.5165
  768MOL0     O 3548   6.726   7.083   5.548 -0.4124  0.8060 -0.3771
  768MOL0     C 3549   6.686   6.952   5.544  0.3953  0.1350  0.5164
  768MOL0     C 3550   6.563   6.921   5.606 -0.5183  0.1773  0.1230
  768MOL0     C 3551   6.510   6.795   5.603 -0.3091 -0.7314 -0.0235
  768MOL0     C 3552   6.583   6.697   5.552  0.0823 -0.1873 -0.0649
  768MOL0     O 3553   6.541   6.570   5.568 -0.3170 -0.9250  0.2617
  768MOL0     C 3554   6.596   6.456   5.498  0.0369  0.0657 -0.2950
  768MOL0     C 3555   6.596   6.341   5.600 -0.1646 -0.5766  0.1324
  768MOL0     C 3556   6.605   6.208   5.531  0.2297 -0.5255  0.3965
  768MOL0     C 3557   6.590   6.090   5.630 -1.2344  0.2398 -0.3653
  768MOL0     C 3558   6.556   5.962   5.553  0.3316  0.5533 -0.1286
  768MOL0     C 3559   6.655   5.923   5.438 -0.1037 -0.6371 -0.6804
  768MOL0     C 3560   6.807   5.925   5.492 -0.2727  0.0736 -0.4962
  768MOL0     C 3561   6.903   5.856   5.400  0.1988 -0.8751 -0.9576
  768MOL0     N 3562   6.894   5.913   5.261  0.1066 -0.1257 -0.2388
  768MOL0     C 3563   6.808   5.879   5.169 -0.2536  0.6017  0.4495
  768MOL0     C 3564   6.834   5.947   5.056 -0.2575 -1.3205  0.1120
  768MOL0     C 3565   6.777   5.919   4.924 -0.7340  0.1073 -0.4825
  768MOL0     C 3566   6.806   5.764   4.879  0.0384 -0.1933  0.3116
  768MOL0     C 3567   6.956   5.734   4.883 -0.0178  0.4444 -0.0882
  768MOL0     C 3568   7.032   5.801   4.772  0.6293 -0.1656  0.1636
  768MOL0     O 3569   7.016   5.749   4.634  0.1002  0.0277 -0.2589
  768MOL0     C 3570   6.934   5.834   4.557  0.1249  0.3300  0.0080
  768MOL0     C 3571   6.808   5.797   4.515  0.2576  0.4161  0.4667
  768MOL0     C 3572   6.717   5.872   4.440  0.5823  0.9552 -0.1604
  768MOL0     C 3573   6.760   6.006   4.407  0.4980  0.5584  0.3663
  768MOL0     C 3574   6.694   6.097   4.317  0.1661 -1.0191 -0.9793
  768MOL0     O 3575   6.776   6.194   4.257  0.0971  0.2684 -0.2743
  768MOL0     C 3576   6.731   6.277   4.159  0.1435 -0.5443 -1.1068
  768MOL0     C 3577   6.603   6.291   4.111  0.1188  0.0378  0.5125
  768MOL0     C 3578   6.569   6.384   4.004  0.7662 -0.1546 -0.2459
  768MOL0     C 3579   6.661   6.477   3.964  0.4843 -0.7196 -0.3805
  768MOL0     O 3580   6.634   6.582   3.878  1.0317 -0.2791 -1.2908
  768MOL0     C 3581   6.503   6.618   3.846 -0.2841 -0.3792 -0.1809
  768MOL0     C 3582   6.512   6.732   3.733  0.2901 -0.3848 -0.1910
  768MOL0     C 3583   6.408   6.840   3.742  0.1972 -0.5887  0.6536
  768MOL0     C 3584   6.380   6.886   3.889  0.0483 -0.0845  1.1504
  768MOL0     C 3585   6.288   7.010   3.906 -0.3361  0.1102 -0.5816
  768MOL0     C 3586   6.368   7.141   3.867  0.2502  0.2748  0.4079
  768MOL0     C 3587   6.304   7.281   3.903 -0.0917  0.9749  0.4901
  768MOL0     C 3588   6.408   7.399   3.910 -0.1718 -0.1065  0.0036
  768MOL0    Cl 3589   6.534   7.393   3.779  0.2952  0.3751  0.0039
  768MOL0     C 3590   6.784   6.477   4.030 -0.7110  0.1324  0.1976
  768MOL0     C 3591   6.825   6.376   4.121  0.5693  0.1191 -0.2885
  768MOL0     O 3592   6.569   6.087   4.310  0.0227 -0.8965 -0.0913
  768MOL0     C 3593   6.879   6.055   4.465 -0.1745  0.4757  0.3479
  768MOL0     C 3594   6.968   5.969   4.538 -0.0816  0.6243  0.6836
  768MOL0     N 3595   6.937   6.034   5.084  0.6547 -0.6550  0.5410
  768MOL0     N 3596   6.972   6.016   5.208  0.4200 -0.5966  0.6164
  768MOL0     C 3597   6.705   6.722   5.490 -0.3647 -0.4973  0.2051
  768MOL0     C 3598   6.745   6.853   5.476  0.6863 -0.2086  0.6873
  768MOL0     C 3599   6.773   7.292   5.663  0.1575 -1.0626 -0.2680
  768MOL0     C 3600   6.880   7.328   5.742 -0.0231  0.7575  0.3313
  768MOL0     C 3601   6.923   7.451   5.759 -1.4502 -0.2147  0.3059
  768MOL0     C 3602   6.865   7.555   5.687 -0.3197 -0.0851 -0.3026
  768MOL0     O 3603   6.927   7.679   5.710  0.0494 -0.2102 -0.2827
  768MOL0     C 3604   6.861   7.790   5.655 -0.7269 -0.1969  0.6576
  768MOL0     C 3605   6.885   7.935   5.712  0.3010  0.4256  0.3401
  768MOL0     C 3606   7.021   7.983   5.670 -0.3087  0.0980  0.0905
  768MOL0     C 3607   7.123   7.936   5.771 -0.0952 -0.1986 -0.6125
  768MOL0     C 3608   7.253   7.996   5.743 -0.9179  0.5953 -1.0205
  768MOL0     C 3609   7.350   8.054   5.691  0.6434 -0.3231  0.3528
  768MOL0     C 3610   6.753   7.523   5.607  0.5517 -0.0723 -0.7887
  768MOL0     C 3611   6.701   7.393   5.594 -0.7538  0.3829  0.1937
  768MOL0     C 3612   6.572   7.372   5.515  0.0328  0.4174 -0.6124
  768MOL0     H 3613   6.496   6.999   5.641  0.4452  1.2266 -0.3198
  768MOL0     H 3614   6.413   6.767   5.642 -1.8110  2.3333 -1.2411
  768MOL0     H 3615   6.521   6.424   5.426 -0.6671 -1.5218  1.0777
  768MOL0     H 3616   6.694   6.462   5.449 -1.3109 -0.5932 -3.2628
  768MOL0     H 3617   6.508   6.342   5.663  0.2584 -0.1938  0.7280
  768MOL0     H 3618   6.687   6.342   5.661 -0.5455  0.5040  0.7030
  768MOL0     H 3619   6.696   6.210   5.470 -1.1166  2.5500 -1.8183
  768MOL0     H 3620   6.520   6.211   5.461  0.0906  0.6724  0.5852
  768MOL0     H 3621   6.684   6.085   5.685 -0.0669  3.7083 -1.7585
  768MOL0     H 3622   6.519   6.122   5.708 -0.9127  0.0587  0.0055
  768MOL0     H 3623   6.552   5.870   5.612  1.2758  0.2768 -0.4705
  768MOL0     H 3624   6.457   5.985   5.513 -0.1573  2.1276  1.8003
  768MOL0     H 3625   6.640   5.820   5.402 -0.6526  0.0820 -2.6243
  768MOL0     H 3626   6.647   5.987   5.350  1.3361  1.3972  0.5743
  768MOL0     H 3627   6.806   5.872   5.588  2.7396 -0.2034 -0.5266
  768MOL0     H 3628   6.839   6.026   5.521  0.7781  0.1453 -1.8065
  768MOL0     H 3629   7.005   5.865   5.439  0.6908 -1.1867 -2.1513
  768MOL0     H 3630   6.872   5.752   5.409  0.4124 -0.7639  4.0626
  768MOL0     H 3631   6.746   5.791   5.185 -1.6684  1.9278  3.0094
  768MOL0     H 3632   6.669   5.936   4.930 -0.3647  2.4547  1.5286
  768MOL0     H 3633   6.814   5.983   4.844  1.2637 -2.2650 -1.5842
  768MOL0     H 3634   6.753   5.705   4.954  2.3540 -0.5670  1.7500
  768MOL0     H 3635   6.762   5.744   4.781 -0.9304  0.9822  0.4776
  768MOL0     H 3636   6.962   5.624   4.878  0.5776  0.4326  0.6170
  768MOL0     H 3637   7.000   5.767   4.977  0.3354  2.2231 -0.8437
  768MOL0     H 3638   7.135   5.770   4.790  0.8201 -1.3191 -2.4050
  768MOL0     H 3639   7.024   5.909   4.788 -0.8121 -0.5864  2.8447
  768MOL0     H 3640   6.785   5.693   4.535  0.6145 -0.0515 -1.3470
  768MOL0     H 3641   6.639   5.820   4.385  0.2552  0.7024  0.5419
  768MOL0     H 3642   6.513   6.235   4.136  0.0832 -0.6468 -1.0349
  768MOL0     H 3643   6.473   6.377   3.955  1.3707  0.0529 -1.5274
  768MOL0     H 3644   6.442   6.539   3.802  0.6652 -1.0438 -0.3336
  768MOL0     H 3645   6.456   6.659   3.936  3.8403  0.6703  1.7243
  768MOL0     H 3646   6.608   6.782   3.746 -0.3004  0.5516  0.7418
  768MOL0     H 3647   6.522   6.679   3.638  1.4915 -1.4163  0.4821
  768MOL0     H 3648   6.448   6.929   3.692 -2.0900  1.5577  2.3807
  768MOL0     H 3649   6.310   6.810   3.705  0.0561 -0.9307  1.2901
  768MOL0     H 3650   6.475   6.890   3.943  1.1415 -2.2310 -0.4573
  768MOL0     H 3651   6.315   6.805   3.925 -2.8406  0.4409 -2.3083
  768MOL0     H 3652   6.260   7.017   4.011  2.3779  0.8631  0.1564
  768MOL0     H 3653   6.204   7.010   3.836  0.6840  0.6094 -1.8461
  768MOL0     H 3654   6.465   7.131   3.917 -0.3630 -0.9437  1.3946
  768MOL0     H 3655   6.392   7.134   3.760 -1.5317 -2.6295  0.0942
  768MOL0     H 3656   6.275   7.269   4.008 -4.7504  0.4956 -0.6106
  768MOL0     H 3657   6.220   7.298   3.835 -0.6006 -1.8864  0.2896
  768MOL0     H 3658   6.364   7.499   3.901  1.9713  0.8940  0.1856
  768MOL0     H 3659   6.464   7.402   4.004  2.1324  2.2048 -1.3072
  768MOL0     H 3660   6.858   6.548   3.994  1.0945 -1.8317 -0.1568
  768MOL0     H 3661   6.920   6.370   4.174  1.0536  2.7578 -0.7056
  768MOL0     H 3662   6.907   6.158   4.443 -0.0457  0.5309  0.7757
  768MOL0     H 3663   7.065   5.988   4.584  0.6648 -2.3508  0.5349
  768MOL0     H 3664   6.758   6.650   5.429  0.7015  0.2174  0.2440
  768MOL0     H 3665   6.830   6.890   5.419 -0.6324  0.9973 -0.5694
  768MOL0     H 3666   6.935   7.239   5.772 -0.8392 -1.2451 -3.4324
  768MOL0     H 3667   7.004   7.465   5.829 -1.4593  1.1364  0.0772
  768MOL0     H 3668   6.754   7.772   5.664 -0.2853 -3.3089  0.7552
  768MOL0     H 3669   6.896   7.785   5.551  0.0034 -2.1728  0.9621
  768MOL0     H 3670   6.872   7.937   5.820  1.4243 -0.2709  0.4992
  768MOL0     H 3671   6.812   8.010   5.682 -0.6933 -0.4913  0.4086
  768MOL0     H 3672   7.027   8.093   5.669 -2.2584  0.3170  2.2450
  768MOL0     H 3673   7.052   7.948   5.571  1.6263 -2.6956  1.5696
  768MOL0     H 3674   7.090   7.962   5.872  0.0627 -5.4370  1.0925
  768MOL0     H 3675   7.129   7.827   5.765 -3.1328 -0.4130 -1.9245
  768MOL0     H 3676   7.433   8.108   5.650  1.3028 -0.4221  1.5108
  768MOL0     H 3677   6.700   7.598   5.549  0.4972 -1.7290 -3.0462
  768MOL0     H 3678   6.576   7.272   5.470 -1.7367 -0.2114  0.5408
  768MOL0     H 3679   6.480   7.375   5.574  0.4123 -1.4120  0.1307
  768MOL0     H 3680   6.548   7.439   5.432 -3.9588 -0.9801 -0.7795
  769MOL0     O 3681   9.770   3.883   3.375  0.2381 -0.2104  0.8669
  769MOL0     C 3682   9.857   3.960   3.427  0.1410  0.2015  1.0485
  769MOL0     O 3683   9.835   4.097   3.449 -0.3707 -0.4118 -0.4407
  769MOL0     C 3684   9.712   4.150   3.437  0.3312  0.3150  1.0738
  769MOL0     C 3685   9.593   4.103   3.491  0.7028 -0.1743  0.3955
  769MOL0     C 3686   9.473   4.168   3.472  0.7725 -1.2466  0.9152
  769MOL0     C 3687   9.459   4.290   3.399  0.2464 -0.2986  0.3473
  769MOL0     O 3688   9.345   4.364   3.373 -0.4201 -0.0992 -0.3663
  769MOL0     C 3689   9.221   4.298   3.420 -0.5402 -0.1146 -0.0854
  769MOL0     C 3690   9.103   4.374   3.359 -0.1091 -0.1602  0.0826
  769MOL0     C 3691   8.971   4.311   3.381 -0.4083  0.7499  0.0742
  769MOL0     C 3692   8.851   4.390   3.340 -0.5807  0.4046  0.9292
  769MOL0     C 3693   8.732   4.294   3.320 -0.0772  0.1788 -0.2699
  769MOL0     C 3694   8.669   4.273   3.458  0.1175 -0.2948 -0.1979
  769MOL0     C 3695   8.568   4.157   3.448  0.0481 -0.2723  0.0528
  769MOL0     C 3696   8.440   4.196   3.368 -0.4562 -0.0387 -0.1513
  769MOL0     N 3697   8.370   4.299   3.444  0.0228  0.5624  0.6618
  769MOL0     C 3698   8.288   4.274   3.553 -0.9525 -0.4143 -0.9917
  769MOL0     C 3699   8.216   4.389   3.562  0.3503 -0.1370 -0.9513
  769MOL0     C 3700   8.116   4.421   3.677 -0.7366  0.2458 -0.1282
  769MOL0     C 3701   8.087   4.566   3.718  0.3245 -0.3508  0.3368
  769MOL0     C 3702   8.197   4.622   3.817  0.2663  0.4911  0.3412
  769MOL0     C 3703   8.328   4.634   3.747 -0.3441 -0.4647 -0.2325
  769MOL0     O 3704   8.422   4.689   3.839  0.2646 -0.0956  0.2738
  769MOL0     C 3705   8.558   4.672   3.819  0.3450 -0.3785 -0.3889
  769MOL0     C 3706   8.616   4.629   3.704 -0.6949 -0.4931  0.3664
  769MOL0     C 3707   8.758   4.615   3.693  0.5331  0.3626 -0.1081
  769MOL0     C 3708   8.843   4.651   3.804 -0.6195 -0.2669  0.6357
  769MOL0     C 3709   8.993   4.660   3.806 -0.1726  1.2119  1.4268
  769MOL0     O 3710   9.049   4.664   3.678 -0.2659 -0.1566  0.2488
  769MOL0     C 3711   9.185   4.657   3.686  0.6668  0.6370 -0.4003
  769MOL0     C 3712   9.236   4.522   3.693  0.1690  0.1450  0.4261
  769MOL0     C 3713   9.371   4.506   3.691  0.5203  0.2879 -0.6485
  769MOL0     C 3714   9.459   4.615   3.685  0.0393  0.6829  0.0458
  769MOL0     O 3715   9.595   4.615   3.701  0.4968  0.6604 -0.4612
  769MOL0     C 3716   9.651   4.486   3.703  0.0096  0.3801  0.5563
  769MOL0     C 3717   9.807   4.505   3.720 -0.5130  0.1483 -0.1597
  769MOL0     C 3718   9.893   4.534   3.590  0.0722  0.0016  0.1921
  769MOL0     C 3719  10.045   4.566   3.610  0.6780  0.3987  0.1536
  769MOL0     C 3720  10.124   4.578   3.475  0.1565 -0.3559 -0.4084
  769MOL0     C 3721  10.069   4.687   3.388 -0.3815 -0.2041  0.3643
  769MOL0     C 3722  10.164   4.714   3.270  0.0976  0.3209 -0.0210
  769MOL0     C 3723  10.126   4.833   3.187  0.4367  0.2371 -0.8603
  769MOL0    Cl 3724  10.251   4.840   3.055  0.0865  0.3880  0.0596
  769MOL0     C 3725   9.406   4.747   3.683 -0.0894  0.0557 -0.6451
  769MOL0     C 3726   9.272   4.767   3.679  0.5068 -0.1542  0.3048
  769MOL0     O 3727   9.056   4.669   3.913  0.3701  0.7302 -0.3173
  769MOL0     C 3728   8.782   4.697   3.915  0.0191 -0.8578 -0.5264
  769MOL0     C 3729   8.641   4.706   3.931 -0.8897  0.3154 -0.0364
  769MOL0     N 3730   8.257   4.479   3.463  0.0744  0.0936  0.8959
  769MOL0     N 3731   8.350   4.425   3.395 -0.2507 -0.5440  0.6191
  769MOL0     C 3732   9.582   4.347   3.357  0.7320 -0.3792 -0.0389
  769MOL0     C 3733   9.707   4.278   3.372  0.7275 -0.1042 -0.0112
  769MOL0     C 3734   9.988   3.900   3.451 -0.3839 -0.5039  0.1320
  769MOL0     C 3735  10.019   3.768   3.413  0.3651 -0.1417  0.2554
  769MOL0     C 3736  10.139   3.700   3.435  0.1836 -0.1692 -0.3170
  769MOL0     C 3737  10.246   3.779   3.483  0.0923 -0.7742  0.3317
  769MOL0     O 3738  10.358   3.724   3.527 -0.2266 -0.0689 -0.3439
  769MOL0     C 3739  10.466   3.726   3.437 -0.5523  0.6661  1.0740
  769MOL0     C 3740  10.571   3.617   3.462  0.2310  0.3627  0.8205
  769MOL0     C 3741  10.586   3.576   3.610 -0.1887  0.1431 -0.3443
  769MOL0     C 3742  10.707   3.482   3.630 -0.7043 -0.1694  0.0963
  769MOL0     C 3743  10.817   3.555   3.693 -0.1766  0.0575  0.0221
  769MOL0     C 3744  10.888   3.635   3.736  0.5865  0.3712  0.3052
  769MOL0     C 3745  10.224   3.915   3.494 -0.3891  0.4990  0.5536
  769MOL0     C 3746  10.106   3.980   3.487  0.5652 -0.4516  0.6052
  769MOL0     C 3747  10.094   4.124   3.531  0.0302  0.5025 -0.2857
  769MOL0     H 3748   9.601   4.014   3.552  1.0106 -0.1106  0.4469
  769MOL0     H 3749   9.391   4.133   3.533  0.7068  2.7549  3.4762
  769MOL0     H 3750   9.233   4.205   3.363  2.3404  1.7014 -2.8151
  769MOL0     H 3751   9.216   4.272   3.526 -1.0504 -3.1212 -0.7506
  769MOL0     H 3752   9.113   4.361   3.251 -0.3337  0.9726 -0.0829
  769MOL0     H 3753   9.105   4.483   3.369 -2.2155  0.6234 -4.9760
  769MOL0     H 3754   8.951   4.281   3.484 -1.8397 -1.1915 -0.7088
  769MOL0     H 3755   8.973   4.215   3.329  0.2785  0.1370  1.2012
  769MOL0     H 3756   8.834   4.466   3.417 -1.7928 -0.1303  1.2073
  769MOL0     H 3757   8.864   4.434   3.241 -2.7668 -2.4088 -0.7730
  769MOL0     H 3758   8.664   4.339   3.247  1.0259 -0.6560 -1.8739
  769MOL0     H 3759   8.763   4.196   3.282  0.4486  0.5868 -0.9137
  769MOL0     H 3760   8.748   4.241   3.526 -0.3457 -1.3628 -0.1429
  769MOL0     H 3761   8.624   4.367   3.490 -1.1255 -1.4159  1.5429
  769MOL0     H 3762   8.537   4.132   3.549  1.4117 -1.5463  0.2037
  769MOL0     H 3763   8.619   4.071   3.402  3.6031  0.7598  1.6770
  769MOL0     H 3764   8.473   4.226   3.268  1.0716 -4.6645 -1.3100
  769MOL0     H 3765   8.380   4.105   3.363  0.5986 -0.7784  0.3326
  769MOL0     H 3766   8.278   4.185   3.615  0.7850 -1.2532 -1.8258
  769MOL0     H 3767   8.029   4.371   3.633 -0.1360  0.9257 -2.2080
  769MOL0     H 3768   8.143   4.359   3.763  1.5188 -0.4553 -1.2581
  769MOL0     H 3769   8.081   4.630   3.629  0.5498  0.2455  0.7472
  769MOL0     H 3770   7.995   4.567   3.776  0.0603  0.1673 -0.0789
  769MOL0     H 3771   8.209   4.560   3.907  1.1454 -1.3037 -0.9527
  769MOL0     H 3772   8.168   4.719   3.859  0.7553  0.7743  0.0242
  769MOL0     H 3773   8.322   4.698   3.658  2.1373  0.6755  0.3347
  769MOL0     H 3774   8.362   4.533   3.722 -1.7297 -0.8833 -0.5381
  769MOL0     H 3775   8.552   4.611   3.619 -0.9014  0.8963  0.2065
  769MOL0     H 3776   8.797   4.594   3.594  0.7736 -0.9881  0.2487
  769MOL0     H 3777   9.174   4.433   3.699  1.1324 -0.6216 -0.6156
  769MOL0     H 3778   9.418   4.409   3.707  0.0042  0.1262 -0.0739
  769MOL0     H 3779   9.616   4.427   3.788 -1.0831 -1.3729 -1.0283
  769MOL0     H 3780   9.640   4.438   3.605  1.2142  1.5072 -0.1810
  769MOL0     H 3781   9.828   4.578   3.799 -1.8619  1.5644 -1.0686
  769MOL0     H 3782   9.836   4.409   3.765 -0.8847 -0.6720 -1.6268
  769MOL0     H 3783   9.888   4.456   3.514  2.7202  0.5623 -0.6775
  769MOL0     H 3784   9.852   4.625   3.545  0.6579  2.0464  3.4449
  769MOL0     H 3785  10.102   4.492   3.667 -1.3637 -1.5378 -0.2053
  769MOL0     H 3786  10.056   4.663   3.661 -2.3043 -0.3949  2.6329
  769MOL0     H 3787  10.143   4.483   3.424  1.4740 -1.4509  1.9409
  769MOL0     H 3788  10.224   4.603   3.512  0.3672 -1.1939 -0.3885
  769MOL0     H 3789   9.973   4.648   3.353 -0.9100  0.2000  1.3222
  769MOL0     H 3790  10.056   4.783   3.439  1.1101  2.0298 -3.0794
  769MOL0     H 3791  10.158   4.625   3.207  0.5851 -0.5851  1.1629
  769MOL0     H 3792  10.270   4.728   3.292  0.2835 -0.4139 -0.4214
  769MOL0     H 3793  10.025   4.827   3.145 -1.2980  0.7111  2.8257
  769MOL0     H 3794  10.146   4.919   3.251  4.0544  0.4283 -2.0049
  769MOL0     H 3795   9.471   4.834   3.677 -0.2214  0.0584 -3.0384
  769MOL0     H 3796   9.229   4.865   3.659  0.1049 -0.3670  0.1100
  769MOL0     H 3797   8.848   4.731   3.994 -2.2164  0.1308  1.0035
  769MOL0     H 3798   8.598   4.747   4.022  0.1501  1.0951  0.1347
  769MOL0     H 3799   9.594   4.446   3.314  4.0346  0.3403  2.1571
  769MOL0     H 3800   9.795   4.327   3.334  0.2926 -0.0527 -0.9727
  769MOL0     H 3801   9.942   3.708   3.365  0.0637 -1.9985  2.8631
  769MOL0     H 3802  10.134   3.593   3.421  0.0699 -0.0571 -1.1968
  769MOL0     H 3803  10.507   3.827   3.424 -2.1484  1.2734  0.3374
  769MOL0     H 3804  10.438   3.700   3.334  0.5129  0.9309  0.7051
  769MOL0     H 3805  10.660   3.651   3.408 -0.4298  3.2840  1.3918
  769MOL0     H 3806  10.536   3.529   3.407 -1.0084  2.0627 -1.2372
  769MOL0     H 3807  10.499   3.521   3.645  2.1367 -5.8592 -2.7159
  769MOL0     H 3808  10.606   3.667   3.668 -0.4972 -0.3484  0.5556
  769MOL0     H 3809  10.688   3.399   3.698  0.8716 -1.4916 -1.0131
  769MOL0     H 3810  10.749   3.448   3.535  2.4359  1.3694  0.7779
  769MOL0     H 3811  10.951   3.720   3.758 -0.0380  1.1982 -1.0022
  769MOL0     H 3812  10.302   3.980   3.532 -1.2234  1.1598  1.1811
  769MOL0     H 3813  10.183   4.168   3.576  1.2376 -1.3313 -0.7873
  769MOL0     H 3814  10.055   4.183   3.447  1.7542  0.3552 -1.2272
  769MOL0     H 3815  10.017   4.122   3.609 -1.4738 -3.1169 -1.6455
  770MOL0     O 3816   5.493   2.764   3.213  0.4613 -0.2139  0.1338
  770MOL0     C 3817   5.466   2.673   3.297  0.2777 -0.4224  0.2077
  770MOL0     O 3818   5.538   2.642   3.413 -0.0795 -0.6522  0.3462
  770MOL0     C 3819   5.602   2.742   3.482  0.3192  1.1294  0.7290
  770MOL0     C 3820   5.560   2.876   3.495  0.1454 -0.5237 -0.8934
  770MOL0     C 3821   5.636   2.973   3.572  0.3374 -0.1851 -0.4153
  770MOL0     C 3822   5.766   2.937   3.623  0.2394  1.0156  0.1298
  770MOL0     O 3823   5.846   3.025   3.691 -0.5318 -0.3401  0.4997
  770MOL0     C 3824   5.829   3.166   3.669  1.1752 -0.5656  0.0593
  770MOL0     C 3825   5.850   3.210   3.526  0.4764  0.1346  0.2969
  770MOL0     C 3826   5.874   3.357   3.522 -0.7867 -0.0317  0.1811
  770MOL0     C 3827   6.021   3.389   3.552 -0.3193  0.5367 -0.1509
  770MOL0     C 3828   6.042   3.539   3.554 -0.1994  0.2799 -0.7079
  770MOL0     C 3829   6.180   3.577   3.618 -0.3502  0.5660 -0.1518
  770MOL0     C 3830   6.221   3.721   3.565  0.2383 -0.1837  0.2913
  770MOL0     C 3831   6.136   3.833   3.614  0.5590  0.0295 -0.4030
  770MOL0     N 3832   6.129   3.851   3.762  0.8545  0.7307 -0.0426
  770MOL0     C 3833   6.028   3.911   3.817 -0.2762 -1.1378 -0.2936
  770MOL0     C 3834   6.065   3.938   3.942  0.5024 -0.2874 -1.1348
  770MOL0     C 3835   5.992   4.025   4.039 -0.5001 -0.1157 -0.0451
  770MOL0     C 3836   6.021   4.176   4.008  0.0236 -0.0283  0.1588
  770MOL0     C 3837   6.123   4.243   4.094 -0.1553 -0.2585  0.0695
  770MOL0     C 3838   6.275   4.188   4.092  0.7027 -0.2575  0.9867
  770MOL0     O 3839   6.374   4.266   4.172  0.1648 -0.6646  0.1734
  770MOL0     C 3840   6.511   4.232   4.165  0.6439 -0.0053 -0.4461
  770MOL0     C 3841   6.610   4.326   4.206 -0.0654 -1.0119 -0.6509
  770MOL0     C 3842   6.750   4.294   4.191  0.5980  0.0665  0.2787
  770MOL0     C 3843   6.795   4.179   4.138 -0.7429  0.3594  0.1865
  770MOL0     C 3844   6.935   4.147   4.123 -0.2924 -0.2876 -0.7472
  770MOL0     O 3845   7.025   4.247   4.102  0.1803 -0.5021 -0.4574
  770MOL0     C 3846   7.157   4.209   4.106 -0.1841 -1.2767  0.3379
  770MOL0     C 3847   7.230   4.201   3.989 -0.9056 -0.7227 -0.0512
  770MOL0     C 3848   7.369   4.174   3.991 -0.3351 -0.4828  0.3321
  770MOL0     C 3849   7.433   4.171   4.115 -0.3921  0.7590  0.9802
  770MOL0     O 3850   7.569   4.154   4.131  0.0009 -0.4156  0.0935
  770MOL0     C 3851   7.645   4.262   4.071 -0.0938  0.4287 -0.5050
  770MOL0     C 3852   7.698   4.359   4.182  0.6660  0.2210 -0.3396
  770MOL0     C 3853   7.819   4.435   4.146  0.1197 -0.2475 -0.2253
  770MOL0     C 3854   7.836   4.564   4.233  0.4677 -0.4811  0.2914
  770MOL0     C 3855   7.850   4.546   4.387  0.1041  0.2606  0.3707
  770MOL0     C 3856   7.893   4.687   4.443  0.2556  0.0413  0.0364
  770MOL0     C 3857   7.949   4.669   4.588 -0.0566  0.1882  0.0234
  770MOL0     C 3858   8.084   4.601   4.593 -0.2322  0.0860  0.6124
  770MOL0    Cl 3859   8.167   4.615   4.748 -0.1153 -0.2689  0.2917
  770MOL0     C 3860   7.350   4.161   4.234  0.5164 -0.7076 -0.2467
  770MOL0     C 3861   7.211   4.180   4.228 -0.2289 -0.2444  0.3482
  770MOL0     O 3862   6.963   4.023   4.128 -0.3219  0.3513 -0.1644
  770MOL0     C 3863   6.698   4.088   4.099 -0.0374 -0.4544 -0.9842
  770MOL0     C 3864   6.556   4.112   4.125 -1.4542  1.0960  0.5683
  770MOL0     N 3865   6.188   3.879   3.972  0.3187  0.4163 -0.3612
  770MOL0     N 3866   6.222   3.830   3.862  1.0151  0.6918 -0.2419
  770MOL0     C 3867   5.801   2.799   3.607  0.1520  0.1792  0.2139
  770MOL0     C 3868   5.723   2.707   3.537 -0.4768 -0.4967 -0.1138
  770MOL0     C 3869   5.349   2.578   3.264 -0.5702  0.5491 -0.3781
  770MOL0     C 3870   5.347   2.454   3.334  1.0590  0.5002  1.1085
  770MOL0     C 3871   5.251   2.357   3.313  0.6945 -0.0793  0.3256
  770MOL0     C 3872   5.139   2.394   3.237 -1.0804  0.2449  0.6395
  770MOL0     O 3873   5.016   2.330   3.219  0.8597  0.3441  1.1558
  770MOL0     C 3874   4.990   2.209   3.287 -0.8682  0.1159 -0.9046
  770MOL0     C 3875   4.943   2.240   3.426  1.0170 -0.3698 -0.0565
  770MOL0     C 3876   4.922   2.109   3.504  0.0106 -0.3593  0.1237
  770MOL0     C 3877   4.766   2.064   3.502 -0.9960 -0.0698  0.0577
  770MOL0     C 3878   4.741   1.989   3.376  0.6430  0.5104 -0.0396
  770MOL0     C 3879   4.728   1.921   3.273  0.3725  0.6385  0.0594
  770MOL0     C 3880   5.144   2.512   3.163 -1.0179 -0.1140 -0.2492
  770MOL0     C 3881   5.251   2.601   3.165  0.8324 -0.1874 -0.2253
  770MOL0     C 3882   5.225   2.732   3.085  0.8206 -0.0782 -0.1509
  770MOL0     H 3883   5.460   2.911   3.470 -0.0968 -0.9516 -0.5227
  770MOL0     H 3884   5.612   3.078   3.587  0.9454  0.1397 -1.6405
  770MOL0     H 3885   5.737   3.214   3.702  0.5318 -0.6800 -1.5103
  770MOL0     H 3886   5.904   3.202   3.740  0.4085 -1.2757  1.2660
  770MOL0     H 3887   5.766   3.187   3.461  1.3764 -3.1622  0.1291
  770MOL0     H 3888   5.935   3.163   3.476 -1.2240 -0.7234 -1.9290
  770MOL0     H 3889   5.816   3.405   3.601  2.1187 -1.3046  3.3570
  770MOL0     H 3890   5.845   3.393   3.423  2.0835  2.2770  0.0284
  770MOL0     H 3891   6.048   3.352   3.651 -0.4201  0.9741  0.0445
  770MOL0     H 3892   6.083   3.349   3.471 -0.1808 -1.6363  0.9718
  770MOL0     H 3893   6.030   3.574   3.451 -1.7136  2.2326  0.0664
  770MOL0     H 3894   5.963   3.587   3.613 -0.2791  0.3306 -0.8553
  770MOL0     H 3895   6.159   3.593   3.725 -1.2960  2.0921 -0.5273
  770MOL0     H 3896   6.259   3.505   3.595 -1.7294 -0.1803 -2.9450
  770MOL0     H 3897   6.220   3.729   3.456  0.2645 -1.0530  0.2250
  770MOL0     H 3898   6.326   3.744   3.587  0.7326 -1.5895 -0.4656
  770MOL0     H 3899   6.169   3.930   3.576 -1.7609  0.9742 -0.1805
  770MOL0     H 3900   6.034   3.812   3.582  0.7713 -1.6215 -0.1130
  770MOL0     H 3901   5.944   3.956   3.764  0.2927 -1.6996 -1.7137
  770MOL0     H 3902   5.886   3.998   4.041 -0.4606 -0.2706  0.0698
  770MOL0     H 3903   6.015   4.017   4.146  0.3492  1.3469 -0.0972
  770MOL0     H 3904   6.038   4.184   3.901  1.0070 -2.0734  0.1056
  770MOL0     H 3905   5.931   4.234   4.029  0.4419  0.2843  1.1715
  770MOL0     H 3906   6.103   4.240   4.202  2.0228  4.2423  0.8464
  770MOL0     H 3907   6.130   4.351   4.077  1.3735 -0.0970  1.4158
  770MOL0     H 3908   6.310   4.191   3.988 -1.0131 -4.0111  0.1243
  770MOL0     H 3909   6.272   4.089   4.138  1.8779 -0.6808  0.2052
  770MOL0     H 3910   6.577   4.421   4.247 -0.9615 -0.5815 -2.2671
  770MOL0     H 3911   6.818   4.374   4.217  0.8361  0.3623 -1.1544
  770MOL0     H 3912   7.188   4.228   3.893  1.1817  0.9976 -0.5575
  770MOL0     H 3913   7.434   4.165   3.904  0.4629  1.3136  0.7003
  770MOL0     H 3914   7.733   4.207   4.037 -0.1925  0.1529 -0.3226
  770MOL0     H 3915   7.591   4.309   3.989 -3.4281 -1.6080  0.3316
  770MOL0     H 3916   7.617   4.426   4.214  0.0000 -1.4463  1.6766
  770MOL0     H 3917   7.722   4.298   4.269 -1.3543  0.6533  0.5695
  770MOL0     H 3918   7.905   4.367   4.146  0.5821  0.3094 -1.9077
  770MOL0     H 3919   7.805   4.464   4.042 -1.1319 -2.7056 -0.8293
  770MOL0     H 3920   7.755   4.636   4.217  1.5879  0.8092  0.2188
  770MOL0     H 3921   7.921   4.626   4.204 -0.1095 -0.6156 -1.9175
  770MOL0     H 3922   7.923   4.464   4.391 -0.3724 -0.2842 -1.2618
  770MOL0     H 3923   7.757   4.503   4.425  0.7434 -3.6312 -1.9244
  770MOL0     H 3924   7.979   4.731   4.393 -0.2228  0.4961 -0.3896
  770MOL0     H 3925   7.805   4.751   4.438 -0.6169 -1.1162  0.2178
  770MOL0     H 3926   7.868   4.629   4.650  0.4521  0.0106  0.5831
  770MOL0     H 3927   7.961   4.762   4.644  1.9310  0.5112 -0.8572
  770MOL0     H 3928   8.070   4.494   4.581 -0.2580  0.0148  1.2434
  770MOL0     H 3929   8.140   4.653   4.514 -3.0076  0.4216 -1.2673
  770MOL0     H 3930   7.394   4.140   4.331  1.9171 -2.1218 -1.1312
  770MOL0     H 3931   7.147   4.186   4.316  0.4738  2.8469  0.7441
  770MOL0     H 3932   6.731   3.998   4.049 -2.4047 -2.3037  0.6253
  770MOL0     H 3933   6.495   4.031   4.087 -0.2203 -0.9179  2.6756
  770MOL0     H 3934   5.893   2.758   3.647 -0.3207 -0.4603  0.6485
  770MOL0     H 3935   5.754   2.603   3.530 -0.5456 -0.5107 -0.2189
  770MOL0     H 3936   5.418   2.423   3.409  2.5038  0.0009 -0.4010
  770MOL0     H 3937   5.257   2.272   3.381  0.0213 -1.0829 -0.8413
  770MOL0     H 3938   5.085   2.155   3.296 -0.7477 -0.0333 -2.7602
  770MOL0     H 3939   4.915   2.151   3.233 -1.0940 -0.3096 -0.1534
  770MOL0     H 3940   4.849   2.295   3.430 -0.0837 -1.6887 -3.6829
  770MOL0     H 3941   5.028   2.291   3.473  1.2938  0.4768 -1.4161
  770MOL0     H 3942   4.949   2.127   3.608 -2.1524 -3.0568  1.2777
  770MOL0     H 3943   4.974   2.015   3.478 -1.6381 -1.4721  0.7168
  770MOL0     H 3944   4.750   1.997   3.588  1.2892 -0.8127 -0.0291
  770MOL0     H 3945   4.704   2.154   3.511  3.0357  2.8838  0.9226
  770MOL0     H 3946   4.726   1.864   3.183 -0.8192 -0.8313  0.9634
  770MOL0     H 3947   5.063   2.532   3.094  0.0382  1.3159 -1.1405
  770MOL0     H 3948   5.204   2.814   3.154 -2.1717 -2.9463  2.6981
  770MOL0     H 3949   5.315   2.749   3.025  0.9329 -4.6224 -1.6571
  770MOL0     H 3950   5.139   2.722   3.018  0.0101  0.2619  0.8256
  771MOL0     O 3951   4.861   8.176   2.293  0.3192 -0.1855 -0.0585
  771MOL0     C 3952   4.787   8.155   2.394  0.2352  0.4184  0.4646
  771MOL0     O 3953   4.823   8.181   2.527  0.1495 -0.1365 -0.4709
  771MOL0     C 3954   4.952   8.217   2.561  0.9937  0.2603  0.3891
  771MOL0     C 3955   4.962   8.324   2.659 -0.3727 -0.7607 -0.0673
  771MOL0     C 3956   5.089   8.373   2.691  1.2855 -0.4208  0.3532
  771MOL0     C 3957   5.207   8.316   2.640 -0.1586  0.4165  0.9138
  771MOL0     O 3958   5.325   8.382   2.671  0.2543 -0.1287  0.4652
  771MOL0     C 3959   5.438   8.351   2.592 -1.0957 -0.4707 -0.1836
  771MOL0     C 3960   5.515   8.483   2.582  0.0701 -0.1342  0.0380
  771MOL0     C 3961   5.660   8.457   2.549  0.2739 -1.2500 -0.5014
  771MOL0     C 3962   5.743   8.436   2.676 -0.3850 -0.0918  0.2545
  771MOL0     C 3963   5.884   8.377   2.649 -0.2637  0.5236  0.3893
  771MOL0     C 3964   5.886   8.240   2.576 -0.1673  0.5948 -0.5783
  771MOL0     C 3965   6.021   8.170   2.575  0.2867  0.4163  0.1200
  771MOL0     C 3966   6.126   8.252   2.482  0.1650 -0.1203 -0.7090
  771MOL0     N 3967   6.256   8.181   2.480 -0.0382  0.1784 -0.6684
  771MOL0     C 3968   6.338   8.180   2.587  0.1064 -0.6559  0.0007
  771MOL0     C 3969   6.447   8.132   2.532  0.0542 -0.0091 -0.0522
  771MOL0     C 3970   6.584   8.111   2.595  0.2421  0.1956 -0.3778
  771MOL0     C 3971   6.646   8.241   2.635  0.0977 -0.6484  0.4927
  771MOL0     C 3972   6.754   8.274   2.529  0.0836  0.4855  0.2019
  771MOL0     C 3973   6.883   8.189   2.532  0.8182  1.0517  0.0279
  771MOL0     O 3974   6.948   8.209   2.655 -0.7651  0.3876  0.6191
  771MOL0     C 3975   7.083   8.226   2.646  0.1846 -0.5183  0.2697
  771MOL0     C 3976   7.160   8.162   2.553  0.0947 -0.4708  1.0205
  771MOL0     C 3977   7.300   8.188   2.540  0.5258  0.5057 -0.1943
  771MOL0     C 3978   7.374   8.262   2.632 -0.0139 -0.5743  0.4150
  771MOL0     C 3979   7.516   8.284   2.616 -0.9586  0.4952  0.2289
  771MOL0     O 3980   7.571   8.395   2.668  0.0712 -0.2712  0.0518
  771MOL0     C 3981   7.708   8.414   2.690  0.1956  0.5258 -0.1273
  771MOL0     C 3982   7.747   8.515   2.775  0.3434 -0.4548  0.2659
  771MOL0     C 3983   7.884   8.536   2.806 -0.4781  0.1084  0.1805
  771MOL0     C 3984   7.981   8.450   2.754 -1.7024  0.1140 -0.9664
  771MOL0     O 3985   8.112   8.459   2.795 -0.5012  0.1397  0.5003
  771MOL0     C 3986   8.156   8.581   2.839 -0.0840 -0.2407  0.7229
  771MOL0     C 3987   8.316   8.579   2.853 -0.4075  0.0521 -0.0991
  771MOL0     C 3988   8.382   8.720   2.882  0.0928  0.2667  1.4758
  771MOL0     C 3989   8.533   8.708   2.926  1.0174  0.1529  0.6898
  771MOL0     C 3990   8.613   8.836   2.947 -0.6074  0.5162 -0.1001
  771MOL0     C 3991   8.761   8.789   2.977  0.5567  0.2964  0.1126
  771MOL0     C 3992   8.844   8.910   2.980 -0.0122 -0.2372  0.1694
  771MOL0     C 3993   8.989   8.876   3.014 -0.0201  0.2300 -0.0008
  771MOL0    Cl 3994   9.073   8.760   2.918  0.2040  0.4638 -0.2423
  771MOL0     C 3995   7.943   8.339   2.679  0.0139  0.0076 -0.5916
  771MOL0     C 3996   7.811   8.330   2.639  0.3469  0.6756 -0.1749
  771MOL0     O 3997   7.571   8.191   2.557 -0.5449  0.1530 -0.5940
  771MOL0     C 3998   7.297   8.320   2.732  0.7101 -0.1030 -0.1297
  771MOL0     C 3999   7.153   8.303   2.733 -0.0325  0.2231  0.0824
  771MOL0     N 4000   6.425   8.071   2.410 -0.5536  0.3127  0.8002
  771MOL0     N 4001   6.303   8.116   2.366 -0.0028 -0.5761  0.5476
  771MOL0     C 4002   5.196   8.202   2.547 -0.3558 -1.2285  0.0073
  771MOL0     C 4003   5.065   8.158   2.512 -0.5795  0.1683  0.9411
  771MOL0     C 4004   4.654   8.097   2.364  0.6564  1.3085 -0.0555
  771MOL0     C 4005   4.569   8.156   2.273  1.2001 -0.0975 -0.5468
  771MOL0     C 4006   4.448   8.097   2.238 -0.4192 -0.1258 -0.4368
  771MOL0     C 4007   4.400   7.980   2.292  0.0888  0.2729  0.2670
  771MOL0     O 4008   4.278   7.930   2.245 -0.3196 -0.2035  0.2528
  771MOL0     C 4009   4.221   7.816   2.318  0.2985 -0.7188 -0.4954
  771MOL0     C 4010   4.093   7.765   2.247  0.4480  0.4747 -0.3197
  771MOL0     C 4011   4.054   7.632   2.309  0.5407 -0.1487 -0.5953
  771MOL0     C 4012   4.008   7.527   2.206 -0.2482 -0.7225  0.3308
  771MOL0     C 4013   4.133   7.475   2.144  0.1255  1.2151  0.1900
  771MOL0     C 4014   4.236   7.441   2.094 -0.1454  0.8474 -0.1489
  771MOL0     C 4015   4.486   7.916   2.377 -0.8536 -0.1639  0.1307
  771MOL0     C 4016   4.610   7.980   2.416  0.2145  0.0123 -0.1113
  771MOL0     C 4017   4.676   7.900   2.528  0.2471  0.2962  0.2303
  771MOL0     H 4018   4.873   8.360   2.711  1.4137  0.8789  2.0713
  771MOL0     H 4019   5.097   8.457   2.759  2.3042 -0.8658  0.8017
  771MOL0     H 4020   5.490   8.257   2.613 -1.0804 -0.5216 -0.4411
  771MOL0     H 4021   5.411   8.352   2.486  5.1280  0.9554 -2.2145
  771MOL0     H 4022   5.509   8.546   2.671 -3.6924 -1.5526  0.9775
  771MOL0     H 4023   5.462   8.529   2.498 -1.4174 -0.0711  0.9817
  771MOL0     H 4024   5.704   8.548   2.507 -1.6300  1.2480  2.4669
  771MOL0     H 4025   5.672   8.374   2.479  1.3052  0.6520 -2.7629
  771MOL0     H 4026   5.764   8.535   2.719  0.3250 -0.5429  0.9642
  771MOL0     H 4027   5.683   8.368   2.737 -0.2332  0.9005  1.5695
  771MOL0     H 4028   5.940   8.446   2.586  1.2983 -0.5199  0.5528
  771MOL0     H 4029   5.948   8.364   2.737  1.6191  0.7064 -0.8782
  771MOL0     H 4030   5.814   8.175   2.627  5.0735 -3.1423  3.1749
  771MOL0     H 4031   5.856   8.256   2.472  2.0753 -1.1202 -1.5697
  771MOL0     H 4032   6.017   8.064   2.546  2.0547  0.0042  1.2422
  771MOL0     H 4033   6.053   8.169   2.679  1.0070 -1.2374 -0.0813
  771MOL0     H 4034   6.080   8.253   2.383 -2.1400 -0.1283  0.2903
  771MOL0     H 4035   6.140   8.355   2.516  2.3465 -0.9473  1.2090
  771MOL0     H 4036   6.328   8.220   2.688 -0.0426  0.9796 -0.6218
  771MOL0     H 4037   6.578   8.040   2.678 -1.6577  0.3523 -0.3505
  771MOL0     H 4038   6.648   8.073   2.515  1.8243  3.1245 -0.6827
  771MOL0     H 4039   6.572   8.322   2.635  0.8358  0.1003 -1.4990
  771MOL0     H 4040   6.698   8.238   2.731  0.0561 -0.1988  0.5347
  771MOL0     H 4041   6.782   8.379   2.547 -0.2140  0.3564  1.4749
  771MOL0     H 4042   6.698   8.269   2.435 -1.9200  4.9118  0.8814
  771MOL0     H 4043   6.943   8.222   2.447  4.3068 -0.6212  1.6726
  771MOL0     H 4044   6.870   8.082   2.516  1.6207  1.2667 -2.3735
  771MOL0     H 4045   7.106   8.091   2.491 -0.5375  1.1487 -0.3631
  771MOL0     H 4046   7.348   8.129   2.463 -0.9259 -2.5683  1.1085
  771MOL0     H 4047   7.663   8.580   2.795  0.9636  0.3142  0.4016
  771MOL0     H 4048   7.918   8.619   2.867  2.4836  0.4836 -1.7743
  771MOL0     H 4049   8.132   8.663   2.771  1.0368 -0.6009 -0.1369
  771MOL0     H 4050   8.118   8.612   2.937 -0.3117  3.1014 -0.2870
  771MOL0     H 4051   8.329   8.515   2.940  0.1546 -0.1821 -0.3521
  771MOL0     H 4052   8.352   8.541   2.757  0.2754 -0.2608  0.2796
  771MOL0     H 4053   8.386   8.766   2.783 -1.4850 -4.3922 -1.1038
  771MOL0     H 4054   8.329   8.785   2.952 -3.0909 -0.9468  0.3397
  771MOL0     H 4055   8.585   8.650   2.849 -1.2207  1.8087 -2.2571
  771MOL0     H 4056   8.538   8.661   3.025 -0.5254  0.7965  1.1082
  771MOL0     H 4057   8.573   8.883   3.037 -4.0523 -0.5560 -0.9520
  771MOL0     H 4058   8.610   8.904   2.861  0.7684  0.4410 -0.2345
  771MOL0     H 4059   8.770   8.748   3.078  0.0348  1.6670  0.7507
  771MOL0     H 4060   8.794   8.722   2.898  2.1589  3.3896 -2.0638
  771MOL0     H 4061   8.803   8.967   3.064 -0.4190 -1.1494  0.6048
  771MOL0     H 4062   8.828   8.954   2.881 -2.9124 -0.8507  0.2793
  771MOL0     H 4063   9.047   8.968   3.026 -0.9113  0.4622  4.0337
  771MOL0     H 4064   9.000   8.827   3.112 -1.8221  2.1552  1.2594
  771MOL0     H 4065   8.014   8.259   2.659 -2.3797 -2.3306 -0.2063
  771MOL0     H 4066   7.794   8.246   2.572  0.6196  1.5157 -1.3306
  771MOL0     H 4067   7.336   8.398   2.796 -2.9674 -0.7208  3.2977
  771MOL0     H 4068   7.107   8.363   2.810  1.6755  1.2611  0.3537
  771MOL0     H 4069   5.284   8.154   2.505  0.1801  0.5686 -1.0688
  771MOL0     H 4070   5.072   8.068   2.451 -0.2769  0.6417  0.2686
  771MOL0     H 4071   4.602   8.249   2.227 -0.5838  0.9354  0.1640
  771MOL0     H 4072   4.387   8.140   2.159 -3.7036 -0.6951  1.5798
  771MOL0     H 4073   4.195   7.821   2.424  3.2711 -1.6903  0.3570
  771MOL0     H 4074   4.301   7.742   2.305  0.2259 -0.4751 -2.9514
  771MOL0     H 4075   4.111   7.753   2.139 -0.3928  0.3507 -0.4565
  771MOL0     H 4076   4.011   7.835   2.269 -0.7060 -0.3932 -1.6326
  771MOL0     H 4077   3.972   7.649   2.379 -1.2145 -2.1471 -2.0260
  771MOL0     H 4078   4.130   7.601   2.382  0.9232  2.2816  0.1160
  771MOL0     H 4079   3.967   7.452   2.275  0.6776 -0.0986  1.6064
  771MOL0     H 4080   3.943   7.572   2.131  0.3395 -0.0965  0.1855
  771MOL0     H 4081   4.328   7.414   2.046  0.4235 -0.7374  1.7026
  771MOL0     H 4082   4.457   7.822   2.423  0.9867 -0.1924  1.3596
  771MOL0     H 4083   4.780   7.929   2.548 -0.0717  2.5380 -1.0348
  771MOL0     H 4084   4.623   7.905   2.624  3.3468 -0.1289  2.1025
  771MOL0     H 4085   4.677   7.802   2.481 -1.6846  1.1123 -1.6820
  772MOL0     O 4086   2.703   3.360   7.329 -0.1895  0.8335 -0.1138
  772MOL0     C 4087   2.651   3.320   7.226  0.4586  0.0333 -0.2873
  772MOL0     O 4088   2.714   3.265   7.117  0.4149  0.6703 -0.1073
  772MOL0     C 4089   2.857   3.275   7.125 -0.8154  0.1635 -0.5873
  772MOL0     C 4090   2.924   3.385   7.063  0.5626  1.0034 -0.0539
  772MOL0     C 4091   3.062   3.390   7.059  0.7245  0.3385  0.4533
  772MOL0     C 4092   3.129   3.296   7.135 -0.2138 -0.5296 -0.0361
  772MOL0     O 4093   3.263   3.303   7.129 -0.8443  0.4547 -0.0813
  772MOL0     C 4094   3.330   3.187   7.081  1.2647  0.3164  0.3436
  772MOL0     C 4095   3.402   3.218   6.953  0.4346 -0.0823 -0.4090
  772MOL0     C 4096   3.314   3.220   6.823 -0.0354  0.1636  0.9390
  772MOL0     C 4097   3.229   3.088   6.779  0.1962  0.3037 -0.5603
  772MOL0     C 4098   3.188   3.118   6.636  0.0670 -0.3819 -0.5562
  772MOL0     C 4099   3.141   2.988   6.571  0.5942 -0.5771  0.0607
  772MOL0     C 4100   2.994   2.950   6.581 -0.4639 -0.3875  0.1050
  772MOL0     C 4101   2.894   3.016   6.477  0.1160  0.0686  0.8657
  772MOL0     N 4102   2.791   2.915   6.437 -0.5068 -0.0913  0.0393
  772MOL0     C 4103   2.669   2.897   6.501  0.5717  1.0909  0.7552
  772MOL0     C 4104   2.614   2.782   6.443  0.0097  0.1475  0.7891
  772MOL0     C 4105   2.503   2.702   6.492  0.0887  0.0537 -0.0429
  772MOL0     C 4106   2.462   2.593   6.385  0.8188 -0.7345 -0.4125
  772MOL0     C 4107   2.366   2.496   6.455 -1.3360 -0.0499  1.1822
  772MOL0     C 4108   2.225   2.561   6.462 -0.1480 -0.2001  0.0053
  772MOL0     O 4109   2.137   2.456   6.513 -0.1463 -0.4277  0.4809
  772MOL0     C 4110   2.003   2.497   6.516 -0.6910 -0.2842 -0.0476
  772MOL0     C 4111   1.941   2.595   6.441  0.0835  0.4750  0.2700
  772MOL0     C 4112   1.803   2.611   6.448  0.3376 -0.3150 -0.6076
  772MOL0     C 4113   1.723   2.535   6.537  0.0791 -0.0779  0.2859
  772MOL0     C 4114   1.577   2.538   6.535 -0.1576  0.5396  0.0304
  772MOL0     O 4115   1.523   2.439   6.610  0.3062 -0.0502  0.3243
  772MOL0     C 4116   1.389   2.411   6.633  0.7611 -0.2811 -0.3191
  772MOL0     C 4117   1.278   2.499   6.613 -0.6714 -0.4115 -0.1714
  772MOL0     C 4118   1.142   2.465   6.629  0.3966 -0.0487  0.4712
  772MOL0     C 4119   1.107   2.334   6.674 -1.2674  0.8696  0.9553
  772MOL0     O 4120   0.979   2.274   6.686 -0.0373 -0.0011 -0.9622
  772MOL0     C 4121   0.872   2.366   6.716  0.2817  0.3537  0.0926
  772MOL0     C 4122   0.741   2.287   6.697 -0.5714 -0.0688  0.0890
  772MOL0     C 4123   0.614   2.362   6.749  0.6590  0.5799  0.1607
  772MOL0     C 4124   0.499   2.265   6.751  0.3116  0.0143  1.0186
  772MOL0     C 4125   0.374   2.315   6.824 -0.4294  0.3186 -0.8057
  772MOL0     C 4126   0.263   2.217   6.818 -0.8110 -0.6706  0.0259
  772MOL0     C 4127   0.157   2.269   6.921  0.8181 -0.6707  0.3125
  772MOL0     C 4128   0.047   2.166   6.946 -0.3221  0.4436 -0.8229
  772MOL0    Cl 4129  -0.044   2.124   6.790  0.2605 -0.0133  0.1978
  772MOL0     C 4130   1.215   2.245   6.696  0.0373  0.6592 -0.9047
  772MOL0     C 4131   1.352   2.288   6.683  0.7514  0.1173  0.2014
  772MOL0     O 4132   1.514   2.617   6.469 -0.1932  0.3640  0.8271
  772MOL0     C 4133   1.793   2.443   6.624  0.0697 -1.1236  0.1933
  772MOL0     C 4134   1.929   2.433   6.612  0.7524  0.8317  0.4391
  772MOL0     N 4135   2.707   2.742   6.346  0.0313  0.7306 -0.2291
  772MOL0     N 4136   2.799   2.825   6.338  0.4144 -0.3387 -0.4338
  772MOL0     C 4137   3.071   3.206   7.214 -0.1862  0.6672  0.4804
  772MOL0     C 4138   2.934   3.191   7.203 -0.6079 -0.0041 -0.1824
  772MOL0     C 4139   2.498   3.332   7.213  0.6043  0.7298 -0.3040
  772MOL0     C 4140   2.425   3.349   7.332  0.3113  1.1012 -0.5022
  772MOL0     C 4141   2.285   3.340   7.338 -0.0647  0.0593  0.2422
  772MOL0     C 4142   2.210   3.331   7.221 -0.8632 -0.4519  1.2169
  772MOL0     O 4143   2.079   3.328   7.233 -0.1135  0.6345 -0.1419
  772MOL0     C 4144   1.988   3.363   7.135 -0.1892 -0.6268 -0.9935
  772MOL0     C 4145   1.884   3.439   7.208  0.1706 -0.7295 -1.1860
  772MOL0     C 4146   1.754   3.449   7.121 -0.7704  0.6946 -0.5895
  772MOL0     C 4147   1.776   3.521   6.984  0.6171  0.2738 -0.0131
  772MOL0     C 4148   1.853   3.462   6.882 -0.9328  0.2300 -1.0213
  772MOL0     C 4149   1.918   3.405   6.793  0.2341 -0.3236  0.8642
  772MOL0     C 4150   2.282   3.302   7.100 -0.3275 -0.6990  0.1359
  772MOL0     C 4151   2.423   3.315   7.091 -0.1578 -0.0102  0.8445
  772MOL0     C 4152   2.482   3.304   6.951  0.0065 -0.0899  0.0160
  772MOL0     H 4153   2.865   3.452   7.001 -1.0992  2.0644  2.5036
  772MOL0     H 4154   3.112   3.457   6.991 -2.7950  0.8596 -1.8596
  772MOL0     H 4155   3.396   3.152   7.160  1.6652 -1.8685 -0.8732
  772MOL0     H 4156   3.265   3.102   7.056  0.2609  1.6504 -1.8726
  772MOL0     H 4157   3.472   3.134   6.948 -0.6880 -1.1645  1.2017
  772MOL0     H 4158   3.453   3.314   6.964 -0.2258 -0.0402  3.5484
  772MOL0     H 4159   3.384   3.230   6.739 -0.7260 -4.1604 -0.3764
  772MOL0     H 4160   3.241   3.299   6.843 -1.4744 -0.5805 -1.0841
  772MOL0     H 4161   3.291   2.998   6.776 -1.1927 -0.6890 -0.3374
  772MOL0     H 4162   3.151   3.081   6.856 -0.9062 -0.3451 -1.7030
  772MOL0     H 4163   3.121   3.205   6.630 -0.8183 -0.9747  0.2702
  772MOL0     H 4164   3.268   3.164   6.577 -1.9055  2.4661 -1.2335
  772MOL0     H 4165   3.182   2.998   6.470  2.4120  2.1067  0.9389
  772MOL0     H 4166   3.193   2.903   6.617 -0.0080  0.4000  2.6910
  772MOL0     H 4167   2.958   2.956   6.685  0.9117 -1.5986  0.6836
  772MOL0     H 4168   2.993   2.841   6.570 -0.9280 -0.4632  0.8041
  772MOL0     H 4169   2.851   3.103   6.527 -1.2094 -0.2690  0.3520
  772MOL0     H 4170   2.945   3.047   6.386 -1.2736 -3.4676 -1.3431
  772MOL0     H 4171   2.627   2.955   6.583  2.1940  0.8699  1.7736
  772MOL0     H 4172   2.532   2.663   6.590 -1.9055  2.4098  1.6378
  772MOL0     H 4173   2.418   2.763   6.524 -2.3880 -2.8984 -0.4802
  772MOL0     H 4174   2.424   2.637   6.292  1.4533 -1.2974 -0.9437
  772MOL0     H 4175   2.550   2.535   6.356  2.3743  1.6606 -0.8150
  772MOL0     H 4176   2.404   2.478   6.556  2.3965  1.6019  0.2420
  772MOL0     H 4177   2.366   2.399   6.404 -2.1477  0.2091  0.6639
  772MOL0     H 4178   2.201   2.605   6.365 -2.3281 -0.9577  0.1303
  772MOL0     H 4179   2.229   2.645   6.533  1.1635 -0.8077  0.6797
  772MOL0     H 4180   1.985   2.645   6.355 -0.9632 -1.0172 -1.2158
  772MOL0     H 4181   1.769   2.684   6.376  1.8889  3.2718  1.9810
  772MOL0     H 4182   1.308   2.598   6.581  2.4523 -1.4139 -0.8071
  772MOL0     H 4183   1.064   2.540   6.624  1.0163  0.7285  1.9889
  772MOL0     H 4184   0.887   2.413   6.814  3.7545  2.5381 -1.2909
  772MOL0     H 4185   0.869   2.445   6.641  1.3090 -0.8232 -1.2548
  772MOL0     H 4186   0.734   2.260   6.591  0.5906  0.0741 -0.0405
  772MOL0     H 4187   0.752   2.197   6.758 -1.4116 -1.3284 -1.5522
  772MOL0     H 4188   0.633   2.386   6.854  0.4676 -1.4472  0.6891
  772MOL0     H 4189   0.584   2.447   6.687 -0.6648  0.9203  1.2185
  772MOL0     H 4190   0.529   2.177   6.809  0.8672  0.4125  1.3418
  772MOL0     H 4191   0.468   2.236   6.650  0.0414  0.6765  0.9114
  772MOL0     H 4192   0.336   2.410   6.787  1.7917  2.5515  2.1277
  772MOL0     H 4193   0.403   2.340   6.927  3.8517  0.1263 -1.7577
  772MOL0     H 4194   0.238   2.212   6.712  0.9562  1.1377 -0.5500
  772MOL0     H 4195   0.306   2.122   6.850 -1.0879  0.5222  4.7015
  772MOL0     H 4196   0.124   2.364   6.878  1.4422  0.3476  1.9970
  772MOL0     H 4197   0.205   2.288   7.017  0.7730  0.0976  0.1951
  772MOL0     H 4198   0.088   2.068   6.972  0.8185  0.9039 -0.8083
  772MOL0     H 4199  -0.031   2.198   7.015 -0.5154  0.0008 -0.8406
  772MOL0     H 4200   1.215   2.147   6.742 -0.2851  1.4864  0.9438
  772MOL0     H 4201   1.432   2.218   6.707  0.7373 -0.0712 -0.2910
  772MOL0     H 4202   1.738   2.381   6.694  0.1493 -3.5142 -1.7437
  772MOL0     H 4203   1.984   2.356   6.666 -1.6784 -0.1361  1.6813
  772MOL0     H 4204   3.134   3.132   7.265  0.8028  1.8265  0.9968
  772MOL0     H 4205   2.888   3.108   7.257 -0.8828 -0.4718 -1.1203
  772MOL0     H 4206   2.477   3.354   7.427  0.9257  2.5514 -0.8754
  772MOL0     H 4207   2.239   3.346   7.436  2.1510 -0.0854  1.3556
  772MOL0     H 4208   1.950   3.275   7.082  2.0649 -1.0053 -2.1117
  772MOL0     H 4209   2.040   3.428   7.064 -2.0627  0.9245 -1.0054
  772MOL0     H 4210   1.926   3.536   7.236 -0.6176 -0.7621  0.2042
  772MOL0     H 4211   1.851   3.396   7.303 -0.7224 -1.7156 -1.9146
  772MOL0     H 4212   1.687   3.506   7.185  1.8447  2.5299  0.6672
  772MOL0     H 4213   1.716   3.346   7.113 -2.4653  1.0363  1.9383
  772MOL0     H 4214   1.677   3.534   6.939 -0.7721  0.0304  2.7791
  772MOL0     H 4215   1.823   3.618   7.002  0.8297  0.0711  0.5456
  772MOL0     H 4216   1.966   3.371   6.704 -0.3627  1.9805 -0.4249
  772MOL0     H 4217   2.231   3.287   7.005  1.7320  0.5370 -1.2421
  772MOL0     H 4218   2.553   3.386   6.939 -1.8984  1.3206 -2.8114
  772MOL0     H 4219   2.530   3.210   6.922 -1.1055 -2.1884  4.2043
  772MOL0     H 4220   2.411   3.337   6.874 -0.6133  1.7449  1.3103
  773MOL0     O 4221   8.089   6.209   8.462 -0.4290  0.4144  0.1026
  773MOL0     C 4222   8.014   6.172   8.369 -0.4843  0.2068 -0.4101
  773MOL0     O 4223   8.027   6.050   8.309  0.3204  0.0492 -0.5716
  773MOL0     C 4224   8.138   5.974   8.335  0.4114 -0.0781 -1.0170
  773MOL0     C 4225   8.255   5.992   8.259  0.9010 -0.7388  0.0636
  773MOL0     C 4226   8.373   5.917   8.292  0.2304 -0.5220  0.2935
  773MOL0     C 4227   8.381   5.811   8.392 -0.1811 -0.3056  0.7609
  773MOL0     O 4228   8.499   5.733   8.408 -0.6655  0.5675 -0.2064
  773MOL0     C 4229   8.610   5.819   8.417 -0.5633 -0.4300  0.2312
  773MOL0     C 4230   8.721   5.756   8.499  0.8819  0.2179  0.5104
  773MOL0     C 4231   8.681   5.722   8.642  0.1654  0.4609  0.5787
  773MOL0     C 4232   8.720   5.579   8.691  0.2139 -0.1515 -0.1332
  773MOL0     C 4233   8.637   5.465   8.630 -0.3406  0.1801  0.2824
  773MOL0     C 4234   8.503   5.440   8.705 -0.0690 -0.4905  0.7133
  773MOL0     C 4235   8.421   5.344   8.615  0.0964  0.4758 -0.3338
  773MOL0     C 4236   8.282   5.314   8.678 -0.3587 -0.5487 -0.2247
  773MOL0     N 4237   8.173   5.288   8.579 -0.4269 -0.1972  0.5870
  773MOL0     C 4238   8.108   5.168   8.534  0.4348 -0.4602  0.9300
  773MOL0     C 4239   8.050   5.203   8.420 -0.5271  0.6902  0.3758
  773MOL0     C 4240   8.006   5.103   8.319 -0.7685 -0.5755  0.2202
  773MOL0     C 4241   7.860   5.045   8.354 -1.2123 -0.4819 -0.1173
  773MOL0     C 4242   7.776   4.985   8.238  0.2786 -0.5255  0.7444
  773MOL0     C 4243   7.851   4.851   8.192  0.9189  0.1639 -0.1276
  773MOL0     O 4244   7.870   4.768   8.307 -1.0032 -0.1319  0.2050
  773MOL0     C 4245   7.995   4.712   8.312 -0.7173  0.2998 -0.8708
  773MOL0     C 4246   8.072   4.708   8.437 -0.2937  0.2808  0.0991
  773MOL0     C 4247   8.207   4.678   8.450 -0.0434 -0.5068  0.3871
  773MOL0     C 4248   8.270   4.625   8.337 -1.0701 -0.4298 -0.6862
  773MOL0     C 4249   8.408   4.580   8.345  0.5524  0.2694  0.3184
  773MOL0     O 4250   8.494   4.650   8.426 -0.1420 -1.1279  0.0376
  773MOL0     C 4251   8.627   4.627   8.447  0.1093  0.1530 -0.3136
  773MOL0     C 4252   8.687   4.497   8.451 -0.4867  0.2241  0.3887
  773MOL0     C 4253   8.821   4.483   8.493  0.5817 -0.4169 -0.2706
  773MOL0     C 4254   8.898   4.593   8.531  0.6744  0.0189 -0.0297
  773MOL0     O 4255   9.026   4.563   8.561  0.1212  0.7868  0.2049
  773MOL0     C 4256   9.120   4.660   8.603  0.1412 -0.0526  0.0379
  773MOL0     C 4257   9.248   4.573   8.626  0.5032 -0.8155 -0.7502
  773MOL0     C 4258   9.339   4.652   8.722 -0.2153  0.8363 -0.8635
  773MOL0     C 4259   9.401   4.777   8.659  0.1590 -0.6773 -0.1430
  773MOL0     C 4260   9.518   4.822   8.745  0.0906  0.1295  1.0768
  773MOL0     C 4261   9.648   4.728   8.716 -0.5689 -0.3704  0.3918
  773MOL0     C 4262   9.785   4.792   8.758 -0.9514 -0.0742  0.4678
  773MOL0     C 4263   9.890   4.682   8.776  0.2562  0.0533  0.7752
  773MOL0    Cl 4264   9.911   4.584   8.625  0.3063 -0.0262 -0.5939
  773MOL0     C 4265   8.843   4.721   8.515 -0.3745  0.0401 -0.4913
  773MOL0     C 4266   8.705   4.741   8.485 -0.9383  0.7072  0.0945
  773MOL0     O 4267   8.448   4.503   8.255  0.0048 -0.5489 -0.4263
  773MOL0     C 4268   8.195   4.615   8.219 -0.1051 -0.0556 -0.0455
  773MOL0     C 4269   8.066   4.665   8.202  0.2350  0.3771  0.0719
  773MOL0     N 4270   8.068   5.335   8.389 -0.0656 -0.6273 -1.1518
  773MOL0     N 4271   8.140   5.389   8.491  0.2327 -0.3017  0.1300
  773MOL0     C 4272   8.268   5.790   8.464  0.7754  0.3758 -0.3043
  773MOL0     C 4273   8.153   5.875   8.440  1.2202 -0.1096 -0.5900
  773MOL0     C 4274   7.910   6.275   8.320  0.3939 -1.1034 -0.3855
  773MOL0     C 4275   7.914   6.404   8.382  0.3174  0.4750  0.9727
  773MOL0     C 4276   7.817   6.494   8.336  0.5608 -0.1699  0.0358
  773MOL0     C 4277   7.722   6.470   8.239 -0.2267 -0.2726  0.6576
  773MOL0     O 4278   7.627   6.556   8.187 -0.1518 -0.5543  0.5854
  773MOL0     C 4279   7.623   6.690   8.234 -0.1321  0.6070 -0.6263
  773MOL0     C 4280   7.735   6.798   8.224  0.4728 -0.4042  0.4725
  773MOL0     C 4281   7.740   6.897   8.344 -0.6078  0.2843  0.3555
  773MOL0     C 4282   7.612   6.979   8.358 -0.3283 -0.3716 -0.0903
  773MOL0     C 4283   7.598   7.030   8.492  0.8230 -0.4689 -1.1125
  773MOL0     C 4284   7.560   7.080   8.597 -0.0825  0.3680  0.1996
  773MOL0     C 4285   7.733   6.350   8.173  0.3692 -0.1648 -0.5612
  773MOL0     C 4286   7.818   6.254   8.212 -0.0411  1.6046  0.3612
  773MOL0     C 4287   7.813   6.119   8.145 -0.2881  0.6660  0.3467
  773MOL0     H 4288   8.264   6.065   8.179 -4.3166 -0.4700 -0.6370
  773MOL0     H 4289   8.466   5.927   8.236 -0.4501  1.1207 -0.6143
  773MOL0     H 4290   8.650   5.832   8.316 -2.2271 -0.0823 -0.4090
  773MOL0     H 4291   8.591   5.921   8.449 -0.2296 -0.4173  0.3927
  773MOL0     H 4292   8.809   5.822   8.497  2.8189 -2.2007  0.8623
  773MOL0     H 4293   8.740   5.658   8.456 -1.3485  0.2231 -0.6000
  773MOL0     H 4294   8.572   5.731   8.654  0.4180  1.5392  2.3953
  773MOL0     H 4295   8.727   5.800   8.704  3.7672 -0.0020 -1.2457
  773MOL0     H 4296   8.819   5.560   8.648 -0.4640 -2.4107 -0.8921
  773MOL0     H 4297   8.722   5.567   8.799 -2.3288 -1.8856 -0.1850
  773MOL0     H 4298   8.630   5.478   8.522  0.2357  2.9787  0.5214
  773MOL0     H 4299   8.695   5.372   8.638  0.2912  0.7181  2.6643
  773MOL0     H 4300   8.526   5.393   8.801  0.5972 -0.5016  0.5556
  773MOL0     H 4301   8.449   5.534   8.722  1.7372  0.7980 -0.3369
  773MOL0     H 4302   8.461   5.242   8.606  2.1187  0.9440  2.1423
  773MOL0     H 4303   8.403   5.403   8.525  0.5334  1.5618  0.2757
  773MOL0     H 4304   8.312   5.223   8.731  3.5944 -0.9283 -2.7195
  773MOL0     H 4305   8.256   5.385   8.757 -0.0476 -0.7069  0.0255
  773MOL0     H 4306   8.110   5.067   8.574  1.5123 -0.8681 -0.0940
  773MOL0     H 4307   8.012   5.132   8.213  1.2300 -1.3450  0.0897
  773MOL0     H 4308   8.076   5.020   8.326 -0.4542 -0.2172  1.5673
  773MOL0     H 4309   7.883   4.967   8.427 -0.9637 -1.1023 -0.8567
  773MOL0     H 4310   7.806   5.130   8.398  0.9339  2.1159 -2.1656
  773MOL0     H 4311   7.773   5.043   8.145 -3.7777  1.1087  1.6961
  773MOL0     H 4312   7.671   4.964   8.258 -0.1723 -1.8979 -2.4674
  773MOL0     H 4313   7.948   4.884   8.155  0.5161  2.2953  0.5393
  773MOL0     H 4314   7.792   4.796   8.118 -0.5749 -0.5748  1.5263
  773MOL0     H 4315   8.031   4.748   8.530  0.3578 -1.9949  1.4396
  773MOL0     H 4316   8.259   4.674   8.545 -1.1648 -1.2266  0.9985
  773MOL0     H 4317   8.631   4.407   8.432 -2.6420  1.4947  0.4116
  773MOL0     H 4318   8.860   4.382   8.496  1.2572 -0.4036 -3.7770
  773MOL0     H 4319   9.144   4.732   8.525  5.0290 -0.2469  1.0794
  773MOL0     H 4320   9.084   4.706   8.695 -2.5454  0.8288 -1.3332
  773MOL0     H 4321   9.217   4.478   8.670 -2.7364  0.5834  0.2584
  773MOL0     H 4322   9.299   4.555   8.531  0.5062 -0.0645 -0.8962
  773MOL0     H 4323   9.291   4.661   8.820  1.5857  0.8728  0.0525
  773MOL0     H 4324   9.422   4.585   8.747 -0.4978  0.6012 -0.5423
  773MOL0     H 4325   9.339   4.867   8.660  4.7240  2.7984  1.3281
  773MOL0     H 4326   9.414   4.762   8.551  1.5137  1.1837 -0.2757
  773MOL0     H 4327   9.494   4.831   8.851 -0.2779 -3.4384  1.4103
  773MOL0     H 4328   9.546   4.909   8.685 -0.4809 -2.2381 -2.9560
  773MOL0     H 4329   9.636   4.630   8.762 -2.7528  0.2343  1.2544
  773MOL0     H 4330   9.636   4.709   8.609  0.7964 -0.1094  0.1839
  773MOL0     H 4331   9.769   4.844   8.852 -0.5590  0.4364  0.2561
  773MOL0     H 4332   9.829   4.857   8.682 -1.9789 -0.0187 -0.0957
  773MOL0     H 4333   9.986   4.731   8.793 -0.5755  2.0096  0.1702
  773MOL0     H 4334   9.857   4.624   8.863 -1.6339 -1.5968 -0.9340
  773MOL0     H 4335   8.901   4.810   8.537  0.2998 -0.7995  1.3749
  773MOL0     H 4336   8.664   4.837   8.514  0.7000  1.4503  0.0842
  773MOL0     H 4337   8.235   4.563   8.133 -0.6534  2.6735 -2.0463
  773MOL0     H 4338   8.010   4.664   8.109 -2.0747 -0.0513  1.3832
  773MOL0     H 4339   8.275   5.710   8.538  1.8174 -1.5007 -2.3426
  773MOL0     H 4340   8.064   5.876   8.502 -0.9665  1.6759 -3.4720
  773MOL0     H 4341   7.980   6.424   8.466  2.4602 -1.5417 -0.1138
  773MOL0     H 4342   7.807   6.585   8.394 -2.6626  0.1181 -0.7797
  773MOL0     H 4343   7.596   6.689   8.340  0.5064  4.3882 -0.2732
  773MOL0     H 4344   7.531   6.731   8.192 -2.4293 -0.0810  3.2548
  773MOL0     H 4345   7.706   6.850   8.132 -0.2360  0.6696  1.2708
  773MOL0     H 4346   7.834   6.757   8.203  1.2112  1.3663  0.3525
  773MOL0     H 4347   7.826   6.964   8.335 -0.5461  0.0045 -1.4429
  773MOL0     H 4348   7.760   6.840   8.436  0.3018  0.6797  0.4192
  773MOL0     H 4349   7.616   7.064   8.290 -1.8262  1.1427  1.6201
  773MOL0     H 4350   7.525   6.918   8.334 -2.5912  3.1236 -1.6289
  773MOL0     H 4351   7.535   7.134   8.687  2.6038  0.2752  1.1065
  773MOL0     H 4352   7.666   6.345   8.088 -5.2702 -0.5147  3.3423
  773MOL0     H 4353   7.905   6.116   8.087 -1.2170  3.2055 -1.4291
  773MOL0     H 4354   7.808   6.042   8.222 -0.4809  0.2405 -0.0848
  773MOL0     H 4355   7.747   6.096   8.060  2.0674 -1.2737 -1.1056
  774MOL0     O 4356   9.230   6.737   3.353 -0.8284  0.2656  0.6811
  774MOL0     C 4357   9.244   6.697   3.467 -0.3115 -0.3549  0.2507
  774MOL0     O 4358   9.360   6.689   3.539 -0.1815  0.4898 -0.6084
  774MOL0     C 4359   9.480   6.741   3.490 -0.2955  0.2683  0.1363
  774MOL0     C 4360   9.492   6.860   3.416  0.8039 -0.4169  0.3161
  774MOL0     C 4361   9.613   6.902   3.376 -0.7314 -0.6723 -0.4561
  774MOL0     C 4362   9.731   6.828   3.397  0.6340  0.4891  0.3397
  774MOL0     O 4363   9.844   6.879   3.337 -0.3950  0.3757  0.4039
  774MOL0     C 4364   9.970   6.826   3.374  0.7939 -1.1606  0.2283
  774MOL0     C 4365  10.086   6.877   3.293 -0.3041 -0.1227 -0.0869
  774MOL0     C 4366  10.216   6.859   3.371  0.1085  0.2176  0.3516
  774MOL0     C 4367  10.333   6.932   3.307 -0.4461  0.1297 -0.4160
  774MOL0     C 4368  10.389   6.882   3.163  0.2404 -0.3932  0.0999
  774MOL0     C 4369  10.416   6.734   3.171  0.1483  0.2433 -0.6786
  774MOL0     C 4370  10.462   6.679   3.034  0.5261 -0.1486  0.0843
  774MOL0     C 4371  10.446   6.523   3.023  1.2348 -0.0173 -1.6191
  774MOL0     N 4372  10.511   6.468   2.907 -0.6895  0.4253 -0.1989
  774MOL0     C 4373  10.439   6.433   2.797  0.6582 -0.3259 -0.4998
  774MOL0     C 4374  10.530   6.377   2.714  0.3112 -0.8255 -0.3404
  774MOL0     C 4375  10.507   6.315   2.576 -0.5459 -0.2215 -0.5461
  774MOL0     C 4376  10.495   6.422   2.458  0.1223  0.3487 -0.3541
  774MOL0     C 4377  10.432   6.361   2.328 -0.6951  0.1381 -0.0444
  774MOL0     C 4378  10.322   6.259   2.351  0.5177 -0.3809  0.3895
  774MOL0     O 4379  10.216   6.305   2.434  0.2583 -0.0878  0.1315
  774MOL0     C 4380  10.120   6.213   2.464  0.5767 -1.0702  1.0680
  774MOL0     C 4381  10.032   6.250   2.566 -0.2393  0.1928 -0.5315
  774MOL0     C 4382   9.923   6.179   2.608  0.0549 -0.1325  0.1563
  774MOL0     C 4383   9.884   6.063   2.532 -0.2314  0.5591 -0.7598
  774MOL0     C 4384   9.758   5.994   2.561 -0.0558  0.4170 -0.8902
  774MOL0     O 4385   9.669   6.049   2.644  0.2456 -0.0380  0.3058
  774MOL0     C 4386   9.577   5.964   2.708 -0.2958 -0.6129  0.5522
  774MOL0     C 4387   9.488   5.872   2.654  0.4240 -0.2726  0.1448
  774MOL0     C 4388   9.383   5.810   2.730 -1.3578  0.5970  0.0651
  774MOL0     C 4389   9.374   5.843   2.868 -0.4015  0.3633  0.6116
  774MOL0     O 4390   9.273   5.792   2.948 -0.7321  0.6684  0.0078
  774MOL0     C 4391   9.141   5.831   2.915 -0.1987  0.9416 -0.1813
  774MOL0     C 4392   9.043   5.794   3.020  0.1545 -0.1750  0.2749
  774MOL0     C 4393   8.901   5.846   2.992 -0.6990 -0.3388 -0.6139
  774MOL0     C 4394   8.808   5.818   3.119  0.0191 -0.1870 -0.1954
  774MOL0     C 4395   8.700   5.931   3.141 -0.0896  0.4916  0.2282
  774MOL0     C 4396   8.574   5.913   3.048 -0.0740 -0.3116  0.4209
  774MOL0     C 4397   8.464   6.013   3.093 -0.2411  0.1799 -0.2159
  774MOL0     C 4398   8.339   6.014   3.003 -0.3530 -0.3267 -0.2183
  774MOL0    Cl 4399   8.238   5.872   3.036 -0.3115  0.1153  0.5677
  774MOL0     C 4400   9.466   5.935   2.923  0.5904  0.6277  0.2056
  774MOL0     C 4401   9.561   5.999   2.846  0.8055  0.8852  0.5927
  774MOL0     O 4402   9.755   5.886   2.509  0.8353 -0.0720  0.5217
  774MOL0     C 4403   9.977   6.023   2.432  0.6306  0.2480  0.4067
  774MOL0     C 4404  10.082   6.097   2.390 -0.8340  0.4215 -0.4502
  774MOL0     N 4405  10.656   6.384   2.774 -0.1403  0.4254 -0.0212
  774MOL0     N 4406  10.641   6.431   2.884  0.3503 -0.0903 -0.3647
  774MOL0     C 4407   9.724   6.711   3.474 -0.1138  0.6688 -0.5149
  774MOL0     C 4408   9.603   6.675   3.520 -0.4085  0.4187 -0.2208
  774MOL0     C 4409   9.116   6.659   3.548  0.1927  0.2316 -0.2592
  774MOL0     C 4410   9.115   6.660   3.687 -0.2292 -0.0581  1.1203
  774MOL0     C 4411   9.010   6.631   3.768  0.4032  1.0764  0.0224
  774MOL0     C 4412   8.889   6.589   3.707 -0.1618 -0.2340  0.2246
  774MOL0     O 4413   8.793   6.542   3.793 -0.5087  0.2326 -0.3702
  774MOL0     C 4414   8.665   6.487   3.745  0.2030  0.2507  0.3120
  774MOL0     C 4415   8.563   6.483   3.857 -0.3008  0.3509 -0.1010
  774MOL0     C 4416   8.600   6.360   3.963 -0.1440 -0.1968  0.6036
  774MOL0     C 4417   8.553   6.389   4.105 -0.2879 -0.2345  0.0778
  774MOL0     C 4418   8.415   6.434   4.101  0.8355  0.4139 -0.1814
  774MOL0     C 4419   8.291   6.465   4.099 -1.2118  0.1947  0.1451
  774MOL0     C 4420   8.882   6.575   3.575  0.1994  0.3219  0.1363
  774MOL0     C 4421   8.990   6.604   3.493 -0.8896 -0.7703 -0.3882
  774MOL0     C 4422   8.987   6.566   3.348  0.5172  1.1457 -0.1840
  774MOL0     H 4423   9.404   6.919   3.390 -0.3028 -2.2872 -0.3587
  774MOL0     H 4424   9.622   6.989   3.313 -0.8259 -1.3289 -1.3886
  774MOL0     H 4425   9.985   6.835   3.482 -0.6914  1.6325  0.2777
  774MOL0     H 4426   9.975   6.717   3.360  3.2813 -1.0139 -0.5596
  774MOL0     H 4427  10.074   6.983   3.271  0.9867 -0.5161 -3.2790
  774MOL0     H 4428  10.080   6.817   3.202 -2.9652  0.1852 -0.2138
  774MOL0     H 4429  10.240   6.753   3.380  1.5331  0.4553 -0.3557
  774MOL0     H 4430  10.208   6.890   3.476  0.8207  1.5891  0.0222
  774MOL0     H 4431  10.314   7.037   3.286  0.3588  0.4141  0.2079
  774MOL0     H 4432  10.414   6.921   3.381 -2.3938  3.1159  2.4100
  774MOL0     H 4433  10.320   6.916   3.086  1.6725  0.9702 -0.6557
  774MOL0     H 4434  10.488   6.924   3.141 -0.2718 -0.3215 -2.2804
  774MOL0     H 4435  10.498   6.723   3.243 -1.1633  0.1897  0.8663
  774MOL0     H 4436  10.319   6.691   3.196 -1.6350  3.4615 -1.4934
  774MOL0     H 4437  10.564   6.707   3.004  1.0542 -2.7188 -0.7877
  774MOL0     H 4438  10.390   6.713   2.959  2.3973 -0.7439 -2.1102
  774MOL0     H 4439  10.499   6.489   3.112 -1.8346  0.6433  0.6107
  774MOL0     H 4440  10.339   6.504   3.038  1.2038  1.9959  1.9852
  774MOL0     H 4441  10.333   6.436   2.776  0.7567  3.4977 -1.1311
  774MOL0     H 4442  10.590   6.249   2.552 -2.1768 -2.1481 -1.1876
  774MOL0     H 4443  10.418   6.251   2.574  0.8613 -2.2810 -0.7228
  774MOL0     H 4444  10.438   6.506   2.499  1.3143 -0.3997  3.2923
  774MOL0     H 4445  10.594   6.463   2.436  1.0341 -0.3551  2.1184
  774MOL0     H 4446  10.518   6.314   2.278  0.6773  2.9562 -0.5419
  774MOL0     H 4447  10.389   6.429   2.255 -1.2842 -1.2155 -1.0023
  774MOL0     H 4448  10.356   6.168   2.401 -0.8742 -1.5392 -0.6829
  774MOL0     H 4449  10.268   6.233   2.260 -1.1045 -0.3208  1.2878
  774MOL0     H 4450  10.059   6.340   2.620 -0.2889  0.5319 -1.0710
  774MOL0     H 4451   9.859   6.213   2.688 -2.1482 -0.4610 -1.3923
  774MOL0     H 4452   9.501   5.846   2.550  1.4093  1.0036 -0.0628
  774MOL0     H 4453   9.323   5.736   2.678  1.5850  1.4280 -5.2508
  774MOL0     H 4454   9.145   5.937   2.886  4.6104 -0.1548 -5.1220
  774MOL0     H 4455   9.110   5.774   2.826 -1.0246  0.5935  0.3190
  774MOL0     H 4456   9.028   5.686   3.016 -0.3527 -0.0953 -3.1404
  774MOL0     H 4457   9.079   5.826   3.118 -1.3499  1.4493  0.3503
  774MOL0     H 4458   8.905   5.950   2.960  1.2088 -1.1001 -3.2316
  774MOL0     H 4459   8.846   5.788   2.917 -2.4423  1.3639 -0.7455
  774MOL0     H 4460   8.868   5.823   3.210 -0.9905  1.3050  0.4318
  774MOL0     H 4461   8.753   5.723   3.115 -0.1264 -0.0796 -0.8970
  774MOL0     H 4462   8.750   6.025   3.115  2.6218 -1.0669 -0.5036
  774MOL0     H 4463   8.673   5.930   3.247 -0.6389 -0.5440  0.0847
  774MOL0     H 4464   8.603   5.930   2.944 -0.7401  2.3040  0.5920
  774MOL0     H 4465   8.527   5.815   3.060 -0.7609 -0.2226 -1.3677
  774MOL0     H 4466   8.510   6.112   3.087  2.0997 -0.9471 -2.7754
  774MOL0     H 4467   8.429   5.994   3.195 -0.4760  3.1073  0.3375
  774MOL0     H 4468   8.283   6.107   3.017  0.6768  0.0430  1.8651
  774MOL0     H 4469   8.372   6.010   2.899 -2.9361 -0.1989 -1.1243
  774MOL0     H 4470   9.455   5.961   3.028  0.1475 -1.1151  0.6234
  774MOL0     H 4471   9.619   6.076   2.895  2.5851 -0.9042  1.4308
  774MOL0     H 4472   9.971   5.928   2.379  1.4125  0.8603 -0.8356
  774MOL0     H 4473  10.135   6.068   2.300  0.8585  1.9885 -0.0205
  774MOL0     H 4474   9.813   6.655   3.499 -2.0647 -2.2612  0.3535
  774MOL0     H 4475   9.598   6.576   3.564  0.2583 -0.6755 -2.4383
  774MOL0     H 4476   9.201   6.705   3.736 -0.9827  2.3226  0.3697
  774MOL0     H 4477   9.010   6.621   3.876 -1.2861  0.2870 -0.0207
  774MOL0     H 4478   8.688   6.388   3.705  1.6628 -0.1234  1.9302
  774MOL0     H 4479   8.623   6.555   3.670 -0.0688  2.8573  2.6670
  774MOL0     H 4480   8.465   6.466   3.813  0.0493 -0.6421 -0.5066
  774MOL0     H 4481   8.562   6.580   3.909  0.8305  0.5443 -0.3962
  774MOL0     H 4482   8.709   6.347   3.960 -0.2669 -1.8846  2.2235
  774MOL0     H 4483   8.558   6.267   3.926 -0.3681  0.9952 -2.4719
  774MOL0     H 4484   8.550   6.294   4.159 -0.2214 -2.4881 -3.5297
  774MOL0     H 4485   8.613   6.453   4.170  0.5968 -1.7525  0.8224
  774MOL0     H 4486   8.189   6.497   4.105 -1.6174 -1.1962  1.5150
  774MOL0     H 4487   8.804   6.517   3.527  2.0262 -3.0428  0.8413
  774MOL0     H 4488   8.894   6.511   3.330  1.7631 -0.5318 -1.9692
  774MOL0     H 4489   8.989   6.653   3.281 -2.4767  2.6281  1.4030
  774MOL0     H 4490   9.060   6.486   3.336  0.0698  0.1417  2.9187
  775MOL0     O 4491   6.190   9.986   5.809  0.1375  0.0360  0.1765
  775MOL0     C 4492   6.096  10.008   5.732  0.4928  0.2730  0.9866
  775MOL0     O 4493   6.102  10.083   5.614  0.1899 -0.3701  0.0430
  775MOL0     C 4494   6.220  10.134   5.571 -0.6718 -0.4221 -0.1615
  775MOL0     C 4495   6.329  10.059   5.529  0.7516  1.0186  0.7613
  775MOL0     C 4496   6.451  10.117   5.485  0.4688  0.0963 -0.1977
  775MOL0     C 4497   6.461  10.257   5.464 -0.5474 -0.2540 -0.3527
  775MOL0     O 4498   6.564  10.339   5.432 -0.7704 -0.0901  0.3824
  775MOL0     C 4499   6.667  10.286   5.351  0.0172 -0.8178  0.3085
  775MOL0     C 4500   6.761  10.405   5.320 -0.2426  0.1466 -0.2018
  775MOL0     C 4501   6.701  10.540   5.276 -0.3604  0.1428 -0.3335
  775MOL0     C 4502   6.806  10.644   5.277 -0.3639  0.1763 -0.1584
  775MOL0     C 4503   6.757  10.759   5.191 -0.2617 -0.8733 -0.1913
  775MOL0     C 4504   6.834  10.886   5.241 -0.3429 -0.3443  0.1660
  775MOL0     C 4505   6.988  10.869   5.230 -0.6056  0.0482  1.0362
  775MOL0     C 4506   7.061  11.000   5.221  0.1645 -0.5870 -0.6810
  775MOL0     N 4507   7.100  11.054   5.353  0.3854  0.2527  0.4501
  775MOL0     C 4508   7.208  11.010   5.425 -0.7111  0.4744 -0.7839
  775MOL0     C 4509   7.215  11.097   5.525  0.1053 -0.1215  0.0337
  775MOL0     C 4510   7.316  11.093   5.639  1.0284 -0.5182  0.3117
  775MOL0     C 4511   7.454  11.151   5.589  0.7978 -0.1203 -0.5587
  775MOL0     C 4512   7.442  11.292   5.517 -0.3991 -0.8397  0.1985
  775MOL0     C 4513   7.381  11.407   5.603 -0.1764 -0.5046 -0.1876
  775MOL0     O 4514   7.457  11.418   5.726  0.0516 -0.1638 -0.2880
  775MOL0     C 4515   7.589  11.433   5.727 -0.7366 -0.6391  0.0582
  775MOL0     C 4516   7.657  11.370   5.836  0.5936 -0.4446  0.1898
  775MOL0     C 4517   7.795  11.364   5.849  0.2211 -0.4492  0.0882
  775MOL0     C 4518   7.879  11.420   5.760  0.7043 -0.4041  0.3186
  775MOL0     C 4519   8.028  11.420   5.778  0.4056  0.1790  0.9610
  775MOL0     O 4520   8.074  11.393   5.900 -0.5928  0.1783  0.7053
  775MOL0     C 4521   8.204  11.354   5.910 -0.4878 -0.2489  0.5567
  775MOL0     C 4522   8.296  11.428   5.988  0.7633  0.5804 -0.0724
  775MOL0     C 4523   8.428  11.385   5.995 -0.6473 -0.3110 -0.8846
  775MOL0     C 4524   8.474  11.271   5.926 -0.1425  0.0095 -0.3986
  775MOL0     O 4525   8.609  11.229   5.900  0.0040  0.8125  0.1014
  775MOL0     C 4526   8.714  11.266   5.984  0.3529 -0.2055 -0.2094
  775MOL0     C 4527   8.849  11.203   5.954  0.1899  0.1070  0.4262
  775MOL0     C 4528   8.857  11.060   6.013 -0.5068 -1.4594  1.1343
  775MOL0     C 4529   8.779  10.967   5.918  0.3352  0.3879 -0.3722
  775MOL0     C 4530   8.796  10.818   5.961  0.1775  0.2187  0.7062
  775MOL0     C 4531   8.775  10.717   5.851 -0.4395 -0.8287 -0.6511
  775MOL0     C 4532   8.840  10.576   5.873  0.0874 -0.2405 -0.1440
  775MOL0     C 4533   8.791  10.501   5.999 -0.4303 -0.0040 -0.8178
  775MOL0    Cl 4534   8.629  10.449   5.949  0.2516 -0.0454 -0.2350
  775MOL0     C 4535   8.378  11.192   5.854 -0.1417 -0.0986  0.6372
  775MOL0     C 4536   8.246  11.238   5.844  0.0924  0.2308  0.3166
  775MOL0     O 4537   8.098  11.441   5.679 -0.5489 -0.3285  0.1712
  775MOL0     C 4538   7.814  11.487   5.646 -0.0675  0.0722 -0.5978
  775MOL0     C 4539   7.675  11.495   5.634 -0.7112  0.3602 -0.4184
  775MOL0     N 4540   7.117  11.197   5.507 -0.6906 -0.4474 -0.1881
  775MOL0     N 4541   7.054  11.172   5.395  0.3195 -1.2569  0.6402
  775MOL0     C 4542   6.348  10.335   5.517  0.6160 -0.0786 -0.0841
  775MOL0     C 4543   6.231  10.275   5.570 -0.2438  0.4321 -0.0520
  775MOL0     C 4544   5.959   9.956   5.764 -0.5815 -0.1027  0.1070
  775MOL0     C 4545   5.845  10.013   5.697  0.8917  0.5053 -0.4514
  775MOL0     C 4546   5.716   9.972   5.724 -0.6683 -0.0449 -0.3963
  775MOL0     C 4547   5.695   9.867   5.810  0.0182 -0.1437 -0.6160
  775MOL0     O 4548   5.567   9.844   5.855  0.0009  0.1343 -0.4014
  775MOL0     C 4549   5.545   9.876   5.999 -0.9218 -0.8712  0.6178
  775MOL0     C 4550   5.409   9.945   6.014 -0.5467  0.5583  0.3755
  775MOL0     C 4551   5.299   9.853   5.975  0.5513 -0.2844 -0.0776
  775MOL0     C 4552   5.166   9.894   6.044 -0.2077  0.5792  0.3559
  775MOL0     C 4553   5.116  10.030   6.002 -0.2094  0.3146  0.6416
  775MOL0     C 4554   5.087  10.134   5.951  0.4937  0.6509 -0.9903
  775MOL0     C 4555   5.801   9.807   5.879  0.9463  0.2432  0.6642
  775MOL0     C 4556   5.933   9.856   5.856  0.6348  1.0664 -0.4345
  775MOL0     C 4557   6.038   9.778   5.936  0.3847 -0.7217 -0.0882
  775MOL0     H 4558   6.332   9.952   5.549 -1.6543  1.0970  1.7991
  775MOL0     H 4559   6.542  10.062   5.465  0.6418  0.8538 -1.6063
  775MOL0     H 4560   6.731  10.220   5.410  1.3753 -0.8524 -1.1499
  775MOL0     H 4561   6.628  10.227   5.267 -0.4168 -1.0233  0.6507
  775MOL0     H 4562   6.822  10.361   5.240 -0.2491 -1.0492  0.4196
  775MOL0     H 4563   6.811  10.410   5.417 -0.1067 -3.5353  0.0913
  775MOL0     H 4564   6.617  10.582   5.331 -1.1761  0.9032 -2.0681
  775MOL0     H 4565   6.650  10.530   5.180 -2.4812  2.0872  0.5164
  775MOL0     H 4566   6.844  10.663   5.378 -3.2956  0.0229  1.0893
  775MOL0     H 4567   6.889  10.605   5.219  0.0133  1.5618 -0.5809
  775MOL0     H 4568   6.776  10.740   5.085 -1.2743  0.1898 -0.5947
  775MOL0     H 4569   6.648  10.768   5.202 -0.2036 -0.1738 -0.1534
  775MOL0     H 4570   6.799  10.974   5.187 -3.0000 -0.3952  1.6483
  775MOL0     H 4571   6.799  10.896   5.344 -3.8173 -2.7231 -0.5916
  775MOL0     H 4572   7.012  10.824   5.133  0.0475 -2.2813  2.2221
  775MOL0     H 4573   7.036  10.805   5.304  1.1699  1.8022  1.4848
  775MOL0     H 4574   7.149  10.997   5.157 -0.2786 -2.1143 -1.2702
  775MOL0     H 4575   6.990  11.066   5.171 -1.3846 -3.0537 -1.9040
  775MOL0     H 4576   7.279  10.928   5.418 -0.8161  0.4161 -1.2434
  775MOL0     H 4577   7.285  11.134   5.735  2.6134 -0.5887  0.8815
  775MOL0     H 4578   7.330  10.986   5.656  0.0795 -0.7868 -0.4896
  775MOL0     H 4579   7.501  11.173   5.685 -1.4411 -0.8062  0.7756
  775MOL0     H 4580   7.507  11.075   5.531  1.0383 -1.2313  1.0485
  775MOL0     H 4581   7.384  11.281   5.425  1.1962  1.1250 -1.1364
  775MOL0     H 4582   7.543  11.327   5.492 -1.1933  2.4056  1.0249
  775MOL0     H 4583   7.279  11.379   5.629 -0.5113  1.4578  0.8225
  775MOL0     H 4584   7.377  11.505   5.554 -3.0973 -0.5898 -0.2924
  775MOL0     H 4585   7.608  11.322   5.920  1.6112 -2.0656 -0.1026
  775MOL0     H 4586   7.832  11.310   5.936  0.0555 -0.4606  0.1533
  775MOL0     H 4587   8.263  11.513   6.045  0.7932 -0.0414  0.8886
  775MOL0     H 4588   8.500  11.443   6.051 -2.4800  0.2759  0.9692
  775MOL0     H 4589   8.729  11.373   5.967 -1.7575  0.3038  0.7520
  775MOL0     H 4590   8.669  11.254   6.083  0.6003  2.3713  0.2770
  775MOL0     H 4591   8.866  11.209   5.846  1.1524  3.1838  0.6596
  775MOL0     H 4592   8.926  11.255   6.011 -2.1114  0.2064  3.7183
  775MOL0     H 4593   8.962  11.029   6.010 -0.1322 -0.5087  3.0541
  775MOL0     H 4594   8.833  11.052   6.120 -0.3840 -2.3243  1.1064
  775MOL0     H 4595   8.800  10.980   5.811 -1.3637 -0.1904 -0.8022
  775MOL0     H 4596   8.674  10.992   5.930  0.0736 -0.5360 -0.5847
  775MOL0     H 4597   8.714  10.799   6.031  0.6329 -1.7940  0.7563
  775MOL0     H 4598   8.888  10.814   6.021 -0.1159 -0.0421  1.1475
  775MOL0     H 4599   8.670  10.703   5.828 -1.9633  1.7192  3.5226
  775MOL0     H 4600   8.816  10.758   5.758  1.7278 -0.5292  0.3627
  775MOL0     H 4601   8.946  10.604   5.869 -0.5185  2.2209 -1.4616
  775MOL0     H 4602   8.812  10.514   5.787 -1.4115 -2.3940  1.7880
  775MOL0     H 4603   8.858  10.420   6.028  0.8717  1.6673  1.2093
  775MOL0     H 4604   8.807  10.574   6.079  1.9205  0.1030 -1.3097
  775MOL0     H 4605   8.414  11.099   5.811 -0.1424 -0.6216  1.7401
  775MOL0     H 4606   8.163  11.189   5.795 -1.2412  3.0381 -0.4626
  775MOL0     H 4607   7.863  11.545   5.568  1.5178 -0.0930  0.2333
  775MOL0     H 4608   7.628  11.544   5.549 -1.9524 -2.6970 -1.6607
  775MOL0     H 4609   6.354  10.442   5.501 -0.9730 -0.3591 -3.2843
  775MOL0     H 4610   6.149  10.338   5.604 -0.7012  0.5526 -1.3462
  775MOL0     H 4611   5.861  10.098   5.632  0.8862  1.1707  0.3978
  775MOL0     H 4612   5.633  10.019   5.672  0.4475  1.8197 -0.5629
  775MOL0     H 4613   5.621   9.943   6.041 -2.6541  1.8297 -0.2813
  775MOL0     H 4614   5.543   9.779   6.049 -0.5499 -0.4166  1.5345
  775MOL0     H 4615   5.410  10.029   5.944  1.2175 -0.3547 -0.7633
  775MOL0     H 4616   5.404   9.978   6.119  0.4641 -1.7036  1.1857
  775MOL0     H 4617   5.319   9.752   6.014 -3.2921  0.0996  3.6126
  775MOL0     H 4618   5.287   9.851   5.866  1.9656 -4.5402 -0.3568
  775MOL0     H 4619   5.085   9.822   6.029  1.6343 -2.1132  2.4675
  775MOL0     H 4620   5.191   9.873   6.149 -1.7364 -1.1596  0.4218
  775MOL0     H 4621   5.050  10.225   5.909 -1.1996 -0.1570 -1.3419
  775MOL0     H 4622   5.790   9.745   5.967 -0.3939  0.5025  0.7007
  775MOL0     H 4623   6.091   9.864   5.979 -1.3205  0.3165  0.0224
  775MOL0     H 4624   5.991   9.715   6.012 -1.2608  1.0180  0.3924
  775MOL0     H 4625   6.096   9.713   5.870  1.8775 -2.1702  2.4576
  776MOL0     O 4626   9.849   6.596  10.142 -0.1948 -0.6743 -0.4879
  776MOL0     C 4627   9.781   6.584  10.045 -0.3139  0.1714  0.9343
  776MOL0     O 4628   9.777   6.677   9.940 -0.0161 -0.3456 -0.4337
  776MOL0     C 4629   9.881   6.775   9.918 -0.2721 -0.9455 -0.1827
  776MOL0     C 4630   9.866   6.856   9.800  0.0168  0.0900  0.3065
  776MOL0     C 4631   9.963   6.945   9.750 -1.0490  1.1936 -1.2829
  776MOL0     C 4632  10.091   6.961   9.817  0.1307  1.1342 -0.2860
  776MOL0     O 4633  10.193   7.023   9.762  0.0434 -0.3446  0.0017
  776MOL0     C 4634  10.205   7.043   9.621  0.7086  0.9009 -0.3530
  776MOL0     C 4635  10.340   7.094   9.577  0.3766 -0.2724 -0.1362
  776MOL0     C 4636  10.452   7.004   9.627  0.1511  0.6533 -0.2590
  776MOL0     C 4637  10.555   6.970   9.517  0.0010 -0.2811 -0.0121
  776MOL0     C 4638  10.665   6.878   9.574 -0.4282  0.7343 -0.7192
  776MOL0     C 4639  10.767   6.839   9.471 -0.0492  1.2726  0.0383
  776MOL0     C 4640  10.848   6.716   9.518 -0.4074 -0.1009 -0.6895
  776MOL0     C 4641  10.985   6.687   9.462 -0.4902  0.1993 -0.8604
  776MOL0     N 4642  10.981   6.671   9.321 -0.4422  0.7741  0.3360
  776MOL0     C 4643  10.928   6.571   9.248  0.1405  0.3610 -0.3269
  776MOL0     C 4644  10.915   6.613   9.123  0.1165  0.5579 -0.4334
  776MOL0     C 4645  10.871   6.532   9.010 -0.0358  0.6634  0.2161
  776MOL0     C 4646  10.736   6.568   8.952 -0.0390  1.4610  1.1473
  776MOL0     C 4647  10.628   6.523   9.046 -0.5878  0.4574  0.0100
  776MOL0     C 4648  10.496   6.506   8.977 -0.0473  0.0017  0.6618
  776MOL0     O 4649  10.398   6.423   9.047 -0.1482 -0.2337  0.1768
  776MOL0     C 4650  10.274   6.455   9.010 -0.1411  0.1429 -1.2845
  776MOL0     C 4651  10.170   6.445   9.102 -0.3366  0.0913 -0.1046
  776MOL0     C 4652  10.039   6.446   9.064  0.7211  0.1908  0.6771
  776MOL0     C 4653   9.998   6.469   8.929 -0.3615  0.4465  0.2059
  776MOL0     C 4654   9.863   6.470   8.895 -0.7683 -0.6290 -0.1530
  776MOL0     O 4655   9.832   6.506   8.774  0.2928  0.3387 -0.1050
  776MOL0     C 4656   9.706   6.469   8.732  0.8620 -0.4467 -0.4584
  776MOL0     C 4657   9.636   6.565   8.655 -0.1052 -0.1121 -0.2834
  776MOL0     C 4658   9.504   6.546   8.606 -0.0442  0.3940  0.9998
  776MOL0     C 4659   9.442   6.434   8.639 -0.0660 -0.2795 -0.3977
  776MOL0     O 4660   9.324   6.430   8.590  0.4116 -0.4575  0.4635
  776MOL0     C 4661   9.230   6.357   8.659 -0.0488  0.6755  0.0943
  776MOL0     C 4662   9.088   6.372   8.616 -0.1132 -0.5414 -0.1134
  776MOL0     C 4663   9.052   6.517   8.630  0.3133 -1.2647  0.2099
  776MOL0     C 4664   8.904   6.543   8.621 -0.7806  0.1118 -0.0528
  776MOL0     C 4665   8.858   6.691   8.609  0.1943 -0.0752  0.1472
  776MOL0     C 4666   8.710   6.710   8.577 -0.4659  0.3467 -0.0260
  776MOL0     C 4667   8.623   6.669   8.693 -0.0637 -0.5752  0.1652
  776MOL0     C 4668   8.533   6.548   8.677 -0.6945  0.6270 -0.8283
  776MOL0    Cl 4669   8.468   6.527   8.508 -0.5300 -0.5251 -0.0585
  776MOL0     C 4670   9.501   6.335   8.725  0.4463  0.4457  0.3878
  776MOL0     C 4671   9.632   6.353   8.764  0.2467 -0.4172 -0.3031
  776MOL0     O 4672   9.785   6.447   8.982  0.1340  0.4625  0.2298
  776MOL0     C 4673  10.102   6.474   8.835 -0.7500 -0.6754  0.1222
  776MOL0     C 4674  10.234   6.477   8.871 -0.3680 -0.2230  0.2168
  776MOL0     N 4675  10.967   6.740   9.108 -0.5167  0.4844 -0.7599
  776MOL0     N 4676  11.007   6.768   9.228  0.0640 -0.8878 -0.4171
  776MOL0     C 4677  10.113   6.884   9.935 -0.0359 -0.0593 -0.1593
  776MOL0     C 4678  10.006   6.802   9.988  0.0831  0.4321  0.0396
  776MOL0     C 4679   9.674   6.485  10.055  0.9449  0.6288  0.0688
  776MOL0     C 4680   9.554   6.507   9.971 -0.9313 -0.0837  0.2671
  776MOL0     C 4681   9.467   6.401   9.953  0.6259  0.0540 -0.2760
  776MOL0     C 4682   9.482   6.278  10.015  0.1456 -0.1517  0.1680
  776MOL0     O 4683   9.404   6.167   9.991  1.0946 -0.2339  0.0827
  776MOL0     C 4684   9.293   6.173   9.896  0.3964  0.0164  0.5904
  776MOL0     C 4685   9.165   6.239   9.949  0.2025  0.6852  0.1639
  776MOL0     C 4686   9.113   6.177  10.077 -0.4662  0.5641  0.4935
  776MOL0     C 4687   8.960   6.174  10.097  0.3083 -0.6344  0.1459
  776MOL0     C 4688   8.877   6.110   9.990 -0.0655 -0.6520 -0.5046
  776MOL0     C 4689   8.798   6.064   9.913 -0.4308 -0.2249 -0.1923
  776MOL0     C 4690   9.574   6.268  10.115 -0.0961  0.2478  0.1732
  776MOL0     C 4691   9.671   6.361  10.136  0.4733  0.5096  0.1030
  776MOL0     C 4692   9.755   6.333  10.256 -0.1861  0.3634 -0.2500
  776MOL0     H 4693   9.773   6.855   9.743 -0.6002  0.8786  1.2770
  776MOL0     H 4694   9.941   6.993   9.655 -0.7454  1.5927 -1.1540
  776MOL0     H 4695  10.185   6.951   9.566  2.2874 -0.0198  0.5396
  776MOL0     H 4696  10.129   7.112   9.583 -0.5105 -0.5406 -0.6293
  776MOL0     H 4697  10.345   7.199   9.606  2.7624 -0.2013 -0.6439
  776MOL0     H 4698  10.345   7.097   9.467 -0.5272  2.8388 -0.1934
  776MOL0     H 4699  10.402   6.912   9.658  2.7654 -1.0430 -0.7758
  776MOL0     H 4700  10.505   7.055   9.708  1.0302  0.5259 -0.7366
  776MOL0     H 4701  10.508   6.920   9.431  0.7941 -0.6429 -0.2379
  776MOL0     H 4702  10.607   7.059   9.479  2.4753 -0.3668  2.8467
  776MOL0     H 4703  10.710   6.920   9.664  0.0828  3.2923 -2.0756
  776MOL0     H 4704  10.614   6.785   9.604  0.6885  0.6306  0.9920
  776MOL0     H 4705  10.711   6.810   9.382  0.1129  0.3958  0.2140
  776MOL0     H 4706  10.840   6.918   9.449  1.8679 -0.3889  0.1194
  776MOL0     H 4707  10.790   6.627   9.491 -1.0528  0.0122  0.2679
  776MOL0     H 4708  10.862   6.716   9.627  0.3791  0.1834 -0.7855
  776MOL0     H 4709  11.056   6.767   9.486 -1.7707  2.0524 -2.9128
  776MOL0     H 4710  11.015   6.602   9.524  2.3416  0.9120 -1.1158
  776MOL0     H 4711  10.886   6.481   9.291 -2.5226  1.4901 -0.3805
  776MOL0     H 4712  10.939   6.547   8.925  0.9397  0.8189  0.9993
  776MOL0     H 4713  10.886   6.425   9.029  0.1769  0.8289  0.9879
  776MOL0     H 4714  10.730   6.676   8.934  0.4846  1.4036  0.6119
  776MOL0     H 4715  10.731   6.504   8.863  1.9252 -1.5467  3.0176
  776MOL0     H 4716  10.636   6.594   9.128  1.2092 -2.0215  2.1581
  776MOL0     H 4717  10.647   6.423   9.087 -0.6953 -0.1305 -1.3065
  776MOL0     H 4718  10.491   6.469   8.874  3.0174  1.3165 -0.0899
  776MOL0     H 4719  10.449   6.604   8.965 -2.0198 -0.9612  0.2174
  776MOL0     H 4720  10.182   6.426   9.208  0.2055 -1.1238 -0.3710
  776MOL0     H 4721   9.960   6.432   9.136  1.2129 -2.2458  0.8044
  776MOL0     H 4722   9.682   6.662   8.646 -1.0266  0.5072  1.3441
  776MOL0     H 4723   9.464   6.619   8.536  0.9063 -2.0844 -2.3941
  776MOL0     H 4724   9.239   6.250   8.640 -0.9229  0.9160 -1.9446
  776MOL0     H 4725   9.245   6.391   8.762  3.6845  3.6170 -1.2085
  776MOL0     H 4726   9.076   6.338   8.513 -0.9967 -0.2192 -0.1255
  776MOL0     H 4727   9.023   6.310   8.678  0.9490 -0.0106  1.5942
  776MOL0     H 4728   9.081   6.562   8.725 -0.8485 -0.5477  0.2418
  776MOL0     H 4729   9.097   6.582   8.554  0.2345  0.9947  1.9895
  776MOL0     H 4730   8.858   6.497   8.708 -1.7129  1.1048  0.0088
  776MOL0     H 4731   8.859   6.486   8.539 -3.9702 -0.4231  1.8850
  776MOL0     H 4732   8.915   6.747   8.535  1.4900  0.1011  1.2402
  776MOL0     H 4733   8.887   6.729   8.708 -0.4008 -1.0054  0.6961
  776MOL0     H 4734   8.694   6.817   8.559 -2.1173  0.4700  1.8422
  776MOL0     H 4735   8.678   6.645   8.495 -1.2234  0.4193  0.2045
  776MOL0     H 4736   8.558   6.755   8.711 -0.8054 -1.2178  0.5953
  776MOL0     H 4737   8.669   6.655   8.792 -0.9608 -0.6996  0.5685
  776MOL0     H 4738   8.595   6.460   8.695  1.3182  2.3162  0.9725
  776MOL0     H 4739   8.444   6.539   8.740 -0.7485  0.7654 -0.8838
  776MOL0     H 4740   9.449   6.245   8.756  0.7170 -0.9894 -2.9656
  776MOL0     H 4741   9.690   6.279   8.818  1.4141 -0.0924 -1.0581
  776MOL0     H 4742  10.082   6.471   8.728  4.4952 -1.1796 -1.1016
  776MOL0     H 4743  10.305   6.477   8.788  0.0036 -0.5350  0.5317
  776MOL0     H 4744  10.209   6.891   9.984 -0.9800 -1.7093  2.0600
  776MOL0     H 4745  10.021   6.730  10.067  0.4489 -2.6418 -2.6090
  776MOL0     H 4746   9.537   6.584   9.896  2.0272 -1.1010 -1.6285
  776MOL0     H 4747   9.389   6.416   9.879  2.0475 -1.6031 -2.2564
  776MOL0     H 4748   9.262   6.072   9.868  0.2683  0.0024  0.7818
  776MOL0     H 4749   9.324   6.222   9.803 -0.0554 -0.1931  0.3262
  776MOL0     H 4750   9.080   6.244   9.880 -1.5192  0.4477  2.1693
  776MOL0     H 4751   9.178   6.343   9.980  3.4266  0.0897  1.2272
  776MOL0     H 4752   9.158   6.237  10.157 -0.6921 -0.6787  1.5769
  776MOL0     H 4753   9.158   6.078  10.089 -3.0554 -0.5722  1.3332
  776MOL0     H 4754   8.943   6.125  10.193  0.6309  1.0084  1.0850
  776MOL0     H 4755   8.916   6.272  10.119  1.0047  0.4179 -2.7572
  776MOL0     H 4756   8.724   6.025   9.846 -0.3510 -1.8333  0.6196
  776MOL0     H 4757   9.576   6.171  10.164  1.9310 -0.3764 -0.9948
  776MOL0     H 4758   9.744   6.236  10.306 -0.6128  0.5500  0.0214
  776MOL0     H 4759   9.862   6.347  10.237  0.1474 -2.4490 -0.7719
  776MOL0     H 4760   9.728   6.409  10.330  3.5633  0.4914  1.2162
  777MOL0     O 4761   2.928   7.314   1.387 -0.0287 -0.3556 -0.3837
  777MOL0     C 4762   2.832   7.243   1.362  0.0610 -0.2040  0.1187
  777MOL0     O 4763   2.842   7.125   1.286  0.2039  0.9903  0.0967
  777MOL0     C 4764   2.964   7.062   1.275  0.2644  0.6145 -0.3026
  777MOL0     C 4765   2.985   6.977   1.164  0.3641 -0.0586 -0.3576
  777MOL0     C 4766   3.104   6.904   1.150 -0.2558 -0.3499  0.1703
  777MOL0     C 4767   3.213   6.914   1.237  0.3106 -0.8179 -0.4440
  777MOL0     O 4768   3.323   6.839   1.228 -0.4901 -0.1763 -0.3297
  777MOL0     C 4769   3.362   6.765   1.107 -0.1590 -0.2932  0.4334
  777MOL0     C 4770   3.510   6.796   1.074  0.3475  0.4573 -0.1534
  777MOL0     C 4771   3.556   6.732   0.943  0.1245 -0.4654 -0.1004
  777MOL0     C 4772   3.572   6.584   0.965  0.1334  0.0340 -0.7773
  777MOL0     C 4773   3.663   6.532   0.858  0.4329  0.6371 -0.4692
  777MOL0     C 4774   3.812   6.548   0.891  0.6198  0.3592  0.0141
  777MOL0     C 4775   3.892   6.539   0.760  0.4335  0.0613  0.3319
  777MOL0     C 4776   4.046   6.576   0.789  0.3083 -0.1574 -0.2710
  777MOL0     N 4777   4.113   6.568   0.659 -0.3500  0.3573 -0.3178
  777MOL0     C 4778   4.078   6.634   0.539  0.2836 -0.1661  0.3526
  777MOL0     C 4779   4.179   6.604   0.457  0.0548 -0.4421 -0.1990
  777MOL0     C 4780   4.197   6.639   0.313  0.7951 -0.9542  0.2718
  777MOL0     C 4781   4.346   6.654   0.275  1.1724  0.3216  0.0416
  777MOL0     C 4782   4.371   6.744   0.156  0.5839  0.7708 -0.2948
  777MOL0     C 4783   4.513   6.715   0.122  0.2053 -0.5940  0.2053
  777MOL0     O 4784   4.582   6.810   0.032 -0.1536  0.2339 -0.0603
  777MOL0     C 4785   4.624   6.779  -0.093  0.4813 -0.1918  0.6096
  777MOL0     C 4786   4.552   6.828  -0.205  0.1632 -0.6223 -0.1019
  777MOL0     C 4787   4.599   6.818  -0.337  0.2591 -0.4155  0.2619
  777MOL0     C 4788   4.704   6.728  -0.356  0.6026 -0.1546  1.5359
  777MOL0     C 4789   4.737   6.694  -0.496 -0.5787 -0.1820 -0.1959
  777MOL0     O 4790   4.840   6.602  -0.520 -0.3737  0.1647 -0.0729
  777MOL0     C 4791   4.885   6.570  -0.643  0.7249  0.2830 -0.0074
  777MOL0     C 4792   4.901   6.662  -0.747 -1.0347  0.0687  0.1484
  777MOL0     C 4793   4.973   6.626  -0.864 -0.0388  0.1669  0.3212
  777MOL0     C 4794   5.019   6.488  -0.876 -0.5168 -1.0467 -0.4592
  777MOL0     O 4795   5.072   6.434  -0.988  0.2830 -0.0681  0.0705
  777MOL0     C 4796   5.135   6.517  -1.080 -0.7200  0.6575  0.0995
  777MOL0     C 4797   5.151   6.428  -1.213  0.5837  0.5165 -0.5168
  777MOL0     C 4798   5.238   6.304  -1.191  0.1461  0.0852 -0.1046
  777MOL0     C 4799   5.274   6.267  -1.334  0.6642 -0.3041  0.5682
  777MOL0     C 4800   5.391   6.168  -1.332 -0.4173 -0.4405 -0.4247
  777MOL0     C 4801   5.418   6.118  -1.469 -0.4316  0.0192  0.0271
  777MOL0     C 4802   5.439   6.229  -1.561 -1.0535  0.1804  0.0386
  777MOL0     C 4803   5.513   6.192  -1.688 -0.2002 -1.1789  0.4738
  777MOL0    Cl 4804   5.564   6.325  -1.808  0.1419 -0.1646 -0.3138
  777MOL0     C 4805   4.993   6.397  -0.772  0.1192  0.1654 -0.2774
  777MOL0     C 4806   4.925   6.439  -0.664 -0.1617  0.5526  1.4651
  777MOL0     O 4807   4.672   6.742  -0.583  0.8677  0.3062 -0.0452
  777MOL0     C 4808   4.786   6.678  -0.248  0.7761  0.2922  0.0017
  777MOL0     C 4809   4.739   6.700  -0.118 -0.5054  0.8173 -1.1666
  777MOL0     N 4810   4.272   6.531   0.526  0.8913 -0.3017 -0.4755
  777MOL0     N 4811   4.233   6.501   0.645 -0.8362  0.6375  0.4773
  777MOL0     C 4812   3.193   7.001   1.340 -0.2703  0.9442  1.3522
  777MOL0     C 4813   3.072   7.075   1.362 -0.7926  0.5717  0.4213
  777MOL0     C 4814   2.693   7.298   1.394 -0.0213  0.1782  0.2382
  777MOL0     C 4815   2.587   7.203   1.393 -0.4911  0.1860  0.2782
  777MOL0     C 4816   2.459   7.231   1.443 -0.3489 -0.1826  0.8180
  777MOL0     C 4817   2.430   7.359   1.483  0.5989  0.3184 -0.7257
  777MOL0     O 4818   2.304   7.391   1.527 -0.7640 -0.0555 -0.7287
  777MOL0     C 4819   2.199   7.390   1.420  0.0678  0.4890  0.4928
  777MOL0     C 4820   2.076   7.344   1.494  0.1088 -0.1015 -0.1034
  777MOL0     C 4821   2.026   7.438   1.603  0.5073 -0.0107 -0.3485
  777MOL0     C 4822   1.894   7.380   1.650 -1.1626  0.4500 -0.4457
  777MOL0     C 4823   1.831   7.472   1.741  1.0049  1.5325 -0.4054
  777MOL0     C 4824   1.799   7.531   1.839  0.0973 -0.0993 -0.0636
  777MOL0     C 4825   2.529   7.455   1.497  0.1160  0.2274 -0.1112
  777MOL0     C 4826   2.655   7.427   1.449 -0.6179 -0.3097  0.3115
  777MOL0     C 4827   2.764   7.533   1.475  0.6972  0.1100 -1.4399
  777MOL0     H 4828   2.905   6.954   1.094  2.1883  0.9136 -2.8822
  777MOL0     H 4829   3.110   6.834   1.067  0.5899  2.1287 -1.9930
  777MOL0     H 4830   3.355   6.657   1.121 -0.0616 -0.5767 -1.4232
  777MOL0     H 4831   3.304   6.796   1.020  1.2621  1.1882 -0.0486
  777MOL0     H 4832   3.570   6.756   1.156  0.7774  1.1834 -0.1034
  777MOL0     H 4833   3.526   6.904   1.078 -0.3651  0.5247  2.6675
  777MOL0     H 4834   3.640   6.782   0.893 -1.5301 -0.7456 -3.4391
  777MOL0     H 4835   3.475   6.739   0.869 -1.1706 -0.5064  1.2767
  777MOL0     H 4836   3.600   6.563   1.069  0.1128  0.0844 -0.7611
  777MOL0     H 4837   3.474   6.536   0.963 -0.8787  1.4753  3.1441
  777MOL0     H 4838   3.646   6.424   0.857 -0.3686  0.7258  1.3274
  777MOL0     H 4839   3.641   6.574   0.759  1.2703 -3.5619 -2.6983
  777MOL0     H 4840   3.826   6.641   0.947  1.5424 -1.5263  3.1824
  777MOL0     H 4841   3.846   6.479   0.968 -0.4227  2.1599  2.2312
  777MOL0     H 4842   3.862   6.613   0.685  3.6209  2.6437  1.3671
  777MOL0     H 4843   3.878   6.436   0.727 -2.5006  0.0980  1.1538
  777MOL0     H 4844   4.062   6.672   0.839  0.5385  0.3035 -1.2263
  777MOL0     H 4845   4.082   6.489   0.844 -0.3250  0.8334  1.8317
  777MOL0     H 4846   3.994   6.701   0.528  0.9832  0.7049  0.2161
  777MOL0     H 4847   4.140   6.566   0.255 -2.4907  0.7871  1.0825
  777MOL0     H 4848   4.141   6.731   0.299 -0.2512 -0.9137  3.8459
  777MOL0     H 4849   4.409   6.685   0.360  2.8472 -1.8293 -0.3084
  777MOL0     H 4850   4.380   6.554   0.248  1.2919 -0.0908  1.6116
  777MOL0     H 4851   4.382   6.849   0.181  1.1223  0.3967  1.1295
  777MOL0     H 4852   4.303   6.728   0.071  0.8053  0.5126 -0.4267
  777MOL0     H 4853   4.511   6.615   0.077  1.9209  0.0653 -1.4685
  777MOL0     H 4854   4.574   6.732   0.211 -0.3017 -0.4571  0.5309
  777MOL0     H 4855   4.466   6.891  -0.185  0.3749  0.6128 -2.5835
  777MOL0     H 4856   4.546   6.866  -0.419  1.3304  1.5966  0.6656
  777MOL0     H 4857   4.866   6.763  -0.727 -0.2639  0.8146 -1.9205
  777MOL0     H 4858   4.973   6.706  -0.938 -0.9140  1.0737  1.2607
  777MOL0     H 4859   5.068   6.600  -1.103 -1.7732  0.3482  1.8519
  777MOL0     H 4860   5.234   6.558  -1.057 -0.2161 -0.6474  0.3715
  777MOL0     H 4861   5.051   6.407  -1.252 -0.4203 -1.2261  2.6054
  777MOL0     H 4862   5.201   6.491  -1.287  1.3113 -0.7714 -1.1376
  777MOL0     H 4863   5.327   6.335  -1.136 -0.7522  1.2205  0.7467
  777MOL0     H 4864   5.191   6.225  -1.131 -0.2267  0.3020 -0.1086
  777MOL0     H 4865   5.317   6.357  -1.379  1.4595 -1.4600 -1.1276
  777MOL0     H 4866   5.186   6.239  -1.393  0.0629 -1.4071  1.9234
  777MOL0     H 4867   5.375   6.092  -1.255  0.5106  1.8139  2.1407
  777MOL0     H 4868   5.481   6.221  -1.301  0.4880 -0.1544 -3.2487
  777MOL0     H 4869   5.514   6.066  -1.456  0.3981  1.7374  1.2879
  777MOL0     H 4870   5.340   6.045  -1.490  0.1325 -0.5861 -0.0109
  777MOL0     H 4871   5.500   6.310  -1.519 -1.0697  1.5348 -2.3733
  777MOL0     H 4872   5.351   6.287  -1.588  0.5196  1.8307 -1.9306
  777MOL0     H 4873   5.605   6.143  -1.655  0.6258 -1.2951 -1.8322
  777MOL0     H 4874   5.450   6.128  -1.751 -0.2708  1.1647 -2.0221
  777MOL0     H 4875   5.021   6.293  -0.781  1.2144  0.4872 -0.7034
  777MOL0     H 4876   4.905   6.376  -0.578  0.7781  1.7787  2.6301
  777MOL0     H 4877   4.882   6.630  -0.261  1.1171  1.2233 -1.0039
  777MOL0     H 4878   4.792   6.665  -0.030  1.3199 -0.9683 -2.9002
  777MOL0     H 4879   3.281   7.013   1.404 -1.3306  0.5774  2.9425
  777MOL0     H 4880   3.068   7.131   1.455  0.8699 -1.4131  1.7776
  777MOL0     H 4881   2.611   7.099   1.374  0.1915  0.3063  0.4671
  777MOL0     H 4882   2.388   7.151   1.425  1.5066 -1.0905 -3.7662
  777MOL0     H 4883   2.217   7.315   1.342 -1.6982  0.9871 -0.4296
  777MOL0     H 4884   2.196   7.485   1.367 -2.0006  0.6307  0.7784
  777MOL0     H 4885   2.086   7.242   1.534 -0.8893 -0.3993 -0.5808
  777MOL0     H 4886   2.001   7.338   1.415  1.2683 -2.8916 -1.1440
  777MOL0     H 4887   2.023   7.545   1.582  0.9212  0.2231  0.7072
  777MOL0     H 4888   2.095   7.423   1.686  0.2494 -0.2914 -0.1823
  777MOL0     H 4889   1.828   7.349   1.569  0.0906  2.0772 -2.1741
  777MOL0     H 4890   1.914   7.288   1.707  0.8898  1.9198  1.4088
  777MOL0     H 4891   1.764   7.579   1.928  0.1574 -0.9330  0.4192
  777MOL0     H 4892   2.504   7.554   1.536  1.8415  1.1311 -1.1660
  777MOL0     H 4893   2.722   7.631   1.500 -1.5135 -0.8226 -1.3093
  777MOL0     H 4894   2.826   7.486   1.552  2.3836 -0.3692 -3.0036
  777MOL0     H 4895   2.834   7.535   1.390  3.0972  0.0922  0.4340
  778MOL0     O 4896   4.259   3.368   3.279 -0.1290  0.0698  0.2026
  778MOL0     C 4897   4.372   3.364   3.332  0.1842  0.8290  1.2413
  778MOL0     O 4898   4.426   3.252   3.386 -0.6059 -0.0674 -0.1569
  778MOL0     C 4899   4.358   3.135   3.396  0.1970 -0.3652  0.5843
  778MOL0     C 4900   4.436   3.020   3.376  0.2415 -0.4104  0.1655
  778MOL0     C 4901   4.370   2.896   3.376  0.8391 -1.0502  0.0375
  778MOL0     C 4902   4.231   2.881   3.396  0.0495  0.0793 -0.2954
  778MOL0     O 4903   4.171   2.757   3.369 -0.6050  0.2121 -0.3937
  778MOL0     C 4904   4.050   2.757   3.297  0.4662 -0.8853  0.5228
  778MOL0     C 4905   4.072   2.796   3.154 -0.2273 -0.7837  0.0275
  778MOL0     C 4906   4.124   2.680   3.072 -0.3466 -0.1010  0.6279
  778MOL0     C 4907   4.185   2.734   2.933 -0.2114  0.4903 -0.3564
  778MOL0     C 4908   4.335   2.763   2.955  0.8066 -0.0040 -0.0538
  778MOL0     C 4909   4.385   2.838   2.832  0.0644 -0.9140  0.1830
  778MOL0     C 4910   4.521   2.889   2.863 -0.0022 -0.2289 -0.3930
  778MOL0     C 4911   4.610   2.923   2.752  1.4037 -0.1245  0.3397
  778MOL0     N 4912   4.751   2.948   2.785 -0.9607  0.0155 -0.2311
  778MOL0     C 4913   4.795   3.073   2.794 -0.0848 -0.1293  0.5064
  778MOL0     C 4914   4.916   3.066   2.858  0.4339 -0.9449  0.0762
  778MOL0     C 4915   4.989   3.188   2.906  0.0364 -0.3707  0.4447
  778MOL0     C 4916   5.097   3.156   3.016 -0.2942 -0.1490  0.1427
  778MOL0     C 4917   5.218   3.090   2.950 -1.2635  0.2509  0.1148
  778MOL0     C 4918   5.342   3.082   3.041 -0.2318 -0.3191  0.6150
  778MOL0     O 4919   5.395   3.218   3.081 -1.0998  0.0189 -1.0869
  778MOL0     C 4920   5.523   3.227   3.122  0.1829  0.9538 -0.2334
  778MOL0     C 4921   5.601   3.114   3.160  0.0240 -0.3123 -0.8242
  778MOL0     C 4922   5.734   3.142   3.177  0.1108  0.6190 -0.1792
  778MOL0     C 4923   5.800   3.258   3.160 -0.2738 -0.4734  0.3013
  778MOL0     C 4924   5.950   3.245   3.165  0.0523 -0.2034  0.0801
  778MOL0     O 4925   6.015   3.363   3.169  0.3246  0.0641 -0.1789
  778MOL0     C 4926   6.149   3.366   3.191 -0.5258  0.0673 -0.1082
  778MOL0     C 4927   6.241   3.254   3.190  0.6210 -0.1160 -0.2700
  778MOL0     C 4928   6.377   3.279   3.210 -0.9331  0.4771  0.4825
  778MOL0     C 4929   6.425   3.409   3.235 -0.3561 -0.9791  0.3245
  778MOL0     O 4930   6.562   3.422   3.256  0.1797  0.0060  0.2520
  778MOL0     C 4931   6.610   3.548   3.218 -0.8251  0.2821  0.4931
  778MOL0     C 4932   6.767   3.558   3.240 -1.1096  0.4340  0.4120
  778MOL0     C 4933   6.857   3.626   3.135  0.3685  0.6614 -0.0983
  778MOL0     C 4934   6.841   3.557   2.996  0.0227  0.3022 -0.8232
  778MOL0     C 4935   6.890   3.635   2.878  0.5048 -0.2496 -0.2994
  778MOL0     C 4936   6.886   3.558   2.743  0.0447  0.9197 -0.7900
  778MOL0     C 4937   6.951   3.628   2.623 -0.2106 -0.5530  0.5955
  778MOL0     C 4938   6.960   3.532   2.504 -0.4123 -0.6220  0.2302
  778MOL0    Cl 4939   6.809   3.486   2.411 -0.4636 -0.3736 -0.2010
  778MOL0     C 4940   6.331   3.513   3.241  0.3333  0.2771 -0.3103
  778MOL0     C 4941   6.193   3.500   3.214  0.5093 -0.0743  0.4136
  778MOL0     O 4942   5.995   3.135   3.178  0.2374  0.2364 -0.5240
  778MOL0     C 4943   5.719   3.365   3.123 -1.2075  0.0473  0.0113
  778MOL0     C 4944   5.586   3.348   3.098  1.1236 -0.5867 -0.0987
  778MOL0     N 4945   4.947   2.939   2.867 -0.3143  0.5454 -0.5813
  778MOL0     N 4946   4.852   2.867   2.813  0.2395 -0.1945  0.3073
  778MOL0     C 4947   4.161   2.995   3.430 -0.4705  0.3997 -0.0099
  778MOL0     C 4948   4.226   3.124   3.437 -0.0832  0.3380  1.1348
  778MOL0     C 4949   4.459   3.483   3.349 -0.7746  0.4942  1.4120
  778MOL0     C 4950   4.564   3.478   3.443  0.0889  0.4179  0.3504
  778MOL0     C 4951   4.665   3.577   3.457  0.1272 -0.5084  0.6174
  778MOL0     C 4952   4.661   3.699   3.378  0.2592 -0.0814 -0.6645
  778MOL0     O 4953   4.755   3.803   3.380 -0.1814 -0.2132  0.4048
  778MOL0     C 4954   4.852   3.788   3.491  0.0679 -0.7775  0.0536
  778MOL0     C 4955   4.954   3.896   3.488 -0.3219  0.4035 -0.9650
  778MOL0     C 4956   5.060   3.875   3.598 -0.2521 -0.0650 -0.2313
  778MOL0     C 4957   5.172   3.989   3.595 -0.2343 -0.6534 -0.2191
  778MOL0     C 4958   5.254   3.995   3.472  0.4806  0.2849 -0.1714
  778MOL0     C 4959   5.337   4.010   3.387 -0.1411  0.6990 -0.2357
  778MOL0     C 4960   4.551   3.707   3.293 -0.8622  0.6718  0.0988
  778MOL0     C 4961   4.452   3.606   3.274 -0.0457  0.1325  0.2441
  778MOL0     C 4962   4.345   3.646   3.183  0.6384  0.0329  0.3939
  778MOL0     H 4963   4.543   3.028   3.357  0.0478  0.3019 -0.6518
  778MOL0     H 4964   4.412   2.798   3.354 -1.9286 -3.2365  3.4041
  778MOL0     H 4965   4.013   2.655   3.311 -1.8953 -0.5134 -1.9818
  778MOL0     H 4966   3.975   2.821   3.345  1.4645  1.2621 -0.6218
  778MOL0     H 4967   4.147   2.874   3.141 -2.5661  1.8870  1.4493
  778MOL0     H 4968   3.977   2.828   3.109 -0.5303 -3.3005 -1.3231
  778MOL0     H 4969   4.045   2.604   3.067 -1.9888  1.5679  0.0332
  778MOL0     H 4970   4.206   2.623   3.116  0.6847 -1.6937 -2.9935
  778MOL0     H 4971   4.172   2.650   2.865  1.6805 -1.1586  1.1934
  778MOL0     H 4972   4.133   2.824   2.897  0.0587  1.4323  1.4997
  778MOL0     H 4973   4.346   2.821   3.048  0.2581  1.4145 -0.8324
  778MOL0     H 4974   4.383   2.666   2.967  1.9391  0.7322  2.0375
  778MOL0     H 4975   4.386   2.783   2.737 -2.2752  2.2042 -1.8399
  778MOL0     H 4976   4.317   2.922   2.813 -2.6307 -2.2819  2.8492
  778MOL0     H 4977   4.562   2.806   2.922 -2.3425  0.5294  2.5723
  778MOL0     H 4978   4.518   2.978   2.926 -2.3667 -0.3528 -0.2238
  778MOL0     H 4979   4.613   2.848   2.673  0.3335 -0.8223  0.9448
  778MOL0     H 4980   4.568   3.013   2.705  3.1734  1.3874  1.4672
  778MOL0     H 4981   4.748   3.164   2.758  3.8677  1.0350 -2.5194
  778MOL0     H 4982   5.018   3.239   2.814 -2.3936 -2.1231 -1.4355
  778MOL0     H 4983   4.916   3.256   2.953 -2.5101 -2.4616 -0.2520
  778MOL0     H 4984   5.126   3.256   3.047 -0.5926  1.0058 -2.9885
  778MOL0     H 4985   5.056   3.099   3.100 -0.0004 -1.6060 -0.6654
  778MOL0     H 4986   5.239   3.134   2.852 -0.4249 -1.2950 -0.4326
  778MOL0     H 4987   5.192   2.988   2.919  2.5513 -0.6132 -0.7362
  778MOL0     H 4988   5.432   3.040   2.994  0.6470  1.1877  0.8826
  778MOL0     H 4989   5.321   3.012   3.123 -3.6670 -0.2755 -0.0736
  778MOL0     H 4990   5.554   3.016   3.170  0.4277 -0.3945  0.4478
  778MOL0     H 4991   5.788   3.051   3.198 -0.0358  0.9330  1.7361
  778MOL0     H 4992   6.219   3.148   3.179  0.3556 -0.1566  0.5435
  778MOL0     H 4993   6.451   3.201   3.201 -1.5459  0.0507 -1.2498
  778MOL0     H 4994   6.582   3.573   3.116 -0.6916  1.7671  0.7878
  778MOL0     H 4995   6.571   3.630   3.280  0.1367 -0.4972  2.2000
  778MOL0     H 4996   6.783   3.608   3.335  2.4649 -0.3121  0.3330
  778MOL0     H 4997   6.810   3.459   3.260  0.8032  1.5557  2.2129
  778MOL0     H 4998   6.826   3.731   3.133  0.1576  0.7041  2.4830
  778MOL0     H 4999   6.962   3.628   3.166  0.1327  1.4297  0.6874
  778MOL0     H 5000   6.736   3.529   2.982  0.5449 -3.0120  0.9080
  778MOL0     H 5001   6.889   3.459   3.003 -1.5699 -0.3881  2.1220
  778MOL0     H 5002   6.997   3.657   2.886  0.6557 -0.9816 -0.1720
  778MOL0     H 5003   6.837   3.729   2.863 -1.2802 -0.7765  2.1705
  778MOL0     H 5004   6.934   3.463   2.770 -1.8033  0.6587  2.0145
  778MOL0     H 5005   6.783   3.526   2.724 -0.3405 -1.7112  4.0328
  778MOL0     H 5006   7.044   3.672   2.660 -1.1342  1.3691  0.7551
  778MOL0     H 5007   6.894   3.719   2.600  2.1146  0.7638 -0.3284
  778MOL0     H 5008   7.036   3.576   2.438 -0.4688 -0.5841  0.1904
  778MOL0     H 5009   7.011   3.441   2.534  0.9231 -0.8781 -2.4910
  778MOL0     H 5010   6.357   3.615   3.269  2.1070 -0.6388  1.6749
  778MOL0     H 5011   6.122   3.581   3.208  0.2705 -0.3651 -2.2298
  778MOL0     H 5012   5.752   3.467   3.110 -0.7507 -0.0860  0.1011
  778MOL0     H 5013   5.537   3.438   3.062  1.2238 -1.5898 -2.9970
  778MOL0     H 5014   4.054   2.998   3.449 -0.7818  1.2297 -1.7237
  778MOL0     H 5015   4.158   3.206   3.457 -2.3499 -0.8646 -1.0984
  778MOL0     H 5016   4.564   3.393   3.511 -0.6647 -0.0070 -0.1590
  778MOL0     H 5017   4.735   3.535   3.528  1.6006 -2.7717 -1.9548
  778MOL0     H 5018   4.902   3.691   3.482  1.2772 -0.1953  0.1849
  778MOL0     H 5019   4.802   3.802   3.587 -0.4774  2.0439 -0.5349
  778MOL0     H 5020   4.903   3.991   3.504  0.2936  0.8625 -1.6441
  778MOL0     H 5021   4.999   3.891   3.388 -0.7125 -2.2045 -1.1024
  778MOL0     H 5022   5.111   3.779   3.579 -2.6353 -1.3758 -0.4473
  778MOL0     H 5023   5.018   3.876   3.699  0.5484  0.3519  0.1022
  778MOL0     H 5024   5.145   4.095   3.606  0.5796 -0.3445 -1.0389
  778MOL0     H 5025   5.236   3.986   3.683 -0.1007 -1.3033 -0.3364
  778MOL0     H 5026   5.409   4.016   3.308  2.3052 -2.0648  1.5856
  778MOL0     H 5027   4.534   3.797   3.234 -0.3371  0.9499  0.3649
  778MOL0     H 5028   4.351   3.613   3.079  0.1226  3.5724 -0.8878
  778MOL0     H 5029   4.247   3.626   3.229  0.6028  2.5272  1.5472
  778MOL0     H 5030   4.339   3.754   3.165 -1.2716 -0.4322 -2.3411
  779MOL0     O 5031   0.076   8.914   5.337 -0.9097  0.3969 -0.5996
  779MOL0     C 5032   0.197   8.917   5.311 -0.0350 -0.0178  0.2236
  779MOL0     O 5033   0.281   8.809   5.286  0.1488  0.7668  0.3589
  779MOL0     C 5034   0.234   8.683   5.279  0.3918  0.2308  0.2620
  779MOL0     C 5035   0.255   8.584   5.374  0.2575  0.1065  0.0684
  779MOL0     C 5036   0.202   8.459   5.356  1.3473  1.2585  0.2070
  779MOL0     C 5037   0.121   8.420   5.238 -0.6382  0.0365  0.0017
  779MOL0     O 5038   0.089   8.287   5.212 -0.0051 -0.0812  0.2677
  779MOL0     C 5039   0.054   8.215   5.322 -0.3918 -0.0005 -1.1145
  779MOL0     C 5040  -0.060   8.121   5.287  0.4782  0.5605 -0.4664
  779MOL0     C 5041  -0.197   8.192   5.303 -0.3486  0.8557  0.7740
  779MOL0     C 5042  -0.234   8.279   5.178  0.3012  0.3790  0.1418
  779MOL0     C 5043  -0.311   8.203   5.064  0.4466 -0.0957 -0.7267
  779MOL0     C 5044  -0.360   8.291   4.952  0.1084  0.2939 -0.4966
  779MOL0     C 5045  -0.447   8.410   5.001 -0.2327  0.4673  0.4698
  779MOL0     C 5046  -0.544   8.457   4.905  0.5007  0.1345  0.5495
  779MOL0     N 5047  -0.485   8.511   4.785  0.1060  0.1445  0.6864
  779MOL0     C 5048  -0.423   8.627   4.759 -0.8193  0.4280  0.4245
  779MOL0     C 5049  -0.416   8.630   4.619 -0.2995  0.2366  0.1061
  779MOL0     C 5050  -0.333   8.735   4.562 -0.0698 -0.1821  0.3365
  779MOL0     C 5051  -0.186   8.692   4.570  0.9728  0.1092 -0.4709
  779MOL0     C 5052  -0.099   8.809   4.516 -0.0803  0.3185 -0.3411
  779MOL0     C 5053   0.038   8.766   4.509  0.4760  0.0389 -1.1195
  779MOL0     O 5054   0.112   8.886   4.480 -0.8981  0.0480 -0.5148
  779MOL0     C 5055   0.248   8.885   4.504 -0.7736  0.0062 -0.7592
  779MOL0     C 5056   0.341   8.780   4.516  0.2827  0.0211 -0.7797
  779MOL0     C 5057   0.483   8.806   4.530 -0.4095  0.3215 -0.1347
  779MOL0     C 5058   0.530   8.938   4.541 -0.2230 -0.5080 -0.2860
  779MOL0     C 5059   0.669   8.971   4.567 -0.5647  0.3177  0.3590
  779MOL0     O 5060   0.717   9.096   4.523  0.7163 -0.1544  0.1866
  779MOL0     C 5061   0.852   9.124   4.552 -0.3196  0.7382 -0.6190
  779MOL0     C 5062   0.927   9.196   4.461  0.3591 -0.5174  0.1254
  779MOL0     C 5063   1.050   9.242   4.494  0.1217 -0.3249  0.2951
  779MOL0     C 5064   1.103   9.227   4.622 -0.8275 -0.2253  0.1105
  779MOL0     O 5065   1.232   9.281   4.650  0.2865  0.0732 -0.7262
  779MOL0     C 5066   1.304   9.226   4.761 -0.3753 -0.1978 -0.1581
  779MOL0     C 5067   1.415   9.317   4.803  1.5041 -0.2863  0.6378
  779MOL0     C 5068   1.547   9.304   4.719  0.3474  1.0413  0.1543
  779MOL0     C 5069   1.616   9.160   4.742 -0.2030 -1.0986  0.0064
  779MOL0     C 5070   1.744   9.152   4.662  0.3692  0.8596  0.4484
  779MOL0     C 5071   1.812   9.013   4.677  0.5674 -0.3845 -0.0354
  779MOL0     C 5072   1.881   8.990   4.817 -0.3988 -0.4575 -0.8501
  779MOL0     C 5073   1.914   8.844   4.839  0.3649  0.1367 -0.3240
  779MOL0    Cl 5074   2.009   8.789   4.701  0.1127  0.1210  0.1611
  779MOL0     C 5075   1.031   9.155   4.720 -0.1735 -0.9508 -0.1622
  779MOL0     C 5076   0.906   9.101   4.682  0.3194  1.1584  0.3580
  779MOL0     O 5077   0.742   8.885   4.618  0.8227  1.4578  0.2978
  779MOL0     C 5078   0.443   9.043   4.531  0.3019 -0.0101  0.6490
  779MOL0     C 5079   0.305   9.014   4.510 -0.1270  0.1040  0.2546
  779MOL0     N 5080  -0.466   8.522   4.565 -0.1260  0.0659 -1.0883
  779MOL0     N 5081  -0.494   8.446   4.663  0.6122  0.4790  0.5664
  779MOL0     C 5082   0.096   8.525   5.147  0.2742 -0.3452 -0.8872
  779MOL0     C 5083   0.150   8.654   5.169  0.1076  0.0847 -0.3583
  779MOL0     C 5084   0.254   9.051   5.298 -0.0003  0.3536 -0.3934
  779MOL0     C 5085   0.395   9.061   5.265  0.0773  0.9995 -0.0608
  779MOL0     C 5086   0.457   9.181   5.242 -0.3625 -0.8844 -0.2147
  779MOL0     C 5087   0.381   9.297   5.270 -0.2670 -0.3952 -0.0450
  779MOL0     O 5088   0.439   9.420   5.264  0.9560 -0.1980  0.1472
  779MOL0     C 5089   0.566   9.429   5.205  0.6333 -0.3112  0.2750
  779MOL0     C 5090   0.596   9.572   5.164  0.7770 -0.5165  0.1391
  779MOL0     C 5091   0.617   9.656   5.290 -0.2112 -0.1383 -0.4389
  779MOL0     C 5092   0.670   9.797   5.253 -0.3418  0.4712 -0.3050
  779MOL0     C 5093   0.812   9.801   5.224 -0.6866  1.1377 -1.3627
  779MOL0     C 5094   0.937   9.799   5.209 -0.3820  0.3305 -0.3730
  779MOL0     C 5095   0.246   9.299   5.294  0.3071 -0.6700 -1.2668
  779MOL0     C 5096   0.177   9.176   5.299 -0.0995  0.3268  0.1088
  779MOL0     C 5097   0.027   9.183   5.308 -0.6306 -0.2617 -0.5451
  779MOL0     H 5098   0.302   8.612   5.467  2.1937 -0.6730 -0.6307
  779MOL0     H 5099   0.223   8.382   5.430  3.3477  0.4259 -1.1375
  779MOL0     H 5100   0.140   8.155   5.352  0.5381  2.0340  0.5739
  779MOL0     H 5101   0.026   8.279   5.406 -0.3683 -1.9414  0.4505
  779MOL0     H 5102  -0.050   8.026   5.341  0.1641  0.7318 -0.1025
  779MOL0     H 5103  -0.046   8.093   5.182  1.1557 -0.4325 -0.1320
  779MOL0     H 5104  -0.198   8.248   5.397 -1.2755  0.5291  0.9677
  779MOL0     H 5105  -0.264   8.106   5.301  1.2347 -0.4295 -0.9210
  779MOL0     H 5106  -0.292   8.368   5.208  1.1135  1.3292 -1.0441
  779MOL0     H 5107  -0.140   8.313   5.134 -0.0614  0.1294 -0.8522
  779MOL0     H 5108  -0.250   8.123   5.019  1.3873  1.7750 -2.9771
  779MOL0     H 5109  -0.402   8.158   5.104  1.1793  0.0821  1.2628
  779MOL0     H 5110  -0.272   8.327   4.898 -0.7954  2.0385 -0.8877
  779MOL0     H 5111  -0.404   8.226   4.875 -2.0720 -0.9001  1.6305
  779MOL0     H 5112  -0.400   8.502   5.038 -1.7748  1.5657 -0.1544
  779MOL0     H 5113  -0.498   8.376   5.091 -1.6541  0.8584 -0.1485
  779MOL0     H 5114  -0.612   8.373   4.887  0.9266 -0.4076  1.4278
  779MOL0     H 5115  -0.599   8.545   4.940  2.0548  0.5336  2.0848
  779MOL0     H 5116  -0.386   8.698   4.833 -1.5697  0.6047  0.6405
  779MOL0     H 5117  -0.364   8.759   4.460  1.4146  0.6267  0.0521
  779MOL0     H 5118  -0.359   8.827   4.614  1.2862 -0.5989  1.8531
  779MOL0     H 5119  -0.160   8.670   4.674 -0.6796 -0.2727 -0.1202
  779MOL0     H 5120  -0.178   8.597   4.517 -2.7961 -0.9216  0.5576
  779MOL0     H 5121  -0.107   8.895   4.583  1.2800 -2.4482  3.8208
  779MOL0     H 5122  -0.131   8.836   4.415 -1.3346 -0.8571 -0.2936
  779MOL0     H 5123   0.047   8.700   4.422 -1.3006 -0.1136 -1.2171
  779MOL0     H 5124   0.070   8.726   4.606  1.1366 -0.2709 -1.4585
  779MOL0     H 5125   0.296   8.682   4.511 -0.5659  0.4453 -1.6508
  779MOL0     H 5126   0.553   8.725   4.547  1.3358  1.4398 -1.6458
  779MOL0     H 5127   0.884   9.219   4.364 -1.8543 -2.7114  0.4855
  779MOL0     H 5128   1.105   9.294   4.416  1.1021  0.6609  1.6032
  779MOL0     H 5129   1.248   9.225   4.855  0.5431  0.7399  0.4293
  779MOL0     H 5130   1.338   9.124   4.741 -3.2743 -1.3851  0.5250
  779MOL0     H 5131   1.372   9.417   4.813 -2.8295 -2.0875  2.9444
  779MOL0     H 5132   1.441   9.288   4.906 -1.3829 -1.3243  1.1700
  779MOL0     H 5133   1.538   9.330   4.613  2.3975 -0.7377 -0.5412
  779MOL0     H 5134   1.613   9.371   4.777  2.6372  0.5674 -1.7398
  779MOL0     H 5135   1.548   9.077   4.719  0.5535 -1.7804  0.1967
  779MOL0     H 5136   1.621   9.150   4.851 -0.7094 -1.5803 -0.0083
  779MOL0     H 5137   1.813   9.231   4.693 -0.5710  1.8303  0.1223
  779MOL0     H 5138   1.711   9.175   4.560 -1.1140  2.1883  1.1845
  779MOL0     H 5139   1.740   8.931   4.666  0.4167 -0.2070 -0.4038
  779MOL0     H 5140   1.881   9.013   4.592  0.7110 -3.0690 -0.0193
  779MOL0     H 5141   1.816   9.019   4.900  0.4563 -2.9855  0.8034
  779MOL0     H 5142   1.973   9.049   4.820 -0.5491 -0.2525 -0.0405
  779MOL0     H 5143   1.964   8.840   4.937 -0.4620  1.4129  0.1754
  779MOL0     H 5144   1.821   8.789   4.851 -1.4462  3.1026  0.3934
  779MOL0     H 5145   1.066   9.133   4.821 -0.2325 -0.1658  0.0341
  779MOL0     H 5146   0.848   9.059   4.764 -0.0728  0.2078 -0.3876
  779MOL0     H 5147   0.477   9.145   4.542 -2.2963  0.8764  1.3593
  779MOL0     H 5148   0.233   9.095   4.500  1.6505  1.5766 -1.0671
  779MOL0     H 5149   0.040   8.500   5.058  0.4242  1.1466 -1.4259
  779MOL0     H 5150   0.123   8.730   5.097 -0.9068  0.7626  0.6989
  779MOL0     H 5151   0.466   8.980   5.265 -2.6932 -1.5875 -0.3453
  779MOL0     H 5152   0.564   9.184   5.224 -0.1129  0.3685  1.1849
  779MOL0     H 5153   0.566   9.364   5.117 -1.7428  1.5970 -1.2665
  779MOL0     H 5154   0.646   9.396   5.272  2.2422  1.0333 -0.8827
  779MOL0     H 5155   0.512   9.618   5.112 -0.2734 -1.8332  0.6147
  779MOL0     H 5156   0.679   9.569   5.093 -0.2450 -3.0664 -1.0780
  779MOL0     H 5157   0.691   9.612   5.357  1.6646  1.5516 -1.2879
  779MOL0     H 5158   0.517   9.671   5.330 -1.0431  1.7921 -2.9240
  779MOL0     H 5159   0.614   9.829   5.165 -2.2376  2.8753  1.6322
  779MOL0     H 5160   0.643   9.870   5.330  2.6662  1.8193 -0.3626
  779MOL0     H 5161   1.044   9.802   5.201 -0.2728  1.8285  1.1066
  779MOL0     H 5162   0.182   9.385   5.308  0.6578 -0.7311  1.0419
  779MOL0     H 5163  -0.009   9.119   5.389  0.6779  0.1619  0.3931
  779MOL0     H 5164  -0.008   9.283   5.335 -0.8591 -0.1318 -1.2968
  779MOL0     H 5165  -0.016   9.153   5.211  0.6554 -1.8600 -0.6611
  780MOL0     O 5166   2.328   3.866   8.884  0.3412  0.0608  0.2976
  780MOL0     C 5167   2.263   3.914   8.789 -0.2129  0.3992 -1.6578
  780MOL0     O 5168   2.301   4.026   8.714  0.6112  0.5139  0.1922
  780MOL0     C 5169   2.419   4.094   8.734  0.9915  0.3410 -0.6454
  780MOL0     C 5170   2.417   4.237   8.748  0.0805  0.0450 -0.6199
  780MOL0     C 5171   2.544   4.295   8.778  0.1287  0.3003  0.1244
  780MOL0     C 5172   2.660   4.222   8.799  0.1132  0.7517 -0.5735
  780MOL0     O 5173   2.775   4.269   8.858 -0.6846  0.0624 -0.1070
  780MOL0     C 5174   2.793   4.410   8.872 -0.3914  0.3045  0.3402
  780MOL0     C 5175   2.920   4.421   8.958  0.3212 -0.7174 -0.3252
  780MOL0     C 5176   2.947   4.567   8.992 -0.2706 -0.7393 -0.0991
  780MOL0     C 5177   3.050   4.584   9.102  0.5245 -0.5614 -0.7357
  780MOL0     C 5178   3.105   4.726   9.125  0.8010 -0.2040 -0.0120
  780MOL0     C 5179   3.204   4.769   9.028 -0.6122  0.0464 -0.1187
  780MOL0     C 5180   3.340   4.706   9.039 -0.8587 -0.2505 -0.7545
  780MOL0     C 5181   3.445   4.748   8.933  0.4003 -0.1208 -0.2690
  780MOL0     N 5182   3.581   4.724   8.973 -0.1614  0.2028  0.0608
  780MOL0     C 5183   3.630   4.596   8.994 -0.1577  0.4645 -0.4318
  780MOL0     C 5184   3.757   4.614   9.033  0.0525  0.1334 -0.2719
  780MOL0     C 5185   3.854   4.500   9.054  0.0716 -0.2820 -0.0698
  780MOL0     C 5186   3.910   4.455   8.919  0.0096 -0.2233 -0.3754
  780MOL0     C 5187   3.968   4.562   8.842 -1.3734  0.3720 -0.8304
  780MOL0     C 5188   4.070   4.637   8.917  0.1540 -0.3467  0.0859
  780MOL0     O 5189   4.180   4.562   8.966  0.1531 -0.4970  0.1630
  780MOL0     C 5190   4.303   4.560   8.906  0.1192 -0.8069  0.4964
  780MOL0     C 5191   4.339   4.613   8.778  0.1205 -1.1543 -0.5238
  780MOL0     C 5192   4.472   4.620   8.737  1.0418  0.4255 -0.0753
  780MOL0     C 5193   4.576   4.590   8.826  0.1109 -0.2006 -0.0134
  780MOL0     C 5194   4.721   4.607   8.784  0.7036  0.6165 -0.5282
  780MOL0     O 5195   4.816   4.520   8.833 -0.6990  0.3357 -0.3977
  780MOL0     C 5196   4.942   4.534   8.793 -1.2989 -0.3043  0.3846
  780MOL0     C 5197   5.040   4.559   8.894 -0.1068  0.0223 -1.0938
  780MOL0     C 5198   5.173   4.577   8.857  0.2269 -0.7507 -0.1965
  780MOL0     C 5199   5.212   4.552   8.724 -0.3157 -0.2102 -0.4278
  780MOL0     O 5200   5.346   4.573   8.697 -0.0936 -0.8531  0.1688
  780MOL0     C 5201   5.448   4.497   8.767  0.7753 -0.5022  0.2523
  780MOL0     C 5202   5.587   4.529   8.707  0.3016  0.3028 -0.9493
  780MOL0     C 5203   5.689   4.461   8.791 -0.1720 -0.5437 -0.8639
  780MOL0     C 5204   5.829   4.504   8.765  0.7389  0.5971 -0.4134
  780MOL0     C 5205   5.886   4.415   8.644 -0.1245  0.8243 -0.8432
  780MOL0     C 5206   6.043   4.405   8.652 -0.8055 -0.3952 -0.3160
  780MOL0     C 5207   6.089   4.339   8.517 -0.5848  0.4877 -0.4375
  780MOL0     C 5208   6.243   4.303   8.529 -0.0711 -0.2579 -0.2159
  780MOL0    Cl 5209   6.280   4.226   8.682  0.5625  0.0049  0.3634
  780MOL0     C 5210   5.114   4.519   8.629 -0.2042  0.1953 -0.2929
  780MOL0     C 5211   4.978   4.508   8.662  1.0310  1.1444  0.0909
  780MOL0     O 5212   4.738   4.695   8.700 -0.7001  0.6163  0.1780
  780MOL0     C 5213   4.547   4.537   8.952  0.0841 -0.8032 -0.5157
  780MOL0     C 5214   4.409   4.514   8.988 -0.0573 -0.4003  0.1377
  780MOL0     N 5215   3.783   4.754   9.024 -0.1837 -0.1613  0.1649
  780MOL0     N 5216   3.679   4.815   8.985  0.3402  0.0222  0.0917
  780MOL0     C 5217   2.655   4.092   8.774  0.2888  0.4875  0.1586
  780MOL0     C 5218   2.534   4.019   8.749 -0.6190  0.6993  0.8449
  780MOL0     C 5219   2.136   3.852   8.758 -0.3903 -0.6701  0.3125
  780MOL0     C 5220   2.062   3.921   8.658 -0.4919  0.2039 -1.2258
  780MOL0     C 5221   1.927   3.894   8.634  0.8061  0.8557 -0.2568
  780MOL0     C 5222   1.864   3.789   8.709  1.0439 -0.4055  1.5987
  780MOL0     O 5223   1.731   3.764   8.704  0.0690  0.3252  0.7454
  780MOL0     C 5224   1.641   3.875   8.701 -0.4266 -0.2501  0.3369
  780MOL0     C 5225   1.498   3.823   8.691  0.4536 -0.0469 -0.3796
  780MOL0     C 5226   1.473   3.770   8.557  0.2974 -0.4443  0.9552
  780MOL0     C 5227   1.336   3.707   8.540  0.8154 -0.6124  0.2130
  780MOL0     C 5228   1.247   3.819   8.542 -0.3391 -0.3648  0.3569
  780MOL0     C 5229   1.177   3.915   8.564  0.2022 -0.5486 -0.5467
  780MOL0     C 5230   1.946   3.711   8.791  0.6238 -0.3974  0.5050
  780MOL0     C 5231   2.083   3.737   8.813  0.5837 -0.1623 -0.4903
  780MOL0     C 5232   2.153   3.642   8.910  0.0784  0.0281  0.0903
  780MOL0     H 5233   2.329   4.301   8.739  1.1345  1.4828 -1.0587
  780MOL0     H 5234   2.559   4.402   8.787  1.8651  0.1270 -0.2827
  780MOL0     H 5235   2.809   4.465   8.779  0.0308  2.2955  1.5260
  780MOL0     H 5236   2.710   4.465   8.916 -3.5730 -2.4945 -1.6645
  780MOL0     H 5237   3.004   4.377   8.904  0.2136 -2.3010  0.7428
  780MOL0     H 5238   2.897   4.364   9.048 -3.7695 -2.0331 -1.9824
  780MOL0     H 5239   2.855   4.624   9.003 -1.2777 -1.9408 -1.6824
  780MOL0     H 5240   2.985   4.609   8.898  2.9761  1.5721  2.0127
  780MOL0     H 5241   3.008   4.553   9.198  1.5209 -0.7294 -0.3486
  780MOL0     H 5242   3.126   4.510   9.078  1.3448  0.3558 -1.0627
  780MOL0     H 5243   3.031   4.806   9.120 -0.3751 -1.2798 -0.3466
  780MOL0     H 5244   3.154   4.736   9.222  1.9828 -1.5118 -0.4260
  780MOL0     H 5245   3.167   4.761   8.925  2.8943  0.0409 -1.5030
  780MOL0     H 5246   3.225   4.876   9.042 -0.5908  0.2406 -1.4472
  780MOL0     H 5247   3.337   4.597   9.023 -1.4857 -0.5633  1.1543
  780MOL0     H 5248   3.398   4.730   9.128 -0.9578 -1.6730 -0.2729
  780MOL0     H 5249   3.429   4.706   8.833  2.5083  0.0351 -0.7224
  780MOL0     H 5250   3.428   4.856   8.926 -0.7515 -0.3341 -1.0093
  780MOL0     H 5251   3.583   4.502   8.968  0.8586 -0.7745  1.8934
  780MOL0     H 5252   3.928   4.526   9.131 -0.4980  1.1076  0.0408
  780MOL0     H 5253   3.803   4.414   9.098 -1.3432 -0.3448 -1.7593
  780MOL0     H 5254   3.983   4.375   8.936  1.1144  0.2069 -2.7663
  780MOL0     H 5255   3.842   4.411   8.845  2.8532 -0.8607 -2.7877
  780MOL0     H 5256   3.898   4.640   8.809 -0.8163  0.4208 -1.9330
  780MOL0     H 5257   4.017   4.510   8.759 -1.0244 -2.4311  0.9988
  780MOL0     H 5258   4.015   4.680   9.001 -0.2488  1.4690 -1.0549
  780MOL0     H 5259   4.101   4.734   8.876 -0.2630  0.0335  0.6583
  780MOL0     H 5260   4.253   4.638   8.716 -2.0854 -0.7454  2.5164
  780MOL0     H 5261   4.497   4.672   8.644 -0.3586 -0.9725 -1.2869
  780MOL0     H 5262   5.016   4.571   8.999 -1.3435 -4.1195 -0.7059
  780MOL0     H 5263   5.248   4.619   8.923  0.4329  0.2053 -1.0122
  780MOL0     H 5264   5.439   4.503   8.876 -1.3449  0.4813  0.0710
  780MOL0     H 5265   5.431   4.390   8.749  0.4392 -0.4901  0.4819
  780MOL0     H 5266   5.584   4.488   8.606 -0.7178 -0.9885 -0.4255
  780MOL0     H 5267   5.597   4.638   8.695  1.4703  0.2069 -0.8967
  780MOL0     H 5268   5.673   4.489   8.896  3.0956  1.1043 -0.6788
  780MOL0     H 5269   5.674   4.352   8.783  1.3963 -0.6656 -2.7578
  780MOL0     H 5270   5.877   4.485   8.861 -1.7091 -1.1314  0.5543
  780MOL0     H 5271   5.835   4.611   8.743  4.3402  0.5952  0.0142
  780MOL0     H 5272   5.860   4.461   8.548 -3.7330 -1.0105 -0.9134
  780MOL0     H 5273   5.829   4.322   8.640  0.2078  0.5843 -0.1402
  780MOL0     H 5274   6.090   4.504   8.658  0.3174 -0.9861  2.2664
  780MOL0     H 5275   6.067   4.346   8.741 -0.7576  1.3932  0.9007
  780MOL0     H 5276   6.084   4.418   8.442  1.2593  0.3763 -0.7287
  780MOL0     H 5277   6.036   4.248   8.487  1.0362 -0.7719  0.3411
  780MOL0     H 5278   6.281   4.236   8.451  0.9435 -1.0954  0.9555
  780MOL0     H 5279   6.307   4.392   8.518  2.7079 -1.7644  2.2487
  780MOL0     H 5280   5.136   4.496   8.526  4.9660 -0.3935  0.6706
  780MOL0     H 5281   4.910   4.479   8.583  3.0638  0.9820 -1.7010
  780MOL0     H 5282   4.636   4.517   9.011 -1.1329  1.0886  2.1299
  780MOL0     H 5283   4.381   4.459   9.077  1.2380  2.2377  2.3205
  780MOL0     H 5284   2.745   4.033   8.787 -0.3071 -0.4068  0.3065
  780MOL0     H 5285   2.538   3.912   8.739  0.7308  0.6382  1.6975
  780MOL0     H 5286   2.107   4.006   8.606  0.9655  1.2346  1.5153
  780MOL0     H 5287   1.866   3.951   8.564 -3.1625 -0.6955  1.6165
  780MOL0     H 5288   1.675   3.952   8.631  0.5726 -0.7254  0.2889
  780MOL0     H 5289   1.635   3.925   8.798  0.9630 -0.8560  0.7648
  780MOL0     H 5290   1.418   3.894   8.716 -0.2973 -0.7674 -0.7145
  780MOL0     H 5291   1.482   3.746   8.767 -0.0943  2.3066  2.0474
  780MOL0     H 5292   1.552   3.701   8.528  1.3663  0.5418  1.4456
  780MOL0     H 5293   1.492   3.849   8.484 -1.5574 -0.6275  0.2244
  780MOL0     H 5294   1.332   3.649   8.447 -0.0151  0.1881 -0.2618
  780MOL0     H 5295   1.318   3.641   8.626  1.1789 -1.1230 -0.0922
  780MOL0     H 5296   1.106   3.995   8.567  1.9624  1.1303 -1.4264
  780MOL0     H 5297   1.908   3.615   8.825  1.1172 -1.0786 -0.7899
  780MOL0     H 5298   2.102   3.545   8.916 -0.2630 -0.4345 -5.2643
  780MOL0     H 5299   2.249   3.615   8.867  1.9318  3.5986  1.5594
  780MOL0     H 5300   2.177   3.689   9.005  1.2275  0.1675 -0.2552
  781MOL0     O 5301   0.057   4.235   0.555 -0.1851  0.1222 -0.4589
  781MOL0     C 5302   0.094   4.309   0.463  1.1052 -0.0435 -0.3186
  781MOL0     O 5303   0.200   4.290   0.381  0.7281 -0.4629  0.0061
  781MOL0     C 5304   0.307   4.224   0.424 -0.6258 -0.2910  0.5923
  781MOL0     C 5305   0.354   4.242   0.556 -0.6274  0.3057 -0.3047
  781MOL0     C 5306   0.468   4.172   0.606 -0.2074  0.0499  0.4459
  781MOL0     C 5307   0.535   4.097   0.514  0.0355 -0.1683 -0.0747
  781MOL0     O 5308   0.632   4.012   0.563 -0.8379 -0.5637 -0.1287
  781MOL0     C 5309   0.767   4.053   0.540  0.1617 -0.6879 -0.1424
  781MOL0     C 5310   0.860   3.943   0.589  0.5983  0.8912 -0.1028
  781MOL0     C 5311   0.995   3.949   0.519 -0.2113  0.1611 -0.6326
  781MOL0     C 5312   1.101   3.869   0.592  0.8840 -0.2363 -0.1645
  781MOL0     C 5313   1.232   3.871   0.515  0.2507  0.5925  0.4197
  781MOL0     C 5314   1.226   3.811   0.374  0.3624  0.6675  0.0301
  781MOL0     C 5315   1.159   3.678   0.376  0.0990  0.2426  0.1484
  781MOL0     C 5316   1.197   3.604   0.251 -0.6117  0.8963  0.4053
  781MOL0     N 5317   1.333   3.545   0.245  0.1204 -0.2778 -0.9334
  781MOL0     C 5318   1.369   3.412   0.242 -0.4583  0.6155  0.5581
  781MOL0     C 5319   1.505   3.400   0.239 -0.1252 -0.7140  0.0400
  781MOL0     C 5320   1.590   3.281   0.252  0.0571 -0.6678 -0.1125
  781MOL0     C 5321   1.723   3.300   0.315 -0.5089  0.1340  0.3570
  781MOL0     C 5322   1.825   3.370   0.209 -0.5478 -0.4468 -0.4654
  781MOL0     C 5323   1.978   3.334   0.240  0.0595  0.0849 -0.4110
  781MOL0     O 5324   2.065   3.404   0.158 -0.2164 -0.1188  0.6314
  781MOL0     C 5325   2.193   3.361   0.142 -0.2823  0.6762 -0.2164
  781MOL0     C 5326   2.255   3.262   0.224  0.2357 -0.7607  0.1265
  781MOL0     C 5327   2.399   3.251   0.214  0.6410  0.4803  0.3275
  781MOL0     C 5328   2.479   3.319   0.122 -0.0010  1.0334 -0.7050
  781MOL0     C 5329   2.622   3.301   0.113  0.1365 -0.1287  0.5071
  781MOL0     O 5330   2.684   3.349  -0.011  0.1270 -0.1371 -0.6242
  781MOL0     C 5331   2.821   3.357  -0.017  0.7125 -0.5886 -1.1826
  781MOL0     C 5332   2.894   3.433   0.078 -1.2694  0.1865 -0.5026
  781MOL0     C 5333   3.035   3.427   0.072  0.2624 -0.5550  0.4810
  781MOL0     C 5334   3.095   3.354  -0.032 -0.2693  0.8126 -0.3820
  781MOL0     O 5335   3.229   3.369  -0.015  0.3618 -0.0120  0.2079
  781MOL0     C 5336   3.323   3.349  -0.119 -0.5670  0.0900 -0.8668
  781MOL0     C 5337   3.465   3.399  -0.098 -0.9106 -0.3468 -1.0792
  781MOL0     C 5338   3.562   3.367  -0.215 -0.3673  0.2990  0.5396
  781MOL0     C 5339   3.701   3.400  -0.177 -0.1348  0.6151 -0.1475
  781MOL0     C 5340   3.794   3.371  -0.296  0.9522 -0.2272 -1.4970
  781MOL0     C 5341   3.933   3.387  -0.243  0.2122  0.4224 -0.2640
  781MOL0     C 5342   4.024   3.329  -0.353  0.7333 -0.3075 -0.3207
  781MOL0     C 5343   4.166   3.352  -0.327 -0.0090 -0.0169 -0.0266
  781MOL0    Cl 5344   4.217   3.531  -0.310  0.6544  0.0244  0.0346
  781MOL0     C 5345   3.023   3.292  -0.131 -0.4360 -0.7281 -0.5293
  781MOL0     C 5346   2.885   3.292  -0.119 -0.2981 -0.2074  0.8734
  781MOL0     O 5347   2.683   3.246   0.206  0.2368  0.2038 -0.0495
  781MOL0     C 5348   2.404   3.401   0.033 -0.6979 -1.1048 -0.6086
  781MOL0     C 5349   2.273   3.425   0.050  0.6670 -0.7610  0.1652
  781MOL0     N 5350   1.548   3.534   0.231  0.4790 -0.3976  0.4525
  781MOL0     N 5351   1.454   3.612   0.243  0.2296  0.1168  1.1683
  781MOL0     C 5352   0.496   4.083   0.376  0.4192  0.6833  0.4303
  781MOL0     C 5353   0.383   4.141   0.334  0.8685 -1.4615 -0.7768
  781MOL0     C 5354   0.018   4.448   0.458  0.5099  0.7506  1.3155
  781MOL0     C 5355  -0.102   4.465   0.531 -0.2682  0.1951  0.2500
  781MOL0     C 5356  -0.161   4.588   0.521 -0.0610  0.3005 -0.1404
  781MOL0     C 5357  -0.109   4.696   0.454 -0.0823 -0.5792 -0.0790
  781MOL0     O 5358  -0.167   4.824   0.429 -0.4270  0.1549 -0.6578
  781MOL0     C 5359  -0.302   4.850   0.471  0.7755 -0.2594 -0.2804
  781MOL0     C 5360  -0.308   4.902   0.620 -0.0884 -0.7592  0.5543
  781MOL0     C 5361  -0.451   4.932   0.648  1.2411 -0.2577  0.2220
  781MOL0     C 5362  -0.483   5.081   0.672  0.3284  0.2862  0.1772
  781MOL0     C 5363  -0.419   5.128   0.786 -0.4811 -0.4377 -0.3621
  781MOL0     C 5364  -0.343   5.176   0.867 -0.6300 -0.2826  0.2535
  781MOL0     C 5365   0.016   4.677   0.393  0.3515  0.5709 -0.0512
  781MOL0     C 5366   0.079   4.554   0.387  0.6933 -0.2052 -0.6434
  781MOL0     C 5367   0.219   4.553   0.331 -0.0653 -0.0685  0.7525
  781MOL0     H 5368   0.309   4.302   0.635  2.2196 -0.8848  2.4490
  781MOL0     H 5369   0.483   4.189   0.712 -0.6677  2.1351  0.2193
  781MOL0     H 5370   0.767   4.060   0.430 -1.1564  1.8149 -0.0671
  781MOL0     H 5371   0.796   4.146   0.590 -4.1794  1.1391 -0.5664
  781MOL0     H 5372   0.805   3.851   0.567 -2.9197  2.7799  0.1408
  781MOL0     H 5373   0.868   3.952   0.698  0.9151  1.9962 -0.2035
  781MOL0     H 5374   1.023   4.054   0.509 -2.3258  0.8556  0.3185
  781MOL0     H 5375   0.982   3.905   0.419  0.1130 -0.7158 -0.2974
  781MOL0     H 5376   1.113   3.898   0.697  1.9322  3.0481 -1.0822
  781MOL0     H 5377   1.058   3.769   0.598  2.5302 -0.9176  0.9061
  781MOL0     H 5378   1.264   3.976   0.510 -0.0710  0.6716  0.0028
  781MOL0     H 5379   1.298   3.811   0.579 -2.6036 -2.1419  1.0211
  781MOL0     H 5380   1.187   3.891   0.309 -0.1707 -0.8677 -1.6147
  781MOL0     H 5381   1.327   3.794   0.335 -0.3152  1.5449 -2.2641
  781MOL0     H 5382   1.055   3.697   0.348  0.1535  1.4460  0.7048
  781MOL0     H 5383   1.159   3.622   0.469 -2.4374  1.4509  0.9600
  781MOL0     H 5384   1.121   3.528   0.230  0.1609  0.0604  0.5565
  781MOL0     H 5385   1.191   3.673   0.167  1.4438  0.7334  0.0733
  781MOL0     H 5386   1.299   3.329   0.245 -0.2482  0.4604  1.6168
  781MOL0     H 5387   1.544   3.217   0.328 -1.3516  0.9301  0.4474
  781MOL0     H 5388   1.601   3.217   0.164 -2.8557 -1.4048 -0.0335
  781MOL0     H 5389   1.714   3.372   0.396  1.0271  0.1261  0.5700
  781MOL0     H 5390   1.765   3.207   0.355  0.7257  0.7420  0.5386
  781MOL0     H 5391   1.811   3.479   0.205  0.2534 -0.2822  0.6168
  781MOL0     H 5392   1.796   3.340   0.109  0.0764 -0.4074 -0.6615
  781MOL0     H 5393   1.974   3.226   0.222  1.0127 -0.7175  3.1918
  781MOL0     H 5394   1.992   3.359   0.346 -0.4267  1.1135 -0.5815
  781MOL0     H 5395   2.200   3.194   0.289  0.3849 -2.4968 -1.4582
  781MOL0     H 5396   2.446   3.188   0.289 -1.5482  0.6048  1.9188
  781MOL0     H 5397   2.838   3.475   0.161 -0.3918 -0.4340  0.4445
  781MOL0     H 5398   3.081   3.468   0.161  0.3150 -0.9825  0.6488
  781MOL0     H 5399   3.339   3.242  -0.135 -0.4021 -0.2497  1.2282
  781MOL0     H 5400   3.290   3.398  -0.211 -2.5385  0.2446 -0.1387
  781MOL0     H 5401   3.440   3.505  -0.088  1.7452  0.1745  1.7723
  781MOL0     H 5402   3.512   3.371  -0.003  0.4468 -0.1917 -1.6724
  781MOL0     H 5403   3.546   3.260  -0.227 -1.6584  0.6270 -0.9494
  781MOL0     H 5404   3.542   3.398  -0.318  1.7908 -2.1247 -0.7160
  781MOL0     H 5405   3.722   3.336  -0.090  0.5221  0.8051 -0.1637
  781MOL0     H 5406   3.707   3.505  -0.146  2.9099  1.1515 -2.1099
  781MOL0     H 5407   3.769   3.452  -0.365  1.5012  2.2043  0.9931
  781MOL0     H 5408   3.777   3.272  -0.340 -1.5947 -0.8863  0.6957
  781MOL0     H 5409   3.946   3.494  -0.225 -1.1898  0.5136  0.3780
  781MOL0     H 5410   3.976   3.333  -0.158  4.0800 -0.7644 -2.7279
  781MOL0     H 5411   3.996   3.375  -0.449 -2.1680 -1.8352 -0.3207
  781MOL0     H 5412   4.007   3.222  -0.371  1.6915 -0.3724 -0.9504
  781MOL0     H 5413   4.191   3.283  -0.246 -1.4736 -0.4140  0.1272
  781MOL0     H 5414   4.223   3.325  -0.416  0.0674 -1.6986  0.4853
  781MOL0     H 5415   3.080   3.243  -0.210 -1.6664 -0.9584 -1.2999
  781MOL0     H 5416   2.837   3.236  -0.198  1.9005 -0.6285 -0.2419
  781MOL0     H 5417   2.442   3.471  -0.041  1.1118 -0.3455  0.9410
  781MOL0     H 5418   2.220   3.509   0.005 -1.1777 -1.1341  1.5275
  781MOL0     H 5419   0.542   4.017   0.304  0.5229  1.0343  0.1724
  781MOL0     H 5420   0.342   4.125   0.235 -0.4482 -3.0234 -0.0261
  781MOL0     H 5421  -0.149   4.380   0.578  1.3107 -0.7372  0.2138
  781MOL0     H 5422  -0.255   4.616   0.568  0.0865  0.8392 -0.1550
  781MOL0     H 5423  -0.364   4.760   0.465  1.6450 -0.8150 -1.2789
  781MOL0     H 5424  -0.357   4.919   0.407 -1.9946  0.0333  2.1852
  781MOL0     H 5425  -0.247   4.988   0.648 -1.4849  0.7756 -0.9398
  781MOL0     H 5426  -0.274   4.817   0.680  3.4324 -0.5800 -0.9162
  781MOL0     H 5427  -0.475   4.875   0.738  2.7322  2.1483  2.2751
  781MOL0     H 5428  -0.524   4.898   0.574  2.5654  0.4342 -1.4685
  781MOL0     H 5429  -0.448   5.143   0.589  0.6095  0.9097  0.7551
  781MOL0     H 5430  -0.592   5.083   0.681 -0.1855 -5.3272 -1.0058
  781MOL0     H 5431  -0.265   5.210   0.931  0.3259 -2.0125  0.0671
  781MOL0     H 5432   0.053   4.769   0.348 -0.6976  0.6752 -0.7436
  781MOL0     H 5433   0.297   4.524   0.401  1.0434 -0.6848 -0.6775
  781MOL0     H 5434   0.230   4.497   0.238 -0.1438 -1.6429  1.6646
  781MOL0     H 5435   0.250   4.655   0.306 -1.7848  0.5236  0.9200
  782MOL0     O 5436   8.162   6.027   5.861 -0.0221  0.3464 -0.0555
  782MOL0     C 5437   8.067   5.978   5.805 -0.1163  1.0139 -0.6139
  782MOL0     O 5438   8.057   5.846   5.783 -0.0145  0.5472  0.2607
  782MOL0     C 5439   8.157   5.749   5.778  0.0785 -0.1010  0.1757
  782MOL0     C 5440   8.286   5.779   5.803  0.4349 -0.2505 -0.2546
  782MOL0     C 5441   8.377   5.673   5.836 -0.3465 -0.3404  0.5434
  782MOL0     C 5442   8.335   5.537   5.837 -0.2797 -1.2430 -1.0151
  782MOL0     O 5443   8.418   5.438   5.876  0.0532 -0.2604  0.8282
  782MOL0     C 5444   8.450   5.423   6.013 -0.0831  0.5830  0.0318
  782MOL0     C 5445   8.383   5.296   6.065  0.0770  0.1808 -0.2036
  782MOL0     C 5446   8.479   5.176   6.079  0.3442 -0.4360  0.1088
  782MOL0     C 5447   8.431   5.066   6.168 -0.0769 -0.2158 -0.1781
  782MOL0     C 5448   8.527   4.944   6.203 -0.0080 -0.3906 -0.6575
  782MOL0     C 5449   8.661   4.996   6.251 -0.0083  1.0738 -0.5883
  782MOL0     C 5450   8.735   4.891   6.322 -1.2559  0.0879 -0.6868
  782MOL0     C 5451   8.879   4.935   6.341 -0.1880  0.0064 -0.4558
  782MOL0     N 5452   8.946   4.847   6.435 -0.6704 -0.4734  0.0684
  782MOL0     C 5453   8.975   4.865   6.568 -0.6500  0.4974 -1.3954
  782MOL0     C 5454   9.068   4.775   6.604 -0.4452  0.1067  0.1570
  782MOL0     C 5455   9.134   4.759   6.737 -0.7450 -0.1907 -0.1108
  782MOL0     C 5456   9.043   4.744   6.852 -0.1215  0.4056  0.2550
  782MOL0     C 5457   9.114   4.772   6.990  0.0646 -0.0101 -0.3476
  782MOL0     C 5458   9.180   4.911   7.011  0.1366 -0.0032  0.1059
  782MOL0     O 5459   9.232   4.933   7.143  0.6703 -1.1080 -0.6602
  782MOL0     C 5460   9.370   4.917   7.158 -0.6596 -0.1883 -0.4181
  782MOL0     C 5461   9.440   5.029   7.171 -0.5609 -0.1331 -0.1258
  782MOL0     C 5462   9.580   5.022   7.174  0.8679  0.1698 -0.1744
  782MOL0     C 5463   9.656   4.901   7.163  0.2494  0.3363  0.2184
  782MOL0     C 5464   9.805   4.888   7.172 -0.3550 -0.1771  0.6947
  782MOL0     O 5465   9.864   4.767   7.144  0.1116  0.2415  1.0018
  782MOL0     C 5466   9.993   4.752   7.176  0.0138  0.3675 -0.4752
  782MOL0     C 5467  10.077   4.712   7.075  0.4851 -0.2853  0.3596
  782MOL0     C 5468  10.212   4.704   7.099 -1.0998  0.5956 -0.1513
  782MOL0     C 5469  10.268   4.718   7.226  0.1158 -0.5214  0.6278
  782MOL0     O 5470  10.410   4.721   7.233 -0.5704  0.0073  0.3186
  782MOL0     C 5471  10.467   4.696   7.365  0.0132  0.0194  0.3399
  782MOL0     C 5472  10.618   4.668   7.361  0.3216 -0.3574 -0.1006
  782MOL0     C 5473  10.693   4.797   7.311  0.1450  0.7964  0.0223
  782MOL0     C 5474  10.848   4.777   7.316  0.1054  1.9914  0.7538
  782MOL0     C 5475  10.925   4.903   7.278 -0.1254 -0.2247  0.2493
  782MOL0     C 5476  10.894   4.982   7.148  0.0357  0.7087  0.1460
  782MOL0     C 5477  10.977   5.101   7.118 -0.0240 -0.3973 -0.1344
  782MOL0     C 5478  10.921   5.172   6.994 -0.0707 -0.6502  0.1186
  782MOL0    Cl 5479  11.033   5.307   6.946 -0.1615 -0.5135 -0.3258
  782MOL0     C 5480  10.184   4.750   7.333  0.1855  1.0548  0.4480
  782MOL0     C 5481  10.046   4.763   7.309  0.8051  0.2861 -0.8651
  782MOL0     O 5482   9.867   4.990   7.210 -0.0749  0.9587 -0.7049
  782MOL0     C 5483   9.577   4.783   7.151 -0.0385  0.5161  0.4185
  782MOL0     C 5484   9.436   4.796   7.157  0.4410  1.2317  0.6083
  782MOL0     N 5485   9.089   4.697   6.494  0.0880  0.7862 -0.3933
  782MOL0     N 5486   9.018   4.737   6.396 -0.7618  0.3368  0.2764
  782MOL0     C 5487   8.210   5.508   5.783  0.2009 -0.0420 -0.4431
  782MOL0     C 5488   8.116   5.615   5.764  0.1596  0.4235  0.3771
  782MOL0     C 5489   7.944   6.070   5.798 -0.1832  0.1973  0.8047
  782MOL0     C 5490   7.971   6.207   5.793  0.0740  0.0973  0.3625
  782MOL0     C 5491   7.873   6.306   5.811  0.2781  0.1442  0.3559
  782MOL0     C 5492   7.738   6.267   5.814 -1.0567  0.0077 -0.4717
  782MOL0     O 5493   7.644   6.368   5.819 -0.0838  0.0053 -0.0220
  782MOL0     C 5494   7.512   6.340   5.776  0.2095 -0.0152 -0.6270
  782MOL0     C 5495   7.503   6.306   5.629 -0.6104 -0.4787 -0.0816
  782MOL0     C 5496   7.354   6.277   5.587 -0.9895 -0.6193  1.1253
  782MOL0     C 5497   7.274   6.175   5.668 -0.1367 -0.6851  0.5972
  782MOL0     C 5498   7.316   6.040   5.650 -0.6320  0.9934  0.4427
  782MOL0     C 5499   7.357   5.924   5.642  0.4054  0.3949  0.0446
  782MOL0     C 5500   7.702   6.133   5.796  0.0806  1.1257  0.0754
  782MOL0     C 5501   7.803   6.038   5.794  0.0632  0.9724 -0.1026
  782MOL0     C 5502   7.747   5.898   5.796  0.3755 -0.1595 -0.1280
  782MOL0     H 5503   8.321   5.881   5.813 -1.6245  0.4119  0.6275
  782MOL0     H 5504   8.477   5.695   5.870 -0.2053  1.6886 -0.9684
  782MOL0     H 5505   8.556   5.421   6.040  0.1876  1.3979 -0.9324
  782MOL0     H 5506   8.403   5.508   6.062 -0.5785  0.6368 -0.5226
  782MOL0     H 5507   8.298   5.272   6.001  0.8288 -0.8452 -0.8541
  782MOL0     H 5508   8.357   5.309   6.170  1.5719  0.8607  0.1103
  782MOL0     H 5509   8.575   5.217   6.112 -0.4601 -0.9618  3.4167
  782MOL0     H 5510   8.490   5.131   5.979 -0.3876 -0.8039  0.1880
  782MOL0     H 5511   8.411   5.108   6.267  2.2257  2.2092 -0.6380
  782MOL0     H 5512   8.334   5.039   6.125  0.1867  1.5861 -2.1018
  782MOL0     H 5513   8.472   4.886   6.279 -0.1889 -1.4809 -1.5949
  782MOL0     H 5514   8.543   4.875   6.120  2.0582 -0.4648 -0.2501
  782MOL0     H 5515   8.723   5.030   6.168  2.3805  1.1099  1.1256
  782MOL0     H 5516   8.641   5.084   6.313  1.3199  1.3816 -0.5788
  782MOL0     H 5517   8.742   4.800   6.261  1.9199  1.0298 -1.9346
  782MOL0     H 5518   8.699   4.881   6.425 -2.5824 -0.7073 -1.2016
  782MOL0     H 5519   8.928   4.957   6.246 -2.0286  4.9740 -0.5280
  782MOL0     H 5520   8.876   5.032   6.392  1.6131 -0.3728  0.4822
  782MOL0     H 5521   8.926   4.937   6.634 -2.3441  0.2298 -2.3125
  782MOL0     H 5522   9.200   4.673   6.733  0.7408  0.8424  1.0717
  782MOL0     H 5523   9.203   4.842   6.750 -0.3664 -0.5994  0.5318
  782MOL0     H 5524   8.967   4.822   6.840  1.0380  1.6650  0.8430
  782MOL0     H 5525   9.009   4.641   6.848  1.4706 -0.1341 -0.3621
  782MOL0     H 5526   9.194   4.699   7.003 -0.9325 -1.1495 -0.3295
  782MOL0     H 5527   9.042   4.752   7.070  0.3449 -0.5401 -0.2225
  782MOL0     H 5528   9.101   4.985   6.995  0.5931 -0.1427 -3.5735
  782MOL0     H 5529   9.254   4.927   6.932  1.1478 -1.9234  0.5950
  782MOL0     H 5530   9.398   5.129   7.168 -0.4420 -0.0437 -3.9436
  782MOL0     H 5531   9.626   5.120   7.181  0.5051  0.2841  0.8773
  782MOL0     H 5532  10.041   4.691   6.975  0.8210  1.1568 -0.0794
  782MOL0     H 5533  10.274   4.676   7.014  0.8165  0.0396  1.3499
  782MOL0     H 5534  10.442   4.771   7.441  0.5783  0.3783  0.1827
  782MOL0     H 5535  10.428   4.606   7.413 -2.0880  1.2162  1.0263
  782MOL0     H 5536  10.659   4.644   7.460  2.4602  3.1969  0.0495
  782MOL0     H 5537  10.638   4.579   7.301 -0.3610  0.1335 -1.0772
  782MOL0     H 5538  10.656   4.818   7.210 -1.5682  0.2589  0.4909
  782MOL0     H 5539  10.669   4.881   7.377 -0.7444  1.3007 -0.9069
  782MOL0     H 5540  10.885   4.707   7.241 -2.5738  1.7566 -0.4847
  782MOL0     H 5541  10.870   4.763   7.422  1.8802  3.3011  0.6049
  782MOL0     H 5542  11.028   4.868   7.274 -0.4051 -1.1494  0.7725
  782MOL0     H 5543  10.923   4.967   7.366  2.4152  0.6516 -0.2584
  782MOL0     H 5544  10.910   4.903   7.074  0.6960  0.1254  0.8972
  782MOL0     H 5545  10.792   5.018   7.167 -0.2465  0.0850 -0.1463
  782MOL0     H 5546  11.080   5.065   7.110 -0.2259 -1.3647  1.2416
  782MOL0     H 5547  10.965   5.179   7.194  0.3554  0.5747 -1.0515
  782MOL0     H 5548  10.910   5.096   6.916  2.4896 -1.2116  0.2075
  782MOL0     H 5549  10.825   5.213   7.026  0.9475  0.5782  1.7420
  782MOL0     H 5550  10.217   4.771   7.435  0.6323  2.8131 -0.0263
  782MOL0     H 5551   9.974   4.783   7.388 -0.9712 -1.0021 -2.0808
  782MOL0     H 5552   9.623   4.687   7.172 -1.4198  0.2527  2.6405
  782MOL0     H 5553   9.387   4.699   7.160  0.9915  0.9247  0.0227
  782MOL0     H 5554   8.181   5.404   5.780  0.6134 -0.3088  2.3254
  782MOL0     H 5555   8.008   5.602   5.753  0.2869 -0.1022 -0.3330
  782MOL0     H 5556   8.075   6.233   5.782  0.7052 -2.8781 -1.8520
  782MOL0     H 5557   7.894   6.413   5.813  4.1246 -0.5011  0.6469
  782MOL0     H 5558   7.474   6.443   5.779  0.5903  0.3300 -3.9531
  782MOL0     H 5559   7.452   6.276   5.841  1.7654 -1.2349 -0.3455
  782MOL0     H 5560   7.556   6.215   5.600 -1.1886 -0.2412 -2.0352
  782MOL0     H 5561   7.548   6.384   5.566  0.3072 -2.1392 -1.5622
  782MOL0     H 5562   7.355   6.235   5.486  1.9285  2.5724 -0.4021
  782MOL0     H 5563   7.310   6.377   5.591  3.0687  1.5586 -1.3354
  782MOL0     H 5564   7.270   6.191   5.776  0.6012  0.2913  0.4932
  782MOL0     H 5565   7.167   6.181   5.644  0.2763  2.4147 -0.9499
  782MOL0     H 5566   7.387   5.830   5.600 -0.9787  0.2538 -0.6959
  782MOL0     H 5567   7.596   6.110   5.799 -0.0035  1.4970  2.5798
  782MOL0     H 5568   7.787   5.822   5.727 -3.6962 -1.3258 -1.5054
  782MOL0     H 5569   7.738   5.866   5.900 -2.4481  1.5919  0.2578
  782MOL0     H 5570   7.644   5.890   5.760 -0.2267 -2.1485  1.7897
  783MOL0     O 5571   5.432   2.332  11.252  0.3787 -0.3469  0.0337
  783MOL0     C 5572   5.517   2.406  11.207  0.2051 -0.2031  0.6295
  783MOL0     O 5573   5.646   2.375  11.181 -0.9651  0.3969 -0.1455
  783MOL0     C 5574   5.669   2.234  11.151  0.0910  0.6996  0.7558
  783MOL0     C 5575   5.662   2.137  11.253 -0.5364  0.2940 -0.4081
  783MOL0     C 5576   5.723   2.012  11.230 -0.4841  0.3526  0.1276
  783MOL0     C 5577   5.799   1.987  11.120  0.6264  0.8350  0.5680
  783MOL0     O 5578   5.865   1.868  11.087 -0.3447 -0.0173 -1.0144
  783MOL0     C 5579   5.865   1.768  11.193 -0.2115  0.0025  0.5167
  783MOL0     C 5580   5.923   1.644  11.127 -0.1417 -0.0511  0.5441
  783MOL0     C 5581   5.871   1.510  11.200 -0.7918 -0.4210  0.5241
  783MOL0     C 5582   5.951   1.391  11.138 -0.4745  1.2106 -0.0876
  783MOL0     C 5583   5.872   1.256  11.153  0.5200  0.0537  0.0464
  783MOL0     C 5584   5.852   1.212  11.297  0.0596  0.3289  0.7930
  783MOL0     C 5585   5.753   1.095  11.300  0.0289 -0.3926  0.1805
  783MOL0     C 5586   5.801   0.961  11.242 -0.3524 -1.1192  0.7034
  783MOL0     N 5587   5.712   0.852  11.270  0.1370 -0.2658  0.4810
  783MOL0     C 5588   5.737   0.717  11.267 -0.6365  0.2961  0.7125
  783MOL0     C 5589   5.623   0.647  11.282  0.5133 -0.1106  0.1566
  783MOL0     C 5590   5.622   0.495  11.278 -0.4471  0.5549  0.0925
  783MOL0     C 5591   5.618   0.455  11.131  0.0825 -0.1358 -0.4428
  783MOL0     C 5592   5.656   0.321  11.098 -0.4604  0.4527  0.5036
  783MOL0     C 5593   5.565   0.208  11.158  0.0081 -0.0237 -0.8013
  783MOL0     O 5594   5.426   0.257  11.159  0.2252  0.2919 -0.3426
  783MOL0     C 5595   5.324   0.167  11.204  0.8340 -1.0442  0.9209
  783MOL0     C 5596   5.336   0.045  11.267 -0.2677 -0.1183  0.3230
  783MOL0     C 5597   5.237  -0.043  11.285 -0.9447 -0.7578  0.1127
  783MOL0     C 5598   5.112   0.001  11.254  0.0129 -0.8993  0.5157
  783MOL0     C 5599   5.000  -0.091  11.285  0.0044 -0.1913 -0.2195
  783MOL0     O 5600   5.035  -0.224  11.321  0.0452  0.0730 -0.1791
  783MOL0     C 5601   4.925  -0.305  11.323  0.5077  0.0445  0.7914
  783MOL0     C 5602   4.866  -0.328  11.445 -0.2873  1.5821 -1.2257
  783MOL0     C 5603   4.747  -0.400  11.463  0.6641 -0.2361 -0.1629
  783MOL0     C 5604   4.678  -0.455  11.354 -0.8743 -0.1585 -1.0690
  783MOL0     O 5605   4.571  -0.531  11.383  0.2714 -0.4108  0.9902
  783MOL0     C 5606   4.518  -0.618  11.283 -0.0338  0.2868  0.7936
  783MOL0     C 5607   4.403  -0.713  11.319  0.1588  0.6577 -0.1243
  783MOL0     C 5608   4.281  -0.632  11.356  0.4979  0.8091  0.2216
  783MOL0     C 5609   4.175  -0.709  11.436 -0.9334 -0.4561 -0.8072
  783MOL0     C 5610   4.039  -0.624  11.459 -0.5778  0.1995 -0.0130
  783MOL0     C 5611   3.929  -0.686  11.538 -0.0767 -0.6067 -0.1987
  783MOL0     C 5612   3.971  -0.703  11.681  0.3325  0.1133 -0.1347
  783MOL0     C 5613   3.857  -0.738  11.776  0.4995 -0.2124  0.5780
  783MOL0    Cl 5614   3.932  -0.703  11.941 -0.2118  0.2101 -0.2346
  783MOL0     C 5615   4.725  -0.424  11.221 -0.2378 -0.6286  0.1302
  783MOL0     C 5616   4.844  -0.345  11.207 -0.5091  0.2892  0.0665
  783MOL0     O 5617   4.885  -0.049  11.274 -0.1758 -0.2807 -0.0266
  783MOL0     C 5618   5.091   0.131  11.203  0.1173  0.0360 -1.0195
  783MOL0     C 5619   5.197   0.217  11.175 -0.5971  0.5147 -0.0922
  783MOL0     N 5620   5.521   0.749  11.284  0.5315 -0.0757 -0.0529
  783MOL0     N 5621   5.579   0.858  11.273 -0.1363  0.9637  0.2533
  783MOL0     C 5622   5.804   2.086  11.020 -0.4558  0.5039  0.0722
  783MOL0     C 5623   5.741   2.212  11.034  0.0224  0.0460 -1.3113
  783MOL0     C 5624   5.454   2.540  11.186  0.4622 -0.9350 -0.4951
  783MOL0     C 5625   5.319   2.548  11.154 -0.1307  0.2682  0.8278
  783MOL0     C 5626   5.241   2.666  11.127 -1.0759 -0.8509  0.3501
  783MOL0     C 5627   5.322   2.786  11.129  0.5937 -0.2171 -0.2058
  783MOL0     O 5628   5.274   2.910  11.101  1.0676 -0.2230 -0.5039
  783MOL0     C 5629   5.135   2.940  11.080 -0.3149  0.9705 -0.2143
  783MOL0     C 5630   5.108   3.079  11.017 -0.1938  0.6832  0.7610
  783MOL0     C 5631   4.965   3.099  10.985 -0.1749 -0.4545  0.1349
  783MOL0     C 5632   4.948   3.243  10.926 -0.7877 -0.3567  0.8849
  783MOL0     C 5633   4.807   3.286  10.934 -0.2953  0.9242 -0.1539
  783MOL0     C 5634   4.685   3.296  10.940  0.1527  0.7393 -0.0375
  783MOL0     C 5635   5.450   2.780  11.180  0.7285  0.3812  0.3745
  783MOL0     C 5636   5.522   2.664  11.202  1.0327 -0.4287 -0.4218
  783MOL0     C 5637   5.666   2.677  11.252  0.3835 -0.4258 -0.5816
  783MOL0     H 5638   5.618   2.153  11.351 -0.3175 -0.0401 -0.2533
  783MOL0     H 5639   5.714   1.944  11.313 -1.1844  0.2685 -0.0093
  783MOL0     H 5640   5.927   1.790  11.280  0.4776 -1.1409  0.3210
  783MOL0     H 5641   5.760   1.754  11.221 -0.6711  1.7175 -0.1843
  783MOL0     H 5642   6.032   1.636  11.129 -0.1917 -1.1626  0.0453
  783MOL0     H 5643   5.890   1.643  11.022  0.5464 -2.5280  0.2876
  783MOL0     H 5644   5.764   1.511  11.181 -0.4347 -4.5943 -3.4375
  783MOL0     H 5645   5.890   1.515  11.308  1.0179 -0.7820  0.2672
  783MOL0     H 5646   5.963   1.396  11.029 -2.0210  0.6582 -0.2998
  783MOL0     H 5647   6.049   1.371  11.182 -0.0270 -1.9034 -2.2329
  783MOL0     H 5648   5.780   1.274  11.097  0.3466 -1.3612 -0.1665
  783MOL0     H 5649   5.924   1.180  11.093  1.6770  1.4093 -0.7380
  783MOL0     H 5650   5.946   1.172  11.335  1.8566 -2.8330 -5.5276
  783MOL0     H 5651   5.812   1.295  11.356  1.0104  1.3078  0.1104
  783MOL0     H 5652   5.659   1.125  11.251  0.7655 -2.5365 -2.7710
  783MOL0     H 5653   5.734   1.068  11.404 -1.3990 -3.3206 -0.7428
  783MOL0     H 5654   5.801   0.976  11.134 -1.4690  2.0080  1.0281
  783MOL0     H 5655   5.898   0.952  11.291  0.3178  0.5175 -0.2450
  783MOL0     H 5656   5.834   0.669  11.253 -1.9842 -2.2229 -0.6901
  783MOL0     H 5657   5.713   0.454  11.322  0.8727  3.5553  0.4105
  783MOL0     H 5658   5.536   0.454  11.334  0.3850 -0.3358  0.7508
  783MOL0     H 5659   5.520   0.467  11.083  0.6254  2.5488 -1.0205
  783MOL0     H 5660   5.682   0.524  11.076  0.0672 -0.3353 -0.7137
  783MOL0     H 5661   5.755   0.278  11.115 -1.2194 -1.3966  0.4892
  783MOL0     H 5662   5.649   0.320  10.989  1.7401  2.2006  0.2613
  783MOL0     H 5663   5.589   0.189  11.263 -2.2499 -0.9271 -0.3847
  783MOL0     H 5664   5.570   0.114  11.103 -2.1407 -0.1115 -0.9664
  783MOL0     H 5665   5.436   0.019  11.300 -1.5628 -1.4950  3.5444
  783MOL0     H 5666   5.270  -0.127  11.344  1.0524 -0.2002 -0.1210
  783MOL0     H 5667   4.919  -0.297  11.534 -2.7671  0.4537  0.7908
  783MOL0     H 5668   4.693  -0.420  11.554 -3.4270 -0.5604 -2.4115
  783MOL0     H 5669   4.494  -0.565  11.190  1.6712 -3.6835 -2.1813
  783MOL0     H 5670   4.598  -0.683  11.248 -1.0276 -1.9702  2.4734
  783MOL0     H 5671   4.378  -0.782  11.238  2.8100 -0.1520 -0.3729
  783MOL0     H 5672   4.427  -0.776  11.405 -0.2086 -1.1264 -1.2790
  783MOL0     H 5673   4.318  -0.551  11.420  0.9581 -0.4479  1.5864
  783MOL0     H 5674   4.242  -0.583  11.266  0.5496  2.5218  1.0979
  783MOL0     H 5675   4.218  -0.744  11.530  0.4591 -0.3475 -1.3827
  783MOL0     H 5676   4.145  -0.792  11.373  0.7334  0.1047 -2.4408
  783MOL0     H 5677   3.994  -0.600  11.362  4.0660  2.8670 -1.8252
  783MOL0     H 5678   4.070  -0.530  11.505  0.9224 -0.2916  0.0429
  783MOL0     H 5679   3.840  -0.624  11.523  0.0036 -0.6222 -0.7780
  783MOL0     H 5680   3.898  -0.787  11.508 -1.2779 -1.4511  3.3706
  783MOL0     H 5681   4.016  -0.608  11.711 -0.2908 -0.1968  1.9444
  783MOL0     H 5682   4.055  -0.773  11.679  1.3403  1.3196 -1.5164
  783MOL0     H 5683   3.771  -0.671  11.763  2.3869  2.0359 -1.2855
  783MOL0     H 5684   3.819  -0.837  11.752 -2.8155  0.3687  2.7794
  783MOL0     H 5685   4.690  -0.478  11.134 -0.5786  0.1458 -0.2194
  783MOL0     H 5686   4.876  -0.319  11.106  0.7396  0.4530  0.4931
  783MOL0     H 5687   4.990   0.169  11.200  0.1607  0.2200 -0.3357
  783MOL0     H 5688   5.165   0.311  11.130 -0.2538  0.0774 -1.2703
  783MOL0     H 5689   5.864   2.064  10.932  1.3922  1.1849  1.0873
  783MOL0     H 5690   5.746   2.287  10.955 -3.1484  1.4608 -0.3614
  783MOL0     H 5691   5.275   2.450  11.138  0.9934  0.0100 -1.0673
  783MOL0     H 5692   5.136   2.679  11.100 -0.8327 -1.2296 -0.8358
  783MOL0     H 5693   5.085   2.917  11.175  2.5658 -2.5290  0.7291
  783MOL0     H 5694   5.094   2.865  11.011  5.7682 -2.3386 -0.9388
  783MOL0     H 5695   5.169   3.088  10.927 -3.1864  0.4860 -1.4391
  783MOL0     H 5696   5.142   3.162  11.080 -0.2342  1.1653  0.1579
  783MOL0     H 5697   4.899   3.077  11.070 -0.0404 -2.2008 -0.1782
  783MOL0     H 5698   4.932   3.028  10.909 -1.8550  0.4782 -0.0653
  783MOL0     H 5699   5.006   3.317  10.981  0.8414  0.5748 -1.8941
  783MOL0     H 5700   4.986   3.245  10.823 -2.2464 -1.3654  0.2927
  783MOL0     H 5701   4.578   3.294  10.934  0.1765  2.1399 -1.3001
  783MOL0     H 5702   5.486   2.878  11.209  0.7718  0.2340  0.8379
  783MOL0     H 5703   5.716   2.762  11.206 -0.4596  0.9050  0.8548
  783MOL0     H 5704   5.678   2.681  11.361  0.3840  1.0661 -0.6115
  783MOL0     H 5705   5.717   2.590  11.211  1.0734  0.3792 -1.4831
  784MOL0     O 5706   0.233   1.012   9.655  0.2471 -0.0482 -0.3627
  784MOL0     C 5707   0.122   0.978   9.625 -0.0858 -0.4942 -0.0280
  784MOL0     O 5708   0.093   0.855   9.582 -0.0757  0.4961 -0.3722
  784MOL0     C 5709   0.188   0.757   9.603  0.6190 -0.2640 -0.3175
  784MOL0     C 5710   0.262   0.736   9.727  0.6535  1.2585  0.2128
  784MOL0     C 5711   0.371   0.645   9.726  0.5372 -0.0080 -0.2105
  784MOL0     C 5712   0.403   0.568   9.615  0.8503  0.2051 -0.3693
  784MOL0     O 5713   0.505   0.485   9.618  0.6074  0.5033  0.2236
  784MOL0     C 5714   0.625   0.522   9.672 -0.4920  0.1123  0.6221
  784MOL0     C 5715   0.724   0.421   9.617  1.1126 -0.0605  0.5649
  784MOL0     C 5716   0.743   0.455   9.468 -0.5787  0.1600 -0.2954
  784MOL0     C 5717   0.883   0.521   9.438  0.4025  0.1227  0.3627
  784MOL0     C 5718   0.876   0.568   9.294 -0.7172  0.4211  0.4338
  784MOL0     C 5719   0.994   0.653   9.248 -0.1383  0.9284  0.3478
  784MOL0     C 5720   1.128   0.581   9.246  0.0268  0.1290 -0.4354
  784MOL0     C 5721   1.216   0.638   9.133  0.5580  0.1119 -0.9014
  784MOL0     N 5722   1.351   0.579   9.133 -0.4753  0.3464  0.8450
  784MOL0     C 5723   1.387   0.462   9.075 -0.3452  0.2284  0.3210
  784MOL0     C 5724   1.515   0.442   9.110  0.2341  0.3579 -0.6067
  784MOL0     C 5725   1.613   0.332   9.076  0.0912  0.1700 -0.7303
  784MOL0     C 5726   1.757   0.399   9.087  0.1881 -0.3056 -0.3818
  784MOL0     C 5727   1.817   0.423   9.232 -0.1500  0.2262 -0.2134
  784MOL0     C 5728   1.929   0.328   9.270  1.3347  0.7068  0.1988
  784MOL0     O 5729   1.925   0.288   9.404  0.4085 -1.0143 -0.2965
  784MOL0     C 5730   2.047   0.232   9.442  0.4058 -0.4925  0.2595
  784MOL0     C 5731   2.093   0.109   9.394 -0.1010  0.5024  0.0019
  784MOL0     C 5732   2.214   0.057   9.453  0.4436 -0.6319  0.6336
  784MOL0     C 5733   2.296   0.130   9.545  0.4307  0.4328  0.4684
  784MOL0     C 5734   2.407   0.070   9.616 -0.8551  1.5280 -0.1515
  784MOL0     O 5735   2.453   0.121   9.730 -0.2523  0.7571 -0.2587
  784MOL0     C 5736   2.571   0.074   9.779  0.2018  0.8952  0.5316
  784MOL0     C 5737   2.597  -0.064   9.813 -0.0589 -0.7145  0.5059
  784MOL0     C 5738   2.734  -0.112   9.813 -0.2484  0.1376 -0.5442
  784MOL0     C 5739   2.842  -0.027   9.803 -0.0808 -0.5426  0.5103
  784MOL0     O 5740   2.971  -0.064   9.798  0.5953  0.8801 -0.0583
  784MOL0     C 5741   3.011  -0.178   9.872  0.1920  0.3767 -0.7256
  784MOL0     C 5742   3.157  -0.196   9.834  0.7610  0.3416 -0.2834
  784MOL0     C 5743   3.248  -0.070   9.859  0.4921  0.5379  0.2216
  784MOL0     C 5744   3.396  -0.107   9.844  0.0388  0.1915 -0.8179
  784MOL0     C 5745   3.486   0.010   9.881 -0.0708  0.3837 -0.8625
  784MOL0     C 5746   3.634  -0.003   9.832 -0.2174 -0.1634  0.1416
  784MOL0     C 5747   3.732   0.098   9.897  0.3417  0.3059 -0.6235
  784MOL0     C 5748   3.871   0.112   9.832 -0.8367 -0.7325 -0.4741
  784MOL0    Cl 5749   3.983  -0.025   9.839  0.0380 -0.1517 -0.0954
  784MOL0     C 5750   2.815   0.106   9.772  0.7189  0.1851  0.1370
  784MOL0     C 5751   2.681   0.155   9.762 -0.0724 -0.5657 -0.0918
  784MOL0     O 5752   2.450  -0.036   9.571 -0.9049  0.1361  0.4385
  784MOL0     C 5753   2.255   0.263   9.571 -0.2373 -1.1417 -0.6337
  784MOL0     C 5754   2.135   0.316   9.512  0.2350 -0.4641 -0.8649
  784MOL0     N 5755   1.556   0.547   9.194  1.2086 -0.5616  0.8637
  784MOL0     N 5756   1.458   0.633   9.202  0.7162 -0.8196  0.0732
  784MOL0     C 5757   0.317   0.579   9.495  0.2266 -0.4965 -0.8352
  784MOL0     C 5758   0.217   0.680   9.494 -0.2252 -0.3018  0.9262
  784MOL0     C 5759   0.022   1.090   9.626  0.3201 -0.2544  0.3839
  784MOL0     C 5760  -0.097   1.063   9.556  0.3358  0.4719  0.3944
  784MOL0     C 5761  -0.197   1.163   9.534  0.0286 -0.5968 -0.3596
  784MOL0     C 5762  -0.173   1.296   9.568  0.8361 -0.6791  0.2416
  784MOL0     O 5763  -0.256   1.394   9.537  0.9443  0.0671 -0.1887
  784MOL0     C 5764  -0.360   1.434   9.633  0.8964  0.5497  0.1414
  784MOL0     C 5765  -0.439   1.557   9.586  0.7924  0.7734 -0.6167
  784MOL0     C 5766  -0.523   1.615   9.702 -0.1108  0.3808  0.3572
  784MOL0     C 5767  -0.657   1.543   9.729  0.3215  0.7774 -0.0924
  784MOL0     C 5768  -0.749   1.616   9.826  0.3042 -0.2658  0.3576
  784MOL0     C 5769  -0.818   1.682   9.906  0.1924  0.1590  0.7015
  784MOL0     C 5770  -0.061   1.314   9.640  1.1513 -0.9169 -0.7403
  784MOL0     C 5771   0.035   1.214   9.678  0.0132 -1.2001 -0.0304
  784MOL0     C 5772   0.140   1.258   9.773  0.2060  0.0655  0.2458
  784MOL0     H 5773   0.237   0.804   9.807 -0.6273 -1.1993  2.0431
  784MOL0     H 5774   0.428   0.641   9.818 -2.2786 -0.7038  1.6205
  784MOL0     H 5775   0.650   0.624   9.642 -0.4384  0.4889  1.8681
  784MOL0     H 5776   0.618   0.512   9.781  1.7384  1.0549  0.9098
  784MOL0     H 5777   0.672   0.325   9.627 -1.3012  1.1242  0.2512
  784MOL0     H 5778   0.820   0.413   9.669  1.2244  0.1711  0.3958
  784MOL0     H 5779   0.663   0.524   9.439 -0.2702 -0.1903 -2.0993
  784MOL0     H 5780   0.731   0.370   9.400 -0.2873  1.1339 -1.6270
  784MOL0     H 5781   0.907   0.606   9.502 -3.8671  2.4520 -0.7427
  784MOL0     H 5782   0.960   0.443   9.447  0.5827  0.3112  0.4601
  784MOL0     H 5783   0.879   0.485   9.223  2.3349  3.6385 -3.7340
  784MOL0     H 5784   0.791   0.635   9.279 -1.0423  0.2199  1.3025
  784MOL0     H 5785   0.979   0.700   9.150 -1.0818 -2.0014 -1.0209
  784MOL0     H 5786   1.001   0.736   9.319  0.2825 -0.8906  2.5537
  784MOL0     H 5787   1.124   0.475   9.218  2.9037 -0.4377  0.8967
  784MOL0     H 5788   1.163   0.577   9.349 -3.8883 -1.7378  0.9881
  784MOL0     H 5789   1.164   0.618   9.038  0.0150 -0.3584 -0.5121
  784MOL0     H 5790   1.227   0.747   9.133  1.5797  0.0228  0.1504
  784MOL0     H 5791   1.321   0.409   9.007 -3.8713  4.7545 -0.2365
  784MOL0     H 5792   1.610   0.242   9.137 -0.6909 -1.2210 -2.7217
  784MOL0     H 5793   1.588   0.296   8.975 -1.9348  2.2492 -1.0474
  784MOL0     H 5794   1.835   0.354   9.025 -0.1462 -0.1313 -0.9398
  784MOL0     H 5795   1.741   0.497   9.041 -2.4892 -0.8688 -0.7997
  784MOL0     H 5796   1.744   0.423   9.314  0.7038  4.7926  0.8737
  784MOL0     H 5797   1.864   0.522   9.232  1.5118 -0.5215  0.7465
  784MOL0     H 5798   2.026   0.373   9.250  0.7804  0.9027 -2.3590
  784MOL0     H 5799   1.929   0.243   9.201  1.0314 -0.9287  2.0943
  784MOL0     H 5800   2.028   0.041   9.341 -2.8728  0.3328  3.2476
  784MOL0     H 5801   2.233  -0.048   9.435  4.8726 -0.5394  3.2583
  784MOL0     H 5802   2.519  -0.139   9.816 -1.0707  0.1267 -2.0060
  784MOL0     H 5803   2.745  -0.218   9.830 -2.5878 -0.2185 -1.0277
  784MOL0     H 5804   2.990  -0.169   9.979  3.2044 -0.7932  0.0729
  784MOL0     H 5805   2.964  -0.274   9.849  0.4453 -0.1244  0.7139
  784MOL0     H 5806   3.194  -0.290   9.875 -4.4564 -2.2854 -0.6974
  784MOL0     H 5807   3.153  -0.214   9.726  0.9566 -0.5861 -0.1384
  784MOL0     H 5808   3.225   0.012   9.790  1.2545  1.0629  0.5794
  784MOL0     H 5809   3.231  -0.038   9.962  1.5913 -0.0791  0.6080
  784MOL0     H 5810   3.412  -0.124   9.737  0.3733 -1.7678 -0.4893
  784MOL0     H 5811   3.423  -0.197   9.900 -0.8711  0.0863 -0.5308
  784MOL0     H 5812   3.495   0.003   9.990 -1.4015  2.5913 -0.5401
  784MOL0     H 5813   3.432   0.105   9.867 -0.0612  0.8920  2.0082
  784MOL0     H 5814   3.664  -0.107   9.849 -1.6040 -0.3951  1.3745
  784MOL0     H 5815   3.634  -0.001   9.723  0.3352  0.8895  0.1475
  784MOL0     H 5816   3.747   0.077  10.003 -1.4893  0.0720 -0.3683
  784MOL0     H 5817   3.694   0.200   9.907 -0.1553 -0.0637  2.2966
  784MOL0     H 5818   3.841   0.134   9.730 -0.4957  3.1734  0.0857
  784MOL0     H 5819   3.920   0.203   9.868 -0.2755  0.0054 -2.9195
  784MOL0     H 5820   2.905   0.161   9.748  1.7421 -1.9658 -1.2763
  784MOL0     H 5821   2.663   0.256   9.726 -2.6326 -0.8299  0.2477
  784MOL0     H 5822   2.309   0.315   9.650 -1.9380 -2.8490  1.8105
  784MOL0     H 5823   2.106   0.419   9.527 -1.8408 -1.3372  2.0425
  784MOL0     H 5824   0.336   0.515   9.409  1.9252 -0.1918 -0.7354
  784MOL0     H 5825   0.163   0.705   9.403 -0.7417 -0.1475  1.2681
  784MOL0     H 5826  -0.105   0.960   9.523 -1.8006  1.3306 -2.1143
  784MOL0     H 5827  -0.285   1.142   9.473 -0.9350  1.8493  0.1040
  784MOL0     H 5828  -0.308   1.457   9.727  1.0678 -1.8829  0.6929
  784MOL0     H 5829  -0.435   1.356   9.647  1.1990  0.2895  0.3038
  784MOL0     H 5830  -0.507   1.527   9.506  0.9813  0.6887 -0.7441
  784MOL0     H 5831  -0.365   1.631   9.556 -0.2195  1.9295 -0.3518
  784MOL0     H 5832  -0.555   1.714   9.668  2.2237  0.1322 -3.1535
  784MOL0     H 5833  -0.452   1.617   9.785  1.6006 -2.7511 -0.8637
  784MOL0     H 5834  -0.709   1.522   9.635  0.1732 -1.4871  0.4466
  784MOL0     H 5835  -0.638   1.448   9.778 -1.5882 -0.4831 -1.6615
  784MOL0     H 5836  -0.866   1.751   9.973  0.2728  1.4508 -0.5276
  784MOL0     H 5837  -0.025   1.412   9.670  0.4336 -0.9422  0.2560
  784MOL0     H 5838   0.139   1.189   9.858 -0.9697 -2.0262 -1.3620
  784MOL0     H 5839   0.239   1.249   9.727  0.3679 -1.7143  0.8549
  784MOL0     H 5840   0.124   1.362   9.803 -1.1576 -0.1919  0.4605
  785MOL0     O 5841  10.987   0.212   1.192  0.1737  0.1517 -0.3253
  785MOL0     C 5842  10.979   0.093   1.164  0.5464  0.5446 -0.5252
  785MOL0     O 5843  11.080   0.001   1.184 -0.1152  0.3395 -0.6169
  785MOL0     C 5844  11.212   0.019   1.210  1.1536 -0.5391  0.1099
  785MOL0     C 5845  11.266   0.131   1.264 -0.6603  0.3015  0.0684
  785MOL0     C 5846  11.400   0.136   1.304 -0.4813  0.3958  0.3680
  785MOL0     C 5847  11.483   0.025   1.275 -0.1293  0.3008 -0.0487
  785MOL0     O 5848  11.617   0.017   1.319  0.1336 -0.2372 -0.7159
  785MOL0     C 5849  11.707   0.045   1.214  0.2546 -0.0933  0.2802
  785MOL0     C 5850  11.749   0.193   1.227 -0.2744  0.4384 -0.2001
  785MOL0     C 5851  11.834   0.228   1.353  1.5082  0.8553 -0.0947
  785MOL0     C 5852  11.972   0.179   1.338 -0.0557  0.9353 -0.1454
  785MOL0     C 5853  12.067   0.280   1.412 -0.3923 -0.1659 -0.2617
  785MOL0     C 5854  12.096   0.402   1.338 -0.2433 -0.0177  0.8267
  785MOL0     C 5855  12.184   0.496   1.415  0.8692  0.7101 -0.3761
  785MOL0     C 5856  12.240   0.617   1.337  0.3098 -0.8324  0.4407
  785MOL0     N 5857  12.135   0.694   1.273  0.9730  0.4501 -0.1237
  785MOL0     C 5858  12.035   0.754   1.349 -0.0837  0.2076  0.8125
  785MOL0     C 5859  11.945   0.791   1.259  0.6488  0.0576 -0.8482
  785MOL0     C 5860  11.808   0.850   1.304 -0.5899  0.7157  0.4968
  785MOL0     C 5861  11.707   0.737   1.309  0.1608  0.6907  0.4848
  785MOL0     C 5862  11.666   0.696   1.168  0.9315  0.5243 -0.8293
  785MOL0     C 5863  11.595   0.559   1.170 -0.2167 -0.8547 -0.2532
  785MOL0     O 5864  11.495   0.540   1.279 -0.5118 -0.1892  0.5545
  785MOL0     C 5865  11.366   0.564   1.246 -0.2346 -0.4925 -0.2248
  785MOL0     C 5866  11.295   0.479   1.170 -0.1054 -0.3377  0.8027
  785MOL0     C 5867  11.176   0.505   1.110 -0.3490 -0.1129 -0.6757
  785MOL0     C 5868  11.104   0.618   1.147  0.1694  0.3138 -0.5859
  785MOL0     C 5869  10.966   0.644   1.104 -1.2408 -0.4079  0.7232
  785MOL0     O 5870  10.912   0.555   1.014  0.0494 -0.1143 -0.6809
  785MOL0     C 5871  10.780   0.566   0.977  0.6643  0.1866  0.4284
  785MOL0     C 5872  10.751   0.504   0.850 -0.0384 -0.9230 -0.4749
  785MOL0     C 5873  10.619   0.488   0.809  0.6255  0.1899  0.1598
  785MOL0     C 5874  10.513   0.549   0.877 -0.4535  0.4246  0.2567
  785MOL0     O 5875  10.391   0.529   0.832  0.8189 -0.0871  0.4470
  785MOL0     C 5876  10.357   0.625   0.723 -1.0187  0.4584 -0.1170
  785MOL0     C 5877  10.235   0.710   0.765  0.2501  0.5593  0.0922
  785MOL0     C 5878  10.108   0.624   0.726  0.4729 -0.0368  0.2067
  785MOL0     C 5879   9.983   0.706   0.732  0.7610 -0.1075  1.1316
  785MOL0     C 5880   9.855   0.636   0.684  0.0959  0.1381 -0.3952
  785MOL0     C 5881   9.739   0.738   0.675  0.0174 -0.0071  0.0608
  785MOL0     C 5882   9.689   0.768   0.814  0.4944  0.5991  0.1609
  785MOL0     C 5883   9.654   0.911   0.835  0.2625  0.2419  0.1235
  785MOL0    Cl 5884   9.784   1.019   0.820 -0.2788  0.5088  0.0024
  785MOL0     C 5885  10.537   0.615   0.993  0.6527 -1.1500  0.0453
  785MOL0     C 5886  10.671   0.630   1.044  0.4069 -0.8694  0.4485
  785MOL0     O 5887  10.913   0.745   1.141  0.8826 -0.0668 -0.3425
  785MOL0     C 5888  11.177   0.700   1.244  0.9123 -0.2614  0.1568
  785MOL0     C 5889  11.310   0.687   1.285 -0.9633  0.0248  0.4955
  785MOL0     N 5890  11.983   0.760   1.130 -1.3094  1.3627 -0.3323
  785MOL0     N 5891  12.089   0.685   1.145 -0.1639 -0.0642 -0.2532
  785MOL0     C 5892  11.435  -0.087   1.209 -0.0582 -0.9009 -1.1516
  785MOL0     C 5893  11.297  -0.088   1.177 -0.5071 -0.6553 -0.8586
  785MOL0     C 5894  10.846   0.021   1.134 -0.0381 -0.5883 -0.0638
  785MOL0     C 5895  10.840  -0.119   1.148  0.5998  0.3236  0.1609
  785MOL0     C 5896  10.727  -0.190   1.138 -0.1735  0.1111 -0.6643
  785MOL0     C 5897  10.607  -0.122   1.114 -0.0720 -0.4344 -0.6010
  785MOL0     O 5898  10.482  -0.185   1.119 -0.4814  0.1568  0.0990
  785MOL0     C 5899  10.481  -0.322   1.167  0.8153 -0.1621 -0.0641
  785MOL0     C 5900  10.325  -0.358   1.184 -0.2318 -0.2829 -0.3946
  785MOL0     C 5901  10.312  -0.513   1.180 -0.6049  0.7222  0.9255
  785MOL0     C 5902  10.167  -0.556   1.215  1.1136 -0.7180 -0.2766
  785MOL0     C 5903  10.151  -0.700   1.212 -0.8385 -0.0255  0.8838
  785MOL0     C 5904  10.126  -0.818   1.226 -0.5564  0.6267  0.6849
  785MOL0     C 5905  10.607   0.012   1.075  0.0608 -0.1766 -0.7061
  785MOL0     C 5906  10.727   0.086   1.085 -0.6052  0.5705  0.1068
  785MOL0     C 5907  10.731   0.229   1.040  0.1362  1.0624 -0.2276
  785MOL0     H 5908  11.211   0.219   1.296  3.6356  4.2100 -2.0729
  785MOL0     H 5909  11.454   0.215   1.356  1.2828 -1.4628  1.5061
  785MOL0     H 5910  11.795  -0.019   1.207  0.7978  0.5274  1.2051
  785MOL0     H 5911  11.658   0.034   1.117 -0.5205  1.6146  0.4368
  785MOL0     H 5912  11.660   0.254   1.240 -0.7595 -0.5260  1.2674
  785MOL0     H 5913  11.811   0.214   1.139  1.9289  2.1069  1.6229
  785MOL0     H 5914  11.790   0.180   1.441 -1.6052  1.1760 -1.3490
  785MOL0     H 5915  11.828   0.333   1.381  3.0871  0.6533  1.1371
  785MOL0     H 5916  11.966   0.076   1.374 -1.7970  1.2055  0.3998
  785MOL0     H 5917  12.006   0.174   1.234 -1.0525 -1.6683 -0.4044
  785MOL0     H 5918  12.009   0.304   1.502  2.0788 -2.0114  1.9971
  785MOL0     H 5919  12.166   0.238   1.433  1.1279  2.1401 -2.2727
  785MOL0     H 5920  12.133   0.377   1.238 -0.2624 -3.6544  1.5627
  785MOL0     H 5921  12.003   0.453   1.313  1.6898  3.6460  0.3960
  785MOL0     H 5922  12.273   0.438   1.442  1.5072  0.2636 -3.1934
  785MOL0     H 5923  12.131   0.540   1.500 -1.3839  2.3847 -2.5078
  785MOL0     H 5924  12.287   0.690   1.404  0.4284  1.0655 -1.5729
  785MOL0     H 5925  12.326   0.586   1.277 -1.1197 -1.2793 -1.5216
  785MOL0     H 5926  12.029   0.760   1.457 -2.3949 -1.6762  0.8738
  785MOL0     H 5927  11.825   0.908   1.395  1.1618 -0.0392  0.6817
  785MOL0     H 5928  11.772   0.912   1.221 -0.1711  0.7497  0.3416
  785MOL0     H 5929  11.757   0.652   1.357 -0.1568 -0.4026 -1.0533
  785MOL0     H 5930  11.625   0.777   1.369 -0.3718  2.5313 -1.3312
  785MOL0     H 5931  11.753   0.689   1.102  1.0885  2.6070 -0.9223
  785MOL0     H 5932  11.594   0.769   1.130 -1.8821 -2.3619 -1.4812
  785MOL0     H 5933  11.675   0.489   1.193  1.2262  0.6677 -0.4507
  785MOL0     H 5934  11.552   0.557   1.070  0.5662  1.4527 -0.7004
  785MOL0     H 5935  11.345   0.387   1.142  1.0970  1.0493 -1.9965
  785MOL0     H 5936  11.124   0.437   1.044 -2.1992  0.4485  0.1300
  785MOL0     H 5937  10.840   0.480   0.792  0.7210  0.4570  0.0875
  785MOL0     H 5938  10.596   0.414   0.732 -0.7567 -2.2332  2.7266
  785MOL0     H 5939  10.436   0.699   0.709 -0.5567 -0.2555 -1.5106
  785MOL0     H 5940  10.354   0.574   0.626  6.7465  0.4704 -0.9871
  785MOL0     H 5941  10.236   0.726   0.873 -1.2337 -2.7862  0.7173
  785MOL0     H 5942  10.234   0.806   0.712 -2.3794  1.1177  0.9978
  785MOL0     H 5943  10.111   0.584   0.625 -0.0700  0.0039  0.1704
  785MOL0     H 5944  10.110   0.544   0.800  2.2699  1.5902  2.0547
  785MOL0     H 5945  10.001   0.792   0.666 -2.0253 -1.4899 -1.6995
  785MOL0     H 5946   9.967   0.748   0.832  0.2230  3.8106 -0.4003
  785MOL0     H 5947   9.825   0.553   0.748  1.9870 -0.4170 -0.1761
  785MOL0     H 5948   9.870   0.595   0.583 -0.4413 -0.1872 -0.3492
  785MOL0     H 5949   9.772   0.831   0.627  2.0473 -0.9585 -0.5046
  785MOL0     H 5950   9.659   0.702   0.609  0.6574  0.6104 -1.0894
  785MOL0     H 5951   9.763   0.737   0.888  1.3582  4.1799  0.9926
  785MOL0     H 5952   9.591   0.721   0.826 -0.1581  1.5926 -1.0001
  785MOL0     H 5953   9.579   0.926   0.756 -1.0831 -0.7429  1.1697
  785MOL0     H 5954   9.606   0.932   0.931  1.1796  4.2143 -0.1204
  785MOL0     H 5955  10.465   0.666   1.056  2.4138 -0.4503  1.6196
  785MOL0     H 5956  10.672   0.707   1.121  3.2679 -0.1241 -0.2008
  785MOL0     H 5957  11.125   0.792   1.268 -1.0026 -0.7465 -1.8067
  785MOL0     H 5958  11.365   0.755   1.349  0.6476  1.3225 -2.0712
  785MOL0     H 5959  11.501  -0.171   1.187  0.5777 -0.4037 -1.1972
  785MOL0     H 5960  11.251  -0.174   1.131  0.0767 -1.1708 -0.4834
  785MOL0     H 5961  10.928  -0.180   1.168  1.8733  0.9434 -2.8601
  785MOL0     H 5962  10.735  -0.298   1.143  5.7881  0.1040 -2.7028
  785MOL0     H 5963  10.536  -0.336   1.261  1.8836  5.2549  0.4885
  785MOL0     H 5964  10.524  -0.390   1.093  1.7236  3.6249 -3.4062
  785MOL0     H 5965  10.266  -0.305   1.109  1.4286  4.4250  1.2614
  785MOL0     H 5966  10.291  -0.303   1.273 -2.3596 -0.2764 -1.1510
  785MOL0     H 5967  10.385  -0.560   1.247  1.8209 -0.8271 -2.4976
  785MOL0     H 5968  10.323  -0.543   1.076 -3.0784 -1.6002  1.2170
  785MOL0     H 5969  10.134  -0.524   1.314 -2.1192 -1.1088 -1.1215
  785MOL0     H 5970  10.098  -0.508   1.145  0.0338 -0.5823  0.8643
  785MOL0     H 5971  10.085  -0.917   1.226 -2.1285  1.2274 -0.5829
  785MOL0     H 5972  10.518   0.072   1.058 -0.5889 -0.2420  1.9976
  785MOL0     H 5973  10.698   0.237   0.936 -0.9778 -1.0368 -0.1009
  785MOL0     H 5974  10.667   0.285   1.108 -2.2562 -1.4214 -0.2644
  785MOL0     H 5975  10.833   0.269   1.031  0.0779  1.2339 -0.1293
  786MOL0     O 5976   9.699   8.007   8.156 -0.1436 -0.3890 -0.1403
  786MOL0     C 5977   9.763   8.108   8.178  0.3884 -0.7350  0.5241
  786MOL0     O 5978   9.784   8.198   8.082 -0.6777 -0.3136  0.6505
  786MOL0     C 5979   9.756   8.168   7.950  0.0811  0.7152 -0.6721
  786MOL0     C 5980   9.867   8.141   7.872 -0.0653  0.3380  0.9261
  786MOL0     C 5981   9.853   8.123   7.735  1.0829  0.7458  0.0244
  786MOL0     C 5982   9.722   8.114   7.679 -0.2439 -0.1560  0.4743
  786MOL0     O 5983   9.715   8.083   7.547  0.2871 -0.0762 -1.0692
  786MOL0     C 5984   9.600   8.031   7.491 -0.1969 -0.3056 -0.1538
  786MOL0     C 5985   9.641   7.972   7.356 -0.2014 -0.1824 -0.9287
  786MOL0     C 5986   9.536   7.950   7.252  0.8202 -1.2671  0.4595
  786MOL0     C 5987   9.576   7.852   7.137  0.6112  0.1318 -0.9732
  786MOL0     C 5988   9.681   7.927   7.054  0.5512  0.1285  0.6987
  786MOL0     C 5989   9.713   7.847   6.930 -0.5335 -1.1277  0.5687
  786MOL0     C 5990   9.812   7.918   6.838 -0.2848  0.2465  0.0145
  786MOL0     C 5991   9.837   7.841   6.705  0.7387  0.2074  0.0841
  786MOL0     N 5992   9.941   7.734   6.720 -0.0744  0.3228  0.8062
  786MOL0     C 5993  10.024   7.683   6.617 -0.2760 -0.1701 -0.3916
  786MOL0     C 5994  10.095   7.589   6.680  0.0697  0.4859 -0.7189
  786MOL0     C 5995  10.200   7.488   6.617 -0.0227  0.4435  0.3407
  786MOL0     C 5996  10.322   7.557   6.552 -0.0542 -0.3280  0.5336
  786MOL0     C 5997  10.424   7.448   6.513  0.4200 -0.6604 -0.9167
  786MOL0     C 5998  10.557   7.496   6.450 -1.0148  0.5473 -1.2749
  786MOL0     O 5999  10.540   7.539   6.316 -0.2957 -0.5769  0.8076
  786MOL0     C 6000  10.651   7.540   6.226 -0.3688  0.8515  0.0493
  786MOL0     C 6001  10.615   7.543   6.085  0.4664  1.1281  0.1211
  786MOL0     C 6002  10.714   7.540   5.989  0.1941  1.1588  0.8584
  786MOL0     C 6003  10.849   7.545   6.027 -0.1086  0.1073 -0.4308
  786MOL0     C 6004  10.961   7.543   5.926  0.9528  0.2534 -0.5053
  786MOL0     O 6005  11.092   7.542   5.985  0.2788  0.1505  0.7577
  786MOL0     C 6006  11.184   7.556   5.891 -0.3023 -0.1247  0.7076
  786MOL0     C 6007  11.233   7.448   5.818  0.9610 -1.5137  0.4861
  786MOL0     C 6008  11.338   7.475   5.729 -0.4107 -0.8149 -0.8171
  786MOL0     C 6009  11.406   7.602   5.727  0.5236  0.8824 -0.1698
  786MOL0     O 6010  11.490   7.625   5.623  0.0105  0.0736 -0.7202
  786MOL0     C 6011  11.631   7.624   5.652  0.5972  0.1991  0.4795
  786MOL0     C 6012  11.690   7.484   5.640  0.3590  0.3597  0.3876
  786MOL0     C 6013  11.842   7.482   5.676 -0.5498  0.2838  1.0160
  786MOL0     C 6014  11.857   7.457   5.826  0.0945 -0.7248 -0.3734
  786MOL0     C 6015  11.996   7.436   5.889 -0.4935  0.4722 -0.1355
  786MOL0     C 6016  12.093   7.349   5.806 -0.2401  0.1319  0.6867
  786MOL0     C 6017  12.057   7.203   5.810  0.8440 -0.0719  0.2739
  786MOL0     C 6018  12.156   7.119   5.730 -0.4277 -0.5428  0.4316
  786MOL0    Cl 6019  12.226   7.181   5.579 -0.2385 -0.2009  0.7536
  786MOL0     C 6020  11.355   7.704   5.808  0.2954  0.0602  0.4896
  786MOL0     C 6021  11.243   7.686   5.885  0.3345  1.3092 -0.1262
  786MOL0     O 6022  10.937   7.519   5.807 -0.0513  0.1412 -0.7367
  786MOL0     C 6023  10.884   7.556   6.165 -0.1171  0.0472  1.0979
  786MOL0     C 6024  10.783   7.561   6.262 -0.5350  0.1759 -0.5096
  786MOL0     N 6025  10.059   7.581   6.811  0.2566 -0.5998 -0.2448
  786MOL0     N 6026   9.966   7.673   6.833 -0.6718 -0.8099 -0.7372
  786MOL0     C 6027   9.613   8.130   7.760 -0.0555 -0.1255 -0.5167
  786MOL0     C 6028   9.629   8.167   7.898 -0.8077 -0.5306  0.1664
  786MOL0     C 6029   9.826   8.128   8.308  1.4507  1.1344  0.9999
  786MOL0     C 6030   9.740   8.170   8.409  0.5074 -0.4759 -0.1625
  786MOL0     C 6031   9.788   8.169   8.542 -0.0812 -1.0944  0.0505
  786MOL0     C 6032   9.919   8.141   8.573 -0.4641  0.3656 -0.0752
  786MOL0     O 6033   9.955   8.175   8.704  0.2288  0.0541  0.5251
  786MOL0     C 6034  10.058   8.102   8.766  0.3663 -0.4987 -1.0109
  786MOL0     C 6035  10.200   8.140   8.738 -0.4851  1.3678 -0.0913
  786MOL0     C 6036  10.227   8.292   8.731  0.1632 -0.4824  0.0763
  786MOL0     C 6037  10.201   8.361   8.866  0.4631  0.1782  0.0883
  786MOL0     C 6038  10.274   8.305   8.977 -0.6726 -0.3805 -0.4949
  786MOL0     C 6039  10.326   8.257   9.076 -0.0111  0.0917  0.4548
  786MOL0     C 6040  10.006   8.113   8.464  0.1428 -0.3212 -0.2490
  786MOL0     C 6041   9.959   8.110   8.333  0.3159 -0.0421  0.5964
  786MOL0     C 6042  10.066   8.087   8.221  0.2455 -1.0066  0.0972
  786MOL0     H 6043   9.966   8.153   7.916  0.3650  2.9769 -0.5704
  786MOL0     H 6044   9.935   8.116   7.664  0.8310 -0.8599 -0.1538
  786MOL0     H 6045   9.558   7.961   7.564  2.1549 -1.1160  0.5142
  786MOL0     H 6046   9.526   8.111   7.480  1.6039  1.1748 -2.3424
  786MOL0     H 6047   9.701   7.883   7.375  0.2717  0.8125  3.2448
  786MOL0     H 6048   9.710   8.048   7.319  0.2634 -0.1107  0.0510
  786MOL0     H 6049   9.509   8.050   7.217  1.9458 -1.6366 -1.6854
  786MOL0     H 6050   9.454   7.904   7.308 -0.5704  0.0102 -0.4422
  786MOL0     H 6051   9.608   7.760   7.186 -0.8565  0.3889  0.5809
  786MOL0     H 6052   9.488   7.835   7.073  0.8543  1.8990 -1.8232
  786MOL0     H 6053   9.636   8.026   7.038 -0.5863 -0.0867  2.3334
  786MOL0     H 6054   9.770   7.953   7.111 -0.1513  1.1373  1.3772
  786MOL0     H 6055   9.761   7.759   6.973 -2.7427 -2.1555  1.0650
  786MOL0     H 6056   9.621   7.827   6.875 -1.8496  2.4287  1.1990
  786MOL0     H 6057   9.905   7.949   6.886  0.3107 -1.7862  0.2721
  786MOL0     H 6058   9.773   8.017   6.812  0.4815  0.9564  1.4448
  786MOL0     H 6059   9.748   7.800   6.657  0.9093  0.5036 -0.5060
  786MOL0     H 6060   9.878   7.904   6.625  1.1647 -1.4242 -1.0365
  786MOL0     H 6061  10.054   7.710   6.517  2.6590  0.5069  0.5641
  786MOL0     H 6062  10.224   7.408   6.688 -1.4691 -1.0602 -0.7786
  786MOL0     H 6063  10.152   7.435   6.534 -1.6734  0.1091  1.4503
  786MOL0     H 6064  10.272   7.607   6.468 -1.0476 -0.4563  1.0316
  786MOL0     H 6065  10.367   7.624   6.625  3.5743 -2.8353  0.8458
  786MOL0     H 6066  10.378   7.371   6.449 -2.7243 -0.2689  0.6934
  786MOL0     H 6067  10.449   7.396   6.606  0.7596  2.6083  0.9391
  786MOL0     H 6068  10.618   7.406   6.457  0.5806  1.6612  0.3823
  786MOL0     H 6069  10.596   7.572   6.519 -6.3008  1.0590  1.6738
  786MOL0     H 6070  10.514   7.551   6.046  0.7904  1.7945 -0.6235
  786MOL0     H 6071  10.687   7.529   5.884  0.0673  1.5507  0.8486
  786MOL0     H 6072  11.197   7.347   5.806  1.9152 -2.0497  1.8808
  786MOL0     H 6073  11.372   7.404   5.654  2.2361  0.0814 -0.5764
  786MOL0     H 6074  11.689   7.697   5.595  0.8194  0.9436  1.6370
  786MOL0     H 6075  11.636   7.651   5.758  1.5831 -0.7500  0.6917
  786MOL0     H 6076  11.639   7.411   5.703  1.0936 -0.5184 -0.0219
  786MOL0     H 6077  11.682   7.445   5.539  2.0131 -1.6560  0.9719
  786MOL0     H 6078  11.894   7.403   5.621  0.0751 -0.2387  2.3310
  786MOL0     H 6079  11.891   7.574   5.641  0.7689 -1.3735 -1.8254
  786MOL0     H 6080  11.802   7.365   5.850  1.3910 -1.6352 -0.7468
  786MOL0     H 6081  11.808   7.543   5.874  0.3232 -0.2656 -0.9627
  786MOL0     H 6082  11.975   7.402   5.991 -1.6987 -0.4028 -0.6517
  786MOL0     H 6083  12.041   7.536   5.895  2.8657 -0.8315 -0.9996
  786MOL0     H 6084  12.088   7.388   5.704 -0.3766 -0.1020  0.6014
  786MOL0     H 6085  12.198   7.353   5.835  0.3428 -2.0626 -0.8331
  786MOL0     H 6086  11.958   7.196   5.764  1.2170 -1.9217 -0.3092
  786MOL0     H 6087  12.049   7.167   5.912 -3.5689  0.1682  0.2089
  786MOL0     H 6088  12.242   7.087   5.790  0.9426 -1.7289 -2.0019
  786MOL0     H 6089  12.098   7.032   5.698 -1.0590  0.3054 -0.8204
  786MOL0     H 6090  11.394   7.805   5.809  0.6626 -0.0794  0.4613
  786MOL0     H 6091  11.195   7.766   5.941 -2.2501 -0.5930  0.6073
  786MOL0     H 6092  10.982   7.547   6.210  0.4608 -1.9415 -0.4649
  786MOL0     H 6093  10.811   7.570   6.366 -0.2852 -1.3042 -0.4262
  786MOL0     H 6094   9.515   8.107   7.719 -1.8955  2.9788  1.7319
  786MOL0     H 6095   9.538   8.195   7.951 -1.4127 -1.7668 -0.1681
  786MOL0     H 6096   9.638   8.197   8.386 -0.2874 -1.6585  1.7869
  786MOL0     H 6097   9.716   8.213   8.611 -0.4225  1.1823 -1.6525
  786MOL0     H 6098  10.045   7.997   8.738 -0.2647 -1.5096  2.5318
  786MOL0     H 6099  10.048   8.089   8.874  2.4928 -3.7715 -1.0658
  786MOL0     H 6100  10.209   8.087   8.643 -0.5100  1.7473 -0.3077
  786MOL0     H 6101  10.264   8.093   8.814  0.9283  2.1504 -0.7527
  786MOL0     H 6102  10.161   8.325   8.650 -1.7794 -0.1015  1.7273
  786MOL0     H 6103  10.331   8.315   8.707 -0.3040  0.7968 -0.8549
  786MOL0     H 6104  10.222   8.467   8.853 -0.4134  0.3012 -0.4854
  786MOL0     H 6105  10.093   8.354   8.886  0.1494  2.7494 -0.3956
  786MOL0     H 6106  10.380   8.226   9.162 -0.8410  0.1452  1.0032
  786MOL0     H 6107  10.113   8.111   8.486  0.0090 -0.0828  0.4506
  786MOL0     H 6108  10.167   8.076   8.260  2.6042  3.4580 -3.7294
  786MOL0     H 6109  10.036   8.003   8.157  1.0939 -0.3090 -1.2642
  786MOL0     H 6110  10.065   8.183   8.168 -3.4396 -1.1455 -0.3726
  787MOL0     O 6111  10.923   3.051   3.808  0.1180 -0.2928 -0.1417
  787MOL0     C 6112  10.995   3.060   3.902  0.1809 -0.0376 -0.8659
  787MOL0     O 6113  10.997   2.966   4.005  0.1758 -0.2837 -0.1700
  787MOL0     C 6114  10.936   2.844   3.976 -0.4380 -0.4924  0.4149
  787MOL0     C 6115  11.010   2.744   3.924  0.3944  0.1142  1.1528
  787MOL0     C 6116  10.936   2.627   3.889 -0.3439  0.1619 -0.2257
  787MOL0     C 6117  10.800   2.608   3.895 -0.3023  0.1967 -0.1555
  787MOL0     O 6118  10.754   2.483   3.852 -0.1225 -0.5909  0.4475
  787MOL0     C 6119  10.616   2.476   3.837  0.7857  0.1274 -0.9383
  787MOL0     C 6120  10.583   2.326   3.794 -0.1971 -0.9333 -0.8003
  787MOL0     C 6121  10.618   2.220   3.894  0.3128  0.3779 -0.6664
  787MOL0     C 6122  10.554   2.248   4.035 -0.7972 -0.0713  0.2787
  787MOL0     C 6123  10.449   2.133   4.063 -0.2299  0.3874 -0.0121
  787MOL0     C 6124  10.388   2.128   4.205 -0.9980 -0.3669  0.4386
  787MOL0     C 6125  10.303   2.001   4.227  0.1561  0.1951  0.5529
  787MOL0     C 6126  10.264   1.969   4.373  1.0886 -0.1950  0.2136
  787MOL0     N 6127  10.119   1.966   4.388  1.0982 -0.2482  0.1257
  787MOL0     C 6128  10.024   2.069   4.386 -0.2861 -0.1817 -0.2540
  787MOL0     C 6129   9.896   2.008   4.386 -0.9092  0.7366  0.4792
  787MOL0     C 6130   9.768   2.083   4.350 -0.3750 -0.2840  0.6049
  787MOL0     C 6131   9.639   2.049   4.426  0.2975 -0.9398 -0.8711
  787MOL0     C 6132   9.521   2.139   4.380  1.3397  0.7910  0.3718
  787MOL0     C 6133   9.380   2.130   4.450 -0.1075  0.1662  0.0503
  787MOL0     O 6134   9.323   2.001   4.421 -0.1872  0.5874  0.6475
  787MOL0     C 6135   9.213   1.952   4.476  0.9537  1.0823 -0.4740
  787MOL0     C 6136   9.173   1.821   4.449  0.0456  0.2188 -1.1491
  787MOL0     C 6137   9.078   1.757   4.523  0.1933 -0.1532  0.0633
  787MOL0     C 6138   9.009   1.821   4.622  0.0419  1.4181  0.1316
  787MOL0     C 6139   8.906   1.753   4.707  0.3354  0.3257  0.0441
  787MOL0     O 6140   8.858   1.811   4.822 -0.1073  0.1662 -0.1498
  787MOL0     C 6141   8.758   1.765   4.907  0.4777 -0.1505 -0.0731
  787MOL0     C 6142   8.690   1.641   4.889 -0.5819 -0.3677  0.1449
  787MOL0     C 6143   8.599   1.598   4.987  0.1516 -0.7495 -0.6861
  787MOL0     C 6144   8.572   1.672   5.106 -0.2197  0.3106 -2.0967
  787MOL0     O 6145   8.486   1.628   5.202  0.1420 -0.5038  0.5751
  787MOL0     C 6146   8.368   1.570   5.153 -0.4803  0.5013  0.0620
  787MOL0     C 6147   8.274   1.505   5.257 -1.3022  0.5152  0.5646
  787MOL0     C 6148   8.226   1.598   5.365  0.4228  0.1948 -0.9221
  787MOL0     C 6149   8.093   1.651   5.323 -0.2529 -0.4579  0.7499
  787MOL0     C 6150   8.045   1.784   5.396 -0.1797 -0.3941 -1.0588
  787MOL0     C 6151   7.894   1.805   5.377 -1.4756 -0.1273  0.6546
  787MOL0     C 6152   7.849   1.915   5.469  0.7646  0.4813  0.7185
  787MOL0     C 6153   7.705   1.946   5.438 -0.1382 -0.3236  0.3296
  787MOL0    Cl 6154   7.667   1.994   5.256 -0.3264  0.7177 -0.1523
  787MOL0     C 6155   8.640   1.793   5.127 -0.6112  0.2646  0.4430
  787MOL0     C 6156   8.724   1.843   5.020 -0.0726 -0.3609  0.6055
  787MOL0     O 6157   8.874   1.649   4.654 -0.1439  0.1148 -0.0382
  787MOL0     C 6158   9.044   1.948   4.642 -0.8733 -0.7952 -0.3720
  787MOL0     C 6159   9.148   2.016   4.576  0.8191 -0.0338 -0.0624
  787MOL0     N 6160   9.915   1.864   4.384 -1.7615 -0.8720 -0.0475
  787MOL0     N 6161  10.051   1.850   4.397  0.2789  0.2996  0.0007
  787MOL0     C 6162  10.732   2.710   3.960  0.4985  0.5627  0.8063
  787MOL0     C 6163  10.799   2.828   3.998 -0.2366  0.1302  0.2734
  787MOL0     C 6164  11.080   3.189   3.908  0.4416 -0.2141  0.2805
  787MOL0     C 6165  11.049   3.290   3.818  0.6019  0.1075  0.4116
  787MOL0     C 6166  11.144   3.394   3.808 -0.1396  0.1045  0.0782
  787MOL0     C 6167  11.258   3.403   3.888 -0.1837 -0.3353 -0.9114
  787MOL0     O 6168  11.338   3.517   3.880 -0.3486  0.5379 -0.3075
  787MOL0     C 6169  11.473   3.499   3.920  0.5998  0.0338  0.8847
  787MOL0     C 6170  11.579   3.531   3.816  0.1957 -0.0048 -0.0481
  787MOL0     C 6171  11.580   3.412   3.720  0.3978  0.5414 -0.2412
  787MOL0     C 6172  11.703   3.408   3.623 -0.0400 -0.2349 -0.4762
  787MOL0     C 6173  11.727   3.529   3.538  1.4702 -0.5660  0.2640
  787MOL0     C 6174  11.721   3.623   3.462 -0.8928  0.6396  0.0593
  787MOL0     C 6175  11.257   3.317   4.001 -0.3130  0.1013  0.7430
  787MOL0     C 6176  11.180   3.207   4.010  0.3156 -0.9395  0.0917
  787MOL0     C 6177  11.191   3.138   4.138  0.0130  0.3971  0.0060
  787MOL0     H 6178  11.118   2.747   3.914  0.2483 -1.0955 -2.3381
  787MOL0     H 6179  10.988   2.538   3.856 -1.1111 -0.7599  0.9487
  787MOL0     H 6180  10.570   2.495   3.934  0.9290 -0.3549 -0.7699
  787MOL0     H 6181  10.578   2.551   3.768  0.3197 -1.2982 -2.3055
  787MOL0     H 6182  10.640   2.300   3.704 -0.6600 -1.0089 -1.0737
  787MOL0     H 6183  10.475   2.321   3.782 -0.7572  2.2077  1.7215
  787MOL0     H 6184  10.727   2.223   3.905  0.2304 -1.2460  1.1223
  787MOL0     H 6185  10.602   2.121   3.853  0.2736 -0.0614  0.3694
  787MOL0     H 6186  10.631   2.221   4.108 -0.8028 -1.8071 -0.3221
  787MOL0     H 6187  10.523   2.350   4.062  0.5130  0.3915  0.0849
  787MOL0     H 6188  10.370   2.151   3.990 -1.8724  1.0531  1.8422
  787MOL0     H 6189  10.504   2.040   4.048  0.9988  0.9768  0.6812
  787MOL0     H 6190  10.471   2.133   4.276 -0.1613  1.5338 -0.6016
  787MOL0     H 6191  10.326   2.217   4.218  0.3934  0.6392  0.4588
  787MOL0     H 6192  10.360   1.916   4.188 -0.2464 -0.4076  1.2457
  787MOL0     H 6193  10.215   2.009   4.162  0.2453 -0.8592  0.2838
  787MOL0     H 6194  10.305   1.871   4.400  2.6248  0.1544 -0.7562
  787MOL0     H 6195  10.303   2.045   4.441  1.0064  1.6162 -1.6668
  787MOL0     H 6196  10.043   2.174   4.367 -0.7899 -0.3069 -1.5172
  787MOL0     H 6197   9.790   2.184   4.387  0.1367 -0.2735  0.2764
  787MOL0     H 6198   9.748   2.068   4.244 -0.2150  0.6277  0.4399
  787MOL0     H 6199   9.622   1.947   4.389 -0.8907 -0.1293 -2.6590
  787MOL0     H 6200   9.653   2.062   4.534  1.1947 -2.7370 -0.7271
  787MOL0     H 6201   9.508   2.107   4.277  1.2838  1.3437  0.2066
  787MOL0     H 6202   9.554   2.243   4.378  2.1434  0.6240  2.1705
  787MOL0     H 6203   9.327   2.211   4.399 -0.4608  1.2797  2.0835
  787MOL0     H 6204   9.391   2.154   4.556  2.2154  0.4596 -0.2043
  787MOL0     H 6205   9.225   1.768   4.369  1.6594  1.1859 -0.8034
  787MOL0     H 6206   9.049   1.654   4.505 -2.7039  0.3103  1.4190
  787MOL0     H 6207   8.713   1.584   4.800  0.8024  4.9308 -3.3344
  787MOL0     H 6208   8.569   1.499   4.952  0.4167 -1.0790  0.0200
  787MOL0     H 6209   8.314   1.644   5.095 -3.5040  0.5694  2.6704
  787MOL0     H 6210   8.392   1.484   5.090  1.3827 -0.1145  1.5055
  787MOL0     H 6211   8.189   1.462   5.204 -1.8877  0.1648  1.7689
  787MOL0     H 6212   8.328   1.425   5.310  1.1376  2.2952  0.9459
  787MOL0     H 6213   8.201   1.549   5.459 -0.9817  0.2082 -1.2733
  787MOL0     H 6214   8.300   1.676   5.390  1.6459 -0.6603 -1.7463
  787MOL0     H 6215   8.013   1.577   5.324 -1.4963  0.8356  0.1575
  787MOL0     H 6216   8.112   1.683   5.220 -0.7206 -1.2701  0.4056
  787MOL0     H 6217   8.102   1.870   5.358  1.9881 -1.7702 -1.0906
  787MOL0     H 6218   8.083   1.782   5.499  0.1024  1.3185 -1.0880
  787MOL0     H 6219   7.879   1.817   5.270  0.1133 -0.6165  0.3537
  787MOL0     H 6220   7.843   1.710   5.399 -1.5402 -0.7503 -1.8498
  787MOL0     H 6221   7.914   2.003   5.461  3.4725 -1.4226  0.4889
  787MOL0     H 6222   7.855   1.886   5.575 -0.1134  2.5117  1.3777
  787MOL0     H 6223   7.634   1.868   5.467 -0.2927  0.4531  2.1909
  787MOL0     H 6224   7.684   2.041   5.488 -0.9455  0.4173 -1.3427
  787MOL0     H 6225   8.624   1.842   5.222  0.3909 -0.8199  1.1976
  787MOL0     H 6226   8.778   1.936   5.032 -0.0774 -0.1975 -0.5254
  787MOL0     H 6227   9.008   2.014   4.721  0.1766 -0.1877 -0.3713
  787MOL0     H 6228   9.171   2.119   4.604  1.9369 -0.6235  1.3197
  787MOL0     H 6229  10.625   2.710   3.973  0.7883  0.9021  3.7936
  787MOL0     H 6230  10.742   2.904   4.051 -1.9404 -1.4950  0.8697
  787MOL0     H 6231  10.973   3.273   3.742  1.4400 -2.0754  0.0051
  787MOL0     H 6232  11.139   3.477   3.738  0.5454  0.6926  0.7151
  787MOL0     H 6233  11.503   3.405   3.967 -2.6594 -2.8955 -2.2649
  787MOL0     H 6234  11.495   3.573   3.998  1.8276  1.4580 -0.7225
  787MOL0     H 6235  11.677   3.537   3.865 -1.0882 -2.3688  3.1614
  787MOL0     H 6236  11.554   3.630   3.775  0.9921  0.5420  0.7393
  787MOL0     H 6237  11.483   3.417   3.670  0.0140 -1.2561  0.2692
  787MOL0     H 6238  11.594   3.327   3.787  0.1680  1.8837  1.5682
  787MOL0     H 6239  11.792   3.367   3.673 -0.7415 -2.9647 -1.2827
  787MOL0     H 6240  11.683   3.330   3.550 -1.5910 -1.0485  0.7444
  787MOL0     H 6241  11.724   3.705   3.393  0.2698  0.1796 -0.4596
  787MOL0     H 6242  11.329   3.335   4.080 -1.3654  0.3988  1.6567
  787MOL0     H 6243  11.209   3.032   4.118 -1.7891 -0.4458  2.4510
  787MOL0     H 6244  11.265   3.178   4.208  0.9965 -1.0034 -0.1940
  787MOL0     H 6245  11.096   3.146   4.190 -0.3529 -1.1338 -0.3899
  788MOL0     O 6246  11.238   5.596   6.486 -0.0509  0.2993  1.1403
  788MOL0     C 6247  11.203   5.588   6.364 -0.5756  0.1004  0.2785
  788MOL0     O 6248  11.097   5.518   6.316 -0.0518  0.5676  0.8799
  788MOL0     C 6249  11.011   5.440   6.388 -0.3833 -0.0444  0.0351
  788MOL0     C 6250  11.063   5.353   6.490 -0.4626 -0.6330  1.1445
  788MOL0     C 6251  10.966   5.286   6.562 -0.2223  0.6206  0.1676
  788MOL0     C 6252  10.830   5.279   6.535  0.4965 -0.0365 -0.0540
  788MOL0     O 6253  10.754   5.199   6.622 -0.5808 -0.3633 -0.3227
  788MOL0     C 6254  10.625   5.149   6.565 -0.0564  0.2477 -0.2841
  788MOL0     C 6255  10.593   5.025   6.639 -0.0997 -0.1388 -0.2637
  788MOL0     C 6256  10.474   4.955   6.577 -0.5953 -0.3402 -0.0769
  788MOL0     C 6257  10.430   4.838   6.661 -0.3990 -0.6878  0.1775
  788MOL0     C 6258  10.301   4.766   6.623 -1.3174 -0.0601  0.1454
  788MOL0     C 6259  10.249   4.679   6.737 -0.9634  0.1963 -0.1985
  788MOL0     C 6260  10.131   4.607   6.690 -0.9385  0.1419  0.0098
  788MOL0     C 6261  10.118   4.463   6.723 -0.0351  0.0694  0.5666
  788MOL0     N 6262  10.225   4.401   6.641 -0.7691  0.3027 -0.6114
  788MOL0     C 6263  10.366   4.388   6.649 -0.5361 -0.1186  0.0705
  788MOL0     C 6264  10.416   4.365   6.527  0.3024  0.0181  0.1793
  788MOL0     C 6265  10.562   4.340   6.493 -0.0611 -0.1734  1.0442
  788MOL0     C 6266  10.618   4.480   6.480  0.2730  0.8563 -0.7758
  788MOL0     C 6267  10.775   4.483   6.503  0.2227 -0.1382  0.3905
  788MOL0     C 6268  10.834   4.620   6.471 -0.3392 -0.0228 -0.2351
  788MOL0     O 6269  10.972   4.605   6.441 -0.0482 -0.2624 -0.5204
  788MOL0     C 6270  11.033   4.725   6.426 -0.7319 -0.5695  0.2432
  788MOL0     C 6271  10.973   4.848   6.400  0.2216  0.1393  0.7656
  788MOL0     C 6272  11.051   4.965   6.387  0.5999 -0.4592  0.2768
  788MOL0     C 6273  11.188   4.966   6.389  0.0703 -0.4651  0.0599
  788MOL0     C 6274  11.260   5.094   6.374 -0.1215  0.1919 -0.0268
  788MOL0     O 6275  11.387   5.107   6.432 -0.1942  0.1751 -0.5617
  788MOL0     C 6276  11.467   5.218   6.418 -0.5225 -0.0439 -0.3438
  788MOL0     C 6277  11.578   5.205   6.505 -0.3737 -0.4725  0.9177
  788MOL0     C 6278  11.683   5.298   6.501  0.3339 -0.3143  0.3723
  788MOL0     C 6279  11.678   5.414   6.417 -1.1121  0.4498 -0.0410
  788MOL0     O 6280  11.782   5.505   6.412 -0.0722  0.6538  0.1988
  788MOL0     C 6281  11.878   5.505   6.527 -0.0736 -0.0101 -0.6257
  788MOL0     C 6282  11.960   5.639   6.530 -0.1259  0.0112 -0.4300
  788MOL0     C 6283  12.073   5.628   6.427  0.6870  0.3569 -0.3966
  788MOL0     C 6284  12.199   5.700   6.465  0.1303  0.6213  0.2941
  788MOL0     C 6285  12.295   5.703   6.345 -0.2873  0.6422 -0.4971
  788MOL0     C 6286  12.448   5.712   6.385 -0.7688 -0.8726 -0.2772
  788MOL0     C 6287  12.460   5.784   6.522  0.0213  0.1323  0.0075
  788MOL0     C 6288  12.611   5.819   6.560  1.1011 -0.6478  0.3061
  788MOL0    Cl 6289  12.723   5.672   6.551 -0.2247 -0.0300  0.4592
  788MOL0     C 6290  11.565   5.414   6.329  0.0295 -0.8976  0.1793
  788MOL0     C 6291  11.469   5.314   6.326 -0.3365 -0.6410  0.0683
  788MOL0     O 6292  11.214   5.175   6.296  0.2193 -0.1267  0.1775
  788MOL0     C 6293  11.256   4.848   6.408 -0.1004  0.2242  0.4468
  788MOL0     C 6294  11.177   4.728   6.426  0.2960  0.2743  0.2659
  788MOL0     N 6295  10.309   4.358   6.443 -0.4635  0.3873 -0.2228
  788MOL0     N 6296  10.197   4.383   6.511 -0.1350  0.6700  0.3524
  788MOL0     C 6297  10.784   5.351   6.428  0.0709 -0.2980 -0.6076
  788MOL0     C 6298  10.871   5.438   6.361 -0.7778 -0.3916  0.4610
  788MOL0     C 6299  11.289   5.666   6.262  0.2636  0.8699 -0.6072
  788MOL0     C 6300  11.234   5.668   6.127  0.1506  0.6019  0.5106
  788MOL0     C 6301  11.307   5.732   6.022  0.0188 -1.2396  1.4641
  788MOL0     C 6302  11.437   5.780   6.041 -1.0697 -0.6193 -0.0896
  788MOL0     O 6303  11.513   5.833   5.936 -0.5443 -0.3083 -0.6454
  788MOL0     C 6304  11.566   5.732   5.852  0.2136  0.0017 -0.5706
  788MOL0     C 6305  11.712   5.756   5.865  0.8974 -0.6698 -0.2622
  788MOL0     C 6306  11.763   5.890   5.816 -0.1098 -0.8058  0.0753
  788MOL0     C 6307  11.739   5.928   5.676  0.0112 -0.2891 -0.4777
  788MOL0     C 6308  11.797   6.059   5.651 -0.4714  0.1107 -0.2911
  788MOL0     C 6309  11.842   6.175   5.621  0.4801 -0.2387  0.3978
  788MOL0     C 6310  11.493   5.775   6.171 -1.1028 -0.4099  0.0138
  788MOL0     C 6311  11.422   5.718   6.283 -1.1293 -0.7316  0.3771
  788MOL0     C 6312  11.491   5.729   6.416 -0.2052 -0.2286 -0.2311
  788MOL0     H 6313  11.167   5.329   6.510  0.3522  2.1850  0.6358
  788MOL0     H 6314  10.992   5.211   6.635 -0.4542  1.1551  0.8057
  788MOL0     H 6315  10.551   5.228   6.578 -2.5610 -1.2838 -3.7950
  788MOL0     H 6316  10.626   5.129   6.458  2.6530 -0.1201 -0.2672
  788MOL0     H 6317  10.566   5.040   6.744 -1.9557  0.7960 -0.8383
  788MOL0     H 6318  10.679   4.957   6.638 -0.0114 -0.0936  1.3469
  788MOL0     H 6319  10.507   4.897   6.490  1.4372 -2.2369  1.8190
  788MOL0     H 6320  10.392   5.021   6.550  1.0861  1.0901 -2.0663
  788MOL0     H 6321  10.514   4.767   6.665 -0.5675 -0.9301  4.6119
  788MOL0     H 6322  10.402   4.874   6.760  1.3583  6.4845 -1.3341
  788MOL0     H 6323  10.220   4.837   6.606 -2.0321 -0.5170  1.5240
  788MOL0     H 6324  10.326   4.709   6.532  0.0203  1.4119 -0.4690
  788MOL0     H 6325  10.329   4.622   6.786  0.4124  2.1424 -0.0565
  788MOL0     H 6326  10.223   4.750   6.817 -0.2247 -0.2707  0.4738
  788MOL0     H 6327  10.123   4.610   6.581  3.1158 -2.5707 -0.5815
  788MOL0     H 6328  10.046   4.660   6.734 -0.1180  2.8076 -1.3591
  788MOL0     H 6329  10.135   4.463   6.831 -1.4391  3.1947  0.9175
  788MOL0     H 6330  10.022   4.421   6.691  0.0822 -0.3546  0.7721
  788MOL0     H 6331  10.436   4.397   6.732 -2.1663  0.0671  1.4747
  788MOL0     H 6332  10.611   4.292   6.578  1.8625 -0.5294 -0.2111
  788MOL0     H 6333  10.569   4.281   6.400  2.1428  1.2363  0.2476
  788MOL0     H 6334  10.599   4.519   6.380  1.5820 -1.2270 -1.9122
  788MOL0     H 6335  10.570   4.538   6.559  0.1174 -1.9594  1.3425
  788MOL0     H 6336  10.825   4.417   6.433 -2.0714 -1.3209 -0.2236
  788MOL0     H 6337  10.807   4.451   6.603 -0.5343 -0.5151  0.5235
  788MOL0     H 6338  10.824   4.687   6.557 -5.6184 -0.0888 -0.4741
  788MOL0     H 6339  10.774   4.660   6.388 -1.4819  2.8855  1.8171
  788MOL0     H 6340  10.867   4.869   6.396 -0.1157 -1.5795 -1.5890
  788MOL0     H 6341  10.993   5.056   6.371 -1.8658 -2.1766 -1.3535
  788MOL0     H 6342  11.570   5.120   6.571  0.5869 -0.4827  1.0421
  788MOL0     H 6343  11.763   5.277   6.572  0.3713  1.1609  0.8033
  788MOL0     H 6344  11.825   5.511   6.622 -0.2939 -1.8834 -0.5824
  788MOL0     H 6345  11.949   5.421   6.526 -1.0604 -0.8767 -1.6848
  788MOL0     H 6346  11.902   5.730   6.516  1.0923  0.7185 -1.0682
  788MOL0     H 6347  12.007   5.634   6.629 -2.7208 -0.4477  0.8684
  788MOL0     H 6348  12.091   5.522   6.406 -1.0816  0.2533 -1.5955
  788MOL0     H 6349  12.041   5.660   6.328 -0.8159  0.2530  0.0312
  788MOL0     H 6350  12.250   5.652   6.549  0.5977 -0.4838 -0.5952
  788MOL0     H 6351  12.182   5.804   6.497 -0.2298  0.1523  1.7127
  788MOL0     H 6352  12.265   5.780   6.273  2.1093 -0.3072 -2.6477
  788MOL0     H 6353  12.297   5.608   6.291 -1.2561 -0.0362  0.6205
  788MOL0     H 6354  12.484   5.609   6.384  1.8720 -0.1065  2.4310
  788MOL0     H 6355  12.513   5.763   6.314  0.8754 -0.9842  1.0895
  788MOL0     H 6356  12.410   5.735   6.605 -2.7538  0.1030 -1.5601
  788MOL0     H 6357  12.413   5.882   6.513 -1.2353 -0.0181  3.5157
  788MOL0     H 6358  12.637   5.893   6.483 -2.6233 -2.7839 -3.4730
  788MOL0     H 6359  12.611   5.870   6.656  1.3424 -0.1689  0.0551
  788MOL0     H 6360  11.558   5.489   6.251  0.3573 -1.7722 -0.7267
  788MOL0     H 6361  11.388   5.315   6.253 -0.9657  2.2861  0.6827
  788MOL0     H 6362  11.365   4.851   6.407 -0.0701 -0.1724 -1.9366
  788MOL0     H 6363  11.222   4.631   6.443  1.3180  1.0746  2.4711
  788MOL0     H 6364  10.679   5.348   6.399  0.2056  3.2055 -1.9226
  788MOL0     H 6365  10.843   5.507   6.281  0.8663  1.3806  1.3417
  788MOL0     H 6366  11.138   5.628   6.095  0.0314  3.1169 -2.9383
  788MOL0     H 6367  11.268   5.742   5.922  1.8390 -0.2903  0.7938
  788MOL0     H 6368  11.507   5.736   5.759 -1.0925 -2.0500  0.1004
  788MOL0     H 6369  11.546   5.633   5.895  0.5463 -0.6513 -1.8624
  788MOL0     H 6370  11.761   5.673   5.814 -1.7121 -1.2847 -1.9572
  788MOL0     H 6371  11.745   5.754   5.970 -1.5569  0.0697  0.6057
  788MOL0     H 6372  11.871   5.885   5.835 -0.4820 -1.4041  2.3894
  788MOL0     H 6373  11.731   5.968   5.886  0.0241 -2.5487  2.2083
  788MOL0     H 6374  11.778   5.847   5.615  1.0073 -0.4221  0.3114
  788MOL0     H 6375  11.633   5.947   5.654  0.3861  0.5751 -1.6057
  788MOL0     H 6376  11.875   6.272   5.591  0.6445  0.5541  2.8757
  788MOL0     H 6377  11.590   5.823   6.184 -1.0266 -0.4481 -0.3890
  788MOL0     H 6378  11.599   5.737   6.402 -0.5052  1.8851 -1.9407
  788MOL0     H 6379  11.452   5.822   6.457  1.6320 -0.6539  2.7791
  788MOL0     H 6380  11.472   5.647   6.486 -1.2677 -0.4015 -0.6949
  789MOL0     O 6381  10.321   3.659   9.541 -0.5558  0.0926  0.0024
  789MOL0     C 6382  10.214   3.622   9.488 -1.2362 -0.2146 -0.0990
  789MOL0     O 6383  10.209   3.510   9.408 -0.2216  0.0428 -0.1049
  789MOL0     C 6384  10.321   3.432   9.368  1.0996 -0.8664 -0.3262
  789MOL0     C 6385  10.298   3.292   9.359 -0.4181 -0.1696 -0.4960
  789MOL0     C 6386  10.395   3.210   9.314  0.4433 -0.2328  0.3122
  789MOL0     C 6387  10.520   3.256   9.280 -0.3209 -0.6848 -0.2247
  789MOL0     O 6388  10.626   3.188   9.240  0.5294  0.1808 -0.2772
  789MOL0     C 6389  10.603   3.055   9.188 -0.1427 -0.7929  0.3603
  789MOL0     C 6390  10.725   2.990   9.125 -0.9706 -1.0078 -0.0628
  789MOL0     C 6391  10.835   2.970   9.229  0.4950 -0.0982  0.7296
  789MOL0     C 6392  10.956   3.056   9.207  0.0857  0.4681  0.4941
  789MOL0     C 6393  11.063   3.020   9.308 -0.6323 -0.3064  0.1753
  789MOL0     C 6394  11.179   3.116   9.297 -0.3509 -0.1245  0.0826
  789MOL0     C 6395  11.299   3.078   9.380  0.2995 -0.3797  0.0928
  789MOL0     C 6396  11.374   2.956   9.338  0.1142  0.0219 -0.5271
  789MOL0     N 6397  11.511   2.972   9.389  0.2620  0.2447 -0.1994
  789MOL0     C 6398  11.554   2.942   9.519 -0.2826  0.4255  0.1892
  789MOL0     C 6399  11.687   2.968   9.509 -0.1582 -0.1477 -0.1229
  789MOL0     C 6400  11.788   2.960   9.622  0.6569 -0.6832  0.4031
  789MOL0     C 6401  11.741   3.021   9.750  0.1600  0.1561  0.6125
  789MOL0     C 6402  11.849   3.018   9.856  0.2554  0.2031 -0.2582
  789MOL0     C 6403  11.969   3.106   9.831  0.4876  0.5499 -0.8648
  789MOL0     O 6404  12.064   3.102   9.938 -0.1219 -0.2850  0.1992
  789MOL0     C 6405  12.153   2.992   9.959 -0.8371 -0.7142  0.0012
  789MOL0     C 6406  12.150   2.874   9.884 -0.0575  0.4001 -0.4993
  789MOL0     C 6407  12.235   2.765   9.917  0.5117 -0.6293  0.8369
  789MOL0     C 6408  12.328   2.770  10.022 -0.2534 -0.2796 -0.3647
  789MOL0     C 6409  12.413   2.653  10.050 -0.2516 -0.8816  0.7207
  789MOL0     O 6410  12.483   2.660  10.167  0.3931  0.2974  0.3738
  789MOL0     C 6411  12.576   2.569  10.210  0.9570 -0.0571  0.5705
  789MOL0     C 6412  12.584   2.569  10.347  0.5228 -0.3771 -0.2955
  789MOL0     C 6413  12.685   2.505  10.414  0.3248  0.3054 -0.3931
  789MOL0     C 6414  12.773   2.419  10.339 -0.8174  0.5413  0.0050
  789MOL0     O 6415  12.880   2.352  10.389 -0.2244 -0.3912 -0.4704
  789MOL0     C 6416  12.875   2.272  10.510  0.0518 -1.1970 -0.4452
  789MOL0     C 6417  13.007   2.192  10.533  0.2030 -0.3049 -0.1641
  789MOL0     C 6418  13.019   2.157  10.681 -0.4444 -0.2628  0.8843
  789MOL0     C 6419  13.170   2.140  10.734  0.5028 -0.7424  0.1724
  789MOL0     C 6420  13.168   2.068  10.868 -0.0376  1.1054  0.2541
  789MOL0     C 6421  13.283   2.097  10.958 -0.3826  0.2921 -0.4276
  789MOL0     C 6422  13.257   2.229  11.038 -0.5454 -0.4327 -0.1407
  789MOL0     C 6423  13.135   2.229  11.139  0.1009 -0.5153 -0.3291
  789MOL0    Cl 6424  13.170   2.122  11.288  0.2962  0.3561 -0.0966
  789MOL0     C 6425  12.749   2.409  10.202  0.1307 -0.9935 -0.5706
  789MOL0     C 6426  12.653   2.479  10.133  1.1191  0.4705  0.3532
  789MOL0     O 6427  12.414   2.558   9.973 -0.0806 -0.1552 -0.2304
  789MOL0     C 6428  12.336   2.882  10.095  0.1362  0.9927 -0.1752
  789MOL0     C 6429  12.247   2.992  10.070  0.2001 -0.3036  0.0561
  789MOL0     N 6430  11.719   3.011   9.380  1.0700  0.9601 -1.1789
  789MOL0     N 6431  11.611   3.012   9.319  0.0325  0.4459 -0.0228
  789MOL0     C 6432  10.549   3.393   9.277  0.2806  0.1478  0.0648
  789MOL0     C 6433  10.450   3.481   9.336 -0.7698 -0.0415  0.1282
  789MOL0     C 6434  10.095   3.704   9.527  0.8472 -0.3780  0.1931
  789MOL0     C 6435   9.981   3.705   9.434 -0.8603 -0.0786 -0.3889
  789MOL0     C 6436   9.865   3.777   9.463  0.0036 -0.3776 -0.3434
  789MOL0     C 6437   9.848   3.839   9.586 -0.8984 -0.1449 -0.6725
  789MOL0     O 6438   9.740   3.899   9.632  0.4470 -0.2874  0.1156
  789MOL0     C 6439   9.620   3.815   9.629 -0.9636  0.5855 -0.5144
  789MOL0     C 6440   9.486   3.880   9.617  0.0078  1.5577 -0.0654
  789MOL0     C 6441   9.457   3.976   9.724  0.3581 -0.2796 -0.1442
  789MOL0     C 6442   9.389   3.921   9.849  0.4475 -0.1445 -0.7372
  789MOL0     C 6443   9.242   3.900   9.822 -0.2354 -0.5854 -0.5666
  789MOL0     C 6444   9.131   3.919   9.801  0.8993  0.3791 -0.2682
  789MOL0     C 6445   9.952   3.839   9.680 -0.3442 -0.1428 -0.4720
  789MOL0     C 6446  10.069   3.771   9.654  0.3608  0.1771  0.2161
  789MOL0     C 6447  10.155   3.754   9.770 -0.1452  0.2854  0.5794
  789MOL0     H 6448  10.202   3.255   9.395 -0.3383  1.6792  1.8591
  789MOL0     H 6449  10.376   3.104   9.299  2.1160 -0.4490 -0.5765
  789MOL0     H 6450  10.572   2.990   9.271  0.1664  0.4959  1.5223
  789MOL0     H 6451  10.529   3.071   9.110  0.6403  1.8397  0.0506
  789MOL0     H 6452  10.759   3.058   9.046 -6.0048  1.0232 -0.8567
  789MOL0     H 6453  10.697   2.901   9.069 -1.4269  0.4091 -2.2220
  789MOL0     H 6454  10.866   2.866   9.237 -4.3674 -1.6552  6.0794
  789MOL0     H 6455  10.792   2.985   9.328 -1.8593  4.7535 -0.7130
  789MOL0     H 6456  10.998   3.042   9.106  1.7023 -1.1544  1.3286
  789MOL0     H 6457  10.926   3.160   9.221  2.3170  1.5833 -1.9029
  789MOL0     H 6458  11.029   3.038   9.411  0.9951  1.9857  0.3819
  789MOL0     H 6459  11.094   2.919   9.280 -1.3372 -0.0549 -1.6448
  789MOL0     H 6460  11.207   3.121   9.191 -4.3902  0.5377 -1.1130
  789MOL0     H 6461  11.144   3.216   9.324 -3.2003 -0.9391 -0.2308
  789MOL0     H 6462  11.255   3.047   9.475  2.1277  0.9661  1.4611
  789MOL0     H 6463  11.365   3.165   9.380  1.2565 -0.7723 -4.9933
  789MOL0     H 6464  11.332   2.866   9.384 -0.1413  0.7943  0.8252
  789MOL0     H 6465  11.369   2.945   9.230 -2.8448  0.0729 -0.4641
  789MOL0     H 6466  11.504   2.929   9.615 -1.6268 -1.2511 -0.6975
  789MOL0     H 6467  11.800   2.852   9.634 -0.2804 -0.7406  0.8763
  789MOL0     H 6468  11.884   2.997   9.585  0.5797 -1.7267 -0.8907
  789MOL0     H 6469  11.702   3.122   9.735 -2.8937 -0.7307  1.7948
  789MOL0     H 6470  11.651   2.966   9.782 -2.1732  0.7563 -4.1205
  789MOL0     H 6471  11.881   2.920   9.892  0.6232  0.3831 -0.0982
  789MOL0     H 6472  11.798   3.056   9.945 -1.3687 -1.2207 -0.5150
  789MOL0     H 6473  11.928   3.208   9.832  0.1632  0.4261  0.6684
  789MOL0     H 6474  12.014   3.081   9.734  2.2325  1.2181 -0.2694
  789MOL0     H 6475  12.097   2.867   9.790 -0.3827  3.1560 -0.6249
  789MOL0     H 6476  12.228   2.681   9.849 -1.4304  2.8378 -3.8369
  789MOL0     H 6477  12.522   2.633  10.408  2.0344  2.4073 -1.4906
  789MOL0     H 6478  12.699   2.508  10.521 -1.8923  0.0788 -0.0481
  789MOL0     H 6479  12.853   2.339  10.594  3.2989 -0.0492 -0.3433
  789MOL0     H 6480  12.788   2.206  10.504 -2.0147  1.4997 -3.5294
  789MOL0     H 6481  12.998   2.104  10.470 -0.9360 -1.5711  1.6523
  789MOL0     H 6482  13.101   2.244  10.513 -0.6629  1.2621 -0.3334
  789MOL0     H 6483  12.965   2.229  10.744 -1.9381 -1.1511  0.6672
  789MOL0     H 6484  12.966   2.062  10.691  0.0610 -0.5863  0.5056
  789MOL0     H 6485  13.213   2.240  10.747 -0.8761 -0.1073  0.1019
  789MOL0     H 6486  13.221   2.081  10.657 -3.4822 -4.4795 -0.0143
  789MOL0     H 6487  13.169   1.959  10.862  0.6010  1.0440  1.2868
  789MOL0     H 6488  13.067   2.080  10.908 -0.8405  0.8799 -1.5791
  789MOL0     H 6489  13.308   2.012  11.022  1.6371  0.1648 -1.3140
  789MOL0     H 6490  13.366   2.131  10.895 -0.0470 -0.2914 -0.3148
  789MOL0     H 6491  13.246   2.310  10.966  1.3984 -1.1310 -1.2900
  789MOL0     H 6492  13.341   2.248  11.105 -2.6432  0.1873  2.5251
  789MOL0     H 6493  13.122   2.331  11.175 -0.9193  0.0808 -2.2082
  789MOL0     H 6494  13.041   2.197  11.091  0.7999  0.1347 -2.2441
  789MOL0     H 6495  12.816   2.347  10.144 -3.1651 -4.5723 -0.9249
  789MOL0     H 6496  12.641   2.465  10.026  3.1016  0.8417  0.0577
  789MOL0     H 6497  12.394   2.890  10.187 -0.8011  0.7843  0.4445
  789MOL0     H 6498  12.252   3.084  10.126 -0.4531  0.9092 -1.7822
  789MOL0     H 6499  10.644   3.416   9.232 -1.1507  1.4368 -2.4939
  789MOL0     H 6500  10.472   3.586   9.351  0.6273 -0.6235  2.5891
  789MOL0     H 6501   9.990   3.655   9.339  1.1578 -3.9384  1.6169
  789MOL0     H 6502   9.785   3.788   9.390 -2.1481 -0.9081  1.8086
  789MOL0     H 6503   9.619   3.750   9.717 -3.6600 -0.1660 -1.0164
  789MOL0     H 6504   9.615   3.752   9.540 -1.8789 -1.3535  0.8465
  789MOL0     H 6505   9.402   3.810   9.616 -0.2055  1.7512  1.9310
  789MOL0     H 6506   9.480   3.923   9.516  2.7534  0.9262 -0.5951
  789MOL0     H 6507   9.383   4.042   9.679  1.2582 -0.7289 -2.4206
  789MOL0     H 6508   9.543   4.038   9.752  0.7510 -0.1282 -1.6006
  789MOL0     H 6509   9.442   3.831   9.881 -0.5475 -1.3503 -2.3299
  789MOL0     H 6510   9.392   3.991   9.933  2.4472 -0.3696 -0.5731
  789MOL0     H 6511   9.035   3.932   9.754  1.2034  0.0538 -0.9900
  789MOL0     H 6512   9.931   3.873   9.781  1.9893  0.5768 -0.1753
  789MOL0     H 6513  10.105   3.755   9.868 -1.6768 -1.9024 -0.0843
  789MOL0     H 6514  10.202   3.655   9.765  2.2551  1.2000  2.6004
  789MOL0     H 6515  10.230   3.832   9.759  1.5855 -1.3057  0.5533
  790MOL0     O 6516   6.138   8.357   3.443  0.4294  0.4134 -0.2075
  790MOL0     C 6517   6.025   8.384   3.480  0.8360  0.8056  0.1165
  790MOL0     O 6518   5.982   8.495   3.538  0.5454  1.0877 -0.0889
  790MOL0     C 6519   6.065   8.601   3.562  0.6768 -0.0018 -0.0625
  790MOL0     C 6520   6.018   8.723   3.513  0.1670 -0.0857 -0.1507
  790MOL0     C 6521   6.099   8.837   3.535 -0.4153  0.4858  1.1052
  790MOL0     C 6522   6.224   8.837   3.599  0.9805  0.1749  0.3006
  790MOL0     O 6523   6.298   8.947   3.612 -1.0788  0.2030  0.3364
  790MOL0     C 6524   6.305   9.044   3.506 -0.3448  1.6913  0.3945
  790MOL0     C 6525   6.413   9.154   3.542 -0.7871  0.7756  0.4268
  790MOL0     C 6526   6.558   9.112   3.519 -0.2372 -0.1241  0.4246
  790MOL0     C 6527   6.590   9.093   3.369 -0.1005  0.1389 -0.1608
  790MOL0     C 6528   6.729   9.111   3.335 -0.1143  0.1378  0.1239
  790MOL0     C 6529   6.769   8.998   3.235 -0.0320  1.0807 -0.4334
  790MOL0     C 6530   6.909   8.991   3.183 -0.2894 -0.5178  1.0146
  790MOL0     C 6531   6.919   8.908   3.056 -0.1550  0.0228  0.6988
  790MOL0     N 6532   7.060   8.890   3.022  0.3321  0.3379 -0.2295
  790MOL0     C 6533   7.145   8.802   3.083 -1.1493  0.9023  0.7323
  790MOL0     C 6534   7.272   8.823   3.027  0.0580  0.0107  0.1342
  790MOL0     C 6535   7.389   8.738   3.064  0.7466 -0.0641  0.2582
  790MOL0     C 6536   7.519   8.814   3.072 -0.5207  0.1831 -0.2200
  790MOL0     C 6537   7.636   8.718   3.110  0.3895 -1.0020  0.4128
  790MOL0     C 6538   7.776   8.788   3.115 -0.1470 -1.2322  0.5788
  790MOL0     O 6539   7.872   8.710   3.171  0.1859 -1.1438  0.4857
  790MOL0     C 6540   7.997   8.761   3.213  0.2437  0.9763  0.4288
  790MOL0     C 6541   8.057   8.682   3.309 -0.1258  0.1303 -0.0650
  790MOL0     C 6542   8.189   8.719   3.354 -0.5239  0.1031  0.7287
  790MOL0     C 6543   8.254   8.823   3.300 -0.0610  0.0789  0.1708
  790MOL0     C 6544   8.395   8.846   3.339  0.1867  0.2320  0.1375
  790MOL0     O 6545   8.470   8.731   3.374  0.2261 -0.7598 -0.7068
  790MOL0     C 6546   8.598   8.749   3.398 -0.6591  0.3775  0.3756
  790MOL0     C 6547   8.693   8.830   3.333 -0.1918 -0.5121  0.2983
  790MOL0     C 6548   8.833   8.835   3.368 -0.4019  0.8130 -0.3923
  790MOL0     C 6549   8.876   8.757   3.471  0.0944  0.2517 -0.4768
  790MOL0     O 6550   9.007   8.749   3.503 -0.3877 -0.0557 -0.3696
  790MOL0     C 6551   9.059   8.869   3.564 -0.3228 -0.9969 -0.8508
  790MOL0     C 6552   9.143   8.951   3.469  0.1163  0.2012  0.5476
  790MOL0     C 6553   9.244   8.864   3.401  0.3799  0.3166 -0.2052
  790MOL0     C 6554   9.336   8.953   3.317 -0.0821  0.9237  0.6703
  790MOL0     C 6555   9.424   8.857   3.218 -0.0285 -0.5300  0.2210
  790MOL0     C 6556   9.525   8.945   3.136  0.4050 -0.1523  0.1172
  790MOL0     C 6557   9.465   9.069   3.075 -0.2131 -0.5197  0.1251
  790MOL0     C 6558   9.545   9.136   2.960 -0.6919  0.1529 -0.4168
  790MOL0    Cl 6559   9.700   9.205   3.026 -0.2937  0.1606 -0.1965
  790MOL0     C 6560   8.798   8.653   3.516  0.7205 -0.3932 -0.1516
  790MOL0     C 6561   8.655   8.650   3.482 -0.3948  0.0452 -0.5480
  790MOL0     O 6562   8.433   8.966   3.345  0.0011  0.0741  0.3538
  790MOL0     C 6563   8.191   8.903   3.208 -0.4081 -0.2534 -0.6220
  790MOL0     C 6564   8.068   8.869   3.159  0.0710  0.7238 -0.1493
  790MOL0     N 6565   7.261   8.924   2.931  0.2664  0.6917 -0.1224
  790MOL0     N 6566   7.133   8.957   2.934 -0.0717 -0.5715  0.4638
  790MOL0     C 6567   6.270   8.703   3.642 -0.7678 -0.9087 -0.1631
  790MOL0     C 6568   6.185   8.591   3.631 -0.2778  0.2690  0.6370
  790MOL0     C 6569   5.920   8.272   3.453 -0.6863  0.5333 -0.3039
  790MOL0     C 6570   5.960   8.153   3.407 -0.7428 -0.8439  0.0161
  790MOL0     C 6571   5.868   8.051   3.381 -0.1521 -0.6347  0.7421
  790MOL0     C 6572   5.730   8.070   3.397  0.6938  0.0886  0.1748
  790MOL0     O 6573   5.641   7.980   3.347 -0.8118 -0.3838  0.5845
  790MOL0     C 6574   5.661   7.843   3.384  0.1226 -0.0137 -0.5176
  790MOL0     C 6575   5.533   7.766   3.345 -0.5992 -0.4912  0.6688
  790MOL0     C 6576   5.497   7.749   3.198  0.3241  0.2584 -0.4576
  790MOL0     C 6577   5.615   7.696   3.118  0.1314  0.0422 -0.0252
  790MOL0     C 6578   5.664   7.562   3.158 -0.0247 -0.5324  0.9576
  790MOL0     C 6579   5.702   7.454   3.190 -0.0038  0.2343 -0.3430
  790MOL0     C 6580   5.691   8.190   3.449 -0.3294  0.0647 -0.6886
  790MOL0     C 6581   5.781   8.291   3.487 -0.2859  0.1661  0.6132
  790MOL0     C 6582   5.714   8.405   3.564  0.6394  0.5138 -0.0872
  790MOL0     H 6583   5.927   8.734   3.456  1.7272 -1.2779 -3.1446
  790MOL0     H 6584   6.063   8.923   3.481 -0.0388 -0.8259 -1.3676
  790MOL0     H 6585   6.332   9.014   3.405 -0.5453  1.5946  0.3698
  790MOL0     H 6586   6.211   9.099   3.501 -1.0640  0.5064  0.5300
  790MOL0     H 6587   6.400   9.181   3.648 -2.8603 -1.4982  0.8527
  790MOL0     H 6588   6.402   9.242   3.478 -2.8110  0.2963  0.0420
  790MOL0     H 6589   6.574   9.014   3.566  3.7170  2.0717  4.4622
  790MOL0     H 6590   6.631   9.183   3.558  3.2329 -2.1739 -1.7606
  790MOL0     H 6591   6.545   9.001   3.330  1.6326 -0.4639 -0.8689
  790MOL0     H 6592   6.545   9.172   3.308 -1.8162  2.0171  3.2750
  790MOL0     H 6593   6.748   9.212   3.298 -3.0751  1.8968  2.8633
  790MOL0     H 6594   6.791   9.098   3.425  3.5989 -0.5882 -2.3295
  790MOL0     H 6595   6.756   8.901   3.283  1.0233  2.0541  2.0084
  790MOL0     H 6596   6.710   8.997   3.143  0.5178 -2.2007 -0.8692
  790MOL0     H 6597   6.972   8.955   3.265  2.0002  0.2605 -0.3289
  790MOL0     H 6598   6.945   9.091   3.159 -1.6460  0.3210  2.3091
  790MOL0     H 6599   6.867   8.812   3.073 -0.8150  0.3154  0.3586
  790MOL0     H 6600   6.872   8.963   2.974  0.7415 -0.5994 -0.2609
  790MOL0     H 6601   7.115   8.723   3.151 -1.0787 -0.9107 -1.2529
  790MOL0     H 6602   7.378   8.686   3.159  1.9132 -0.0110  0.4378
  790MOL0     H 6603   7.394   8.658   2.989  3.0714 -1.9305  2.2415
  790MOL0     H 6604   7.544   8.866   2.979 -0.6288  0.8351  0.1112
  790MOL0     H 6605   7.505   8.888   3.151 -1.0601 -0.0973 -0.0480
  790MOL0     H 6606   7.651   8.624   3.057  1.9400 -0.3317 -0.4164
  790MOL0     H 6607   7.611   8.681   3.209  0.4278  1.3431  1.3741
  790MOL0     H 6608   7.770   8.877   3.179 -1.1383  0.4330 -1.7108
  790MOL0     H 6609   7.803   8.813   3.012 -0.4790  0.0085  0.7716
  790MOL0     H 6610   8.006   8.591   3.338 -0.1566 -0.0918 -0.8120
  790MOL0     H 6611   8.239   8.646   3.417 -1.5503 -0.8363  0.4972
  790MOL0     H 6612   8.657   8.893   3.253  1.5323 -1.6266 -1.4320
  790MOL0     H 6613   8.901   8.895   3.308 -0.1064 -0.0730 -0.9563
  790MOL0     H 6614   8.988   8.940   3.608 -0.1474 -0.0424 -2.0550
  790MOL0     H 6615   9.123   8.831   3.644 -0.7971  0.6018  0.3495
  790MOL0     H 6616   9.078   8.994   3.392 -1.5442 -2.3291  0.4116
  790MOL0     H 6617   9.204   9.027   3.518  0.8879 -1.5828  2.5385
  790MOL0     H 6618   9.302   8.820   3.482 -1.7338  2.4406  2.6881
  790MOL0     H 6619   9.206   8.791   3.329  1.8125 -0.0326 -0.6422
  790MOL0     H 6620   9.398   9.016   3.382  2.1306  1.0092 -1.3862
  790MOL0     H 6621   9.272   9.016   3.253 -0.8428  0.7374  1.2296
  790MOL0     H 6622   9.377   8.799   3.138 -0.4034 -1.3344  1.0096
  790MOL0     H 6623   9.494   8.789   3.268 -0.5847 -1.1243  0.2088
  790MOL0     H 6624   9.592   8.984   3.214  0.1393 -0.9595  0.7526
  790MOL0     H 6625   9.585   8.894   3.060  1.8832 -0.3074  1.3471
  790MOL0     H 6626   9.451   9.141   3.156  2.8981 -0.1822  0.4758
  790MOL0     H 6627   9.377   9.061   3.011  2.0458 -0.8458 -3.1324
  790MOL0     H 6628   9.573   9.051   2.898  1.3769 -1.9846  3.0891
  790MOL0     H 6629   9.498   9.220   2.908  0.8923  0.8358 -0.8076
  790MOL0     H 6630   8.807   8.588   3.602 -1.1292  1.0991  1.2510
  790MOL0     H 6631   8.594   8.566   3.514 -1.5365 -0.1202 -2.8784
  790MOL0     H 6632   8.247   8.988   3.170  0.3822  0.1157  1.2510
  790MOL0     H 6633   8.008   8.914   3.080 -0.3858 -1.7258 -1.2964
  790MOL0     H 6634   6.374   8.692   3.671  0.2355  1.1372 -2.5914
  790MOL0     H 6635   6.215   8.500   3.682 -0.1988  0.4755  0.9671
  790MOL0     H 6636   6.068   8.146   3.391 -0.6613 -0.0293  0.1691
  790MOL0     H 6637   5.909   7.959   3.341 -1.5503 -0.4572 -1.2173
  790MOL0     H 6638   5.680   7.838   3.491 -0.4992  1.8763 -0.2751
  790MOL0     H 6639   5.742   7.796   3.329  2.8621  1.1135  2.2794
  790MOL0     H 6640   5.460   7.830   3.394 -0.0085 -0.4042  1.4581
  790MOL0     H 6641   5.538   7.670   3.398 -1.8564 -2.8137 -2.9996
  790MOL0     H 6642   5.479   7.851   3.164  2.2107  0.7337 -0.1940
  790MOL0     H 6643   5.413   7.681   3.185  1.3918 -1.1152 -0.4552
  790MOL0     H 6644   5.575   7.684   3.017 -1.5859  0.8378  0.5127
  790MOL0     H 6645   5.689   7.772   3.094 -1.1310  0.7225 -1.9794
  790MOL0     H 6646   5.728   7.361   3.236 -0.5098  2.0576  4.1504
  790MOL0     H 6647   5.585   8.207   3.459 -0.7836 -1.9104 -1.5887
  790MOL0     H 6648   5.628   8.368   3.621 -0.4278  0.7819 -1.4617
  790MOL0     H 6649   5.779   8.451   3.639  2.6907 -4.1554  1.3317
  790MOL0     H 6650   5.669   8.476   3.493  1.0011  0.2178 -0.6183
  791MOL0     O 6651   3.812   2.119   4.224  0.8049  0.0603 -0.5373
  791MOL0     C 6652   3.917   2.154   4.279  0.2373 -0.6588  0.4002
  791MOL0     O 6653   3.964   2.103   4.399  0.6765  0.3468 -0.4889
  791MOL0     C 6654   3.903   1.988   4.447  0.0091 -0.3937 -0.6863
  791MOL0     C 6655   3.887   1.871   4.360 -0.5932  0.0985 -0.4897
  791MOL0     C 6656   3.836   1.756   4.410  0.1257  0.6067 -0.3113
  791MOL0     C 6657   3.778   1.758   4.541  0.4086 -0.2128 -0.5247
  791MOL0     O 6658   3.747   1.632   4.591 -0.0213 -0.0993  0.1427
  791MOL0     C 6659   3.687   1.609   4.720  1.0554  0.8044 -0.4678
  791MOL0     C 6660   3.776   1.576   4.841  0.6462  0.0391  0.2903
  791MOL0     C 6661   3.869   1.462   4.799 -0.2928  0.0532 -0.2997
  791MOL0     C 6662   3.942   1.400   4.915  0.1888 -0.5422  0.1532
  791MOL0     C 6663   4.024   1.267   4.882 -0.3901 -0.1103  0.4441
  791MOL0     C 6664   4.098   1.229   5.004  0.2436  0.4913 -0.7402
  791MOL0     C 6665   4.177   1.094   4.983 -0.1827 -0.9145  0.1088
  791MOL0     C 6666   4.278   1.068   5.094  0.5741 -0.7175  0.7658
  791MOL0     N 6667   4.402   1.144   5.074  0.1331  0.3751  0.6476
  791MOL0     C 6668   4.523   1.097   5.034 -0.8740 -1.0261 -0.3954
  791MOL0     C 6669   4.616   1.197   5.071 -0.1296  0.1527 -0.1198
  791MOL0     C 6670   4.763   1.181   5.053  0.0495  0.7961 -0.1544
  791MOL0     C 6671   4.833   1.309   5.016  0.7082  0.3587 -0.4702
  791MOL0     C 6672   4.980   1.299   4.954  0.7077  0.3705 -0.3166
  791MOL0     C 6673   5.082   1.216   5.044 -1.3715 -0.0725  0.7518
  791MOL0     O 6674   5.218   1.238   4.999 -0.6041 -0.0490 -0.3160
  791MOL0     C 6675   5.300   1.336   5.054 -0.7036  0.1937 -0.7416
  791MOL0     C 6676   5.258   1.447   5.126 -0.1652  0.3546 -0.1027
  791MOL0     C 6677   5.348   1.526   5.195  0.3723  0.0712  0.4502
  791MOL0     C 6678   5.484   1.490   5.194 -0.0818 -0.1167 -0.1813
  791MOL0     C 6679   5.577   1.576   5.274 -1.2742 -1.0643  0.9132
  791MOL0     O 6680   5.697   1.511   5.299  0.6798  0.5171  0.1233
  791MOL0     C 6681   5.799   1.581   5.357 -0.1651 -0.0131  0.3287
  791MOL0     C 6682   5.853   1.695   5.286  0.7130 -0.6640 -0.2597
  791MOL0     C 6683   5.948   1.773   5.341 -0.0370  0.1429 -0.1028
  791MOL0     C 6684   5.987   1.753   5.477 -0.6036  0.1759 -0.9808
  791MOL0     O 6685   6.070   1.827   5.548 -0.2345 -0.5526 -0.1415
  791MOL0     C 6686   6.149   1.931   5.489 -0.6671 -0.6938  0.2327
  791MOL0     C 6687   6.260   1.986   5.584 -0.2236  0.8419  0.9686
  791MOL0     C 6688   6.345   1.885   5.647 -0.5572  0.4214  0.0143
  791MOL0     C 6689   6.439   1.935   5.758  0.3380  0.7425  0.1658
  791MOL0     C 6690   6.373   1.960   5.889  0.2320  0.6081  0.5365
  791MOL0     C 6691   6.480   1.954   6.000 -0.1754  0.3990 -0.3654
  791MOL0     C 6692   6.596   2.062   5.992 -0.2176  0.3758 -0.5222
  791MOL0     C 6693   6.683   2.050   6.124 -0.6861  0.1765 -0.2008
  791MOL0    Cl 6694   6.583   2.084   6.264 -0.5079  0.3526 -0.0140
  791MOL0     C 6695   5.924   1.649   5.545 -0.6723  0.2807  0.3254
  791MOL0     C 6696   5.837   1.559   5.490  0.0807  0.7217 -1.0625
  791MOL0     O 6697   5.551   1.690   5.305 -0.2067  0.3104 -0.3495
  791MOL0     C 6698   5.531   1.381   5.116 -0.2537  0.1798 -0.6616
  791MOL0     C 6699   5.441   1.302   5.052  0.8584 -0.4165 -0.7287
  791MOL0     N 6700   4.550   1.302   5.136  0.1966  0.0421  0.2063
  791MOL0     N 6701   4.423   1.265   5.135  0.0388 -0.8831  0.8675
  791MOL0     C 6702   3.795   1.872   4.617  0.1625 -0.4984  0.0797
  791MOL0     C 6703   3.864   1.984   4.573  0.0500 -0.0453 -0.0943
  791MOL0     C 6704   3.981   2.272   4.217 -0.0169 -0.5830  0.6945
  791MOL0     C 6705   3.914   2.392   4.185 -0.3951  0.6644  0.3994
  791MOL0     C 6706   3.983   2.495   4.106  0.7923  0.8500  0.2119
  791MOL0     C 6707   4.118   2.488   4.065 -0.3132 -1.7207  0.2383
  791MOL0     O 6708   4.167   2.582   3.976  1.0614  0.1757  0.3491
  791MOL0     C 6709   4.300   2.585   3.939 -0.3300  1.3941 -0.3715
  791MOL0     C 6710   4.331   2.704   3.852 -0.6592  0.0011 -0.3962
  791MOL0     C 6711   4.257   2.723   3.719  0.7668 -0.3597  0.6924
  791MOL0     C 6712   4.128   2.807   3.747 -0.3369 -0.1946 -0.2189
  791MOL0     C 6713   4.150   2.948   3.778 -0.6489 -0.2515 -0.0355
  791MOL0     C 6714   4.191   3.051   3.829 -0.9428  0.3198 -0.4871
  791MOL0     C 6715   4.189   2.378   4.111 -0.0751 -0.2472  0.2029
  791MOL0     C 6716   4.119   2.274   4.181  0.7924 -0.6272 -0.2107
  791MOL0     C 6717   4.213   2.173   4.220 -0.8802 -0.1095  0.1060
  791MOL0     H 6718   3.919   1.861   4.257  0.3266  2.5322 -0.5188
  791MOL0     H 6719   3.814   1.672   4.345 -2.1150  1.1817 -0.3715
  791MOL0     H 6720   3.615   1.687   4.744 -0.7109 -1.2315  1.4065
  791MOL0     H 6721   3.623   1.521   4.709  0.4909  1.3469 -1.6177
  791MOL0     H 6722   3.715   1.543   4.926 -2.4517  3.0047 -0.5665
  791MOL0     H 6723   3.836   1.664   4.865 -0.4768  0.8605  0.1806
  791MOL0     H 6724   3.943   1.503   4.728  2.3428  1.8045  3.1628
  791MOL0     H 6725   3.816   1.382   4.746  0.2641 -1.3985  1.2542
  791MOL0     H 6726   4.005   1.483   4.949 -0.0048  0.0281 -0.8326
  791MOL0     H 6727   3.867   1.375   4.991  1.8007  0.9903  2.3561
  791MOL0     H 6728   3.948   1.202   4.838 -1.8936  1.7537  0.1766
  791MOL0     H 6729   4.087   1.291   4.796 -1.2671  1.3514  0.1875
  791MOL0     H 6730   4.174   1.304   5.031 -0.0399  0.4698  0.1585
  791MOL0     H 6731   4.026   1.207   5.083 -1.1113 -3.3057 -2.7742
  791MOL0     H 6732   4.229   1.107   4.887 -0.9696  2.0030 -0.0359
  791MOL0     H 6733   4.113   1.007   4.992  2.1825 -2.6546  1.2730
  791MOL0     H 6734   4.239   1.104   5.190 -1.9676  2.5165 -1.2487
  791MOL0     H 6735   4.300   0.961   5.096  0.5872 -0.7286  0.2264
  791MOL0     H 6736   4.554   1.002   4.993  1.0572 -1.9892  2.9466
  791MOL0     H 6737   4.811   1.148   5.145 -1.4566  2.3764  1.2583
  791MOL0     H 6738   4.778   1.103   4.977 -0.2206  0.1470  0.4524
  791MOL0     H 6739   4.771   1.358   4.941  2.1041  2.4766 -0.3399
  791MOL0     H 6740   4.833   1.372   5.106 -0.2725 -0.4457  0.1124
  791MOL0     H 6741   5.025   1.398   4.945 -0.9392  1.1127 -0.6365
  791MOL0     H 6742   4.968   1.265   4.850 -2.9941  2.6246 -0.8078
  791MOL0     H 6743   5.062   1.109   5.031 -0.3786  0.0124 -2.0768
  791MOL0     H 6744   5.068   1.244   5.149  2.0516  2.5746  0.6664
  791MOL0     H 6745   5.153   1.463   5.149 -0.7245 -1.6324 -0.9988
  791MOL0     H 6746   5.303   1.615   5.239 -0.7036  0.2226 -0.8893
  791MOL0     H 6747   5.822   1.710   5.183 -2.8636 -2.1158  0.4421
  791MOL0     H 6748   6.002   1.849   5.285  1.7639 -1.3031 -0.4390
  791MOL0     H 6749   6.191   1.906   5.392  1.6596  1.2519  0.6232
  791MOL0     H 6750   6.080   2.009   5.457  0.8183  2.3797  3.7147
  791MOL0     H 6751   6.327   2.050   5.527 -0.7639  1.9021  1.4726
  791MOL0     H 6752   6.210   2.050   5.658  0.7441  0.8594  1.6250
  791MOL0     H 6753   6.282   1.806   5.690  1.0803 -1.8619 -1.5403
  791MOL0     H 6754   6.398   1.827   5.571 -0.3501  0.4071  0.1708
  791MOL0     H 6755   6.507   2.020   5.743  0.8056  1.4255  4.8036
  791MOL0     H 6756   6.511   1.854   5.771  0.0471  0.3568 -0.5567
  791MOL0     H 6757   6.303   1.877   5.907 -0.5021  1.6552  2.8272
  791MOL0     H 6758   6.322   2.057   5.891  0.2643  0.6290  0.3793
  791MOL0     H 6759   6.418   1.963   6.090 -0.7908 -2.4001 -0.4116
  791MOL0     H 6760   6.519   1.852   5.993  1.5434  1.0739 -1.0155
  791MOL0     H 6761   6.540   2.154   5.978 -1.9773 -0.1673  2.1933
  791MOL0     H 6762   6.667   2.051   5.909 -0.5985 -0.1549 -0.7841
  791MOL0     H 6763   6.718   1.946   6.123 -1.1672  0.0168 -0.7367
  791MOL0     H 6764   6.772   2.113   6.118  1.2064 -2.2774  0.4998
  791MOL0     H 6765   5.957   1.634   5.647 -1.4029 -3.0699  0.1805
  791MOL0     H 6766   5.796   1.482   5.554  0.1209  0.3317 -1.4963
  791MOL0     H 6767   5.638   1.360   5.115 -0.5263 -1.9607  2.3190
  791MOL0     H 6768   5.482   1.214   5.004 -0.0577 -2.3856  1.8397
  791MOL0     H 6769   3.758   1.871   4.719  0.0796  1.9548  0.1335
  791MOL0     H 6770   3.882   2.064   4.644 -0.8644  0.6243 -0.6097
  791MOL0     H 6771   3.815   2.409   4.225 -0.3728  2.6811 -0.2881
  791MOL0     H 6772   3.938   2.592   4.087  0.5344  0.6293 -0.3340
  791MOL0     H 6773   4.334   2.500   3.880 -1.4570  0.9605 -0.4292
  791MOL0     H 6774   4.371   2.593   4.022 -0.2018 -3.7104  0.3418
  791MOL0     H 6775   4.438   2.700   3.832  0.0297  1.3669  2.4257
  791MOL0     H 6776   4.317   2.790   3.918  3.5296  2.1746 -2.0270
  791MOL0     H 6777   4.241   2.623   3.676 -0.8063  0.2013 -0.0694
  791MOL0     H 6778   4.324   2.772   3.647 -0.1684 -0.0973 -0.0126
  791MOL0     H 6779   4.068   2.813   3.655 -0.7982 -1.1801  0.0034
  791MOL0     H 6780   4.065   2.756   3.820 -0.1900 -4.7232 -2.8480
  791MOL0     H 6781   4.213   3.145   3.874 -1.0585 -0.0463  0.3460
  791MOL0     H 6782   4.294   2.372   4.084  0.1522  1.8339  0.5106
  791MOL0     H 6783   4.301   2.162   4.156 -1.1573 -1.2536 -0.0984
  791MOL0     H 6784   4.245   2.184   4.324 -0.3355  0.1128 -0.0839
  791MOL0     H 6785   4.165   2.075   4.212 -0.6617 -0.3060  1.0870
  792MOL0     O 6786   5.059   3.695   2.427 -0.2586  0.0302  0.3731
  792MOL0     C 6787   4.999   3.633   2.516 -0.1574  0.0186 -0.6144
  792MOL0     O 6788   5.042   3.596   2.638 -0.5387  0.1527 -0.1953
  792MOL0     C 6789   5.176   3.600   2.667  0.3744  1.2501 -0.0583
  792MOL0     C 6790   5.275   3.679   2.616 -0.4886 -0.2123  0.2920
  792MOL0     C 6791   5.411   3.667   2.657  0.2063  0.2621  0.1324
  792MOL0     C 6792   5.454   3.562   2.737  0.7872 -0.0261  0.6025
  792MOL0     O 6793   5.576   3.567   2.798  0.1507  0.1727  0.4227
  792MOL0     C 6794   5.667   3.483   2.733  0.1357 -0.3166  0.5691
  792MOL0     C 6795   5.802   3.470   2.783 -0.4303  1.1553 -0.4014
  792MOL0     C 6796   5.888   3.595   2.757  1.3414 -0.8547  0.1734
  792MOL0     C 6797   6.028   3.586   2.819  0.5288 -0.0424 -0.4565
  792MOL0     C 6798   6.128   3.703   2.792  0.3690 -0.7278  0.2904
  792MOL0     C 6799   6.266   3.676   2.853  0.3273 -0.9708 -0.3688
  792MOL0     C 6800   6.348   3.810   2.842 -0.3650 -0.1165 -0.0818
  792MOL0     C 6801   6.462   3.807   2.947  0.2559 -0.3149 -0.6258
  792MOL0     N 6802   6.557   3.919   2.934  0.3607 -0.1549 -0.2620
  792MOL0     C 6803   6.524   4.053   2.943  0.0365 -0.8094  0.2145
  792MOL0     C 6804   6.640   4.113   2.925 -1.0061  0.1846 -0.5669
  792MOL0     C 6805   6.683   4.255   2.927  0.3581  0.5786  0.6245
  792MOL0     C 6806   6.742   4.312   2.805 -0.5390 -0.3855  1.0505
  792MOL0     C 6807   6.640   4.347   2.693  0.0021  0.3433 -0.1381
  792MOL0     C 6808   6.555   4.476   2.724  0.1456 -0.1704 -0.7255
  792MOL0     O 6809   6.544   4.540   2.595  0.1573  0.9735  0.1377
  792MOL0     C 6810   6.460   4.646   2.572  1.2628 -0.1582 -0.1289
  792MOL0     C 6811   6.334   4.664   2.650 -0.3181  0.0508 -0.4472
  792MOL0     C 6812   6.241   4.758   2.615  1.3385  0.4028 -0.4644
  792MOL0     C 6813   6.276   4.845   2.509  0.5404  0.2238 -0.2811
  792MOL0     C 6814   6.173   4.957   2.481  0.0154 -0.6499 -0.0995
  792MOL0     O 6815   6.049   4.936   2.529 -0.2389  0.0628 -0.0948
  792MOL0     C 6816   5.960   5.030   2.516  0.0362 -1.2778 -0.3119
  792MOL0     C 6817   5.964   5.143   2.594  0.2223 -0.5430 -0.9535
  792MOL0     C 6818   5.886   5.251   2.564 -0.1808  0.2004 -0.2009
  792MOL0     C 6819   5.777   5.240   2.476  0.0653 -0.1550  0.5427
  792MOL0     O 6820   5.697   5.347   2.445 -0.0919  0.0195  0.0904
  792MOL0     C 6821   5.622   5.359   2.326  0.1652  0.0996  0.7101
  792MOL0     C 6822   5.565   5.501   2.303 -0.0950 -0.1236 -0.6720
  792MOL0     C 6823   5.660   5.613   2.345  0.1584  0.2029  0.8137
  792MOL0     C 6824   5.621   5.738   2.266 -0.7569 -0.0780 -0.3233
  792MOL0     C 6825   5.696   5.867   2.319  0.2261 -0.0721  0.5408
  792MOL0     C 6826   5.691   5.981   2.213  0.1936 -0.5858  0.1325
  792MOL0     C 6827   5.547   6.044   2.182 -0.3942  0.4650 -0.8944
  792MOL0     C 6828   5.548   6.092   2.037  0.0235  0.0909  0.0318
  792MOL0    Cl 6829   5.657   6.227   2.004 -0.1559  0.1899 -0.2882
  792MOL0     C 6830   5.759   5.121   2.404  0.3902  0.2694  0.1890
  792MOL0     C 6831   5.856   5.020   2.419  0.2208  0.3664 -0.4258
  792MOL0     O 6832   6.202   5.060   2.415 -0.6508 -0.6677 -0.2929
  792MOL0     C 6833   6.389   4.830   2.433 -0.3353 -1.1551 -0.0093
  792MOL0     C 6834   6.481   4.722   2.454  0.7239 -0.2060  0.1023
  792MOL0     N 6835   6.743   4.028   2.913 -0.1312  0.0239 -0.1587
  792MOL0     N 6836   6.692   3.911   2.928 -0.2678 -0.1738  0.2222
  792MOL0     C 6837   5.357   3.474   2.786  0.8090  0.0723 -0.1782
  792MOL0     C 6838   5.219   3.491   2.745 -0.1877  0.3978  0.6499
  792MOL0     C 6839   4.854   3.596   2.477 -0.8862 -0.2980 -0.6568
  792MOL0     C 6840   4.820   3.637   2.351 -0.5760  0.4737  0.2421
  792MOL0     C 6841   4.686   3.607   2.314  0.0340 -0.1393  0.8298
  792MOL0     C 6842   4.597   3.535   2.392  1.0127 -0.1860  0.8400
  792MOL0     O 6843   4.467   3.497   2.356 -0.6700 -0.0818  0.2600
  792MOL0     C 6844   4.415   3.521   2.224 -0.2990  0.0752 -0.7433
  792MOL0     C 6845   4.365   3.664   2.213  1.1062  1.0671  0.3189
  792MOL0     C 6846   4.228   3.671   2.272 -1.0643  0.6947  0.3209
  792MOL0     C 6847   4.184   3.810   2.258 -0.6231 -0.1619  0.2145
  792MOL0     C 6848   4.205   3.880   2.129  0.2608  0.7047 -0.2771
  792MOL0     C 6849   4.195   3.934   2.020  0.7225 -0.3216  0.5293
  792MOL0     C 6850   4.638   3.487   2.509 -1.0998  0.1831 -1.2633
  792MOL0     C 6851   4.770   3.517   2.559  0.3557 -0.1060  0.9452
  792MOL0     C 6852   4.794   3.469   2.707 -0.2106  0.1282 -0.7790
  792MOL0     H 6853   5.253   3.760   2.547 -1.9451 -1.8349 -1.2586
  792MOL0     H 6854   5.485   3.737   2.621  1.7737 -1.7047 -0.6173
  792MOL0     H 6855   5.622   3.383   2.738  0.8294 -0.6908 -0.2587
  792MOL0     H 6856   5.686   3.511   2.629  0.6084  0.1587  0.7782
  792MOL0     H 6857   5.845   3.394   2.718  0.4286  2.9440 -2.0296
  792MOL0     H 6858   5.792   3.437   2.887 -1.9853 -0.7597 -1.0907
  792MOL0     H 6859   5.842   3.680   2.808  0.8493 -0.1728 -1.3563
  792MOL0     H 6860   5.888   3.615   2.649  1.1940 -0.0549  0.3169
  792MOL0     H 6861   6.005   3.569   2.924 -1.8400 -2.1144 -1.2124
  792MOL0     H 6862   6.074   3.496   2.775  1.5844  0.7174 -0.9444
  792MOL0     H 6863   6.129   3.724   2.685 -1.1993 -0.6312  0.2747
  792MOL0     H 6864   6.096   3.788   2.853  0.6976 -1.0561  0.9361
  792MOL0     H 6865   6.246   3.654   2.958  3.4864 -0.9613  0.3533
  792MOL0     H 6866   6.327   3.596   2.810  0.4174 -1.4721  0.6589
  792MOL0     H 6867   6.288   3.898   2.869  0.6357  0.4146  0.4863
  792MOL0     H 6868   6.376   3.810   2.736 -0.9340 -0.4739 -0.2326
  792MOL0     H 6869   6.426   3.798   3.050 -0.7678 -0.2324 -0.9659
  792MOL0     H 6870   6.517   3.713   2.939 -2.8456 -2.6374  2.4211
  792MOL0     H 6871   6.426   4.096   2.958 -0.9070 -1.3438 -3.3580
  792MOL0     H 6872   6.597   4.313   2.961  1.1255  2.4304 -0.4284
  792MOL0     H 6873   6.751   4.272   3.010 -0.2917  1.2849  1.0314
  792MOL0     H 6874   6.791   4.406   2.832  0.2746 -0.6318  0.4758
  792MOL0     H 6875   6.822   4.250   2.764  0.3128  0.2405  1.7315
  792MOL0     H 6876   6.591   4.252   2.668  1.5502  0.0053 -2.0840
  792MOL0     H 6877   6.707   4.360   2.608 -1.0259 -2.7135 -1.5736
  792MOL0     H 6878   6.592   4.544   2.801 -0.9454  2.3194 -2.2526
  792MOL0     H 6879   6.458   4.442   2.762 -1.2195  4.2399  0.2506
  792MOL0     H 6880   6.319   4.593   2.731  2.4618 -1.5343 -1.1826
  792MOL0     H 6881   6.146   4.761   2.667  0.6943  0.5730 -1.6387
  792MOL0     H 6882   6.039   5.143   2.673 -3.1680 -2.0766  2.5777
  792MOL0     H 6883   5.888   5.345   2.619 -1.1068  0.8721 -1.2491
  792MOL0     H 6884   5.687   5.345   2.239  1.4660  1.0872  1.5071
  792MOL0     H 6885   5.537   5.289   2.325  1.3252 -1.3945  2.0009
  792MOL0     H 6886   5.547   5.505   2.195  1.7119  2.6092 -0.9601
  792MOL0     H 6887   5.474   5.511   2.362 -0.3162  1.2756 -1.2103
  792MOL0     H 6888   5.645   5.638   2.451 -0.2703  1.0718  0.5626
  792MOL0     H 6889   5.766   5.600   2.325 -0.1387  0.6480 -1.2882
  792MOL0     H 6890   5.515   5.758   2.279 -0.9884 -0.1373 -1.8788
  792MOL0     H 6891   5.631   5.716   2.159 -1.4225  2.0661 -0.8799
  792MOL0     H 6892   5.802   5.849   2.341  0.4304  1.3007  0.7530
  792MOL0     H 6893   5.640   5.905   2.404 -4.7240  0.3581 -2.5175
  792MOL0     H 6894   5.751   6.066   2.247  2.1157 -1.8205 -0.0559
  792MOL0     H 6895   5.734   5.929   2.127 -0.2379 -1.8656  0.6646
  792MOL0     H 6896   5.535   6.132   2.245  3.3660  1.5685 -1.4591
  792MOL0     H 6897   5.462   5.980   2.207 -1.1750  1.9533  0.4237
  792MOL0     H 6898   5.583   6.021   1.961 -1.7855  0.7191 -1.4608
  792MOL0     H 6899   5.445   6.124   2.020 -0.2671 -0.1142  1.3472
  792MOL0     H 6900   5.685   5.107   2.326  0.0590 -1.4701  0.7756
  792MOL0     H 6901   5.872   4.932   2.357 -4.4416 -2.5694  1.9238
  792MOL0     H 6902   6.408   4.897   2.350  1.7948  0.2982  1.5629
  792MOL0     H 6903   6.563   4.715   2.383  1.7565  0.6503  1.1593
  792MOL0     H 6904   5.393   3.398   2.854  0.4233  1.6335  1.8678
  792MOL0     H 6905   5.150   3.420   2.789  2.1861 -2.5696 -0.0630
  792MOL0     H 6906   4.882   3.684   2.275  1.3036 -1.3023  0.6068
  792MOL0     H 6907   4.653   3.649   2.220  4.0174  1.4189 -0.0883
  792MOL0     H 6908   4.337   3.445   2.212  0.5944 -0.7029 -1.7387
  792MOL0     H 6909   4.491   3.501   2.148  0.6995  0.9579  0.0022
  792MOL0     H 6910   4.362   3.693   2.107  3.2697  2.0475  0.4754
  792MOL0     H 6911   4.430   3.731   2.270  0.0880  1.3123  1.2155
  792MOL0     H 6912   4.237   3.649   2.379 -2.0958  1.8216  0.6621
  792MOL0     H 6913   4.155   3.605   2.225 -0.0542 -0.9175  0.9291
  792MOL0     H 6914   4.076   3.806   2.274 -0.7161  1.1813  0.0809
  792MOL0     H 6915   4.224   3.871   2.340 -1.6648 -0.5390  1.0275
  792MOL0     H 6916   4.186   3.965   1.918  1.8125  2.2339  1.1270
  792MOL0     H 6917   4.567   3.439   2.575  2.6215 -2.2058  1.3581
  792MOL0     H 6918   4.818   3.558   2.767  2.5859  0.0668 -1.6704
  792MOL0     H 6919   4.706   3.424   2.752  1.1434 -0.6091  1.3114
  792MOL0     H 6920   4.872   3.392   2.699 -0.2442 -0.3785  2.2600
  793MOL0     O 6921   7.513   3.294  11.048  0.1869 -0.8402  0.0375
  793MOL0     C 6922   7.443   3.203  11.001 -0.3989 -0.1502  0.6346
  793MOL0     O 6923   7.465   3.155  10.874  0.2685  1.0866  0.2970
  793MOL0     C 6924   7.575   3.192  10.796 -0.5424  0.1002  0.7395
  793MOL0     C 6925   7.597   3.326  10.762 -0.1289  0.5102 -0.5355
  793MOL0     C 6926   7.716   3.373  10.702  0.0553 -0.0807  0.4132
  793MOL0     C 6927   7.829   3.283  10.685 -0.0856  0.5911 -0.0822
  793MOL0     O 6928   7.957   3.331  10.657 -0.3249  0.0590 -0.0183
  793MOL0     C 6929   8.047   3.250  10.575  0.0305 -0.6419  0.1610
  793MOL0     C 6930   8.177   3.320  10.550  1.0518  0.2934  0.1818
  793MOL0     C 6931   8.268   3.206  10.492 -0.0802 -0.2833 -0.0166
  793MOL0     C 6932   8.402   3.259  10.455  0.1501  0.6165 -0.0207
  793MOL0     C 6933   8.503   3.156  10.395 -0.7941  0.4794 -0.7241
  793MOL0     C 6934   8.615   3.227  10.331 -1.0568 -0.1583 -1.3730
  793MOL0     C 6935   8.720   3.129  10.267  0.2144  0.1428 -0.3868
  793MOL0     C 6936   8.835   3.199  10.207 -0.3247 -0.3465 -0.9918
  793MOL0     N 6937   8.921   3.096  10.150 -0.4076 -0.5537  0.3474
  793MOL0     C 6938   8.917   3.069  10.013  0.0037  0.6697 -0.0230
  793MOL0     C 6939   8.978   2.952  10.012 -0.6724 -0.1103 -0.9345
  793MOL0     C 6940   9.026   2.879   9.888  0.5782  0.1905 -0.8086
  793MOL0     C 6941   9.167   2.879   9.851  0.5218  0.1299 -0.1092
  793MOL0     C 6942   9.207   2.784   9.730  0.2756 -0.1288  0.3535
  793MOL0     C 6943   9.337   2.818   9.667 -0.0708 -0.7148 -0.1897
  793MOL0     O 6944   9.449   2.755   9.729 -0.2353  0.6476 -0.0196
  793MOL0     C 6945   9.575   2.772   9.679  0.0388 -0.0322 -0.0557
  793MOL0     C 6946   9.604   2.825   9.554 -0.2212  0.4370  0.0944
  793MOL0     C 6947   9.745   2.861   9.518  0.5645 -0.3274  0.2925
  793MOL0     C 6948   9.852   2.814   9.602 -0.2624  0.4324 -0.4157
  793MOL0     C 6949   9.998   2.844   9.580  0.8044  0.1051 -1.0790
  793MOL0     O 6950  10.072   2.848   9.696 -0.1741 -0.3604  0.6705
  793MOL0     C 6951  10.193   2.886   9.720 -0.9930 -0.5720  0.2336
  793MOL0     C 6952  10.273   2.962   9.631  0.4431  0.0634  0.3596
  793MOL0     C 6953  10.411   2.987   9.666  0.1921 -0.2174  0.4309
  793MOL0     C 6954  10.468   2.928   9.778 -0.0523  0.8579 -0.4484
  793MOL0     O 6955  10.599   2.945   9.811  0.1583 -0.5655 -0.3336
  793MOL0     C 6956  10.702   2.945   9.710 -0.9343 -1.0645  0.5557
  793MOL0     C 6957  10.828   2.911   9.782 -0.3854 -0.3700  0.1961
  793MOL0     C 6958  10.942   2.916   9.684 -0.0777  0.2350 -1.0492
  793MOL0     C 6959  11.013   2.773   9.667  0.1509 -0.2494 -0.6399
  793MOL0     C 6960  11.086   2.765   9.533 -0.5987 -0.1093  0.5230
  793MOL0     C 6961  11.187   2.652   9.529 -0.5985 -0.5794  0.4806
  793MOL0     C 6962  11.120   2.513   9.529 -0.3610  0.3821  0.4077
  793MOL0     C 6963  10.993   2.493   9.448  0.0444  0.1487  0.1416
  793MOL0    Cl 6964  11.016   2.525   9.283 -0.3207  0.1796  0.2847
  793MOL0     C 6965  10.392   2.840   9.853  0.4364 -0.4220  0.0140
  793MOL0     C 6966  10.259   2.822   9.831  0.7521  0.8602  1.0257
  793MOL0     O 6967  10.036   2.883   9.471  0.4569  0.0312 -0.2939
  793MOL0     C 6968   9.816   2.740   9.720  0.0951 -1.0830 -0.3966
  793MOL0     C 6969   9.686   2.720   9.765  0.9645 -0.7645  0.2698
  793MOL0     N 6970   9.023   2.915  10.138 -0.1593  0.2233 -0.0175
  793MOL0     N 6971   8.997   3.008  10.222 -0.0322 -0.4192  0.7560
  793MOL0     C 6972   7.801   3.144  10.709  0.5428 -0.4593  0.3533
  793MOL0     C 6973   7.675   3.101  10.760  0.3245  0.2930  0.4989
  793MOL0     C 6974   7.341   3.133  11.075  0.8177  0.9334  0.5189
  793MOL0     C 6975   7.273   3.019  11.015 -0.7997 -0.1373 -0.5155
  793MOL0     C 6976   7.163   2.957  11.071  0.6806  0.6693  0.6973
  793MOL0     C 6977   7.121   2.983  11.193 -0.1555 -0.1541 -0.2558
  793MOL0     O 6978   7.007   2.915  11.224 -0.2206 -0.0284  0.1520
  793MOL0     C 6979   6.902   2.978  11.297 -0.5420  1.1145 -0.3026
  793MOL0     C 6980   6.851   2.895  11.409 -0.0359 -0.1702 -0.2947
  793MOL0     C 6981   6.920   2.918  11.546 -0.9502 -0.2343  0.3456
  793MOL0     C 6982   6.853   3.034  11.623  0.7178  0.8528 -0.3951
  793MOL0     C 6983   6.944   3.110  11.710  0.1353 -0.3556  0.6775
  793MOL0     C 6984   7.010   3.165  11.784 -0.4608  0.4665 -0.1659
  793MOL0     C 6985   7.183   3.085  11.266 -0.4194  0.6372 -0.4041
  793MOL0     C 6986   7.291   3.161  11.207 -0.0659  0.0268 -0.6567
  793MOL0     C 6987   7.351   3.270  11.288  0.6916 -0.7778  0.3519
  793MOL0     H 6988   7.509   3.383  10.792  0.2859  0.4562  0.8768
  793MOL0     H 6989   7.727   3.478  10.677  1.3000  0.6825  3.6164
  793MOL0     H 6990   8.075   3.152  10.615  2.3311 -0.2635 -0.3717
  793MOL0     H 6991   7.989   3.219  10.487 -1.2566 -0.2144  0.8426
  793MOL0     H 6992   8.211   3.334  10.653  4.2127 -0.5353 -0.6349
  793MOL0     H 6993   8.158   3.417  10.502 -3.2235  1.2581  3.2359
  793MOL0     H 6994   8.212   3.156  10.412 -1.5999  2.3143 -0.6792
  793MOL0     H 6995   8.287   3.131  10.570  3.1684  1.4893  1.0490
  793MOL0     H 6996   8.389   3.329  10.372 -1.1673  0.4995  0.0658
  793MOL0     H 6997   8.437   3.290  10.554 -0.7977 -0.2684  0.6042
  793MOL0     H 6998   8.536   3.076  10.462 -1.6390 -0.9826 -1.9801
  793MOL0     H 6999   8.451   3.106  10.313 -1.2115 -1.2364  0.5204
  793MOL0     H 7000   8.578   3.297  10.255  0.7843  1.5533 -0.8013
  793MOL0     H 7001   8.673   3.282  10.406  2.8493 -4.6090 -0.6608
  793MOL0     H 7002   8.677   3.062  10.192  2.1814 -1.5679 -0.0640
  793MOL0     H 7003   8.762   3.059  10.340 -0.5698 -0.8888 -0.8961
  793MOL0     H 7004   8.806   3.280  10.140 -0.9601  0.4262  0.1747
  793MOL0     H 7005   8.895   3.241  10.288 -1.6240 -3.3321  1.7680
  793MOL0     H 7006   8.870   3.118   9.929 -1.9140  1.8403  1.6318
  793MOL0     H 7007   9.001   2.774   9.908  1.1398  0.0945 -0.6023
  793MOL0     H 7008   8.966   2.898   9.798 -0.5660 -4.0997 -1.1762
  793MOL0     H 7009   9.196   2.984   9.836  1.8105 -0.6593 -4.3963
  793MOL0     H 7010   9.223   2.843   9.938 -0.4172  0.9200  0.8515
  793MOL0     H 7011   9.125   2.791   9.658  0.3256  2.1733  0.4649
  793MOL0     H 7012   9.208   2.680   9.765 -3.1739  0.5957  3.1661
  793MOL0     H 7013   9.350   2.927   9.667 -1.9408 -0.4116 -2.5652
  793MOL0     H 7014   9.329   2.795   9.561 -2.8054  1.8171 -0.6866
  793MOL0     H 7015   9.536   2.854   9.475  0.3283  2.0744  0.1961
  793MOL0     H 7016   9.780   2.914   9.430 -0.7143 -1.1555 -0.7501
  793MOL0     H 7017  10.231   2.994   9.536  1.4909 -0.2436 -0.2129
  793MOL0     H 7018  10.471   3.047   9.599 -0.7047 -0.9129 -1.0532
  793MOL0     H 7019  10.681   2.871   9.632 -1.8571  0.7693 -1.0270
  793MOL0     H 7020  10.710   3.043   9.661  2.4627 -0.8941  1.1704
  793MOL0     H 7021  10.845   2.975   9.869 -0.6638  0.4101 -0.3148
  793MOL0     H 7022  10.820   2.809   9.820 -0.3412 -1.4800 -2.4903
  793MOL0     H 7023  10.903   2.943   9.586 -0.6240 -0.0247 -0.9066
  793MOL0     H 7024  11.020   2.989   9.707  1.6255 -2.2245  1.8676
  793MOL0     H 7025  10.929   2.703   9.663 -1.2027  1.3155 -0.6928
  793MOL0     H 7026  11.072   2.738   9.753 -1.0100 -1.5197 -0.3431
  793MOL0     H 7027  11.134   2.860   9.510 -1.6216 -0.3043 -3.0705
  793MOL0     H 7028  11.020   2.754   9.447  2.0872  1.8796 -1.9558
  793MOL0     H 7029  11.227   2.650   9.427 -0.7627 -0.6357  0.4176
  793MOL0     H 7030  11.269   2.653   9.601 -0.2112 -1.5241  0.0654
  793MOL0     H 7031  11.098   2.497   9.635 -0.5353 -0.0001  0.3151
  793MOL0     H 7032  11.192   2.438   9.495  1.5728  3.4977 -2.9598
  793MOL0     H 7033  10.959   2.389   9.458  2.1583 -0.4792  1.3959
  793MOL0     H 7034  10.913   2.558   9.483  0.0560  2.1233 -3.1014
  793MOL0     H 7035  10.436   2.785   9.936  3.0636  2.2454  0.5589
  793MOL0     H 7036  10.203   2.749   9.889 -0.2203  0.0511 -0.8394
  793MOL0     H 7037   9.897   2.706   9.784  0.0815  1.0458  0.8169
  793MOL0     H 7038   9.660   2.662   9.853  1.6058 -2.2311 -0.4796
  793MOL0     H 7039   7.869   3.062  10.686 -1.5810 -2.1565 -0.2616
  793MOL0     H 7040   7.663   2.993  10.767 -1.4260  0.1845 -2.6398
  793MOL0     H 7041   7.303   2.989  10.915  0.9328  1.7026 -0.6255
  793MOL0     H 7042   7.110   2.891  11.003  1.0285 -0.0099  1.0826
  793MOL0     H 7043   6.827   3.002  11.220 -0.4832 -0.7752 -1.0086
  793MOL0     H 7044   6.930   3.075  11.339  1.3674 -0.1458  1.5000
  793MOL0     H 7045   6.872   2.790  11.385 -1.4053 -0.4556 -0.3138
  793MOL0     H 7046   6.744   2.913  11.419 -0.7485 -4.6114  4.6870
  793MOL0     H 7047   7.021   2.954  11.524 -0.9297 -0.1622  0.5554
  793MOL0     H 7048   6.930   2.824  11.602 -0.2469 -0.6173 -0.3912
  793MOL0     H 7049   6.790   3.107  11.572  0.5121  0.8941 -0.0894
  793MOL0     H 7050   6.787   2.979  11.692  6.1709 -3.5943  2.0555
  793MOL0     H 7051   7.057   3.208  11.870 -0.5480 -1.8426  1.1085
  793MOL0     H 7052   7.172   3.123  11.367 -0.5095  1.2882 -0.6533
  793MOL0     H 7053   7.376   3.362  11.236 -1.1672  0.2163  1.1055
  793MOL0     H 7054   7.283   3.305  11.367 -0.1336 -4.0542  1.2581
  793MOL0     H 7055   7.438   3.231  11.341  2.8966 -0.7766 -2.9648
  794MOL0     O 7056   4.590   6.877   0.873 -0.4286 -0.4416 -0.1455
  794MOL0     C 7057   4.560   6.763   0.849 -0.3851  0.0978  0.4814
  794MOL0     O 7058   4.600   6.689   0.739  0.5085 -0.3279 -0.7547
  794MOL0     C 7059   4.721   6.726   0.683 -0.0311  0.6237  0.6208
  794MOL0     C 7060   4.829   6.800   0.739 -0.3769  0.2655 -1.3703
  794MOL0     C 7061   4.946   6.816   0.660  0.2815  0.0042  0.0483
  794MOL0     C 7062   4.951   6.772   0.533  0.7289 -0.4480  0.0245
  794MOL0     O 7063   5.041   6.820   0.447  0.6859  0.6534 -0.5193
  794MOL0     C 7064   5.170   6.855   0.491 -0.6333 -0.1544  0.4200
  794MOL0     C 7065   5.270   6.854   0.376 -0.1383  0.3684 -0.0042
  794MOL0     C 7066   5.409   6.890   0.432  0.7349  0.4891  0.8385
  794MOL0     C 7067   5.423   7.031   0.472 -0.6994  0.3483 -0.1724
  794MOL0     C 7068   5.566   7.068   0.502 -0.0307 -0.3983 -0.6984
  794MOL0     C 7069   5.653   7.121   0.395 -0.5156  0.1740  0.2975
  794MOL0     C 7070   5.793   7.153   0.455 -1.0345 -0.7648 -0.3764
  794MOL0     C 7071   5.895   7.206   0.340 -0.1967 -0.0248  0.7495
  794MOL0     N 7072   5.947   7.105   0.239  0.0606  0.1317  0.0624
  794MOL0     C 7073   6.045   7.007   0.272  0.3745  0.7703  0.2617
  794MOL0     C 7074   6.104   6.968   0.156 -0.3621 -0.5837 -0.5934
  794MOL0     C 7075   6.216   6.873   0.143 -0.3704 -0.0081 -0.6942
  794MOL0     C 7076   6.354   6.938   0.135  0.9247 -0.0202  0.2724
  794MOL0     C 7077   6.380   7.004  -0.002  0.8282  0.0418 -0.0729
  794MOL0     C 7078   6.385   6.901  -0.116  1.6717  0.7431  0.2247
  794MOL0     O 7079   6.461   6.784  -0.072  0.5425 -0.0304  1.1570
  794MOL0     C 7080   6.596   6.772  -0.118  0.4295 -0.4089 -0.1110
  794MOL0     C 7081   6.674   6.882  -0.162 -0.0855  1.0250 -0.8345
  794MOL0     C 7082   6.801   6.860  -0.218 -0.6915  0.3114 -0.3147
  794MOL0     C 7083   6.859   6.737  -0.203 -0.6801  0.2064  0.5046
  794MOL0     C 7084   6.998   6.714  -0.266  0.4605 -0.4543 -0.3084
  794MOL0     O 7085   7.013   6.784  -0.384  1.2228  0.4187 -0.2247
  794MOL0     C 7086   7.126   6.772  -0.458 -0.0568  0.4110  0.4788
  794MOL0     C 7087   7.110   6.754  -0.594 -0.1225  0.3709 -0.1101
  794MOL0     C 7088   7.222   6.759  -0.676 -0.4538  0.4185 -0.4517
  794MOL0     C 7089   7.351   6.780  -0.617  0.1622  0.8853 -0.0363
  794MOL0     O 7090   7.470   6.791  -0.681 -0.0450  0.7249 -0.0090
  794MOL0     C 7091   7.469   6.793  -0.826 -0.2291  0.0356 -0.0664
  794MOL0     C 7092   7.618   6.824  -0.872 -0.6139  0.3205  0.3854
  794MOL0     C 7093   7.717   6.707  -0.834  0.5474 -0.3325  0.3988
  794MOL0     C 7094   7.858   6.758  -0.889  1.2102  0.2112 -0.5671
  794MOL0     C 7095   7.958   6.646  -0.858 -1.1273 -0.7586 -0.0709
  794MOL0     C 7096   8.104   6.716  -0.868  1.0823  0.6632 -0.3933
  794MOL0     C 7097   8.227   6.630  -0.837 -0.4026 -0.2671  0.7397
  794MOL0     C 7098   8.338   6.725  -0.796 -0.4109 -0.1071 -0.4794
  794MOL0    Cl 7099   8.483   6.624  -0.745 -0.3433  0.1537 -0.2697
  794MOL0     C 7100   7.360   6.790  -0.478 -0.4648  0.5975  0.3843
  794MOL0     C 7101   7.256   6.785  -0.400  0.9309  0.0881  0.1618
  794MOL0     O 7102   7.061   6.615  -0.239 -0.6964  0.2839  0.0815
  794MOL0     C 7103   6.787   6.627  -0.160 -0.0240 -0.0499  0.4745
  794MOL0     C 7104   6.660   6.645  -0.116  1.5042  0.4707  0.6758
  794MOL0     N 7105   6.053   7.040   0.051  0.2257  0.1463 -0.2834
  794MOL0     N 7106   5.959   7.128   0.103  0.4509 -0.1646  0.0709
  794MOL0     C 7107   4.843   6.695   0.484 -0.1630 -0.8899  0.6115
  794MOL0     C 7108   4.728   6.672   0.559  0.0211 -0.1871 -0.2746
  794MOL0     C 7109   4.458   6.706   0.942  0.6626 -0.0450  0.1088
  794MOL0     C 7110   4.341   6.783   0.972 -0.7025  0.3812 -0.2513
  794MOL0     C 7111   4.242   6.721   1.045 -0.0720 -0.3102 -0.7104
  794MOL0     C 7112   4.251   6.586   1.097 -0.0339 -0.9024  0.5030
  794MOL0     O 7113   4.153   6.542   1.179 -0.1219  0.6597  0.4039
  794MOL0     C 7114   4.139   6.400   1.204  0.2897 -0.7282 -0.7878
  794MOL0     C 7115   4.032   6.359   1.312 -0.0199 -0.2497 -0.4431
  794MOL0     C 7116   3.889   6.400   1.272 -0.6675 -0.5965 -0.3792
  794MOL0     C 7117   3.804   6.400   1.394 -0.4592 -0.9122  0.2370
  794MOL0     C 7118   3.671   6.452   1.371  0.2967 -0.0006  0.5602
  794MOL0     C 7119   3.564   6.502   1.344 -0.0214  0.5813  0.0104
  794MOL0     C 7120   4.373   6.512   1.076  0.2196  0.7924  0.2222
  794MOL0     C 7121   4.479   6.575   1.005  0.3755 -0.3094 -0.0779
  794MOL0     C 7122   4.610   6.492   0.986  0.2834  0.3357  0.2389
  794MOL0     H 7123   4.814   6.852   0.832 -0.7512  2.7621 -2.7358
  794MOL0     H 7124   5.025   6.868   0.713  2.1930 -2.3512 -0.3138
  794MOL0     H 7125   5.180   6.956   0.532  2.0481 -0.2087  0.0726
  794MOL0     H 7126   5.216   6.786   0.563  0.1864  0.0519  0.1029
  794MOL0     H 7127   5.251   6.925   0.295  0.0368  0.6139  0.1682
  794MOL0     H 7128   5.283   6.752   0.339  1.1407  0.3435  0.4505
  794MOL0     H 7129   5.473   6.883   0.344 -0.9298  0.4633 -0.4200
  794MOL0     H 7130   5.442   6.819   0.508  0.3453  0.0263  0.5873
  794MOL0     H 7131   5.397   7.097   0.389 -0.5314 -0.6486 -1.0346
  794MOL0     H 7132   5.369   7.040   0.567 -0.6843 -1.6974  0.0903
  794MOL0     H 7133   5.551   7.138   0.584 -0.8442  1.0413 -2.0237
  794MOL0     H 7134   5.602   6.982   0.559 -1.9760  0.9420  2.8656
  794MOL0     H 7135   5.647   7.050   0.311 -2.0091  1.7046 -0.9768
  794MOL0     H 7136   5.601   7.213   0.367  1.2422  1.1980  0.2552
  794MOL0     H 7137   5.853   7.068   0.490  2.1907  1.9354  1.1997
  794MOL0     H 7138   5.788   7.235   0.528  1.9820 -0.9575  0.1748
  794MOL0     H 7139   5.863   7.291   0.280 -0.9815 -1.3982 -0.8817
  794MOL0     H 7140   5.987   7.220   0.397 -0.9468  1.3461  1.6609
  794MOL0     H 7141   6.065   6.963   0.369 -1.6468  2.6538  1.6380
  794MOL0     H 7142   6.215   6.815   0.236 -2.2033  1.5785  0.3463
  794MOL0     H 7143   6.197   6.805   0.060  0.8017 -1.2041 -0.0229
  794MOL0     H 7144   6.355   7.015   0.212  1.3791 -1.0119  1.2765
  794MOL0     H 7145   6.429   6.862   0.159 -0.0203 -1.6979 -1.7049
  794MOL0     H 7146   6.477   7.054  -0.005 -0.0834  2.0078  1.1298
  794MOL0     H 7147   6.303   7.075  -0.033 -0.5499 -1.6057 -0.6327
  794MOL0     H 7148   6.424   6.945  -0.208  1.8787 -0.2244 -0.1610
  794MOL0     H 7149   6.289   6.858  -0.146  1.0922 -0.7600  3.7218
  794MOL0     H 7150   6.638   6.984  -0.164  0.9522  1.4780  0.9593
  794MOL0     H 7151   6.863   6.938  -0.260  1.5860 -2.2102 -1.9241
  794MOL0     H 7152   7.013   6.741  -0.641  0.8707 -2.7309 -1.6134
  794MOL0     H 7153   7.220   6.744  -0.784 -2.9379  1.5716 -0.6258
  794MOL0     H 7154   7.439   6.699  -0.874  0.9414 -0.9452  1.0420
  794MOL0     H 7155   7.410   6.875  -0.867 -0.5461  0.4599  1.2011
  794MOL0     H 7156   7.630   6.846  -0.978 -0.1546 -1.3907  0.0527
  794MOL0     H 7157   7.666   6.909  -0.822 -0.7369 -0.4233  1.8250
  794MOL0     H 7158   7.722   6.694  -0.725  0.8829 -1.9099  0.2180
  794MOL0     H 7159   7.692   6.613  -0.884 -3.0423  1.0904 -0.8236
  794MOL0     H 7160   7.885   6.845  -0.828 -0.6043 -0.0580  0.7148
  794MOL0     H 7161   7.844   6.787  -0.993  1.8288  1.8389 -0.2383
  794MOL0     H 7162   7.952   6.568  -0.934 -1.2893 -1.8991  1.0872
  794MOL0     H 7163   7.937   6.609  -0.758 -0.4850 -0.4852  0.1753
  794MOL0     H 7164   8.102   6.747  -0.973 -1.5300  2.7654  0.1837
  794MOL0     H 7165   8.111   6.790  -0.788  1.9805  2.2557 -1.8819
  794MOL0     H 7166   8.265   6.567  -0.918 -0.4242  0.1454  0.4031
  794MOL0     H 7167   8.196   6.565  -0.754 -1.5367 -0.0322  0.5222
  794MOL0     H 7168   8.373   6.791  -0.876 -0.4209 -0.8964 -1.1573
  794MOL0     H 7169   8.302   6.768  -0.703 -2.0282 -0.5107 -0.8895
  794MOL0     H 7170   7.458   6.801  -0.434 -0.3376  2.2836 -0.2596
  794MOL0     H 7171   7.258   6.790  -0.291 -2.0232 -0.9758  0.3258
  794MOL0     H 7172   6.835   6.530  -0.159  0.7061  0.2637 -1.2005
  794MOL0     H 7173   6.597   6.562  -0.086 -0.6275  1.0610 -1.7903
  794MOL0     H 7174   4.853   6.657   0.383 -1.0750  0.2664  0.0625
  794MOL0     H 7175   4.649   6.604   0.529  0.4588 -0.6156 -0.4755
  794MOL0     H 7176   4.329   6.883   0.932 -2.9339 -0.3034 -1.4404
  794MOL0     H 7177   4.159   6.787   1.064  2.8462  3.8812 -1.0508
  794MOL0     H 7178   4.237   6.369   1.242  0.6769 -1.3932 -2.2383
  794MOL0     H 7179   4.119   6.335   1.119  0.4603  0.2993 -1.6402
  794MOL0     H 7180   4.069   6.409   1.402  1.2365 -0.7695 -0.6454
  794MOL0     H 7181   4.028   6.251   1.331 -0.1019 -0.2184 -0.2858
  794MOL0     H 7182   3.847   6.339   1.192 -1.5478 -0.9306  0.3257
  794MOL0     H 7183   3.894   6.507   1.251  0.0053 -0.8535 -1.5822
  794MOL0     H 7184   3.802   6.297   1.432  0.8536 -1.2884 -0.6255
  794MOL0     H 7185   3.850   6.460   1.473  1.5700 -3.0416  0.7848
  794MOL0     H 7186   3.468   6.539   1.312 -0.0714 -0.8555 -1.6816
  794MOL0     H 7187   4.394   6.423   1.133 -3.1365 -0.3588 -0.1014
  794MOL0     H 7188   4.612   6.396   1.037 -1.3079  0.8220  1.2773
  794MOL0     H 7189   4.624   6.472   0.879  3.1480 -2.2891  0.9646
  794MOL0     H 7190   4.693   6.557   1.014  2.3658 -0.8937 -2.6127
  795MOL0     O 7191   2.193   1.454   0.435  0.7006 -0.5906 -0.6374
  795MOL0     C 7192   2.133   1.548   0.488 -0.1746 -0.2324 -0.4017
  795MOL0     O 7193   2.199   1.652   0.555  0.1785  0.3689 -0.4812
  795MOL0     C 7194   2.336   1.666   0.528  0.2000  0.6071 -0.0937
  795MOL0     C 7195   2.379   1.761   0.441  0.1833  0.3651  0.1910
  795MOL0     C 7196   2.515   1.756   0.405  0.6474 -0.2302  0.0702
  795MOL0     C 7197   2.612   1.666   0.456  0.7334 -0.3367  0.1974
  795MOL0     O 7198   2.741   1.646   0.408  0.0606  0.0725  0.0348
  795MOL0     C 7199   2.817   1.740   0.332  0.7003 -0.2164  0.2887
  795MOL0     C 7200   2.895   1.846   0.410  0.4189  0.1683  0.2993
  795MOL0     C 7201   3.039   1.845   0.362 -0.2565 -0.8883  0.0561
  795MOL0     C 7202   3.111   1.720   0.403 -0.6924  0.4770  0.3037
  795MOL0     C 7203   3.265   1.749   0.428 -0.1635 -0.3871 -1.4748
  795MOL0     C 7204   3.359   1.636   0.384  0.4344  0.3707 -0.9721
  795MOL0     C 7205   3.507   1.670   0.405 -0.4805 -0.1924  0.0545
  795MOL0     C 7206   3.554   1.765   0.302 -0.2567 -0.2384 -0.2055
  795MOL0     N 7207   3.693   1.801   0.328 -0.4536 -0.3142  0.8244
  795MOL0     C 7208   3.751   1.865   0.435  1.2597 -0.1152  0.3092
  795MOL0     C 7209   3.880   1.889   0.401  0.2536 -0.3799 -0.0687
  795MOL0     C 7210   3.988   1.973   0.472  0.2179  0.2084  0.6307
  795MOL0     C 7211   4.053   1.890   0.577 -0.2842 -0.0974 -0.0867
  795MOL0     C 7212   4.135   1.965   0.681 -0.0183 -0.6391 -0.4651
  795MOL0     C 7213   4.251   2.039   0.630  0.7584  0.1594  0.0555
  795MOL0     O 7214   4.288   2.109   0.748 -0.4554 -0.3565 -0.2644
  795MOL0     C 7215   4.412   2.164   0.756 -0.4686 -1.3510  0.7176
  795MOL0     C 7216   4.489   2.201   0.641 -0.1400 -1.4218 -1.0055
  795MOL0     C 7217   4.613   2.276   0.662  0.4514  0.6350 -0.3377
  795MOL0     C 7218   4.649   2.316   0.788  0.1442  0.0174  0.1314
  795MOL0     C 7219   4.769   2.403   0.799 -0.0720  0.2521 -0.2092
  795MOL0     O 7220   4.825   2.444   0.684 -0.6965 -0.2988  0.4826
  795MOL0     C 7221   4.952   2.498   0.692 -0.1938  0.0549  0.4569
  795MOL0     C 7222   5.053   2.452   0.773  0.3094  0.5993 -0.7605
  795MOL0     C 7223   5.189   2.500   0.774 -0.0490  0.0439  0.0186
  795MOL0     C 7224   5.221   2.608   0.692 -0.6219 -0.0749 -0.1586
  795MOL0     O 7225   5.360   2.652   0.676  0.1359  0.0763 -0.2339
  795MOL0     C 7226   5.394   2.749   0.574  0.4086 -0.0163 -0.2767
  795MOL0     C 7227   5.411   2.692   0.433 -0.7027 -0.3307 -1.1324
  795MOL0     C 7228   5.408   2.808   0.333  0.1682 -0.1391  0.6763
  795MOL0     C 7229   5.385   2.760   0.192  0.8219  0.2042  0.8444
  795MOL0     C 7230   5.235   2.724   0.154  0.0863 -0.1654 -0.0000
  795MOL0     C 7231   5.136   2.829   0.177  0.2611  0.2005 -0.6870
  795MOL0     C 7232   5.015   2.832   0.083 -0.0445  0.5980  0.5832
  795MOL0     C 7233   4.915   2.944   0.128 -0.2966  0.8815 -0.4885
  795MOL0    Cl 7234   4.794   2.961   0.006 -0.0291  0.1770 -0.1234
  795MOL0     C 7235   5.119   2.647   0.595  0.0770 -0.3426  0.2120
  795MOL0     C 7236   4.991   2.599   0.606  0.3447 -0.7639  0.2971
  795MOL0     O 7237   4.807   2.444   0.912 -0.1824  0.2792 -0.4992
  795MOL0     C 7238   4.572   2.276   0.896 -0.4596  0.1453 -0.3301
  795MOL0     C 7239   4.454   2.207   0.890 -0.0623  0.9326 -0.2010
  795MOL0     N 7240   3.895   1.841   0.271 -0.0012 -0.0427  0.6056
  795MOL0     N 7241   3.781   1.814   0.222  0.2068  0.4926  0.2536
  795MOL0     C 7242   2.567   1.569   0.553 -0.4425  0.4024  0.2959
  795MOL0     C 7243   2.432   1.576   0.584  0.8454  0.1456  0.1422
  795MOL0     C 7244   1.988   1.550   0.472  0.3821  0.3113  0.1046
  795MOL0     C 7245   1.929   1.673   0.499  0.4974 -0.2044  0.3209
  795MOL0     C 7246   1.796   1.699   0.497 -0.4756 -0.3719  0.7115
  795MOL0     C 7247   1.704   1.604   0.445  0.3394 -0.4014  0.9298
  795MOL0     O 7248   1.564   1.621   0.426 -0.2325  0.7394  0.4073
  795MOL0     C 7249   1.485   1.677   0.528  0.4059  0.4336 -0.4350
  795MOL0     C 7250   1.446   1.567   0.633 -0.5370 -0.6439 -0.2947
  795MOL0     C 7251   1.394   1.425   0.576  0.0749 -0.1697 -0.0343
  795MOL0     C 7252   1.245   1.418   0.536 -0.1999 -0.3109 -0.1732
  795MOL0     C 7253   1.148   1.447   0.640 -0.4181 -0.4926  1.0269
  795MOL0     C 7254   1.051   1.468   0.696  0.1596  0.2409 -0.2978
  795MOL0     C 7255   1.760   1.479   0.406  0.5252 -1.0325  0.1332
  795MOL0     C 7256   1.896   1.446   0.433 -0.6227  0.2268  0.8619
  795MOL0     C 7257   1.943   1.310   0.400  0.0601 -0.0912  0.1522
  795MOL0     H 7258   2.318   1.828   0.381  2.2534  0.9367 -1.4397
  795MOL0     H 7259   2.545   1.827   0.329  1.3164  1.6965  2.0431
  795MOL0     H 7260   2.880   1.688   0.260 -0.9311 -2.1271  0.1667
  795MOL0     H 7261   2.752   1.802   0.269  1.3399  1.5176  1.2570
  795MOL0     H 7262   2.880   1.829   0.517 -0.5704 -3.8501 -0.3001
  795MOL0     H 7263   2.853   1.944   0.387 -0.6638 -0.7267 -1.8294
  795MOL0     H 7264   3.092   1.932   0.403 -1.9120 -0.5956  1.7802
  795MOL0     H 7265   3.039   1.855   0.253 -1.6028 -0.6989  0.0549
  795MOL0     H 7266   3.070   1.683   0.498 -0.4560  0.1005  0.2627
  795MOL0     H 7267   3.107   1.637   0.332  0.5935  0.8070 -0.1937
  795MOL0     H 7268   3.293   1.833   0.363 -0.8003 -1.1862 -2.8315
  795MOL0     H 7269   3.280   1.777   0.532  1.9199 -0.0200 -1.8285
  795MOL0     H 7270   3.338   1.542   0.436  0.1005  1.2406  0.5315
  795MOL0     H 7271   3.339   1.608   0.280  0.1009 -1.8324 -0.3604
  795MOL0     H 7272   3.577   1.587   0.395  1.3759  1.1385  1.2698
  795MOL0     H 7273   3.525   1.697   0.509 -2.5072 -1.9710  0.9296
  795MOL0     H 7274   3.561   1.723   0.201  0.1726  0.7532 -0.5974
  795MOL0     H 7275   3.496   1.858   0.301  2.1172  1.3669  1.2692
  795MOL0     H 7276   3.696   1.889   0.525  0.7696  2.3655 -0.5547
  795MOL0     H 7277   4.067   2.007   0.405  0.5764 -1.4254  0.1759
  795MOL0     H 7278   3.942   2.057   0.524 -1.0334  0.0487 -0.1635
  795MOL0     H 7279   3.978   1.831   0.630 -1.3434  0.2582 -1.1444
  795MOL0     H 7280   4.114   1.808   0.537  0.8554 -0.1659  1.6563
  795MOL0     H 7281   4.180   1.899   0.756  1.7481  2.1449  1.0866
  795MOL0     H 7282   4.066   2.038   0.725 -0.5046 -2.2992  1.7377
  795MOL0     H 7283   4.223   2.108   0.550 -1.2815  3.0378  3.0262
  795MOL0     H 7284   4.324   1.970   0.586  3.1602  1.0268  2.3737
  795MOL0     H 7285   4.453   2.171   0.543 -3.4367 -3.9230  0.7835
  795MOL0     H 7286   4.675   2.306   0.578 -1.5995  2.3705 -1.3233
  795MOL0     H 7287   5.023   2.358   0.820 -1.3236  0.4592 -1.9843
  795MOL0     H 7288   5.264   2.439   0.825  0.4916  0.2678 -0.5006
  795MOL0     H 7289   5.319   2.828   0.572  2.0847  1.6397  0.0251
  795MOL0     H 7290   5.483   2.801   0.612 -1.0696  0.9156  2.1880
  795MOL0     H 7291   5.505   2.636   0.426  0.4927  1.0628  1.9878
  795MOL0     H 7292   5.332   2.620   0.410 -0.1524 -0.6429 -2.1167
  795MOL0     H 7293   5.331   2.878   0.367  0.8926 -0.5417  3.3532
  795MOL0     H 7294   5.502   2.864   0.337  0.1797  0.0346 -1.1850
  795MOL0     H 7295   5.444   2.671   0.171  1.0107  1.1007 -3.3837
  795MOL0     H 7296   5.423   2.840   0.127  0.1462  0.3953  0.6706
  795MOL0     H 7297   5.189   2.631   0.191  1.2203  0.2126  2.4992
  795MOL0     H 7298   5.239   2.695   0.048  2.6945 -2.1860  0.5436
  795MOL0     H 7299   5.095   2.809   0.276  0.6496 -2.6435 -1.0068
  795MOL0     H 7300   5.183   2.927   0.187  2.5919 -0.8388 -0.8700
  795MOL0     H 7301   4.973   2.734   0.059 -0.6531  0.9707  0.0794
  795MOL0     H 7302   5.048   2.869  -0.015  0.0621 -0.1749  0.3148
  795MOL0     H 7303   4.877   2.924   0.228 -0.0355  0.9156 -0.3842
  795MOL0     H 7304   4.963   3.042   0.136  1.7757 -0.0703 -0.6424
  795MOL0     H 7305   5.133   2.723   0.519  0.1593 -0.0803  0.4905
  795MOL0     H 7306   4.915   2.637   0.538  2.2510  1.2943 -0.7796
  795MOL0     H 7307   4.609   2.308   0.992 -1.6896  2.3046 -0.5225
  795MOL0     H 7308   4.389   2.178   0.972 -0.9833 -1.9229 -1.8259
  795MOL0     H 7309   2.627   1.493   0.601 -1.7368 -1.2581 -0.6115
  795MOL0     H 7310   2.397   1.509   0.663 -2.5104  2.2692  0.6644
  795MOL0     H 7311   1.982   1.760   0.535 -0.7278  0.7879 -0.1792
  795MOL0     H 7312   1.765   1.802   0.511  1.2043  0.0234  1.7751
  795MOL0     H 7313   1.396   1.714   0.475  0.2209 -1.4037 -1.4779
  795MOL0     H 7314   1.541   1.759   0.574  0.6515 -1.0829  2.1746
  795MOL0     H 7315   1.370   1.600   0.704 -1.6690 -2.6005 -0.5292
  795MOL0     H 7316   1.539   1.550   0.688 -0.7848  0.7172  0.5977
  795MOL0     H 7317   1.399   1.345   0.650  2.1768  0.1038  0.1902
  795MOL0     H 7318   1.448   1.397   0.485 -1.1949 -0.5233 -0.7007
  795MOL0     H 7319   1.231   1.465   0.438  0.7529 -0.0245 -0.1850
  795MOL0     H 7320   1.232   1.316   0.499  0.4359 -1.4811  2.6180
  795MOL0     H 7321   0.952   1.477   0.735  0.1598 -0.9915  0.0432
  795MOL0     H 7322   1.695   1.404   0.362 -1.2879 -0.2247  1.3139
  795MOL0     H 7323   1.852   1.248   0.400  0.4052 -0.6247  1.2086
  795MOL0     H 7324   1.984   1.306   0.298 -0.0451  0.3661  0.0929
  795MOL0     H 7325   2.008   1.275   0.481 -1.2656  1.7548  2.1064
  796MOL0     O 7326   0.460  10.697  10.125 -0.4207  0.0060  0.4691
  796MOL0     C 7327   0.361  10.643  10.071  0.7008  0.1196 -0.1941
  796MOL0     O 7328   0.360  10.596   9.943  0.5865 -0.5690 -0.2114
  796MOL0     C 7329   0.477  10.612   9.871  0.4930  0.3172 -0.4242
  796MOL0     C 7330   0.561  10.513   9.845 -0.6244 -0.1223 -0.9473
  796MOL0     C 7331   0.681  10.543   9.779 -0.6771 -0.4848  0.5822
  796MOL0     C 7332   0.711  10.670   9.729  0.0698 -0.1511  0.0073
  796MOL0     O 7333   0.818  10.704   9.652  0.8013  0.1355 -0.0560
  796MOL0     C 7334   0.929  10.609   9.644  0.1643 -0.1804  0.4489
  796MOL0     C 7335   1.030  10.651   9.532 -0.4131  0.2918 -0.0617
  796MOL0     C 7336   1.181  10.605   9.557  1.4713 -0.4447 -0.2901
  796MOL0     C 7337   1.262  10.626   9.429 -0.4558 -0.3071 -0.0189
  796MOL0     C 7338   1.412  10.597   9.457  1.1531 -0.8935  0.4521
  796MOL0     C 7339   1.489  10.592   9.331  0.6680  0.5676 -0.2662
  796MOL0     C 7340   1.636  10.552   9.353 -0.3163  0.2469 -0.3318
  796MOL0     C 7341   1.728  10.665   9.416  0.6383  0.1334  0.6933
  796MOL0     N 7342   1.862  10.621   9.435  0.0337  0.2773 -1.7917
  796MOL0     C 7343   1.909  10.568   9.555 -0.9454 -0.7181  0.7850
  796MOL0     C 7344   2.040  10.545   9.533  0.2723 -0.1575 -0.2993
  796MOL0     C 7345   2.142  10.481   9.636  0.8615  0.4069  0.7020
  796MOL0     C 7346   2.090  10.365   9.711 -0.8358 -0.5683 -0.4877
  796MOL0     C 7347   2.036  10.250   9.623  0.2033 -0.2954  0.0743
  796MOL0     C 7348   1.951  10.148   9.702  0.1490 -0.1092  0.4268
  796MOL0     O 7349   2.033  10.077   9.798 -0.6548  0.1730 -0.4202
  796MOL0     C 7350   1.977   9.976   9.870 -0.4138 -0.0454  0.0877
  796MOL0     C 7351   1.844   9.981   9.912 -0.5353  0.8998 -0.5865
  796MOL0     C 7352   1.780   9.879   9.981  0.3379  0.6258  0.1481
  796MOL0     C 7353   1.850   9.754  10.005  0.3099  0.4968 -0.1534
  796MOL0     C 7354   1.789   9.640  10.079 -0.3004 -0.1544 -0.4559
  796MOL0     O 7355   1.661   9.666  10.129 -0.2272  0.5588 -0.1569
  796MOL0     C 7356   1.578   9.575  10.191  0.4252 -0.4428 -0.0420
  796MOL0     C 7357   1.588   9.437  10.203  0.4896 -0.2583 -0.5699
  796MOL0     C 7358   1.487   9.355  10.252 -0.5473  0.2489  0.1880
  796MOL0     C 7359   1.372   9.414  10.305  0.7868  0.0903  1.5103
  796MOL0     O 7360   1.265   9.332  10.344 -0.1293 -0.5300 -0.1214
  796MOL0     C 7361   1.195   9.292  10.230 -0.7766  0.3826  0.1382
  796MOL0     C 7362   1.061   9.234  10.284  0.1371  0.0347 -0.0892
  796MOL0     C 7363   1.057   9.093  10.349 -0.9817  0.3467 -0.2025
  796MOL0     C 7364   1.125   9.091  10.485  0.3531 -0.1051 -0.1347
  796MOL0     C 7365   1.094   8.957  10.545 -1.1776  0.0566 -0.1339
  796MOL0     C 7366   1.163   8.839  10.476  0.0601 -0.2748  0.2778
  796MOL0     C 7367   1.164   8.716  10.549  0.4255  0.6644 -1.4579
  796MOL0     C 7368   1.037   8.620  10.515 -0.6094 -0.5432 -0.7879
  796MOL0    Cl 7369   1.087   8.456  10.575 -0.4342  0.1730 -0.6847
  796MOL0     C 7370   1.357   9.549  10.302  0.4099 -0.4819  0.5925
  796MOL0     C 7371   1.459   9.629  10.240 -0.3131 -0.6384 -0.8407
  796MOL0     O 7372   1.844   9.530  10.093  0.2326  0.4637  0.1174
  796MOL0     C 7373   1.988   9.757   9.965  0.5483  0.5193  0.6492
  796MOL0     C 7374   2.042   9.866   9.898 -1.0875 -0.7846  0.8523
  796MOL0     N 7375   2.073  10.572   9.404 -0.3562 -0.3080  0.3639
  796MOL0     N 7376   1.969  10.621   9.347  0.4302 -0.6019  0.3464
  796MOL0     C 7377   0.618  10.772   9.767  0.4356  0.5850 -0.5096
  796MOL0     C 7378   0.499  10.748   9.835  0.1823  0.7615  0.2196
  796MOL0     C 7379   0.244  10.629  10.157 -0.7215 -0.1316  0.4080
  796MOL0     C 7380   0.261  10.620  10.294  0.1946  0.5357  0.0600
  796MOL0     C 7381   0.155  10.578  10.383  1.1933 -1.3026  0.0644
  796MOL0     C 7382   0.034  10.554  10.330  0.0469  0.1264 -1.1944
  796MOL0     O 7383  -0.065  10.514  10.400 -0.0583 -0.4476  0.0559
  796MOL0     C 7384  -0.055  10.520  10.544  0.2537 -0.9537 -0.0658
  796MOL0     C 7385  -0.199  10.525  10.592 -0.1066 -0.5729 -0.2707
  796MOL0     C 7386  -0.273  10.391  10.553  0.1215 -0.0420 -0.2861
  796MOL0     C 7387  -0.420  10.400  10.558  0.2352 -0.1992 -1.2463
  796MOL0     C 7388  -0.462  10.429  10.699  1.2582 -0.5068  0.0164
  796MOL0     C 7389  -0.515  10.445  10.810  0.2606  0.2978  0.7204
  796MOL0     C 7390   0.010  10.551  10.197 -0.3667  0.0956 -0.1772
  796MOL0     C 7391   0.117  10.591  10.110 -0.2673 -0.2968  0.6683
  796MOL0     C 7392   0.076  10.573   9.962  0.1308  0.2524 -0.0920
  796MOL0     H 7393   0.533  10.413   9.875 -3.4784  1.1923  1.2626
  796MOL0     H 7394   0.749  10.465   9.745 -1.3708 -0.9962  0.3349
  796MOL0     H 7395   0.987  10.604   9.737  1.8397 -0.9746 -0.5865
  796MOL0     H 7396   0.893  10.510   9.613 -0.5982  1.1903 -3.7183
  796MOL0     H 7397   1.032  10.760   9.524 -1.2856  0.2172 -1.8472
  796MOL0     H 7398   1.000  10.605   9.437  0.8631 -2.6093  0.8336
  796MOL0     H 7399   1.175  10.503   9.595 -0.7558 -0.7142 -1.1705
  796MOL0     H 7400   1.212  10.669   9.641  1.2381  3.4774 -2.8973
  796MOL0     H 7401   1.222  10.569   9.344 -0.3262 -2.4301  1.2749
  796MOL0     H 7402   1.249  10.734   9.418 -0.9596 -0.2693  0.8536
  796MOL0     H 7403   1.446  10.670   9.532 -0.9298  0.4522  0.1543
  796MOL0     H 7404   1.424  10.501   9.508  0.4709 -1.4640 -0.4489
  796MOL0     H 7405   1.442  10.519   9.263  1.4408 -0.3655  0.1710
  796MOL0     H 7406   1.475  10.688   9.282  0.1594 -0.0549 -1.3914
  796MOL0     H 7407   1.673  10.540   9.251 -0.1278  1.6445 -0.4483
  796MOL0     H 7408   1.647  10.458   9.408  0.7502  0.2806 -0.4700
  796MOL0     H 7409   1.731  10.738   9.334  0.1125  0.2118  0.7362
  796MOL0     H 7410   1.686  10.719   9.502 -1.1819 -0.4938  0.2547
  796MOL0     H 7411   1.855  10.559   9.648 -3.5462 -2.0277 -0.7531
  796MOL0     H 7412   2.231  10.455   9.577  0.0654  1.8176 -1.2168
  796MOL0     H 7413   2.178  10.557   9.705 -0.2558  1.5720  0.0365
  796MOL0     H 7414   2.164  10.330   9.784  2.8294 -0.6852 -3.9355
  796MOL0     H 7415   1.997  10.393   9.762 -2.2847 -3.1867 -1.4435
  796MOL0     H 7416   2.118  10.201   9.570 -1.7822 -1.3362 -2.2676
  796MOL0     H 7417   1.975  10.289   9.541 -0.2773 -0.7662  0.1987
  796MOL0     H 7418   1.908  10.077   9.632  0.2670 -0.3397  0.5883
  796MOL0     H 7419   1.864  10.200   9.744 -0.2114 -0.1556 -0.2569
  796MOL0     H 7420   1.781  10.070   9.910 -4.4737 -1.3868  3.8091
  796MOL0     H 7421   1.673   9.880   9.997  0.4881  1.6327  1.2660
  796MOL0     H 7422   1.682   9.384  10.190 -1.2501 -3.9706  0.5650
  796MOL0     H 7423   1.506   9.252  10.279  0.8752  1.0801  2.8105
  796MOL0     H 7424   1.176   9.378  10.164 -1.2783  2.2170  2.5303
  796MOL0     H 7425   1.262   9.226  10.174 -0.0043  1.4155 -0.2011
  796MOL0     H 7426   1.015   9.302  10.356 -1.2133 -1.6269  0.6996
  796MOL0     H 7427   0.996   9.232  10.196  0.0840  1.4082 -0.1036
  796MOL0     H 7428   0.953   9.060  10.355 -1.6738  2.0746 -1.5957
  796MOL0     H 7429   1.088   9.015  10.279 -2.1832 -0.4807  0.1481
  796MOL0     H 7430   1.089   9.159  10.562 -1.1918 -0.1485 -0.7802
  796MOL0     H 7431   1.233   9.099  10.472  0.2081  1.0737 -0.7095
  796MOL0     H 7432   0.989   8.937  10.567 -0.5512 -1.9846  1.2493
  796MOL0     H 7433   1.153   8.969  10.636  0.6126 -0.1951 -1.2237
  796MOL0     H 7434   1.107   8.833  10.382  2.4451  0.9652 -1.3264
  796MOL0     H 7435   1.264   8.864  10.441  0.3100  0.0188  1.1799
  796MOL0     H 7436   1.155   8.732  10.657 -0.8998 -3.0642 -0.8565
  796MOL0     H 7437   1.251   8.654  10.523  1.1133  1.2222 -0.5546
  796MOL0     H 7438   0.947   8.656  10.567  0.8657  1.2220  0.6788
  796MOL0     H 7439   1.020   8.614  10.407  2.4437  0.4897 -1.4256
  796MOL0     H 7440   1.258   9.590  10.324  0.5403 -0.5228  1.2819
  796MOL0     H 7441   1.435   9.735  10.241 -1.3175 -0.6884  3.8553
  796MOL0     H 7442   2.048   9.672   9.996  2.7300  2.2986  1.5706
  796MOL0     H 7443   2.141   9.867   9.855 -1.3068 -0.3877  0.3422
  796MOL0     H 7444   0.622  10.878   9.744 -1.0183  0.6219 -0.7178
  796MOL0     H 7445   0.426  10.825   9.858 -0.4553  0.8722 -1.8729
  796MOL0     H 7446   0.358  10.645  10.338  2.2317  1.2295 -4.3085
  796MOL0     H 7447   0.175  10.580  10.490  0.4538 -1.4131  0.2121
  796MOL0     H 7448  -0.003  10.608  10.583  2.0567 -2.5599  1.3389
  796MOL0     H 7449  -0.012  10.426  10.581 -0.4152 -0.0206  3.4960
  796MOL0     H 7450  -0.247  10.612  10.546 -0.0094 -1.6455 -2.5647
  796MOL0     H 7451  -0.208  10.539  10.700  2.2470  2.6614 -0.3463
  796MOL0     H 7452  -0.227  10.314  10.614  0.6564  0.5166  0.0309
  796MOL0     H 7453  -0.243  10.342  10.460  0.4887 -0.8378  0.2366
  796MOL0     H 7454  -0.450  10.480  10.490  0.5438  2.0126  1.0644
  796MOL0     H 7455  -0.469  10.305  10.534  0.5131 -2.0799  4.1376
  796MOL0     H 7456  -0.548  10.471  10.908 -1.4101 -1.3166  0.6351
  796MOL0     H 7457  -0.086  10.521  10.157  0.0037  0.3908 -1.3355
  796MOL0     H 7458   0.131  10.648   9.904 -3.8349  1.8207 -2.1691
  796MOL0     H 7459   0.106  10.471   9.933  2.2775  0.7008  0.3788
  796MOL0     H 7460  -0.029  10.598   9.946  0.8325  4.8686  1.1653
  797MOL0     O 7461   9.689   0.926   1.221 -0.1535  0.1878 -1.1342
  797MOL0     C 7462   9.576   0.975   1.202 -1.2727 -0.0671 -0.5668
  797MOL0     O 7463   9.545   1.099   1.232  0.3125  0.0806 -0.3589
  797MOL0     C 7464   9.641   1.187   1.193 -0.5427 -0.0308 -0.4187
  797MOL0     C 7465   9.750   1.221   1.283  0.8981 -0.5071 -0.1555
  797MOL0     C 7466   9.854   1.293   1.235 -0.8272  1.3334  0.1372
  797MOL0     C 7467   9.858   1.334   1.098  0.0302  0.8953 -0.2881
  797MOL0     O 7468   9.960   1.408   1.045  0.0036  0.5812  0.4727
  797MOL0     C 7469  10.097   1.360   1.061  0.0991 -0.8341 -0.0356
  797MOL0     C 7470  10.172   1.369   0.930 -1.0149 -0.2984 -0.9763
  797MOL0     C 7471  10.322   1.368   0.956  0.0128 -0.0820 -1.1083
  797MOL0     C 7472  10.398   1.371   0.818  0.1823  0.4663 -0.6364
  797MOL0     C 7473  10.549   1.381   0.823  0.0865 -0.2337  0.8611
  797MOL0     C 7474  10.593   1.381   0.676 -0.3301  0.0069  0.0676
  797MOL0     C 7475  10.748   1.392   0.684 -0.6778 -0.0081  0.1491
  797MOL0     C 7476  10.801   1.397   0.542  0.2845  0.2775 -0.3096
  797MOL0     N 7477  10.940   1.347   0.542  0.2315  0.2122  0.0070
  797MOL0     C 7478  11.049   1.431   0.518 -0.3521  0.6924  0.2441
  797MOL0     C 7479  11.157   1.362   0.566  0.2959 -0.4840  0.6903
  797MOL0     C 7480  11.295   1.421   0.582 -0.3577 -0.0776  0.1935
  797MOL0     C 7481  11.385   1.377   0.469  0.7111 -0.1491  0.2711
  797MOL0     C 7482  11.531   1.422   0.485 -0.4142  0.1550  0.6749
  797MOL0     C 7483  11.628   1.345   0.398  0.5170  0.0854  0.8679
  797MOL0     O 7484  11.752   1.404   0.420  0.1597  0.3669 -0.4573
  797MOL0     C 7485  11.859   1.327   0.461  0.1483  0.6543  0.6615
  797MOL0     C 7486  11.845   1.224   0.547 -0.0893  0.5379  0.2493
  797MOL0     C 7487  11.953   1.143   0.575  0.2631 -0.0115 -0.2387
  797MOL0     C 7488  12.088   1.165   0.540  0.4788  0.3900 -0.7224
  797MOL0     C 7489  12.205   1.097   0.592 -0.7068 -0.4689  0.2596
  797MOL0     O 7490  12.322   1.108   0.526 -0.0704  0.1859  1.2311
  797MOL0     C 7491  12.442   1.072   0.575 -0.7382  0.6736  0.9822
  797MOL0     C 7492  12.531   1.005   0.491  0.3129  0.4740  0.1080
  797MOL0     C 7493  12.669   0.999   0.529 -0.5089 -0.2767 -0.1583
  797MOL0     C 7494  12.716   1.041   0.654  0.1264  0.0531  0.4476
  797MOL0     O 7495  12.846   1.037   0.691 -0.0014 -0.3431  0.8464
  797MOL0     C 7496  12.943   1.053   0.593 -1.2343  0.2206  0.3611
  797MOL0     C 7497  13.080   1.061   0.660  1.1672 -0.8469  0.2727
  797MOL0     C 7498  13.103   0.958   0.777  0.4486 -0.0826  0.1324
  797MOL0     C 7499  13.253   0.957   0.810  0.1726  0.3149 -0.5097
  797MOL0     C 7500  13.315   0.837   0.882 -0.2826 -0.8000  0.4326
  797MOL0     C 7501  13.445   0.868   0.961 -0.0462 -0.7175 -0.1755
  797MOL0     C 7502  13.560   0.907   0.875  0.6828  0.1102 -0.4098
  797MOL0     C 7503  13.681   0.972   0.942 -0.1199 -0.1014  0.1260
  797MOL0    Cl 7504  13.768   0.866   1.054  0.2923  0.4675 -0.6614
  797MOL0     C 7505  12.625   1.098   0.738  0.0830 -0.6715  0.1522
  797MOL0     C 7506  12.488   1.110   0.698 -0.6879 -1.0473 -0.0704
  797MOL0     O 7507  12.194   1.038   0.696  0.5198  0.1074 -0.4529
  797MOL0     C 7508  12.099   1.280   0.461  0.5191  0.5481 -0.5639
  797MOL0     C 7509  11.987   1.349   0.414 -0.5099 -0.3145  0.8596
  797MOL0     N 7510  11.116   1.234   0.613  0.9899 -1.2613  0.0298
  797MOL0     N 7511  10.981   1.229   0.601 -0.2087  0.3978 -0.5036
  797MOL0     C 7512   9.744   1.309   1.019 -0.1534 -0.2269  0.5634
  797MOL0     C 7513   9.638   1.233   1.062 -0.0631  0.5335 -0.1461
  797MOL0     C 7514   9.463   0.894   1.152 -0.2016 -0.6708 -0.2614
  797MOL0     C 7515   9.339   0.957   1.146  0.6634  0.3042  0.3019
  797MOL0     C 7516   9.225   0.899   1.082 -0.2494 -0.4127 -0.3584
  797MOL0     C 7517   9.239   0.773   1.019 -0.4374 -0.6952  0.8136
  797MOL0     O 7518   9.142   0.705   0.935 -0.0084  0.4608 -0.9045
  797MOL0     C 7519   9.038   0.777   0.873  0.1845 -0.2176  0.1011
  797MOL0     C 7520   9.072   0.857   0.737 -0.5122 -0.4015  0.2514
  797MOL0     C 7521   9.108   0.751   0.628  0.1878 -0.1507  0.5353
  797MOL0     C 7522   9.182   0.806   0.504  0.4690  1.0711  0.6732
  797MOL0     C 7523   9.079   0.868   0.415 -1.3255  0.1826  0.6269
  797MOL0     C 7524   9.009   0.919   0.333  0.5257 -0.7272  0.0975
  797MOL0     C 7525   9.357   0.706   1.047  1.0102  0.1026  0.2661
  797MOL0     C 7526   9.461   0.758   1.123  0.6954 -0.3481 -0.2993
  797MOL0     C 7527   9.581   0.674   1.153 -0.5696 -0.1287  0.6660
  797MOL0     H 7528   9.741   1.198   1.389 -1.0624 -1.3894 -0.4597
  797MOL0     H 7529   9.946   1.304   1.291  0.9837 -2.9802 -1.5730
  797MOL0     H 7530  10.129   1.411   1.152 -0.8898 -1.8230  0.9002
  797MOL0     H 7531  10.087   1.254   1.087 -2.3143 -0.3191  1.5815
  797MOL0     H 7532  10.144   1.459   0.875  1.6519  2.2063  1.4247
  797MOL0     H 7533  10.156   1.278   0.872  1.2565 -1.5879  0.2957
  797MOL0     H 7534  10.348   1.276   1.008 -2.3805 -0.1271  0.1450
  797MOL0     H 7535  10.343   1.457   1.017 -1.6765 -0.6203  0.3514
  797MOL0     H 7536  10.365   1.283   0.761 -1.8648 -2.5849  4.5905
  797MOL0     H 7537  10.355   1.448   0.753 -1.0624 -0.4350 -0.9196
  797MOL0     H 7538  10.586   1.468   0.879 -0.0243  0.2383  0.2174
  797MOL0     H 7539  10.578   1.289   0.874 -4.0451 -2.9306 -1.1074
  797MOL0     H 7540  10.564   1.293   0.618 -1.5455  1.2304 -1.2343
  797MOL0     H 7541  10.546   1.459   0.615 -1.6595 -2.4159 -2.2043
  797MOL0     H 7542  10.798   1.315   0.743  0.9437  0.0541 -1.0675
  797MOL0     H 7543  10.764   1.489   0.732 -5.3141  0.4802  1.1728
  797MOL0     H 7544  10.760   1.331   0.466  1.6305  0.0344 -0.8493
  797MOL0     H 7545  10.799   1.500   0.506 -0.2817 -0.2445 -1.8485
  797MOL0     H 7546  11.040   1.529   0.472  1.5416  0.3634 -0.9455
  797MOL0     H 7547  11.280   1.529   0.588 -1.4184  0.1834 -3.8545
  797MOL0     H 7548  11.340   1.382   0.674 -0.9960  0.2808  0.6634
  797MOL0     H 7549  11.386   1.268   0.467  1.2160 -0.1951 -3.4220
  797MOL0     H 7550  11.360   1.416   0.370  1.3763 -0.7262 -0.1327
  797MOL0     H 7551  11.559   1.415   0.591  1.7370  0.7944  0.2109
  797MOL0     H 7552  11.538   1.531   0.477  0.4466 -0.0271 -2.8605
  797MOL0     H 7553  11.600   1.364   0.294  1.2973  2.0040  0.9638
  797MOL0     H 7554  11.620   1.238   0.422 -1.5947 -0.1632 -0.6529
  797MOL0     H 7555  11.750   1.196   0.592  1.2985 -1.3196  2.2390
  797MOL0     H 7556  11.940   1.062   0.646  0.4320 -1.8921 -2.2927
  797MOL0     H 7557  12.512   0.980   0.387  4.2103  2.2386 -1.2070
  797MOL0     H 7558  12.738   0.947   0.464 -1.7663 -2.2353 -0.0072
  797MOL0     H 7559  12.952   0.960   0.537  0.7171  0.6375 -0.0577
  797MOL0     H 7560  12.917   1.136   0.526 -0.5600  0.0408 -0.1287
  797MOL0     H 7561  13.158   1.052   0.584 -0.5049  0.4120 -1.6949
  797MOL0     H 7562  13.092   1.156   0.713  0.9943 -1.6839  1.8797
  797MOL0     H 7563  13.045   0.985   0.866  0.1471 -3.2028  1.0126
  797MOL0     H 7564  13.076   0.858   0.741  2.7736 -0.9515  0.6078
  797MOL0     H 7565  13.285   1.043   0.869 -0.9829 -0.1860  0.8797
  797MOL0     H 7566  13.311   0.969   0.717 -0.3243 -0.3919 -0.9222
  797MOL0     H 7567  13.334   0.748   0.822 -5.0564 -0.8611 -1.4343
  797MOL0     H 7568  13.243   0.816   0.962  0.0652  1.2455  1.3704
  797MOL0     H 7569  13.425   0.944   1.036 -0.6057 -0.3880 -0.6512
  797MOL0     H 7570  13.475   0.780   1.020  2.3978 -1.3146 -2.1059
  797MOL0     H 7571  13.515   0.980   0.808 -1.4917 -1.3499 -0.6734
  797MOL0     H 7572  13.588   0.815   0.822 -0.9297 -1.7008  1.6769
  797MOL0     H 7573  13.753   0.990   0.861 -1.2442 -0.0464 -0.8870
  797MOL0     H 7574  13.653   1.063   0.997 -1.3235  1.7799 -3.2791
  797MOL0     H 7575  12.669   1.134   0.831  1.7897  0.5386 -1.0610
  797MOL0     H 7576  12.421   1.147   0.775 -2.4179 -0.5748 -1.7398
  797MOL0     H 7577  12.193   1.330   0.441  0.4810  0.6638 -0.4591
  797MOL0     H 7578  12.008   1.436   0.352  2.0346 -2.7087 -1.9130
  797MOL0     H 7579   9.733   1.343   0.916 -0.1131  1.6925  1.1602
  797MOL0     H 7580   9.562   1.208   0.989  1.7168  0.3810 -2.0246
  797MOL0     H 7581   9.323   1.053   1.195 -1.8713 -0.7087  1.6014
  797MOL0     H 7582   9.137   0.962   1.086 -0.3075 -0.4746 -0.6289
  797MOL0     H 7583   8.984   0.847   0.937 -2.7118 -1.6281 -0.5989
  797MOL0     H 7584   8.948   0.716   0.861 -2.1552  2.3020  3.0981
  797MOL0     H 7585   9.156   0.926   0.751  0.1209 -1.0323 -0.3667
  797MOL0     H 7586   8.984   0.904   0.693 -0.9960 -1.8053 -0.3393
  797MOL0     H 7587   9.018   0.696   0.600 -1.2172  3.5249 -3.1738
  797MOL0     H 7588   9.168   0.676   0.679 -0.8615 -1.9987 -0.8449
  797MOL0     H 7589   9.270   0.868   0.524  0.8746 -0.2192  3.4425
  797MOL0     H 7590   9.220   0.713   0.462 -3.3874  0.3892 -1.9226
  797MOL0     H 7591   8.950   0.960   0.253 -0.6784  0.4507  1.5059
  797MOL0     H 7592   9.353   0.606   1.007  1.2279  0.6999 -1.3223
  797MOL0     H 7593   9.601   0.659   1.259  1.6565 -0.3387  0.2711
  797MOL0     H 7594   9.550   0.576   1.115 -1.2827  1.4961 -3.4219
  797MOL0     H 7595   9.666   0.706   1.092  0.1529 -1.6860  0.8156
  798MOL0     O 7596   8.391   2.721   3.804 -0.8758 -0.1325  0.6627
  798MOL0     C 7597   8.379   2.605   3.844  0.5735  0.5653 -0.8903
  798MOL0     O 7598   8.483   2.529   3.889  0.4450 -1.0633  0.3304
  798MOL0     C 7599   8.609   2.580   3.867 -0.1265 -0.3505 -0.2693
  798MOL0     C 7600   8.663   2.578   3.738 -0.1250 -0.1823 -0.3519
  798MOL0     C 7601   8.796   2.622   3.727 -0.3528  0.8580  0.4699
  798MOL0     C 7602   8.875   2.665   3.831  0.4750  0.4198  0.3508
  798MOL0     O 7603   9.014   2.686   3.825  0.7089 -0.1268  0.3847
  798MOL0     C 7604   9.095   2.648   3.715  0.1525 -0.1570  0.9236
  798MOL0     C 7605   9.235   2.709   3.731  0.0767  0.2597 -0.6377
  798MOL0     C 7606   9.231   2.860   3.724 -0.3912  0.4051  0.1300
  798MOL0     C 7607   9.367   2.927   3.737  0.1204 -0.2942  0.3806
  798MOL0     C 7608   9.442   2.892   3.867 -0.3307 -0.0523 -0.0384
  798MOL0     C 7609   9.563   2.986   3.870 -0.0713 -0.1279 -0.2345
  798MOL0     C 7610   9.680   2.942   3.967 -0.9705  0.1831  0.3630
  798MOL0     C 7611   9.641   2.985   4.112 -1.0130 -0.3574 -0.5254
  798MOL0     N 7612   9.749   2.955   4.208  0.8972  0.0372 -0.0770
  798MOL0     C 7613   9.872   3.020   4.197 -0.6312 -0.7095 -0.0799
  798MOL0     C 7614   9.961   2.956   4.280  0.4242  0.8279 -0.1251
  798MOL0     C 7615  10.098   3.005   4.302  0.5565  1.2133 -0.1424
  798MOL0     C 7616  10.165   2.911   4.407  0.7049 -0.0082 -0.4126
  798MOL0     C 7617  10.273   2.978   4.485 -0.2632  0.2749  0.1244
  798MOL0     C 7618  10.394   3.000   4.395 -0.4870  0.6360 -0.6463
  798MOL0     O 7619  10.487   3.069   4.475  0.2568 -0.6264 -0.9822
  798MOL0     C 7620  10.624   3.027   4.463 -0.3923  0.8250  0.2872
  798MOL0     C 7621  10.705   3.007   4.580 -0.0991  0.0420  0.8027
  798MOL0     C 7622  10.839   2.973   4.578  0.7717  0.3364 -0.2270
  798MOL0     C 7623  10.898   2.954   4.455 -0.3894 -0.2916 -0.1530
  798MOL0     C 7624  11.036   2.899   4.445  0.1604  0.2074 -0.1547
  798MOL0     O 7625  11.094   2.895   4.321  0.2222  0.1507 -0.1993
  798MOL0     C 7626  11.225   2.841   4.320  0.4547  0.4656 -0.1279
  798MOL0     C 7627  11.261   2.757   4.215 -0.4236  0.4549  0.4947
  798MOL0     C 7628  11.379   2.686   4.207  0.7407  0.8957 -0.5208
  798MOL0     C 7629  11.475   2.704   4.313  0.4630  0.1468 -0.5091
  798MOL0     O 7630  11.591   2.628   4.310  0.9088  0.0240 -0.8351
  798MOL0     C 7631  11.697   2.661   4.403 -0.2166  0.1942  0.4632
  798MOL0     C 7632  11.830   2.591   4.359  0.3246  0.2232  0.0806
  798MOL0     C 7633  11.863   2.637   4.220 -0.9073  0.4622  0.8208
  798MOL0     C 7634  11.997   2.567   4.158  0.6785 -0.0161  0.3145
  798MOL0     C 7635  11.994   2.573   4.008 -0.5728 -0.2834 -0.5224
  798MOL0     C 7636  12.117   2.513   3.953  0.0337 -0.5128 -0.1057
  798MOL0     C 7637  12.128   2.550   3.800 -0.1950  0.4128  0.4190
  798MOL0     C 7638  12.260   2.482   3.757  0.0100  0.1536  1.0037
  798MOL0    Cl 7639  12.305   2.532   3.588 -0.0466  0.4928  0.0588
  798MOL0     C 7640  11.451   2.807   4.403 -0.0303 -0.3265  0.0798
  798MOL0     C 7641  11.336   2.877   4.405  0.1875 -1.1169 -0.5353
  798MOL0     O 7642  11.085   2.857   4.548 -0.1924 -0.1547  0.6698
  798MOL0     C 7643  10.824   2.988   4.341 -1.5117  0.4866 -0.4531
  798MOL0     C 7644  10.700   3.032   4.342 -0.1225  0.3557  0.8953
  798MOL0     N 7645   9.887   2.849   4.339 -0.3601  1.4573 -0.3342
  798MOL0     N 7646   9.762   2.855   4.309  0.0362 -0.7399 -0.1527
  798MOL0     C 7647   8.811   2.680   3.954  0.5214  0.0112 -0.5856
  798MOL0     C 7648   8.680   2.637   3.972 -0.5581  0.0295  0.0315
  798MOL0     C 7649   8.238   2.561   3.864  0.7287  0.2933 -0.8492
  798MOL0     C 7650   8.163   2.582   3.981  0.1743  0.6567 -0.0662
  798MOL0     C 7651   8.026   2.558   3.996  0.4311 -0.1206  0.1208
  798MOL0     C 7652   7.951   2.496   3.886 -0.5884  0.0809 -0.5287
  798MOL0     O 7653   7.820   2.468   3.906 -0.3389 -0.0218 -0.7007
  798MOL0     C 7654   7.727   2.428   3.805 -0.2024  0.7184 -0.1621
  798MOL0     C 7655   7.645   2.549   3.773  0.0889 -0.4357 -0.2939
  798MOL0     C 7656   7.721   2.671   3.720  0.5316  0.0937  1.2387
  798MOL0     C 7657   7.625   2.790   3.693 -0.3029  0.2726  0.2820
  798MOL0     C 7658   7.699   2.898   3.633  0.6333 -0.8869 -0.5788
  798MOL0     C 7659   7.767   2.994   3.591 -0.3354 -0.1831  0.4143
  798MOL0     C 7660   8.030   2.461   3.778 -0.6464  0.4466  0.5039
  798MOL0     C 7661   8.172   2.500   3.764  0.6067  0.1375 -0.2867
  798MOL0     C 7662   8.234   2.464   3.628 -0.7217  0.1980  0.3608
  798MOL0     H 7663   8.612   2.538   3.651  0.1348  0.4955 -0.8288
  798MOL0     H 7664   8.846   2.610   3.632  1.0015  0.0436  1.2656
  798MOL0     H 7665   9.091   2.540   3.702  1.1012  0.0156 -1.4556
  798MOL0     H 7666   9.056   2.691   3.622 -1.3562 -0.5236  1.3705
  798MOL0     H 7667   9.294   2.656   3.656  0.1113 -0.3721 -0.1694
  798MOL0     H 7668   9.280   2.681   3.826  2.6479 -4.0197 -2.8086
  798MOL0     H 7669   9.171   2.897   3.808  0.3505  1.9596  0.0223
  798MOL0     H 7670   9.193   2.893   3.627  0.8204 -0.7472 -0.7810
  798MOL0     H 7671   9.427   2.901   3.649 -0.5429  2.9868 -1.1812
  798MOL0     H 7672   9.351   3.035   3.744  0.3588 -0.3240  1.9526
  798MOL0     H 7673   9.383   2.908   3.958 -0.8657 -1.9046 -0.0121
  798MOL0     H 7674   9.472   2.787   3.872  1.7987  0.4911 -0.4286
  798MOL0     H 7675   9.608   2.997   3.771 -0.0216 -0.4880 -0.2542
  798MOL0     H 7676   9.516   3.082   3.892 -0.6346 -0.7414  1.4015
  798MOL0     H 7677   9.783   2.973   3.946 -1.5078  0.9186 -1.3486
  798MOL0     H 7678   9.696   2.834   3.959  0.1991  0.3548  0.2107
  798MOL0     H 7679   9.631   3.093   4.116 -0.9024 -0.3836  0.7631
  798MOL0     H 7680   9.545   2.948   4.148 -0.2142  0.3910  2.6332
  798MOL0     H 7681   9.909   3.095   4.128  1.3807  0.7557  2.3989
  798MOL0     H 7682  10.153   3.016   4.208 -0.0519  0.9377 -0.5352
  798MOL0     H 7683  10.086   3.105   4.346 -0.7977  1.3365 -0.7382
  798MOL0     H 7684  10.096   2.876   4.484  1.6118 -1.7000 -0.3072
  798MOL0     H 7685  10.206   2.824   4.354  3.0369  1.4944 -1.2411
  798MOL0     H 7686  10.293   2.915   4.572 -1.8994 -0.5648 -0.0785
  798MOL0     H 7687  10.236   3.074   4.523 -0.7118  0.5181 -0.9053
  798MOL0     H 7688  10.382   3.062   4.306  4.0815 -0.4207 -2.2951
  798MOL0     H 7689  10.432   2.901   4.367  2.0195  1.1762  0.5718
  798MOL0     H 7690  10.662   3.028   4.678 -1.9413 -1.6443  0.4371
  798MOL0     H 7691  10.884   2.950   4.674 -0.2085  1.7680  0.5917
  798MOL0     H 7692  11.185   2.729   4.143 -1.3886 -1.9142  2.2790
  798MOL0     H 7693  11.413   2.604   4.145  3.3152  1.3676  0.1580
  798MOL0     H 7694  11.722   2.767   4.392  2.6334 -0.4700 -0.5705
  798MOL0     H 7695  11.669   2.638   4.506  0.9593 -0.3947  0.6750
  798MOL0     H 7696  11.908   2.614   4.432  2.4131  0.3676 -2.0648
  798MOL0     H 7697  11.812   2.484   4.353  0.7560  0.1926 -0.8925
  798MOL0     H 7698  11.779   2.602   4.159 -2.0094 -1.3423  3.2008
  798MOL0     H 7699  11.884   2.744   4.214  1.3059  0.1018  0.9884
  798MOL0     H 7700  11.992   2.462   4.190 -0.2018 -0.5977 -1.5645
  798MOL0     H 7701  12.093   2.611   4.184  0.5325 -1.2569  3.3776
  798MOL0     H 7702  11.989   2.679   3.981  1.2779 -0.6015 -2.3897
  798MOL0     H 7703  11.905   2.527   3.963 -1.3899  1.5990 -0.9225
  798MOL0     H 7704  12.203   2.550   4.010  0.4198  0.6972 -1.4145
  798MOL0     H 7705  12.114   2.405   3.968 -1.9457 -0.9783 -3.0989
  798MOL0     H 7706  12.112   2.650   3.759 -1.3704 -0.9656 -2.8321
  798MOL0     H 7707  12.055   2.493   3.742  0.1213  0.1511  0.2741
  798MOL0     H 7708  12.348   2.512   3.815 -1.3568 -1.1297  3.9570
  798MOL0     H 7709  12.249   2.375   3.778  2.5245 -0.0865  1.4079
  798MOL0     H 7710  11.520   2.821   4.485  0.5701 -2.4819 -0.0168
  798MOL0     H 7711  11.313   2.949   4.483  3.0726  2.0275 -2.3270
  798MOL0     H 7712  10.871   2.963   4.246 -1.4453 -0.5230 -0.1622
  798MOL0     H 7713  10.636   3.062   4.259 -2.3734  0.4686  2.5702
  798MOL0     H 7714   8.874   2.708   4.038 -2.8503  1.0277  1.8056
  798MOL0     H 7715   8.641   2.618   4.071  0.3984 -1.1179  0.2111
  798MOL0     H 7716   8.201   2.637   4.067 -3.2431 -1.9252  3.4361
  798MOL0     H 7717   7.967   2.601   4.076  1.5621 -0.2793  1.0586
  798MOL0     H 7718   7.662   2.345   3.836  0.1758 -0.7804 -3.0459
  798MOL0     H 7719   7.780   2.391   3.717 -1.7702 -1.2091 -0.3769
  798MOL0     H 7720   7.594   2.581   3.864 -1.7803 -0.2347 -1.3606
  798MOL0     H 7721   7.561   2.520   3.708 -2.2398  0.0935  2.2958
  798MOL0     H 7722   7.769   2.648   3.625 -1.4476 -4.0759  1.0498
  798MOL0     H 7723   7.795   2.711   3.791 -0.8577  0.9833  2.2429
  798MOL0     H 7724   7.550   2.768   3.617  1.0639 -0.6776 -0.8611
  798MOL0     H 7725   7.574   2.823   3.784 -0.6192 -2.9310  1.3758
  798MOL0     H 7726   7.837   3.065   3.551 -2.0104  2.6058  2.0756
  798MOL0     H 7727   7.980   2.409   3.697 -0.3303  1.7526 -0.5670
  798MOL0     H 7728   8.162   2.457   3.546  1.2017  0.6970 -1.4572
  798MOL0     H 7729   8.292   2.549   3.592 -1.3732  0.7282  0.5292
  798MOL0     H 7730   8.301   2.378   3.640 -0.1540  0.6234  0.2900
  799MOL0     O 7731   5.007   4.437   9.979 -0.0095  0.7345 -0.1980
  799MOL0     C 7732   5.011   4.418  10.099 -0.1874  0.1423 -0.7640
  799MOL0     O 7733   5.116   4.351  10.167  0.3192  0.3291  0.1379
  799MOL0     C 7734   5.224   4.280  10.115 -0.2749 -0.2441  0.2363
  799MOL0     C 7735   5.304   4.336  10.011  0.3627  0.4622 -0.9536
  799MOL0     C 7736   5.424   4.280   9.981 -0.4870  0.0193  0.7995
  799MOL0     C 7737   5.468   4.158  10.033 -0.4742 -1.0757  0.8646
  799MOL0     O 7738   5.593   4.100  10.000  0.5201  0.3764 -0.0091
  799MOL0     C 7739   5.662   4.051  10.115 -0.0439 -0.9307  0.1398
  799MOL0     C 7740   5.811   4.061  10.086  0.7774  0.3956 -0.0954
  799MOL0     C 7741   5.899   4.045  10.206  0.0691 -0.4064 -0.7961
  799MOL0     C 7742   6.040   4.062  10.156  0.3259  0.4058  0.6885
  799MOL0     C 7743   6.149   4.056  10.269 -0.0460  0.9277 -0.3026
  799MOL0     C 7744   6.145   3.913  10.334  0.8709 -0.0298 -0.2540
  799MOL0     C 7745   6.263   3.894  10.431  0.4857 -0.0741  0.0381
  799MOL0     C 7746   6.385   3.829  10.362  0.0632  0.1779  0.1808
  799MOL0     N 7747   6.447   3.900  10.253  0.5957  0.2813  0.1452
  799MOL0     C 7748   6.541   4.002  10.270  0.7649 -0.2556  1.0556
  799MOL0     C 7749   6.570   4.041  10.145  1.4973 -0.0969 -0.0532
  799MOL0     C 7750   6.665   4.147  10.109 -0.0638 -0.3699  0.6169
  799MOL0     C 7751   6.793   4.062  10.075 -0.2718  0.6371  0.4665
  799MOL0     C 7752   6.875   4.138   9.970 -1.1418 -0.2148  0.0351
  799MOL0     C 7753   7.006   4.082   9.929 -0.3668 -0.5702 -0.3597
  799MOL0     O 7754   7.030   4.139   9.792  0.1852  0.0467 -0.6093
  799MOL0     C 7755   7.153   4.110   9.734  0.3259 -0.5107 -0.5798
  799MOL0     C 7756   7.258   4.047   9.804  0.0004 -0.9131 -0.8993
  799MOL0     C 7757   7.376   4.024   9.736  0.6020  0.4640  0.3404
  799MOL0     C 7758   7.400   4.070   9.606 -0.1510 -1.0432  0.5770
  799MOL0     C 7759   7.541   4.077   9.560  0.5357 -0.2446  0.8452
  799MOL0     O 7760   7.578   4.130   9.442  0.7679  0.0248 -0.5014
  799MOL0     C 7761   7.712   4.139   9.424  0.5920  0.2505  0.8294
  799MOL0     C 7762   7.794   4.239   9.484  0.2274 -0.1873  0.6506
  799MOL0     C 7763   7.931   4.254   9.452 -0.0881  0.0354 -0.4446
  799MOL0     C 7764   7.985   4.166   9.353  0.6374  0.3493 -0.0219
  799MOL0     O 7765   8.106   4.195   9.303  0.4425 -0.3447  0.1949
  799MOL0     C 7766   8.200   4.108   9.364  0.0096  1.0265 -0.6336
  799MOL0     C 7767   8.340   4.143   9.316 -0.8097  0.1035  0.8470
  799MOL0     C 7768   8.437   4.028   9.383  0.2071 -0.3138 -0.1901
  799MOL0     C 7769   8.582   4.028   9.327 -0.3672  0.1484  0.5958
  799MOL0     C 7770   8.658   3.925   9.411 -0.2593 -0.8214 -0.7959
  799MOL0     C 7771   8.807   3.937   9.396  0.1582  0.0952  0.1153
  799MOL0     C 7772   8.875   3.831   9.489  0.2813 -0.4746 -0.2109
  799MOL0     C 7773   9.028   3.847   9.509 -1.0475 -0.4838  0.0341
  799MOL0    Cl 7774   9.103   3.818   9.353 -0.0945  0.4148  0.0912
  799MOL0     C 7775   7.914   4.060   9.294  0.0105 -0.8412 -1.1093
  799MOL0     C 7776   7.777   4.052   9.324  0.0327  0.3153  0.1319
  799MOL0     O 7777   7.627   4.038   9.639 -0.5368 -0.0778  0.6165
  799MOL0     C 7778   7.298   4.142   9.540  0.2140  0.7063 -0.0369
  799MOL0     C 7779   7.174   4.154   9.602 -0.0869 -0.1588  0.5296
  799MOL0     N 7780   6.493   3.969  10.058  0.1640 -0.1924 -0.0575
  799MOL0     N 7781   6.420   3.885  10.125 -0.6515 -0.3905 -0.3830
  799MOL0     C 7782   5.378   4.096  10.126  0.1172  0.2655 -0.0153
  799MOL0     C 7783   5.266   4.160  10.174 -0.5121  0.0086 -0.1318
  799MOL0     C 7784   4.920   4.500  10.185 -0.0801  0.5837 -1.4170
  799MOL0     C 7785   4.808   4.558  10.124  0.0286  0.1214 -0.3585
  799MOL0     C 7786   4.712   4.639  10.193  0.5581 -0.2553 -1.5590
  799MOL0     C 7787   4.724   4.659  10.330 -0.7338  0.4979  1.8796
  799MOL0     O 7788   4.636   4.736  10.414 -0.6879  0.2509 -0.5449
  799MOL0     C 7789   4.512   4.782  10.357 -0.6152 -0.1260  0.4712
  799MOL0     C 7790   4.530   4.913  10.273 -0.1795 -0.4496  0.0681
  799MOL0     C 7791   4.527   5.031  10.373  1.2106  0.0646 -0.4730
  799MOL0     C 7792   4.381   5.076  10.389 -0.1872 -0.1421  0.1130
  799MOL0     C 7793   4.371   5.191  10.475 -0.4473 -0.2529 -0.1475
  799MOL0     C 7794   4.355   5.290  10.538 -0.4841 -0.9166  0.3236
  799MOL0     C 7795   4.819   4.588  10.396 -0.4389 -0.4765 -1.1177
  799MOL0     C 7796   4.922   4.522  10.336 -0.3310  0.5350  0.4948
  799MOL0     C 7797   5.029   4.453  10.424  0.9296 -0.3048  0.3924
  799MOL0     H 7798   5.285   4.437   9.975  1.2961  1.6967  1.6917
  799MOL0     H 7799   5.481   4.338   9.909  0.8743  1.5197  2.9742
  799MOL0     H 7800   5.643   4.116  10.201  0.2508  0.2134 -0.6405
  799MOL0     H 7801   5.644   3.946  10.142 -0.2581 -1.1294 -0.7549
  799MOL0     H 7802   5.830   4.161  10.046  1.2200  0.9586  1.4429
  799MOL0     H 7803   5.844   3.988  10.012  2.1411 -1.1841  1.9800
  799MOL0     H 7804   5.883   3.953  10.263 -1.1299 -0.5221 -1.2899
  799MOL0     H 7805   5.875   4.135  10.264 -2.6408 -0.9262 -0.9652
  799MOL0     H 7806   6.072   3.991  10.080  1.9074  1.3962  0.3761
  799MOL0     H 7807   6.046   4.159  10.105 -1.3201  0.7018  1.0200
  799MOL0     H 7808   6.251   4.087  10.246 -0.3920  1.6605 -0.8749
  799MOL0     H 7809   6.109   4.132  10.337 -0.4737  0.7780 -0.3846
  799MOL0     H 7810   6.054   3.898  10.394  0.8174 -1.5601 -0.6689
  799MOL0     H 7811   6.143   3.831  10.261 -1.1345 -0.7009  0.4723
  799MOL0     H 7812   6.224   3.828  10.509 -1.1713 -1.5424 -1.9184
  799MOL0     H 7813   6.280   3.995  10.470 -3.5424  0.6632  0.3336
  799MOL0     H 7814   6.454   3.802  10.442 -2.3919 -0.0003  2.4038
  799MOL0     H 7815   6.341   3.742  10.311 -1.7867 -0.2578  2.3056
  799MOL0     H 7816   6.567   4.041  10.367 -0.5294  1.5454  0.7324
  799MOL0     H 7817   6.622   4.198  10.022  0.0719  0.9975  1.3102
  799MOL0     H 7818   6.682   4.216  10.192  0.0495 -0.4294  0.6422
  799MOL0     H 7819   6.853   4.047  10.165 -2.9093 -2.8742  1.8894
  799MOL0     H 7820   6.764   3.967  10.030  1.7846 -0.2229  0.8518
  799MOL0     H 7821   6.894   4.238  10.008 -1.3578 -0.4850  0.8617
  799MOL0     H 7822   6.808   4.149   9.884 -0.0978 -0.9854 -0.9128
  799MOL0     H 7823   6.993   3.974   9.936 -2.5383 -0.3103  0.5943
  799MOL0     H 7824   7.074   4.114  10.008 -1.5864  0.7780  0.1807
  799MOL0     H 7825   7.236   4.012   9.905 -3.8899 -2.1004 -1.9972
  799MOL0     H 7826   7.459   3.989   9.796 -1.3483 -0.7850  2.4578
  799MOL0     H 7827   7.739   4.302   9.553 -1.6985 -0.7062 -0.3526
  799MOL0     H 7828   7.997   4.335   9.484 -2.6403  2.1604 -0.1621
  799MOL0     H 7829   8.217   4.117   9.472  0.6746 -2.3482 -0.3396
  799MOL0     H 7830   8.174   4.005   9.339 -1.2255  0.7731  1.4799
  799MOL0     H 7831   8.350   4.143   9.207 -2.2452  0.9795  0.6939
  799MOL0     H 7832   8.372   4.244   9.343  5.5022 -0.2700 -3.0648
  799MOL0     H 7833   8.437   4.050   9.490  0.1485  0.6507 -0.3797
  799MOL0     H 7834   8.407   3.926   9.357  1.8400 -1.0816  0.7464
  799MOL0     H 7835   8.637   4.123   9.328 -0.6693  0.3298  0.1423
  799MOL0     H 7836   8.588   3.990   9.225  1.5599  0.9537  0.3711
  799MOL0     H 7837   8.635   3.826   9.371 -0.6827  0.2680 -3.4320
  799MOL0     H 7838   8.630   3.935   9.516  0.6057  0.7038 -0.6632
  799MOL0     H 7839   8.841   3.905   9.296  4.7037  0.5186  1.2929
  799MOL0     H 7840   8.845   4.040   9.406 -0.6021  0.6840 -2.2098
  799MOL0     H 7841   8.855   3.729   9.456 -3.4362 -1.1000  3.1729
  799MOL0     H 7842   8.834   3.842   9.590 -2.2039 -0.7877 -1.1215
  799MOL0     H 7843   9.047   3.946   9.549 -2.0579  1.7305 -4.3416
  799MOL0     H 7844   9.055   3.767   9.580 -2.5494  2.5451  4.4440
  799MOL0     H 7845   7.963   4.003   9.216 -0.2477 -1.8873 -0.5240
  799MOL0     H 7846   7.733   3.962   9.282  1.4348 -1.4208  2.1732
  799MOL0     H 7847   7.318   4.188   9.444  1.9862  1.1948  0.5380
  799MOL0     H 7848   7.104   4.223   9.555  0.9310 -0.4183 -1.4812
  799MOL0     H 7849   5.390   4.000  10.175 -0.8235  0.1473  0.0100
  799MOL0     H 7850   5.216   4.126  10.264 -3.1083  2.0124 -0.6952
  799MOL0     H 7851   4.789   4.553  10.017 -5.0832  2.2311  0.1538
  799MOL0     H 7852   4.628   4.689  10.146 -0.9485 -0.8803  0.3528
  799MOL0     H 7853   4.445   4.794  10.443  1.1897  0.5364  1.8610
  799MOL0     H 7854   4.465   4.707  10.293  0.3935  0.6270 -1.2408
  799MOL0     H 7855   4.447   4.914  10.203 -0.6248  1.4191  0.5612
  799MOL0     H 7856   4.627   4.911  10.221 -0.7771 -1.5685 -1.0583
  799MOL0     H 7857   4.591   5.105  10.324 -1.0544  1.2349 -1.8326
  799MOL0     H 7858   4.579   5.007  10.466  0.8661 -1.1143 -0.5730
  799MOL0     H 7859   4.335   5.090  10.291 -0.2776 -0.5818  0.0864
  799MOL0     H 7860   4.312   4.998  10.424 -1.7473  1.2658  0.3285
  799MOL0     H 7861   4.360   5.378  10.599  1.6315 -1.0493  0.4215
  799MOL0     H 7862   4.824   4.595  10.504 -0.9675  2.2415 -1.1899
  799MOL0     H 7863   5.127   4.476  10.380  1.1038 -2.2221 -0.2952
  799MOL0     H 7864   5.029   4.488  10.528 -1.6930 -1.4731  0.8643
  799MOL0     H 7865   5.017   4.345  10.428 -0.9593 -0.1086  0.8787
  800MOL0     O 7866   3.561   6.739   8.309 -0.1919 -0.0542 -0.2768
  800MOL0     C 7867   3.481   6.737   8.401 -0.2111 -0.9289 -0.1576
  800MOL0     O 7868   3.362   6.671   8.407 -0.3046 -0.0005  0.1188
  800MOL0     C 7869   3.311   6.619   8.286  1.1760  0.8648  0.2612
  800MOL0     C 7870   3.170   6.624   8.251 -0.3209 -1.1011  0.1801
  800MOL0     C 7871   3.108   6.538   8.163  0.3494  0.0739  0.4936
  800MOL0     C 7872   3.182   6.439   8.088  0.6244  0.8474 -0.6085
  800MOL0     O 7873   3.127   6.351   8.004  0.6723  1.0193  0.0701
  800MOL0     C 7874   3.021   6.396   7.920 -0.3669  0.5530 -0.1011
  800MOL0     C 7875   2.936   6.279   7.885  0.0795 -0.1582 -0.0987
  800MOL0     C 7876   2.858   6.234   8.002 -0.0363 -0.4022 -0.5133
  800MOL0     C 7877   2.790   6.102   7.974  0.7396  0.2948 -1.0957
  800MOL0     C 7878   2.751   6.028   8.105 -0.3825 -0.1901  0.3441
  800MOL0     C 7879   2.660   5.903   8.075  0.2167  0.5312 -0.0977
  800MOL0     C 7880   2.528   5.948   8.013 -0.1056 -0.8667  0.2369
  800MOL0     C 7881   2.425   5.831   7.985 -0.3688 -0.2209  0.7961
  800MOL0     N 7882   2.461   5.729   7.884  0.1246 -0.9828 -0.4495
  800MOL0     C 7883   2.557   5.733   7.791  0.8991 -0.2912  0.2400
  800MOL0     C 7884   2.569   5.605   7.747 -0.3584 -0.2140 -0.0409
  800MOL0     C 7885   2.672   5.553   7.649 -0.2669  0.8013  0.8647
  800MOL0     C 7886   2.667   5.598   7.498  0.0043 -0.1588 -0.0051
  800MOL0     C 7887   2.786   5.530   7.426  0.4533 -0.6957 -0.5516
  800MOL0     C 7888   2.845   5.605   7.302  0.1574  0.0829  0.1341
  800MOL0     O 7889   2.927   5.726   7.324  0.3556  0.3292 -0.3713
  800MOL0     C 7890   3.056   5.715   7.358 -0.1628  0.7412 -0.9465
  800MOL0     C 7891   3.121   5.592   7.393 -0.4715 -0.3016  0.2674
  800MOL0     C 7892   3.251   5.594   7.434 -0.2667  0.7367 -1.1132
  800MOL0     C 7893   3.325   5.715   7.453  0.3103  0.3609  0.5313
  800MOL0     C 7894   3.468   5.719   7.486  0.2298  0.1266 -0.3145
  800MOL0     O 7895   3.526   5.845   7.488 -0.1133 -0.1307  0.9200
  800MOL0     C 7896   3.658   5.863   7.461  0.2268 -0.0419 -0.4703
  800MOL0     C 7897   3.733   5.773   7.378 -0.4965 -0.8315 -0.1473
  800MOL0     C 7898   3.864   5.806   7.347 -0.0230  0.9985 -0.2991
  800MOL0     C 7899   3.918   5.927   7.382  0.3611 -0.4855  0.2123
  800MOL0     O 7900   4.051   5.961   7.348 -0.2375 -0.5051 -0.3547
  800MOL0     C 7901   4.150   5.860   7.333  0.5386  0.6901  0.0203
  800MOL0     C 7902   4.282   5.940   7.317  0.6475 -0.1076  0.3794
  800MOL0     C 7903   4.369   5.856   7.234 -0.8665 -1.0502 -0.0083
  800MOL0     C 7904   4.514   5.911   7.241  0.1764  0.2125 -0.8246
  800MOL0     C 7905   4.597   5.816   7.152  0.6156 -0.4131 -0.3633
  800MOL0     C 7906   4.745   5.855   7.164 -0.3983 -1.4582 -0.7689
  800MOL0     C 7907   4.833   5.769   7.083 -0.4060  0.3175  0.4405
  800MOL0     C 7908   4.976   5.813   7.099  0.3695 -0.1368  0.3632
  800MOL0    Cl 7909   4.994   5.985   7.074  0.0032 -0.0063 -0.1297
  800MOL0     C 7910   3.835   6.017   7.450 -0.6682  0.7774 -0.0302
  800MOL0     C 7911   3.710   5.988   7.484 -0.0264 -0.7310 -0.0749
  800MOL0     O 7912   3.520   5.616   7.527  0.4512  1.0224  1.0911
  800MOL0     C 7913   3.259   5.828   7.410 -0.0594  0.0661  0.2873
  800MOL0     C 7914   3.124   5.827   7.372 -0.0140 -0.7467 -0.2555
  800MOL0     N 7915   2.474   5.526   7.813  0.0288 -0.7773  0.6678
  800MOL0     N 7916   2.408   5.605   7.887  0.1538 -0.7755 -1.1158
  800MOL0     C 7917   3.317   6.430   8.120  0.2158  0.8504 -0.0554
  800MOL0     C 7918   3.371   6.510   8.223 -0.2255  0.1471 -0.0341
  800MOL0     C 7919   3.527   6.791   8.528 -0.3395  0.8024 -0.9805
  800MOL0     C 7920   3.516   6.716   8.644 -0.0439  0.2674 -0.3145
  800MOL0     C 7921   3.573   6.744   8.770  0.0144  0.1930  0.6335
  800MOL0     C 7922   3.651   6.861   8.773 -0.7921 -0.2569  0.3162
  800MOL0     O 7923   3.729   6.901   8.876 -0.5494  0.0053  0.2439
  800MOL0     C 7924   3.745   6.819   8.989 -1.0318 -0.0524  0.2612
  800MOL0     C 7925   3.843   6.877   9.092 -0.6842  0.1332  0.2028
  800MOL0     C 7926   3.996   6.862   9.049  0.2398 -0.2508 -0.5580
  800MOL0     C 7927   4.033   6.957   8.928 -0.4795 -0.2328  0.4516
  800MOL0     C 7928   4.176   6.937   8.901  0.6298 -0.5795 -0.4886
  800MOL0     C 7929   4.290   6.913   8.881  0.2450 -0.4866  0.7727
  800MOL0     C 7930   3.668   6.939   8.658 -0.3331 -0.0840  0.8038
  800MOL0     C 7931   3.599   6.912   8.540  0.3839  0.0811 -0.2489
  800MOL0     C 7932   3.620   7.004   8.422 -0.0292  0.1021  0.8831
  800MOL0     H 7933   3.103   6.694   8.301 -1.4403 -0.4364 -2.0887
  800MOL0     H 7934   3.000   6.546   8.154  0.5148  2.5021  0.2544
  800MOL0     H 7935   2.947   6.463   7.965 -1.2723  1.7433 -3.0744
  800MOL0     H 7936   3.062   6.447   7.832  1.7095 -1.9326 -0.7124
  800MOL0     H 7937   3.000   6.195   7.857  1.2838  0.4156  0.8619
  800MOL0     H 7938   2.855   6.304   7.816 -1.8168  2.1398  2.7352
  800MOL0     H 7939   2.790   6.315   8.032  2.0609  1.7777 -1.3074
  800MOL0     H 7940   2.924   6.218   8.088  2.8526 -0.1088 -2.5417
  800MOL0     H 7941   2.705   6.115   7.908 -0.0162 -2.2770 -0.7508
  800MOL0     H 7942   2.853   6.030   7.921 -1.2750 -3.1824  0.8172
  800MOL0     H 7943   2.837   5.994   8.162  1.6198 -0.0513 -2.4020
  800MOL0     H 7944   2.683   6.083   8.171 -0.3020 -1.3499  1.4366
  800MOL0     H 7945   2.711   5.838   8.004 -1.4645  1.3039 -2.1251
  800MOL0     H 7946   2.642   5.846   8.166  0.5348 -0.3661 -0.5803
  800MOL0     H 7947   2.545   5.996   7.916  1.1668 -2.9816 -0.6514
  800MOL0     H 7948   2.481   6.017   8.085  1.0830  0.6610 -0.4005
  800MOL0     H 7949   2.422   5.770   8.075  0.5652 -1.7489 -0.1719
  800MOL0     H 7950   2.325   5.868   7.960 -1.5491 -1.0594  3.8465
  800MOL0     H 7951   2.613   5.823   7.767  0.3607  0.7242  2.5261
  800MOL0     H 7952   2.768   5.594   7.682 -0.5816  4.8534 -2.3978
  800MOL0     H 7953   2.672   5.444   7.650 -1.0339  0.7728 -0.5733
  800MOL0     H 7954   2.574   5.559   7.457 -0.6685 -0.4423  1.6917
  800MOL0     H 7955   2.680   5.706   7.494  1.4989 -0.2961  0.3919
  800MOL0     H 7956   2.747   5.435   7.387 -2.1925  1.0621 -2.5195
  800MOL0     H 7957   2.873   5.514   7.490 -0.0257 -1.3334 -0.0420
  800MOL0     H 7958   2.760   5.632   7.239 -2.0510  1.2435  3.3361
  800MOL0     H 7959   2.906   5.535   7.245 -2.6306 -1.7054 -0.8427
  800MOL0     H 7960   3.079   5.492   7.396  0.5853 -0.7407  1.6713
  800MOL0     H 7961   3.290   5.514   7.495 -0.1565  1.0537 -0.7594
  800MOL0     H 7962   3.698   5.683   7.329 -3.0010  1.1621 -2.3241
  800MOL0     H 7963   3.929   5.736   7.295 -2.1136  0.7769 -2.7894
  800MOL0     H 7964   4.169   5.796   7.419  0.2657 -2.1967 -1.9534
  800MOL0     H 7965   4.129   5.799   7.244 -1.3019 -1.2692  1.6871
  800MOL0     H 7966   4.266   6.031   7.259 -0.5247 -1.6258 -1.8216
  800MOL0     H 7967   4.321   5.964   7.416 -0.1913  3.1528  0.0276
  800MOL0     H 7968   4.364   5.754   7.275 -0.0233 -1.2017 -0.2680
  800MOL0     H 7969   4.339   5.853   7.129  0.7142 -2.7576 -0.4714
  800MOL0     H 7970   4.553   5.902   7.343  0.8762 -1.6913 -1.2296
  800MOL0     H 7971   4.509   6.013   7.201  0.2954  1.0203  1.0880
  800MOL0     H 7972   4.568   5.828   7.047  1.6883 -1.3648 -0.7963
  800MOL0     H 7973   4.588   5.717   7.197  0.5965  0.4538  1.6470
  800MOL0     H 7974   4.747   5.960   7.134  0.1694 -1.6045 -1.2512
  800MOL0     H 7975   4.778   5.844   7.268  0.2887 -1.6836 -1.0058
  800MOL0     H 7976   4.806   5.783   6.977  2.0281 -1.8800 -0.5862
  800MOL0     H 7977   4.829   5.661   7.099  0.1960  0.0560 -0.9770
  800MOL0     H 7978   5.011   5.776   7.196  1.3680  1.9913  0.8967
  800MOL0     H 7979   5.025   5.753   7.022 -2.2797 -2.6573  0.5102
  800MOL0     H 7980   3.873   6.115   7.480 -1.1477  1.1048 -0.4851
  800MOL0     H 7981   3.656   6.066   7.537 -1.9661 -0.4645 -2.2908
  800MOL0     H 7982   3.304   5.926   7.419  3.5954 -1.2237 -1.8669
  800MOL0     H 7983   3.070   5.917   7.345  1.5644  0.5678  0.7490
  800MOL0     H 7984   3.356   6.344   8.068 -2.6732 -1.4697  1.2591
  800MOL0     H 7985   3.472   6.496   8.262  0.7630  2.3705 -1.5723
  800MOL0     H 7986   3.472   6.618   8.630  2.6518 -1.0648 -0.1604
  800MOL0     H 7987   3.570   6.677   8.856 -0.5967  2.0774  2.1500
  800MOL0     H 7988   3.774   6.717   8.963  0.1793  0.0449  1.1344
  800MOL0     H 7989   3.652   6.798   9.043  0.0824 -1.2807  1.7954
  800MOL0     H 7990   3.828   6.833   9.191  0.6889 -1.9804 -0.4559
  800MOL0     H 7991   3.820   6.984   9.095 -2.6752 -0.2714  1.0221
  800MOL0     H 7992   4.021   6.760   9.018 -0.9464  0.0743 -2.8661
  800MOL0     H 7993   4.046   6.887   9.143 -1.5347 -0.8759  0.5826
  800MOL0     H 7994   3.974   6.923   8.842 -1.2136  1.4200  0.2621
  800MOL0     H 7995   4.009   7.061   8.952 -1.0371  0.0429 -1.2143
  800MOL0     H 7996   4.394   6.899   8.861  0.6636  0.7852  1.9119
  800MOL0     H 7997   3.733   7.026   8.652  1.6008 -1.5503 -1.5878
  800MOL0     H 7998   3.532   7.004   8.356  0.6472  0.1896 -0.0297
  800MOL0     H 7999   3.638   7.103   8.465 -0.5402  0.0107  1.3187
  800MOL0     H 8000   3.704   6.967   8.364  0.2562 -0.2722  1.5311
  801MOL0     O 8001   1.918   8.476   2.237  0.1420  0.0574 -0.0059
  801MOL0     C 8002   1.826   8.416   2.177 -0.6471  0.0572  0.7777
  801MOL0     O 8003   1.825   8.372   2.050 -0.5202  0.0687 -0.1467
  801MOL0     C 8004   1.938   8.382   1.976 -0.3095  0.7945 -0.0933
  801MOL0     C 8005   1.968   8.271   1.898  0.2741 -0.2267 -0.4088
  801MOL0     C 8006   2.074   8.290   1.811  0.7051  0.6526  0.5430
  801MOL0     C 8007   2.134   8.415   1.781 -0.1500 -0.5694 -0.2227
  801MOL0     O 8008   2.240   8.418   1.689  0.2217 -0.3566 -0.5408
  801MOL0     C 8009   2.290   8.537   1.615  0.0787  0.5600  0.2897
  801MOL0     C 8010   2.416   8.594   1.685  0.1255  0.2766  0.6135
  801MOL0     C 8011   2.534   8.491   1.675  0.8415 -0.9863 -0.4960
  801MOL0     C 8012   2.661   8.558   1.739  0.7276 -0.4410 -0.0422
  801MOL0     C 8013   2.781   8.456   1.721 -0.1128  0.1367  0.0600
  801MOL0     C 8014   2.879   8.492   1.834 -0.2264  0.0023 -0.0629
  801MOL0     C 8015   3.008   8.421   1.820  0.8034 -0.1366 -0.9053
  801MOL0     C 8016   3.097   8.470   1.706  0.5462  0.5212 -0.5774
  801MOL0     N 8017   3.157   8.604   1.734  0.4559 -0.7986  0.4200
  801MOL0     C 8018   3.217   8.655   1.853  0.1725  0.0342 -0.0857
  801MOL0     C 8019   3.240   8.786   1.821  0.2594  0.5195 -0.1114
  801MOL0     C 8020   3.314   8.883   1.909  0.4792 -0.3847  0.2400
  801MOL0     C 8021   3.277   9.035   1.880  0.1413  1.5610 -0.1932
  801MOL0     C 8022   3.137   9.071   1.920 -0.3012 -0.5455  0.4967
  801MOL0     C 8023   3.123   9.067   2.072  0.0110 -0.1454 -0.1540
  801MOL0     O 8024   3.087   8.936   2.111 -0.2026  0.1364 -0.1144
  801MOL0     C 8025   2.951   8.916   2.097 -0.1631  0.4317  0.1587
  801MOL0     C 8026   2.889   8.866   1.985  0.0918  0.0764  0.6270
  801MOL0     C 8027   2.749   8.854   1.980  0.0931 -1.3076 -0.2514
  801MOL0     C 8028   2.670   8.894   2.088  0.5831 -1.4829  0.8471
  801MOL0     C 8029   2.516   8.882   2.080 -1.1102 -0.2986 -0.1054
  801MOL0     O 8030   2.443   8.923   2.193 -0.2878  0.3728  0.4221
  801MOL0     C 8031   2.307   8.938   2.172 -0.1534  0.6971 -0.3505
  801MOL0     C 8032   2.222   8.848   2.236 -0.2698 -0.1869 -0.2946
  801MOL0     C 8033   2.084   8.851   2.220  0.8646  0.9520  0.0779
  801MOL0     C 8034   2.029   8.945   2.126  0.3711 -0.2115 -0.3332
  801MOL0     O 8035   1.897   8.940   2.091 -0.5634  0.3995  0.6151
  801MOL0     C 8036   1.819   9.067   2.095 -1.2431 -0.5811  0.3048
  801MOL0     C 8037   1.797   9.093   2.243 -1.1194 -0.0829  0.0132
  801MOL0     C 8038   1.718   8.979   2.305  0.5348 -0.6857  0.3893
  801MOL0     C 8039   1.603   9.012   2.394 -0.7843 -0.0354  1.2585
  801MOL0     C 8040   1.517   8.896   2.442  0.3476  0.5234  0.7497
  801MOL0     C 8041   1.391   8.949   2.522  0.8777  0.8011 -0.7329
  801MOL0     C 8042   1.315   8.824   2.575 -0.1952  0.4332 -0.9496
  801MOL0     C 8043   1.175   8.836   2.527  0.3229 -0.2666  0.0013
  801MOL0    Cl 8044   1.090   8.701   2.600 -0.1143 -0.5013 -0.1399
  801MOL0     C 8045   2.114   9.031   2.056  0.0530 -0.5264  0.1264
  801MOL0     C 8046   2.251   9.029   2.086  0.1819 -0.0451  0.4022
  801MOL0     O 8047   2.473   8.859   1.968 -0.5628  0.4578  0.0246
  801MOL0     C 8048   2.734   8.949   2.197 -0.0356 -0.2869  0.3788
  801MOL0     C 8049   2.874   8.957   2.206 -0.2860  0.8084  0.2654
  801MOL0     N 8050   3.196   8.810   1.694  0.2317 -0.1069 -0.0611
  801MOL0     N 8051   3.147   8.701   1.640  0.3080  0.5050  0.4657
  801MOL0     C 8052   2.088   8.533   1.854  0.6466 -0.2177  0.4121
  801MOL0     C 8053   1.998   8.509   1.956 -0.0420 -0.1803  0.1986
  801MOL0     C 8054   1.698   8.398   2.255 -1.1789  0.5207 -0.6334
  801MOL0     C 8055   1.583   8.360   2.188  0.1030  0.2390  1.2740
  801MOL0     C 8056   1.462   8.343   2.253  0.2504  0.6725  0.3620
  801MOL0     C 8057   1.452   8.360   2.390 -0.5862  0.2021 -0.0123
  801MOL0     O 8058   1.334   8.350   2.462  0.1196  0.6292 -0.1815
  801MOL0     C 8059   1.216   8.283   2.401  0.5561 -0.9356 -0.3453
  801MOL0     C 8060   1.101   8.302   2.501  0.2446 -0.0465  0.2863
  801MOL0     C 8061   1.005   8.420   2.473  0.2231 -0.4064  0.0562
  801MOL0     C 8062   0.892   8.425   2.564  0.5180 -0.1712  0.4091
  801MOL0     C 8063   0.803   8.537   2.537 -0.4887  1.2297  0.7607
  801MOL0     C 8064   0.731   8.634   2.503  0.1805  0.0216  0.2201
  801MOL0     C 8065   1.568   8.402   2.455 -0.4095  1.1828  0.0320
  801MOL0     C 8066   1.694   8.411   2.398 -0.1376 -0.3812  0.6778
  801MOL0     C 8067   1.796   8.469   2.491  0.5589  0.5078  0.8873
  801MOL0     H 8068   1.913   8.178   1.907  0.5926 -0.3242  0.6836
  801MOL0     H 8069   2.101   8.204   1.750 -1.7017 -1.8814  2.7587
  801MOL0     H 8070   2.318   8.508   1.513  3.0038  1.7231  0.6540
  801MOL0     H 8071   2.205   8.605   1.601  0.0587  0.1923 -1.6432
  801MOL0     H 8072   2.390   8.623   1.787 -0.3039 -1.9981  1.2006
  801MOL0     H 8073   2.446   8.685   1.632 -1.8380 -0.7551 -2.5442
  801MOL0     H 8074   2.558   8.477   1.569  0.1538 -0.4008 -0.7305
  801MOL0     H 8075   2.507   8.392   1.713 -0.6839  0.0799  1.3390
  801MOL0     H 8076   2.698   8.653   1.700  0.9229 -0.4435  0.1342
  801MOL0     H 8077   2.647   8.574   1.847  2.7678  2.5597 -0.1170
  801MOL0     H 8078   2.756   8.349   1.723 -0.8232  0.2829 -0.3472
  801MOL0     H 8079   2.817   8.483   1.621 -0.3734  3.9397  0.8419
  801MOL0     H 8080   2.909   8.597   1.829 -2.2752  0.5653 -2.7453
  801MOL0     H 8081   2.838   8.475   1.933  1.5078 -0.6997  0.5740
  801MOL0     H 8082   2.971   8.320   1.799  0.1490  0.2773 -1.7855
  801MOL0     H 8083   3.064   8.428   1.914  0.2876  3.1089 -0.7296
  801MOL0     H 8084   3.181   8.401   1.700  0.3769 -0.2637  3.4038
  801MOL0     H 8085   3.044   8.475   1.611  0.9699 -1.4084 -0.9427
  801MOL0     H 8086   3.247   8.595   1.939  1.7433 -1.2020 -1.4355
  801MOL0     H 8087   3.298   8.863   2.016  1.7357  0.7861  0.6731
  801MOL0     H 8088   3.421   8.869   1.894  0.4164 -0.0462 -0.5537
  801MOL0     H 8089   3.357   9.105   1.905  0.8721  1.5961 -2.3567
  801MOL0     H 8090   3.284   9.046   1.771  0.4804  1.0547 -0.2284
  801MOL0     H 8091   3.064   9.020   1.856 -0.4062 -2.0661  1.7875
  801MOL0     H 8092   3.129   9.176   1.888  0.0619 -1.3514 -2.5303
  801MOL0     H 8093   3.045   9.135   2.106  0.6989  0.7845 -0.3731
  801MOL0     H 8094   3.217   9.095   2.121  1.2532 -1.3077 -1.7632
  801MOL0     H 8095   2.943   8.831   1.897 -3.5627  0.6350 -2.0574
  801MOL0     H 8096   2.701   8.809   1.894 -1.7529 -2.2480  1.1967
  801MOL0     H 8097   2.263   8.779   2.310 -1.1170 -0.3427  0.0410
  801MOL0     H 8098   2.020   8.790   2.282  0.8823 -1.1806 -1.9092
  801MOL0     H 8099   1.871   9.151   2.048 -1.2652  0.2172  1.6370
  801MOL0     H 8100   1.725   9.049   2.043 -1.1733  0.6508 -0.2816
  801MOL0     H 8101   1.894   9.097   2.293 -1.8300 -0.2925  1.4696
  801MOL0     H 8102   1.744   9.189   2.248  0.4553  0.7814  1.5055
  801MOL0     H 8103   1.658   8.927   2.229 -2.1683  1.8126  0.6404
  801MOL0     H 8104   1.781   8.907   2.359  1.1032  0.9551  1.9906
  801MOL0     H 8105   1.540   9.090   2.350 -1.4418 -0.2720  1.7772
  801MOL0     H 8106   1.643   9.064   2.482 -0.7769  0.0260  1.2189
  801MOL0     H 8107   1.562   8.823   2.509 -2.4274 -1.9755  0.0986
  801MOL0     H 8108   1.482   8.844   2.352  0.4761 -0.6205  1.3404
  801MOL0     H 8109   1.428   9.015   2.601  1.0658 -0.5331  0.3118
  801MOL0     H 8110   1.322   9.007   2.459  2.9097  0.4532 -3.4584
  801MOL0     H 8111   1.320   8.816   2.684 -4.6464 -0.7937 -0.6473
  801MOL0     H 8112   1.346   8.725   2.543  0.8938  0.1770  0.7609
  801MOL0     H 8113   1.135   8.933   2.559  0.9638 -0.8672  2.9107
  801MOL0     H 8114   1.151   8.835   2.421 -2.4403 -0.8102  0.5636
  801MOL0     H 8115   2.076   9.096   1.978  3.9508  2.0666  0.1233
  801MOL0     H 8116   2.313   9.088   2.019  3.9582 -3.1961  0.7394
  801MOL0     H 8117   2.671   8.986   2.278 -0.9845  0.4539 -0.6767
  801MOL0     H 8118   2.922   8.989   2.298  2.4993  1.7686 -1.4018
  801MOL0     H 8119   2.127   8.633   1.838 -1.6582  0.6996  0.2848
  801MOL0     H 8120   1.949   8.588   2.012 -0.1024 -1.2614  1.7374
  801MOL0     H 8121   1.588   8.342   2.081  3.3021  1.1299  1.1779
  801MOL0     H 8122   1.379   8.314   2.190  1.1940 -0.3996 -0.4383
  801MOL0     H 8123   1.224   8.176   2.381 -0.3366 -0.6946 -2.2059
  801MOL0     H 8124   1.181   8.332   2.309  0.8418  0.1693  0.1247
  801MOL0     H 8125   1.137   8.300   2.604  0.9747  1.9340  0.1055
  801MOL0     H 8126   1.035   8.217   2.481 -0.5062  0.3635  0.9613
  801MOL0     H 8127   0.965   8.414   2.371  1.7405 -0.0407 -0.5999
  801MOL0     H 8128   1.058   8.515   2.469  0.9644 -0.8061  0.0140
  801MOL0     H 8129   0.833   8.334   2.550 -0.0355  0.2898 -0.3157
  801MOL0     H 8130   0.936   8.434   2.663  2.6233 -1.8309 -0.3135
  801MOL0     H 8131   0.675   8.721   2.475  2.8896  3.0221  3.1947
  801MOL0     H 8132   1.557   8.420   2.561  1.6610  0.2585  0.4484
  801MOL0     H 8133   1.892   8.418   2.481  0.0264 -0.5001  0.8364
  801MOL0     H 8134   1.824   8.570   2.458  2.7582 -0.2237  0.3348
  801MOL0     H 8135   1.759   8.467   2.594 -0.9492  0.1607  0.3711
  802MOL0     O 8136   8.193   8.891  10.220 -0.4046  0.1664 -0.5673
  802MOL0     C 8137   8.281   8.862  10.293 -1.0031 -0.1379  0.1334
  802MOL0     O 8138   8.264   8.803  10.411 -0.2849  0.0148 -0.6427
  802MOL0     C 8139   8.154   8.734  10.441  0.6016  0.2430 -0.2968
  802MOL0     C 8140   8.116   8.743  10.578  0.4339 -0.1691  1.2293
  802MOL0     C 8141   8.003   8.677  10.623  0.1030 -0.1161 -0.2665
  802MOL0     C 8142   7.934   8.592  10.542  0.2189  0.2609 -0.1808
  802MOL0     O 8143   7.832   8.523  10.602  1.1125  0.2884 -0.7433
  802MOL0     C 8144   7.719   8.474  10.530 -0.3622 -0.2821  0.2232
  802MOL0     C 8145   7.599   8.573  10.529  0.2245  0.3948 -0.4882
  802MOL0     C 8146   7.557   8.613  10.671 -0.1770 -0.4733  0.8920
  802MOL0     C 8147   7.415   8.675  10.678  1.3697  0.2161 -0.1956
  802MOL0     C 8148   7.397   8.811  10.615  0.1144 -0.6785 -0.8911
  802MOL0     C 8149   7.262   8.874  10.636  0.7900  0.1184  0.0845
  802MOL0     C 8150   7.239   9.004  10.554 -0.4059 -0.0572  0.1994
  802MOL0     C 8151   7.090   9.058  10.562  0.0176 -0.6313 -0.7434
  802MOL0     N 8152   7.090   9.200  10.513  0.5048  0.2480 -0.4081
  802MOL0     C 8153   7.184   9.269  10.432 -0.1042  0.1640  0.7689
  802MOL0     C 8154   7.149   9.399  10.442  0.8449  0.0901 -0.6937
  802MOL0     C 8155   7.222   9.508  10.384 -0.1380 -0.4805  0.5804
  802MOL0     C 8156   7.182   9.531  10.240  0.6372 -1.1541  0.9976
  802MOL0     C 8157   7.038   9.593  10.242  0.5930  0.0539  0.7322
  802MOL0     C 8158   6.982   9.608  10.098  0.6582 -0.0519 -0.3698
  802MOL0     O 8159   6.960   9.479  10.040  0.1891  0.0810 -0.1029
  802MOL0     C 8160   6.979   9.466   9.911  0.1755 -0.0271 -0.2218
  802MOL0     C 8161   6.878   9.409   9.841 -0.5520  0.2599  0.7842
  802MOL0     C 8162   6.886   9.390   9.702  0.9319 -0.1904  0.3267
  802MOL0     C 8163   7.006   9.410   9.639  0.4681  0.4511 -0.6741
  802MOL0     C 8164   7.026   9.378   9.496 -0.3611  0.4808  0.2464
  802MOL0     O 8165   7.155   9.388   9.443 -0.2828  0.0476  0.0635
  802MOL0     C 8166   7.174   9.338   9.312 -0.4878  0.4618 -0.6227
  802MOL0     C 8167   7.309   9.299   9.280  0.1565 -0.2150 -0.0210
  802MOL0     C 8168   7.333   9.235   9.163  0.1338 -1.1708 -0.1765
  802MOL0     C 8169   7.234   9.213   9.066 -0.3897 -0.2501 -0.2602
  802MOL0     O 8170   7.246   9.142   8.948  0.6425 -0.3300 -0.7660
  802MOL0     C 8171   7.377   9.111   8.892  0.3791 -0.3320  0.0736
  802MOL0     C 8172   7.375   9.127   8.739  0.1366 -0.1083 -0.6687
  802MOL0     C 8173   7.236   9.087   8.667 -0.5800 -0.3229 -0.1112
  802MOL0     C 8174   7.206   8.937   8.676  0.1747 -0.1470 -0.0905
  802MOL0     C 8175   7.074   8.904   8.612 -0.2996 -0.1672  0.2684
  802MOL0     C 8176   6.951   8.976   8.681  0.7801  0.1298  0.2923
  802MOL0     C 8177   6.901   9.095   8.606  0.0259  0.1790  0.3608
  802MOL0     C 8178   6.802   9.193   8.683  0.2798  0.6128  0.0943
  802MOL0    Cl 8179   6.905   9.289   8.786  0.5567 -0.0453  0.2150
  802MOL0     C 8180   7.105   9.253   9.095 -0.1715 -0.3461 -0.3489
  802MOL0     C 8181   7.075   9.323   9.210  0.2177 -0.7323  0.0222
  802MOL0     O 8182   6.925   9.335   9.440  0.1104 -0.0359  0.2933
  802MOL0     C 8183   7.113   9.461   9.712 -0.0149 -0.0828 -1.0245
  802MOL0     C 8184   7.098   9.497   9.844  0.0875 -0.4034 -0.0856
  802MOL0     N 8185   7.038   9.411  10.523  1.0850  0.5908  0.0301
  802MOL0     N 8186   7.006   9.290  10.566  0.4135 -0.1876  0.4753
  802MOL0     C 8187   7.981   8.568  10.409 -0.2446 -0.3413 -0.4428
  802MOL0     C 8188   8.088   8.641  10.359  1.1233  0.5628  0.2162
  802MOL0     C 8189   8.429   8.890  10.244  0.3508  0.2321 -0.0398
  802MOL0     C 8190   8.524   8.882  10.349  0.0684  0.8495 -0.6109
  802MOL0     C 8191   8.652   8.926  10.328  0.1345 -0.2963  0.1214
  802MOL0     C 8192   8.693   8.949  10.196  0.2083 -0.3721  0.0790
  802MOL0     O 8193   8.818   8.988  10.166 -0.6824  0.2672 -1.3086
  802MOL0     C 8194   8.920   8.960  10.270  0.3548 -0.0977  0.2453
  802MOL0     C 8195   9.046   9.015  10.213  0.2059  0.4349 -0.6876
  802MOL0     C 8196   9.046   9.172  10.228  0.5156 -1.0623  0.7728
  802MOL0     C 8197   9.177   9.242  10.180  0.2590  0.6788  0.3539
  802MOL0     C 8198   9.306   9.195  10.242  0.5000  0.5830 -0.7457
  802MOL0     C 8199   9.422   9.165  10.283 -0.8552 -0.3055 -0.4796
  802MOL0     C 8200   8.604   8.938  10.092  0.6625  0.5336  0.9765
  802MOL0     C 8201   8.465   8.913  10.107  0.2959  0.4990 -1.1279
  802MOL0     C 8202   8.378   8.905   9.987  0.0248  0.6567 -0.5204
  802MOL0     H 8203   8.177   8.816  10.630 -0.4718  1.4602  0.1184
  802MOL0     H 8204   7.969   8.674  10.726  0.3102 -1.8183 -0.2090
  802MOL0     H 8205   7.749   8.438  10.431 -2.1155 -2.4676  0.4116
  802MOL0     H 8206   7.689   8.387  10.589 -0.1980 -1.8518 -1.8896
  802MOL0     H 8207   7.512   8.518  10.493  1.0969 -1.7059  0.4609
  802MOL0     H 8208   7.620   8.663  10.471 -0.7802  1.4565  0.7458
  802MOL0     H 8209   7.635   8.677  10.714 -0.0967 -1.3179  2.0455
  802MOL0     H 8210   7.546   8.535  10.746 -3.1006  1.4260  2.6200
  802MOL0     H 8211   7.344   8.604  10.635  0.5917  0.4690  0.6199
  802MOL0     H 8212   7.385   8.685  10.783 -1.7784  0.9072 -1.0761
  802MOL0     H 8213   7.474   8.884  10.643  2.4415 -2.9946 -0.9381
  802MOL0     H 8214   7.404   8.795  10.507  0.3588 -0.8360 -0.8524
  802MOL0     H 8215   7.183   8.804  10.610  0.1204  0.4783  1.0701
  802MOL0     H 8216   7.247   8.899  10.742  1.9769 -0.5212  0.4276
  802MOL0     H 8217   7.269   8.983  10.451  1.0373  0.0047  0.5797
  802MOL0     H 8218   7.300   9.084  10.597 -1.6817  0.1899  1.6279
  802MOL0     H 8219   7.011   8.990  10.527  1.4650 -2.4077 -0.7343
  802MOL0     H 8220   7.062   9.059  10.667  0.9141  0.8674 -0.4976
  802MOL0     H 8221   7.273   9.237  10.377 -0.1069 -3.0729  2.3726
  802MOL0     H 8222   7.204   9.598  10.444 -0.6589  0.7165 -1.2708
  802MOL0     H 8223   7.328   9.482  10.385 -0.7498 -3.2527  0.9253
  802MOL0     H 8224   7.234   9.617  10.198 -2.9169  0.8119  0.1377
  802MOL0     H 8225   7.197   9.444  10.175  1.9575 -2.0033  2.3731
  802MOL0     H 8226   7.049   9.683  10.302 -1.5835  0.5946  0.4010
  802MOL0     H 8227   6.973   9.523  10.296 -0.4182  1.6979  1.7204
  802MOL0     H 8228   7.046   9.667  10.032 -2.1868  2.4649 -1.1017
  802MOL0     H 8229   6.887   9.659  10.113  1.5578  1.3989  0.5975
  802MOL0     H 8230   6.782   9.382   9.884 -1.2431  2.3177  0.6607
  802MOL0     H 8231   6.796   9.353   9.653  0.0125  1.4336  0.7135
  802MOL0     H 8232   7.394   9.308   9.346  2.1785 -3.1501 -1.9843
  802MOL0     H 8233   7.436   9.214   9.137  0.6727  2.2912 -1.3982
  802MOL0     H 8234   7.463   9.175   8.916  1.3519 -0.1435 -3.3433
  802MOL0     H 8235   7.391   9.008   8.924 -0.4997 -0.2658  0.7364
  802MOL0     H 8236   7.401   9.230   8.712  0.4947  0.0617  0.2488
  802MOL0     H 8237   7.448   9.053   8.705  0.7910  1.0775 -1.9109
  802MOL0     H 8238   7.165   9.150   8.721  1.9606  1.3994  1.4700
  802MOL0     H 8239   7.241   9.110   8.560  0.1058  3.3404  0.5532
  802MOL0     H 8240   7.215   8.906   8.780  3.0760 -0.1290 -0.2391
  802MOL0     H 8241   7.289   8.894   8.619  0.0554  1.1319 -1.2757
  802MOL0     H 8242   7.054   8.796   8.608  0.9457 -0.4333  0.8564
  802MOL0     H 8243   7.077   8.933   8.507  1.5621 -0.6369  0.1536
  802MOL0     H 8244   6.865   8.909   8.690  1.2663 -0.4268  0.8904
  802MOL0     H 8245   6.966   9.014   8.783  2.4865 -1.0073  0.5240
  802MOL0     H 8246   6.845   9.056   8.520 -0.3843  0.6532  0.4099
  802MOL0     H 8247   6.985   9.151   8.564  0.3975 -1.6340 -1.4692
  802MOL0     H 8248   6.740   9.254   8.615 -1.1244 -1.2573 -0.3858
  802MOL0     H 8249   6.732   9.135   8.744  1.7285 -1.0288  0.2655
  802MOL0     H 8250   7.025   9.229   9.026 -3.4084  1.4718  2.4452
  802MOL0     H 8251   6.983   9.380   9.211  1.0020  0.5871 -0.5409
  802MOL0     H 8252   7.209   9.482   9.665  1.4213  0.0382  1.7828
  802MOL0     H 8253   7.181   9.539   9.901  0.1199  1.9507 -1.6945
  802MOL0     H 8254   7.933   8.491  10.350  0.3352  1.7446 -3.9182
  802MOL0     H 8255   8.116   8.626  10.255 -0.2542  2.6503 -0.5317
  802MOL0     H 8256   8.501   8.847  10.450  1.7132  0.2554 -0.4018
  802MOL0     H 8257   8.722   8.930  10.411  1.0919  1.8999 -0.7126
  802MOL0     H 8258   8.925   8.853  10.292  0.6386  0.0747  1.0554
  802MOL0     H 8259   8.887   9.022  10.354 -0.7777 -1.3309  0.7611
  802MOL0     H 8260   9.071   8.978  10.114  0.0058 -3.0656  0.4182
  802MOL0     H 8261   9.129   8.984  10.279  0.2550  4.2590  1.3339
  802MOL0     H 8262   9.012   9.207  10.326 -0.9624  1.1508 -0.4369
  802MOL0     H 8263   8.970   9.207  10.158 -0.7557 -0.4687  2.3887
  802MOL0     H 8264   9.185   9.204  10.078  0.6781  1.1702  0.2011
  802MOL0     H 8265   9.166   9.350  10.198 -3.2078  0.1618  2.2009
  802MOL0     H 8266   9.516   9.121  10.309 -0.4597 -0.0495 -1.4359
  802MOL0     H 8267   8.625   8.984   9.995  1.1342  0.0026  0.8218
  802MOL0     H 8268   8.320   8.995   9.966 -0.9252 -0.2868 -2.2378
  802MOL0     H 8269   8.448   8.894   9.903  2.0976  0.4318  1.1359
  802MOL0     H 8270   8.310   8.819   9.983  0.5906  0.0693  1.5102
  803MOL0     O 8271  11.269   4.049   2.005 -0.1624 -0.6723  0.5302
  803MOL0     C 8272  11.313   4.106   1.903 -0.1467 -0.6909 -1.0165
  803MOL0     O 8273  11.242   4.194   1.830  0.3852 -0.0853  1.1163
  803MOL0     C 8274  11.102   4.193   1.832  0.8484  0.1431  0.0025
  803MOL0     C 8275  11.019   4.103   1.899  0.2363 -0.0924  0.0150
  803MOL0     C 8276  10.882   4.128   1.908 -1.0795  0.0656 -0.0314
  803MOL0     C 8277  10.821   4.235   1.845 -0.1880  0.9068  0.0662
  803MOL0     O 8278  10.685   4.251   1.839  0.1854 -0.5766 -0.6213
  803MOL0     C 8279  10.592   4.152   1.897 -0.9766 -0.0966  0.0042
  803MOL0     C 8280  10.446   4.168   1.856 -0.4441  0.1270 -0.7287
  803MOL0     C 8281  10.347   4.070   1.930  0.3318 -0.9526 -0.1195
  803MOL0     C 8282  10.211   4.120   1.885  0.9170 -0.4497  0.4369
  803MOL0     C 8283  10.094   4.036   1.947 -0.8464  0.2145 -0.0596
  803MOL0     C 8284   9.958   4.078   1.876 -1.2938  0.1322 -0.0188
  803MOL0     C 8285   9.835   4.014   1.949  0.7632 -0.2610  0.9741
  803MOL0     C 8286   9.706   4.062   1.878  0.0241 -0.1293  0.0703
  803MOL0     N 8287   9.581   4.003   1.931 -0.3045  0.5509 -0.3420
  803MOL0     C 8288   9.461   4.034   1.870  0.2104  0.1604  0.4694
  803MOL0     C 8289   9.373   3.957   1.940 -0.5052 -0.5358 -0.0294
  803MOL0     C 8290   9.228   3.956   1.923  0.0090  0.2673 -1.0461
  803MOL0     C 8291   9.175   3.877   1.808 -0.0256 -0.0545  0.0582
  803MOL0     C 8292   9.023   3.898   1.779 -0.1456 -0.6791  0.3047
  803MOL0     C 8293   9.008   4.026   1.699 -0.4843 -0.7403  0.1344
  803MOL0     O 8294   8.885   4.029   1.621 -0.0210  0.5071 -0.6644
  803MOL0     C 8295   8.774   4.077   1.692 -0.2123 -0.0315 -0.7878
  803MOL0     C 8296   8.768   4.133   1.820 -0.1278 -0.0399 -0.2413
  803MOL0     C 8297   8.645   4.169   1.874  0.0763 -0.6781  0.5251
  803MOL0     C 8298   8.527   4.160   1.796 -0.9683  0.8805  0.3346
  803MOL0     C 8299   8.393   4.178   1.857  0.6055 -0.2480  0.0905
  803MOL0     O 8300   8.385   4.215   1.993 -0.6890 -0.3165  0.7824
  803MOL0     C 8301   8.257   4.253   2.029  0.5874  0.2264  0.7497
  803MOL0     C 8302   8.231   4.382   2.044  0.5249  0.4469  0.2344
  803MOL0     C 8303   8.107   4.429   2.074 -0.3047 -0.0358  0.1995
  803MOL0     C 8304   8.006   4.340   2.097 -1.3198 -0.0934  0.3453
  803MOL0     O 8305   7.893   4.405   2.124  0.4511  0.2039 -0.3690
  803MOL0     C 8306   7.787   4.324   2.175  0.3880  0.9559 -0.1201
  803MOL0     C 8307   7.697   4.283   2.064 -0.0522  0.3041  0.2407
  803MOL0     C 8308   7.554   4.268   2.102 -0.4500 -0.0806  0.7772
  803MOL0     C 8309   7.454   4.201   2.004 -0.7211 -0.4122 -0.0715
  803MOL0     C 8310   7.311   4.222   2.054  0.9603  0.7333  0.1386
  803MOL0     C 8311   7.205   4.189   1.948  1.8405  0.0840  0.2496
  803MOL0     C 8312   7.064   4.184   1.999 -0.5482  0.8511  0.8513
  803MOL0     C 8313   6.971   4.125   1.901  0.1713 -0.0614  0.6586
  803MOL0    Cl 8314   6.815   4.154   1.978 -0.2886  0.3036 -0.3748
  803MOL0     C 8315   8.031   4.199   2.081 -0.7952 -0.2264 -0.1810
  803MOL0     C 8316   8.161   4.156   2.041  0.2400 -0.4769 -0.9515
  803MOL0     O 8317   8.301   4.170   1.776 -0.0382 -0.6921  0.2874
  803MOL0     C 8318   8.542   4.113   1.665  0.3307 -0.0982 -0.3380
  803MOL0     C 8319   8.661   4.065   1.618  0.1495  0.0850  0.6472
  803MOL0     N 8320   9.443   3.870   2.027 -0.0181 -0.2956 -0.0354
  803MOL0     N 8321   9.569   3.898   2.020 -0.4652  0.5073 -1.1170
  803MOL0     C 8322  10.909   4.322   1.772 -0.4081 -0.0053  0.2353
  803MOL0     C 8323  11.045   4.307   1.768  0.8450 -1.0146  0.2372
  803MOL0     C 8324  11.456   4.076   1.873 -0.0001  0.1803  0.3919
  803MOL0     C 8325  11.510   3.958   1.930  0.1194  0.1257  1.3385
  803MOL0     C 8326  11.639   3.912   1.899 -0.8841  0.7720 -0.3800
  803MOL0     C 8327  11.727   3.993   1.828  0.2735  0.3612 -0.2912
  803MOL0     O 8328  11.854   3.935   1.824  0.0157 -0.1292 -0.0185
  803MOL0     C 8329  11.957   3.997   1.751 -0.8015 -0.0006 -0.6506
  803MOL0     C 8330  12.042   4.082   1.858  1.0195  0.2366  1.0116
  803MOL0     C 8331  12.177   4.122   1.801  0.0729 -0.3056  0.1813
  803MOL0     C 8332  12.238   4.206   1.906 -0.4573 -0.2987  0.3290
  803MOL0     C 8333  12.357   4.264   1.839 -0.1540  0.9420  0.6118
  803MOL0     C 8334  12.455   4.303   1.790  0.7658  0.0813  0.6351
  803MOL0     C 8335  11.681   4.111   1.768 -0.2862  0.1666 -0.0330
  803MOL0     C 8336  11.543   4.156   1.792 -0.5699 -1.0133 -0.2395
  803MOL0     C 8337  11.514   4.293   1.730  0.1373 -0.2150  0.6307
  803MOL0     H 8338  11.044   4.008   1.946 -0.9600 -0.5299 -0.1831
  803MOL0     H 8339  10.817   4.066   1.969 -1.7216  1.8171  1.1512
  803MOL0     H 8340  10.625   4.049   1.877 -0.9996 -0.3320  1.0988
  803MOL0     H 8341  10.590   4.171   2.005 -2.4236 -0.4736  0.0558
  803MOL0     H 8342  10.433   4.157   1.748 -1.4427 -2.6619 -0.3901
  803MOL0     H 8343  10.423   4.275   1.865 -0.0546  0.2256 -0.8942
  803MOL0     H 8344  10.355   4.076   2.039  0.4289  0.2184 -0.1777
  803MOL0     H 8345  10.359   3.966   1.898 -2.2017 -1.0685 -0.9342
  803MOL0     H 8346  10.198   4.225   1.912  1.1208 -0.4842  0.6681
  803MOL0     H 8347  10.192   4.110   1.778  0.4364 -2.4677  0.6527
  803MOL0     H 8348  10.125   3.936   1.915  0.9500  0.8245 -0.3662
  803MOL0     H 8349  10.085   4.047   2.056 -2.7785 -1.3579 -0.0080
  803MOL0     H 8350   9.954   4.187   1.876 -0.5788  0.4114  4.8700
  803MOL0     H 8351   9.966   4.045   1.773 -0.2934  0.6849 -0.1310
  803MOL0     H 8352   9.827   4.046   2.053 -0.6028  5.0491 -0.4298
  803MOL0     H 8353   9.850   3.906   1.935  3.8157  0.1843 -0.0187
  803MOL0     H 8354   9.716   4.171   1.891  2.9806 -0.4346  1.1896
  803MOL0     H 8355   9.723   4.038   1.772 -0.4786  0.0792 -0.0629
  803MOL0     H 8356   9.445   4.109   1.793  0.1510 -1.0480 -0.7296
  803MOL0     H 8357   9.181   3.920   2.015  0.6067 -2.0326 -1.5696
  803MOL0     H 8358   9.186   4.057   1.917  0.1856  0.3598 -0.7148
  803MOL0     H 8359   9.238   3.882   1.719  2.3188  1.0520  1.6636
  803MOL0     H 8360   9.190   3.771   1.832  0.6418 -0.2409 -1.1156
  803MOL0     H 8361   8.977   3.904   1.878 -0.7263  1.8498 -0.0422
  803MOL0     H 8362   8.989   3.809   1.726  0.0038  1.8519 -4.6255
  803MOL0     H 8363   9.088   4.026   1.625  1.7329 -1.9926  2.3608
  803MOL0     H 8364   9.017   4.115   1.763 -0.9227 -0.7312  0.1908
  803MOL0     H 8365   8.854   4.144   1.886 -1.9473  1.3628  2.0681
  803MOL0     H 8366   8.625   4.203   1.975 -2.7640  2.0201 -0.7521
  803MOL0     H 8367   8.311   4.454   2.051  1.3440 -0.5409  1.4395
  803MOL0     H 8368   8.086   4.534   2.092  3.8121  0.3989  3.8358
  803MOL0     H 8369   7.819   4.244   2.242 -1.3805 -0.6428 -1.0877
  803MOL0     H 8370   7.724   4.391   2.234 -0.4154  0.3878 -0.3265
  803MOL0     H 8371   7.716   4.347   1.978 -2.5666 -0.3097 -0.8534
  803MOL0     H 8372   7.723   4.178   2.045 -2.5781 -0.1974 -0.8080
  803MOL0     H 8373   7.551   4.216   2.198  0.8747 -0.6423  0.5348
  803MOL0     H 8374   7.518   4.369   2.126 -2.3542 -0.8481  1.3197
  803MOL0     H 8375   7.462   4.093   1.986  0.3228 -0.5173  0.9259
  803MOL0     H 8376   7.467   4.246   1.905 -2.1518  1.8382  0.6819
  803MOL0     H 8377   7.300   4.325   2.088  2.0038  0.4130  1.5258
  803MOL0     H 8378   7.299   4.157   2.141  2.8320 -0.4526 -0.4405
  803MOL0     H 8379   7.211   4.268   1.872 -0.2575  2.1017  2.0373
  803MOL0     H 8380   7.227   4.090   1.908  0.3145 -0.6622  1.1804
  803MOL0     H 8381   7.039   4.290   1.996 -1.2025  0.7209 -2.8062
  803MOL0     H 8382   7.062   4.144   2.100  2.9958  0.0112  0.7284
  803MOL0     H 8383   6.984   4.179   1.807  0.1368 -0.0989  0.6321
  803MOL0     H 8384   6.990   4.019   1.880  0.6042 -0.1434  1.4414
  803MOL0     H 8385   7.964   4.124   2.123  0.7186 -0.8417  1.2438
  803MOL0     H 8386   8.204   4.057   2.031  3.3543  0.8831 -2.2137
  803MOL0     H 8387   8.457   4.112   1.597  2.3157 -0.0686 -2.9829
  803MOL0     H 8388   8.672   4.019   1.520 -2.3030 -1.4338  0.9921
  803MOL0     H 8389  10.852   4.404   1.729 -2.9254 -0.9111  1.6392
  803MOL0     H 8390  11.109   4.383   1.724 -1.4484  2.2049  2.0446
  803MOL0     H 8391  11.455   3.897   1.999  1.2456 -1.2526  1.0585
  803MOL0     H 8392  11.684   3.823   1.940  1.5622  2.7397  1.5199
  803MOL0     H 8393  11.921   4.051   1.663 -1.9071 -0.1460 -0.3083
  803MOL0     H 8394  12.016   3.914   1.712  2.0445  2.8101 -2.7869
  803MOL0     H 8395  12.076   4.009   1.932  2.4773  1.5085  1.6489
  803MOL0     H 8396  11.983   4.164   1.901  1.4993  1.0951  0.0858
  803MOL0     H 8397  12.145   4.183   1.717  0.3363 -0.2938  0.0886
  803MOL0     H 8398  12.243   4.040   1.771 -0.7495 -1.5857  1.7003
  803MOL0     H 8399  12.176   4.289   1.941  0.7278  1.0240 -0.5747
  803MOL0     H 8400  12.275   4.141   1.986 -0.4049 -0.4763  0.1585
  803MOL0     H 8401  12.546   4.324   1.738  0.3676  2.6698  0.8873
  803MOL0     H 8402  11.745   4.177   1.710 -4.5109  1.9521 -3.1574
  803MOL0     H 8403  11.587   4.373   1.746 -2.6437  2.4103  1.1436
  803MOL0     H 8404  11.497   4.283   1.623 -0.1579 -0.6422  0.7184
  803MOL0     H 8405  11.423   4.341   1.768  1.3001  1.4066  1.5269
  804MOL0     O 8406   6.026   8.044   7.920 -0.1533 -0.6801  0.6532
  804MOL0     C 8407   6.079   8.022   8.022  0.5560 -0.2456  0.0993
  804MOL0     O 8408   6.055   7.915   8.101 -0.2586 -0.0278  0.0317
  804MOL0     C 8409   5.945   7.832   8.076 -0.1969 -0.4847 -0.2002
  804MOL0     C 8410   5.821   7.881   8.030  0.1991 -0.0479 -0.6114
  804MOL0     C 8411   5.711   7.795   8.020 -0.0477 -1.1125 -0.1076
  804MOL0     C 8412   5.718   7.656   8.046 -0.5254 -0.4229 -0.1091
  804MOL0     O 8413   5.603   7.587   8.061  0.9068  0.4029  0.1001
  804MOL0     C 8414   5.616   7.440   8.087  0.7195 -0.2038  0.9234
  804MOL0     C 8415   5.477   7.380   8.090 -0.5925 -1.3261 -0.5925
  804MOL0     C 8416   5.470   7.232   8.097  0.5817  0.6129  0.4561
  804MOL0     C 8417   5.563   7.166   8.202 -0.8597  0.1025 -0.6880
  804MOL0     C 8418   5.555   7.020   8.223 -0.7491  0.5182  0.2452
  804MOL0     C 8419   5.644   6.957   8.332  0.5805  0.8018  0.7371
  804MOL0     C 8420   5.617   6.804   8.338 -0.5042  0.5916 -0.2823
  804MOL0     C 8421   5.734   6.718   8.379 -0.9390 -0.2993 -0.1096
  804MOL0     N 8422   5.828   6.682   8.266  0.1696 -0.3139  0.0863
  804MOL0     C 8423   5.893   6.769   8.184  0.3720  0.1702 -0.2855
  804MOL0     C 8424   5.962   6.696   8.093  0.5236  0.9893  0.1183
  804MOL0     C 8425   6.036   6.751   7.977  0.1705 -0.8457  0.3286
  804MOL0     C 8426   6.157   6.657   7.959  1.2227 -0.2792 -0.0939
  804MOL0     C 8427   6.257   6.723   7.847 -0.7345 -0.2654 -0.0625
  804MOL0     C 8428   6.352   6.623   7.767 -0.1239 -0.1389  0.9178
  804MOL0     O 8429   6.387   6.697   7.647 -1.2092  0.2054 -0.5109
  804MOL0     C 8430   6.508   6.676   7.589 -0.1373 -0.5034  0.1946
  804MOL0     C 8431   6.525   6.759   7.479  0.5515 -1.2530 -0.0400
  804MOL0     C 8432   6.643   6.758   7.405  0.3819 -0.3817  0.1943
  804MOL0     C 8433   6.736   6.658   7.420 -0.0391  0.2170  0.5406
  804MOL0     C 8434   6.868   6.671   7.345  0.3403  0.1676  0.1747
  804MOL0     O 8435   6.956   6.567   7.370 -0.5323 -0.3760  0.1913
  804MOL0     C 8436   7.087   6.575   7.330 -0.7320  0.7048  0.1806
  804MOL0     C 8437   7.115   6.598   7.191 -0.6566 -0.0579 -0.0390
  804MOL0     C 8438   7.245   6.620   7.150 -0.6247  0.6794  0.2688
  804MOL0     C 8439   7.355   6.609   7.238 -0.0193 -0.6354  0.4408
  804MOL0     O 8440   7.475   6.632   7.176  0.0635  0.4988 -0.0390
  804MOL0     C 8441   7.578   6.544   7.213 -0.1023  0.5129  0.2417
  804MOL0     C 8442   7.713   6.572   7.131 -0.3556 -0.4559 -0.0707
  804MOL0     C 8443   7.836   6.550   7.221 -0.4710 -1.3330  0.2783
  804MOL0     C 8444   7.962   6.565   7.139  0.5119  0.1207  0.2262
  804MOL0     C 8445   8.074   6.622   7.224 -0.7286  0.6246  0.0825
  804MOL0     C 8446   8.136   6.509   7.308  0.1142 -0.2034 -0.7173
  804MOL0     C 8447   8.260   6.563   7.385 -1.3718 -0.8161  0.6251
  804MOL0     C 8448   8.364   6.455   7.413  0.7860  0.0740  0.4801
  804MOL0    Cl 8449   8.413   6.471   7.583 -0.3964  0.0805  0.0998
  804MOL0     C 8450   7.331   6.604   7.373 -0.8228  0.2163 -0.6168
  804MOL0     C 8451   7.200   6.578   7.413 -0.0598  0.4335 -0.2301
  804MOL0     O 8452   6.894   6.771   7.269 -0.1023 -0.2488 -0.2081
  804MOL0     C 8453   6.720   6.576   7.531  0.5552 -0.1638  0.2927
  804MOL0     C 8454   6.603   6.582   7.611 -1.4451 -0.6929 -1.2034
  804MOL0     N 8455   5.939   6.558   8.119  0.2036  0.2102 -0.5264
  804MOL0     N 8456   5.855   6.558   8.221  0.2479 -0.1931 -0.6239
  804MOL0     C 8457   5.841   7.618   8.104 -0.2644  0.0716  0.0202
  804MOL0     C 8458   5.957   7.698   8.111 -0.1095 -0.6890 -0.1909
  804MOL0     C 8459   6.192   8.110   8.064  0.6503  0.3157  0.3798
  804MOL0     C 8460   6.304   8.046   8.118 -0.2311  0.3550  0.3909
  804MOL0     C 8461   6.403   8.117   8.187  0.7869  0.2926  0.3485
  804MOL0     C 8462   6.400   8.254   8.204  0.8408 -0.3648 -0.4556
  804MOL0     O 8463   6.511   8.319   8.263 -0.4677  0.0919 -0.1677
  804MOL0     C 8464   6.567   8.427   8.190  0.1832 -0.1373  0.5899
  804MOL0     C 8465   6.528   8.561   8.256 -1.0537  0.4361 -0.2363
  804MOL0     C 8466   6.597   8.591   8.390 -0.3469  0.2401  0.4499
  804MOL0     C 8467   6.738   8.655   8.369  0.4427 -0.1685  0.8091
  804MOL0     C 8468   6.845   8.564   8.326  0.4195  0.4519  0.1207
  804MOL0     C 8469   6.921   8.480   8.283 -0.4932 -0.3080 -0.0754
  804MOL0     C 8470   6.288   8.321   8.144  0.4550 -0.1693 -0.4931
  804MOL0     C 8471   6.186   8.254   8.082  0.4584  0.6617 -0.4619
  804MOL0     C 8472   6.076   8.336   8.025 -0.2097 -0.0066  0.4323
  804MOL0     H 8473   5.812   7.985   8.000  0.4912  0.2146  0.1740
  804MOL0     H 8474   5.620   7.841   7.983  2.4940  4.4419 -0.4559
  804MOL0     H 8475   5.681   7.383   8.020 -0.2032  1.6749 -1.7392
  804MOL0     H 8476   5.658   7.424   8.187  2.2919  0.4308  0.3971
  804MOL0     H 8477   5.416   7.413   8.006  0.0311  2.3521  0.2196
  804MOL0     H 8478   5.419   7.408   8.178 -1.1803 -1.9026 -0.7879
  804MOL0     H 8479   5.491   7.183   8.001 -1.9750 -0.6506  0.4453
  804MOL0     H 8480   5.365   7.207   8.118  0.7504  0.6749  1.4286
  804MOL0     H 8481   5.667   7.197   8.188 -1.4924  3.3658  0.9660
  804MOL0     H 8482   5.530   7.208   8.297 -1.1096 -0.7427 -0.3967
  804MOL0     H 8483   5.452   7.001   8.253 -0.2489  0.3325  1.9245
  804MOL0     H 8484   5.563   6.968   8.127 -3.0180  0.4161  0.0728
  804MOL0     H 8485   5.750   6.980   8.319  0.7121  0.1223  0.5788
  804MOL0     H 8486   5.617   7.019   8.419 -0.2514  3.0352 -1.0067
  804MOL0     H 8487   5.575   6.773   8.242 -1.1319  2.1222 -0.5474
  804MOL0     H 8488   5.537   6.792   8.412  0.2877 -1.7529  0.2661
  804MOL0     H 8489   5.792   6.771   8.455 -0.4564 -1.6014  0.4659
  804MOL0     H 8490   5.707   6.622   8.423  2.3118 -0.9924  0.6650
  804MOL0     H 8491   5.893   6.877   8.179  1.7964  0.1762 -0.6650
  804MOL0     H 8492   5.969   6.756   7.891 -1.9168  3.6199  1.8755
  804MOL0     H 8493   6.076   6.852   7.990  2.2499 -1.2261 -2.2042
  804MOL0     H 8494   6.216   6.636   8.049  3.4679  0.6594 -1.2594
  804MOL0     H 8495   6.114   6.564   7.920  0.1252 -0.5405  1.6656
  804MOL0     H 8496   6.316   6.791   7.909 -4.4746  1.4983  1.9571
  804MOL0     H 8497   6.206   6.785   7.772 -0.1080  1.5784  0.9666
  804MOL0     H 8498   6.294   6.534   7.742 -1.4372  0.4427  1.7839
  804MOL0     H 8499   6.444   6.596   7.820  0.0251 -0.4405  0.5053
  804MOL0     H 8500   6.448   6.832   7.456  0.9707 -0.6215  0.5324
  804MOL0     H 8501   6.668   6.822   7.321 -2.0116  1.0255  0.4694
  804MOL0     H 8502   7.031   6.622   7.127 -1.0322  0.2732  0.5651
  804MOL0     H 8503   7.260   6.645   7.046  1.3122  2.2210  0.8613
  804MOL0     H 8504   7.600   6.554   7.320 -0.1300  0.8605  0.2144
  804MOL0     H 8505   7.543   6.443   7.190 -0.6867 -0.0078  3.0606
  804MOL0     H 8506   7.727   6.518   7.037  2.1999 -0.6054  0.3225
  804MOL0     H 8507   7.706   6.677   7.099 -1.0194 -0.4621  0.0362
  804MOL0     H 8508   7.835   6.625   7.300  1.4503  0.8503 -1.6331
  804MOL0     H 8509   7.832   6.449   7.264 -1.3378 -1.5108 -0.1799
  804MOL0     H 8510   7.953   6.629   7.050 -0.4581 -1.6083 -0.9734
  804MOL0     H 8511   7.996   6.471   7.095  1.4113  0.6797 -0.3159
  804MOL0     H 8512   8.039   6.703   7.288  0.4770  0.8118  0.5271
  804MOL0     H 8513   8.146   6.664   7.154  0.3211  1.2994  1.5179
  804MOL0     H 8514   8.067   6.472   7.385 -0.5670  3.1913  0.4776
  804MOL0     H 8515   8.183   6.429   7.250  3.4331 -0.2444  1.7129
  804MOL0     H 8516   8.228   6.621   7.471 -2.1160 -0.2449 -0.0141
  804MOL0     H 8517   8.323   6.619   7.315  3.5262 -3.8751  2.1590
  804MOL0     H 8518   8.315   6.360   7.391 -0.3080  1.0267 -1.5107
  804MOL0     H 8519   8.449   6.467   7.346  1.9923 -3.9200  1.0626
  804MOL0     H 8520   7.415   6.610   7.441  0.5752  1.1662 -2.3391
  804MOL0     H 8521   7.184   6.555   7.518 -0.9714  0.6593 -0.3126
  804MOL0     H 8522   6.799   6.508   7.562  0.1033  0.3690  2.9145
  804MOL0     H 8523   6.611   6.521   7.700  2.0157  0.4638 -0.5696
  804MOL0     H 8524   5.856   7.514   8.132  2.4890  0.2706 -0.4821
  804MOL0     H 8525   6.051   7.656   8.145  0.9023 -0.3465 -2.4223
  804MOL0     H 8526   6.312   7.938   8.109  1.2498  0.5175 -0.5402
  804MOL0     H 8527   6.487   8.071   8.238  3.0447  0.5227 -2.8422
  804MOL0     H 8528   6.518   8.427   8.092 -0.9481  1.5624  1.1215
  804MOL0     H 8529   6.675   8.422   8.171  0.1583 -1.7605  0.7474
  804MOL0     H 8530   6.421   8.561   8.277 -0.7188 -2.0454  1.8990
  804MOL0     H 8531   6.554   8.645   8.190  3.8095 -1.3794 -1.0924
  804MOL0     H 8532   6.602   8.504   8.456 -0.2201  1.0575  1.5352
  804MOL0     H 8533   6.532   8.664   8.439  2.5585  1.7727  2.3003
  804MOL0     H 8534   6.724   8.744   8.306  2.5778  0.0950  0.6558
  804MOL0     H 8535   6.774   8.696   8.464  1.4536 -1.3421  0.9372
  804MOL0     H 8536   6.990   8.403   8.251 -0.1669 -0.6539  1.3859
  804MOL0     H 8537   6.270   8.425   8.166 -2.8124  0.5110 -5.0275
  804MOL0     H 8538   5.978   8.292   8.047 -0.7232  1.6199  1.5909
  804MOL0     H 8539   6.079   8.436   8.068 -0.5285 -0.4270  1.4739
  804MOL0     H 8540   6.089   8.344   7.917 -1.8774  2.6620  0.3463
  805MOL0     O 8541   7.889  10.885   4.641 -1.0622 -0.1028 -0.2732
  805MOL0     C 8542   7.934  10.785   4.686  0.9539  0.5218  0.3636
  805MOL0     O 8543   8.046  10.722   4.637  0.1539 -0.1243  0.7036
  805MOL0     C 8544   8.130  10.788   4.553  0.3923 -0.3301  0.3600
  805MOL0     C 8545   8.141  10.742   4.422  0.4289 -0.2050 -0.1698
  805MOL0     C 8546   8.234  10.795   4.333 -0.4487  0.1285  0.5182
  805MOL0     C 8547   8.314  10.895   4.372  1.1610 -1.0522 -0.1001
  805MOL0     O 8548   8.409  10.946   4.287  0.1223  0.0921  0.6320
  805MOL0     C 8549   8.428  11.088   4.288 -1.0820  0.5740 -1.0823
  805MOL0     C 8550   8.483  11.134   4.160 -0.5541 -0.0261 -0.2017
  805MOL0     C 8551   8.380  11.108   4.042 -0.5465  0.1399 -0.0899
  805MOL0     C 8552   8.322  11.243   4.001  0.7341  0.1143  0.6106
  805MOL0     C 8553   8.225  11.217   3.888 -0.2603  0.2928  0.0620
  805MOL0     C 8554   8.110  11.321   3.887 -0.0479 -0.5511  0.6072
  805MOL0     C 8555   8.008  11.281   3.782 -0.0154 -0.3864 -0.3885
  805MOL0     C 8556   7.865  11.305   3.835 -0.2396 -0.4927  0.2087
  805MOL0     N 8557   7.762  11.250   3.744  0.4007 -0.6205 -0.4392
  805MOL0     C 8558   7.674  11.325   3.661  0.1463 -0.0265 -0.8155
  805MOL0     C 8559   7.611  11.225   3.592  0.1909 -0.4338 -0.2210
  805MOL0     C 8560   7.513  11.234   3.477 -0.5333  0.9621  0.8292
  805MOL0     C 8561   7.401  11.336   3.490  0.3830 -0.0269  0.0100
  805MOL0     C 8562   7.320  11.307   3.618 -0.1261  0.4050 -0.5732
  805MOL0     C 8563   7.184  11.380   3.612  0.3222  0.4071 -0.4738
  805MOL0     O 8564   7.086  11.322   3.528  0.1048  0.3479 -0.0479
  805MOL0     C 8565   7.029  11.199   3.550  0.3323  0.4173 -0.5512
  805MOL0     C 8566   6.970  11.155   3.431 -0.1968  0.2095  0.3606
  805MOL0     C 8567   6.898  11.036   3.424 -0.1873 -0.2575  0.3270
  805MOL0     C 8568   6.890  10.955   3.541 -0.7221 -0.2203  0.6064
  805MOL0     C 8569   6.828  10.818   3.535 -0.4039 -0.7703  1.0017
  805MOL0     O 8570   6.798  10.765   3.650 -0.7351  0.9189  0.2332
  805MOL0     C 8571   6.736  10.640   3.655 -0.0378 -0.5830  0.0060
  805MOL0     C 8572   6.612  10.611   3.594 -0.4943  0.6453  0.2098
  805MOL0     C 8573   6.565  10.477   3.588  0.5096 -0.5396 -0.7860
  805MOL0     C 8574   6.644  10.368   3.646 -0.0923 -0.3681  0.1712
  805MOL0     O 8575   6.591  10.245   3.640  0.0515 -0.0956 -0.1826
  805MOL0     C 8576   6.578  10.183   3.767  0.2985  0.8939  0.0653
  805MOL0     C 8577   6.436  10.166   3.813 -0.2276  0.3033 -0.0979
  805MOL0     C 8578   6.357  10.082   3.723  0.6310 -0.0277  0.0333
  805MOL0     C 8579   6.209  10.095   3.775  0.2453  0.0638 -0.5530
  805MOL0     C 8580   6.110  10.026   3.682  0.0868  0.2307  0.0804
  805MOL0     C 8581   6.061   9.890   3.743 -0.4291 -0.1741 -0.5695
  805MOL0     C 8582   5.927   9.843   3.684  0.0238  0.3661  0.3357
  805MOL0     C 8583   5.915   9.820   3.537 -0.5364 -0.7142 -0.1332
  805MOL0    Cl 8584   5.741   9.809   3.497 -0.1378 -0.0821 -0.1915
  805MOL0     C 8585   6.768  10.400   3.712 -0.3110  0.1152 -0.5319
  805MOL0     C 8586   6.815  10.527   3.705  1.1992  0.8850  0.4373
  805MOL0     O 8587   6.799  10.777   3.426  0.1241 -0.4010 -0.6179
  805MOL0     C 8588   6.948  10.999   3.661  0.4951  0.4642  0.3944
  805MOL0     C 8589   7.023  11.118   3.662 -0.0177 -0.0376 -1.1852
  805MOL0     N 8590   7.646  11.106   3.647 -0.3025  0.4903  0.3796
  805MOL0     N 8591   7.737  11.121   3.728 -0.7514  0.0218 -0.3260
  805MOL0     C 8592   8.298  10.949   4.498  0.5803 -0.3345  0.5083
  805MOL0     C 8593   8.210  10.897   4.596  0.2052  0.0470  0.5999
  805MOL0     C 8594   7.859  10.732   4.804 -0.4397 -0.6445  0.5208
  805MOL0     C 8595   7.931  10.644   4.885  0.1066  0.0887 -0.7340
  805MOL0     C 8596   7.888  10.610   5.011 -0.1295  0.9110  0.0548
  805MOL0     C 8597   7.760  10.652   5.054  0.1101  1.1929  0.8216
  805MOL0     O 8598   7.711  10.600   5.165  0.2216  0.0545  0.3071
  805MOL0     C 8599   7.790  10.509   5.243  0.5391 -0.7221 -0.6811
  805MOL0     C 8600   7.715  10.452   5.370  1.0074  0.0609  0.2871
  805MOL0     C 8601   7.606  10.351   5.325  0.1667  0.8725 -0.1844
  805MOL0     C 8602   7.534  10.283   5.452 -0.3320 -0.0083  0.3965
  805MOL0     C 8603   7.628  10.189   5.518 -0.1019 -0.3106  0.3930
  805MOL0     C 8604   7.712  10.121   5.566 -0.6353  0.1884 -0.6577
  805MOL0     C 8605   7.678  10.728   4.973 -0.8219 -0.2567  0.3531
  805MOL0     C 8606   7.729  10.775   4.855 -0.4782  1.1849  0.3785
  805MOL0     C 8607   7.643  10.874   4.783  0.0679  0.5065 -0.0091
  805MOL0     H 8608   8.078  10.654   4.408 -1.3843  0.9241  0.4564
  805MOL0     H 8609   8.245  10.754   4.233  0.3893  2.2665 -0.3218
  805MOL0     H 8610   8.338  11.148   4.303 -0.1814  2.6714 -3.3453
  805MOL0     H 8611   8.504  11.116   4.362 -0.0472  0.8370 -2.2058
  805MOL0     H 8612   8.572  11.076   4.133  0.5791  1.4050  0.3223
  805MOL0     H 8613   8.510  11.240   4.158 -0.3016 -0.0625  0.8325
  805MOL0     H 8614   8.306  11.041   4.087 -0.4773 -0.7926 -1.3014
  805MOL0     H 8615   8.437  11.061   3.961 -1.5519  0.2606 -0.8886
  805MOL0     H 8616   8.265  11.278   4.088 -1.7201 -2.4708  0.1670
  805MOL0     H 8617   8.396  11.314   3.963 -0.9799 -0.1691 -3.8103
  805MOL0     H 8618   8.276  11.210   3.792  2.1082  2.8094  0.9926
  805MOL0     H 8619   8.183  11.117   3.901  1.7318 -0.5338  0.5223
  805MOL0     H 8620   8.064  11.323   3.986  1.0222  1.4981  1.0970
  805MOL0     H 8621   8.140  11.425   3.875  1.2038 -1.0698 -1.2125
  805MOL0     H 8622   8.016  11.172   3.772  3.6347 -0.3741  0.9941
  805MOL0     H 8623   8.021  11.328   3.684  2.7225  0.9669  0.5242
  805MOL0     H 8624   7.855  11.262   3.935 -1.6104 -1.0038 -0.1264
  805MOL0     H 8625   7.855  11.413   3.848  0.1591 -0.1163 -2.2099
  805MOL0     H 8626   7.671  11.432   3.646  2.5605  0.0406 -1.2692
  805MOL0     H 8627   7.569  11.247   3.385 -0.0097 -1.8806  0.6650
  805MOL0     H 8628   7.468  11.135   3.464  0.7448  0.6140 -1.4272
  805MOL0     H 8629   7.434  11.440   3.502 -0.9340  0.4418 -0.2232
  805MOL0     H 8630   7.341  11.337   3.399  0.9065  2.0535 -0.3760
  805MOL0     H 8631   7.369  11.341   3.711  0.4682  1.5201 -1.2671
  805MOL0     H 8632   7.304  11.201   3.637 -1.2531  0.5772 -0.4587
  805MOL0     H 8633   7.192  11.489   3.601  1.4384  0.8850  3.3914
  805MOL0     H 8634   7.146  11.379   3.715  2.0557  0.4262  0.2150
  805MOL0     H 8635   6.963  11.220   3.344  0.1072  0.1883  0.3172
  805MOL0     H 8636   6.854  11.016   3.327 -1.2141 -2.1618  1.1332
  805MOL0     H 8637   6.563  10.686   3.532  3.4212  4.5495  1.2976
  805MOL0     H 8638   6.467  10.467   3.542 -1.1446  0.6198  2.1867
  805MOL0     H 8639   6.628  10.086   3.757 -1.4801 -0.1260  0.6382
  805MOL0     H 8640   6.626  10.237   3.849 -1.6750  3.0227 -0.0754
  805MOL0     H 8641   6.440  10.122   3.913 -1.6713  1.5487  0.5398
  805MOL0     H 8642   6.394  10.266   3.825 -0.4539  0.3252 -1.0182
  805MOL0     H 8643   6.359  10.129   3.625  1.5493 -1.1975 -0.5247
  805MOL0     H 8644   6.392   9.979   3.721  0.5331 -0.0460 -1.1086
  805MOL0     H 8645   6.179  10.200   3.783 -2.6126 -0.5521 -1.8007
  805MOL0     H 8646   6.198  10.047   3.873  1.5119  0.3384 -0.2623
  805MOL0     H 8647   6.147  10.004   3.581  1.9656 -1.2101  1.0340
  805MOL0     H 8648   6.028  10.099   3.675 -0.4770 -0.3954  0.1158
  805MOL0     H 8649   6.135   9.809   3.745 -1.5228 -1.2048  0.8512
  805MOL0     H 8650   6.049   9.922   3.847 -0.8814  0.4478 -0.8092
  805MOL0     H 8651   5.852   9.919   3.706  0.9700  0.9384  1.6465
  805MOL0     H 8652   5.898   9.748   3.729 -0.8834  0.9644  1.0538
  805MOL0     H 8653   5.952   9.907   3.481 -0.9896  1.2812  2.4579
  805MOL0     H 8654   5.971   9.732   3.504 -0.5629 -0.1955 -1.6820
  805MOL0     H 8655   6.815  10.321   3.769  0.3037 -2.4297 -4.2380
  805MOL0     H 8656   6.913  10.543   3.748  1.7508 -2.2907  0.5759
  805MOL0     H 8657   6.958  10.942   3.752  0.6657 -1.3101 -0.6891
  805MOL0     H 8658   7.076  11.136   3.755 -2.3161  0.1402  0.1719
  805MOL0     H 8659   8.360  11.027   4.539  0.1494  0.7304 -0.7722
  805MOL0     H 8660   8.199  10.944   4.693 -0.1201  1.9926 -0.3313
  805MOL0     H 8661   8.020  10.606   4.835  1.0561  1.3261 -0.0291
  805MOL0     H 8662   7.948  10.532   5.055 -1.3996  0.7983  1.6716
  805MOL0     H 8663   7.887  10.552   5.270  2.2021 -3.4850 -1.8501
  805MOL0     H 8664   7.821  10.423   5.184 -0.5201 -2.5467  1.3158
  805MOL0     H 8665   7.670  10.540   5.417 -0.6778  0.0699 -1.2175
  805MOL0     H 8666   7.788  10.399   5.432  1.2663  1.2883  1.0643
  805MOL0     H 8667   7.659  10.271   5.272  0.7784  0.5250  0.8956
  805MOL0     H 8668   7.532  10.401   5.263 -0.2896  1.4566  0.8073
  805MOL0     H 8669   7.501  10.357   5.526 -1.8842 -0.2660 -0.0059
  805MOL0     H 8670   7.439  10.237   5.422 -1.4387  1.6919  1.1390
  805MOL0     H 8671   7.791  10.062   5.609  0.3572  2.7825  1.3047
  805MOL0     H 8672   7.581  10.762   5.007 -1.4535  0.2556 -1.8063
  805MOL0     H 8673   7.698  10.968   4.792 -0.1120  0.4950  1.5485
  805MOL0     H 8674   7.629  10.841   4.680 -3.0092  1.7542 -0.0807
  805MOL0     H 8675   7.555  10.887   4.846  0.0577 -0.4797  0.2066
  806MOL0     O 8676   4.521  10.460   9.569  0.4169  0.2513 -1.1010
  806MOL0     C 8677   4.582  10.474   9.468 -0.5279 -0.8055 -0.1767
  806MOL0     O 8678   4.523  10.494   9.347 -0.8826 -0.2137 -0.8753
  806MOL0     C 8679   4.389  10.518   9.350  1.2546 -0.0188  0.1767
  806MOL0     C 8680   4.302  10.412   9.319 -1.0310  0.4706  0.2540
  806MOL0     C 8681   4.162  10.430   9.327 -0.8409 -0.1270  0.0637
  806MOL0     C 8682   4.115  10.558   9.346  1.2748  0.7856 -0.3434
  806MOL0     O 8683   3.979  10.579   9.358  0.2800 -0.2389 -0.6595
  806MOL0     C 8684   3.933  10.669   9.253 -0.6574 -0.1253 -0.1480
  806MOL0     C 8685   3.787  10.703   9.265  1.0963  0.1101 -0.8698
  806MOL0     C 8686   3.716  10.562   9.233 -0.2826 -0.4200  0.0260
  806MOL0     C 8687   3.565  10.581   9.228  0.3847  0.4726 -0.6376
  806MOL0     C 8688   3.508  10.441   9.190 -0.2149  0.2490  0.5997
  806MOL0     C 8689   3.517  10.405   9.048  0.0121 -0.0336 -0.8503
  806MOL0     C 8690   3.401  10.324   8.999 -0.2032 -0.0198 -0.1757
  806MOL0     C 8691   3.283  10.407   8.954 -0.2215 -0.0208 -0.7949
  806MOL0     N 8692   3.162  10.329   8.907 -0.2720 -0.0093 -0.5544
  806MOL0     C 8693   3.067  10.273   8.988 -0.9760 -0.2141 -0.0423
  806MOL0     C 8694   2.979  10.210   8.900 -0.4511  0.2119  0.1848
  806MOL0     C 8695   2.850  10.145   8.940 -0.2366 -0.5030 -0.5316
  806MOL0     C 8696   2.794  10.042   8.846  0.1180 -0.1057  0.5340
  806MOL0     C 8697   2.903   9.946   8.783  0.4110 -1.1016  0.4625
  806MOL0     C 8698   2.960   9.829   8.868 -0.8436 -0.5525 -0.5614
  806MOL0     O 8699   3.025   9.872   8.989 -0.5569 -0.2432 -0.1306
  806MOL0     C 8700   3.162   9.913   8.987  1.1234  0.0668  0.4984
  806MOL0     C 8701   3.228   9.948   8.872 -0.0843 -0.8236  0.5678
  806MOL0     C 8702   3.367   9.973   8.876  0.4497 -1.0024  0.2178
  806MOL0     C 8703   3.438   9.973   8.999  0.7449 -0.2568 -0.0166
  806MOL0     C 8704   3.587  10.009   9.008  0.5126  0.3908 -0.9223
  806MOL0     O 8705   3.664   9.956   9.111  0.3603 -0.3505 -1.0458
  806MOL0     C 8706   3.791   9.999   9.138 -0.3783 -0.5053 -0.3198
  806MOL0     C 8707   3.886   9.903   9.183  0.3204  0.2130  0.3708
  806MOL0     C 8708   4.021   9.924   9.193 -0.2142  0.4026  0.4090
  806MOL0     C 8709   4.076  10.050   9.160 -0.2756 -0.3212  0.6267
  806MOL0     O 8710   4.206  10.092   9.193  0.2755 -0.0671  0.6113
  806MOL0     C 8711   4.302   9.983   9.191  0.0284 -0.0262  0.3120
  806MOL0     C 8712   4.345   9.929   9.331 -0.3391 -0.6079  0.0008
  806MOL0     C 8713   4.445   9.809   9.322  0.1629 -0.4841 -0.7759
  806MOL0     C 8714   4.494   9.789   9.466  1.2198  0.3728 -0.2739
  806MOL0     C 8715   4.570   9.660   9.493  0.7417  0.1969  0.5650
  806MOL0     C 8716   4.651   9.693   9.616 -0.4765 -0.6077 -0.5626
  806MOL0     C 8717   4.752   9.575   9.643  0.0907 -0.1443 -0.7654
  806MOL0     C 8718   4.809   9.561   9.788  0.5644  0.4782  1.2401
  806MOL0    Cl 8719   4.922   9.428   9.808  0.3408 -0.2756 -0.1408
  806MOL0     C 8720   3.983  10.152   9.127 -0.7209 -0.1991  0.2544
  806MOL0     C 8721   3.840  10.126   9.123 -0.5661  0.1286  1.1222
  806MOL0     O 8722   3.626  10.078   8.920  0.6524  0.4363 -0.6549
  806MOL0     C 8723   3.368   9.950   9.116  1.1298 -0.4965 -0.7612
  806MOL0     C 8724   3.227   9.926   9.105  0.2599 -0.1305 -0.7768
  806MOL0     N 8725   3.026  10.235   8.779 -0.1217  0.0666  0.7432
  806MOL0     N 8726   3.131  10.308   8.780 -0.1239 -0.6515 -0.3206
  806MOL0     C 8727   4.196  10.665   9.365 -0.1438 -0.9558  0.0126
  806MOL0     C 8728   4.334  10.651   9.357  0.3525  0.0460  0.0631
  806MOL0     C 8729   4.732  10.495   9.474  0.9350  0.1124  0.6580
  806MOL0     C 8730   4.816  10.392   9.534  0.1260  0.1965  0.4492
  806MOL0     C 8731   4.959  10.418   9.527  0.3507 -0.6542 -0.4794
  806MOL0     C 8732   5.009  10.535   9.473 -0.0217 -0.0393  0.0298
  806MOL0     O 8733   5.138  10.582   9.479 -0.1650 -0.4946 -0.2714
  806MOL0     C 8734   5.242  10.510   9.542  0.0307  0.9371  0.3013
  806MOL0     C 8735   5.355  10.596   9.607 -0.1355 -0.1128 -0.5689
  806MOL0     C 8736   5.471  10.515   9.694  0.5441  1.1151  0.0162
  806MOL0     C 8737   5.419  10.466   9.836 -0.1967 -0.2692  0.6123
  806MOL0     C 8738   5.536  10.406   9.900  0.5475  0.4368 -0.3373
  806MOL0     C 8739   5.624  10.354   9.960 -0.5562 -0.1561 -0.3407
  806MOL0     C 8740   4.921  10.625   9.415 -1.0778  0.0893 -0.1429
  806MOL0     C 8741   4.788  10.610   9.418  0.1588 -0.4132  0.8307
  806MOL0     C 8742   4.697  10.720   9.361 -0.1775 -1.0144  0.3332
  806MOL0     H 8743   4.342  10.312   9.305  0.6970  1.2347 -0.6419
  806MOL0     H 8744   4.091  10.350   9.312 -0.7921 -0.9487  3.4220
  806MOL0     H 8745   3.995  10.758   9.255 -0.3704 -0.2530  3.0660
  806MOL0     H 8746   3.947  10.625   9.154 -0.8638  3.5159 -1.9326
  806MOL0     H 8747   3.760  10.780   9.192  1.1773  1.1564  0.1665
  806MOL0     H 8748   3.762  10.740   9.365  1.6495  2.6781 -1.6090
  806MOL0     H 8749   3.759  10.488   9.301  5.0830 -0.0734 -2.4898
  806MOL0     H 8750   3.754  10.527   9.136 -2.5289  0.1724 -1.1346
  806MOL0     H 8751   3.529  10.605   9.328  1.6632 -1.1525  0.2594
  806MOL0     H 8752   3.552  10.667   9.161 -0.8458  0.1665 -0.8174
  806MOL0     H 8753   3.544  10.358   9.252 -0.5027  0.0986  0.5716
  806MOL0     H 8754   3.401  10.449   9.213 -0.0614 -1.5476  2.2035
  806MOL0     H 8755   3.532  10.490   8.981  2.4474  0.5018  0.2477
  806MOL0     H 8756   3.609  10.347   9.032 -0.1571 -0.8737  0.9572
  806MOL0     H 8757   3.363  10.249   9.070  0.0185  0.4722  0.4697
  806MOL0     H 8758   3.446  10.263   8.920 -0.3103 -1.0382  0.5159
  806MOL0     H 8759   3.264  10.470   9.042  0.2676  1.5101 -1.7482
  806MOL0     H 8760   3.310  10.480   8.878  1.1455  0.2708 -0.0604
  806MOL0     H 8761   3.062  10.267   9.097 -1.2537  2.4236  0.1501
  806MOL0     H 8762   2.868  10.099   9.038  1.8820  2.0058  0.3968
  806MOL0     H 8763   2.769  10.217   8.945 -1.4200 -1.7914 -0.6526
  806MOL0     H 8764   2.712   9.989   8.895 -2.8210  3.2667 -0.2786
  806MOL0     H 8765   2.745  10.087   8.759  0.3551 -2.4254 -0.8812
  806MOL0     H 8766   2.989   9.999   8.741 -1.9939  2.1746 -0.8110
  806MOL0     H 8767   2.856   9.905   8.693  2.4225 -0.4678 -0.9479
  806MOL0     H 8768   3.024   9.773   8.798 -1.2492 -1.5316 -0.1718
  806MOL0     H 8769   2.879   9.756   8.881 -4.0201  2.3276 -2.5548
  806MOL0     H 8770   3.184   9.955   8.773 -0.1683  0.6676  0.6952
  806MOL0     H 8771   3.420  10.002   8.785 -4.6912  2.4474 -2.1728
  806MOL0     H 8772   3.845   9.806   9.208  0.9509 -0.5957 -1.5459
  806MOL0     H 8773   4.083   9.842   9.229  0.1196  1.4462  2.2875
  806MOL0     H 8774   4.254   9.901   9.137  1.4944 -0.4296 -0.4336
  806MOL0     H 8775   4.387  10.014   9.130  0.9761 -0.5475  1.3322
  806MOL0     H 8776   4.383  10.010   9.394 -0.3176 -1.7232  1.4875
  806MOL0     H 8777   4.250   9.899   9.375 -1.8371  1.3566 -1.6954
  806MOL0     H 8778   4.394   9.723   9.280 -0.7371  1.1422 -3.2618
  806MOL0     H 8779   4.535   9.839   9.266 -0.2779 -1.1275 -1.8391
  806MOL0     H 8780   4.409   9.788   9.534  1.6420  0.9889  0.2744
  806MOL0     H 8781   4.559   9.875   9.484  1.8910 -0.6493  2.5916
  806MOL0     H 8782   4.633   9.638   9.406  0.4159 -1.2082  0.6687
  806MOL0     H 8783   4.500   9.578   9.511  1.1480 -0.0042  1.2855
  806MOL0     H 8784   4.706   9.786   9.600  0.5108 -1.0322  0.2822
  806MOL0     H 8785   4.581   9.706   9.700 -2.0229  1.9280 -2.1197
  806MOL0     H 8786   4.835   9.590   9.573  1.5081  0.0942  0.8851
  806MOL0     H 8787   4.698   9.483   9.622 -0.0608 -0.4651  0.8770
  806MOL0     H 8788   4.862   9.653   9.815  1.5750  1.4943 -3.3855
  806MOL0     H 8789   4.728   9.550   9.861  1.9926 -2.9279  2.4877
  806MOL0     H 8790   4.013  10.255   9.111  1.5624 -0.8391  0.0650
  806MOL0     H 8791   3.766  10.199   9.092 -0.8693  0.9415  3.5091
  806MOL0     H 8792   3.405   9.941   9.218 -1.3910  0.8625  0.3759
  806MOL0     H 8793   3.177   9.904   9.199 -0.6848 -1.2002 -1.5047
  806MOL0     H 8794   4.164  10.758   9.411  0.9763 -0.6580  0.2340
  806MOL0     H 8795   4.409  10.727   9.372  4.1445 -3.4224  0.6511
  806MOL0     H 8796   4.765  10.300   9.561 -1.4236  1.0381  0.5546
  806MOL0     H 8797   5.021  10.343   9.575  0.8666 -0.4541 -0.8335
  806MOL0     H 8798   5.282  10.441   9.467 -0.7371 -1.5881  2.0833
  806MOL0     H 8799   5.199  10.434   9.608  2.0692 -4.2836 -3.6628
  806MOL0     H 8800   5.329  10.674   9.679 -0.4437 -0.2908 -0.4858
  806MOL0     H 8801   5.401  10.647   9.522 -1.0538  0.3488 -0.7913
  806MOL0     H 8802   5.555  10.585   9.702  0.3330  1.6415 -1.9727
  806MOL0     H 8803   5.510  10.427   9.643 -3.0461 -0.4802 -0.2959
  806MOL0     H 8804   5.380  10.546   9.900 -3.3049 -1.4654  0.3862
  806MOL0     H 8805   5.342  10.388   9.834 -0.4551 -0.0856  2.3059
  806MOL0     H 8806   5.698  10.309  10.022 -1.8188  1.1483  2.2546
  806MOL0     H 8807   4.956  10.717   9.368 -3.5462  0.3301 -1.6669
  806MOL0     H 8808   4.649  10.704   9.264 -0.5107  2.2588 -0.1446
  806MOL0     H 8809   4.623  10.745   9.437  1.7865 -0.2898  2.0911
  806MOL0     H 8810   4.755  10.810   9.340  1.1915 -2.1944 -1.3176
  807MOL0     O 8811   8.217   9.094   7.132 -0.8956  0.6280 -0.1666
  807MOL0     C 8812   8.174   9.195   7.189  0.4636 -0.0807  0.2987
  807MOL0     O 8813   8.088   9.290   7.129 -0.3858 -0.3895 -0.0523
  807MOL0     C 8814   8.051   9.292   7.004  0.9778 -0.4977 -0.5873
  807MOL0     C 8815   8.041   9.422   6.942  0.5517 -0.4864  0.3369
  807MOL0     C 8816   8.010   9.439   6.809  0.4659  0.0349  0.0337
  807MOL0     C 8817   7.973   9.318   6.729  0.4527  0.1591 -0.8448
  807MOL0     O 8818   7.917   9.325   6.605  0.5602  0.3543 -0.1366
  807MOL0     C 8819   7.901   9.448   6.531  0.0531 -0.3446  0.1829
  807MOL0     C 8820   8.005   9.463   6.426  0.0317 -0.0796 -0.8687
  807MOL0     C 8821   7.950   9.383   6.301  0.7980  0.3788 -0.9399
  807MOL0     C 8822   7.896   9.470   6.189 -0.5647  0.1733 -0.0996
  807MOL0     C 8823   7.761   9.534   6.206 -0.2732  0.3113  0.3067
  807MOL0     C 8824   7.716   9.588   6.073  0.0508 -0.3857 -0.6422
  807MOL0     C 8825   7.628   9.712   6.065  0.0064 -1.0892 -0.4880
  807MOL0     C 8826   7.684   9.846   6.134  0.2841 -0.4412 -0.2772
  807MOL0     N 8827   7.571   9.943   6.129  0.0012  0.2157 -0.5942
  807MOL0     C 8828   7.539  10.020   6.017 -0.2233 -0.9573  0.3240
  807MOL0     C 8829   7.424  10.092   6.048 -0.5127  0.2695 -0.9713
  807MOL0     C 8830   7.333  10.186   5.971 -0.3552  0.5713  0.5279
  807MOL0     C 8831   7.352  10.340   5.998  0.0082  0.9852  0.5931
  807MOL0     C 8832   7.493  10.404   5.982 -0.5459  0.5948  0.2890
  807MOL0     C 8833   7.596  10.384   6.095 -0.5174  0.3952  0.2444
  807MOL0     O 8834   7.701  10.480   6.098  0.5148  0.4756 -0.0825
  807MOL0     C 8835   7.801  10.461   6.189  0.3953  0.1977  0.1756
  807MOL0     C 8836   7.912  10.537   6.166  0.2105  0.1572 -0.0620
  807MOL0     C 8837   8.010  10.539   6.265  0.6678  0.4299  0.5056
  807MOL0     C 8838   7.995  10.471   6.385 -0.4198 -0.3490 -0.2966
  807MOL0     C 8839   8.093  10.471   6.487  0.4644 -0.2771  0.8329
  807MOL0     O 8840   8.062  10.443   6.617  0.1330  0.4667  0.5802
  807MOL0     C 8841   8.135  10.478   6.720 -0.2838 -0.2738 -0.6175
  807MOL0     C 8842   8.220  10.594   6.727 -0.3451  0.6419 -0.1130
  807MOL0     C 8843   8.301  10.615   6.844  1.8104 -0.4698  0.0106
  807MOL0     C 8844   8.292  10.528   6.946  1.1471  0.3449  0.3552
  807MOL0     O 8845   8.365  10.570   7.058  0.0634 -0.1262  0.3343
  807MOL0     C 8846   8.453  10.476   7.106  0.0994  0.6653  0.7561
  807MOL0     C 8847   8.589  10.541   7.117 -0.2825  1.3844 -0.6649
  807MOL0     C 8848   8.669  10.482   7.230 -0.0329  0.2233  0.3560
  807MOL0     C 8849   8.796  10.575   7.241 -0.1219  0.1871  1.3198
  807MOL0     C 8850   8.895  10.529   7.340 -0.1168 -0.0787 -0.3784
  807MOL0     C 8851   8.855  10.554   7.490  0.3354  0.4508 -0.9088
  807MOL0     C 8852   8.956  10.522   7.595  0.1678 -0.3023 -0.4345
  807MOL0     C 8853   9.086  10.589   7.576  0.4469  0.0664  0.0026
  807MOL0    Cl 8854   9.196  10.538   7.706 -0.2036 -0.0283 -0.0840
  807MOL0     C 8855   8.203  10.420   6.947  0.4236  0.6222  0.3075
  807MOL0     C 8856   8.125  10.395   6.834  0.8006 -0.6657  0.0515
  807MOL0     O 8857   8.208  10.499   6.449 -0.3069 -0.1473  1.1227
  807MOL0     C 8858   7.877  10.396   6.400 -0.2742 -0.0569 -0.2065
  807MOL0     C 8859   7.772  10.402   6.303  0.0226 -0.1359 -0.6795
  807MOL0     N 8860   7.398  10.063   6.189 -0.5625 -1.0618  0.2381
  807MOL0     N 8861   7.484   9.975   6.231 -0.7447  0.1228  0.1961
  807MOL0     C 8862   7.982   9.191   6.799  0.0770 -1.0133  0.6805
  807MOL0     C 8863   8.022   9.181   6.936  0.5287  0.1484 -0.7043
  807MOL0     C 8864   8.219   9.222   7.329 -1.0234  1.5960 -0.2042
  807MOL0     C 8865   8.259   9.348   7.371 -0.3219  0.0892  0.4327
  807MOL0     C 8866   8.303   9.367   7.502 -0.7766  0.0396  0.3588
  807MOL0     C 8867   8.301   9.269   7.601  0.1228  0.9312  0.3432
  807MOL0     O 8868   8.343   9.292   7.732 -0.2381  0.4388 -0.2122
  807MOL0     C 8869   8.488   9.324   7.745 -0.1080  0.2204  0.1584
  807MOL0     C 8870   8.487   9.405   7.873  1.2681 -0.0918 -0.8953
  807MOL0     C 8871   8.446   9.334   8.004 -0.0599  0.2618 -0.7225
  807MOL0     C 8872   8.495   9.411   8.127 -0.7535  0.4272 -0.4979
  807MOL0     C 8873   8.439   9.545   8.142 -0.6704 -0.2948 -0.2260
  807MOL0     C 8874   8.410   9.662   8.153  0.6936  0.7897  0.3713
  807MOL0     C 8875   8.270   9.139   7.562  0.2661  0.1225  0.2949
  807MOL0     C 8876   8.226   9.120   7.430  0.5651 -0.2638 -0.0552
  807MOL0     C 8877   8.206   8.977   7.396  0.3797 -0.1806  0.2769
  807MOL0     H 8878   8.060   9.511   7.001 -1.9009  1.6962 -1.9158
  807MOL0     H 8879   8.003   9.540   6.771 -0.5690  0.5975  1.5946
  807MOL0     H 8880   7.799   9.426   6.497 -0.6043  1.0959  1.1327
  807MOL0     H 8881   7.890   9.529   6.603  0.9678 -0.5541  0.5646
  807MOL0     H 8882   8.100   9.422   6.462  1.0930 -0.5452 -3.9321
  807MOL0     H 8883   8.015   9.568   6.397  1.9702  0.5137  1.6196
  807MOL0     H 8884   7.869   9.316   6.331  1.9373 -0.5788  0.1204
  807MOL0     H 8885   8.037   9.330   6.261 -0.8052 -1.8513 -1.6690
  807MOL0     H 8886   7.967   9.545   6.152 -3.1701  2.6499 -0.3568
  807MOL0     H 8887   7.883   9.399   6.107 -0.7244  1.4291 -1.1909
  807MOL0     H 8888   7.687   9.463   6.246 -0.3818 -0.4241 -1.1507
  807MOL0     H 8889   7.774   9.615   6.278  1.5547 -0.1812  0.5949
  807MOL0     H 8890   7.804   9.618   6.014  0.9652 -0.8717  0.4392
  807MOL0     H 8891   7.672   9.502   6.021 -2.5643  0.2606  0.3470
  807MOL0     H 8892   7.530   9.691   6.110 -0.1509 -0.8228 -0.7064
  807MOL0     H 8893   7.616   9.741   5.961 -4.1330  2.5699  0.6965
  807MOL0     H 8894   7.709   9.834   6.240  1.5866  0.9228 -0.3965
  807MOL0     H 8895   7.771   9.882   6.078  0.5427 -0.9715 -0.2210
  807MOL0     H 8896   7.596  10.020   5.924  0.2260 -0.1915  0.5877
  807MOL0     H 8897   7.345  10.164   5.865  0.9475  0.0385  0.7644
  807MOL0     H 8898   7.226  10.170   5.989 -1.3159  0.1319 -4.2854
  807MOL0     H 8899   7.285  10.379   5.921  0.3310  0.1271 -0.1403
  807MOL0     H 8900   7.309  10.369   6.094  2.5569 -0.5980  2.3325
  807MOL0     H 8901   7.475  10.512   5.969  0.2897  0.6562 -0.4918
  807MOL0     H 8902   7.542  10.389   5.885 -0.4146  4.4276 -0.4153
  807MOL0     H 8903   7.650  10.289   6.085  0.6341  1.0970 -0.4306
  807MOL0     H 8904   7.524  10.377   6.177 -0.0207 -1.9728  0.5413
  807MOL0     H 8905   7.919  10.585   6.068 -2.2015  0.4716 -0.1311
  807MOL0     H 8906   8.093  10.597   6.226 -1.0193  0.2474 -3.8836
  807MOL0     H 8907   8.211  10.670   6.650 -0.2664  0.3642 -0.3971
  807MOL0     H 8908   8.373  10.696   6.840 -0.8495  2.0591 -3.2886
  807MOL0     H 8909   8.430  10.425   7.200  1.7232 -1.6530 -0.0220
  807MOL0     H 8910   8.461  10.390   7.040  0.9982  1.0489  0.3473
  807MOL0     H 8911   8.633  10.519   7.019  0.7337  0.0833  0.0512
  807MOL0     H 8912   8.567  10.646   7.137 -0.8783  0.8384  1.9074
  807MOL0     H 8913   8.614  10.488   7.324 -0.2206  0.5639  0.2257
  807MOL0     H 8914   8.691  10.377   7.208  0.5325  0.0437  1.6504
  807MOL0     H 8915   8.763  10.673   7.275  0.1432  0.2656  1.3518
  807MOL0     H 8916   8.835  10.570   7.139 -0.1477 -0.8581  1.3525
  807MOL0     H 8917   8.978  10.597   7.320  0.0639 -1.2300 -4.3140
  807MOL0     H 8918   8.929  10.427   7.319  1.0176  0.1886  0.0847
  807MOL0     H 8919   8.835  10.660   7.510 -1.8486 -0.3186  1.4747
  807MOL0     H 8920   8.764  10.497   7.510  0.4485 -0.3315 -2.4794
  807MOL0     H 8921   8.979  10.415   7.598  1.1437 -0.0938  0.3039
  807MOL0     H 8922   8.913  10.548   7.692  1.6978  1.5991 -0.2083
  807MOL0     H 8923   9.119  10.544   7.482 -1.6155 -2.5787  0.4159
  807MOL0     H 8924   9.081  10.698   7.572 -0.2997  0.0718  0.7595
  807MOL0     H 8925   8.182  10.363   7.037 -1.0128  0.6413  0.0016
  807MOL0     H 8926   8.057  10.310   6.828  0.3936 -0.2358 -4.5836
  807MOL0     H 8927   7.866  10.335   6.489  1.3193 -0.8786 -0.5414
  807MOL0     H 8928   7.678  10.350   6.320 -0.3865  1.0540  1.0304
  807MOL0     H 8929   7.960   9.110   6.730  2.7201  0.4277 -2.0794
  807MOL0     H 8930   8.035   9.086   6.988 -2.2435 -1.5823 -2.8622
  807MOL0     H 8931   8.261   9.428   7.298  0.9780  2.7496  3.1598
  807MOL0     H 8932   8.341   9.464   7.534  5.6263 -2.5899  2.4337
  807MOL0     H 8933   8.528   9.379   7.659 -1.2115 -0.8666 -1.1061
  807MOL0     H 8934   8.534   9.226   7.762 -5.8121 -2.4792  2.5550
  807MOL0     H 8935   8.413   9.484   7.860  0.1915 -0.1144  3.5380
  807MOL0     H 8936   8.587   9.443   7.893  0.7042  0.5012  1.0010
  807MOL0     H 8937   8.497   9.238   7.995  1.8724  1.2815 -1.3251
  807MOL0     H 8938   8.339   9.315   8.019  0.0693  0.8021  1.2148
  807MOL0     H 8939   8.477   9.350   8.216  3.2221  0.2206  0.3489
  807MOL0     H 8940   8.603   9.426   8.133 -0.9141  1.9500 -1.1334
  807MOL0     H 8941   8.382   9.765   8.151 -1.4126  0.2364 -0.4365
  807MOL0     H 8942   8.303   9.057   7.625  0.3401  0.4087  0.6279
  807MOL0     H 8943   8.122   8.961   7.328 -1.1409  1.9174  1.5478
  807MOL0     H 8944   8.299   8.934   7.359 -1.3299 -3.2727 -0.7969
  807MOL0     H 8945   8.174   8.918   7.483 -0.6299 -0.7200 -0.4399
  808MOL0     O 8946   7.157   1.622   6.181  0.1651 -0.6952  0.1494
  808MOL0     C 8947   7.106   1.733   6.150  0.7034 -0.4320 -0.4157
  808MOL0     O 8948   7.098   1.783   6.020 -0.2231  0.2626  0.1804
  808MOL0     C 8949   7.166   1.713   5.922 -0.5726 -0.2668 -1.0265
  808MOL0     C 8950   7.094   1.698   5.798  0.3619 -0.2752 -0.4599
  808MOL0     C 8951   7.155   1.632   5.691  0.2708 -0.4777 -0.3475
  808MOL0     C 8952   7.274   1.560   5.716  0.0355  0.6504  0.3002
  808MOL0     O 8953   7.327   1.477   5.615  0.2301 -0.5505 -0.3500
  808MOL0     C 8954   7.248   1.364   5.593  0.0909  0.1014  0.0111
  808MOL0     C 8955   7.330   1.259   5.512  0.3523  0.1229 -0.3813
  808MOL0     C 8956   7.467   1.233   5.571  0.8538 -0.3279  0.7730
  808MOL0     C 8957   7.539   1.099   5.529 -0.5130  0.4483 -0.0925
  808MOL0     C 8958   7.670   1.091   5.603  0.6727 -0.3524  0.0979
  808MOL0     C 8959   7.727   0.938   5.615  0.7631 -0.1956  0.0493
  808MOL0     C 8960   7.670   0.865   5.735  0.8418 -0.5212  0.0184
  808MOL0     C 8961   7.701   0.934   5.874 -0.4206 -0.1424  0.6928
  808MOL0     N 8962   7.843   0.990   5.880 -0.3765 -0.2833 -0.8554
  808MOL0     C 8963   7.956   0.921   5.857 -0.1631 -0.1496  1.1978
  808MOL0     C 8964   8.059   1.008   5.873 -0.1838  1.0385  0.7540
  808MOL0     C 8965   8.206   0.973   5.854  0.5387 -0.0280 -0.3006
  808MOL0     C 8966   8.300   1.019   5.968  0.4987  0.5515 -0.0023
  808MOL0     C 8967   8.265   0.951   6.098  0.4153  0.9506 -0.1654
  808MOL0     C 8968   8.393   0.896   6.159  0.3411  0.0939  0.1509
  808MOL0     O 8969   8.370   0.876   6.295  0.5352  0.1935  0.3691
  808MOL0     C 8970   8.465   0.840   6.384 -0.3528 -1.0749  0.5472
  808MOL0     C 8971   8.448   0.849   6.529 -0.1930 -0.2429  0.1074
  808MOL0     C 8972   8.544   0.835   6.627 -0.0705 -0.5026 -0.4094
  808MOL0     C 8973   8.674   0.815   6.576 -0.2556  0.7231 -0.1697
  808MOL0     C 8974   8.793   0.795   6.657  0.1238 -0.5389  0.7016
  808MOL0     O 8975   8.903   0.744   6.601 -0.3006  0.1706  0.9458
  808MOL0     C 8976   8.993   0.686   6.686 -0.5624  0.0818  0.0785
  808MOL0     C 8977   9.125   0.716   6.672 -0.5811  0.7949  0.2710
  808MOL0     C 8978   9.213   0.663   6.767  0.2050  0.3003 -0.4772
  808MOL0     C 8979   9.170   0.574   6.871 -0.2008 -0.4221  0.0120
  808MOL0     O 8980   9.254   0.525   6.975 -0.3330  0.1998 -0.2579
  808MOL0     C 8981   9.365   0.598   7.017 -0.5683  0.8459 -0.2782
  808MOL0     C 8982   9.429   0.550   7.145  0.7554  0.0138 -0.6153
  808MOL0     C 8983   9.502   0.421   7.124  0.6740  0.6471  0.3861
  808MOL0     C 8984   9.567   0.392   7.262  0.9125  0.2896  0.4362
  808MOL0     C 8985   9.664   0.271   7.271 -0.2366  0.3665  0.1576
  808MOL0     C 8986   9.696   0.212   7.407  0.7260 -0.2815  0.1446
  808MOL0     C 8987   9.773   0.290   7.514 -0.3316 -0.7576  0.6232
  808MOL0     C 8988   9.807   0.206   7.631 -0.3392  0.3198 -0.5503
  808MOL0    Cl 8989   9.941   0.099   7.599 -0.0147 -0.1407 -0.2352
  808MOL0     C 8990   9.050   0.530   6.879 -0.1498  0.4595 -0.4239
  808MOL0     C 8991   8.953   0.589   6.791  0.7933  0.2690  0.2584
  808MOL0     O 8992   8.778   0.826   6.778 -0.2476  0.1079 -0.0446
  808MOL0     C 8993   8.697   0.799   6.435 -0.3763  0.9938 -0.1889
  808MOL0     C 8994   8.600   0.816   6.336 -0.0716 -0.2837 -0.0693
  808MOL0     N 8995   8.005   1.133   5.910 -0.5406  0.0658  0.1608
  808MOL0     N 8996   7.874   1.125   5.907  0.0597 -0.1686 -0.5059
  808MOL0     C 8997   7.342   1.575   5.836  0.0656 -0.4170  0.8928
  808MOL0     C 8998   7.297   1.654   5.935  0.1444 -0.2285  0.5937
  808MOL0     C 8999   7.059   1.824   6.256 -0.5909 -0.0464  0.5394
  808MOL0     C 9000   7.101   1.959   6.242  0.7736 -0.5174 -0.6689
  808MOL0     C 9001   7.047   2.062   6.317 -0.2152  0.4574  0.2438
  808MOL0     C 9002   6.951   2.028   6.409  0.7057 -0.2933  0.4120
  808MOL0     O 9003   6.876   2.129   6.475 -0.6036  0.1944 -0.0147
  808MOL0     C 9004   6.927   2.266   6.482 -0.2985 -0.0974 -0.7750
  808MOL0     C 9005   6.849   2.373   6.562 -0.6197  0.2060 -0.7445
  808MOL0     C 9006   6.696   2.394   6.522 -0.0900 -0.2514 -0.4883
  808MOL0     C 9007   6.664   2.530   6.443  0.4377  0.6664 -0.3112
  808MOL0     C 9008   6.761   2.554   6.338  0.4385  0.3014  0.5589
  808MOL0     C 9009   6.848   2.559   6.252  0.2194 -0.3276  0.3023
  808MOL0     C 9010   6.914   1.896   6.427  0.4030  0.0277 -0.2473
  808MOL0     C 9011   6.961   1.790   6.354 -0.1782 -0.4639  0.6692
  808MOL0     C 9012   6.918   1.644   6.368 -0.3764 -0.6530  0.0409
  808MOL0     H 9013   6.997   1.747   5.791  0.7740  1.2151  2.6129
  808MOL0     H 9014   7.122   1.637   5.588  0.8209  0.0622 -0.4995
  808MOL0     H 9015   7.216   1.326   5.690 -1.7211  1.5561  0.0288
  808MOL0     H 9016   7.158   1.393   5.537  0.0917  2.8415  1.2809
  808MOL0     H 9017   7.347   1.315   5.420 -1.4279 -1.6450 -1.8875
  808MOL0     H 9018   7.278   1.165   5.495  4.0755 -1.5467 -4.0939
  808MOL0     H 9019   7.457   1.235   5.680 -0.0666 -0.8264  0.7013
  808MOL0     H 9020   7.514   1.326   5.536 -3.6803  1.0069 -2.7384
  808MOL0     H 9021   7.476   1.010   5.533 -1.0093  0.4245 -4.0050
  808MOL0     H 9022   7.561   1.128   5.426  6.7822  1.0710  1.1099
  808MOL0     H 9023   7.747   1.161   5.570  0.6418  0.8340  2.3249
  808MOL0     H 9024   7.655   1.133   5.703 -1.6204  1.0140 -0.7389
  808MOL0     H 9025   7.695   0.883   5.526  2.4353 -0.2694 -0.5392
  808MOL0     H 9026   7.835   0.922   5.620  0.4323 -2.5036  1.1898
  808MOL0     H 9027   7.713   0.765   5.725  4.1250  0.8088 -0.6251
  808MOL0     H 9028   7.562   0.859   5.720  0.4636  2.5049  0.8319
  808MOL0     H 9029   7.636   1.021   5.886 -2.7633 -1.5126 -1.0492
  808MOL0     H 9030   7.681   0.872   5.962  0.8871 -0.4698  0.7691
  808MOL0     H 9031   7.959   0.817   5.824 -0.5347  0.0625  0.4626
  808MOL0     H 9032   8.229   0.867   5.838  0.8795  0.3285 -2.5912
  808MOL0     H 9033   8.240   1.014   5.758 -0.1832  2.8298  0.5605
  808MOL0     H 9034   8.398   1.002   5.924 -0.3591 -1.3905 -1.2988
  808MOL0     H 9035   8.289   1.128   5.979  1.2816  0.5716  0.6538
  808MOL0     H 9036   8.198   0.865   6.088  0.8357  0.7210 -1.1278
  808MOL0     H 9037   8.216   1.014   6.173 -0.4050 -0.3426  0.4251
  808MOL0     H 9038   8.478   0.964   6.147  1.1913 -0.8914  0.4789
  808MOL0     H 9039   8.416   0.797   6.119 -0.5492 -0.9062  2.0122
  808MOL0     H 9040   8.354   0.896   6.559  0.1499  4.1760 -4.3463
  808MOL0     H 9041   8.530   0.835   6.735 -1.5985 -1.5305 -0.5742
  808MOL0     H 9042   9.166   0.768   6.586  0.8920 -0.2294  0.3129
  808MOL0     H 9043   9.314   0.704   6.760  0.4116 -0.2257 -0.6252
  808MOL0     H 9044   9.443   0.598   6.940 -0.5634  3.4576 -0.3763
  808MOL0     H 9045   9.339   0.702   7.041 -0.0652  1.0621 -0.6464
  808MOL0     H 9046   9.501   0.629   7.170 -1.3203  1.5446  0.8640
  808MOL0     H 9047   9.356   0.542   7.226  0.1287 -1.1086 -1.2739
  808MOL0     H 9048   9.442   0.335   7.093  2.3008 -1.0270  1.6634
  808MOL0     H 9049   9.589   0.431   7.058  2.7534  0.7105  2.9906
  808MOL0     H 9050   9.494   0.383   7.343  0.7448 -0.0321  0.2505
  808MOL0     H 9051   9.637   0.472   7.290 -0.4536  1.9059 -0.5139
  808MOL0     H 9052   9.754   0.293   7.214 -0.0133 -1.1881 -0.1344
  808MOL0     H 9053   9.624   0.191   7.207  2.7838  1.0745 -2.9040
  808MOL0     H 9054   9.603   0.170   7.447  1.4212 -3.7427 -1.5219
  808MOL0     H 9055   9.758   0.124   7.392  0.1502 -0.7545  0.5022
  808MOL0     H 9056   9.705   0.373   7.536 -0.5855  0.7552 -4.6355
  808MOL0     H 9057   9.865   0.334   7.475  0.2185 -1.4235  1.1436
  808MOL0     H 9058   9.840   0.275   7.709  0.0163 -2.3062  1.7771
  808MOL0     H 9059   9.722   0.154   7.676 -1.0656 -1.4248 -3.6559
  808MOL0     H 9060   9.012   0.479   6.967  3.0117  0.3899  1.0625
  808MOL0     H 9061   8.849   0.556   6.792  1.2075 -1.2714 -1.3654
  808MOL0     H 9062   8.792   0.763   6.398  0.0686  3.5198 -1.8022
  808MOL0     H 9063   8.631   0.804   6.233 -2.6107 -1.0783 -0.8052
  808MOL0     H 9064   7.434   1.516   5.842  1.0118  1.0946  1.7129
  808MOL0     H 9065   7.337   1.668   6.035 -0.4241  1.4151  0.6259
  808MOL0     H 9066   7.165   1.988   6.160  0.0291  1.2084 -0.6889
  808MOL0     H 9067   7.069   2.165   6.292  1.8488 -0.1825 -0.8212
  808MOL0     H 9068   6.925   2.302   6.379  2.0514  0.5119 -0.6641
  808MOL0     H 9069   7.031   2.264   6.515 -0.4827 -2.4308 -0.1145
  808MOL0     H 9070   6.911   2.463   6.554 -1.4732  1.4868  3.9027
  808MOL0     H 9071   6.853   2.345   6.668  2.3322 -1.6652 -1.2231
  808MOL0     H 9072   6.647   2.398   6.619 -0.0365 -3.2440 -0.2482
  808MOL0     H 9073   6.653   2.306   6.473  1.5865 -1.0437 -0.6082
  808MOL0     H 9074   6.563   2.530   6.400  0.5994  0.9303 -0.7011
  808MOL0     H 9075   6.661   2.616   6.511  1.1436  3.4626 -3.5391
  808MOL0     H 9076   6.930   2.575   6.186 -0.9766  0.8708 -0.9665
  808MOL0     H 9077   6.818   1.881   6.476  0.8735 -0.6274  0.4900
  808MOL0     H 9078   6.865   1.617   6.275 -0.7405  1.7865 -0.5349
  808MOL0     H 9079   7.005   1.580   6.381  0.4343  0.9168  2.9824
  808MOL0     H 9080   6.848   1.622   6.449  1.4076 -0.6211  1.6522
  809MOL0     O 9081   6.123   1.208   6.462  0.6187 -0.1576 -0.5283
  809MOL0     C 9082   6.107   1.277   6.565 -0.2933 -0.1108  0.2273
  809MOL0     O 9083   5.987   1.335   6.609  0.2756 -0.5061 -0.3936
  809MOL0     C 9084   5.876   1.322   6.536  0.0609  1.0211 -0.8118
  809MOL0     C 9085   5.779   1.423   6.547 -0.8684  0.0037 -0.6848
  809MOL0     C 9086   5.658   1.414   6.479  0.3052  0.3623 -0.3029
  809MOL0     C 9087   5.629   1.301   6.408 -0.0913 -0.2276 -0.1541
  809MOL0     O 9088   5.506   1.294   6.349  0.2484  0.7663 -0.2146
  809MOL0     C 9089   5.511   1.236   6.218  0.4681  0.5363  0.5261
  809MOL0     C 9090   5.393   1.284   6.122 -0.1636  0.5581 -0.7224
  809MOL0     C 9091   5.252   1.260   6.189  1.1651  0.5073  0.3176
  809MOL0     C 9092   5.141   1.313   6.100  0.2127 -0.9968  0.0853
  809MOL0     C 9093   5.002   1.331   6.170  0.2594 -0.0235  0.8267
  809MOL0     C 9094   4.909   1.394   6.062  0.3628  0.9984  0.4321
  809MOL0     C 9095   4.778   1.416   6.120 -0.7945  0.2879 -0.4138
  809MOL0     C 9096   4.654   1.423   6.032 -0.1221  0.0917  0.5832
  809MOL0     N 9097   4.686   1.537   5.949 -0.1432 -0.9112  0.2810
  809MOL0     C 9098   4.680   1.667   5.996 -0.1599  0.0199 -0.1400
  809MOL0     C 9099   4.723   1.749   5.894 -0.8952 -0.1261 -0.4909
  809MOL0     C 9100   4.754   1.892   5.912 -0.1159  0.6889  0.3315
  809MOL0     C 9101   4.900   1.927   5.954 -0.4086 -0.0288 -0.4109
  809MOL0     C 9102   5.002   1.867   5.855  0.7844 -0.3276  0.8495
  809MOL0     C 9103   5.143   1.875   5.901  0.4652  0.6200 -1.0986
  809MOL0     O 9104   5.159   2.001   5.971  0.0336 -0.2139  0.5823
  809MOL0     C 9105   5.277   2.054   6.008 -0.0340  1.0772 -0.0052
  809MOL0     C 9106   5.269   2.180   6.073  0.3062 -1.2355  0.6916
  809MOL0     C 9107   5.385   2.242   6.114  0.2341 -0.0174  0.0580
  809MOL0     C 9108   5.512   2.180   6.102  0.1312  0.4341 -0.1691
  809MOL0     C 9109   5.636   2.246   6.135  0.0444 -0.2894 -0.3434
  809MOL0     O 9110   5.742   2.168   6.143 -0.8984  0.1233 -0.1493
  809MOL0     C 9111   5.868   2.212   6.148 -0.2169 -0.8196 -0.1181
  809MOL0     C 9112   5.966   2.116   6.155 -0.2146  0.3455  0.0564
  809MOL0     C 9113   6.100   2.128   6.111  0.1896 -0.1719 -0.1383
  809MOL0     C 9114   6.152   2.261   6.095  0.2192 -0.8402  1.0201
  809MOL0     O 9115   6.287   2.270   6.058  0.0303  0.0136 -0.8160
  809MOL0     C 9116   6.355   2.392   6.032  0.3534 -0.1175 -0.8434
  809MOL0     C 9117   6.392   2.467   6.164 -0.0463  0.2690 -0.4109
  809MOL0     C 9118   6.440   2.612   6.134  0.1083  1.2987 -0.6396
  809MOL0     C 9119   6.554   2.613   6.036 -0.4489 -0.3472 -0.2277
  809MOL0     C 9120   6.612   2.758   6.026  0.2980 -0.0783 -0.3131
  809MOL0     C 9121   6.507   2.863   5.989  0.0759 -0.1852  0.0361
  809MOL0     C 9122   6.425   2.833   5.869 -0.1067  0.2034 -0.4021
  809MOL0     C 9123   6.326   2.941   5.823  0.3431 -0.2661 -0.7326
  809MOL0    Cl 9124   6.209   2.983   5.959  0.1892  0.0453 -0.1800
  809MOL0     C 9125   6.066   2.366   6.105  0.4979  0.0323  0.4605
  809MOL0     C 9126   5.926   2.343   6.117 -0.7254 -0.1884 -1.2632
  809MOL0     O 9127   5.633   2.367   6.142 -0.3417  0.0252  0.2101
  809MOL0     C 9128   5.510   2.052   6.041 -0.3911 -0.1789 -0.1599
  809MOL0     C 9129   5.399   1.984   6.003  0.6415 -0.6223  0.3344
  809MOL0     N 9130   4.763   1.662   5.792 -0.0823 -0.0448 -0.4219
  809MOL0     N 9131   4.767   1.533   5.834  0.0719 -0.7580  0.8862
  809MOL0     C 9132   5.721   1.196   6.406 -0.5553  0.4854 -0.8209
  809MOL0     C 9133   5.839   1.206   6.471 -0.0191  0.3654 -0.2020
  809MOL0     C 9134   6.230   1.282   6.664  0.0789 -0.7308 -0.3201
  809MOL0     C 9135   6.202   1.322   6.792  0.1307 -0.6185 -0.0564
  809MOL0     C 9136   6.290   1.335   6.893 -0.0706 -0.9598 -0.1257
  809MOL0     C 9137   6.425   1.300   6.870 -0.8953  0.2379  0.9293
  809MOL0     O 9138   6.519   1.298   6.969  0.2856 -0.2719 -0.0518
  809MOL0     C 9139   6.484   1.344   7.104 -0.1199 -0.1304 -0.7705
  809MOL0     C 9140   6.483   1.493   7.103  0.2822  0.0425 -0.5844
  809MOL0     C 9141   6.467   1.554   7.245 -0.2194 -0.8047 -0.6869
  809MOL0     C 9142   6.608   1.567   7.304  0.0375 -0.4087 -0.2428
  809MOL0     C 9143   6.678   1.681   7.239  0.6463 -0.0720 -0.2120
  809MOL0     C 9144   6.737   1.772   7.182 -0.1938 -0.9744  0.7262
  809MOL0     C 9145   6.455   1.246   6.740  0.8533 -0.2214 -0.0547
  809MOL0     C 9146   6.362   1.235   6.633 -0.3319 -0.0615 -0.4171
  809MOL0     C 9147   6.411   1.161   6.509  0.3572  0.2286  0.1877
  809MOL0     H 9148   5.809   1.511   6.602 -0.5660 -1.0966  0.9872
  809MOL0     H 9149   5.582   1.490   6.489  0.0329  0.6266 -3.4051
  809MOL0     H 9150   5.604   1.257   6.163 -0.1378  0.7217 -0.4481
  809MOL0     H 9151   5.502   1.129   6.238  0.5530  0.4428  0.0705
  809MOL0     H 9152   5.408   1.234   6.026  0.6752  0.1910 -0.4097
  809MOL0     H 9153   5.413   1.391   6.110  0.8544  0.3590 -0.9061
  809MOL0     H 9154   5.243   1.317   6.283 -0.2108  0.1751  0.4091
  809MOL0     H 9155   5.229   1.154   6.203  0.3739  0.7368  0.8200
  809MOL0     H 9156   5.173   1.408   6.055  3.7028 -1.3234  1.5503
  809MOL0     H 9157   5.116   1.239   6.023 -1.8142 -0.1207 -0.1772
  809MOL0     H 9158   4.964   1.232   6.198  1.9069 -0.8133  0.3879
  809MOL0     H 9159   5.012   1.401   6.253  0.7234  0.4089  0.4167
  809MOL0     H 9160   4.951   1.490   6.028  3.4749  0.1687  1.6205
  809MOL0     H 9161   4.902   1.324   5.979 -0.5053  0.0024  1.3186
  809MOL0     H 9162   4.781   1.508   6.179  1.1133  0.1013 -0.1685
  809MOL0     H 9163   4.758   1.335   6.191 -1.3042  0.8907  0.1387
  809MOL0     H 9164   4.648   1.331   5.972 -0.0591 -0.2483  1.0858
  809MOL0     H 9165   4.558   1.451   6.076 -0.7253  4.0643 -2.7127
  809MOL0     H 9166   4.637   1.692   6.092 -1.5990  0.2335 -0.8120
  809MOL0     H 9167   4.723   1.944   5.820  0.0394  3.5568  1.7862
  809MOL0     H 9168   4.692   1.943   5.986 -0.0128  1.9156 -0.3917
  809MOL0     H 9169   4.914   2.036   5.958 -2.1177  0.2356 -0.8866
  809MOL0     H 9170   4.919   1.896   6.057 -0.7825 -0.3326 -0.4342
  809MOL0     H 9171   5.000   1.934   5.768 -1.9755 -1.7267 -0.2972
  809MOL0     H 9172   4.981   1.765   5.819 -0.3018  0.1815 -0.0160
  809MOL0     H 9173   5.220   1.864   5.824 -2.7918 -0.8069 -4.4578
  809MOL0     H 9174   5.159   1.800   5.979 -2.3078 -0.5201 -1.5036
  809MOL0     H 9175   5.173   2.230   6.079  0.8493 -0.2862  1.7333
  809MOL0     H 9176   5.390   2.333   6.172  0.0838 -0.8899  1.4981
  809MOL0     H 9177   5.958   2.024   6.212  2.6383  0.4010  0.7049
  809MOL0     H 9178   6.175   2.050   6.121  0.2228 -0.0641  0.5118
  809MOL0     H 9179   6.444   2.364   5.974 -0.8643 -1.9681 -1.9256
  809MOL0     H 9180   6.287   2.454   5.972 -0.2080  1.4527  1.2941
  809MOL0     H 9181   6.314   2.483   6.238  1.9517  0.8929  1.6937
  809MOL0     H 9182   6.466   2.403   6.214  0.2636  0.7139 -0.2952
  809MOL0     H 9183   6.354   2.675   6.111  1.9474  4.7679  1.1936
  809MOL0     H 9184   6.480   2.643   6.232 -0.1705  0.1717 -0.1531
  809MOL0     H 9185   6.515   2.579   5.939  0.5961  2.4012 -1.7259
  809MOL0     H 9186   6.631   2.545   6.073  0.0259 -0.8764 -2.1048
  809MOL0     H 9187   6.685   2.762   5.945  1.3468  0.2327  0.6189
  809MOL0     H 9188   6.658   2.794   6.119  0.3078 -0.3830 -0.1994
  809MOL0     H 9189   6.437   2.875   6.072 -1.0859 -0.8129 -0.8267
  809MOL0     H 9190   6.551   2.962   5.973  2.5460 -1.4650 -1.8014
  809MOL0     H 9191   6.371   2.739   5.880  0.2443 -0.0689 -0.9519
  809MOL0     H 9192   6.495   2.809   5.789  3.1484 -3.6057  3.1398
  809MOL0     H 9193   6.379   3.035   5.811 -0.7978  0.9090  2.3540
  809MOL0     H 9194   6.276   2.927   5.727 -0.2621  3.7849 -1.1496
  809MOL0     H 9195   6.096   2.470   6.092 -0.7002  0.3768  0.2370
  809MOL0     H 9196   5.861   2.428   6.100 -1.3792  0.0467  1.7780
  809MOL0     H 9197   5.603   1.996   6.042  0.3674  1.0392  0.4000
  809MOL0     H 9198   5.420   1.892   5.948  1.8036  1.0453 -2.2032
  809MOL0     H 9199   5.698   1.097   6.370 -1.0383  0.5292 -0.6338
  809MOL0     H 9200   5.900   1.116   6.479  0.9233  1.0976  1.7368
  809MOL0     H 9201   6.099   1.349   6.813  0.4595  0.8459 -0.2222
  809MOL0     H 9202   6.249   1.375   6.985  1.4469  0.2123  0.0861
  809MOL0     H 9203   6.569   1.312   7.164  0.4174 -1.3219 -2.1176
  809MOL0     H 9204   6.397   1.291   7.144 -1.5301  2.1650 -0.6170
  809MOL0     H 9205   6.403   1.539   7.044 -0.4559 -0.3675  0.0875
  809MOL0     H 9206   6.569   1.540   7.054 -1.0489  2.2493 -0.9500
  809MOL0     H 9207   6.400   1.499   7.312 -0.2184 -2.5463 -2.0376
  809MOL0     H 9208   6.426   1.655   7.247  1.5141 -0.0912  1.0853
  809MOL0     H 9209   6.612   1.585   7.412 -1.8889 -2.0899  0.1572
  809MOL0     H 9210   6.660   1.473   7.284 -2.0813 -1.5777 -0.5477
  809MOL0     H 9211   6.786   1.849   7.127  2.7193 -1.1408  2.8448
  809MOL0     H 9212   6.561   1.225   6.727  0.3480 -1.2509 -3.4186
  809MOL0     H 9213   6.425   1.233   6.428  3.9466  0.0296  0.4344
  809MOL0     H 9214   6.507   1.114   6.533  0.8772  0.6400 -1.0423
  809MOL0     H 9215   6.339   1.082   6.490 -0.9290  1.7121 -1.3944
  810MOL0     O 9216   9.231   1.110   9.303 -0.0359 -0.0356  0.0442
  810MOL0     C 9217   9.150   1.099   9.394 -1.0566  1.2806  0.5369
  810MOL0     O 9218   9.176   1.095   9.526  0.0709 -0.2957 -0.8565
  810MOL0     C 9219   9.304   1.082   9.568 -0.6708  0.2372 -0.1234
  810MOL0     C 9220   9.329   1.143   9.697  1.0211  0.4747 -0.1089
  810MOL0     C 9221   9.456   1.149   9.749  0.7587  1.0920 -0.1557
  810MOL0     C 9222   9.564   1.077   9.685 -0.1600 -0.5376 -0.5886
  810MOL0     O 9223   9.681   1.057   9.754 -0.4170  0.0797  0.5498
  810MOL0     C 9224   9.803   1.021   9.685 -0.6205  0.7456 -0.0721
  810MOL0     C 9225   9.923   1.010   9.784 -0.4739  0.0389  0.4717
  810MOL0     C 9226  10.049   0.960   9.707  0.7251 -0.1959  0.1642
  810MOL0     C 9227  10.181   0.934   9.791  0.0483 -0.1281  0.3736
  810MOL0     C 9228  10.294   0.883   9.701  0.3339  0.9201 -0.0403
  810MOL0     C 9229  10.428   0.857   9.770 -0.7949  0.2388  0.1093
  810MOL0     C 9230  10.544   0.796   9.697  0.1493  0.3173 -0.4054
  810MOL0     C 9231  10.523   0.656   9.649 -0.5793  0.1474 -0.1292
  810MOL0     N 9232  10.460   0.574   9.754 -0.4257 -0.4410  0.0323
  810MOL0     C 9233  10.327   0.550   9.757  1.0215 -0.5572 -0.3904
  810MOL0     C 9234  10.321   0.491   9.881 -0.0966  0.1860 -0.0692
  810MOL0     C 9235  10.191   0.456   9.934  0.1892 -0.3537  0.1245
  810MOL0     C 9236  10.077   0.538   9.864  0.3771  0.9228  0.3188
  810MOL0     C 9237   9.939   0.524   9.941 -0.0366  0.6321 -0.1658
  810MOL0     C 9238   9.819   0.572   9.865 -0.6818 -1.0786  0.1578
  810MOL0     O 9239   9.701   0.542   9.924  0.7901  0.3256  0.2257
  810MOL0     C 9240   9.589   0.581   9.864  0.3226 -0.4496 -0.0226
  810MOL0     C 9241   9.569   0.705   9.804 -0.4027 -0.2863 -0.3601
  810MOL0     C 9242   9.453   0.726   9.735  0.9381 -0.8616  0.7789
  810MOL0     C 9243   9.353   0.632   9.720  0.0732  0.5731 -0.4582
  810MOL0     C 9244   9.228   0.659   9.636 -0.1128 -0.1547 -0.0540
  810MOL0     O 9245   9.135   0.553   9.655 -0.3813 -0.0322  0.1037
  810MOL0     C 9246   9.004   0.562   9.626 -0.1121 -0.3682 -0.4679
  810MOL0     C 9247   8.924   0.680   9.621  0.1280  0.8104 -1.3055
  810MOL0     C 9248   8.787   0.675   9.594  0.0675  0.9235  0.4645
  810MOL0     C 9249   8.734   0.550   9.546 -0.4322  0.1964 -0.0234
  810MOL0     O 9250   8.605   0.557   9.501  0.0267  0.1414 -0.7075
  810MOL0     C 9251   8.542   0.429   9.506 -0.2135  0.3411  0.5331
  810MOL0     C 9252   8.393   0.431   9.456  0.2748 -0.4389 -0.1484
  810MOL0     C 9253   8.301   0.508   9.553 -1.4079 -0.5159  0.1094
  810MOL0     C 9254   8.164   0.471   9.546  0.7112 -0.1352 -1.2727
  810MOL0     C 9255   8.078   0.543   9.652 -0.2931  1.0162  0.5425
  810MOL0     C 9256   7.938   0.472   9.670 -0.0040 -0.6034 -0.5587
  810MOL0     C 9257   7.856   0.528   9.783  0.0569 -0.2056  0.2344
  810MOL0     C 9258   7.706   0.486   9.768  0.7045  0.6088 -0.2061
  810MOL0    Cl 9259   7.663   0.313   9.787  0.1155  0.1737 -0.6679
  810MOL0     C 9260   8.817   0.434   9.548 -0.7900  0.0836  0.1807
  810MOL0     C 9261   8.948   0.441   9.601  0.2144  0.1795 -0.8299
  810MOL0     O 9262   9.224   0.756   9.558 -0.7399 -0.0625  0.5312
  810MOL0     C 9263   9.366   0.517   9.796 -0.0609 -0.2094  0.1357
  810MOL0     C 9264   9.481   0.495   9.870  0.1098  0.0710  0.0667
  810MOL0     N 9265  10.440   0.488   9.947  0.6633 -0.0860  0.4315
  810MOL0     N 9266  10.529   0.529   9.863  1.0009  0.1199 -0.3638
  810MOL0     C 9267   9.541   1.022   9.558  0.2007  0.0400  0.0672
  810MOL0     C 9268   9.417   1.023   9.502  0.0188  0.1334  0.1141
  810MOL0     C 9269   9.012   1.090   9.348  0.7026  0.9437  0.4848
  810MOL0     C 9270   8.943   0.966   9.374  0.5344  0.1887  0.1016
  810MOL0     C 9271   8.804   0.949   9.347 -0.8973 -1.0588 -0.0133
  810MOL0     C 9272   8.736   1.059   9.299 -0.3862 -0.5928  0.6212
  810MOL0     O 9273   8.600   1.060   9.264  0.8717 -0.2118 -0.6377
  810MOL0     C 9274   8.522   0.974   9.340  0.2674  0.2496 -0.5405
  810MOL0     C 9275   8.497   1.029   9.478 -0.6375 -0.6368  0.1872
  810MOL0     C 9276   8.384   0.959   9.569  0.0465  0.0055 -0.5081
  810MOL0     C 9277   8.256   0.907   9.498 -0.0787  0.7089 -0.2396
  810MOL0     C 9278   8.187   1.007   9.418  0.2795 -0.3180 -0.0434
  810MOL0     C 9279   8.113   1.065   9.340 -0.7070  0.5869  0.0476
  810MOL0     C 9280   8.801   1.174   9.272 -0.4471  0.1754  0.5636
  810MOL0     C 9281   8.941   1.198   9.297  0.5040  0.0339  0.3461
  810MOL0     C 9282   9.006   1.334   9.265  0.0645 -0.5375 -0.4462
  810MOL0     H 9283   9.247   1.171   9.764 -0.1387 -0.8826 -0.9113
  810MOL0     H 9284   9.466   1.196   9.846  1.1891  1.0516 -0.1810
  810MOL0     H 9285   9.800   0.923   9.636  1.2685  0.9430 -0.6569
  810MOL0     H 9286   9.831   1.090   9.605 -0.3778  0.3824 -0.2993
  810MOL0     H 9287   9.914   0.926   9.854  2.0616 -0.2156  0.5925
  810MOL0     H 9288   9.938   1.109   9.828 -3.7874  0.4819  0.9099
  810MOL0     H 9289  10.069   1.028   9.623 -2.2950 -0.1902 -0.6755
  810MOL0     H 9290  10.015   0.868   9.658 -0.4613  0.2811  0.0589
  810MOL0     H 9291  10.215   1.023   9.845  0.8275  1.3487 -2.3478
  810MOL0     H 9292  10.161   0.851   9.860 -3.1557 -1.5247 -2.0017
  810MOL0     H 9293  10.267   0.791   9.648  0.9815  1.0126 -0.5563
  810MOL0     H 9294  10.323   0.965   9.634  1.7138  1.0695  0.6951
  810MOL0     H 9295  10.466   0.953   9.806  2.3200  0.1830 -2.5761
  810MOL0     H 9296  10.399   0.789   9.851 -0.9308 -2.0801 -1.7886
  810MOL0     H 9297  10.620   0.789   9.775 -1.2634  1.2238  1.1216
  810MOL0     H 9298  10.564   0.863   9.612  1.0554 -1.6044 -1.7957
  810MOL0     H 9299  10.464   0.663   9.557  1.4165  0.3118 -1.4551
  810MOL0     H 9300  10.616   0.608   9.616 -1.0076  0.7352 -2.3865
  810MOL0     H 9301  10.250   0.578   9.686  1.0716 -3.2069 -1.5696
  810MOL0     H 9302  10.173   0.349   9.917 -0.8678 -0.0763 -0.6385
  810MOL0     H 9303  10.193   0.482  10.040  2.2210  0.5125 -0.0927
  810MOL0     H 9304  10.106   0.644   9.863 -0.5539  1.2446  2.1567
  810MOL0     H 9305  10.068   0.509   9.759  4.1570  0.7125 -0.0609
  810MOL0     H 9306   9.949   0.580  10.034  1.1493 -2.8751  2.0232
  810MOL0     H 9307   9.924   0.418   9.965 -0.4968  0.1192 -2.4845
  810MOL0     H 9308   9.825   0.524   9.767 -0.4690 -3.5031  1.2988
  810MOL0     H 9309   9.840   0.680   9.858  1.6656 -1.5141 -0.2481
  810MOL0     H 9310   9.637   0.789   9.807 -2.7329  1.7013  0.4110
  810MOL0     H 9311   9.443   0.826   9.693 -1.2130 -2.6154 -3.5162
  810MOL0     H 9312   8.967   0.773   9.657  2.0010 -0.3059 -0.5060
  810MOL0     H 9313   8.744   0.774   9.588  2.6527  2.0623 -1.0633
  810MOL0     H 9314   8.600   0.367   9.436 -1.8404  0.0866 -0.6294
  810MOL0     H 9315   8.565   0.383   9.603 -0.2040 -0.6157  0.0943
  810MOL0     H 9316   8.396   0.486   9.361  0.2954  0.1651  0.1986
  810MOL0     H 9317   8.353   0.333   9.430 -2.1717 -0.3060  2.6327
  810MOL0     H 9318   8.339   0.501   9.655 -0.8047  0.0763 -0.0702
  810MOL0     H 9319   8.300   0.614   9.529 -3.3532 -0.6898 -0.7410
  810MOL0     H 9320   8.151   0.364   9.565 -0.6963  0.2559  0.1493
  810MOL0     H 9321   8.125   0.481   9.444 -0.1536  1.0563 -0.8391
  810MOL0     H 9322   8.065   0.645   9.616 -2.0576  0.9610  0.9576
  810MOL0     H 9323   8.133   0.548   9.747  2.1840 -0.0011 -0.7231
  810MOL0     H 9324   7.892   0.503   9.575  2.7019  1.3636 -1.3356
  810MOL0     H 9325   7.940   0.365   9.690 -2.8394 -0.0354  4.6464
  810MOL0     H 9326   7.863   0.637   9.782 -2.4202  0.0079  0.8979
  810MOL0     H 9327   7.891   0.506   9.884 -3.2013  0.6000  1.6626
  810MOL0     H 9328   7.661   0.542   9.851  0.7255  0.0997  0.1576
  810MOL0     H 9329   7.665   0.526   9.675  0.9867  0.9385 -0.1901
  810MOL0     H 9330   8.801   0.337   9.500 -0.3422  0.7541 -1.3835
  810MOL0     H 9331   9.015   0.359   9.625 -0.3330 -0.3171 -0.9624
  810MOL0     H 9332   9.289   0.441   9.808  1.7019 -2.1961 -0.3599
  810MOL0     H 9333   9.498   0.396   9.912  0.3324  0.5539  1.1488
  810MOL0     H 9334   9.624   0.970   9.510 -0.3454  0.5411 -1.4948
  810MOL0     H 9335   9.417   0.966   9.409  0.0688  0.2189  0.0611
  810MOL0     H 9336   8.996   0.883   9.419  0.0909 -2.0201 -3.0620
  810MOL0     H 9337   8.763   0.852   9.371 -0.2434 -1.1334  0.8624
  810MOL0     H 9338   8.564   0.873   9.346  0.2530  0.2278 -0.7980
  810MOL0     H 9339   8.423   0.971   9.294  0.2222 -2.9433 -0.4595
  810MOL0     H 9340   8.469   1.134   9.463 -3.3612 -0.9452  2.3363
  810MOL0     H 9341   8.588   1.020   9.538 -0.7421 -0.3934  0.3836
  810MOL0     H 9342   8.353   1.022   9.653  1.5228 -1.2213  1.0065
  810MOL0     H 9343   8.428   0.870   9.614 -2.2754 -0.4066  1.0971
  810MOL0     H 9344   8.286   0.814   9.449 -1.4490 -1.0776  2.0825
  810MOL0     H 9345   8.187   0.880   9.578 -0.0485  0.1272 -0.4060
  810MOL0     H 9346   8.045   1.116   9.276  0.3589  0.0329 -1.5820
  810MOL0     H 9347   8.749   1.254   9.222  0.4347 -1.4650 -3.3607
  810MOL0     H 9348   9.084   1.366   9.334 -2.4520  1.0706  1.8504
  810MOL0     H 9349   9.055   1.331   9.167 -1.8085  0.8418 -1.4883
  810MOL0     H 9350   8.924   1.405   9.255 -2.4876 -3.5015 -2.9842
  811MOL0     O 9351   4.454   7.796   1.261  0.3866 -1.0337 -0.3216
  811MOL0     C 9352   4.533   7.875   1.317 -0.4961 -0.9334 -0.9742
  811MOL0     O 9353   4.540   8.015   1.292  0.6049  0.3298 -0.3081
  811MOL0     C 9354   4.452   8.075   1.203 -0.1744  0.1930  0.1202
  811MOL0     C 9355   4.307   8.050   1.192 -1.0807  0.1340 -1.3288
  811MOL0     C 9356   4.233   8.119   1.102 -0.3438  0.0973 -0.8531
  811MOL0     C 9357   4.287   8.206   1.006 -0.7682  0.2457 -0.5250
  811MOL0     O 9358   4.211   8.269   0.921 -0.5710 -0.7785  0.0325
  811MOL0     C 9359   4.145   8.386   0.973 -0.1762 -0.4508  0.5343
  811MOL0     C 9360   4.146   8.493   0.862  0.4034 -0.7112 -0.1897
  811MOL0     C 9361   4.007   8.552   0.843  0.9005 -0.5380  0.4638
  811MOL0     C 9362   3.997   8.655   0.723 -0.1549 -0.2004 -0.4408
  811MOL0     C 9363   3.862   8.645   0.658  0.0569  0.4281  0.0575
  811MOL0     C 9364   3.824   8.760   0.560 -0.8638 -0.1258 -0.5077
  811MOL0     C 9365   3.683   8.746   0.496  0.4716 -0.2697 -0.8600
  811MOL0     C 9366   3.668   8.627   0.402  0.0932 -0.0680  0.3222
  811MOL0     N 9367   3.743   8.643   0.280  0.3381 -0.4303  0.0300
  811MOL0     C 9368   3.870   8.586   0.266 -0.7087  0.9458  0.6161
  811MOL0     C 9369   3.913   8.621   0.138  0.6450  0.0223  0.4127
  811MOL0     C 9370   4.047   8.586   0.073  0.0752  0.4041 -0.3430
  811MOL0     C 9371   4.161   8.652   0.145  0.3406  1.1143  0.3980
  811MOL0     C 9372   4.292   8.573   0.116 -0.1121  0.0970 -1.5396
  811MOL0     C 9373   4.408   8.660   0.168  0.3876  0.6395  0.4892
  811MOL0     O 9374   4.537   8.592   0.163 -0.3370 -0.3330 -0.7705
  811MOL0     C 9375   4.659   8.664   0.164 -0.5295 -0.3740 -0.1392
  811MOL0     C 9376   4.775   8.602   0.112  0.1182 -0.3645 -0.3915
  811MOL0     C 9377   4.898   8.668   0.105  0.2974 -0.0622 -0.2549
  811MOL0     C 9378   4.912   8.795   0.151 -0.3748 -0.2574 -0.1666
  811MOL0     C 9379   5.036   8.871   0.153 -1.1226  0.4372 -0.0063
  811MOL0     O 9380   5.143   8.818   0.075  0.1893 -0.4963  0.0461
  811MOL0     C 9381   5.273   8.869   0.095  0.3226 -0.5253  0.8270
  811MOL0     C 9382   5.339   8.897  -0.023  1.1723 -0.5381 -0.8267
  811MOL0     C 9383   5.466   8.957  -0.015  0.4037  0.3050 -0.0053
  811MOL0     C 9384   5.530   8.976   0.106 -0.3442 -0.4704 -0.6452
  811MOL0     O 9385   5.654   9.031   0.125  0.6577  0.0953 -0.0887
  811MOL0     C 9386   5.703   9.115   0.017  0.0095  0.0238 -0.2009
  811MOL0     C 9387   5.804   9.212   0.073 -0.7634  0.3200 -0.6478
  811MOL0     C 9388   5.928   9.141   0.126 -0.6167  0.8951 -0.0728
  811MOL0     C 9389   6.038   9.241   0.113 -0.1754 -0.0808 -0.3332
  811MOL0     C 9390   6.176   9.201   0.170 -0.0822  0.4259 -0.0111
  811MOL0     C 9391   6.189   9.201   0.325  0.5246  0.0735 -0.4827
  811MOL0     C 9392   6.309   9.135   0.380  1.2057 -0.0637 -0.2160
  811MOL0     C 9393   6.291   9.098   0.534  0.0328  0.2664  0.8950
  811MOL0    Cl 9394   6.296   9.235   0.653 -0.0941 -0.1825  0.1427
  811MOL0     C 9395   5.465   8.928   0.228 -0.1692 -0.1162  0.3442
  811MOL0     C 9396   5.336   8.874   0.220  0.3984 -0.2753 -0.7669
  811MOL0     O 9397   5.046   8.968   0.223 -1.0054  0.6235 -0.1098
  811MOL0     C 9398   4.793   8.859   0.199 -0.3997 -0.6026  0.1050
  811MOL0     C 9399   4.669   8.797   0.219 -0.8788  0.0522 -1.1225
  811MOL0     N 9400   3.804   8.692   0.081 -0.5813  0.0204 -0.1766
  811MOL0     N 9401   3.701   8.699   0.160  0.1294  0.2026 -0.7668
  811MOL0     C 9402   4.433   8.222   1.005  0.6064 -0.1934  0.4288
  811MOL0     C 9403   4.515   8.165   1.111  1.5339  0.9810 -0.0420
  811MOL0     C 9404   4.646   7.823   1.409  0.0673  0.7911 -0.1546
  811MOL0     C 9405   4.717   7.911   1.489 -0.5166  0.4340  0.0943
  811MOL0     C 9406   4.819   7.876   1.580  0.0299 -0.6529  0.1013
  811MOL0     C 9407   4.849   7.741   1.585 -0.0497  1.0663 -0.3219
  811MOL0     O 9408   4.948   7.717   1.684 -0.7175 -0.1858 -0.5007
  811MOL0     C 9409   5.030   7.601   1.673  0.4223  0.8232 -0.0224
  811MOL0     C 9410   5.171   7.620   1.722 -0.9714 -0.2111  0.1839
  811MOL0     C 9411   5.161   7.643   1.873 -0.8727  0.4159  0.7343
  811MOL0     C 9412   5.292   7.626   1.950 -0.2147 -0.2747 -0.0020
  811MOL0     C 9413   5.343   7.487   1.947 -0.2741 -0.8948  0.4453
  811MOL0     C 9414   5.378   7.370   1.943  0.0762 -0.2741 -0.1659
  811MOL0     C 9415   4.796   7.650   1.493 -0.2020 -0.4338  0.0332
  811MOL0     C 9416   4.688   7.687   1.407  0.6018  0.2563  0.5353
  811MOL0     C 9417   4.638   7.580   1.312 -0.1652  0.1357  0.3119
  811MOL0     H 9418   4.269   7.976   1.261  1.1426 -1.1871 -1.4030
  811MOL0     H 9419   4.124   8.110   1.104 -0.3726  0.5241  0.1845
  811MOL0     H 9420   4.039   8.366   0.988 -1.2120  2.7750 -1.4836
  811MOL0     H 9421   4.184   8.426   1.067  0.1494 -0.6439  0.4841
  811MOL0     H 9422   4.185   8.448   0.770  1.7008 -3.9667  1.7857
  811MOL0     H 9423   4.223   8.566   0.889  0.2257 -0.4437 -0.3963
  811MOL0     H 9424   3.962   8.587   0.937  0.5352 -1.9912  0.8583
  811MOL0     H 9425   3.930   8.478   0.820 -1.1885  2.2737 -2.6388
  811MOL0     H 9426   4.011   8.760   0.751 -0.2453 -0.3684  0.2721
  811MOL0     H 9427   4.063   8.631   0.640  0.5542 -0.1409  0.1026
  811MOL0     H 9428   3.860   8.557   0.593  1.9197  0.7312 -0.4766
  811MOL0     H 9429   3.782   8.638   0.732  0.2863 -1.7940  0.1627
  811MOL0     H 9430   3.823   8.856   0.613 -2.2509  0.0290 -0.7687
  811MOL0     H 9431   3.895   8.765   0.477  0.3433 -0.4182  0.4825
  811MOL0     H 9432   3.665   8.838   0.441 -1.3967  0.4189  0.7880
  811MOL0     H 9433   3.605   8.740   0.572  0.6197  0.1092 -0.6763
  811MOL0     H 9434   3.697   8.542   0.465 -0.3366 -1.2090 -0.9873
  811MOL0     H 9435   3.564   8.607   0.373  0.3695 -1.2319  0.0615
  811MOL0     H 9436   3.927   8.516   0.328 -2.2921 -2.4437 -1.4249
  811MOL0     H 9437   4.058   8.478   0.073  3.9583  0.5879 -2.3397
  811MOL0     H 9438   4.041   8.626  -0.029  2.3383  2.5978  0.2865
  811MOL0     H 9439   4.167   8.755   0.109 -1.6629  1.6208  1.3714
  811MOL0     H 9440   4.144   8.646   0.253  0.9030  0.9508  0.4806
  811MOL0     H 9441   4.300   8.560   0.007 -2.2081 -1.0992 -1.6096
  811MOL0     H 9442   4.298   8.481   0.174  1.3520  1.0142 -0.1626
  811MOL0     H 9443   4.387   8.684   0.273  2.1728  1.5454  0.6859
  811MOL0     H 9444   4.406   8.744   0.099 -0.0313 -0.2372 -0.5854
  811MOL0     H 9445   4.768   8.499   0.078  0.6572 -0.5833  0.1367
  811MOL0     H 9446   4.981   8.615   0.062 -0.4565  0.1813 -2.1058
  811MOL0     H 9447   5.292   8.890  -0.120  0.4656 -3.6611 -0.3625
  811MOL0     H 9448   5.515   8.982  -0.108 -2.7812 -0.3052 -1.9808
  811MOL0     H 9449   5.758   9.060  -0.060  2.8486  4.5170 -1.7322
  811MOL0     H 9450   5.625   9.165  -0.041  2.7445  1.0948 -3.2689
  811MOL0     H 9451   5.832   9.277  -0.011  1.8084 -0.9511 -0.8476
  811MOL0     H 9452   5.778   9.277   0.158  1.9301  1.8931 -0.9090
  811MOL0     H 9453   5.907   9.116   0.231  0.6612 -0.1254 -0.0262
  811MOL0     H 9454   5.938   9.042   0.081 -4.9984 -0.3667  1.2327
  811MOL0     H 9455   6.007   9.325   0.175 -1.8515 -1.4160  0.6973
  811MOL0     H 9456   6.043   9.280   0.011 -3.9519 -2.9799 -1.8558
  811MOL0     H 9457   6.249   9.274   0.135 -1.0684  1.0025 -0.9207
  811MOL0     H 9458   6.200   9.104   0.127 -1.4791 -0.2471  0.6517
  811MOL0     H 9459   6.169   9.301   0.364 -1.2816 -0.7623  0.9078
  811MOL0     H 9460   6.104   9.139   0.357  1.1408 -0.8864 -0.6906
  811MOL0     H 9461   6.394   9.202   0.364  1.3395 -0.3478 -0.7112
  811MOL0     H 9462   6.326   9.043   0.323 -0.3463 -1.0807  0.9026
  811MOL0     H 9463   6.191   9.054   0.537  0.0707 -0.0938 -1.3915
  811MOL0     H 9464   6.371   9.028   0.557 -0.1533 -0.3192 -0.1524
  811MOL0     H 9465   5.512   8.932   0.326 -1.3371  1.4862  0.8960
  811MOL0     H 9466   5.284   8.845   0.311  0.2537 -3.0377 -1.6424
  811MOL0     H 9467   4.795   8.964   0.228  3.5301 -0.0945 -1.5043
  811MOL0     H 9468   4.589   8.852   0.268  1.3913  1.8487  0.7686
  811MOL0     H 9469   4.478   8.294   0.937  2.0938 -1.4769  0.0064
  811MOL0     H 9470   4.622   8.180   1.120  1.7734 -0.6517  0.0682
  811MOL0     H 9471   4.695   8.017   1.481 -0.5189  0.4190 -0.0998
  811MOL0     H 9472   4.865   7.951   1.644 -1.7379 -0.4355  1.1965
  811MOL0     H 9473   5.033   7.563   1.570  0.8543  0.4643  0.1172
  811MOL0     H 9474   4.973   7.532   1.735  2.3487  0.5152  1.5169
  811MOL0     H 9475   5.214   7.710   1.677 -2.3308  0.0944 -0.5698
  811MOL0     H 9476   5.236   7.534   1.704  0.1845  0.4074  1.3030
  811MOL0     H 9477   5.110   7.553   1.908  1.2550 -0.7143  1.0556
  811MOL0     H 9478   5.112   7.740   1.890  0.7007  1.2296  0.8267
  811MOL0     H 9479   5.364   7.690   1.897 -0.9586 -0.8289 -1.7450
  811MOL0     H 9480   5.275   7.660   2.052  1.0651  0.4976 -0.0233
  811MOL0     H 9481   5.403   7.267   1.957 -1.1193 -0.1509  3.9022
  811MOL0     H 9482   4.831   7.548   1.484  2.2264  0.2374  1.2140
  811MOL0     H 9483   4.536   7.552   1.341 -0.1373 -0.5344 -0.2191
  811MOL0     H 9484   4.633   7.599   1.204  0.2262 -1.9444 -0.1203
  811MOL0     H 9485   4.697   7.489   1.326  1.1872  1.1474  1.4554
  812MOL0     O 9486   8.052   3.655   7.488 -0.2071  0.2131  0.2770
  812MOL0     C 9487   8.157   3.718   7.502 -0.3691  0.3330 -0.3672
  812MOL0     O 9488   8.280   3.670   7.468 -0.2137 -0.3731  0.5603
  812MOL0     C 9489   8.311   3.550   7.413  0.0022 -0.2502 -0.2865
  812MOL0     C 9490   8.448   3.546   7.365 -0.7516  0.5086  0.1341
  812MOL0     C 9491   8.503   3.431   7.308  0.2448  0.0538 -0.1490
  812MOL0     C 9492   8.411   3.320   7.287 -0.4692  0.6959  0.6303
  812MOL0     O 9493   8.463   3.221   7.209 -0.4790  0.8953  0.0102
  812MOL0     C 9494   8.404   3.093   7.203  0.5572  0.5833  0.3945
  812MOL0     C 9495   8.516   2.987   7.183  0.3515 -0.9503 -0.3149
  812MOL0     C 9496   8.583   3.007   7.040 -0.6870  0.0277  0.4550
  812MOL0     C 9497   8.685   2.887   7.003 -0.2244 -0.2524 -0.4763
  812MOL0     C 9498   8.729   2.889   6.854  0.1589  0.1219  0.7232
  812MOL0     C 9499   8.823   3.004   6.805  0.8131 -0.2903 -0.2727
  812MOL0     C 9500   8.764   3.143   6.766  0.6542  0.4378 -0.2414
  812MOL0     C 9501   8.876   3.240   6.734  0.6901 -0.3866  0.4763
  812MOL0     N 9502   8.967   3.208   6.623  0.2836 -0.1153  0.0373
  812MOL0     C 9503   8.940   3.166   6.497 -1.1307  0.6573  0.6143
  812MOL0     C 9504   9.061   3.150   6.449 -0.2309  0.3130  0.5675
  812MOL0     C 9505   9.082   3.070   6.326  0.7821  0.2360  0.7802
  812MOL0     C 9506   9.026   2.923   6.335  0.0972  0.9274  0.9878
  812MOL0     C 9507   9.068   2.847   6.208  0.0634  0.3932 -0.4829
  812MOL0     C 9508   9.038   2.921   6.078  0.0279  0.7836 -0.1273
  812MOL0     O 9509   8.898   2.930   6.062  0.0066 -0.3681 -0.4093
  812MOL0     C 9510   8.845   2.983   5.946  0.7356 -0.6174 -0.4367
  812MOL0     C 9511   8.705   2.996   5.928  0.0227  0.2443  0.2180
  812MOL0     C 9512   8.647   3.019   5.802 -0.5224 -1.0703 -0.1909
  812MOL0     C 9513   8.724   3.045   5.692 -0.5255 -0.6083  0.2116
  812MOL0     C 9514   8.668   3.083   5.558 -0.1585  0.1715 -0.3008
  812MOL0     O 9515   8.755   3.091   5.459 -0.0762  0.4166  0.3156
  812MOL0     C 9516   8.721   3.162   5.346 -0.1042  0.5733  0.6655
  812MOL0     C 9517   8.611   3.136   5.261 -0.0554 -0.3443  0.1008
  812MOL0     C 9518   8.554   3.232   5.179 -0.0517 -0.7460  0.1334
  812MOL0     C 9519   8.615   3.357   5.164  0.3280  0.4621 -0.1551
  812MOL0     O 9520   8.550   3.447   5.085  0.0941  0.1151 -0.1255
  812MOL0     C 9521   8.566   3.587   5.126 -0.4516  0.1518 -0.5407
  812MOL0     C 9522   8.667   3.664   5.049  0.7467 -0.1672  0.6874
  812MOL0     C 9523   8.644   3.698   4.903  0.4979  0.6421  0.2897
  812MOL0     C 9524   8.532   3.793   4.877 -0.1723 -0.3950  1.0605
  812MOL0     C 9525   8.543   3.855   4.735  0.4519 -0.3663 -0.0907
  812MOL0     C 9526   8.523   3.746   4.630  0.7321  0.3682 -0.3562
  812MOL0     C 9527   8.482   3.803   4.489  0.7369 -0.6813  0.0744
  812MOL0     C 9528   8.490   3.706   4.364 -0.1625  0.5465 -0.8715
  812MOL0    Cl 9529   8.496   3.793   4.205 -0.1524 -0.0143 -0.2967
  812MOL0     C 9530   8.733   3.381   5.237  0.2251  0.3097  0.3758
  812MOL0     C 9531   8.779   3.290   5.328  0.0057  0.4293 -0.5575
  812MOL0     O 9532   8.562   3.137   5.563 -0.4615 -0.2765  0.5328
  812MOL0     C 9533   8.865   3.051   5.715 -0.1387 -0.4332 -0.1752
  812MOL0     C 9534   8.920   3.028   5.843 -0.6082 -0.2898 -0.0991
  812MOL0     N 9535   9.164   3.183   6.535  0.7186 -0.8786 -0.7596
  812MOL0     N 9536   9.110   3.219   6.643 -0.5844 -0.0051 -0.4447
  812MOL0     C 9537   8.283   3.332   7.323  0.9953  0.5533 -1.4976
  812MOL0     C 9538   8.227   3.440   7.393 -0.8046  0.3613 -0.5802
  812MOL0     C 9539   8.144   3.843   7.580  1.3490 -1.3816  0.4362
  812MOL0     C 9540   8.261   3.910   7.609 -0.2359 -0.9494 -0.3131
  812MOL0     C 9541   8.271   4.034   7.678  0.7441 -0.0127  0.8016
  812MOL0     C 9542   8.147   4.079   7.736 -0.2925  0.3212 -0.4224
  812MOL0     O 9543   8.142   4.205   7.798  0.0620  0.2256 -0.4488
  812MOL0     C 9544   8.078   4.222   7.923 -0.0320  0.1705  1.7618
  812MOL0     C 9545   8.065   4.375   7.947 -0.2351 -0.2149  0.2154
  812MOL0     C 9546   7.976   4.451   7.835 -0.1432 -0.0978 -0.2378
  812MOL0     C 9547   7.821   4.437   7.840 -0.0011  0.0357  0.3267
  812MOL0     C 9548   7.761   4.465   7.972 -1.1149  0.2166 -0.3617
  812MOL0     C 9549   7.715   4.498   8.080  0.0858 -0.3036  0.5860
  812MOL0     C 9550   8.026   4.016   7.702 -0.3812 -0.1745  0.5258
  812MOL0     C 9551   8.017   3.899   7.629  0.0151 -0.2718  0.3060
  812MOL0     C 9552   7.877   3.840   7.605  0.1902 -0.5575  0.5305
  812MOL0     H 9553   8.504   3.638   7.376  2.1847 -1.4568  4.5069
  812MOL0     H 9554   8.606   3.427   7.272  0.8864 -2.3425  1.6846
  812MOL0     H 9555   8.350   3.067   7.294 -1.0027 -0.2942 -0.7502
  812MOL0     H 9556   8.334   3.086   7.120  0.7846  0.4267  0.2126
  812MOL0     H 9557   8.473   2.887   7.196 -1.8451 -0.1949 -1.2170
  812MOL0     H 9558   8.591   2.993   7.262  0.2110 -4.0359  0.1641
  812MOL0     H 9559   8.620   3.110   7.042 -3.5276  1.2392 -1.7609
  812MOL0     H 9560   8.503   3.009   6.966 -0.9982 -1.0698  0.7424
  812MOL0     H 9561   8.766   2.902   7.075 -0.3966  1.8257 -0.6401
  812MOL0     H 9562   8.641   2.789   7.024  0.0859 -0.3466 -0.2494
  812MOL0     H 9563   8.791   2.800   6.838 -1.2822 -0.4578 -2.3968
  812MOL0     H 9564   8.650   2.875   6.780  1.2794 -1.3757 -0.2571
  812MOL0     H 9565   8.893   3.024   6.887 -0.1971 -2.9845  1.3669
  812MOL0     H 9566   8.880   2.959   6.723  2.1923 -0.0185  0.5010
  812MOL0     H 9567   8.709   3.172   6.856 -1.6953 -1.6179 -0.9047
  812MOL0     H 9568   8.693   3.134   6.684 -0.4560 -0.5753  0.7828
  812MOL0     H 9569   8.821   3.326   6.696  2.1426  0.1041 -0.6335
  812MOL0     H 9570   8.933   3.266   6.824 -0.4807  0.0072  1.1148
  812MOL0     H 9571   8.844   3.134   6.457  0.1434 -0.5735 -1.6022
  812MOL0     H 9572   9.048   3.126   6.238  0.3033 -0.4825  0.4939
  812MOL0     H 9573   9.190   3.070   6.313  0.8543  0.1227  1.3537
  812MOL0     H 9574   9.069   2.875   6.424 -0.5008 -0.3411  0.6167
  812MOL0     H 9575   8.917   2.914   6.341  0.0825 -0.2975 -0.4437
  812MOL0     H 9576   9.020   2.749   6.200 -0.1398  0.4355  0.2006
  812MOL0     H 9577   9.177   2.836   6.204  0.1992  1.8922 -2.9513
  812MOL0     H 9578   9.082   2.861   5.997  0.7530  3.4552 -1.8296
  812MOL0     H 9579   9.073   3.023   6.064  1.8784 -0.0322 -2.0402
  812MOL0     H 9580   8.634   2.969   6.005 -1.8281  0.8318 -1.2148
  812MOL0     H 9581   8.539   3.028   5.789 -0.2897  1.5018 -0.8590
  812MOL0     H 9582   8.555   3.044   5.272 -0.0468 -0.4269 -0.4924
  812MOL0     H 9583   8.458   3.225   5.129 -0.8684  0.8180  1.3774
  812MOL0     H 9584   8.469   3.637   5.118  0.7655  2.4917 -1.5567
  812MOL0     H 9585   8.581   3.594   5.234  2.1928  0.0838 -0.8456
  812MOL0     H 9586   8.676   3.754   5.111 -1.8916  1.5915 -1.2757
  812MOL0     H 9587   8.761   3.608   5.051  0.9406  0.1627  1.1581
  812MOL0     H 9588   8.741   3.726   4.860  0.8374  0.7083  1.0901
  812MOL0     H 9589   8.624   3.599   4.860 -1.1012  0.2003  1.9239
  812MOL0     H 9590   8.549   3.873   4.949 -3.9626  2.1185 -0.5527
  812MOL0     H 9591   8.439   3.737   4.894 -0.4616 -1.0491 -2.0861
  812MOL0     H 9592   8.642   3.898   4.715  2.7765 -5.1250 -0.3046
  812MOL0     H 9593   8.465   3.931   4.724 -0.2292 -1.2846 -1.9914
  812MOL0     H 9594   8.610   3.681   4.622  0.3232 -0.2313  0.0369
  812MOL0     H 9595   8.433   3.689   4.653  1.2328 -0.4786 -0.4566
  812MOL0     H 9596   8.561   3.877   4.474  2.5686 -2.3772  0.9904
  812MOL0     H 9597   8.383   3.851   4.488  0.5533 -0.9702 -2.3798
  812MOL0     H 9598   8.584   3.652   4.378  0.0807  0.9998 -0.7551
  812MOL0     H 9599   8.408   3.634   4.363  0.0160  0.3239  0.0969
  812MOL0     H 9600   8.787   3.475   5.224  1.9469 -0.8689 -1.5751
  812MOL0     H 9601   8.861   3.328   5.387 -0.8609  0.8320  0.4258
  812MOL0     H 9602   8.931   3.074   5.632 -1.4853 -4.0525 -2.4746
  812MOL0     H 9603   9.027   3.037   5.860 -0.7874  2.5432  0.1050
  812MOL0     H 9604   8.221   3.248   7.293  1.9394 -2.1658  3.1534
  812MOL0     H 9605   8.125   3.449   7.430 -1.2940 -0.5356 -1.6246
  812MOL0     H 9606   8.352   3.867   7.567 -0.4737 -2.9420  1.0461
  812MOL0     H 9607   8.372   4.073   7.695  1.6598 -2.3009  0.9778
  812MOL0     H 9608   8.142   4.168   7.994  0.3982  0.5789  1.6853
  812MOL0     H 9609   7.980   4.173   7.920  0.5968 -1.0931 -0.9677
  812MOL0     H 9610   8.165   4.419   7.946  0.8603 -2.5040 -1.9315
  812MOL0     H 9611   8.034   4.390   8.051  1.8778  3.5797  0.4933
  812MOL0     H 9612   8.011   4.412   7.739 -0.0726  0.2293 -0.3460
  812MOL0     H 9613   7.997   4.557   7.851 -1.5469 -0.3656  5.5559
  812MOL0     H 9614   7.797   4.517   7.769  0.0014 -1.1432 -1.0558
  812MOL0     H 9615   7.781   4.348   7.791 -0.5543  0.2821  0.3163
  812MOL0     H 9616   7.675   4.527   8.175 -0.0620  1.1259  0.1184
  812MOL0     H 9617   7.932   4.059   7.735  0.2281  1.8243 -0.2027
  812MOL0     H 9618   7.865   3.739   7.648  0.6921 -0.8792 -0.0695
  812MOL0     H 9619   7.794   3.888   7.658 -0.6597 -2.7513  1.3006
  812MOL0     H 9620   7.859   3.843   7.498 -0.2484  7.5144  0.2741
  813MOL0     O 9621   1.773  10.473  10.382 -0.0752  0.6786  0.1599
  813MOL0     C 9622   1.718  10.488  10.490 -0.5753 -0.0420 -0.4363
  813MOL0     O 9623   1.776  10.452  10.617 -0.2014  0.2073  0.3611
  813MOL0     C 9624   1.907  10.397  10.616  0.3756  0.1488  0.2858
  813MOL0     C 9625   2.022  10.461  10.558 -0.4307  0.2788 -0.2487
  813MOL0     C 9626   2.141  10.388  10.544  0.6048  0.1387 -0.5092
  813MOL0     C 9627   2.149  10.256  10.594  0.1286  0.6059 -0.2399
  813MOL0     O 9628   2.266  10.185  10.572 -0.9351 -0.5758  0.1853
  813MOL0     C 9629   2.330  10.127  10.691 -0.1879  0.1799  0.3513
  813MOL0     C 9630   2.479  10.082  10.661  0.3736 -0.1545  0.1867
  813MOL0     C 9631   2.479   9.972  10.553 -0.9549  0.1161  0.1888
  813MOL0     C 9632   2.632   9.945  10.529  0.6419  0.0433 -0.0939
  813MOL0     C 9633   2.653   9.833  10.423  1.2224 -0.2289 -0.2057
  813MOL0     C 9634   2.803   9.801  10.412 -0.5027  0.8451 -0.0484
  813MOL0     C 9635   2.832   9.655  10.362  0.3597 -0.2876  0.0008
  813MOL0     C 9636   2.962   9.643  10.285 -0.1709  0.5618  0.0929
  813MOL0     N 9637   3.076   9.692  10.352 -0.1815 -0.3697 -0.6250
  813MOL0     C 9638   3.145   9.805  10.311  0.2056 -0.4847  0.4413
  813MOL0     C 9639   3.251   9.817  10.385  0.2236  1.1600 -0.5022
  813MOL0     C 9640   3.368   9.907  10.376 -1.3418  0.0617 -0.2342
  813MOL0     C 9641   3.485   9.825  10.319 -0.5916  0.2019 -0.4859
  813MOL0     C 9642   3.598   9.803  10.425 -0.2836  0.8887  1.0031
  813MOL0     C 9643   3.740   9.754  10.375 -0.4334 -0.1093  0.6164
  813MOL0     O 9644   3.781   9.842  10.273  1.3146 -0.4267  0.8100
  813MOL0     C 9645   3.900   9.906  10.279 -0.5294  0.8405 -0.5958
  813MOL0     C 9646   4.020   9.844  10.330 -0.1402 -0.3058 -0.1618
  813MOL0     C 9647   4.137   9.918  10.323  0.8057  0.4607 -0.8962
  813MOL0     C 9648   4.135  10.037  10.247 -0.0356 -0.2862 -1.3051
  813MOL0     C 9649   4.266  10.106  10.229  0.2967  1.0703  0.2652
  813MOL0     O 9650   4.270  10.215  10.152 -0.5444 -0.1220 -0.0700
  813MOL0     C 9651   4.390  10.285  10.128 -0.5320  1.4381 -0.2105
  813MOL0     C 9652   4.384  10.419  10.143  0.3573 -0.5191  0.1965
  813MOL0     C 9653   4.499  10.500  10.112  0.7390  0.2799  0.1408
  813MOL0     C 9654   4.617  10.440  10.071  0.2303 -0.1323  0.1161
  813MOL0     O 9655   4.720  10.530  10.046 -0.1721  0.0944  0.7444
  813MOL0     C 9656   4.746  10.528   9.903 -0.8134 -0.1703 -0.5678
  813MOL0     C 9657   4.744  10.671   9.850  0.0605  0.3107  0.3505
  813MOL0     C 9658   4.856  10.753   9.892 -0.3692  0.7561 -0.0137
  813MOL0     C 9659   4.996  10.699   9.850 -0.3004  0.3944  0.4637
  813MOL0     C 9660   5.107  10.799   9.892  0.1966  0.7169  0.0730
  813MOL0     C 9661   5.099  10.932   9.815  0.1013  0.5137 -0.4499
  813MOL0     C 9662   5.193  11.040   9.884  0.1773  0.5311  0.3608
  813MOL0     C 9663   5.167  11.175   9.805  0.7282 -0.3019 -0.1092
  813MOL0    Cl 9664   5.211  11.316   9.908 -0.1107 -0.3716  0.2916
  813MOL0     C 9665   4.629  10.304  10.061 -0.2651  0.2650  0.3691
  813MOL0     C 9666   4.510  10.223  10.088 -0.3613 -0.3492  0.6107
  813MOL0     O 9667   4.363  10.056  10.289 -0.9761  0.2506 -0.3703
  813MOL0     C 9668   4.013  10.104  10.218  0.2010  0.3374  0.0103
  813MOL0     C 9669   3.896  10.035  10.235  0.1063  0.2020 -0.1057
  813MOL0     N 9670   3.248   9.702  10.465  0.3763 -0.0942 -0.3005
  813MOL0     N 9671   3.140   9.630  10.454 -0.1150 -0.4904  0.7281
  813MOL0     C 9672   2.043  10.196  10.657 -0.4027 -0.5072 -0.3819
  813MOL0     C 9673   1.928  10.268  10.668  0.3636 -0.8313  0.4280
  813MOL0     C 9674   1.581  10.522  10.485 -0.5611  0.2367  0.9344
  813MOL0     C 9675   1.498  10.462  10.578  0.4577  0.2197 -0.2713
  813MOL0     C 9676   1.369  10.492  10.577 -0.1832  0.3340 -0.1894
  813MOL0     C 9677   1.308  10.574  10.491 -0.3583 -0.4525  0.0838
  813MOL0     O 9678   1.175  10.588  10.504 -0.1613 -0.4372 -0.3090
  813MOL0     C 9679   1.119  10.715  10.466  0.0898 -0.7956 -0.8300
  813MOL0     C 9680   0.970  10.692  10.459 -0.5836 -1.2610 -0.0204
  813MOL0     C 9681   0.933  10.625  10.338 -0.3847 -1.0045 -0.1337
  813MOL0     C 9682   0.785  10.654  10.298 -0.5000 -0.0413 -0.1529
  813MOL0     C 9683   0.709  10.595  10.408 -0.7105 -0.4266  0.8004
  813MOL0     C 9684   0.644  10.532  10.481  0.0929  0.2900 -0.7670
  813MOL0     C 9685   1.385  10.623  10.382 -0.5962  0.0143 -0.2937
  813MOL0     C 9686   1.522  10.609  10.393 -0.1654 -0.5318  0.4833
  813MOL0     C 9687   1.601  10.698  10.292 -0.1898 -0.7023 -0.1219
  813MOL0     H 9688   2.016  10.561  10.516  0.5107  0.6010  0.3681
  813MOL0     H 9689   2.226  10.439  10.501 -0.0200  0.3654 -1.4836
  813MOL0     H 9690   2.340  10.209  10.763  0.4951 -0.9035  1.5231
  813MOL0     H 9691   2.270  10.058  10.751 -1.1003  0.6549  0.0027
  813MOL0     H 9692   2.529  10.038  10.748  4.3187  0.5311 -1.5099
  813MOL0     H 9693   2.536  10.171  10.634 -2.4562  1.4826 -0.7965
  813MOL0     H 9694   2.434  10.010  10.462 -0.9645  2.2270  1.0227
  813MOL0     H 9695   2.426   9.881  10.581 -1.3119  0.3921  0.4054
  813MOL0     H 9696   2.691  10.031  10.497  3.3244 -1.2754  1.0432
  813MOL0     H 9697   2.677   9.913  10.623  0.8179  0.4284 -0.0450
  813MOL0     H 9698   2.586   9.751  10.454 -4.8759  3.0526 -2.9098
  813MOL0     H 9699   2.606   9.872  10.333 -3.2866  1.1050  2.4021
  813MOL0     H 9700   2.840   9.877  10.342 -2.3137  2.4995  0.6898
  813MOL0     H 9701   2.864   9.815  10.502 -1.9916  0.3373  1.0861
  813MOL0     H 9702   2.760   9.621  10.286  0.4131 -0.3825 -0.0080
  813MOL0     H 9703   2.835   9.587  10.448  1.7872 -0.8160 -0.4520
  813MOL0     H 9704   2.964   9.535  10.266 -3.7524  0.3236  0.3820
  813MOL0     H 9705   2.943   9.706  10.198  0.7706  0.2934 -0.3171
  813MOL0     H 9706   3.123   9.866  10.223  1.2145 -0.2528  0.3346
  813MOL0     H 9707   3.343   9.994  10.315 -0.0505 -0.6872 -1.9213
  813MOL0     H 9708   3.393   9.941  10.477 -0.8994 -0.7343 -0.0623
  813MOL0     H 9709   3.461   9.726  10.278 -1.3010  0.8058 -1.5815
  813MOL0     H 9710   3.526   9.881  10.234 -1.6543  1.7545 -0.0128
  813MOL0     H 9711   3.573   9.724  10.498  0.4559 -0.7447 -0.4327
  813MOL0     H 9712   3.611   9.891  10.488  1.3121  0.6726  1.0050
  813MOL0     H 9713   3.739   9.650  10.344 -0.0263 -0.2614  1.1030
  813MOL0     H 9714   3.806   9.772  10.460 -0.8132  2.4245  0.4768
  813MOL0     H 9715   4.019   9.744  10.373 -0.3359 -0.0068  0.5580
  813MOL0     H 9716   4.228   9.871  10.360 -0.7611 -2.2880 -0.2710
  813MOL0     H 9717   4.291  10.449  10.191 -0.3078  1.0087 -1.8911
  813MOL0     H 9718   4.488  10.608  10.111 -1.4993  0.1150 -0.5965
  813MOL0     H 9719   4.837  10.469   9.894 -1.4495 -1.0318 -1.6163
  813MOL0     H 9720   4.665  10.478   9.850 -1.4990  0.9598 -0.6327
  813MOL0     H 9721   4.743  10.666   9.741 -2.3451 -2.3290  0.3511
  813MOL0     H 9722   4.647  10.712   9.881 -1.4171 -2.5329 -0.2102
  813MOL0     H 9723   4.849  10.849   9.840  2.1317  0.6556 -0.6853
  813MOL0     H 9724   4.845  10.776   9.998 -3.3355 -2.0208  0.4154
  813MOL0     H 9725   4.996  10.676   9.743 -0.2699  1.7818  0.1459
  813MOL0     H 9726   5.021  10.603   9.896 -1.3543 -0.0624  0.1135
  813MOL0     H 9727   5.206  10.754   9.880 -0.0020 -0.0910  1.2873
  813MOL0     H 9728   5.097  10.813  10.000  0.6533 -2.8911  0.6966
  813MOL0     H 9729   5.128  10.922   9.710  0.5589  2.0281 -0.4961
  813MOL0     H 9730   4.999  10.977   9.813  0.6753  2.0890  2.1700
  813MOL0     H 9731   5.299  11.017   9.891 -0.0539 -0.6088  0.3369
  813MOL0     H 9732   5.155  11.063   9.984 -3.2807  2.0393 -1.1265
  813MOL0     H 9733   5.215  11.180   9.707 -4.3645  0.2870 -2.9249
  813MOL0     H 9734   5.063  11.188   9.773  0.7835 -2.1124 -1.1990
  813MOL0     H 9735   4.721  10.253  10.034 -0.2597  0.2348  0.4440
  813MOL0     H 9736   4.515  10.115  10.085  5.2098 -0.3662 -0.7417
  813MOL0     H 9737   4.013  10.200  10.168 -1.7201  1.2630  1.6752
  813MOL0     H 9738   3.803  10.077  10.199 -0.6080 -1.0163  0.2577
  813MOL0     H 9739   2.047  10.097  10.701  0.4924  1.3722  4.3804
  813MOL0     H 9740   1.831  10.228  10.693 -0.6280  0.3230 -1.3583
  813MOL0     H 9741   1.526  10.384  10.648 -1.3116 -0.0175  0.2236
  813MOL0     H 9742   1.295  10.441  10.639  0.4915  0.0404  0.3860
  813MOL0     H 9743   1.152  10.766  10.375 -0.9938  2.8609  0.6611
  813MOL0     H 9744   1.134  10.778  10.554 -2.4201 -1.4156  0.1324
  813MOL0     H 9745   0.925  10.791  10.471 -0.4811 -1.2922  0.6843
  813MOL0     H 9746   0.935  10.629  10.542  2.5068 -1.2347  1.4292
  813MOL0     H 9747   0.948  10.517  10.346  0.3036 -0.8340  1.1482
  813MOL0     H 9748   1.000  10.653  10.257  1.0438  0.4175  1.4457
  813MOL0     H 9749   0.771  10.761  10.283  1.5867  0.0389 -1.9702
  813MOL0     H 9750   0.752  10.602  10.208 -3.6886  3.4379 -1.2500
  813MOL0     H 9751   0.601  10.469  10.556  1.4831 -2.8542 -2.4277
  813MOL0     H 9752   1.334  10.684  10.309 -1.3552 -1.6019 -1.1798
  813MOL0     H 9753   1.593  10.651  10.193 -2.8263  3.4570 -2.1525
  813MOL0     H 9754   1.551  10.795  10.290  0.4167 -0.2130  3.2538
  813MOL0     H 9755   1.708  10.710  10.312  0.3998 -3.4982 -1.0639
  814MOL0     O 9756   4.298   3.509   1.855 -0.5205  0.5694  0.8383
  814MOL0     C 9757   4.268   3.611   1.788 -0.4868 -0.3907 -0.0383
  814MOL0     O 9758   4.356   3.703   1.736 -0.3173  0.4455 -0.5706
  814MOL0     C 9759   4.485   3.691   1.790  0.0342  0.5838 -0.3435
  814MOL0     C 9760   4.568   3.602   1.736 -1.1952  0.2321 -1.0745
  814MOL0     C 9761   4.703   3.601   1.782  0.4818 -0.2572 -0.1345
  814MOL0     C 9762   4.762   3.699   1.862  0.3222  0.0835 -0.7513
  814MOL0     O 9763   4.892   3.680   1.903 -0.2681 -0.6648 -0.0139
  814MOL0     C 9764   4.961   3.774   1.988  0.3959  1.1129  0.6718
  814MOL0     C 9765   5.099   3.723   2.031 -0.2825  1.1002  0.1327
  814MOL0     C 9766   5.160   3.831   2.118  0.4026  0.7838 -0.0768
  814MOL0     C 9767   5.293   3.787   2.181 -0.8302 -0.6620 -0.5636
  814MOL0     C 9768   5.374   3.900   2.233 -0.3966 -0.3701  0.1140
  814MOL0     C 9769   5.493   3.847   2.305 -0.9821 -0.6933  0.2901
  814MOL0     C 9770   5.582   3.945   2.388  0.6651  0.2655  0.4008
  814MOL0     C 9771   5.721   3.886   2.413 -0.1325 -0.0113 -0.2162
  814MOL0     N 9772   5.804   3.948   2.508 -0.9183 -0.0829 -0.5376
  814MOL0     C 9773   5.891   4.051   2.486  0.3404  0.2626  0.5844
  814MOL0     C 9774   5.920   4.089   2.617 -0.2375 -0.3548 -0.4544
  814MOL0     C 9775   6.004   4.198   2.668  0.3953  0.0105  0.3583
  814MOL0     C 9776   6.136   4.218   2.594 -0.6584  0.2864 -0.5411
  814MOL0     C 9777   6.247   4.115   2.626  0.2523 -0.3244  0.3070
  814MOL0     C 9778   6.358   4.142   2.526  0.3745 -0.1146 -0.5361
  814MOL0     O 9779   6.465   4.046   2.543  0.7706  0.2222  0.4154
  814MOL0     C 9780   6.593   4.079   2.501  1.2533 -0.6337 -0.1733
  814MOL0     C 9781   6.694   4.012   2.557 -0.7374  0.0217 -0.7845
  814MOL0     C 9782   6.828   4.035   2.509 -0.6008  0.2489  0.0169
  814MOL0     C 9783   6.847   4.134   2.414  0.4404  0.1453 -0.1319
  814MOL0     C 9784   6.985   4.174   2.387  0.2676  1.2492 -0.7249
  814MOL0     O 9785   7.074   4.075   2.415 -0.2620 -0.0058 -0.3625
  814MOL0     C 9786   7.210   4.083   2.417 -0.7214  0.4609 -0.2892
  814MOL0     C 9787   7.282   3.961   2.424  0.6612 -0.3615  0.1974
  814MOL0     C 9788   7.426   3.949   2.424  0.6544 -1.2961 -0.5285
  814MOL0     C 9789   7.497   4.074   2.422 -0.6878  0.3436 -0.4437
  814MOL0     O 9790   7.636   4.084   2.422  0.3604 -0.1062  0.0564
  814MOL0     C 9791   7.717   3.963   2.452  0.3073  0.4008  0.4805
  814MOL0     C 9792   7.863   3.989   2.450 -0.6972  0.6743  0.9207
  814MOL0     C 9793   7.949   3.864   2.419 -0.8831 -0.2921  0.1691
  814MOL0     C 9794   8.061   3.855   2.529  0.5451  0.7738 -0.0444
  814MOL0     C 9795   8.133   3.712   2.536  0.1348  0.2117 -0.6931
  814MOL0     C 9796   8.192   3.658   2.405 -0.3168 -0.0743 -0.7239
  814MOL0     C 9797   8.293   3.761   2.356  0.0856 -0.7089  0.1954
  814MOL0     C 9798   8.414   3.778   2.450  0.3458  0.2510 -0.1351
  814MOL0    Cl 9799   8.561   3.824   2.364 -0.0764 -0.3017  0.4348
  814MOL0     C 9800   7.434   4.199   2.437  0.0896  0.1069  0.2915
  814MOL0     C 9801   7.287   4.204   2.438 -0.2302 -1.0228  0.4072
  814MOL0     O 9802   7.013   4.280   2.335  0.4538  0.1243  0.5000
  814MOL0     C 9803   6.734   4.186   2.342 -0.2542  1.2054 -0.1081
  814MOL0     C 9804   6.605   4.157   2.387  0.7774  1.0630 -0.4397
  814MOL0     N 9805   5.865   3.997   2.703  0.3541  0.2417 -0.1665
  814MOL0     N 9806   5.801   3.911   2.640  0.2856  0.0694  0.7830
  814MOL0     C 9807   4.669   3.794   1.915  0.3955  0.7628 -0.1075
  814MOL0     C 9808   4.535   3.788   1.876  0.2255 -0.0771 -0.3889
  814MOL0     C 9809   4.128   3.644   1.741  1.1810  0.1162 -0.1465
  814MOL0     C 9810   4.109   3.719   1.622 -0.4438  0.1192  0.9179
  814MOL0     C 9811   3.986   3.724   1.550  0.8232 -0.3279  0.3685
  814MOL0     C 9812   3.861   3.677   1.614 -0.6513  0.4846 -0.5635
  814MOL0     O 9813   3.742   3.682   1.546 -0.5576  0.2098  0.0886
  814MOL0     C 9814   3.623   3.679   1.624  0.3158 -0.0990  0.1906
  814MOL0     C 9815   3.539   3.544   1.590  0.8922 -0.6119 -0.0758
  814MOL0     C 9816   3.613   3.414   1.623  0.1234 -0.2142  0.0986
  814MOL0     C 9817   3.532   3.296   1.579  1.0689 -0.0130  0.3163
  814MOL0     C 9818   3.559   3.282   1.431 -0.8843 -1.3016  0.2488
  814MOL0     C 9819   3.602   3.269   1.316 -0.7938 -0.1594 -0.2761
  814MOL0     C 9820   3.886   3.606   1.732 -0.2521 -0.2314 -0.3266
  814MOL0     C 9821   4.010   3.584   1.789  0.6933  0.1728 -0.6585
  814MOL0     C 9822   4.015   3.504   1.918  0.0579  0.1128  0.0127
  814MOL0     H 9823   4.516   3.534   1.670 -0.6860  1.4938 -2.8772
  814MOL0     H 9824   4.753   3.510   1.749 -0.8509 -1.2489  0.4825
  814MOL0     H 9825   4.964   3.870   1.936  1.7716  0.4154 -0.6124
  814MOL0     H 9826   4.909   3.808   2.078  0.8828  0.8787  1.0455
  814MOL0     H 9827   5.170   3.709   1.948  0.5688 -0.8625  1.1301
  814MOL0     H 9828   5.096   3.629   2.086  1.1044  0.4609 -0.8124
  814MOL0     H 9829   5.084   3.842   2.196 -2.8783 -2.1123 -2.5421
  814MOL0     H 9830   5.173   3.922   2.059 -1.4133  0.7520 -0.5800
  814MOL0     H 9831   5.276   3.708   2.255  0.6851  0.1429  0.6744
  814MOL0     H 9832   5.356   3.749   2.100 -3.6658 -0.6433 -2.9586
  814MOL0     H 9833   5.400   3.965   2.149  0.7970 -0.0921  0.6758
  814MOL0     H 9834   5.310   3.946   2.310  1.8465  0.4597  1.5872
  814MOL0     H 9835   5.468   3.763   2.370  0.8075 -0.2806  1.5952
  814MOL0     H 9836   5.552   3.810   2.220 -0.5429  0.2470  0.1779
  814MOL0     H 9837   5.529   3.970   2.480 -0.4110  2.7283 -0.8040
  814MOL0     H 9838   5.587   4.041   2.336  0.9214  0.8122  1.4146
  814MOL0     H 9839   5.710   3.782   2.445  0.5194 -0.8495 -2.5246
  814MOL0     H 9840   5.779   3.877   2.322 -1.0422 -2.0867 -0.6416
  814MOL0     H 9841   5.908   4.118   2.402  1.3813  0.9966  1.3409
  814MOL0     H 9842   5.948   4.292   2.662 -0.0232 -0.2588 -0.0747
  814MOL0     H 9843   6.015   4.182   2.776 -2.2812  1.7201  0.9869
  814MOL0     H 9844   6.106   4.209   2.489 -2.6040  0.3871 -0.0324
  814MOL0     H 9845   6.171   4.316   2.627  0.5294  0.2161 -1.5165
  814MOL0     H 9846   6.206   4.013   2.616 -1.8401  0.5282 -0.4413
  814MOL0     H 9847   6.302   4.129   2.719  1.0914  0.5973 -0.3121
  814MOL0     H 9848   6.389   4.246   2.539  1.8989 -0.7716  1.6461
  814MOL0     H 9849   6.311   4.140   2.427 -0.5192  2.2037 -0.2385
  814MOL0     H 9850   6.687   3.960   2.652  0.4615  1.5828  0.1908
  814MOL0     H 9851   6.909   3.984   2.561  0.6861  1.7947 -0.3877
  814MOL0     H 9852   7.238   3.863   2.427 -0.5502  0.1675  0.1482
  814MOL0     H 9853   7.479   3.855   2.426  4.9486  0.7545 -3.2060
  814MOL0     H 9854   7.701   3.915   2.549  1.8910  0.3077  0.7231
  814MOL0     H 9855   7.704   3.885   2.376  1.1516  0.7883 -0.0749
  814MOL0     H 9856   7.889   4.063   2.373  0.1092  1.7942  2.2277
  814MOL0     H 9857   7.888   4.042   2.542  1.0799  0.2343  0.7319
  814MOL0     H 9858   7.890   3.774   2.404 -1.3621 -0.0470  0.5453
  814MOL0     H 9859   8.005   3.890   2.329  1.6708 -0.8461  1.4764
  814MOL0     H 9860   8.021   3.885   2.626 -0.8711 -0.7946 -0.1014
  814MOL0     H 9861   8.143   3.926   2.518 -0.0454  2.0045  2.7236
  814MOL0     H 9862   8.062   3.636   2.570  2.0503 -2.1124 -1.6579
  814MOL0     H 9863   8.205   3.715   2.618 -1.9524 -0.4304  1.2580
  814MOL0     H 9864   8.250   3.569   2.432 -0.9329 -0.2470  0.0538
  814MOL0     H 9865   8.116   3.633   2.331 -1.6224 -2.7407  1.3592
  814MOL0     H 9866   8.246   3.858   2.339 -1.1438 -1.3551 -0.1854
  814MOL0     H 9867   8.332   3.734   2.257  1.8109  1.1402  0.3150
  814MOL0     H 9868   8.380   3.847   2.528  0.6341 -3.3628  3.5323
  814MOL0     H 9869   8.435   3.680   2.494  0.9492 -1.3336 -3.6513
  814MOL0     H 9870   7.492   4.285   2.469 -0.4252  0.6421 -0.1886
  814MOL0     H 9871   7.239   4.300   2.458  1.1797  0.3686 -2.3244
  814MOL0     H 9872   6.752   4.259   2.263 -0.4922  0.3535 -0.9655
  814MOL0     H 9873   6.531   4.218   2.336  1.2687  0.6327 -1.7185
  814MOL0     H 9874   4.699   3.864   1.993  1.7274  0.1374 -0.0307
  814MOL0     H 9875   4.465   3.858   1.922  0.2897 -0.5453  0.4554
  814MOL0     H 9876   4.194   3.775   1.584  1.3676 -3.4757 -0.8350
  814MOL0     H 9877   3.977   3.778   1.456  2.2304 -0.9065 -0.1322
  814MOL0     H 9878   3.558   3.761   1.590  1.3425  0.5825 -0.1869
  814MOL0     H 9879   3.640   3.686   1.731  2.5887 -2.6599  0.1064
  814MOL0     H 9880   3.510   3.537   1.485  1.6937  0.0762 -0.3552
  814MOL0     H 9881   3.444   3.549   1.644  0.3899  1.3936 -1.0460
  814MOL0     H 9882   3.629   3.405   1.731  0.3918  0.5264  0.1248
  814MOL0     H 9883   3.714   3.403   1.584  0.0204 -0.0919 -0.2021
  814MOL0     H 9884   3.557   3.211   1.642  0.2787 -1.1704 -0.8717
  814MOL0     H 9885   3.423   3.302   1.585  0.8979  0.8370 -2.2672
  814MOL0     H 9886   3.658   3.273   1.225 -0.2237 -0.6048  0.0513
  814MOL0     H 9887   3.802   3.557   1.780  1.2753 -2.3685  0.3444
  814MOL0     H 9888   4.044   3.404   1.882 -0.7435  0.2934 -1.2063
  814MOL0     H 9889   4.091   3.543   1.986 -1.0643  0.3599  1.1435
  814MOL0     H 9890   3.923   3.495   1.976 -0.7424 -1.4707 -1.3877
  815MOL0     O 9891   5.026   0.630   6.782 -0.2059 -0.0263  0.5688
  815MOL0     C 9892   4.998   0.512   6.751  0.2001  0.0177  0.1192
  815MOL0     O 9893   5.069   0.398   6.809  0.7308 -0.6840  0.7539
  815MOL0     C 9894   5.188   0.417   6.864 -1.0330  1.1666 -0.2172
  815MOL0     C 9895   5.205   0.508   6.960  0.3480  0.3441  0.0063
  815MOL0     C 9896   5.331   0.530   7.008 -1.5240  0.2604  0.0351
  815MOL0     C 9897   5.441   0.466   6.950  0.9044  0.1716  0.6622
  815MOL0     O 9898   5.569   0.497   6.990  0.7080  0.0706 -0.2324
  815MOL0     C 9899   5.595   0.516   7.127 -1.0783  0.0061 -0.1443
  815MOL0     C 9900   5.742   0.568   7.129  0.1321  0.3349  0.3696
  815MOL0     C 9901   5.840   0.450   7.103  0.2310 -0.1665  0.2735
  815MOL0     C 9902   5.853   0.358   7.220 -0.6232 -0.9150 -0.2717
  815MOL0     C 9903   5.966   0.254   7.187  0.2896  0.2311 -0.1992
  815MOL0     C 9904   5.971   0.155   7.304 -0.1466  0.4379  0.3092
  815MOL0     C 9905   6.070   0.037   7.273  0.3910 -0.2480  0.3836
  815MOL0     C 9906   6.215   0.080   7.283 -0.0568 -0.6981 -0.7214
  815MOL0     N 9907   6.262   0.060   7.421 -0.2097  0.5680  0.1665
  815MOL0     C 9908   6.326  -0.055   7.471 -0.1884 -0.5122  0.9503
  815MOL0     C 9909   6.358  -0.028   7.593  0.6738 -0.4665  0.1886
  815MOL0     C 9910   6.451  -0.112   7.689 -0.3359 -0.2856 -0.3189
  815MOL0     C 9911   6.592  -0.097   7.643 -0.5556 -0.0447 -0.1399
  815MOL0     C 9912   6.680   0.010   7.713 -0.1251  0.8343  0.2465
  815MOL0     C 9913   6.806  -0.047   7.783 -0.3091 -0.0471 -0.1499
  815MOL0     O 9914   6.883  -0.140   7.707 -0.9392  0.2569  0.1778
  815MOL0     C 9915   6.989  -0.191   7.775  0.3318  0.9271 -0.0086
  815MOL0     C 9916   7.078  -0.118   7.853 -0.1952 -0.0862 -1.0491
  815MOL0     C 9917   7.191  -0.176   7.910 -1.2368 -0.2613 -0.5677
  815MOL0     C 9918   7.230  -0.310   7.883 -0.2138 -0.6518 -0.1649
  815MOL0     C 9919   7.360  -0.369   7.921 -0.0859 -0.2863  0.3262
  815MOL0     O 9920   7.439  -0.279   7.999 -0.0737 -1.3550 -0.3066
  815MOL0     C 9921   7.565  -0.315   8.045 -0.0859  0.5616 -0.4948
  815MOL0     C 9922   7.565  -0.429   8.130 -0.3330 -0.7300  0.7602
  815MOL0     C 9923   7.677  -0.478   8.205  0.6957 -1.1981  1.0005
  815MOL0     C 9924   7.799  -0.407   8.181 -0.0291 -0.1641 -0.0893
  815MOL0     O 9925   7.923  -0.432   8.233  0.1768  0.5356 -0.6380
  815MOL0     C 9926   7.933  -0.526   8.339  0.6790 -0.1506 -0.9684
  815MOL0     C 9927   8.056  -0.490   8.408  0.3216 -0.4541 -0.5882
  815MOL0     C 9928   8.106  -0.621   8.472  0.4573 -0.0797  1.0713
  815MOL0     C 9929   8.233  -0.607   8.562  0.1151 -0.1207 -0.1736
  815MOL0     C 9930   8.266  -0.729   8.649 -0.4104  0.2031 -0.3645
  815MOL0     C 9931   8.399  -0.714   8.724 -0.3460 -0.5176  0.1558
  815MOL0     C 9932   8.521  -0.740   8.635 -0.1649 -0.1260  0.1974
  815MOL0     C 9933   8.652  -0.756   8.715 -0.6213 -0.2524 -0.9361
  815MOL0    Cl 9934   8.687  -0.594   8.794 -0.2519  0.2318 -0.3431
  815MOL0     C 9935   7.798  -0.298   8.094 -0.5170 -0.4559  0.3604
  815MOL0     C 9936   7.693  -0.248   8.026 -0.3149  0.1198  0.0481
  815MOL0     O 9937   7.391  -0.485   7.890  0.4229  0.5819  0.4359
  815MOL0     C 9938   7.146  -0.382   7.793 -0.1938  0.0572 -0.1098
  815MOL0     C 9939   7.045  -0.316   7.729 -0.1726  0.1294 -0.4915
  815MOL0     N 9940   6.313   0.097   7.620  1.2882  1.2851  0.0071
  815MOL0     N 9941   6.251   0.148   7.518  0.2918 -0.6594 -0.2032
  815MOL0     C 9942   5.425   0.370   6.845 -0.3148 -0.9209 -1.0783
  815MOL0     C 9943   5.295   0.343   6.816  0.7845 -0.6288 -0.1452
  815MOL0     C 9944   4.872   0.487   6.676 -0.8928 -0.0319 -0.7633
  815MOL0     C 9945   4.829   0.355   6.658  0.3651 -0.6455  0.5388
  815MOL0     C 9946   4.709   0.332   6.583 -0.2696 -0.2140 -0.3974
  815MOL0     C 9947   4.629   0.434   6.528 -0.0768  0.8090  0.7789
  815MOL0     O 9948   4.511   0.407   6.461 -0.1820  0.5260 -0.3351
  815MOL0     C 9949   4.446   0.284   6.479 -0.1987  0.0098  0.1493
  815MOL0     C 9950   4.306   0.298   6.418 -0.1697 -0.2981  0.0811
  815MOL0     C 9951   4.217   0.175   6.461 -0.5762  0.6060 -0.1073
  815MOL0     C 9952   4.081   0.179   6.392  0.2908  0.0020  0.7892
  815MOL0     C 9953   4.006   0.053   6.425  0.5107 -0.0929  0.4985
  815MOL0     C 9954   3.969  -0.056   6.467  0.4210  0.1793 -0.2063
  815MOL0     C 9955   4.679   0.566   6.538  0.5190  0.2785 -0.1759
  815MOL0     C 9956   4.797   0.588   6.609 -0.6369  0.3560 -0.5774
  815MOL0     C 9957   4.838   0.740   6.615  0.0115  1.6253  1.1580
  815MOL0     H 9958   5.121   0.567   6.995 -0.7094 -0.4508 -1.0937
  815MOL0     H 9959   5.340   0.595   7.095 -2.8647  0.3173  0.1493
  815MOL0     H 9960   5.539   0.584   7.192  0.9084  0.5716  1.0795
  815MOL0     H 9961   5.582   0.420   7.178 -3.2475  0.0319 -0.5531
  815MOL0     H 9962   5.769   0.614   7.224  2.3814  1.7480 -0.8578
  815MOL0     H 9963   5.742   0.651   7.057 -1.4475  0.7266  0.7827
  815MOL0     H 9964   5.940   0.494   7.092 -0.6406  2.1804  1.1809
  815MOL0     H 9965   5.819   0.388   7.015  0.0397 -1.0950  0.9502
  815MOL0     H 9966   5.876   0.419   7.308 -1.4815  1.4704 -1.5956
  815MOL0     H 9967   5.764   0.304   7.255 -1.1924 -0.4122 -0.8989
  815MOL0     H 9968   5.944   0.199   7.096  0.0186 -1.3146  0.7559
  815MOL0     H 9969   6.058   0.311   7.174 -1.6778  3.6515 -0.2827
  815MOL0     H 9970   6.009   0.213   7.389  1.1391 -0.9655  0.7279
  815MOL0     H 9971   5.872   0.114   7.323 -0.5826 -0.1460 -2.7205
  815MOL0     H 9972   6.045   0.012   7.169 -1.2445  3.3792 -0.2816
  815MOL0     H 9973   6.054  -0.055   7.330 -0.9540 -2.1905 -2.8607
  815MOL0     H 9974   6.286   0.027   7.218  1.2042  1.9506 -1.6250
  815MOL0     H 9975   6.226   0.187   7.268  2.9094 -0.6953  0.7464
  815MOL0     H 9976   6.365  -0.134   7.406  0.3278 -1.6866  2.6142
  815MOL0     H 9977   6.438  -0.090   7.795  1.8778 -2.6405  0.5666
  815MOL0     H 9978   6.417  -0.216   7.683  1.3151 -0.8217 -1.1892
  815MOL0     H 9979   6.640  -0.193   7.662  0.1649  0.1820 -0.7630
  815MOL0     H 9980   6.604  -0.091   7.535  0.7448 -1.1156 -0.0784
  815MOL0     H 9981   6.630   0.063   7.794 -0.9983  2.9342 -1.5704
  815MOL0     H 9982   6.707   0.088   7.641 -0.0067 -0.6509 -1.3824
  815MOL0     H 9983   6.774  -0.092   7.877 -1.1744 -0.1101 -0.4566
  815MOL0     H 9984   6.862   0.043   7.808  0.0375 -0.0859 -0.7692
  815MOL0     H 9985   7.059  -0.015   7.880  1.4733 -0.1344  0.5360
  815MOL0     H 9986   7.249  -0.116   7.979 -0.8480 -0.0818 -1.0464
  815MOL0     H 9987   7.489  -0.506   8.126 -0.6251 -0.4190 -2.3756
  815MOL0     H 9988   7.673  -0.575   8.255 -1.7016 -2.1298 -0.8231
  815MOL0     H 9989   7.855  -0.533   8.414  0.6711 -0.4589 -1.0075
  815MOL0     H 9990   7.943  -0.624   8.293 -0.1939 -0.7654  0.1164
  815MOL0     H 9991   8.131  -0.449   8.340  0.9141  1.0232  0.8974
  815MOL0     H 9992   8.039  -0.407   8.476  0.6384 -1.1278  0.3413
  815MOL0     H 9993   8.029  -0.666   8.536 -0.1003 -0.2739  0.2698
  815MOL0     H 9994   8.118  -0.697   8.394 -1.4025 -1.0181  1.6239
  815MOL0     H 9995   8.213  -0.525   8.633  1.4980 -0.8812  1.1431
  815MOL0     H 9996   8.322  -0.573   8.508  2.9147 -3.2809  2.1093
  815MOL0     H 9997   8.288  -0.818   8.589 -0.2444 -0.1077  0.1539
  815MOL0     H 9998   8.186  -0.755   8.718  1.2812 -2.5465  0.7429
  815MOL0     H 9999   8.416  -0.614   8.766  2.5187 -0.8944  0.1433
  815MOL0     H10000   8.408  -0.779   8.812  3.5095  0.6035  0.7818
  815MOL0     H10001   8.522  -0.657   8.564 -0.7279  1.6859  2.1970
  815MOL0     H10002   8.502  -0.832   8.578 -0.9305  1.4592 -2.2566
  815MOL0     H10003   8.661  -0.831   8.795  1.3454  1.1945  0.2935
  815MOL0     H10004   8.721  -0.792   8.639 -3.1291 -1.8620 -2.6048
  815MOL0     H10005   7.885  -0.236   8.074 -2.3043  2.5161  1.1311
  815MOL0     H10006   7.702  -0.175   7.947 -1.1485 -1.1510 -1.2674
  815MOL0     H10007   7.173  -0.477   7.749 -2.1731 -0.5729 -0.0520
  815MOL0     H10008   6.989  -0.364   7.649  1.1452 -1.3667 -0.5675
  815MOL0     H10009   5.521   0.342   6.803  0.3257 -1.7375  0.8071
  815MOL0     H10010   5.280   0.266   6.741  3.0777 -1.2345 -0.0493
  815MOL0     H10011   4.896   0.272   6.681  3.8966  1.6494 -0.5756
  815MOL0     H10012   4.661   0.235   6.590 -1.5369  0.5098  1.6119
  815MOL0     H10013   4.433   0.265   6.586 -0.5784 -1.4822 -0.1448
  815MOL0     H10014   4.498   0.196   6.440 -2.3819 -2.2248  1.9179
  815MOL0     H10015   4.327   0.305   6.311  1.1507  1.4487  0.4133
  815MOL0     H10016   4.271   0.400   6.435 -0.0509  0.6384 -4.0969
  815MOL0     H10017   4.194   0.192   6.567 -0.0967  0.9386 -0.0580
  815MOL0     H10018   4.275   0.082   6.454 -2.2056 -0.4359 -0.3669
  815MOL0     H10019   4.025   0.268   6.420  2.1763  2.0856 -1.5337
  815MOL0     H10020   4.086   0.192   6.284 -4.0798 -0.0287  0.4249
  815MOL0     H10021   3.923  -0.143   6.510 -0.1487 -0.0618 -1.2812
  815MOL0     H10022   4.624   0.649   6.494 -0.8871 -0.8186 -0.5575
  815MOL0     H10023   4.772   0.798   6.549  0.4248 -0.2956 -1.0688
  815MOL0     H10024   4.822   0.785   6.713  0.0495  3.9617  0.1494
  815MOL0     H10025   4.943   0.752   6.588 -0.3346  1.6772 -0.2757
  816MOL0     O10026  10.440   0.855   0.348  0.4085  0.0580 -0.7384
  816MOL0     C10027  10.385   0.948   0.290 -0.0958 -0.0838  0.1110
  816MOL0     O10028  10.441   1.038   0.206  0.4964 -0.0926 -0.5192
  816MOL0     C10029  10.574   1.049   0.201  0.0470 -0.0118 -0.7767
  816MOL0     C10030  10.662   1.065   0.306 -0.0127  0.1575 -0.5180
  816MOL0     C10031  10.799   1.097   0.284  0.3938 -0.2563 -0.1504
  816MOL0     C10032  10.852   1.114   0.158  0.1931  0.7138  0.7967
  816MOL0     O10033  10.982   1.152   0.139 -0.5615 -0.1395  0.2507
  816MOL0     C10034  11.077   1.065   0.080 -0.5870 -0.7463 -0.7458
  816MOL0     C10035  11.096   0.934   0.157  0.3298  0.1484 -0.3925
  816MOL0     C10036  11.172   0.948   0.291 -0.0294 -0.1132 -0.3889
  816MOL0     C10037  11.187   0.811   0.356 -0.5719  0.5633 -0.1346
  816MOL0     C10038  11.061   0.732   0.407  0.6626 -0.4828 -0.3847
  816MOL0     C10039  11.004   0.806   0.520  0.4202  0.2996 -0.5799
  816MOL0     C10040  10.869   0.727   0.569 -1.4161  0.7546  0.3747
  816MOL0     C10041  10.732   0.762   0.517 -1.1980  0.8613  0.0408
  816MOL0     N10042  10.681   0.638   0.452 -0.4570  0.1238  0.2527
  816MOL0     C10043  10.668   0.611   0.319 -0.1111 -0.1647 -0.0393
  816MOL0     C10044  10.604   0.497   0.309 -0.0503 -0.7038  0.5840
  816MOL0     C10045  10.536   0.449   0.182  0.3138 -0.9372  0.5172
  816MOL0     C10046  10.534   0.302   0.149 -0.6524 -0.1268 -0.8584
  816MOL0     C10047  10.423   0.225   0.233  0.5156 -0.4257 -0.5896
  816MOL0     C10048  10.477   0.099   0.294 -0.9411 -0.5785  0.1149
  816MOL0     O10049  10.513   0.010   0.191  0.3448 -0.1291 -0.3513
  816MOL0     C10050  10.601  -0.094   0.228  0.2801 -0.0127  0.7484
  816MOL0     C10051  10.745  -0.071   0.224  0.0916  0.7357 -0.7363
  816MOL0     C10052  10.834  -0.168   0.250 -0.1519  0.0788 -0.5691
  816MOL0     C10053  10.789  -0.290   0.294  0.0241  0.4005  0.5532
  816MOL0     C10054  10.887  -0.391   0.327  0.2293  0.4685 -0.1396
  816MOL0     O10055  11.015  -0.368   0.283  0.3567 -0.3667 -0.8738
  816MOL0     C10056  11.124  -0.441   0.327  0.4664  0.1185  0.2731
  816MOL0     C10057  11.191  -0.414   0.446 -0.6058  0.1667 -0.1054
  816MOL0     C10058  11.313  -0.470   0.478 -0.8150  0.6816 -0.5048
  816MOL0     C10059  11.368  -0.564   0.400 -0.5232  1.0167  0.6950
  816MOL0     O10060  11.495  -0.623   0.420 -0.2156  0.4962  1.1380
  816MOL0     C10061  11.566  -0.589   0.537  0.0095  0.1498  0.5914
  816MOL0     C10062  11.696  -0.669   0.520 -0.2408  0.1750 -0.0548
  816MOL0     C10063  11.796  -0.651   0.637  0.6586 -1.4341 -0.2151
  816MOL0     C10064  11.939  -0.671   0.596 -0.3498  0.6202  0.1182
  816MOL0     C10065  12.024  -0.683   0.722  0.5555  0.0875  0.2189
  816MOL0     C10066  12.159  -0.700   0.670  0.1372 -0.5862 -0.6666
  816MOL0     C10067  12.257  -0.721   0.786  0.2705  0.5044 -0.1901
  816MOL0     C10068  12.394  -0.750   0.744  0.0174 -0.4954 -0.3546
  816MOL0    Cl10069  12.415  -0.915   0.689  0.3919  0.2684  0.1924
  816MOL0     C10070  11.300  -0.606   0.281  0.4175  0.2950  0.4026
  816MOL0     C10071  11.182  -0.535   0.245 -0.0953 -0.0751  0.3259
  816MOL0     O10072  10.859  -0.473   0.414  0.2935  0.4141  0.4295
  816MOL0     C10073  10.651  -0.319   0.301  0.6132 -0.9281  0.5406
  816MOL0     C10074  10.551  -0.225   0.265  0.0099 -0.2874  1.0619
  816MOL0     N10075  10.587   0.446   0.435  0.1134  0.0260  0.4671
  816MOL0     N10076  10.629   0.537   0.516 -0.3127  0.9300 -0.1095
  816MOL0     C10077  10.756   1.104   0.048  0.1647  0.3508 -0.0915
  816MOL0     C10078  10.622   1.068   0.072 -0.2563 -0.1114 -0.1049
  816MOL0     C10079  10.247   0.982   0.322 -0.5700 -0.6073  0.0298
  816MOL0     C10080  10.208   1.116   0.334  0.7794 -0.0358  0.5796
  816MOL0     C10081  10.083   1.151   0.394 -0.1011 -0.1428  0.2878
  816MOL0     C10082   9.985   1.053   0.417  0.1973 -0.0801  0.2656
  816MOL0     O10083   9.863   1.073   0.467 -0.4383  0.5179 -0.3686
  816MOL0     C10084   9.815   1.198   0.509 -0.4973 -0.0798  0.3643
  816MOL0     C10085   9.675   1.179   0.524 -1.0623 -0.5270 -0.1167
  816MOL0     C10086   9.606   1.307   0.581 -0.6761  0.5998 -0.5852
  816MOL0     C10087   9.462   1.299   0.589  1.0999  0.1573  0.0418
  816MOL0     C10088   9.417   1.203   0.695  0.1206  0.8146 -0.6139
  816MOL0     C10089   9.361   1.126   0.778 -1.7328 -0.0847  0.9502
  816MOL0     C10090  10.022   0.921   0.395  1.0251 -0.5173  1.2071
  816MOL0     C10091  10.149   0.884   0.358 -0.1199 -0.2349  0.1898
  816MOL0     C10092  10.171   0.739   0.352  0.4171 -0.2526 -0.6448
  816MOL0     H10093  10.613   1.060   0.403  0.8810 -1.3424 -0.1085
  816MOL0     H10094  10.865   1.128   0.364  1.1656  0.3913 -1.0171
  816MOL0     H10095  11.033   1.032  -0.015 -2.3858  1.5157 -0.8028
  816MOL0     H10096  11.173   1.109   0.051 -0.5769 -1.0076 -1.1149
  816MOL0     H10097  11.156   0.863   0.100  0.5583 -0.2276  0.2979
  816MOL0     H10098  10.999   0.885   0.166 -0.1949  1.2285  0.0430
  816MOL0     H10099  11.123   1.007   0.369 -0.7577 -4.1388  2.5340
  816MOL0     H10100  11.270   0.993   0.273  0.7452  0.5088  4.0802
  816MOL0     H10101  11.244   0.748   0.287  0.3029  2.1037 -0.8688
  816MOL0     H10102  11.255   0.833   0.439  1.8177 -1.3368 -1.4531
  816MOL0     H10103  10.992   0.730   0.322  2.9694 -0.4310 -2.3996
  816MOL0     H10104  11.092   0.631   0.433 -0.0909 -0.8412 -0.8386
  816MOL0     H10105  11.077   0.803   0.602  0.0453  2.6803 -0.0801
  816MOL0     H10106  10.979   0.911   0.501 -0.2692  0.0639 -1.0301
  816MOL0     H10107  10.863   0.749   0.676 -3.5318  0.7838  0.2913
  816MOL0     H10108  10.893   0.622   0.554  0.4701  0.9389  1.7863
  816MOL0     H10109  10.673   0.789   0.605 -0.4601  0.0344  0.8014
  816MOL0     H10110  10.731   0.841   0.441  0.4975 -0.1682 -1.1143
  816MOL0     H10111  10.682   0.669   0.229 -1.4281  0.0311 -0.1398
  816MOL0     H10112  10.437   0.487   0.205  1.1029  1.6183 -0.0558
  816MOL0     H10113  10.563   0.510   0.095  2.0890  1.2349  2.4663
  816MOL0     H10114  10.503   0.290   0.045 -1.6788 -3.6344 -0.2674
  816MOL0     H10115  10.639   0.274   0.166 -1.2371 -0.0722  4.4653
  816MOL0     H10116  10.336   0.190   0.177  0.1957  1.2537 -1.2076
  816MOL0     H10117  10.380   0.293   0.307  0.1002 -1.2417 -0.0740
  816MOL0     H10118  10.411   0.067   0.375  0.0792  0.4712  1.4385
  816MOL0     H10119  10.574   0.128   0.336 -0.9086 -1.7344  0.8683
  816MOL0     H10120  10.769   0.031   0.197 -0.0982  1.7729  2.5423
  816MOL0     H10121  10.940  -0.146   0.242 -0.2467  1.7624  1.6196
  816MOL0     H10122  11.152  -0.344   0.520  1.5825  3.3284 -1.6947
  816MOL0     H10123  11.361  -0.433   0.568 -1.3764  0.5008 -0.1317
  816MOL0     H10124  11.588  -0.482   0.541  0.3772  0.3772 -3.2825
  816MOL0     H10125  11.510  -0.618   0.626  0.2316 -0.5099  0.5205
  816MOL0     H10126  11.663  -0.773   0.521 -1.8586  0.6154 -1.7246
  816MOL0     H10127  11.742  -0.654   0.422 -0.0812 -1.5142 -0.2700
  816MOL0     H10128  11.785  -0.548   0.672  0.7244 -1.1862 -0.8913
  816MOL0     H10129  11.769  -0.722   0.715 -2.0450  0.9398  1.1776
  816MOL0     H10130  11.977  -0.603   0.519 -0.3546 -0.2991 -0.7126
  816MOL0     H10131  11.945  -0.768   0.547 -0.6347 -0.3176  1.8444
  816MOL0     H10132  11.980  -0.765   0.780  0.1248  0.9768  1.1871
  816MOL0     H10133  12.010  -0.595   0.785 -3.3113 -1.4068  1.7974
  816MOL0     H10134  12.163  -0.791   0.610 -0.8257 -1.3917  0.4546
  816MOL0     H10135  12.177  -0.607   0.615 -2.7301  0.0731 -0.6279
  816MOL0     H10136  12.212  -0.792   0.856 -0.6775 -1.1205 -2.3432
  816MOL0     H10137  12.264  -0.625   0.839  1.0023  0.5522 -0.3743
  816MOL0     H10138  12.421  -0.683   0.662  2.1153  0.7046  1.1838
  816MOL0     H10139  12.459  -0.730   0.830  0.0822 -1.7997 -0.0740
  816MOL0     H10140  11.353  -0.679   0.221  2.9480 -0.0563  2.8351
  816MOL0     H10141  11.143  -0.555   0.146  2.3255  1.2394 -1.0020
  816MOL0     H10142  10.613  -0.413   0.339  1.8376 -1.2225  1.0883
  816MOL0     H10143  10.449  -0.259   0.251  0.2394  0.2898 -2.9585
  816MOL0     H10144  10.779   1.126  -0.056 -1.2494  0.8388 -0.3180
  816MOL0     H10145  10.550   1.064  -0.009  1.3382 -1.4730 -1.5201
  816MOL0     H10146  10.278   1.197   0.313 -1.0598  1.4017 -0.3590
  816MOL0     H10147  10.059   1.254   0.415 -2.6677 -0.0875 -2.3060
  816MOL0     H10148   9.831   1.268   0.426 -1.4573 -1.3908 -0.9714
  816MOL0     H10149   9.865   1.243   0.595 -1.0884 -0.1631  0.7587
  816MOL0     H10150   9.646   1.111   0.604 -1.9555  0.0764  0.0961
  816MOL0     H10151   9.631   1.148   0.428  0.9513 -2.5976 -0.4538
  816MOL0     H10152   9.619   1.386   0.508 -5.0065  1.1940 -0.9989
  816MOL0     H10153   9.651   1.322   0.680  0.3432 -2.0869 -0.5483
  816MOL0     H10154   9.425   1.399   0.614  1.9625 -0.0172  2.1694
  816MOL0     H10155   9.434   1.277   0.485 -0.9958  0.3593  0.5275
  816MOL0     H10156   9.328   1.073   0.865  1.2109 -1.9375  1.0819
  816MOL0     H10157   9.942   0.849   0.411  1.1615 -0.9420  0.0436
  816MOL0     H10158  10.213   0.707   0.256  0.8288  0.6402 -0.7649
  816MOL0     H10159  10.224   0.717   0.445  1.0662 -2.2571 -1.4234
  816MOL0     H10160  10.081   0.677   0.360  1.0940 -1.6030 -2.6264
  817MOL0     O10161   4.416   1.106   2.034 -0.6474 -0.1751  0.5438
  817MOL0     C10162   4.380   1.042   2.126  0.3559 -0.0811  0.6187
  817MOL0     O10163   4.300   1.091   2.222  0.3076 -0.5000  0.6935
  817MOL0     C10164   4.291   1.230   2.231 -0.2116  0.2541 -0.8993
  817MOL0     C10165   4.361   1.301   2.328 -0.1579 -0.3443 -0.3271
  817MOL0     C10166   4.358   1.446   2.322 -0.8220  0.3913 -0.0079
  817MOL0     C10167   4.276   1.519   2.231 -0.2133 -0.5504  0.5095
  817MOL0     O10168   4.239   1.652   2.225 -0.0070  0.1299  0.1041
  817MOL0     C10169   4.272   1.733   2.339  0.1621 -0.1063  0.2381
  817MOL0     C10170   4.207   1.875   2.335 -0.8732  0.2551  0.3189
  817MOL0     C10171   4.231   1.951   2.204  0.0905 -0.4845  0.7975
  817MOL0     C10172   4.157   2.086   2.194  0.0102  0.5061 -0.7245
  817MOL0     C10173   4.192   2.166   2.063 -0.8639  0.1551 -0.5777
  817MOL0     C10174   4.177   2.101   1.932 -0.5273 -0.0520  1.2849
  817MOL0     C10175   4.204   2.188   1.805  0.2460  0.2705  0.4918
  817MOL0     C10176   4.356   2.211   1.789 -0.3310 -0.0012 -0.2815
  817MOL0     N10177   4.388   2.308   1.683  0.5598 -0.0674  0.6554
  817MOL0     C10178   4.512   2.350   1.638  0.8496  0.7541 -0.0898
  817MOL0     C10179   4.500   2.472   1.581  0.3065 -0.0502 -0.4309
  817MOL0     C10180   4.611   2.560   1.525 -0.4894  0.2885  0.6949
  817MOL0     C10181   4.676   2.649   1.628 -0.2223 -0.0197  0.5776
  817MOL0     C10182   4.744   2.559   1.747  0.5531 -0.1489  0.0114
  817MOL0     C10183   4.828   2.639   1.857  0.1197 -0.3829 -0.6767
  817MOL0     O10184   4.936   2.707   1.799  0.0887 -0.5873 -1.9623
  817MOL0     C10185   5.061   2.654   1.803 -0.0648 -0.2298  0.1448
  817MOL0     C10186   5.146   2.687   1.698  0.0197 -0.6008 -0.0767
  817MOL0     C10187   5.277   2.645   1.692 -0.5178  0.9114 -0.9281
  817MOL0     C10188   5.333   2.547   1.782 -0.4440 -0.4391  0.6703
  817MOL0     C10189   5.468   2.496   1.762  1.4159  0.8282  0.0520
  817MOL0     O10190   5.555   2.572   1.687  0.6517 -0.2501  0.7698
  817MOL0     C10191   5.685   2.523   1.668  0.0394 -1.2918 -0.3835
  817MOL0     C10192   5.717   2.478   1.542 -0.0720  0.2493 -0.9315
  817MOL0     C10193   5.847   2.450   1.513 -0.1951  0.5130  1.1846
  817MOL0     C10194   5.949   2.452   1.612  0.2536  1.3827  1.0169
  817MOL0     O10195   6.068   2.404   1.573  0.6960  0.0961 -0.1418
  817MOL0     C10196   6.179   2.426   1.652  0.3828 -0.0953 -0.2430
  817MOL0     C10197   6.296   2.355   1.579  0.6072  0.4137 -0.8388
  817MOL0     C10198   6.427   2.342   1.656  0.0808 -0.1270  0.7901
  817MOL0     C10199   6.481   2.475   1.675 -0.3685  0.5293 -0.1573
  817MOL0     C10200   6.611   2.481   1.759  0.5572  1.5752  0.3670
  817MOL0     C10201   6.728   2.408   1.691  0.9511 -0.1654 -0.6938
  817MOL0     C10202   6.854   2.425   1.772 -0.4152  0.8281 -0.5029
  817MOL0     C10203   6.981   2.382   1.699 -0.6212 -0.8373 -0.4315
  817MOL0    Cl10204   6.943   2.230   1.600  0.3484  0.1002  0.3720
  817MOL0     C10205   5.908   2.484   1.750  0.3002  0.6556  0.8925
  817MOL0     C10206   5.780   2.521   1.781  1.1141 -0.1374  0.1308
  817MOL0     O10207   5.497   2.391   1.821 -0.0557  0.3276 -0.8342
  817MOL0     C10208   5.237   2.506   1.871 -0.1176  0.1862  0.5203
  817MOL0     C10209   5.111   2.554   1.890  1.1655  0.4481  1.4558
  817MOL0     N10210   4.362   2.503   1.588 -0.1079  0.4478  0.5199
  817MOL0     N10211   4.301   2.407   1.647 -0.3707 -0.0863  0.0635
  817MOL0     C10212   4.212   1.442   2.135 -0.5529  0.5468  0.0231
  817MOL0     C10213   4.218   1.300   2.140  0.3706 -0.7027  0.1473
  817MOL0     C10214   4.419   0.900   2.135  1.1288  0.3514  0.8536
  817MOL0     C10215   4.338   0.812   2.216  0.3417 -0.0777 -0.1067
  817MOL0     C10216   4.381   0.685   2.250 -0.4923  0.0627  0.1929
  817MOL0     C10217   4.507   0.641   2.220 -0.3357 -0.0518  0.6270
  817MOL0     O10218   4.531   0.512   2.256  0.4704  0.1875  0.7801
  817MOL0     C10219   4.664   0.496   2.303 -0.5646 -0.1720 -0.0905
  817MOL0     C10220   4.686   0.361   2.370 -0.0518 -0.4959  0.3720
  817MOL0     C10221   4.581   0.313   2.470 -0.5248  0.4294 -0.1557
  817MOL0     C10222   4.577   0.389   2.602 -0.2314 -0.7725  0.2570
  817MOL0     C10223   4.554   0.530   2.593  0.5731  0.9591  0.0492
  817MOL0     C10224   4.561   0.646   2.575  0.1352  0.1362 -0.5789
  817MOL0     C10225   4.585   0.724   2.139  0.0374  0.0948 -1.1249
  817MOL0     C10226   4.539   0.853   2.082 -1.1037  0.3117  0.6102
  817MOL0     C10227   4.626   0.908   1.983 -0.4970  0.2984 -0.2488
  817MOL0     H10228   4.420   1.260   2.409  1.8726  1.1833 -0.9304
  817MOL0     H10229   4.411   1.499   2.400  1.9321 -1.8956 -0.2126
  817MOL0     H10230   4.238   1.674   2.425 -0.0602  2.1346  1.7676
  817MOL0     H10231   4.381   1.743   2.345  0.2015  0.1642 -0.7832
  817MOL0     H10232   4.237   1.934   2.423  2.6710  0.2687 -0.7420
  817MOL0     H10233   4.099   1.864   2.347 -0.6706 -0.2915  1.9735
  817MOL0     H10234   4.194   1.889   2.122 -0.0014 -0.5781  0.9097
  817MOL0     H10235   4.339   1.970   2.194  0.0374  1.3459  2.9389
  817MOL0     H10236   4.049   2.084   2.212  0.0750 -1.6087 -0.3383
  817MOL0     H10237   4.208   2.147   2.269  2.9300 -0.8713 -1.4555
  817MOL0     H10238   4.155   2.268   2.065 -0.4846  0.2775  0.5650
  817MOL0     H10239   4.300   2.186   2.065 -1.2999  2.8292  0.5372
  817MOL0     H10240   4.238   2.011   1.926  0.3210  0.5471  0.5905
  817MOL0     H10241   4.073   2.068   1.925 -1.1958  1.6505  2.5344
  817MOL0     H10242   4.156   2.285   1.821 -0.4652 -0.1780  1.1400
  817MOL0     H10243   4.166   2.150   1.710  1.0649  1.7827 -0.4832
  817MOL0     H10244   4.396   2.243   1.886 -0.0728 -2.0899  0.3411
  817MOL0     H10245   4.393   2.115   1.755 -1.0525 -0.5179  0.3543
  817MOL0     H10246   4.609   2.300   1.638 -0.6343 -2.4484  2.1159
  817MOL0     H10247   4.685   2.496   1.476 -0.3857  1.2518 -0.4685
  817MOL0     H10248   4.564   2.624   1.449  1.0826 -1.3464 -1.8096
  817MOL0     H10249   4.753   2.714   1.583 -0.0716 -1.6809 -1.7715
  817MOL0     H10250   4.602   2.720   1.664 -0.2162  0.5965 -0.5781
  817MOL0     H10251   4.810   2.486   1.700  1.1391  0.3272  0.0788
  817MOL0     H10252   4.663   2.495   1.784 -1.6281  2.0073 -0.7702
  817MOL0     H10253   4.866   2.571   1.934  2.5458 -0.4805 -1.8610
  817MOL0     H10254   4.774   2.710   1.920  1.9504  0.4729  0.0015
  817MOL0     H10255   5.124   2.752   1.613  1.9919  0.1008 -0.0891
  817MOL0     H10256   5.349   2.670   1.615 -0.0168  1.4626 -0.2956
  817MOL0     H10257   5.635   2.454   1.474  1.1025 -1.7566 -1.7242
  817MOL0     H10258   5.863   2.430   1.408  0.3874  1.0725  1.1575
  817MOL0     H10259   6.210   2.531   1.656 -1.8538  0.6473 -0.8232
  817MOL0     H10260   6.177   2.380   1.751 -1.5526  0.8119  0.1960
  817MOL0     H10261   6.265   2.253   1.555  0.1059  0.4683 -0.4444
  817MOL0     H10262   6.312   2.413   1.487 -0.0494  1.4223 -0.3309
  817MOL0     H10263   6.402   2.299   1.753  0.4854 -0.7765  0.6073
  817MOL0     H10264   6.487   2.288   1.582  1.3644  5.4111 -2.8758
  817MOL0     H10265   6.421   2.553   1.722  0.6213  1.3114 -0.1659
  817MOL0     H10266   6.490   2.530   1.581 -0.1217  0.7163 -0.0256
  817MOL0     H10267   6.584   2.438   1.856 -2.3781  1.8252 -0.2263
  817MOL0     H10268   6.635   2.586   1.782  0.3754  2.0983 -1.6108
  817MOL0     H10269   6.711   2.302   1.670  2.9198 -0.6194 -0.2459
  817MOL0     H10270   6.739   2.453   1.592  1.8255 -3.3502 -2.1732
  817MOL0     H10271   6.840   2.354   1.854  2.9989 -0.5531 -0.9295
  817MOL0     H10272   6.870   2.526   1.810 -2.6015  2.0587 -2.5890
  817MOL0     H10273   7.009   2.463   1.631 -5.5581  1.3183 -0.3475
  817MOL0     H10274   7.055   2.361   1.776 -1.5206 -0.4028  0.5815
  817MOL0     H10275   5.986   2.491   1.825 -0.1770  1.0013  1.3670
  817MOL0     H10276   5.755   2.547   1.884  2.4539 -0.0945  0.4626
  817MOL0     H10277   5.264   2.417   1.926 -0.6213 -1.5633 -1.8793
  817MOL0     H10278   5.059   2.502   1.970  3.0183  1.9749  3.8100
  817MOL0     H10279   4.131   1.488   2.079 -1.4244 -1.0785 -0.0962
  817MOL0     H10280   4.155   1.258   2.062 -1.2502  2.4998 -0.4575
  817MOL0     H10281   4.238   0.840   2.249 -0.3714 -2.6250  0.0895
  817MOL0     H10282   4.319   0.606   2.291 -1.0276 -0.8333 -2.1593
  817MOL0     H10283   4.699   0.580   2.364  0.0754  3.9403 -5.2973
  817MOL0     H10284   4.732   0.497   2.217 -0.0666 -2.3038  0.2174
  817MOL0     H10285   4.788   0.367   2.410 -0.6725  3.6696  1.8326
  817MOL0     H10286   4.673   0.279   2.299 -2.6582 -3.1195  3.5367
  817MOL0     H10287   4.616   0.211   2.489  2.9740  0.5322 -4.4055
  817MOL0     H10288   4.485   0.305   2.418  1.2664 -3.1762 -3.4756
  817MOL0     H10289   4.507   0.357   2.681 -1.1749  0.9716  0.1745
  817MOL0     H10290   4.680   0.379   2.636 -0.2210  0.0954  0.5035
  817MOL0     H10291   4.570   0.752   2.563 -1.4297  0.6798  2.0615
  817MOL0     H10292   4.685   0.690   2.117  0.2783  1.7489 -2.8153
  817MOL0     H10293   4.711   0.842   1.963 -0.6524 -0.4861  1.5087
  817MOL0     H10294   4.568   0.937   1.895  0.3500  2.7985 -0.0801
  817MOL0     H10295   4.660   1.002   2.027 -2.3311  0.4590  0.9440
  818MOL0     O10296  10.531   4.734   9.970  0.5546 -0.3506 -0.0217
  818MOL0     C10297  10.553   4.613   9.980  0.4841 -0.3325  0.0720
  818MOL0     O10298  10.677   4.559   9.989  0.0732  0.0989 -0.0501
  818MOL0     C10299  10.787   4.608   9.920  0.1120  0.8238 -0.5111
  818MOL0     C10300  10.787   4.680   9.802  0.0301 -0.7515 -0.2805
  818MOL0     C10301  10.906   4.741   9.757  0.5917  0.5620 -0.6869
  818MOL0     C10302  11.026   4.705   9.814 -0.4336  0.0199  0.0619
  818MOL0     O10303  11.151   4.749   9.763  0.2162  0.6144 -0.0433
  818MOL0     C10304  11.146   4.840   9.655 -1.0203 -0.1605  1.1737
  818MOL0     C10305  11.291   4.870   9.619 -0.0001  0.8532  0.2292
  818MOL0     C10306  11.308   4.974   9.507 -0.3752 -0.3314  0.6530
  818MOL0     C10307  11.452   4.954   9.465  0.8984 -0.1244  0.2599
  818MOL0     C10308  11.499   5.078   9.391  0.7783 -0.0842 -0.3005
  818MOL0     C10309  11.641   5.068   9.339  0.1230  0.0708 -0.5026
  818MOL0     C10310  11.749   5.051   9.451 -0.4544 -0.0038 -0.4271
  818MOL0     C10311  11.888   5.018   9.397 -0.6095 -0.9006  0.0992
  818MOL0     N10312  11.944   5.113   9.304  0.5933 -0.9397 -0.2303
  818MOL0     C10313  12.011   5.072   9.190  0.5073  0.2318 -0.1577
  818MOL0     C10314  12.075   5.185   9.152 -0.5773 -1.4295 -0.2848
  818MOL0     C10315  12.156   5.211   9.029  0.3426 -0.7400 -0.0264
  818MOL0     C10316  12.303   5.238   9.046  0.0959  0.0406 -0.7296
  818MOL0     C10317  12.331   5.372   9.111 -0.2505 -0.2439  0.0951
  818MOL0     C10318  12.476   5.410   9.099 -1.2604 -1.0757  0.2809
  818MOL0     O10319  12.496   5.547   9.140 -0.2602  0.8070  0.8137
  818MOL0     C10320  12.612   5.612   9.100  0.2865 -0.3144  0.2440
  818MOL0     C10321  12.648   5.731   9.171 -0.5407 -0.2603  0.4621
  818MOL0     C10322  12.753   5.810   9.129 -0.0156  0.6751  0.5645
  818MOL0     C10323  12.842   5.761   9.029  0.3226 -0.6464  0.8231
  818MOL0     C10324  12.960   5.851   8.997 -0.0046  0.4862  0.5430
  818MOL0     O10325  13.044   5.820   8.889  0.6239 -0.0039 -0.8478
  818MOL0     C10326  13.138   5.907   8.848 -0.3486 -0.0975 -0.0696
  818MOL0     C10327  13.140   5.944   8.713 -0.0629 -0.3886  0.0400
  818MOL0     C10328  13.237   6.035   8.665 -0.5762  0.9100  0.2258
  818MOL0     C10329  13.338   6.072   8.746  0.6792 -0.7002 -0.5231
  818MOL0     O10330  13.449   6.151   8.713  0.1757 -0.3252  0.7456
  818MOL0     C10331  13.440   6.252   8.600  0.4802  0.1431 -0.3564
  818MOL0     C10332  13.509   6.197   8.473  0.7199  0.1536  0.4210
  818MOL0     C10333  13.659   6.221   8.483 -0.0955 -0.4673  0.6421
  818MOL0     C10334  13.734   6.134   8.377 -0.2622  0.0368 -0.4999
  818MOL0     C10335  13.893   6.148   8.391  0.9746  0.6832  0.6466
  818MOL0     C10336  13.948   6.269   8.311  0.1674 -0.1790 -0.8812
  818MOL0     C10337  14.097   6.297   8.338  0.7280 -0.4985  0.5833
  818MOL0     C10338  14.120   6.390   8.455  0.0621 -0.0582 -0.4831
  818MOL0    Cl10339  14.108   6.289   8.610  0.1183 -0.3951 -0.4214
  818MOL0     C10340  13.342   6.019   8.881 -0.3468  0.0878 -1.0107
  818MOL0     C10341  13.248   5.932   8.923  0.4336  0.6328 -0.0068
  818MOL0     O10342  12.978   5.943   9.073 -0.1506 -0.0938  0.9835
  818MOL0     C10343  12.810   5.643   8.964 -0.1292 -0.6437  0.1237
  818MOL0     C10344  12.696   5.566   9.000  1.0093 -0.2879  0.3989
  818MOL0     N10345  12.057   5.288   9.249  0.0855 -0.2432 -0.0294
  818MOL0     N10346  11.958   5.241   9.323  0.3968 -0.2209  0.0389
  818MOL0     C10347  11.026   4.603   9.917  0.4495 -0.8067 -0.1430
  818MOL0     C10348  10.908   4.563   9.975  1.0248  0.3201  0.7197
  818MOL0     C10349  10.431   4.522  10.012 -0.5844 -0.1956 -1.1660
  818MOL0     C10350  10.303   4.577  10.005  0.0774 -0.0850 -0.5383
  818MOL0     C10351  10.185   4.511  10.036 -0.0866  0.7075 -0.4630
  818MOL0     C10352  10.186   4.369  10.064 -0.9704  0.6553 -0.5626
  818MOL0     O10353  10.075   4.283  10.081 -0.0968  0.0983 -0.0679
  818MOL0     C10354   9.954   4.357  10.065  0.5540  0.1354  0.3182
  818MOL0     C10355   9.842   4.245  10.076  0.2486 -0.8068  0.1023
  818MOL0     C10356   9.705   4.325  10.057  0.3254 -0.1377  0.3372
  818MOL0     C10357   9.592   4.245  10.117 -0.1086  0.4227 -0.3480
  818MOL0     C10358   9.467   4.314  10.086  0.3981 -0.5173  0.5068
  818MOL0     C10359   9.370   4.369  10.060  0.0755  0.1700  0.1208
  818MOL0     C10360  10.317   4.316  10.066  0.2720  0.0658 -0.7242
  818MOL0     C10361  10.437   4.389  10.058  0.1486  0.1366  0.0611
  818MOL0     C10362  10.564   4.302  10.082  0.5842 -0.6999  0.1878
  818MOL0     H10363  10.691   4.696   9.755 -0.2390 -0.8984  0.2073
  818MOL0     H10364  10.901   4.795   9.663 -3.8180  0.7990 -0.5132
  818MOL0     H10365  11.109   4.779   9.572  1.5842  2.5588 -2.3047
  818MOL0     H10366  11.100   4.938   9.672 -0.7209  0.1223  0.4071
  818MOL0     H10367  11.340   4.774   9.598 -1.3471 -0.0464  1.0740
  818MOL0     H10368  11.343   4.895   9.712 -1.1112  0.5931  0.9373
  818MOL0     H10369  11.280   5.073   9.545  1.3971 -0.4186  2.2794
  818MOL0     H10370  11.249   4.962   9.415  1.5679  1.9948 -1.0071
  818MOL0     H10371  11.513   4.942   9.555 -1.3349  0.1166  1.8922
  818MOL0     H10372  11.463   4.874   9.392  0.7579  1.0421 -1.0974
  818MOL0     H10373  11.431   5.102   9.309  0.3482  0.9502  0.3420
  818MOL0     H10374  11.488   5.167   9.453  0.7983  0.2918 -0.8309
  818MOL0     H10375  11.654   4.979   9.277 -1.2986  0.4254 -1.3386
  818MOL0     H10376  11.656   5.159   9.281  2.8547  0.0714  0.0795
  818MOL0     H10377  11.718   4.969   9.517 -2.6849  0.8937 -0.2969
  818MOL0     H10378  11.765   5.142   9.509 -1.1692 -0.6595  0.8586
  818MOL0     H10379  11.963   5.003   9.475 -2.7342 -2.1529  2.0103
  818MOL0     H10380  11.882   4.922   9.345  3.1986 -0.2649 -1.9048
  818MOL0     H10381  11.991   4.976   9.143  1.1369  0.6068 -1.2074
  818MOL0     H10382  12.137   5.129   8.958 -1.5490 -1.1316  0.8814
  818MOL0     H10383  12.116   5.300   8.979 -1.9328 -1.1520  0.9471
  818MOL0     H10384  12.351   5.164   9.110 -0.2271  0.9497  0.6059
  818MOL0     H10385  12.357   5.224   8.951  2.7581  1.9120  0.3731
  818MOL0     H10386  12.317   5.373   9.219  0.1609  1.4438  0.1578
  818MOL0     H10387  12.271   5.450   9.062  0.8611 -0.4729 -1.7483
  818MOL0     H10388  12.504   5.396   8.994 -4.4100 -0.4404 -0.7815
  818MOL0     H10389  12.532   5.337   9.158 -0.9089 -1.6823 -0.7863
  818MOL0     H10390  12.592   5.746   9.262  3.3791 -2.1262  3.4644
  818MOL0     H10391  12.763   5.912   9.166 -2.9269  1.7697 -1.3388
  818MOL0     H10392  13.056   5.919   8.648  0.1466  1.5816 -1.0706
  818MOL0     H10393  13.238   6.068   8.562 -0.3942  2.9278  0.8213
  818MOL0     H10394  13.335   6.271   8.579  0.3793 -0.5827 -0.5270
  818MOL0     H10395  13.485   6.345   8.636  2.2343 -1.1207  0.8904
  818MOL0     H10396  13.490   6.089   8.472  2.1526 -0.4113  5.4775
  818MOL0     H10397  13.466   6.242   8.383  1.9945 -0.2927 -0.4276
  818MOL0     H10398  13.690   6.322   8.455 -0.8717 -0.2227  0.6615
  818MOL0     H10399  13.696   6.205   8.584 -1.5601 -2.9638  0.8644
  818MOL0     H10400  13.707   6.173   8.278  1.6336  1.7117 -0.3999
  818MOL0     H10401  13.706   6.028   8.377  0.7877 -0.3142 -2.8772
  818MOL0     H10402  13.923   6.049   8.355  1.9821  0.7050  1.3919
  818MOL0     H10403  13.932   6.143   8.493  0.8431  0.1815  0.6769
  818MOL0     H10404  13.935   6.247   8.204  0.3219  1.1442 -1.1845
  818MOL0     H10405  13.884   6.352   8.342  0.4970  0.1723 -1.1453
  818MOL0     H10406  14.132   6.358   8.255 -1.5555  0.7022  0.4364
  818MOL0     H10407  14.163   6.209   8.341  1.4488  0.0495  1.9988
  818MOL0     H10408  14.209   6.449   8.434 -1.6237  3.1298  0.5520
  818MOL0     H10409  14.039   6.463   8.467 -0.3496 -0.5006 -0.5173
  818MOL0     H10410  13.431   6.051   8.935  1.3523  0.0241 -3.5731
  818MOL0     H10411  13.254   5.889   9.022 -0.4981 -1.2896 -0.7220
  818MOL0     H10412  12.870   5.611   8.880  0.9789  1.9110 -0.1461
  818MOL0     H10413  12.697   5.479   8.936  1.4187  0.1823 -0.2481
  818MOL0     H10414  11.123   4.581   9.959 -0.2853 -0.2074  1.9770
  818MOL0     H10415  10.913   4.499  10.063 -0.6234 -0.5317  0.2491
  818MOL0     H10416  10.289   4.674   9.958 -1.9839  1.6757  3.2795
  818MOL0     H10417  10.090   4.560  10.019 -0.5953 -0.5854 -1.5548
  818MOL0     H10418   9.942   4.389   9.961 -1.3525 -3.3005 -0.6593
  818MOL0     H10419   9.935   4.440  10.134 -0.8241  1.0769 -1.1078
  818MOL0     H10420   9.835   4.201  10.176 -3.5597  1.9462  1.3102
  818MOL0     H10421   9.849   4.166  10.000 -0.0963 -1.9579  1.2220
  818MOL0     H10422   9.693   4.342   9.950 -0.8550 -1.6258  0.2164
  818MOL0     H10423   9.723   4.423  10.104  3.8436  0.7471 -2.4089
  818MOL0     H10424   9.589   4.146  10.071  0.2966  0.4820 -0.5088
  818MOL0     H10425   9.602   4.225  10.225  0.5055  1.1723 -0.2570
  818MOL0     H10426   9.279   4.415  10.027  0.5298  0.7173 -0.3870
  818MOL0     H10427  10.319   4.209  10.087  1.4799  0.3915  1.0636
  818MOL0     H10428  10.617   4.278   9.989 -0.4060 -1.3517 -0.2263
  818MOL0     H10429  10.634   4.347  10.154 -0.7024  1.3786  0.2256
  818MOL0     H10430  10.529   4.212  10.134 -3.2486  0.9247  0.7480
  819MOL0     O10431   6.486   3.448   5.115 -0.2082  0.2263 -0.7193
  819MOL0     C10432   6.429   3.546   5.065 -0.4418  0.5248  0.0786
  819MOL0     O10433   6.498   3.646   5.002 -0.6262 -0.8670 -0.0629
  819MOL0     C10434   6.634   3.638   4.973  0.6742  0.2173  1.1367
  819MOL0     C10435   6.732   3.692   5.059 -0.4948  0.3463  1.3896
  819MOL0     C10436   6.861   3.657   5.016  0.1603 -0.1468 -0.7608
  819MOL0     C10437   6.899   3.587   4.898 -0.4671  0.0783  0.2057
  819MOL0     O10438   7.035   3.568   4.875  0.2788 -0.3107 -0.2237
  819MOL0     C10439   7.079   3.525   4.741 -0.7190 -0.3117  0.3851
  819MOL0     C10440   7.239   3.526   4.733 -0.6176  1.1331 -0.7424
  819MOL0     C10441   7.300   3.418   4.826  0.3075 -0.3053  0.1231
  819MOL0     C10442   7.437   3.449   4.863  0.7112 -0.4016 -0.3826
  819MOL0     C10443   7.499   3.327   4.931  0.4379 -1.6013  0.2339
  819MOL0     C10444   7.661   3.341   4.944  0.3293 -0.0630  0.6439
  819MOL0     C10445   7.724   3.200   4.971  1.4140  0.3388  0.5223
  819MOL0     C10446   7.868   3.199   4.925 -0.0720  0.6751 -0.5895
  819MOL0     N10447   7.941   3.080   4.978  0.0056  0.4107  0.5281
  819MOL0     C10448   8.061   3.081   5.043 -0.1889  0.6015  0.7719
  819MOL0     C10449   8.091   2.946   5.066  0.7507 -0.2337 -0.0709
  819MOL0     C10450   8.208   2.895   5.143  0.2193  0.3445  0.0228
  819MOL0     C10451   8.335   2.930   5.081  0.1295 -0.5721 -0.0771
  819MOL0     C10452   8.356   2.865   4.936  0.5825  0.7738  0.6771
  819MOL0     C10453   8.496   2.892   4.889  0.2867 -0.5191 -0.4251
  819MOL0     O10454   8.598   2.823   4.964 -0.9284  0.6575  0.9128
  819MOL0     C10455   8.725   2.817   4.917  0.6155 -1.6451 -1.4538
  819MOL0     C10456   8.820   2.747   4.990  0.2091  0.0452  0.8101
  819MOL0     C10457   8.953   2.732   4.941  0.0007 -0.3133 -0.5662
  819MOL0     C10458   8.999   2.800   4.824 -0.6621 -0.7877 -0.3092
  819MOL0     C10459   9.145   2.804   4.787  0.9157  0.0047 -0.7929
  819MOL0     O10460   9.233   2.773   4.890  0.8774  0.0984 -0.3320
  819MOL0     C10461   9.365   2.799   4.874 -0.4651 -0.7586  0.0824
  819MOL0     C10462   9.434   2.865   4.976 -0.4230 -0.0295 -0.2023
  819MOL0     C10463   9.575   2.881   4.973 -0.0514  0.1601 -0.0229
  819MOL0     C10464   9.642   2.819   4.866 -1.4655  0.0569 -0.1153
  819MOL0     O10465   9.777   2.840   4.862 -0.2312  0.6577 -0.2003
  819MOL0     C10466   9.823   2.937   4.769  0.7443  0.6205 -0.1602
  819MOL0     C10467   9.974   2.968   4.766 -0.2835  0.3599 -0.3634
  819MOL0     C10468  10.013   3.059   4.879  0.3285 -0.1669  1.0211
  819MOL0     C10469  10.167   3.061   4.882  0.3261 -0.2376  0.0287
  819MOL0     C10470  10.218   3.186   4.964 -0.4930 -0.8119  0.1464
  819MOL0     C10471  10.366   3.197   4.972 -0.3219  0.1698  0.5536
  819MOL0     C10472  10.429   3.244   4.833 -0.0125  0.6383  0.2095
  819MOL0     C10473  10.571   3.312   4.822 -0.7355  0.9410 -0.2816
  819MOL0    Cl10474  10.694   3.197   4.896 -0.1979  0.0057 -0.2977
  819MOL0     C10475   9.579   2.763   4.760  0.6343 -0.2983 -0.3590
  819MOL0     C10476   9.437   2.756   4.763 -0.6049 -0.1727  0.0493
  819MOL0     O10477   9.173   2.855   4.682 -0.1754 -0.3714 -0.5000
  819MOL0     C10478   8.897   2.878   4.756  0.4663 -0.0255  0.5505
  819MOL0     C10479   8.768   2.882   4.796  0.8067  0.0333  0.0574
  819MOL0     N10480   7.982   2.867   5.023 -0.4176 -0.4627 -0.5118
  819MOL0     N10481   7.894   2.954   4.972  1.0634  0.7785  0.3954
  819MOL0     C10482   6.798   3.533   4.816 -0.1420  1.2613  0.7247
  819MOL0     C10483   6.667   3.553   4.860 -0.0962  0.2833  0.1760
  819MOL0     C10484   6.282   3.565   5.077 -0.3368 -0.5487 -0.2255
  819MOL0     C10485   6.218   3.663   4.995 -0.4391 -0.3154 -0.4700
  819MOL0     C10486   6.086   3.704   5.024 -0.0513 -0.4746 -0.3658
  819MOL0     C10487   6.017   3.648   5.125 -0.7842 -0.5454  0.1074
  819MOL0     O10488   5.883   3.667   5.143  0.2736  0.0650  0.0540
  819MOL0     C10489   5.867   3.799   5.193  0.2788 -0.4777 -0.3764
  819MOL0     C10490   5.717   3.819   5.239 -0.3456  0.3478 -0.0021
  819MOL0     C10491   5.627   3.840   5.120  0.4238 -0.1947  0.3874
  819MOL0     C10492   5.482   3.841   5.155  0.2684 -0.0123  0.4115
  819MOL0     C10493   5.394   3.938   5.076 -0.0635  0.7377  0.0252
  819MOL0     C10494   5.310   4.003   5.022  0.1840 -0.7225  0.0359
  819MOL0     C10495   6.074   3.545   5.201 -0.6554  0.0873 -0.4262
  819MOL0     C10496   6.209   3.501   5.182  0.3611 -0.1505  0.5344
  819MOL0     C10497   6.257   3.394   5.281 -0.5882 -0.0101 -0.0128
  819MOL0     H10498   6.717   3.761   5.141 -1.9361  3.2494 -1.0818
  819MOL0     H10499   6.946   3.697   5.069 -0.3708  0.6769 -0.5116
  819MOL0     H10500   7.040   3.429   4.704  0.8518 -0.7294 -0.2513
  819MOL0     H10501   7.052   3.603   4.670  1.2318 -1.0851 -1.3191
  819MOL0     H10502   7.284   3.623   4.759 -0.0479  1.0675 -1.4640
  819MOL0     H10503   7.266   3.502   4.630  0.3687 -1.7048  0.0845
  819MOL0     H10504   7.298   3.325   4.769  0.3125  1.5752 -3.2548
  819MOL0     H10505   7.240   3.412   4.917 -0.0774 -3.5921 -0.2360
  819MOL0     H10506   7.503   3.468   4.777 -0.7898 -1.0775 -1.7490
  819MOL0     H10507   7.459   3.532   4.931  0.6213 -2.1525  1.8677
  819MOL0     H10508   7.448   3.323   5.027  0.3450  0.8385  0.3548
  819MOL0     H10509   7.468   3.244   4.868 -1.8698  1.0402 -2.4375
  819MOL0     H10510   7.706   3.387   4.855  3.1364  0.0547  2.0309
  819MOL0     H10511   7.681   3.416   5.020 -2.4414  1.7164 -0.2052
  819MOL0     H10512   7.672   3.126   4.911  3.5853 -1.1950  0.4101
  819MOL0     H10513   7.726   3.180   5.078  2.3028 -2.2993  0.0736
  819MOL0     H10514   7.881   3.212   4.817  3.7130  0.2539 -0.3085
  819MOL0     H10515   7.924   3.279   4.975 -3.0974  1.1386  2.4661
  819MOL0     H10516   8.126   3.155   5.088  1.8762 -0.0606 -0.9402
  819MOL0     H10517   8.203   2.918   5.250  0.0143 -0.7443  0.2600
  819MOL0     H10518   8.204   2.786   5.149  3.3620  0.1592  1.1287
  819MOL0     H10519   8.352   3.038   5.085  0.0515 -0.5516 -0.2731
  819MOL0     H10520   8.409   2.889   5.151  1.5623  3.8029  1.2790
  819MOL0     H10521   8.275   2.905   4.875 -0.0737 -2.9880 -1.2108
  819MOL0     H10522   8.332   2.759   4.932 -0.3532  1.0033  0.1640
  819MOL0     H10523   8.519   2.999   4.896 -1.3533 -0.1700  0.0021
  819MOL0     H10524   8.493   2.869   4.783  0.5171  1.4409 -0.9010
  819MOL0     H10525   8.800   2.714   5.091  1.3812  0.9731  1.3721
  819MOL0     H10526   9.027   2.699   5.013 -1.2679 -1.8744  0.0900
  819MOL0     H10527   9.368   2.908   5.051 -0.9001 -1.7502  0.4221
  819MOL0     H10528   9.629   2.945   5.042  0.2910 -1.0332  0.8716
  819MOL0     H10529   9.806   2.888   4.673 -0.0573  0.5626  0.0064
  819MOL0     H10530   9.765   3.030   4.780  2.7960  2.4682 -3.3054
  819MOL0     H10531  10.022   2.870   4.773 -0.5319  0.3688  2.3591
  819MOL0     H10532   9.998   3.013   4.669  1.6321 -0.4101 -0.2896
  819MOL0     H10533   9.973   3.160   4.867 -0.3829 -0.3548  1.7216
  819MOL0     H10534   9.974   3.014   4.971  1.3709 -0.0109  1.5513
  819MOL0     H10535  10.205   3.063   4.780 -2.8257  2.0541 -1.2522
  819MOL0     H10536  10.198   2.961   4.916 -1.0098 -0.0681  1.8829
  819MOL0     H10537  10.184   3.179   5.068 -0.0732 -1.6165  0.2391
  819MOL0     H10538  10.183   3.280   4.922 -4.9313  0.0868  4.7757
  819MOL0     H10539  10.406   3.264   5.048  1.2844 -0.4299  0.2889
  819MOL0     H10540  10.409   3.101   5.002 -0.2529 -0.1319 -0.4799
  819MOL0     H10541  10.350   3.307   4.791 -1.3010 -0.5004  0.8115
  819MOL0     H10542  10.428   3.148   4.781 -0.8341 -0.1913  1.6791
  819MOL0     H10543  10.598   3.328   4.717  1.9952  2.1091  0.5162
  819MOL0     H10544  10.577   3.408   4.875  0.8773  0.9343 -0.4016
  819MOL0     H10545   9.637   2.717   4.681 -1.5896 -2.7356 -0.7440
  819MOL0     H10546   9.383   2.700   4.688 -1.9099  0.1577  0.7081
  819MOL0     H10547   8.930   2.952   4.684  0.0480  0.3712  0.7653
  819MOL0     H10548   8.701   2.952   4.747  1.0316  0.1711 -0.0556
  819MOL0     H10549   6.829   3.461   4.741  1.3129  1.6722  0.8947
  819MOL0     H10550   6.583   3.511   4.806  0.9505 -1.3563 -0.2644
  819MOL0     H10551   6.274   3.717   4.919  1.4835 -1.6861 -0.0797
  819MOL0     H10552   6.028   3.773   4.963  1.2327 -0.2293 -1.3624
  819MOL0     H10553   5.885   3.877   5.118  0.1051  0.1955  0.2743
  819MOL0     H10554   5.932   3.811   5.280  0.6371 -0.3388 -0.6605
  819MOL0     H10555   5.712   3.908   5.303  4.0520  1.9893 -1.5644
  819MOL0     H10556   5.683   3.729   5.292 -1.6029  0.1094 -1.1648
  819MOL0     H10557   5.635   3.757   5.049 -2.8225  1.6660 -2.4721
  819MOL0     H10558   5.660   3.925   5.059 -2.0975 -0.0292 -0.8868
  819MOL0     H10559   5.438   3.741   5.146 -1.0095  0.4671  1.0438
  819MOL0     H10560   5.467   3.875   5.258 -1.6514  0.0153  0.1641
  819MOL0     H10561   5.232   4.072   4.998  2.5086  2.1185  0.0803
  819MOL0     H10562   6.025   3.499   5.286  0.9140 -0.2724  0.3241
  819MOL0     H10563   6.182   3.367   5.356  0.2255 -1.5507  0.2768
  819MOL0     H10564   6.286   3.308   5.221  0.2675  0.2822 -0.0319
  819MOL0     H10565   6.344   3.427   5.338 -0.1427 -1.7486  0.3690
  820MOL0     O10566   2.565   0.719   7.240  0.4579  0.2463 -0.1139
  820MOL0     C10567   2.508   0.777   7.150  0.2752 -1.1731 -0.1947
  820MOL0     O10568   2.496   0.912   7.145 -0.0388 -0.0867 -0.6727
  820MOL0     C10569   2.511   0.977   7.260 -0.3687  0.1546 -0.0499
  820MOL0     C10570   2.641   1.024   7.291  0.4784 -1.7950  0.1368
  820MOL0     C10571   2.669   1.089   7.415  0.2291  0.3969  0.4797
  820MOL0     C10572   2.566   1.099   7.515  0.6040  0.3209  0.3861
  820MOL0     O10573   2.597   1.145   7.637  0.2846  0.4006  0.4235
  820MOL0     C10574   2.679   1.052   7.711  0.4466  0.4335  1.0250
  820MOL0     C10575   2.780   1.123   7.794 -0.4272  0.1021 -0.0756
  820MOL0     C10576   2.712   1.231   7.888  0.3923  0.1476 -0.0662
  820MOL0     C10577   2.797   1.350   7.908 -0.1588  0.1915  0.5376
  820MOL0     C10578   2.743   1.430   8.029  0.1264 -0.0973  0.3066
  820MOL0     C10579   2.824   1.553   8.064 -0.0894  0.6778  0.1313
  820MOL0     C10580   2.760   1.608   8.187  0.2443  0.0128 -0.3930
  820MOL0     C10581   2.860   1.702   8.267 -0.2772 -0.8098  0.5071
  820MOL0     N10582   2.902   1.831   8.202  1.2431 -0.2522  0.2117
  820MOL0     C10583   2.810   1.921   8.154  0.4285 -0.2209  0.1164
  820MOL0     C10584   2.888   2.030   8.131 -0.3730  0.3579  0.4270
  820MOL0     C10585   2.842   2.164   8.070  0.5953 -0.1332 -0.6081
  820MOL0     C10586   2.706   2.189   8.121  0.5736 -0.3336 -0.1767
  820MOL0     C10587   2.710   2.232   8.272 -0.2457 -0.2010 -0.2134
  820MOL0     C10588   2.580   2.302   8.328  0.4296  0.0197 -0.6174
  820MOL0     O10589   2.554   2.426   8.273  0.5873 -0.3241  0.0588
  820MOL0     C10590   2.640   2.534   8.255  0.3620  0.0491  0.0918
  820MOL0     C10591   2.607   2.633   8.157  0.7098 -0.7526  0.4731
  820MOL0     C10592   2.691   2.737   8.120  1.0214  0.4012 -0.0697
  820MOL0     C10593   2.815   2.750   8.181  0.1006  0.9572  0.4396
  820MOL0     C10594   2.913   2.858   8.147  0.4664  0.3642  0.2230
  820MOL0     O10595   3.042   2.840   8.180  0.3005  0.1688 -0.2094
  820MOL0     C10596   3.145   2.926   8.143  0.1394  0.5967  0.0521
  820MOL0     C10597   3.264   2.909   8.219 -0.3680  0.2817  0.2313
  820MOL0     C10598   3.374   2.992   8.208  0.2816 -0.6588 -0.0103
  820MOL0     C10599   3.365   3.101   8.118 -0.0385  0.9939  0.6612
  820MOL0     O10600   3.462   3.199   8.097  0.2087  0.9539  0.7249
  820MOL0     C10601   3.540   3.226   8.214 -0.4384  0.1380  0.4833
  820MOL0     C10602   3.683   3.160   8.231 -0.5248  0.0824  0.4209
  820MOL0     C10603   3.768   3.153   8.097 -0.2369 -0.0479  0.1978
  820MOL0     C10604   3.819   3.298   8.058  0.2993  1.0318  0.3189
  820MOL0     C10605   3.951   3.298   7.987 -0.8105  0.2690  0.1079
  820MOL0     C10606   3.992   3.447   7.942 -0.8722 -0.0315  0.2563
  820MOL0     C10607   4.003   3.544   8.071 -0.1433  1.0532  0.3347
  820MOL0     C10608   4.118   3.644   8.054  0.2836  0.0129 -0.8376
  820MOL0    Cl10609   4.256   3.534   8.074 -0.0334 -0.0994 -0.0687
  820MOL0     C10610   3.246   3.118   8.033  0.4816 -1.0480  0.2171
  820MOL0     C10611   3.136   3.037   8.056  0.1036 -0.7434  0.0132
  820MOL0     O10612   2.867   2.951   8.088  0.4433 -0.7400  0.3427
  820MOL0     C10613   2.848   2.659   8.281  0.5479  0.9061  0.0555
  820MOL0     C10614   2.764   2.553   8.325  0.5042  0.0993  0.4688
  820MOL0     N10615   3.025   1.999   8.153  0.1691  0.7790  0.3106
  820MOL0     N10616   3.029   1.883   8.199  1.1317  0.5019 -0.1523
  820MOL0     C10617   2.432   1.066   7.474  0.1658 -0.5629 -0.0475
  820MOL0     C10618   2.410   1.002   7.352 -0.3142  0.0680 -0.2493
  820MOL0     C10619   2.478   0.693   7.023  0.0227 -0.1922 -0.7437
  820MOL0     C10620   2.505   0.741   6.892 -0.0809  0.1975 -0.4322
  820MOL0     C10621   2.491   0.659   6.779 -0.7206 -0.5131 -0.2881
  820MOL0     C10622   2.447   0.527   6.791  0.9205 -0.2440 -0.1610
  820MOL0     O10623   2.406   0.454   6.684  0.0415  0.7024 -0.2885
  820MOL0     C10624   2.505   0.458   6.580  0.3272  0.3872  0.0707
  820MOL0     C10625   2.491   0.332   6.489  0.7240  0.6687  0.0847
  820MOL0     C10626   2.567   0.338   6.354  0.8934 -0.7560  0.1259
  820MOL0     C10627   2.503   0.435   6.261  0.6243 -0.2513  0.6678
  820MOL0     C10628   2.578   0.415   6.138 -0.5131  1.3262  0.8328
  820MOL0     C10629   2.633   0.398   6.036  0.1445  0.4017  0.6666
  820MOL0     C10630   2.429   0.469   6.916  0.6879 -0.8747  0.6456
  820MOL0     C10631   2.442   0.553   7.030 -0.2373 -0.6678 -0.4629
  820MOL0     C10632   2.406   0.481   7.156 -0.5447  0.5567 -0.5341
  820MOL0     H10633   2.718   1.020   7.214  2.0909  2.1212  1.2878
  820MOL0     H10634   2.770   1.123   7.436  1.6156 -0.7266 -3.4306
  820MOL0     H10635   2.614   0.988   7.772 -0.9434 -0.9433 -1.7072
  820MOL0     H10636   2.740   0.986   7.649 -1.3761  0.3712 -0.7958
  820MOL0     H10637   2.843   1.172   7.719 -0.8924  0.2445 -0.3751
  820MOL0     H10638   2.846   1.051   7.844  0.8037  1.0683 -0.2635
  820MOL0     H10639   2.683   1.190   7.985 -0.6321 -0.2298 -0.5145
  820MOL0     H10640   2.620   1.256   7.834 -1.1102 -0.5435  2.0692
  820MOL0     H10641   2.895   1.302   7.915  0.5606  0.5823 -3.9748
  820MOL0     H10642   2.812   1.420   7.826 -0.2410  1.5662  1.6489
  820MOL0     H10643   2.642   1.455   7.994  1.0658  0.6704 -2.1411
  820MOL0     H10644   2.753   1.362   8.114  1.0926 -1.7916 -1.0861
  820MOL0     H10645   2.929   1.522   8.061  1.1419  4.4196 -0.5950
  820MOL0     H10646   2.810   1.627   7.984 -3.4940  0.1477  0.0763
  820MOL0     H10647   2.728   1.524   8.250  3.4967 -1.7738 -0.9366
  820MOL0     H10648   2.671   1.667   8.162  0.3057  0.3008  0.0464
  820MOL0     H10649   2.809   1.720   8.362  1.1592 -1.0123  1.3511
  820MOL0     H10650   2.954   1.650   8.285  0.1633 -0.6998 -1.2916
  820MOL0     H10651   2.704   1.900   8.141  0.2476 -0.5048  1.8568
  820MOL0     H10652   2.904   2.250   8.097 -1.6514 -0.0361  5.7825
  820MOL0     H10653   2.836   2.153   7.961 -3.2489 -1.1315 -0.4534
  820MOL0     H10654   2.667   2.271   8.061  0.7595 -0.7441 -0.8714
  820MOL0     H10655   2.634   2.108   8.105  2.3789 -1.7943 -1.4133
  820MOL0     H10656   2.788   2.304   8.299 -2.9474  3.1038 -0.5693
  820MOL0     H10657   2.714   2.139   8.330  1.7465 -0.7401 -1.1043
  820MOL0     H10658   2.600   2.316   8.434  2.1030 -3.2614 -0.3619
  820MOL0     H10659   2.490   2.240   8.320  0.9057 -0.7160 -0.3866
  820MOL0     H10660   2.513   2.631   8.103  0.2811 -0.1297  1.1729
  820MOL0     H10661   2.654   2.812   8.050 -1.1930  0.2832  0.8997
  820MOL0     H10662   3.255   2.835   8.297 -1.0286 -0.4967 -0.5552
  820MOL0     H10663   3.465   2.980   8.266  1.7633  0.1088 -2.0511
  820MOL0     H10664   3.561   3.333   8.208 -2.2001  0.4466 -4.3161
  820MOL0     H10665   3.480   3.209   8.304  1.3284  1.8488  2.0548
  820MOL0     H10666   3.737   3.217   8.306  0.6850  0.4253 -0.6715
  820MOL0     H10667   3.668   3.061   8.274  2.5204 -1.2004 -1.1882
  820MOL0     H10668   3.852   3.085   8.113 -1.8833 -1.7581  2.1630
  820MOL0     H10669   3.709   3.121   8.010  0.4328  1.5847 -0.9253
  820MOL0     H10670   3.813   3.361   8.147 -0.9323  2.6754 -0.8736
  820MOL0     H10671   3.743   3.338   7.991 -3.2639 -0.0993  3.3328
  820MOL0     H10672   3.949   3.234   7.898  1.2658  0.6896 -0.2763
  820MOL0     H10673   4.021   3.261   8.063  0.1993  0.9886 -0.4517
  820MOL0     H10674   4.088   3.436   7.892 -0.7546  0.8911  0.2709
  820MOL0     H10675   3.925   3.493   7.869  0.6984  0.3217 -1.0159
  820MOL0     H10676   4.014   3.486   8.162  2.6949  1.6543  0.4680
  820MOL0     H10677   3.909   3.598   8.078 -0.2886  0.7277  0.9386
  820MOL0     H10678   4.119   3.710   7.966  2.7404  3.0665  1.2671
  820MOL0     H10679   4.115   3.718   8.135 -1.5372  0.6242 -1.4084
  820MOL0     H10680   3.243   3.205   7.967 -1.3831 -3.0596 -2.5803
  820MOL0     H10681   3.048   3.057   7.995  0.0367 -1.0140  0.0209
  820MOL0     H10682   2.939   2.669   8.339 -0.5121 -2.7955  2.6739
  820MOL0     H10683   2.782   2.483   8.406 -1.8288 -0.4390  0.5973
  820MOL0     H10684   2.351   1.077   7.546 -0.9445  2.2802 -1.5545
  820MOL0     H10685   2.313   0.969   7.317 -0.2799 -3.3547  2.2859
  820MOL0     H10686   2.542   0.843   6.888  1.9511 -0.5328 -2.1339
  820MOL0     H10687   2.515   0.704   6.683  0.0458  1.0256  0.5994
  820MOL0     H10688   2.606   0.471   6.622 -0.7584 -0.9290  3.4010
  820MOL0     H10689   2.479   0.545   6.519  0.7953  1.9107  1.9359
  820MOL0     H10690   2.386   0.301   6.485  0.8343  0.2909  0.1112
  820MOL0     H10691   2.541   0.250   6.540  0.6928 -0.4639 -1.6099
  820MOL0     H10692   2.557   0.241   6.304 -1.0051 -0.7032  0.3567
  820MOL0     H10693   2.670   0.367   6.378  0.2781  0.0518  1.9447
  820MOL0     H10694   2.399   0.414   6.233  0.1831  1.5620  0.7989
  820MOL0     H10695   2.494   0.539   6.295 -2.3571  0.6580 -2.2857
  820MOL0     H10696   2.677   0.395   5.938 -0.1078  0.1687  0.5590
  820MOL0     H10697   2.408   0.363   6.927  1.2825 -1.1974 -1.0143
  820MOL0     H10698   2.395   0.374   7.138 -1.3826  0.8640 -1.9607
  820MOL0     H10699   2.482   0.499   7.233 -2.2063  1.4513  0.9906
  820MOL0     H10700   2.312   0.513   7.202 -0.3487 -1.2539  1.2587
  821MOL0     O10701   1.072   7.512   6.928 -0.4340  0.3986 -0.2103
  821MOL0     C10702   0.971   7.568   6.891 -0.9436 -0.4526 -0.8972
  821MOL0     O10703   0.960   7.646   6.776 -0.1145  0.6156  0.1449
  821MOL0     C10704   1.067   7.632   6.680  0.1008  0.3939 -0.3437
  821MOL0     C10705   1.140   7.512   6.657 -0.1298  0.6294 -0.1467
  821MOL0     C10706   1.229   7.509   6.552 -0.0237  0.2077  0.4599
  821MOL0     C10707   1.247   7.616   6.467 -0.6805  0.3399 -0.0646
  821MOL0     O10708   1.350   7.602   6.381  0.3445 -0.2005 -0.5003
  821MOL0     C10709   1.361   7.700   6.279  0.5256  0.3958 -1.0068
  821MOL0     C10710   1.436   7.649   6.161  0.6624 -0.3615  0.7800
  821MOL0     C10711   1.562   7.571   6.204  0.5608 -0.1698 -0.3881
  821MOL0     C10712   1.645   7.535   6.081  0.0015  0.0027 -0.4351
  821MOL0     C10713   1.751   7.430   6.129  0.6893 -0.7746  0.0134
  821MOL0     C10714   1.848   7.480   6.242  0.8099 -0.4257 -0.3107
  821MOL0     C10715   1.981   7.412   6.247 -0.0803  0.7317 -0.7736
  821MOL0     C10716   1.970   7.271   6.306  0.7350 -0.0234 -0.7328
  821MOL0     N10717   2.094   7.224   6.359  0.1652 -0.0805 -0.1171
  821MOL0     C10718   2.222   7.217   6.302  0.3508  0.3532 -0.2507
  821MOL0     C10719   2.298   7.167   6.405  0.6929 -0.2263  0.4748
  821MOL0     C10720   2.447   7.164   6.396 -0.2875 -0.3815 -0.2123
  821MOL0     C10721   2.492   7.033   6.472  0.6392 -0.8172 -0.7436
  821MOL0     C10722   2.642   7.014   6.474 -0.2345 -1.1125  0.4648
  821MOL0     C10723   2.710   7.116   6.573  0.1427 -0.8049 -0.0114
  821MOL0     O10724   2.851   7.128   6.553 -0.4122  0.3310  0.6935
  821MOL0     C10725   2.931   7.163   6.664 -0.1523  0.3589  0.0855
  821MOL0     C10726   3.066   7.118   6.676  0.4764  0.0961  0.1259
  821MOL0     C10727   3.148   7.182   6.766 -0.2463 -0.2394 -0.3452
  821MOL0     C10728   3.101   7.287   6.851 -0.1302 -0.2007  0.7172
  821MOL0     C10729   3.200   7.376   6.914 -0.1684 -0.0636  0.6587
  821MOL0     O10730   3.327   7.323   6.910  0.3178  0.5905 -0.4870
  821MOL0     C10731   3.436   7.385   6.982 -0.5317  0.4531  0.8397
  821MOL0     C10732   3.430   7.379   7.128  0.0878 -0.1160 -0.1541
  821MOL0     C10733   3.529   7.444   7.201 -0.1449  0.8516 -0.1873
  821MOL0     C10734   3.642   7.498   7.137  0.2597 -0.0965 -1.3582
  821MOL0     O10735   3.755   7.540   7.209 -0.2319 -0.2669 -0.3174
  821MOL0     C10736   3.858   7.446   7.227  0.2011 -0.7361 -0.1400
  821MOL0     C10737   3.927   7.480   7.355 -0.7737 -0.5681 -0.0018
  821MOL0     C10738   3.842   7.485   7.479  1.5750 -0.0373 -0.6310
  821MOL0     C10739   3.880   7.368   7.580  0.0733 -0.2039  0.5852
  821MOL0     C10740   3.855   7.220   7.528  0.4398 -0.3440 -0.8820
  821MOL0     C10741   3.717   7.161   7.543  0.5746  0.6370 -0.3943
  821MOL0     C10742   3.710   7.033   7.460 -0.7108 -1.2547 -0.3787
  821MOL0     C10743   3.657   7.070   7.323 -0.4310  0.0292  0.2320
  821MOL0    Cl10744   3.622   6.915   7.234 -0.2567  0.0062 -0.3214
  821MOL0     C10745   3.642   7.512   7.002 -0.5468 -0.3837 -0.3149
  821MOL0     C10746   3.534   7.462   6.927  0.3945  0.1404 -0.1332
  821MOL0     O10747   3.179   7.495   6.949  1.0138  0.0597 -0.0556
  821MOL0     C10748   2.965   7.323   6.850 -0.9659 -0.4065 -0.5947
  821MOL0     C10749   2.887   7.257   6.754  0.2835  0.4613  0.1918
  821MOL0     N10750   2.221   7.143   6.518 -0.3538  0.2092 -0.6963
  821MOL0     N10751   2.098   7.168   6.489  0.4971 -0.2991 -0.0769
  821MOL0     C10752   1.174   7.737   6.496 -0.6170  0.5259  0.1243
  821MOL0     C10753   1.082   7.741   6.601 -0.8792 -0.5812  0.0145
  821MOL0     C10754   0.853   7.539   6.969 -0.6278 -0.4957 -0.0245
  821MOL0     C10755   0.725   7.548   6.908 -0.2233  1.1092  0.2676
  821MOL0     C10756   0.613   7.521   6.982  0.1729 -0.4010 -0.2229
  821MOL0     C10757   0.607   7.497   7.117  0.2678 -0.7318 -0.7538
  821MOL0     O10758   0.506   7.441   7.188  0.0708  0.6965 -0.1153
  821MOL0     C10759   0.414   7.347   7.135 -0.4970  0.4763  0.9983
  821MOL0     C10760   0.380   7.251   7.248 -0.8892 -0.0753  0.0159
  821MOL0     C10761   0.296   7.125   7.198  0.3766  0.3627  0.0454
  821MOL0     C10762   0.161   7.170   7.178 -0.7835 -0.9820  0.2825
  821MOL0     C10763   0.076   7.055   7.155  0.5871  0.0365 -0.2840
  821MOL0     C10764  -0.005   6.962   7.147 -1.0365  0.1905 -0.0796
  821MOL0     C10765   0.729   7.504   7.180 -0.7234  1.1968  0.0371
  821MOL0     C10766   0.854   7.525   7.115  0.8480  0.8610 -0.5817
  821MOL0     C10767   0.984   7.493   7.201  0.0608  0.1371 -0.1589
  821MOL0     H10768   1.124   7.416   6.706  1.6206  0.5013  0.2186
  821MOL0     H10769   1.283   7.416   6.546  2.8427  1.7233  0.9167
  821MOL0     H10770   1.263   7.726   6.238  0.0350 -0.3426 -0.3394
  821MOL0     H10771   1.400   7.792   6.324  0.5578 -0.8841  1.8152
  821MOL0     H10772   1.447   7.724   6.081 -0.6491 -3.3446 -2.4570
  821MOL0     H10773   1.370   7.572   6.121  2.0837 -1.2896  0.1465
  821MOL0     H10774   1.541   7.478   6.257  1.1032 -0.1990 -0.2184
  821MOL0     H10775   1.624   7.629   6.273  1.1956 -0.8687 -0.3618
  821MOL0     H10776   1.570   7.486   6.018 -2.3904  1.2935  1.2796
  821MOL0     H10777   1.676   7.631   6.038 -4.6560  1.1216 -1.8170
  821MOL0     H10778   1.694   7.349   6.176 -0.4173  1.5048  2.8521
  821MOL0     H10779   1.815   7.393   6.048  1.8460 -1.7623  1.3375
  821MOL0     H10780   1.869   7.587   6.230  1.0835 -0.1724  1.9431
  821MOL0     H10781   1.798   7.470   6.339  0.7044 -2.9858 -0.5606
  821MOL0     H10782   2.035   7.467   6.325  2.6907 -2.3504 -0.3080
  821MOL0     H10783   2.044   7.410   6.158  1.4423 -2.7036  0.2365
  821MOL0     H10784   1.881   7.270   6.370  0.8388  0.5056 -0.5756
  821MOL0     H10785   1.952   7.212   6.216 -0.0179  1.8829 -1.8857
  821MOL0     H10786   2.256   7.254   6.206  1.4775  0.0708  0.0268
  821MOL0     H10787   2.482   7.153   6.293  0.4851 -1.4893  0.1523
  821MOL0     H10788   2.491   7.258   6.431  2.6924 -1.4804 -0.7711
  821MOL0     H10789   2.446   7.036   6.571  1.6407 -0.0646 -0.2801
  821MOL0     H10790   2.444   6.947   6.425  1.6229 -3.6396  2.8885
  821MOL0     H10791   2.690   7.030   6.377  0.8975 -1.4734  0.9464
  821MOL0     H10792   2.672   6.912   6.502 -0.2463 -0.6346  2.3192
  821MOL0     H10793   2.681   7.088   6.674  0.2937 -1.0011 -0.0215
  821MOL0     H10794   2.672   7.219   6.566 -0.8193 -1.1932 -0.7020
  821MOL0     H10795   3.106   7.047   6.605  2.6920  1.5804 -0.2171
  821MOL0     H10796   3.256   7.170   6.764  0.0903  2.0493  0.5643
  821MOL0     H10797   3.338   7.336   7.166 -1.4326  2.9581 -0.0009
  821MOL0     H10798   3.515   7.440   7.309 -1.3918 -0.7424 -0.3712
  821MOL0     H10799   3.818   7.344   7.228  1.2984 -1.1814  1.1813
  821MOL0     H10800   3.930   7.444   7.144  1.8924 -1.5505  1.2801
  821MOL0     H10801   4.011   7.411   7.364  2.0352  2.2166 -2.4912
  821MOL0     H10802   3.960   7.582   7.332 -0.9401  0.4360  3.6446
  821MOL0     H10803   3.849   7.583   7.526  1.1087 -0.2388 -0.1250
  821MOL0     H10804   3.735   7.472   7.458  0.9567  1.2281  1.4498
  821MOL0     H10805   3.803   7.375   7.657 -1.6475 -1.1312 -0.9532
  821MOL0     H10806   3.982   7.379   7.617  0.7350  0.5286 -1.3317
  821MOL0     H10807   3.921   7.165   7.596  1.8212  0.3501 -1.6104
  821MOL0     H10808   3.894   7.206   7.427  0.9989  2.0160 -1.0592
  821MOL0     H10809   3.715   7.125   7.646  1.2881 -0.5468 -0.7708
  821MOL0     H10810   3.642   7.236   7.520 -0.7309  0.0544  1.7203
  821MOL0     H10811   3.642   6.971   7.518 -0.6060 -1.4632 -0.4773
  821MOL0     H10812   3.806   6.981   7.452  0.3146  0.1355  2.0737
  821MOL0     H10813   3.570   7.135   7.334 -1.2683 -0.9647 -0.3653
  821MOL0     H10814   3.729   7.127   7.264  1.2852 -1.0016  1.2387
  821MOL0     H10815   3.714   7.568   6.943 -1.6035 -0.0377 -1.3049
  821MOL0     H10816   3.532   7.477   6.819  1.4432 -3.4269 -0.7799
  821MOL0     H10817   2.942   7.409   6.911 -0.2835  0.6225 -1.7418
  821MOL0     H10818   2.783   7.289   6.749  1.1117  3.3249 -0.2257
  821MOL0     H10819   1.184   7.825   6.432 -2.5849 -0.8780 -2.3283
  821MOL0     H10820   1.021   7.829   6.613  1.1976  1.0153 -0.5393
  821MOL0     H10821   0.698   7.566   6.804  3.7313 -0.5275 -1.2597
  821MOL0     H10822   0.522   7.527   6.922  0.3229  3.9447 -0.3861
  821MOL0     H10823   0.466   7.308   7.047 -0.4585  3.9200 -0.6940
  821MOL0     H10824   0.329   7.403   7.095  1.3742  0.9444 -2.7392
  821MOL0     H10825   0.326   7.297   7.331 -0.0276 -0.9296  1.1005
  821MOL0     H10826   0.473   7.211   7.291 -1.9105 -4.6649 -1.5008
  821MOL0     H10827   0.305   7.042   7.269 -0.0748  1.3120  1.2580
  821MOL0     H10828   0.335   7.087   7.104  0.3822 -4.0753  1.6208
  821MOL0     H10829   0.115   7.221   7.262 -2.1315 -0.0117 -0.9835
  821MOL0     H10830   0.156   7.236   7.090  1.6813 -0.6835  0.3004
  821MOL0     H10831  -0.088   6.896   7.136 -2.7590  2.3952 -1.2540
  821MOL0     H10832   0.747   7.477   7.283 -3.5141  1.5262  0.6968
  821MOL0     H10833   0.967   7.498   7.309 -1.7277 -4.5947 -0.0233
  821MOL0     H10834   1.006   7.387   7.187 -4.1926 -0.8236 -0.7829
  821MOL0     H10835   1.063   7.559   7.163  0.8618 -0.3708  0.5946
  822MOL0     O10836   8.083   6.215  10.632 -0.2539  0.4104  0.9923
  822MOL0     C10837   8.010   6.257  10.720 -0.0951 -0.3952 -0.5328
  822MOL0     O10838   8.040   6.263  10.851 -0.5718  0.3456 -0.3588
  822MOL0     C10839   8.171   6.216  10.873  0.3103 -0.7189 -0.1961
  822MOL0     C10840   8.298   6.281  10.858 -0.2003  0.0443  0.2487
  822MOL0     C10841   8.416   6.229  10.883 -0.8195 -0.2941 -0.1634
  822MOL0     C10842   8.426   6.094  10.911  0.3969  0.0233  0.0155
  822MOL0     O10843   8.553   6.046  10.936  0.7596 -0.4637 -0.7823
  822MOL0     C10844   8.574   5.905  10.950  0.1967  0.2815 -0.1936
  822MOL0     C10845   8.730   5.877  10.947  0.3705  0.3176  0.4250
  822MOL0     C10846   8.789   5.778  11.047 -0.9049 -0.0693  0.0846
  822MOL0     C10847   8.944   5.774  11.033 -0.4248  0.3566 -0.0913
  822MOL0     C10848   9.018   5.890  11.104  0.0033  0.3713 -0.3528
  822MOL0     C10849   9.163   5.870  11.098 -0.3373  0.1504  0.6958
  822MOL0     C10850   9.232   5.992  11.153  0.1987  0.0585  0.9521
  822MOL0     C10851   9.378   5.959  11.156 -1.2575  0.3394 -0.8634
  822MOL0     N10852   9.455   5.991  11.035  0.2796  0.8053 -0.1244
  822MOL0     C10853   9.524   6.101  11.007 -1.3133  0.0749  0.1623
  822MOL0     C10854   9.582   6.072  10.884 -0.0920 -0.2528 -0.6891
  822MOL0     C10855   9.680   6.163  10.815  0.0969 -0.1067 -0.0790
  822MOL0     C10856   9.826   6.128  10.831 -0.4722 -0.0168  0.1347
  822MOL0     C10857   9.902   6.215  10.920 -0.1194 -0.8637  0.1068
  822MOL0     C10858  10.040   6.168  10.948  0.5818  0.3107 -0.5839
  822MOL0     O10859  10.119   6.188  10.821  0.4259  0.3403 -0.2618
  822MOL0     C10860  10.256   6.183  10.836 -0.3845 -0.5676 -0.4485
  822MOL0     C10861  10.339   6.070  10.806  0.9179 -0.4016 -0.1192
  822MOL0     C10862  10.476   6.084  10.814  0.0387  0.0222 -0.2636
  822MOL0     C10863  10.541   6.203  10.840 -0.1729 -0.2337  0.3691
  822MOL0     C10864  10.688   6.212  10.842  0.0429  0.2524  0.8518
  822MOL0     O10865  10.742   6.091  10.845 -0.3905 -0.6269 -0.1643
  822MOL0     C10866  10.878   6.086  10.861  1.0895  0.0186  0.0234
  822MOL0     C10867  10.955   6.165  10.946 -0.9250  0.4981  0.2099
  822MOL0     C10868  11.088   6.128  10.989 -0.4734  0.7129  0.1647
  822MOL0     C10869  11.137   6.010  10.940  0.0184  0.1793  0.2016
  822MOL0     O10870  11.260   5.961  10.972 -0.4039 -0.2815  0.3982
  822MOL0     C10871  11.324   6.010  11.099 -0.4363 -0.0412  0.8541
  822MOL0     C10872  11.456   5.941  11.122  0.6625  0.5027 -0.0468
  822MOL0     C10873  11.538   5.994  11.235 -0.0748  0.3571 -0.3394
  822MOL0     C10874  11.452   6.059  11.350  0.0933  0.0538 -0.3593
  822MOL0     C10875  11.547   6.096  11.456  0.0589 -0.3844  0.5846
  822MOL0     C10876  11.495   6.172  11.576 -0.1737 -0.0816 -1.3024
  822MOL0     C10877  11.596   6.190  11.686 -0.2044  0.1458 -0.1282
  822MOL0     C10878  11.562   6.313  11.776 -1.0670  0.2569  0.3838
  822MOL0    Cl10879  11.438   6.247  11.888  0.3878 -0.6317  0.5501
  822MOL0     C10880  11.056   5.930  10.857  0.5525 -0.3783  0.7953
  822MOL0     C10881  10.931   5.968  10.814 -0.1056  0.1186 -0.3902
  822MOL0     O10882  10.743   6.319  10.811  0.0881  0.5774  0.2485
  822MOL0     C10883  10.462   6.320  10.861  0.1285  0.1683  0.0655
  822MOL0     C10884  10.323   6.308  10.859  0.2703  0.7592 -0.4105
  822MOL0     N10885   9.548   5.951  10.841 -0.3876  0.5890  0.2910
  822MOL0     N10886   9.464   5.899  10.927 -0.0856 -0.1208 -0.8213
  822MOL0     C10887   8.309   6.022  10.936  0.8037  0.1702 -2.1984
  822MOL0     C10888   8.183   6.082  10.911 -0.6937  0.6784 -0.2096
  822MOL0     C10889   7.879   6.296  10.685  0.3282 -1.0531 -0.4771
  822MOL0     C10890   7.828   6.240  10.562 -0.1460 -0.5515 -0.3829
  822MOL0     C10891   7.697   6.253  10.521 -0.1195  0.2206 -0.1826
  822MOL0     C10892   7.605   6.330  10.592  0.1735  0.1626 -0.3744
  822MOL0     O10893   7.484   6.370  10.548 -0.3030  0.2415 -0.3466
  822MOL0     C10894   7.441   6.326  10.419  0.1326 -0.2200  0.3926
  822MOL0     C10895   7.299   6.373  10.391  0.5494 -0.6755  0.7529
  822MOL0     C10896   7.263   6.515  10.433 -0.2555  0.4622  0.5518
  822MOL0     C10897   7.125   6.571  10.395 -0.3591 -0.1604 -1.0691
  822MOL0     C10898   7.015   6.522  10.469 -0.9660 -0.5532 -0.1881
  822MOL0     C10899   6.928   6.497  10.546  0.8179 -0.5027  0.3401
  822MOL0     C10900   7.655   6.403  10.703  1.0062 -0.0458  0.2511
  822MOL0     C10901   7.789   6.382  10.755  0.7050  0.0371 -0.0980
  822MOL0     C10902   7.827   6.455  10.888  0.0773  0.0145  0.1103
  822MOL0     H10903   8.295   6.386  10.830  1.2071 -0.3199 -1.4651
  822MOL0     H10904   8.505   6.291  10.874  0.4360 -2.2007 -1.8110
  822MOL0     H10905   8.527   5.880  11.045  1.8256 -0.0833  0.5499
  822MOL0     H10906   8.532   5.842  10.870  1.0126 -3.8394  2.3503
  822MOL0     H10907   8.776   5.975  10.963 -0.6880  1.2314 -1.6687
  822MOL0     H10908   8.766   5.852  10.847 -1.8413 -0.4803 -0.2374
  822MOL0     H10909   8.751   5.677  11.033 -3.0559 -0.3266  5.5707
  822MOL0     H10910   8.762   5.805  11.149 -1.3278 -0.4984  0.0894
  822MOL0     H10911   8.970   5.684  11.088  2.2538  1.3626  0.4326
  822MOL0     H10912   8.968   5.768  10.926 -0.2538 -0.9074  0.0080
  822MOL0     H10913   8.987   5.985  11.060  0.1731 -0.5812 -2.6906
  822MOL0     H10914   8.984   5.895  11.208 -0.5999 -0.2085 -0.5133
  822MOL0     H10915   9.185   5.782  11.158 -0.1559 -0.1688  0.1754
  822MOL0     H10916   9.193   5.841  10.996  0.0539 -0.9048  1.0999
  822MOL0     H10917   9.189   6.013  11.251 -0.7005 -5.3242  2.0324
  822MOL0     H10918   9.223   6.077  11.084  0.5479  0.0940  0.9474
  822MOL0     H10919   9.414   6.017  11.241 -0.4939 -0.0908 -0.8868
  822MOL0     H10920   9.391   5.853  11.181  1.4341  0.2286 -2.3440
  822MOL0     H10921   9.536   6.190  11.068  0.0490  0.1941 -0.2596
  822MOL0     H10922   9.656   6.174  10.709  0.1222  0.9770  0.0097
  822MOL0     H10923   9.663   6.265  10.852  3.3136 -0.1237  1.8566
  822MOL0     H10924   9.837   6.029  10.876  1.5731 -0.0084 -0.2534
  822MOL0     H10925   9.876   6.129  10.733 -0.9678  1.6077 -0.1315
  822MOL0     H10926   9.844   6.215  11.013  0.4324  1.6349  0.5185
  822MOL0     H10927   9.906   6.319  10.887  0.3663 -1.0710 -0.4947
  822MOL0     H10928  10.033   6.062  10.974  0.0569  0.0040 -1.8801
  822MOL0     H10929  10.086   6.217  11.034  0.9181 -0.8292 -0.1036
  822MOL0     H10930  10.291   5.974  10.791 -0.1757  0.1370 -0.1775
  822MOL0     H10931  10.538   6.004  10.774  1.6162  1.5475 -1.0669
  822MOL0     H10932  10.923   6.252  11.003  1.3482  0.5274  1.5771
  822MOL0     H10933  11.144   6.198  11.050  1.7526  3.0125 -4.0459
  822MOL0     H10934  11.344   6.116  11.080  0.5042 -0.4903 -0.9443
  822MOL0     H10935  11.267   5.999  11.191 -1.2504 -4.3039  0.0755
  822MOL0     H10936  11.449   5.835  11.148  3.5112  0.6557  1.8410
  822MOL0     H10937  11.514   5.960  11.031 -1.3849  0.3586 -1.4402
  822MOL0     H10938  11.597   5.909  11.271  0.1077  0.5364 -0.2131
  822MOL0     H10939  11.612   6.067  11.202  0.3500  0.4751  0.8496
  822MOL0     H10940  11.368   6.005  11.395  1.4586 -0.3417  1.8792
  822MOL0     H10941  11.413   6.152  11.308 -0.5279 -1.4458 -3.3909
  822MOL0     H10942  11.633   6.147  11.411 -0.1175 -1.6999 -1.4023
  822MOL0     H10943  11.593   6.009  11.503 -0.0331 -2.0459 -2.1641
  822MOL0     H10944  11.470   6.271  11.538  1.0390  0.9216  0.3714
  822MOL0     H10945  11.406   6.129  11.625  0.8028 -0.8257 -0.1302
  822MOL0     H10946  11.691   6.203  11.633  1.6400 -0.4927  2.7995
  822MOL0     H10947  11.615   6.095  11.738 -3.5452 -1.5598 -1.6748
  822MOL0     H10948  11.647   6.352  11.832 -0.2276  1.6907 -1.7515
  822MOL0     H10949  11.520   6.393  11.714  0.9671  0.0278 -1.4117
  822MOL0     H10950  11.102   5.837  10.828  0.0508 -0.1682 -0.7955
  822MOL0     H10951  10.873   5.902  10.751 -2.1368  1.5091 -0.0801
  822MOL0     H10952  10.513   6.415  10.859 -1.6909  1.1946 -1.9388
  822MOL0     H10953  10.259   6.396  10.864 -2.1046 -0.6956 -2.5531
  822MOL0     H10954   8.303   5.918  10.967 -0.7882  0.4771 -1.3567
  822MOL0     H10955   8.103   6.009  10.924  0.4338 -0.4414  0.7897
  822MOL0     H10956   7.894   6.184  10.497  2.2858  1.4002  0.2357
  822MOL0     H10957   7.662   6.196  10.436  2.4801 -3.1138  0.7299
  822MOL0     H10958   7.445   6.217  10.403  0.3151 -0.3647  1.3432
  822MOL0     H10959   7.509   6.370  10.346 -3.1318  4.3230 -0.3300
  822MOL0     H10960   7.234   6.295  10.431 -1.0137  0.1515 -0.0975
  822MOL0     H10961   7.286   6.369  10.282  0.9196 -1.6198  0.7281
  822MOL0     H10962   7.345   6.572  10.388  0.8358 -1.4892 -0.0393
  822MOL0     H10963   7.280   6.534  10.540 -0.6870  2.1363  0.3565
  822MOL0     H10964   7.133   6.680  10.398 -0.2923 -0.1447 -1.6333
  822MOL0     H10965   7.107   6.548  10.289  1.8099 -0.6580 -1.3908
  822MOL0     H10966   6.852   6.470  10.616  1.7754 -3.4095  0.4033
  822MOL0     H10967   7.587   6.469  10.756  0.6314 -1.8188  2.1116
  822MOL0     H10968   7.803   6.383  10.966  0.0440 -0.8893 -0.7056
  822MOL0     H10969   7.934   6.477  10.892 -0.1732  1.0909  1.5408
  822MOL0     H10970   7.768   6.546  10.903 -0.3142 -0.0654 -0.8568
  823MOL0     O10971   6.582   1.291  11.105 -0.2476  1.0023  0.6273
  823MOL0     C10972   6.585   1.236  11.211 -0.8140 -0.0202 -0.4353
  823MOL0     O10973   6.491   1.144  11.265 -0.4896 -0.0799  0.2160
  823MOL0     C10974   6.379   1.082  11.201 -0.6837 -0.9924  0.1918
  823MOL0     C10975   6.363   1.080  11.061  0.0326  0.9591  0.0290
  823MOL0     C10976   6.254   1.009  11.004  0.1706  0.3479 -0.4578
  823MOL0     C10977   6.164   0.939  11.087  0.2319 -0.3759  0.0639
  823MOL0     O10978   6.059   0.868  11.037  0.2358 -1.0239 -0.2942
  823MOL0     C10979   6.033   0.870  10.896  0.2644  0.5166  0.0623
  823MOL0     C10980   5.941   0.752  10.882  0.6404  0.5421  0.3217
  823MOL0     C10981   5.907   0.733  10.736  0.0793 -0.4707  0.1541
  823MOL0     C10982   5.797   0.633  10.713 -0.1896 -0.4956  0.0389
  823MOL0     C10983   5.786   0.598  10.564  0.1363 -0.8083 -0.0524
  823MOL0     C10984   5.701   0.471  10.552 -0.1245 -0.0307 -0.4145
  823MOL0     C10985   5.688   0.422  10.414  0.2534 -0.4190  0.0154
  823MOL0     C10986   5.550   0.453  10.359  0.5958 -0.1267  0.4916
  823MOL0     N10987   5.524   0.362  10.245  0.0537 -0.3547 -0.2211
  823MOL0     C10988   5.530   0.398  10.115  0.6147  0.1380  0.3172
  823MOL0     C10989   5.541   0.279  10.044 -0.2516 -0.6136 -0.2275
  823MOL0     C10990   5.537   0.269   9.886 -0.1123  0.1028  1.2231
  823MOL0     C10991   5.442   0.140   9.846  0.1552 -0.5553 -0.6400
  823MOL0     C10992   5.440   0.111   9.700 -0.5411 -0.5935  0.6152
  823MOL0     C10993   5.374   0.219   9.615  0.2661 -0.2432  0.3111
  823MOL0     O10994   5.227   0.222   9.637  0.0653  0.3573  0.1910
  823MOL0     C10995   5.184   0.351   9.638 -0.2111 -0.7475  0.1442
  823MOL0     C10996   5.081   0.387   9.552  0.3912 -0.5929  1.2318
  823MOL0     C10997   5.026   0.511   9.546  0.5813 -0.5493  0.3117
  823MOL0     C10998   5.064   0.606   9.633 -0.1577  0.1123  0.4433
  823MOL0     C10999   5.008   0.744   9.631 -0.2412  0.2152  0.2408
  823MOL0     O11000   5.033   0.811   9.743  0.0794  0.0320 -0.1566
  823MOL0     C11001   4.952   0.914   9.788  0.5703  0.1704  0.6131
  823MOL0     C11002   4.807   0.897   9.782 -0.0402 -0.1372 -0.1899
  823MOL0     C11003   4.727   0.998   9.842 -0.6324  0.8607  0.3989
  823MOL0     C11004   4.781   1.109   9.896  0.5791  0.5153 -0.3660
  823MOL0     O11005   4.708   1.207   9.962  0.3488 -0.1134 -0.4658
  823MOL0     C11006   4.563   1.213   9.944 -0.4165  0.6593  0.8758
  823MOL0     C11007   4.496   1.127  10.051  0.3336  0.6605  0.1086
  823MOL0     C11008   4.530   1.150  10.197 -0.2957 -0.9741  0.4465
  823MOL0     C11009   4.544   1.302  10.225  0.3270  0.0580 -0.8011
  823MOL0     C11010   4.538   1.332  10.373  0.7170  0.2406  0.6460
  823MOL0     C11011   4.656   1.265  10.452  0.3731  0.8564 -0.6093
  823MOL0     C11012   4.669   1.302  10.603  0.4626 -0.1424  0.2731
  823MOL0     C11013   4.784   1.215  10.664 -0.2481  0.5853 -0.3648
  823MOL0    Cl11014   4.945   1.268  10.600 -0.0207  0.1351  0.4175
  823MOL0     C11015   4.923   1.127   9.890 -0.2680  0.0552 -0.6136
  823MOL0     C11016   5.004   1.031   9.845  0.1291  0.0844  0.1312
  823MOL0     O11017   4.955   0.794   9.533  0.2192 -0.2557  0.2563
  823MOL0     C11018   5.178   0.583   9.712 -0.5772  0.5171 -0.3433
  823MOL0     C11019   5.233   0.456   9.716  0.3200  0.1245  0.2223
  823MOL0     N11020   5.542   0.169  10.136 -0.8298  0.0907 -0.0269
  823MOL0     N11021   5.525   0.226  10.249 -0.3413 -0.0634 -0.7411
  823MOL0     C11022   6.193   0.940  11.228  1.1323 -0.6224  0.3914
  823MOL0     C11023   6.296   1.010  11.283 -0.1117 -0.2144 -0.6494
  823MOL0     C11024   6.700   1.277  11.302 -0.4565 -0.0845 -0.8852
  823MOL0     C11025   6.687   1.232  11.440  0.3996 -1.3690 -0.6859
  823MOL0     C11026   6.789   1.261  11.531 -0.6276  0.1859 -0.6520
  823MOL0     C11027   6.898   1.338  11.491 -0.1462  1.2033  0.2697
  823MOL0     O11028   7.007   1.363  11.574 -0.2739 -0.1757 -0.6188
  823MOL0     C11029   7.034   1.281  11.685  0.0388  0.6172  0.3396
  823MOL0     C11030   7.177   1.308  11.729  0.1207  0.0081  0.1464
  823MOL0     C11031   7.198   1.447  11.792 -0.0390 -0.4403 -0.6879
  823MOL0     C11032   7.149   1.572  11.720 -0.9562 -0.1195 -0.8019
  823MOL0     C11033   7.208   1.696  11.770 -0.8404  0.1962  0.0386
  823MOL0     C11034   7.262   1.792  11.806  0.3402  0.2586  0.4778
  823MOL0     C11035   6.921   1.373  11.353  0.1997  0.3742  0.1421
  823MOL0     C11036   6.821   1.340  11.259  0.2031 -0.9670  0.6256
  823MOL0     C11037   6.849   1.371  11.117  0.3110 -1.1672  0.8247
  823MOL0     H11038   6.432   1.139  11.002  1.6732 -0.2511  0.6765
  823MOL0     H11039   6.252   1.013  10.895 -0.3482 -2.0142 -0.5917
  823MOL0     H11040   5.984   0.962  10.863 -0.3845  1.0712  2.4283
  823MOL0     H11041   6.122   0.843  10.838  0.3845 -0.1413  0.5391
  823MOL0     H11042   5.848   0.754  10.940 -0.6832  0.4900 -1.6905
  823MOL0     H11043   5.990   0.659  10.914  1.7239  0.7871 -0.5692
  823MOL0     H11044   5.993   0.722  10.670 -0.6822  2.2209 -1.4290
  823MOL0     H11045   5.876   0.836  10.716  0.4509 -0.3658  0.1124
  823MOL0     H11046   5.825   0.546  10.772  4.4168  0.7626  0.0800
  823MOL0     H11047   5.701   0.674  10.746  0.7671  1.4539  0.5709
  823MOL0     H11048   5.742   0.687  10.518  2.1162  0.6881  0.7613
  823MOL0     H11049   5.885   0.587  10.518 -0.6320  2.4605 -2.9152
  823MOL0     H11050   5.747   0.396  10.617  2.0341 -0.2590 -2.0972
  823MOL0     H11051   5.607   0.502  10.599  2.2237  0.2939  4.7193
  823MOL0     H11052   5.696   0.313  10.406 -1.0582 -0.4720 -1.0041
  823MOL0     H11053   5.759   0.475  10.350  0.3592  1.6947  1.7678
  823MOL0     H11054   5.473   0.432  10.435  0.8677  0.4424  0.9321
  823MOL0     H11055   5.543   0.557  10.325 -1.4366  0.0107  1.1525
  823MOL0     H11056   5.520   0.500  10.081 -0.8662  0.5051  1.7307
  823MOL0     H11057   5.501   0.366   9.852  1.3310  0.5836  1.0107
  823MOL0     H11058   5.636   0.256   9.842 -1.5099 -2.5336 -1.6128
  823MOL0     H11059   5.487   0.056   9.900  2.3529 -0.2437 -1.8923
  823MOL0     H11060   5.347   0.174   9.888  1.1631  0.7199  0.7233
  823MOL0     H11061   5.379   0.021   9.681 -3.6313  1.6818 -1.2358
  823MOL0     H11062   5.540   0.083   9.667 -0.1472 -2.4308  3.0531
  823MOL0     H11063   5.403   0.193   9.513  2.1099 -1.5605  1.1160
  823MOL0     H11064   5.426   0.314   9.634  0.0594  0.0267 -0.4438
  823MOL0     H11065   5.029   0.324   9.481 -1.1021  2.1456 -0.2818
  823MOL0     H11066   4.945   0.537   9.478  1.5783  1.8526 -0.0196
  823MOL0     H11067   4.763   0.812   9.732  0.4831 -0.3692 -0.2580
  823MOL0     H11068   4.620   0.986   9.855 -1.0675  0.4927 -2.8698
  823MOL0     H11069   4.535   1.318   9.960  0.6271  0.7254  2.4930
  823MOL0     H11070   4.538   1.179   9.842  0.2364 -0.5150  1.0907
  823MOL0     H11071   4.391   1.154  10.036  0.2014 -0.1478 -0.5059
  823MOL0     H11072   4.499   1.019  10.031  2.0985  0.7076  0.0032
  823MOL0     H11073   4.449   1.102  10.254 -1.1551 -0.4161 -0.2667
  823MOL0     H11074   4.627   1.105  10.218 -0.1851 -0.6354  0.6715
  823MOL0     H11075   4.461   1.352  10.173  0.2016  2.3388  1.4083
  823MOL0     H11076   4.636   1.343  10.184  0.6250 -0.2443 -0.4366
  823MOL0     H11077   4.445   1.287  10.411  2.2727 -2.1405  1.8759
  823MOL0     H11078   4.534   1.441  10.377 -0.7997  0.1803  1.7016
  823MOL0     H11079   4.650   1.157  10.434  0.9371  0.6392  0.4606
  823MOL0     H11080   4.745   1.302  10.402 -0.1673  1.0027 -1.4951
  823MOL0     H11081   4.573   1.282  10.653 -0.2151  3.7378  0.8145
  823MOL0     H11082   4.681   1.410  10.616  1.3318 -0.4709  2.8480
  823MOL0     H11083   4.782   1.235  10.771  1.0153 -1.1380  0.0292
  823MOL0     H11084   4.760   1.112  10.638 -0.7683  0.9843 -1.5117
  823MOL0     H11085   4.964   1.218   9.933 -0.9837 -0.2852  0.8703
  823MOL0     H11086   5.111   1.032   9.861 -0.0121 -0.3544  1.2428
  823MOL0     H11087   5.216   0.666   9.771  3.8550 -1.4265 -0.0073
  823MOL0     H11088   5.310   0.429   9.788 -0.1601  0.1632  0.7535
  823MOL0     H11089   6.124   0.883  11.291 -1.7682 -0.8561 -2.6706
  823MOL0     H11090   6.319   1.007  11.389  3.6664  0.6061 -1.2836
  823MOL0     H11091   6.600   1.183  11.482 -1.3503  2.7461  1.0152
  823MOL0     H11092   6.781   1.239  11.637 -1.0314  3.5243  0.1019
  823MOL0     H11093   7.015   1.175  11.662 -2.0744  1.2315 -1.0002
  823MOL0     H11094   6.963   1.292  11.767  0.5047  0.2945  0.7966
  823MOL0     H11095   7.254   1.279  11.657 -2.3456 -0.1112 -2.6355
  823MOL0     H11096   7.203   1.243  11.814  2.8255  0.1395 -0.4755
  823MOL0     H11097   7.305   1.460  11.808 -0.4140  1.3310  0.6146
  823MOL0     H11098   7.152   1.447  11.891  0.7818 -0.9528 -0.3000
  823MOL0     H11099   7.163   1.571  11.612  1.7576  0.4915 -0.5366
  823MOL0     H11100   7.041   1.582  11.737 -0.4679  4.9437  1.0825
  823MOL0     H11101   7.312   1.880  11.843 -0.8141  1.2441 -0.2451
  823MOL0     H11102   7.015   1.420  11.326  0.6244 -1.2298 -1.4437
  823MOL0     H11103   6.812   1.282  11.065 -2.0185  0.8046 -1.1838
  823MOL0     H11104   6.799   1.457  11.072  1.5574 -1.3183 -0.9718
  823MOL0     H11105   6.958   1.374  11.106  0.4077 -2.4718  1.2658
  824MOL0     O11106   2.330   7.054   0.603 -1.1229 -0.3313 -0.3888
  824MOL0     C11107   2.301   7.055   0.486  0.6353 -0.4607  0.0192
  824MOL0     O11108   2.185   7.006   0.435  0.1687  0.1302 -0.6827
  824MOL0     C11109   2.075   6.995   0.523 -0.2751  0.9213  0.8371
  824MOL0     C11110   2.043   7.101   0.611  1.0615 -0.1872  1.1008
  824MOL0     C11111   1.928   7.090   0.687 -0.0846 -0.3153 -0.0709
  824MOL0     C11112   1.832   6.986   0.669 -0.2358 -0.1663  0.2712
  824MOL0     O11113   1.724   6.980   0.749 -0.0001  0.6074  1.0983
  824MOL0     C11114   1.607   6.902   0.697  0.2807 -0.3440 -0.6933
  824MOL0     C11115   1.492   6.955   0.786  0.5807  0.7336  0.2870
  824MOL0     C11116   1.354   6.894   0.721 -0.8225 -0.7049  0.2340
  824MOL0     C11117   1.230   6.950   0.784  0.0239  0.7242  0.5186
  824MOL0     C11118   1.098   6.881   0.729 -0.0908  0.3649  0.6973
  824MOL0     C11119   0.975   6.953   0.785  1.1288 -0.0108  0.6144
  824MOL0     C11120   0.845   6.889   0.722 -0.3815 -0.0898 -0.2659
  824MOL0     C11121   0.731   6.994   0.740 -0.9609  0.4583 -0.0067
  824MOL0     N11122   0.694   7.032   0.872 -0.1170  0.3693 -0.9608
  824MOL0     C11123   0.625   6.958   0.968 -0.7290 -0.9748  1.1104
  824MOL0     C11124   0.613   7.040   1.072  1.4254  0.1866 -0.5168
  824MOL0     C11125   0.560   7.006   1.208  0.7638  0.3593  0.2535
  824MOL0     C11126   0.675   6.969   1.298  0.1313 -0.5185 -0.1949
  824MOL0     C11127   0.628   6.898   1.418  0.0017  1.3933  0.0526
  824MOL0     C11128   0.595   6.983   1.545  0.2285  0.4452  0.5974
  824MOL0     O11129   0.479   7.069   1.521  0.0665  0.3224  0.1680
  824MOL0     C11130   0.355   7.026   1.545  0.5538  0.2393  0.6997
  824MOL0     C11131   0.258   7.127   1.559  0.1481  0.4247 -0.3764
  824MOL0     C11132   0.146   7.103   1.636 -0.3607  0.0105 -0.9334
  824MOL0     C11133   0.105   6.968   1.650  0.5448  0.9567 -0.3569
  824MOL0     C11134  -0.036   6.936   1.698 -1.1366 -0.3298 -1.0545
  824MOL0     O11135  -0.071   6.809   1.718  0.2526  0.1300  0.2879
  824MOL0     C11136  -0.201   6.773   1.755 -0.0784 -0.0801 -0.0866
  824MOL0     C11137  -0.319   6.816   1.684  0.7890  0.2187  0.3900
  824MOL0     C11138  -0.442   6.775   1.734 -0.0778  0.0818 -0.0515
  824MOL0     C11139  -0.455   6.696   1.847 -0.0458  0.0950 -0.0041
  824MOL0     O11140  -0.574   6.642   1.897 -0.5020 -0.1494 -0.3484
  824MOL0     C11141  -0.690   6.712   1.856  0.4797  0.8344 -0.9711
  824MOL0     C11142  -0.787   6.677   1.969  0.2389  0.9869  0.3437
  824MOL0     C11143  -0.930   6.719   1.931  0.4344 -0.1756 -0.3681
  824MOL0     C11144  -1.019   6.671   2.054 -0.8175  0.3311 -0.4770
  824MOL0     C11145  -1.161   6.736   2.045  0.6579  0.4309 -0.6390
  824MOL0     C11146  -1.249   6.698   2.164 -0.1722 -0.1279 -0.0016
  824MOL0     C11147  -1.396   6.750   2.143 -0.8679 -0.4563  0.5207
  824MOL0     C11148  -1.416   6.903   2.155 -0.5771 -0.4090  0.8711
  824MOL0    Cl11149  -1.592   6.931   2.151  0.1727 -0.1342  0.0946
  824MOL0     C11150  -0.338   6.656   1.918 -0.6979  0.4224  0.6910
  824MOL0     C11151  -0.209   6.692   1.869  0.6447  0.2224  0.3394
  824MOL0     O11152  -0.113   7.029   1.698  0.2106  0.1841  0.0702
  824MOL0     C11153   0.188   6.860   1.611  0.0939  1.2538 -0.3576
  824MOL0     C11154   0.318   6.888   1.565 -0.3928 -0.6939  0.5015
  824MOL0     N11155   0.680   7.153   1.051  0.3872 -0.3920 -0.1029
  824MOL0     N11156   0.723   7.155   0.928 -0.7071 -0.8758  0.2930
  824MOL0     C11157   1.875   6.885   0.582  0.5834 -0.5654  0.2967
  824MOL0     C11158   1.984   6.888   0.504 -0.9116 -0.5593 -0.9958
  824MOL0     C11159   2.402   7.090   0.386 -0.3873  0.5539  0.4638
  824MOL0     C11160   2.406   7.026   0.265 -0.1057  1.1665  0.2256
  824MOL0     C11161   2.503   7.046   0.161  0.8667  0.2592 -0.0862
  824MOL0     C11162   2.611   7.133   0.190  0.0859  0.0830  0.1255
  824MOL0     O11163   2.715   7.172   0.104 -0.8369  0.0659 -0.2240
  824MOL0     C11164   2.736   7.116  -0.029  0.3852 -0.5719  0.4175
  824MOL0     C11165   2.860   7.190  -0.090 -0.4945 -0.7812 -0.6874
  824MOL0     C11166   2.992   7.145  -0.021 -0.7481  0.1073  0.1340
  824MOL0     C11167   3.124   7.184  -0.095 -0.3580  0.1728 -0.1918
  824MOL0     C11168   3.142   7.107  -0.221 -0.8429 -0.2788  1.4992
  824MOL0     C11169   3.147   7.051  -0.337 -0.0918  0.2457 -0.3274
  824MOL0     C11170   2.609   7.200   0.318  0.0763 -0.2978 -0.2247
  824MOL0     C11171   2.506   7.182   0.412  0.3479 -1.5491  0.3490
  824MOL0     C11172   2.484   7.267   0.545 -0.6405  0.5459 -0.1448
  824MOL0     H11173   2.114   7.181   0.625  0.4200  0.0197  3.5521
  824MOL0     H11174   1.923   7.170   0.760  1.8323 -1.8393  1.8954
  824MOL0     H11175   1.592   6.937   0.595  3.0772  0.1378 -0.9993
  824MOL0     H11176   1.630   6.796   0.712  2.4969  0.2899  0.9578
  824MOL0     H11177   1.491   7.064   0.779  4.1082  0.8235 -0.6104
  824MOL0     H11178   1.496   6.916   0.888  0.0019  0.5699  0.2512
  824MOL0     H11179   1.360   6.785   0.722  0.4418 -0.6488  1.7956
  824MOL0     H11180   1.352   6.918   0.615 -0.4227  0.2948  0.4462
  824MOL0     H11181   1.242   6.927   0.890  1.1086 -0.2372  0.2097
  824MOL0     H11182   1.231   7.059   0.770 -0.0596  0.5823 -0.6883
  824MOL0     H11183   1.093   6.870   0.620 -0.2100  0.7767  0.6603
  824MOL0     H11184   1.089   6.780   0.771 -0.3154  0.5254  1.0423
  824MOL0     H11185   0.971   6.958   0.895 -0.3766 -0.6363  0.6168
  824MOL0     H11186   0.983   7.058   0.756 -2.1371 -0.1297 -1.1978
  824MOL0     H11187   0.829   6.791   0.767 -1.7285  0.9905  1.7769
  824MOL0     H11188   0.854   6.876   0.614  0.2619 -1.6925 -0.0445
  824MOL0     H11189   0.762   7.083   0.685  2.3196  0.1964  1.1974
  824MOL0     H11190   0.643   6.953   0.688  1.8863 -2.5897 -2.9372
  824MOL0     H11191   0.600   6.857   0.937  1.1563 -0.0666 -4.4092
  824MOL0     H11192   0.500   7.081   1.260  1.9635  1.7626 -0.3034
  824MOL0     H11193   0.494   6.920   1.192  1.7397 -0.5078  0.7205
  824MOL0     H11194   0.739   6.898   1.245  0.4804 -0.7974  0.5845
  824MOL0     H11195   0.745   7.047   1.329  0.2948 -1.4518  1.9324
  824MOL0     H11196   0.706   6.836   1.464 -1.1041  0.4748  0.7338
  824MOL0     H11197   0.543   6.833   1.398  1.0180  0.1928 -0.5156
  824MOL0     H11198   0.662   7.069   1.560 -2.5169  2.7208  0.6632
  824MOL0     H11199   0.583   6.922   1.634 -3.2812  1.8754  1.2871
  824MOL0     H11200   0.293   7.223   1.525  0.8672  0.5837  0.7406
  824MOL0     H11201   0.083   7.186   1.665 -0.5919 -0.0963 -1.1277
  824MOL0     H11202  -0.298   6.884   1.602 -2.7510  2.7856  1.3431
  824MOL0     H11203  -0.535   6.808   1.687 -0.4713 -0.2282  0.5078
  824MOL0     H11204  -0.676   6.820   1.849 -0.0689  0.9597 -0.2174
  824MOL0     H11205  -0.722   6.682   1.756  0.3503 -0.3999 -0.5776
  824MOL0     H11206  -0.789   6.568   1.977 -0.9440  0.7431 -2.1571
  824MOL0     H11207  -0.762   6.724   2.064 -1.3465 -0.7727  1.7197
  824MOL0     H11208  -0.926   6.827   1.919  0.6981 -0.2733 -1.2201
  824MOL0     H11209  -0.974   6.678   1.840 -0.1704 -0.4227  0.0275
  824MOL0     H11210  -0.961   6.688   2.145 -1.8351 -5.1822  1.5577
  824MOL0     H11211  -1.031   6.564   2.037  1.6593  0.2780 -2.5943
  824MOL0     H11212  -1.210   6.717   1.949 -0.6474  5.1572 -1.1669
  824MOL0     H11213  -1.146   6.844   2.042  0.6748  0.4616 -4.2648
  824MOL0     H11214  -1.248   6.589   2.150 -1.7748 -0.0264 -1.1943
  824MOL0     H11215  -1.216   6.728   2.264  0.4163 -3.0577  0.7749
  824MOL0     H11216  -1.467   6.706   2.214  0.4199 -1.1677  1.4177
  824MOL0     H11217  -1.426   6.710   2.046 -0.7340  1.0278 -0.1682
  824MOL0     H11218  -1.370   6.940   2.247  3.6637  0.8173 -1.4463
  824MOL0     H11219  -1.365   6.956   2.073 -0.1232 -0.9449  0.7961
  824MOL0     H11220  -0.353   6.588   2.002 -1.9899  0.5633  0.5999
  824MOL0     H11221  -0.124   6.660   1.929 -0.3787 -0.1576  1.6420
  824MOL0     H11222   0.148   6.760   1.599  2.9070  0.4229 -5.9253
  824MOL0     H11223   0.376   6.797   1.551  0.6857 -0.3267  2.2665
  824MOL0     H11224   1.812   6.796   0.579  0.2205 -0.2831 -1.8625
  824MOL0     H11225   2.012   6.807   0.437 -0.7087 -0.5978 -0.8634
  824MOL0     H11226   2.334   6.948   0.242  0.7342  0.0825  1.1240
  824MOL0     H11227   2.486   6.995   0.067 -2.4534  0.7597  0.1198
  824MOL0     H11228   2.652   7.134  -0.096  0.3896  5.5222  1.5323
  824MOL0     H11229   2.750   7.008  -0.017  2.4928 -0.1867  1.9750
  824MOL0     H11230   2.845   7.298  -0.087 -0.3942 -0.6724 -2.5662
  824MOL0     H11231   2.847   7.166  -0.196 -1.5194 -1.7157 -0.3700
  824MOL0     H11232   2.999   7.039   0.006 -1.8072  0.4186  1.8168
  824MOL0     H11233   3.004   7.204   0.071  0.4604 -0.5625  0.4208
  824MOL0     H11234   3.123   7.286  -0.133  2.3640  0.4703  0.2991
  824MOL0     H11235   3.209   7.155  -0.031 -1.6072 -1.2083  0.9409
  824MOL0     H11236   3.161   6.989  -0.424 -1.0239 -2.3414  1.2471
  824MOL0     H11237   2.691   7.267   0.341  3.2711 -3.6592 -0.7986
  824MOL0     H11238   2.536   7.362   0.526  0.7830 -0.0651  0.5821
  824MOL0     H11239   2.382   7.295   0.573  0.5609  3.5759  1.6752
  824MOL0     H11240   2.523   7.218   0.634 -1.9892  0.5254  0.4489
  825MOL0     O11241   9.009   9.063   1.053  0.0588 -0.2292  0.7245
  825MOL0     C11242   8.987   9.166   0.983 -0.2720  0.5448 -0.2502
  825MOL0     O11243   9.077   9.262   0.962 -0.2695 -0.1674  0.1119
  825MOL0     C11244   9.206   9.235   0.919  0.2158 -0.3643 -0.8113
  825MOL0     C11245   9.255   9.112   0.878 -0.7453  0.3173  0.5004
  825MOL0     C11246   9.393   9.096   0.843  0.1861 -0.2936 -0.5371
  825MOL0     C11247   9.488   9.204   0.848  1.4187  0.0199 -0.8137
  825MOL0     O11248   9.613   9.177   0.827  0.1010  0.2713 -0.0377
  825MOL0     C11249   9.665   9.259   0.727  0.1299  0.7253 -0.2824
  825MOL0     C11250   9.762   9.357   0.783 -0.1999  0.5337  0.0950
  825MOL0     C11251   9.899   9.297   0.788  0.0303 -0.1047  0.6312
  825MOL0     C11252  10.011   9.400   0.809  0.9224  0.3456  0.1328
  825MOL0     C11253  10.154   9.341   0.823  0.6154  0.8968  0.5655
  825MOL0     C11254  10.247   9.454   0.774 -0.3173 -0.6681  0.2685
  825MOL0     C11255  10.401   9.424   0.799 -0.4014  0.1504  0.6969
  825MOL0     C11256  10.430   9.407   0.948  0.2676  0.0277 -0.2585
  825MOL0     N11257  10.568   9.424   0.990 -0.4502  0.4940  0.9460
  825MOL0     C11258  10.632   9.337   1.074 -0.1799  0.1849  0.4728
  825MOL0     C11259  10.761   9.383   1.071 -0.0536 -0.8800 -0.1866
  825MOL0     C11260  10.878   9.313   1.135  0.6809  0.7461  1.1819
  825MOL0     C11261  10.980   9.260   1.019  1.2475 -1.8247 -0.1813
  825MOL0     C11262  11.101   9.179   1.088  0.7621 -1.0966 -0.0760
  825MOL0     C11263  11.203   9.129   0.986 -0.5148  0.3625 -0.3664
  825MOL0     O11264  11.152   9.030   0.895 -0.4280  0.6619  0.0810
  825MOL0     C11265  11.163   8.894   0.923  0.3175 -1.0029  0.7664
  825MOL0     C11266  11.112   8.806   0.825 -0.3881 -0.0880  0.0673
  825MOL0     C11267  11.104   8.667   0.848 -0.6871  0.6772 -0.7287
  825MOL0     C11268  11.140   8.612   0.974  0.4073  0.6100 -0.2288
  825MOL0     C11269  11.124   8.471   1.012  0.3152 -0.5742 -0.2582
  825MOL0     O11270  11.078   8.384   0.918  0.2340  0.3673 -0.3651
  825MOL0     C11271  11.010   8.269   0.957  0.1032 -0.3445 -0.3237
  825MOL0     C11272  11.007   8.157   0.871 -0.4018 -0.1921  1.1268
  825MOL0     C11273  10.929   8.049   0.905 -0.4144 -0.6216  0.2787
  825MOL0     C11274  10.852   8.048   1.021  1.0368  1.1427  0.6497
  825MOL0     O11275  10.795   7.922   1.037 -0.2934  0.0348 -0.0645
  825MOL0     C11276  10.724   7.895   1.160  0.8902 -0.1763 -0.4680
  825MOL0     C11277  10.666   7.759   1.164 -0.5455  0.0557  0.5787
  825MOL0     C11278  10.537   7.759   1.096 -0.2011  0.5835  0.1053
  825MOL0     C11279  10.460   7.626   1.097  0.4816  0.5318  0.6361
  825MOL0     C11280  10.317   7.638   1.036  0.3292 -0.3774 -0.6695
  825MOL0     C11281  10.255   7.498   1.004  0.3369 -0.2297  0.0741
  825MOL0     C11282  10.103   7.500   0.957  0.4682 -1.0153  0.0610
  825MOL0     C11283  10.070   7.361   0.908 -0.2570 -1.0825 -0.1700
  825MOL0    Cl11284  10.105   7.239   1.034  0.1705  0.1966  0.6396
  825MOL0     C11285  10.861   8.156   1.105 -0.6754 -0.3660 -0.1361
  825MOL0     C11286  10.934   8.268   1.070  0.5346  0.4951  0.5787
  825MOL0     O11287  11.152   8.432   1.119 -0.3274  0.3187 -0.7305
  825MOL0     C11288  11.196   8.697   1.063 -0.2128  0.0483 -0.4442
  825MOL0     C11289  11.215   8.833   1.037 -0.0150  0.3680 -0.3671
  825MOL0     N11290  10.761   9.512   1.010 -0.2191  0.0786 -0.4170
  825MOL0     N11291  10.643   9.533   0.960 -0.3582 -0.6040 -0.3712
  825MOL0     C11292   9.440   9.327   0.902 -0.2423 -0.0807 -0.2952
  825MOL0     C11293   9.301   9.343   0.929  0.1766 -0.1532  0.3855
  825MOL0     C11294   8.858   9.158   0.918 -0.0228 -0.2501 -0.1220
  825MOL0     C11295   8.741   9.130   0.989  0.2913 -0.3694  0.1372
  825MOL0     C11296   8.612   9.120   0.927  0.4107  0.5444  0.1041
  825MOL0     C11297   8.591   9.127   0.783 -0.3852  0.1780 -0.1125
  825MOL0     O11298   8.474   9.100   0.722 -0.0055  0.6604  0.1876
  825MOL0     C11299   8.466   9.133   0.584  0.5928 -0.3251  0.5232
  825MOL0     C11300   8.319   9.121   0.535 -1.1954  0.0486  0.4466
  825MOL0     C11301   8.288   8.970   0.546  1.1205 -1.0688 -1.1013
  825MOL0     C11302   8.185   8.930   0.444 -0.6151  0.1881  0.8090
  825MOL0     C11303   8.055   8.991   0.443 -0.3443 -0.0324 -0.7207
  825MOL0     C11304   7.947   9.048   0.429  0.0828  0.4601 -0.5599
  825MOL0     C11305   8.713   9.162   0.707  1.0311 -0.1033  0.1442
  825MOL0     C11306   8.833   9.179   0.781  0.7773  0.1087 -0.5962
  825MOL0     C11307   8.952   9.191   0.691 -0.1062 -0.6005 -0.2216
  825MOL0     H11308   9.199   9.019   0.879  1.8882 -1.3844  0.1598
  825MOL0     H11309   9.431   8.994   0.835 -0.1359 -0.8027  2.9237
  825MOL0     H11310   9.710   9.198   0.648 -0.3937 -0.5981  0.4096
  825MOL0     H11311   9.585   9.309   0.671 -3.0902 -3.0402  0.5786
  825MOL0     H11312   9.729   9.388   0.883 -1.0106 -0.5508  0.1845
  825MOL0     H11313   9.776   9.447   0.722  1.3679  0.2743  0.0428
  825MOL0     H11314   9.914   9.244   0.694  1.6215 -4.2112  2.9597
  825MOL0     H11315   9.913   9.229   0.873  4.5301  0.2353  0.4061
  825MOL0     H11316  10.002   9.469   0.725  0.1254 -1.0705 -0.9975
  825MOL0     H11317   9.982   9.449   0.902  1.3964 -0.1538  0.5563
  825MOL0     H11318  10.180   9.317   0.926  2.5352 -2.0704 -0.4940
  825MOL0     H11319  10.173   9.248   0.769 -0.7751  0.7208  0.3301
  825MOL0     H11320  10.239   9.471   0.667  1.9376  1.9271  0.3965
  825MOL0     H11321  10.217   9.545   0.827  0.1084  0.6737 -1.7090
  825MOL0     H11322  10.460   9.512   0.770  1.9139 -1.1723  1.1760
  825MOL0     H11323  10.427   9.337   0.739 -1.9488  1.6253 -2.3438
  825MOL0     H11324  10.367   9.481   0.997  0.8882 -0.2774  1.0212
  825MOL0     H11325  10.401   9.305   0.977 -1.2759  0.3229 -0.6488
  825MOL0     H11326  10.598   9.242   1.113 -0.9458  0.3880  0.3032
  825MOL0     H11327  10.929   9.365   1.217 -2.2941  1.9336  2.4178
  825MOL0     H11328  10.833   9.221   1.171  0.9196 -1.2160 -2.9519
  825MOL0     H11329  10.936   9.188   0.949  0.5416 -0.4567 -1.1735
  825MOL0     H11330  11.024   9.342   0.961 -0.6313 -0.0518  0.8078
  825MOL0     H11331  11.075   9.096   1.154  1.7228 -2.3371 -1.1963
  825MOL0     H11332  11.154   9.255   1.146 -0.5029 -0.6496  0.5274
  825MOL0     H11333  11.293   9.093   1.037 -0.5789  3.3836  2.2469
  825MOL0     H11334  11.240   9.218   0.933  0.1132  0.0272 -0.4960
  825MOL0     H11335  11.092   8.848   0.727  1.9221 -0.6623 -0.7052
  825MOL0     H11336  11.071   8.585   0.784  1.1986 -1.0158  0.3347
  825MOL0     H11337  11.063   8.162   0.778 -0.2365 -0.8730  1.1869
  825MOL0     H11338  10.920   7.955   0.853 -1.8118 -1.2255  1.5375
  825MOL0     H11339  10.795   7.901   1.243 -1.0202  1.1762  1.1826
  825MOL0     H11340  10.649   7.974   1.167  3.0742  1.9749 -0.4516
  825MOL0     H11341  10.740   7.688   1.125 -1.9277 -0.6262 -0.8759
  825MOL0     H11342  10.636   7.746   1.269 -4.3981  0.2144 -0.3771
  825MOL0     H11343  10.480   7.835   1.150 -0.1558 -0.3765  1.5606
  825MOL0     H11344  10.553   7.789   0.992  1.7705  0.9925  0.4827
  825MOL0     H11345  10.455   7.585   1.199  0.1605 -1.2967 -0.0767
  825MOL0     H11346  10.517   7.555   1.038 -1.1808  0.5336 -1.0605
  825MOL0     H11347  10.301   7.698   0.945 -0.4543  2.2988  1.1121
  825MOL0     H11348  10.252   7.685   1.110 -3.1661 -0.1007 -3.5966
  825MOL0     H11349  10.320   7.450   0.930 -0.1746  1.3744 -1.4619
  825MOL0     H11350  10.262   7.439   1.097 -2.1038  0.1993  0.5921
  825MOL0     H11351  10.108   7.565   0.868  3.2819 -2.7102 -1.1327
  825MOL0     H11352  10.040   7.536   1.038  1.2545 -2.7194  1.4801
  825MOL0     H11353   9.963   7.359   0.886 -0.6744 -1.2062  1.7069
  825MOL0     H11354  10.133   7.333   0.823 -2.2003 -1.9672 -1.3909
  825MOL0     H11355  10.814   8.149   1.203  0.9096 -0.2750  0.6639
  825MOL0     H11356  10.912   8.349   1.139 -1.9746  3.0952 -2.8931
  825MOL0     H11357  11.223   8.670   1.165 -2.2619  1.1152  0.4403
  825MOL0     H11358  11.273   8.890   1.109 -0.4237 -2.4772  2.4727
  825MOL0     H11359   9.501   9.415   0.920 -1.3467  0.6063  0.1284
  825MOL0     H11360   9.264   9.440   0.961  0.2767  0.7269 -1.9824
  825MOL0     H11361   8.742   9.119   1.097 -2.5318  1.2109  0.4241
  825MOL0     H11362   8.529   9.096   0.992  0.5425 -2.3922 -0.6599
  825MOL0     H11363   8.523   9.064   0.521  1.5088  1.1376 -0.3052
  825MOL0     H11364   8.508   9.233   0.568  0.5886 -0.5484 -1.0478
  825MOL0     H11365   8.322   9.167   0.435  1.0614  1.8480  1.2422
  825MOL0     H11366   8.248   9.179   0.594  0.5816  3.3556 -0.3721
  825MOL0     H11367   8.246   8.958   0.646  1.2146  2.4936 -0.4794
  825MOL0     H11368   8.375   8.904   0.540  1.5132 -0.5072 -1.7986
  825MOL0     H11369   8.226   8.961   0.347  1.0599  0.3285  1.5292
  825MOL0     H11370   8.181   8.821   0.438  1.2106  0.0985  0.6756
  825MOL0     H11371   7.857   9.102   0.408  0.5991  1.2945 -0.6607
  825MOL0     H11372   8.712   9.152   0.599  1.2737  0.5866  0.0752
  825MOL0     H11373   8.989   9.291   0.710  0.1323 -0.4010 -1.5735
  825MOL0     H11374   9.024   9.111   0.708 -0.3926 -1.4419 -2.5407
  825MOL0     H11375   8.925   9.197   0.585 -1.2313 -0.2855  0.0680
  826MOL0     O11376   3.459   7.807   1.502 -0.6805  0.0732 -0.3903
  826MOL0     C11377   3.520   7.698   1.524  0.6084  0.4639  0.2432
  826MOL0     O11378   3.463   7.586   1.585 -0.3267  0.5512 -0.3744
  826MOL0     C11379   3.343   7.606   1.647 -0.4188  0.4303 -0.5410
  826MOL0     C11380   3.311   7.680   1.763  0.1801 -0.4057  0.5704
  826MOL0     C11381   3.181   7.673   1.818 -0.1963  0.5045 -0.7502
  826MOL0     C11382   3.081   7.595   1.765  0.1192  0.2365 -0.1507
  826MOL0     O11383   2.955   7.583   1.819 -0.1099  0.4511  0.6291
  826MOL0     C11384   2.889   7.699   1.858  0.0148 -0.0161  0.3510
  826MOL0     C11385   2.761   7.643   1.909  0.0682  0.7848 -0.0749
  826MOL0     C11386   2.769   7.576   2.047  0.0395  0.0262 -0.5624
  826MOL0     C11387   2.895   7.603   2.131  0.2794  0.1477  0.6821
  826MOL0     C11388   2.914   7.509   2.250  0.1283  0.2245  0.2339
  826MOL0     C11389   3.009   7.560   2.356 -0.2826  0.4012 -0.2278
  826MOL0     C11390   3.148   7.598   2.312 -0.4168 -0.2157  0.1185
  826MOL0     C11391   3.225   7.490   2.225  0.3036 -0.5022  0.2893
  826MOL0     N11392   3.333   7.548   2.146 -0.1060  0.8307  0.4634
  826MOL0     C11393   3.413   7.475   2.061  0.0175  0.1554  0.0438
  826MOL0     C11394   3.507   7.565   2.024 -0.3826 -0.0779  0.7450
  826MOL0     C11395   3.596   7.534   1.907  0.5280 -1.0249 -0.4308
  826MOL0     C11396   3.718   7.440   1.936  0.3741  0.4448  0.6980
  826MOL0     C11397   3.778   7.375   1.805  0.2715 -0.1565 -0.8919
  826MOL0     C11398   3.897   7.291   1.866 -0.2520  0.5379  0.1681
  826MOL0     O11399   3.969   7.237   1.762 -0.5061  0.4463 -0.5808
  826MOL0     C11400   4.067   7.148   1.785 -0.3677  0.3161  0.6897
  826MOL0     C11401   4.160   7.116   1.685  0.8010 -0.8320  0.2137
  826MOL0     C11402   4.270   7.032   1.709  0.6320 -0.4262  0.2755
  826MOL0     C11403   4.287   6.961   1.830  0.0540  0.3484  0.3327
  826MOL0     C11404   4.396   6.861   1.853  0.0087  0.4572  0.8906
  826MOL0     O11405   4.505   6.875   1.774  0.1113  0.3062  0.2095
  826MOL0     C11406   4.606   6.779   1.795 -0.7693 -0.3151 -0.1309
  826MOL0     C11407   4.600   6.649   1.754  1.1589  0.9936 -0.5270
  826MOL0     C11408   4.692   6.557   1.773 -0.1624  0.2881 -0.5000
  826MOL0     C11409   4.811   6.594   1.837 -0.5604  0.2466 -0.1733
  826MOL0     O11410   4.920   6.503   1.857  0.0456 -1.1500 -0.1983
  826MOL0     C11411   4.904   6.370   1.802  0.1658 -0.2143  0.3797
  826MOL0     C11412   5.027   6.286   1.831  0.4815 -0.5710 -0.1334
  826MOL0     C11413   5.055   6.270   1.981 -0.5659 -0.3551 -0.7033
  826MOL0     C11414   5.145   6.375   2.034 -0.3681  0.2763  0.0048
  826MOL0     C11415   5.224   6.352   2.155 -0.2070  1.0624  0.1398
  826MOL0     C11416   5.293   6.480   2.198 -0.0241 -0.0950  0.3498
  826MOL0     C11417   5.374   6.477   2.330 -0.3468  1.2344  0.0752
  826MOL0     C11418   5.418   6.617   2.382  0.2645 -0.0812  0.2124
  826MOL0    Cl11419   5.278   6.713   2.428  0.3039  0.3974  0.1818
  826MOL0     C11420   4.822   6.724   1.878  0.3750  0.8766  0.3651
  826MOL0     C11421   4.724   6.825   1.852 -0.6363  0.7471 -0.5160
  826MOL0     O11422   4.380   6.787   1.948 -0.3424 -0.4213 -0.3481
  826MOL0     C11423   4.190   6.985   1.932  0.2946 -0.2138  0.7075
  826MOL0     C11424   4.090   7.081   1.905  0.2997 -0.6202  0.5579
  826MOL0     N11425   3.497   7.681   2.097  0.2717  0.9430 -0.4174
  826MOL0     N11426   3.396   7.667   2.179  0.0374  0.7993 -0.1095
  826MOL0     C11427   3.117   7.500   1.661 -0.5395 -1.1156 -0.8819
  826MOL0     C11428   3.246   7.507   1.606 -0.8190 -0.7322  0.4523
  826MOL0     C11429   3.660   7.688   1.484 -0.1559 -0.0150 -0.2560
  826MOL0     C11430   3.707   7.551   1.463 -1.0653  0.5668 -0.2430
  826MOL0     C11431   3.832   7.540   1.400  1.4099 -0.1538 -0.3952
  826MOL0     C11432   3.913   7.651   1.380  0.5453  0.4213  0.0036
  826MOL0     O11433   4.036   7.617   1.315  0.8963  0.2196  0.0496
  826MOL0     C11434   4.095   7.724   1.244  0.8076 -0.6795  0.0664
  826MOL0     C11435   4.169   7.673   1.128 -0.0534 -0.7954 -0.1203
  826MOL0     C11436   4.251   7.546   1.162 -0.6102  0.6904  0.4953
  826MOL0     C11437   4.334   7.495   1.039 -0.4756  0.6116  0.3717
  826MOL0     C11438   4.392   7.355   1.057  0.3203 -1.0643  0.1947
  826MOL0     C11439   4.443   7.248   1.080 -0.2306 -0.4645  0.5646
  826MOL0     C11440   3.876   7.775   1.430 -0.5651 -0.0734  0.2193
  826MOL0     C11441   3.749   7.799   1.473  0.0396 -0.0843 -0.5403
  826MOL0     C11442   3.720   7.941   1.525 -0.6394  0.3852  0.1697
  826MOL0     H11443   3.382   7.744   1.815 -0.0270  0.9725 -0.7859
  826MOL0     H11444   3.158   7.735   1.905  0.1929 -0.0429 -0.2480
  826MOL0     H11445   2.939   7.758   1.935  0.2362  0.0634  0.1474
  826MOL0     H11446   2.870   7.764   1.772 -1.0701 -2.2104 -1.1689
  826MOL0     H11447   2.718   7.577   1.834  0.8111  0.9190 -0.6255
  826MOL0     H11448   2.700   7.734   1.912 -0.0035  0.7367 -0.0774
  826MOL0     H11449   2.759   7.468   2.029 -0.7214 -0.5560  2.7571
  826MOL0     H11450   2.681   7.599   2.108 -1.0181  2.0435 -2.6670
  826MOL0     H11451   2.981   7.592   2.064 -0.9314 -0.0870 -0.9102
  826MOL0     H11452   2.903   7.706   2.165  3.5782  0.2756 -0.1549
  826MOL0     H11453   2.821   7.498   2.307 -0.1562  0.9853 -0.0717
  826MOL0     H11454   2.940   7.406   2.223 -2.4615 -0.2304 -0.8351
  826MOL0     H11455   2.958   7.641   2.408 -1.0013  0.4543 -0.9906
  826MOL0     H11456   3.029   7.477   2.424  3.1611  0.3170 -1.1029
  826MOL0     H11457   3.200   7.606   2.407  0.4862 -0.1099 -0.3751
  826MOL0     H11458   3.146   7.697   2.266 -2.0286  0.2682  1.1422
  826MOL0     H11459   3.262   7.401   2.276  2.4242 -0.4434 -1.0403
  826MOL0     H11460   3.153   7.451   2.152 -0.3812 -0.4634  0.9220
  826MOL0     H11461   3.397   7.376   2.018  0.0952 -0.6992  1.8576
  826MOL0     H11462   3.533   7.489   1.829  1.0367  0.1882 -1.5955
  826MOL0     H11463   3.638   7.631   1.876  0.9851 -0.8717  0.6105
  826MOL0     H11464   3.802   7.487   1.986  0.6292 -1.0283  1.7173
  826MOL0     H11465   3.688   7.363   2.008  2.5477  1.1087  2.3940
  826MOL0     H11466   3.817   7.442   1.727  1.5401 -3.3800 -3.2790
  826MOL0     H11467   3.706   7.309   1.756  0.9181  0.7775 -3.2864
  826MOL0     H11468   3.848   7.205   1.913  1.5076 -1.3584 -1.2694
  826MOL0     H11469   3.959   7.352   1.931 -3.1105  3.8897  0.0509
  826MOL0     H11470   4.146   7.164   1.589 -1.7256  0.3544  1.0964
  826MOL0     H11471   4.341   7.009   1.631 -0.5853 -0.0827 -0.9701
  826MOL0     H11472   4.505   6.626   1.708  0.9608 -0.5360  0.5761
  826MOL0     H11473   4.666   6.453   1.761  0.4714  0.0922 -0.2345
  826MOL0     H11474   4.811   6.325   1.839 -0.4725  0.0566 -0.8385
  826MOL0     H11475   4.898   6.378   1.693  1.1926  1.8110  0.4214
  826MOL0     H11476   5.001   6.185   1.797 -2.5301  0.1711 -0.3830
  826MOL0     H11477   5.107   6.338   1.780  0.8265 -0.0226  0.9411
  826MOL0     H11478   4.959   6.260   2.033  0.0741  0.0435  0.6147
  826MOL0     H11479   5.106   6.174   1.997  0.8894  0.5960  0.6643
  826MOL0     H11480   5.096   6.472   2.039 -1.6638 -0.4208  2.1301
  826MOL0     H11481   5.213   6.396   1.951  0.5611 -1.1653  0.3464
  826MOL0     H11482   5.298   6.274   2.134 -0.4100  0.5064  1.4255
  826MOL0     H11483   5.160   6.314   2.235  2.1967 -1.9486  0.8153
  826MOL0     H11484   5.364   6.509   2.120  1.3909 -2.3153  0.7244
  826MOL0     H11485   5.226   6.565   2.213  1.1076  0.4516  2.6616
  826MOL0     H11486   5.466   6.419   2.314  0.2486  1.9521  0.8003
  826MOL0     H11487   5.328   6.419   2.411 -0.1838  1.2214  0.1612
  826MOL0     H11488   5.476   6.603   2.474  2.5061 -0.3904 -1.1533
  826MOL0     H11489   5.481   6.672   2.312 -2.8466  2.8759 -0.4724
  826MOL0     H11490   4.903   6.770   1.933 -1.2680  1.0241  2.8238
  826MOL0     H11491   4.736   6.930   1.877 -1.0420  0.9407 -1.1316
  826MOL0     H11492   4.190   6.922   2.020 -1.2069  0.9171  1.5755
  826MOL0     H11493   4.012   7.099   1.978  1.2993  1.2883  1.2186
  826MOL0     H11494   3.042   7.432   1.622 -0.3792 -0.0731 -3.1867
  826MOL0     H11495   3.264   7.420   1.544 -1.0320  0.3243 -1.1304
  826MOL0     H11496   3.643   7.468   1.492 -2.2709  1.3693 -0.5176
  826MOL0     H11497   3.865   7.440   1.375 -1.0018 -2.1558  3.4061
  826MOL0     H11498   4.163   7.774   1.314  1.2524 -1.2583  0.0584
  826MOL0     H11499   4.030   7.808   1.218  1.7651 -0.2772 -1.0962
  826MOL0     H11500   4.221   7.757   1.080  1.5242 -1.5733  0.1721
  826MOL0     H11501   4.100   7.653   1.045  1.7469  0.1834 -1.9747
  826MOL0     H11502   4.182   7.472   1.203 -0.0702 -0.5399 -0.7387
  826MOL0     H11503   4.326   7.577   1.235  0.8378  2.4761 -1.6284
  826MOL0     H11504   4.274   7.503   0.947 -1.1584  1.3167  0.8679
  826MOL0     H11505   4.420   7.561   1.022  2.2576 -2.6870  0.2879
  826MOL0     H11506   4.474   7.146   1.095  0.6752 -0.6910 -2.2707
  826MOL0     H11507   3.949   7.855   1.414  0.9090 -1.2733  0.7136
  826MOL0     H11508   3.635   7.947   1.594 -0.7944 -1.6558  0.2106
  826MOL0     H11509   3.805   7.979   1.584  1.8830 -2.1412 -1.5820
  826MOL0     H11510   3.714   8.013   1.442 -1.4182 -0.7532 -0.7888
  827MOL0     O11511   8.334   5.408   9.698  0.0401  0.3716  0.7733
  827MOL0     C11512   8.299   5.467   9.597  0.0529 -0.0388 -0.1795
  827MOL0     O11513   8.382   5.505   9.498  0.0311 -0.2005  0.1548
  827MOL0     C11514   8.512   5.525   9.535 -0.5812 -0.0317  0.0739
  827MOL0     C11515   8.610   5.466   9.460 -0.3000 -0.5629  0.1660
  827MOL0     C11516   8.744   5.511   9.468 -0.2803  1.2661 -0.3811
  827MOL0     C11517   8.783   5.590   9.572 -0.3462  0.0088  0.2532
  827MOL0     O11518   8.919   5.600   9.589 -0.1439 -0.4330 -0.6443
  827MOL0     C11519   8.978   5.698   9.680 -0.2699  0.1066  0.6815
  827MOL0     C11520   9.124   5.650   9.710 -1.0171 -0.0260  0.2108
  827MOL0     C11521   9.222   5.759   9.759 -0.1331  0.0222 -0.3360
  827MOL0     C11522   9.355   5.686   9.785  0.9191  0.1393  0.0105
  827MOL0     C11523   9.448   5.780   9.852  0.2834  0.5853 -0.5040
  827MOL0     C11524   9.583   5.708   9.894 -0.1581  0.9442 -0.0909
  827MOL0     C11525   9.691   5.788   9.966 -0.3883  0.2644  0.3345
  827MOL0     C11526   9.718   5.906   9.885 -0.8404  0.1712  0.6958
  827MOL0     N11527   9.855   5.970   9.910 -0.5105  0.3358 -0.4219
  827MOL0     C11528   9.874   6.065  10.007 -0.4101 -0.0620  0.7061
  827MOL0     C11529  10.012   6.056  10.021 -0.6178  0.6726  0.1031
  827MOL0     C11530  10.076   6.108  10.141 -0.5738 -0.5449  0.1920
  827MOL0     C11531  10.235   6.102  10.125 -0.0219  0.0819  0.3877
  827MOL0     C11532  10.306   6.140  10.252  0.2482  0.0705  0.2793
  827MOL0     C11533  10.453   6.117  10.242 -0.0201 -0.1179  0.3907
  827MOL0     O11534  10.511   6.137  10.379 -0.2653  0.0517  0.4898
  827MOL0     C11535  10.639   6.113  10.406 -0.6313 -0.7280 -0.7112
  827MOL0     C11536  10.711   6.205  10.479 -0.3425 -0.5356  0.1435
  827MOL0     C11537  10.842   6.182  10.512  0.2405  0.1270 -0.7086
  827MOL0     C11538  10.900   6.053  10.485  0.0266 -0.3010 -0.0785
  827MOL0     C11539  11.036   6.026  10.523  0.5951  0.4519  0.2193
  827MOL0     O11540  11.119   6.137  10.553  0.1213 -0.3156  0.0887
  827MOL0     C11541  11.249   6.100  10.579 -0.4717  0.4733  0.2923
  827MOL0     C11542  11.313   6.143  10.695 -0.0227  0.2694  0.2494
  827MOL0     C11543  11.446   6.109  10.729  0.4952 -0.6958 -0.5958
  827MOL0     C11544  11.531   6.048  10.641  0.3599  0.0381 -0.0491
  827MOL0     O11545  11.663   6.032  10.672  0.3166  1.4980  0.3256
  827MOL0     C11546  11.731   5.907  10.642 -0.3765  0.5590 -0.3411
  827MOL0     C11547  11.666   5.784  10.708  0.6477 -0.6879  0.4302
  827MOL0     C11548  11.703   5.787  10.854  0.1408  0.3296 -0.8018
  827MOL0     C11549  11.667   5.650  10.922 -0.6019 -0.5661 -0.5675
  827MOL0     C11550  11.683   5.653  11.079 -0.0444 -0.7317  0.6174
  827MOL0     C11551  11.714   5.511  11.130  0.0927  1.0174  0.1279
  827MOL0     C11552  11.732   5.524  11.277  0.2218  0.4832 -0.0085
  827MOL0     C11553  11.748   5.386  11.344 -0.2128  0.2410  0.1172
  827MOL0    Cl11554  11.846   5.273  11.246  0.0429  0.2302 -0.3777
  827MOL0     C11555  11.475   6.013  10.517  0.0298 -0.6366  0.1037
  827MOL0     C11556  11.340   6.042  10.485 -0.1050  0.6387 -0.1917
  827MOL0     O11557  11.071   5.905  10.533  0.0802  0.8929 -0.1522
  827MOL0     C11558  10.823   5.956  10.422 -0.4767  0.0138 -0.0437
  827MOL0     C11559  10.694   5.986  10.385  0.2455 -0.0339  0.0115
  827MOL0     N11560  10.069   5.977   9.920 -0.2797 -0.6078 -0.0684
  827MOL0     N11561   9.974   5.932   9.853  0.9948 -0.1327  0.0858
  827MOL0     C11562   8.684   5.642   9.657 -0.0361 -0.2293 -0.6177
  827MOL0     C11563   8.553   5.607   9.637 -0.4836  0.1190 -0.0674
  827MOL0     C11564   8.155   5.486   9.574  0.8260 -0.3964 -0.8049
  827MOL0     C11565   8.114   5.523   9.445  0.4618  0.0527  0.4597
  827MOL0     C11566   7.984   5.549   9.414  0.6020  1.4677 -0.4069
  827MOL0     C11567   7.891   5.551   9.521  0.2753 -0.8845 -0.1309
  827MOL0     O11568   7.758   5.563   9.487  0.2394  0.4622 -0.3474
  827MOL0     C11569   7.644   5.530   9.576  1.5434 -0.0151 -0.1114
  827MOL0     C11570   7.506   5.535   9.515  0.0803 -0.1563 -0.4204
  827MOL0     C11571   7.469   5.639   9.413  0.3050 -0.0276  0.5060
  827MOL0     C11572   7.341   5.592   9.337 -0.0038  0.1639 -0.1593
  827MOL0     C11573   7.219   5.562   9.412  0.1108 -0.2005 -0.5821
  827MOL0     C11574   7.116   5.534   9.471 -0.1709  0.5378 -1.0461
  827MOL0     C11575   7.927   5.512   9.643  0.1112  0.1280 -0.6651
  827MOL0     C11576   8.057   5.483   9.685  0.2940 -0.2056  0.3491
  827MOL0     C11577   8.089   5.451   9.828 -0.0925 -0.9122 -0.1088
  827MOL0     H11578   8.569   5.396   9.388  2.8755 -0.9818 -1.3970
  827MOL0     H11579   8.810   5.469   9.393  0.4792 -3.7988  2.6289
  827MOL0     H11580   8.971   5.794   9.629 -0.7738 -1.0498 -1.5149
  827MOL0     H11581   8.922   5.712   9.773 -2.7013  2.7336 -1.0060
  827MOL0     H11582   9.164   5.610   9.617 -0.0405 -1.3802  1.1830
  827MOL0     H11583   9.111   5.569   9.783 -0.1386  0.4266  0.8868
  827MOL0     H11584   9.181   5.797   9.853 -1.4383 -1.4286 -0.2809
  827MOL0     H11585   9.246   5.839   9.687  2.0184  2.8352  3.1514
  827MOL0     H11586   9.334   5.599   9.847 -1.5133  0.6695  0.0363
  827MOL0     H11587   9.399   5.649   9.691  0.4237  0.8192 -0.5031
  827MOL0     H11588   9.472   5.860   9.781 -1.6621  1.3528 -0.3678
  827MOL0     H11589   9.406   5.815   9.947 -0.6209 -2.1516  0.1993
  827MOL0     H11590   9.569   5.618   9.954 -2.0587  1.7093  0.6873
  827MOL0     H11591   9.626   5.672   9.800  2.4506 -2.0327  2.0756
  827MOL0     H11592   9.783   5.734   9.991 -0.1693  1.3391  2.0316
  827MOL0     H11593   9.635   5.818  10.055  0.4056  0.9517  0.6179
  827MOL0     H11594   9.738   5.875   9.782 -0.9339 -2.9179  1.5101
  827MOL0     H11595   9.637   5.979   9.887 -2.0034 -1.0728  0.4018
  827MOL0     H11596   9.798   6.107  10.072  1.9078  0.0734  3.5777
  827MOL0     H11597  10.045   6.208  10.173  0.8710 -0.5375  1.7658
  827MOL0     H11598  10.048   6.048  10.228  0.1025  0.0874  0.8601
  827MOL0     H11599  10.271   6.002  10.102 -0.1255 -0.1145  1.0481
  827MOL0     H11600  10.265   6.166  10.041 -1.2208  1.4284  0.9398
  827MOL0     H11601  10.260   6.087  10.337 -0.6152  1.9991  1.0810
  827MOL0     H11602  10.293   6.245  10.278 -0.3859 -0.3058  1.6092
  827MOL0     H11603  10.514   6.183  10.180 -0.6443  0.2650  0.1803
  827MOL0     H11604  10.464   6.010  10.223 -0.7926 -0.5861  2.3042
  827MOL0     H11605  10.664   6.297  10.513 -0.6993 -1.4987  2.4567
  827MOL0     H11606  10.879   6.259  10.578 -1.6290 -2.7658  4.2647
  827MOL0     H11607  11.261   6.206  10.766  0.7990 -0.9291  1.9943
  827MOL0     H11608  11.483   6.142  10.826  1.6034  1.4120 -1.6536
  827MOL0     H11609  11.727   5.896  10.533 -1.2524 -0.4969 -0.2256
  827MOL0     H11610  11.836   5.908  10.672 -0.1484  0.0341 -1.0876
  827MOL0     H11611  11.557   5.777  10.706  0.3137  2.6527  1.1656
  827MOL0     H11612  11.709   5.702  10.649  0.6932 -0.1077 -0.3673
  827MOL0     H11613  11.809   5.814  10.867  0.2212  0.4158 -1.5593
  827MOL0     H11614  11.641   5.856  10.912  0.3060 -0.4235  0.2892
  827MOL0     H11615  11.745   5.577  10.896 -0.8402 -1.1660  0.3308
  827MOL0     H11616  11.566   5.613  10.902 -0.4220 -1.7086  0.4257
  827MOL0     H11617  11.594   5.699  11.123  0.6275  1.3914 -0.1317
  827MOL0     H11618  11.777   5.704  11.102  1.7467 -4.0768  1.4403
  827MOL0     H11619  11.621   5.457  11.106 -0.6718  2.0639  0.6688
  827MOL0     H11620  11.804   5.463  11.089  0.7130  0.6209  1.8705
  827MOL0     H11621  11.638   5.568  11.311 -0.6839 -1.0844 -0.3792
  827MOL0     H11622  11.809   5.594  11.311  0.2234  2.2606 -3.2180
  827MOL0     H11623  11.795   5.387  11.443  2.3866 -3.2682 -0.8369
  827MOL0     H11624  11.651   5.340  11.362 -0.0608 -0.1016  0.0849
  827MOL0     H11625  11.538   5.950  10.454  0.0438 -1.9016  1.3293
  827MOL0     H11626  11.305   6.021  10.385 -0.0697  2.5649 -0.6452
  827MOL0     H11627  10.867   5.857  10.417  1.5582  0.8857 -1.0005
  827MOL0     H11628  10.626   5.911  10.345  1.0380  0.3429 -2.2217
  827MOL0     H11629   8.715   5.706   9.739  0.1582 -1.5194  0.3423
  827MOL0     H11630   8.482   5.642   9.711  0.6542  3.6153 -0.4679
  827MOL0     H11631   8.190   5.517   9.367  1.3407  0.9987  1.2162
  827MOL0     H11632   7.947   5.556   9.313 -0.3882 -1.1336 -0.2877
  827MOL0     H11633   7.633   5.598   9.661 -0.5631 -1.0975  0.5401
  827MOL0     H11634   7.650   5.430   9.620 -5.4620 -0.2713  1.4055
  827MOL0     H11635   7.427   5.533   9.590 -1.1292 -1.5278 -1.6552
  827MOL0     H11636   7.497   5.437   9.468 -0.3655 -1.2463  1.8399
  827MOL0     H11637   7.540   5.649   9.330  0.8962  1.6206  1.1653
  827MOL0     H11638   7.460   5.736   9.462  0.6338 -0.7839  2.1401
  827MOL0     H11639   7.316   5.664   9.257 -0.6386 -0.8970 -0.9415
  827MOL0     H11640   7.359   5.499   9.283 -2.4081 -1.7456  2.0991
  827MOL0     H11641   7.019   5.515   9.513  0.1975  0.5420 -0.1723
  827MOL0     H11642   7.857   5.508   9.727 -0.0855  2.2869 -0.6696
  827MOL0     H11643   8.117   5.346   9.826 -2.4582 -1.6050 -1.4684
  827MOL0     H11644   8.166   5.510   9.877  1.6493 -2.2112 -1.1673
  827MOL0     H11645   7.997   5.452   9.887  2.8880  0.0470  5.1389
  828MOL0     O11646  10.678   8.106   9.973 -0.8390  0.6538 -0.0206
  828MOL0     C11647  10.714   8.050  10.078  0.3715  0.0475 -0.1770
  828MOL0     O11648  10.766   8.114  10.190 -0.0864 -0.6117  0.8451
  828MOL0     C11649  10.793   8.248  10.170 -0.1342 -1.1658 -0.7788
  828MOL0     C11650  10.706   8.353  10.187  0.2558 -0.8348  0.2883
  828MOL0     C11651  10.734   8.490  10.153  0.5370 -0.0156  1.2175
  828MOL0     C11652  10.859   8.528  10.102  1.0323  1.3252 -0.3873
  828MOL0     O11653  10.896   8.654  10.058  0.3218  0.0558 -0.4612
  828MOL0     C11654  10.822   8.771  10.096 -0.5884  0.5839 -0.5741
  828MOL0     C11655  10.885   8.890  10.027  0.3105  0.4340  0.1988
  828MOL0     C11656  10.863   8.885   9.879 -1.0549 -0.4512 -0.4023
  828MOL0     C11657  10.889   9.016   9.813  0.1168 -0.2923 -0.5234
  828MOL0     C11658  10.890   9.008   9.660 -1.3727 -0.1543  0.4531
  828MOL0     C11659  10.891   9.150   9.589 -0.3639 -0.8625  0.0703
  828MOL0     C11660  10.945   9.152   9.446  0.7636 -0.4212 -0.3727
  828MOL0     C11661  11.032   9.270   9.432 -1.3368 -0.0016  0.7361
  828MOL0     N11662  11.167   9.260   9.499 -0.6029  0.4493  0.2265
  828MOL0     C11663  11.277   9.195   9.441 -0.9629  0.9350  0.2607
  828MOL0     C11664  11.375   9.186   9.528 -1.2351 -0.8924  0.6622
  828MOL0     C11665  11.508   9.133   9.519 -0.6372 -0.5460  0.9704
  828MOL0     C11666  11.494   8.980   9.549 -0.0462 -0.5430 -0.6560
  828MOL0     C11667  11.630   8.935   9.606 -0.0420 -0.3840  0.5363
  828MOL0     C11668  11.624   8.808   9.697  0.1762  0.3566  0.4934
  828MOL0     O11669  11.752   8.783   9.758 -0.5522 -0.0228  0.3440
  828MOL0     C11670  11.758   8.708   9.869  0.3193 -0.0023  0.9830
  828MOL0     C11671  11.746   8.569   9.864 -0.4104 -0.5038  0.4028
  828MOL0     C11672  11.762   8.492   9.983  0.1957 -0.2326 -0.5151
  828MOL0     C11673  11.821   8.549  10.098  0.2003  0.0409  0.2352
  828MOL0     C11674  11.836   8.481  10.228 -0.5055 -0.0053 -0.0682
  828MOL0     O11675  11.901   8.549  10.324  0.1461 -0.0287  0.3039
  828MOL0     C11676  11.953   8.486  10.433 -0.7200 -0.1954 -0.8294
  828MOL0     C11677  11.932   8.529  10.566 -0.9398  0.3533 -0.1057
  828MOL0     C11678  12.001   8.476  10.678  1.2089  0.2829  0.5096
  828MOL0     C11679  12.084   8.354  10.661  0.8445 -0.0645  0.3686
  828MOL0     O11680  12.153   8.283  10.754  0.2381  0.0277  0.1065
  828MOL0     C11681  12.104   8.276  10.888  0.5557 -0.8740  0.0398
  828MOL0     C11682  12.211   8.209  10.983  0.6855  0.2128  0.1040
  828MOL0     C11683  12.338   8.288  10.999 -0.0124  0.2557  0.2415
  828MOL0     C11684  12.469   8.227  11.034  0.2985  0.3731 -0.3869
  828MOL0     C11685  12.567   8.344  11.053  0.1512 -0.1489  0.0756
  828MOL0     C11686  12.693   8.284  11.126  0.5230  1.0394  0.8256
  828MOL0     C11687  12.800   8.389  11.156  0.2139  0.4264  1.1302
  828MOL0     C11688  12.909   8.344  11.253  0.3168  0.5129 -0.0116
  828MOL0    Cl11689  13.035   8.470  11.273 -0.1432  0.4931 -0.0472
  828MOL0     C11690  12.095   8.307  10.530  0.0219  0.5023  0.3774
  828MOL0     C11691  12.015   8.359  10.422 -0.1164  0.0913 -0.0295
  828MOL0     O11692  11.788   8.370  10.243 -0.0863  0.1662  0.4327
  828MOL0     C11693  11.850   8.693  10.095 -0.5418 -0.1790  0.4743
  828MOL0     C11694  11.815   8.767   9.978  0.2317  0.8214 -0.5410
  828MOL0     N11695  11.327   9.263   9.637 -0.3648 -0.2747  1.3335
  828MOL0     N11696  11.208   9.308   9.622  0.2067  0.1630  0.4470
  828MOL0     C11697  10.948   8.424  10.086  0.2072  0.7013  0.2354
  828MOL0     C11698  10.923   8.284  10.125 -0.3033 -0.1337 -0.4127
  828MOL0     C11699  10.711   7.896  10.090 -0.7032  0.5025  0.6162
  828MOL0     C11700  10.759   7.836  10.207  0.4147 -0.3537 -0.8283
  828MOL0     C11701  10.762   7.696  10.215 -0.8294 -0.1107 -0.6455
  828MOL0     C11702  10.744   7.612  10.104 -0.0902 -0.5446 -0.3634
  828MOL0     O11703  10.760   7.478  10.090 -0.2327  0.5139  0.0188
  828MOL0     C11704  10.852   7.419  10.187  0.2883 -0.4295 -0.0573
  828MOL0     C11705  10.928   7.305  10.127 -1.3740 -0.2644 -0.1230
  828MOL0     C11706  10.837   7.204  10.056  0.0132 -0.0454  0.3968
  828MOL0     C11707  10.879   7.069  10.061  0.3302 -0.2750  0.2916
  828MOL0     C11708  10.783   6.980   9.987  0.3518 -0.2631  0.0201
  828MOL0     C11709  10.717   6.896   9.927 -0.0165  0.7813 -0.7357
  828MOL0     C11710  10.678   7.667   9.995 -0.2211 -0.9908 -0.2102
  828MOL0     C11711  10.659   7.809   9.986 -0.3529 -0.0840 -0.0989
  828MOL0     C11712  10.592   7.860   9.863 -0.6373 -0.5943 -0.6707
  828MOL0     H11713  10.598   8.342  10.199 -0.0593  1.8233  0.5343
  828MOL0     H11714  10.651   8.560  10.148 -0.0833 -0.7786  0.7129
  828MOL0     H11715  10.719   8.744  10.070 -0.7719 -0.6773  1.2060
  828MOL0     H11716  10.822   8.778  10.206  0.4880 -0.5819 -0.4747
  828MOL0     H11717  10.992   8.880  10.051  0.7733 -0.0772 -1.8337
  828MOL0     H11718  10.835   8.973  10.077 -0.4483 -0.6928  1.3537
  828MOL0     H11719  10.763   8.854   9.850 -1.7996  1.6532 -0.2532
  828MOL0     H11720  10.930   8.811   9.834 -3.5229 -2.5558 -0.8174
  828MOL0     H11721  10.809   9.080   9.850  0.2803 -1.3406  1.8369
  828MOL0     H11722  10.985   9.053   9.848 -0.2513  1.9350 -1.7189
  828MOL0     H11723  10.982   8.956   9.629 -1.3004 -0.3467  0.9745
  828MOL0     H11724  10.808   8.947   9.621  0.0871 -1.2705 -1.0065
  828MOL0     H11725  10.789   9.191   9.587 -0.3963 -0.9308  0.3145
  828MOL0     H11726  10.943   9.225   9.649 -0.0886 -0.2882 -0.8614
  828MOL0     H11727  10.863   9.171   9.377  0.4318  2.0497  0.5964
  828MOL0     H11728  11.000   9.061   9.423 -0.3268 -1.5690  1.3007
  828MOL0     H11729  11.047   9.289   9.326 -2.5361  0.3467  0.6075
  828MOL0     H11730  10.982   9.362   9.465 -3.6237 -1.5388  1.8786
  828MOL0     H11731  11.270   9.149   9.343 -0.7577 -1.3733  1.2607
  828MOL0     H11732  11.557   9.154   9.424 -1.4396  2.1563  1.0662
  828MOL0     H11733  11.563   9.189   9.594  0.1380  0.4154 -0.2768
  828MOL0     H11734  11.427   8.962   9.634  3.9470 -1.8269  2.6127
  828MOL0     H11735  11.467   8.916   9.464 -0.6932 -1.1258 -0.0262
  828MOL0     H11736  11.676   9.016   9.663  1.6804  0.4903 -1.9308
  828MOL0     H11737  11.700   8.922   9.524 -0.3413  1.6349 -0.0943
  828MOL0     H11738  11.568   8.724   9.655 -1.8781  1.8113  0.1528
  828MOL0     H11739  11.557   8.822   9.782 -1.3094 -1.1056 -0.3807
  828MOL0     H11740  11.706   8.518   9.777 -0.9754 -1.3258  1.1185
  828MOL0     H11741  11.735   8.387   9.975  2.1907 -0.9381  1.2746
  828MOL0     H11742  11.866   8.615  10.571 -1.3709  0.1939 -2.2902
  828MOL0     H11743  11.970   8.519  10.773 -4.0216 -1.3644 -0.1291
  828MOL0     H11744  12.085   8.377  10.927 -0.6486 -0.6696 -1.0241
  828MOL0     H11745  12.008   8.223  10.884 -0.3205  0.7127 -3.0324
  828MOL0     H11746  12.169   8.190  11.082  2.2982 -3.3012  0.2856
  828MOL0     H11747  12.226   8.108  10.944 -2.8082  0.3452 -2.0242
  828MOL0     H11748  12.354   8.345  10.907 -0.2782 -0.6983 -0.4189
  828MOL0     H11749  12.311   8.365  11.071 -2.3499  0.7749 -1.0776
  828MOL0     H11750  12.510   8.162  10.956  3.4107  3.3617 -1.4981
  828MOL0     H11751  12.453   8.172  11.128  0.8575 -1.7808 -1.4839
  828MOL0     H11752  12.513   8.419  11.111  1.3900  2.2803 -1.7217
  828MOL0     H11753  12.589   8.392  10.957 -0.3008  2.8861  1.3872
  828MOL0     H11754  12.662   8.228  11.215  1.6826 -1.0399 -0.0147
  828MOL0     H11755  12.744   8.214  11.058  2.8759  3.7915 -0.4769
  828MOL0     H11756  12.745   8.474  11.198  0.6605  0.5162  1.5356
  828MOL0     H11757  12.859   8.428  11.073  0.7342  0.1938  1.3851
  828MOL0     H11758  12.870   8.324  11.353 -1.4201 -1.8242 -1.0769
  828MOL0     H11759  12.951   8.253  11.209  0.0973  1.7374 -2.9624
  828MOL0     H11760  12.168   8.228  10.512 -3.4769 -3.0410  0.2204
  828MOL0     H11761  12.023   8.308  10.326 -1.7460  2.7464 -1.7147
  828MOL0     H11762  11.890   8.737  10.185 -2.1657  0.5994  0.8554
  828MOL0     H11763  11.845   8.871   9.980  0.9298  0.6173  1.8475
  828MOL0     H11764  11.049   8.441  10.051  1.3347  2.1581  3.6661
  828MOL0     H11765  10.992   8.204  10.105  0.7426  0.4761  0.6663
  828MOL0     H11766  10.806   7.897  10.283  0.0665 -1.0192 -0.0732
  828MOL0     H11767  10.797   7.661  10.312 -0.8995  2.7487  0.5130
  828MOL0     H11768  10.789   7.387  10.271 -0.9160  1.0978 -0.3235
  828MOL0     H11769  10.926   7.492  10.222 -0.6850  1.5475 -1.8513
  828MOL0     H11770  10.970   7.258  10.217 -1.8862 -0.5486 -0.0291
  828MOL0     H11771  11.008   7.340  10.062 -0.8785  1.9903  1.5904
  828MOL0     H11772  10.841   7.235   9.951 -0.0199  0.2465  0.4795
  828MOL0     H11773  10.733   7.206  10.089 -0.2133 -0.0626 -0.2988
  828MOL0     H11774  10.975   7.064  10.009  0.8010  1.8053  0.8502
  828MOL0     H11775  10.886   7.038  10.166  0.3923  0.5301  0.5299
  828MOL0     H11776  10.655   6.825   9.877 -0.1291 -0.8803  1.5673
  828MOL0     H11777  10.642   7.596   9.922 -0.8897 -2.3028  1.3419
  828MOL0     H11778  10.542   7.779   9.810 -0.7078 -1.8549  1.2132
  828MOL0     H11779  10.518   7.933   9.896  0.2966 -1.0153  2.7901
  828MOL0     H11780  10.677   7.900   9.806  2.4328 -1.4064  2.8980
  829MOL0     O11781   9.705   8.709  10.982  0.4734 -0.0147 -0.0706
  829MOL0     C11782   9.664   8.820  10.937  0.1540  0.7589 -0.3745
  829MOL0     O11783   9.704   8.942  10.974 -0.2868 -0.1122  0.9106
  829MOL0     C11784   9.797   8.943  11.073 -0.3363 -0.3234 -0.7243
  829MOL0     C11785   9.921   8.890  11.041  0.5838  0.5373 -0.3105
  829MOL0     C11786  10.027   8.886  11.145  0.7005 -0.0086  0.1820
  829MOL0     C11787   9.994   8.945  11.270 -0.2000  0.2845 -0.5344
  829MOL0     O11788  10.087   8.961  11.375 -0.1788 -0.3360  0.1846
  829MOL0     C11789  10.227   8.933  11.341 -0.0342  0.0722  0.7946
  829MOL0     C11790  10.301   8.962  11.471 -0.0332  0.2136  0.2964
  829MOL0     C11791  10.457   8.962  11.439  0.2721  0.5333 -0.6786
  829MOL0     C11792  10.552   8.980  11.562 -0.1393 -0.6593 -0.1847
  829MOL0     C11793  10.700   9.007  11.531  0.1185 -0.0255 -0.4838
  829MOL0     C11794  10.785   8.887  11.487 -0.6064 -0.7643 -0.4533
  829MOL0     C11795  10.934   8.917  11.477 -0.7461  0.4346 -0.5573
  829MOL0     C11796  10.983   8.977  11.336  0.1508 -0.7949  0.5909
  829MOL0     N11797  10.979   8.868  11.233  0.3276  0.3596  0.4534
  829MOL0     C11798  11.085   8.785  11.200 -0.0944 -0.2482  0.0883
  829MOL0     C11799  11.025   8.684  11.120 -0.8626  0.3643  1.2142
  829MOL0     C11800  11.078   8.570  11.046 -0.1698 -0.7472  0.6137
  829MOL0     C11801  11.113   8.622  10.903 -0.1549 -0.2355  0.4738
  829MOL0     C11802  11.162   8.501  10.821 -0.7598 -0.6695  0.2884
  829MOL0     C11803  11.208   8.541  10.682 -0.1159  0.4200 -0.1148
  829MOL0     O11804  11.203   8.424  10.600 -0.2512  0.1773  0.3522
  829MOL0     C11805  11.251   8.435  10.465 -0.0421 -0.0316  0.0428
  829MOL0     C11806  11.282   8.314  10.397  0.0885 -0.9185  1.4533
  829MOL0     C11807  11.339   8.320  10.267 -0.1997 -0.1854 -0.2922
  829MOL0     C11808  11.332   8.439  10.194 -0.0502  0.5719 -0.3097
  829MOL0     C11809  11.371   8.444  10.054  0.9967 -0.2293  0.9239
  829MOL0     O11810  11.376   8.331   9.980  0.4920  1.4710 -0.1465
  829MOL0     C11811  11.428   8.328   9.855  0.1681  0.0037 -0.0320
  829MOL0     C11812  11.556   8.278   9.828  0.6566 -0.5431 -0.4368
  829MOL0     C11813  11.610   8.260   9.707 -0.8262  0.5061  0.2725
  829MOL0     C11814  11.543   8.311   9.599  0.3734  0.1395  0.4340
  829MOL0     O11815  11.602   8.297   9.472 -0.2595  0.1111  0.4305
  829MOL0     C11816  11.513   8.234   9.370 -0.1385  0.4446 -0.0449
  829MOL0     C11817  11.602   8.135   9.302 -0.3293  0.6494  0.4168
  829MOL0     C11818  11.718   8.193   9.219 -0.7909 -0.0267  0.0705
  829MOL0     C11819  11.834   8.092   9.196 -0.1896 -0.3967 -0.5103
  829MOL0     C11820  11.913   8.107   9.058  1.0320 -0.8440  0.4467
  829MOL0     C11821  11.969   8.249   9.032  1.0697  0.4308 -0.0884
  829MOL0     C11822  12.066   8.245   8.910  0.6667 -0.2350  0.5564
  829MOL0     C11823  12.140   8.374   8.884  1.5857  0.1762  0.3839
  829MOL0    Cl11824  12.026   8.500   8.810 -0.2919 -0.3190  0.1930
  829MOL0     C11825  11.418   8.371   9.616 -1.4596 -0.2304  0.6505
  829MOL0     C11826  11.357   8.383   9.738 -0.9417  0.6725 -0.1721
  829MOL0     O11827  11.390   8.557  10.005  0.5884 -0.3053  0.2535
  829MOL0     C11828  11.283   8.558  10.256 -0.3886  0.3609 -0.2018
  829MOL0     C11829  11.252   8.559  10.394  0.2112 -0.4993 -0.0321
  829MOL0     N11830  10.891   8.716  11.108  0.2703 -0.2568  0.5670
  829MOL0     N11831  10.867   8.831  11.168 -0.3818 -0.2944  0.3712
  829MOL0     C11832   9.866   8.997  11.296 -0.2504  0.0434 -0.4080
  829MOL0     C11833   9.771   9.009  11.198 -0.6010 -0.2029  0.1365
  829MOL0     C11834   9.547   8.811  10.849  0.0064  0.8395 -0.9362
  829MOL0     C11835   9.464   8.697  10.868 -1.1567 -0.3170 -0.1972
  829MOL0     C11836   9.354   8.678  10.783  0.8289 -0.2085  0.2111
  829MOL0     C11837   9.327   8.766  10.681  1.4987  0.1108 -0.5262
  829MOL0     O11838   9.219   8.736  10.602  0.1784 -0.0386 -0.1824
  829MOL0     C11839   9.141   8.833  10.529 -0.9246  0.2956 -0.5769
  829MOL0     C11840   9.046   8.915  10.622 -0.0815  0.3886  0.2143
  829MOL0     C11841   8.938   8.825  10.679 -0.3428 -0.2315  0.1364
  829MOL0     C11842   8.843   8.905  10.770 -0.2552  0.1404 -0.1035
  829MOL0     C11843   8.756   8.996  10.697 -0.3580 -0.0984 -1.0048
  829MOL0     C11844   8.666   9.055  10.651 -0.1451 -0.0552  0.5964
  829MOL0     C11845   9.404   8.883  10.671 -0.3900 -0.2324 -0.5632
  829MOL0     C11846   9.515   8.904  10.747  0.4095 -0.4281  0.4254
  829MOL0     C11847   9.615   9.015  10.709  0.5592  0.1150 -0.5131
  829MOL0     H11848   9.936   8.851  10.941  1.9705  0.9472 -0.2860
  829MOL0     H11849  10.122   8.843  11.116  0.3791  0.9976 -2.6822
  829MOL0     H11850  10.241   8.830  11.308  0.5909  0.6924 -0.9858
  829MOL0     H11851  10.268   9.002  11.266  1.6238 -1.9570 -0.2709
  829MOL0     H11852  10.278   8.887  11.547  0.5046  0.1845  0.4354
  829MOL0     H11853  10.268   9.060  11.508 -1.6969  0.1508 -0.9011
  829MOL0     H11854  10.497   9.033  11.366  0.7503 -2.3833 -3.5472
  829MOL0     H11855  10.475   8.864  11.392 -1.0067  0.4594 -1.0559
  829MOL0     H11856  10.522   9.071  11.616  0.3766  0.0653 -1.0966
  829MOL0     H11857  10.534   8.896  11.630  0.5493 -1.4988 -1.0085
  829MOL0     H11858  10.696   9.081  11.450 -4.0269 -0.2374 -0.6998
  829MOL0     H11859  10.743   9.063  11.614 -0.4510  1.1680 -0.9668
  829MOL0     H11860  10.779   8.807  11.560 -0.0222  1.3792  2.0996
  829MOL0     H11861  10.746   8.837  11.398 -0.1063  0.8528 -1.6405
  829MOL0     H11862  11.001   8.834  11.500 -0.8798  0.6609  0.7950
  829MOL0     H11863  10.970   8.987  11.554  1.4401  0.4666 -1.5272
  829MOL0     H11864  10.919   9.058  11.301 -0.1173 -1.0669  0.4389
  829MOL0     H11865  11.083   9.019  11.349 -0.1827 -0.4360  2.1286
  829MOL0     H11866  11.183   8.811  11.238  0.2278 -0.5538 -0.5226
  829MOL0     H11867  11.167   8.533  11.098  0.0755 -0.2231  0.5774
  829MOL0     H11868  11.002   8.493  11.032  0.2044 -0.9930 -0.1714
  829MOL0     H11869  11.031   8.674  10.853  1.5798  0.4696 -1.8218
  829MOL0     H11870  11.203   8.685  10.911 -1.0241  0.9180  1.7710
  829MOL0     H11871  11.080   8.433  10.799 -1.8419  0.7682 -0.2710
  829MOL0     H11872  11.238   8.451  10.882  1.0571 -0.6089 -1.7895
  829MOL0     H11873  11.308   8.585  10.681  0.7050 -1.3190  1.0235
  829MOL0     H11874  11.143   8.622  10.646 -1.0827 -0.3058 -0.0622
  829MOL0     H11875  11.275   8.215  10.442 -3.0009 -2.0739 -1.2427
  829MOL0     H11876  11.381   8.225  10.236 -1.0986 -0.8921  0.6021
  829MOL0     H11877  11.606   8.227   9.909 -0.4600  0.6260  1.0424
  829MOL0     H11878  11.691   8.189   9.690 -0.0013  1.6003 -0.5771
  829MOL0     H11879  11.420   8.188   9.405  0.3623 -2.8110 -2.5931
  829MOL0     H11880  11.499   8.307   9.290  0.1539  0.0568 -0.4537
  829MOL0     H11881  11.625   8.051   9.369  0.8173 -1.6739 -2.6329
  829MOL0     H11882  11.547   8.080   9.225  1.8205  2.0695 -2.3608
  829MOL0     H11883  11.686   8.239   9.125 -1.1946  1.9317  1.1109
  829MOL0     H11884  11.771   8.271   9.274  2.5098 -0.3378 -2.3342
  829MOL0     H11885  11.790   7.993   9.201 -0.4470 -0.2972 -0.7794
  829MOL0     H11886  11.908   8.099   9.276 -0.6932 -0.1036 -0.0640
  829MOL0     H11887  11.845   8.082   8.976  3.4288  0.4147 -2.1186
  829MOL0     H11888  11.996   8.035   9.050  2.2216  0.5955 -0.8886
  829MOL0     H11889  11.892   8.323   9.008 -1.0174 -0.3435  3.4189
  829MOL0     H11890  12.023   8.297   9.114 -0.2386  2.0598 -0.1312
  829MOL0     H11891  12.002   8.227   8.824 -1.2041  0.6911  1.6915
  829MOL0     H11892  12.134   8.160   8.923  0.6440 -0.1043  1.6258
  829MOL0     H11893  12.177   8.427   8.973 -1.6060  4.6822 -0.6560
  829MOL0     H11894  12.208   8.353   8.801 -0.2198 -2.1329 -0.6373
  829MOL0     H11895  11.359   8.394   9.528 -3.2512  0.4796  1.9522
  829MOL0     H11896  11.258   8.427   9.742 -1.7222 -0.9962 -0.4196
  829MOL0     H11897  11.285   8.649  10.197  2.1805  0.4751 -0.0375
  829MOL0     H11898  11.235   8.653  10.445 -2.5111  0.4054 -2.3569
  829MOL0     H11899   9.844   9.039  11.394 -2.0068 -0.0917 -0.7040
  829MOL0     H11900   9.684   9.073  11.205  0.2426  1.0882 -0.7252
  829MOL0     H11901   9.475   8.630  10.952  1.4911  0.2219 -0.0212
  829MOL0     H11902   9.283   8.599  10.807 -0.6366  0.8932 -0.3566
  829MOL0     H11903   9.084   8.777  10.455  2.2039 -1.6593 -1.7415
  829MOL0     H11904   9.206   8.899  10.471 -0.0737  2.8886  2.9614
  829MOL0     H11905   9.012   8.991  10.552  1.3743 -2.0239 -3.4553
  829MOL0     H11906   9.106   8.969  10.695 -1.5547  0.8796  1.1056
  829MOL0     H11907   8.988   8.741  10.728 -0.3226  1.4440  3.2329
  829MOL0     H11908   8.883   8.781  10.595  0.1520 -2.5691  0.9618
  829MOL0     H11909   8.785   8.830  10.825  1.7198 -3.9950 -3.0791
  829MOL0     H11910   8.904   8.956  10.846 -0.4718 -0.6791  0.6484
  829MOL0     H11911   8.585   9.112  10.610 -1.0538 -0.1575  2.1716
  829MOL0     H11912   9.384   8.962  10.599  0.8319 -2.3187 -3.3511
  829MOL0     H11913   9.618   9.091  10.788  0.8760 -3.0104  2.7764
  829MOL0     H11914   9.720   8.988  10.694  0.4781 -0.5662  0.0654
  829MOL0     H11915   9.585   9.054  10.612 -2.5127  2.8021  1.3291
  830MOL0     O11916   2.093   6.641   8.715 -0.0244 -0.0933 -0.1917
  830MOL0     C11917   2.185   6.619   8.791 -0.0710  0.4105  0.1003
  830MOL0     O11918   2.174   6.572   8.915 -0.1623 -0.7324 -0.3304
  830MOL0     C11919   2.053   6.542   8.971 -0.2647  1.4082 -0.1481
  830MOL0     C11920   1.983   6.647   9.035 -0.1876  0.0827  0.1542
  830MOL0     C11921   1.856   6.616   9.090 -0.8922 -0.4403  0.2031
  830MOL0     C11922   1.806   6.487   9.084  0.5389  0.2250 -0.6846
  830MOL0     O11923   1.686   6.467   9.150  0.6461  0.5295 -0.3547
  830MOL0     C11924   1.615   6.344   9.136 -0.2118 -0.0092  0.3421
  830MOL0     C11925   1.480   6.359   9.222 -0.2931  0.2238  0.1615
  830MOL0     C11926   1.398   6.485   9.195 -0.9188  1.2320 -0.6346
  830MOL0     C11927   1.419   6.577   9.323  0.0359 -0.5581 -0.5884
  830MOL0     C11928   1.337   6.701   9.296 -0.5947  0.6428 -0.3342
  830MOL0     C11929   1.340   6.800   9.418 -0.1842  0.3755 -0.5080
  830MOL0     C11930   1.486   6.830   9.461 -0.3595 -0.0345 -0.0743
  830MOL0     C11931   1.503   6.976   9.512 -0.2021  0.4740 -0.5596
  830MOL0     N11932   1.424   7.014   9.632 -0.2144  0.1332 -0.3958
  830MOL0     C11933   1.438   6.988   9.764 -0.0598 -0.0893  0.1509
  830MOL0     C11934   1.334   7.049   9.822  0.0319  0.9321  0.4512
  830MOL0     C11935   1.292   7.043   9.965  0.0732 -0.2337 -0.5976
  830MOL0     C11936   1.322   6.901  10.029  0.0304 -0.7546  0.4211
  830MOL0     C11937   1.406   6.923  10.151 -0.3393 -1.3927 -0.4526
  830MOL0     C11938   1.544   6.996  10.128  0.3264 -0.4892  0.9968
  830MOL0     O11939   1.637   6.921  10.040 -0.4875  1.0053 -0.4093
  830MOL0     C11940   1.715   6.816  10.095  0.1234  0.7423 -0.3743
  830MOL0     C11941   1.793   6.751   9.996  0.2065 -0.9877 -0.0352
  830MOL0     C11942   1.865   6.634  10.019  0.9718 -0.2132 -0.3801
  830MOL0     C11943   1.859   6.572  10.147 -0.0852 -0.3640 -0.3884
  830MOL0     C11944   1.909   6.429  10.163 -1.0072 -0.9665 -0.2975
  830MOL0     O11945   1.916   6.379  10.292 -0.5381 -0.5977 -0.7892
  830MOL0     C11946   1.964   6.252  10.300  0.4506 -0.2003  0.1572
  830MOL0     C11947   1.877   6.140  10.320 -0.4877 -0.1698 -1.4949
  830MOL0     C11948   1.928   6.009  10.344  0.1942  0.3610 -0.3411
  830MOL0     C11949   2.069   6.003  10.356 -0.6477  0.1554 -0.2928
  830MOL0     O11950   2.125   5.881  10.383  0.4207 -0.2111  0.5870
  830MOL0     C11951   2.253   5.835  10.329  0.4513 -0.7687  0.1290
  830MOL0     C11952   2.278   5.690  10.360 -0.9888 -0.2963  0.8608
  830MOL0     C11953   2.423   5.652  10.313  0.9415 -0.1253 -0.4199
  830MOL0     C11954   2.439   5.661  10.162 -0.0399  0.8953  0.1774
  830MOL0     C11955   2.553   5.577  10.105 -0.1155 -0.5561 -0.6171
  830MOL0     C11956   2.515   5.424  10.105 -0.5199 -0.7594 -0.5199
  830MOL0     C11957   2.617   5.331  10.043 -0.2146  0.0720  0.9542
  830MOL0     C11958   2.629   5.337   9.885  0.5276  0.2036 -0.6749
  830MOL0    Cl11959   2.469   5.303   9.809 -0.1291  0.1467 -0.4072
  830MOL0     C11960   2.152   6.118  10.348 -0.0317  1.0468  0.1919
  830MOL0     C11961   2.102   6.238  10.304 -1.6682  0.2191 -0.3442
  830MOL0     O11962   1.942   6.367  10.064  0.4023 -0.8610 -0.0012
  830MOL0     C11963   1.778   6.635  10.243  0.6446  0.6413 -0.1158
  830MOL0     C11964   1.712   6.756  10.220  0.0404 -0.9403 -0.4522
  830MOL0     N11965   1.250   7.101   9.728 -0.1945  0.4359 -0.5477
  830MOL0     N11966   1.312   7.083   9.619  0.6888  0.0134 -0.6377
  830MOL0     C11967   1.873   6.389   9.006  0.6971  0.4327 -0.3748
  830MOL0     C11968   1.995   6.417   8.946  0.5330 -0.5445 -0.1236
  830MOL0     C11969   2.323   6.630   8.746 -0.0338  0.1144  0.5999
  830MOL0     C11970   2.339   6.737   8.664 -0.1180 -0.5402 -0.0041
  830MOL0     C11971   2.468   6.778   8.629  0.5157 -0.4902 -0.2833
  830MOL0     C11972   2.582   6.714   8.683  0.3541  0.3816 -0.1932
  830MOL0     O11973   2.715   6.767   8.673  0.0427 -0.6582 -0.5114
  830MOL0     C11974   2.746   6.890   8.617 -0.3802 -0.4143 -0.3306
  830MOL0     C11975   2.897   6.894   8.589 -0.5628  0.2556 -0.1521
  830MOL0     C11976   2.974   6.887   8.716  0.4919  0.2779  0.1864
  830MOL0     C11977   3.119   6.886   8.681  1.0506  0.1546  0.4478
  830MOL0     C11978   3.170   7.019   8.638 -0.2786 -0.0630  0.7250
  830MOL0     C11979   3.198   7.126   8.595 -0.3639  0.0659 -0.0849
  830MOL0     C11980   2.557   6.596   8.741 -0.3078  0.3509 -0.2004
  830MOL0     C11981   2.436   6.554   8.783  0.1696  0.0978  0.3124
  830MOL0     C11982   2.422   6.433   8.865 -0.0014 -0.6519  0.2440
  830MOL0     H11983   2.024   6.748   9.040 -2.2587  1.1362 -2.1222
  830MOL0     H11984   1.802   6.687   9.152 -1.4956 -3.1458  3.0548
  830MOL0     H11985   1.604   6.322   9.030  0.2247  3.3880 -0.5266
  830MOL0     H11986   1.674   6.267   9.186  0.9272  1.3082  1.1252
  830MOL0     H11987   1.509   6.353   9.327  2.4207 -3.7843 -0.5662
  830MOL0     H11988   1.424   6.268   9.200  1.0557 -0.3708 -1.0267
  830MOL0     H11989   1.295   6.449   9.183  0.3806 -3.2930 -0.2244
  830MOL0     H11990   1.432   6.539   9.106 -2.4080  3.2397 -0.0501
  830MOL0     H11991   1.382   6.530   9.415  0.1200  0.8721  0.2112
  830MOL0     H11992   1.527   6.588   9.336  0.5350 -3.4698 -1.6632
  830MOL0     H11993   1.379   6.756   9.211 -1.1945 -0.2148 -1.2139
  830MOL0     H11994   1.234   6.672   9.276 -1.0951  0.4260  2.2675
  830MOL0     H11995   1.285   6.889   9.388 -1.1283 -0.3475 -0.9725
  830MOL0     H11996   1.288   6.757   9.504 -0.6292 -1.8427 -1.8018
  830MOL0     H11997   1.562   6.798   9.389 -0.5481  0.3822 -0.4678
  830MOL0     H11998   1.512   6.765   9.545  0.6154  1.1331  0.5481
  830MOL0     H11999   1.611   6.990   9.525  0.6511 -2.6199 -2.9827
  830MOL0     H12000   1.469   7.047   9.435  0.6715 -0.3985 -1.7914
  830MOL0     H12001   1.512   6.928   9.815 -0.6205 -0.8978  0.0306
  830MOL0     H12002   1.331   7.128  10.021 -0.1446  0.0203 -0.8282
  830MOL0     H12003   1.183   7.052   9.965  0.1976  1.8618  0.7287
  830MOL0     H12004   1.222   6.865  10.058 -0.8764  0.8704 -0.5167
  830MOL0     H12005   1.355   6.821   9.963 -0.5532 -1.0672  0.5007
  830MOL0     H12006   1.418   6.831  10.209  0.0711 -0.7190  0.5689
  830MOL0     H12007   1.364   6.994  10.223  1.4124  0.0489 -0.7630
  830MOL0     H12008   1.589   7.012  10.226  1.3299  0.4607  0.4068
  830MOL0     H12009   1.524   7.097  10.090  1.8186 -1.4179 -2.8085
  830MOL0     H12010   1.810   6.805   9.903  0.3289 -1.0538 -0.0522
  830MOL0     H12011   1.912   6.592   9.931  1.0409  0.3086 -0.5957
  830MOL0     H12012   1.769   6.149  10.322 -0.5119 -0.4578 -0.2243
  830MOL0     H12013   1.870   5.919  10.354  0.8519 -0.0488 -0.1329
  830MOL0     H12014   2.250   5.845  10.220  0.4390  3.8892  0.3783
  830MOL0     H12015   2.342   5.887  10.366  1.8227 -2.4921 -0.5767
  830MOL0     H12016   2.275   5.681  10.469  0.9605 -2.0718  0.8173
  830MOL0     H12017   2.204   5.628  10.309 -0.1186 -1.4728  1.0053
  830MOL0     H12018   2.507   5.711  10.351 -0.8108  2.6220 -0.5107
  830MOL0     H12019   2.439   5.549  10.344 -0.7367 -0.0375  0.8695
  830MOL0     H12020   2.482   5.756  10.130  2.6157 -0.6576 -1.1563
  830MOL0     H12021   2.344   5.636  10.114 -0.0469  0.6264  0.3252
  830MOL0     H12022   2.643   5.592  10.165  0.0094 -0.9883 -0.6942
  830MOL0     H12023   2.574   5.601  10.001  2.0752  1.3406  0.1993
  830MOL0     H12024   2.497   5.398  10.210 -3.3466  1.6438 -0.2493
  830MOL0     H12025   2.419   5.411  10.055 -0.9272 -0.3448  0.1284
  830MOL0     H12026   2.581   5.231  10.069  1.9273 -0.6022  1.4777
  830MOL0     H12027   2.713   5.353  10.090 -0.8477  0.6540  2.0293
  830MOL0     H12028   2.666   5.433   9.848 -2.3204  2.0350  0.8228
  830MOL0     H12029   2.700   5.260   9.853 -0.8664 -1.6557  0.4942
  830MOL0     H12030   2.260   6.105  10.344 -0.0273  1.3283 -0.8452
  830MOL0     H12031   2.171   6.319  10.284 -1.2847 -0.4922 -2.0426
  830MOL0     H12032   1.780   6.585  10.340  3.3493 -0.3590 -0.5854
  830MOL0     H12033   1.653   6.797  10.302  0.0750 -0.9408 -0.4266
  830MOL0     H12034   1.834   6.288   9.011 -0.2668  0.8528  1.3115
  830MOL0     H12035   2.051   6.334   8.903  2.8495 -0.0043  1.6422
  830MOL0     H12036   2.265   6.803   8.619  0.4031  1.9015  2.4707
  830MOL0     H12037   2.483   6.878   8.589  0.6789  0.3213  1.7095
  830MOL0     H12038   2.706   6.976   8.673 -1.0791 -0.5910 -0.5385
  830MOL0     H12039   2.692   6.906   8.523 -2.7859  0.7523  1.1207
  830MOL0     H12040   2.926   6.989   8.544  3.7065  0.4037  2.3881
  830MOL0     H12041   2.924   6.820   8.513  2.6988  0.8799  0.2649
  830MOL0     H12042   2.961   6.793   8.770  1.0454  1.4742  2.5356
  830MOL0     H12043   2.960   6.965   8.791  0.1634 -0.4741  0.9116
  830MOL0     H12044   3.175   6.860   8.771  0.1055 -0.8410  0.7587
  830MOL0     H12045   3.134   6.810   8.603 -0.9304  0.6911 -0.5240
  830MOL0     H12046   3.227   7.222   8.557  0.7079 -0.9139 -1.9139
  830MOL0     H12047   2.645   6.540   8.770 -0.1777  1.0879  0.9164
  830MOL0     H12048   2.512   6.370   8.866 -0.3146 -1.4003 -3.6520
  830MOL0     H12049   2.407   6.447   8.972 -3.2425 -1.6493  0.0310
  830MOL0     H12050   2.337   6.371   8.834 -2.4067  2.8445 -0.8172
  831MOL0     O12051   3.398   6.681   9.261 -0.4505 -0.2817  0.7146
  831MOL0     C12052   3.318   6.772   9.299 -0.0310 -0.1167 -0.2940
  831MOL0     O12053   3.360   6.880   9.377  0.4266  0.0858 -0.6065
  831MOL0     C12054   3.496   6.898   9.409  0.3889  0.5278  1.2960
  831MOL0     C12055   3.577   6.800   9.464  0.0689 -0.0431  0.6371
  831MOL0     C12056   3.706   6.826   9.503 -1.1305 -0.5484 -0.6715
  831MOL0     C12057   3.768   6.953   9.468  0.3982  1.4792 -0.6393
  831MOL0     O12058   3.902   6.966   9.505  0.5238  0.0390  0.4495
  831MOL0     C12059   3.969   7.083   9.459 -0.1517  0.1419 -0.6592
  831MOL0     C12060   4.116   7.053   9.490  0.7017  0.0584  0.2517
  831MOL0     C12061   4.222   7.146   9.428  0.0562 -0.3739  0.2427
  831MOL0     C12062   4.240   7.100   9.283  0.2965 -0.6578 -0.2404
  831MOL0     C12063   4.351   7.178   9.205 -0.2722  0.0054  0.4156
  831MOL0     C12064   4.346   7.330   9.228 -0.2847  0.0322  0.7626
  831MOL0     C12065   4.416   7.412   9.119 -0.8421  0.0784  0.2473
  831MOL0     C12066   4.434   7.561   9.166 -0.1923  0.0667  0.9930
  831MOL0     N12067   4.550   7.607   9.096 -0.1430  0.0360 -0.4109
  831MOL0     C12068   4.556   7.717   9.011 -0.1864 -0.0259 -0.0983
  831MOL0     C12069   4.687   7.746   8.987 -0.3717  0.2789 -0.3457
  831MOL0     C12070   4.758   7.869   8.931  0.2937  0.9780  0.5732
  831MOL0     C12071   4.763   7.981   9.041  0.0529 -0.4189  0.2941
  831MOL0     C12072   4.871   8.084   8.991 -0.4360  0.2351  0.6159
  831MOL0     C12073   4.876   8.203   9.090 -0.0345  0.3155  0.0819
  831MOL0     O12074   4.921   8.161   9.221 -0.1684  0.6004 -0.3151
  831MOL0     C12075   5.059   8.144   9.232 -0.6650 -0.0378  1.1375
  831MOL0     C12076   5.106   8.091   9.350  0.5653  0.6333  0.1012
  831MOL0     C12077   5.240   8.072   9.379  0.7156  0.0111 -0.6622
  831MOL0     C12078   5.331   8.112   9.284  0.0411  0.1697  1.2554
  831MOL0     C12079   5.472   8.096   9.324  0.4193  1.5345 -0.2208
  831MOL0     O12080   5.503   8.059   9.451  0.3008 -0.0222  0.4121
  831MOL0     C12081   5.630   8.064   9.501 -0.0774 -0.3859  1.0182
  831MOL0     C12082   5.732   7.993   9.434 -1.3473  0.4445  0.7351
  831MOL0     C12083   5.847   7.960   9.504 -0.6746 -0.1510 -0.1865
  831MOL0     C12084   5.861   8.003   9.638  0.1366  0.4727  0.1474
  831MOL0     O12085   5.945   7.938   9.720  0.4531 -0.0503 -0.3044
  831MOL0     C12086   6.054   8.016   9.763 -0.2993  0.0737 -0.2876
  831MOL0     C12087   6.141   7.936   9.865 -0.0638  0.6041  0.6174
  831MOL0     C12088   6.218   7.827   9.781  0.4509  0.2225  1.0390
  831MOL0     C12089   6.292   7.725   9.862 -0.2922 -0.3483 -0.3942
  831MOL0     C12090   6.361   7.618   9.774  0.3281  0.6073  0.7314
  831MOL0     C12091   6.511   7.613   9.808  0.5731  0.4113 -0.2053
  831MOL0     C12092   6.550   7.539   9.931  0.2164  0.6928  1.3147
  831MOL0     C12093   6.677   7.456   9.900 -0.3710 -0.5217 -0.3558
  831MOL0    Cl12094   6.668   7.364   9.756 -0.0731 -0.2080  0.0057
  831MOL0     C12095   5.760   8.084   9.705 -0.6369  0.5924  0.4265
  831MOL0     C12096   5.646   8.108   9.636 -0.0031  0.1164 -0.3324
  831MOL0     O12097   5.553   8.133   9.245 -0.1056  0.1040  1.2418
  831MOL0     C12098   5.293   8.170   9.158 -0.1183 -0.3362  0.7493
  831MOL0     C12099   5.151   8.179   9.136 -1.0088 -0.3326 -0.1403
  831MOL0     N12100   4.759   7.661   9.067 -0.7264  0.6597  0.5083
  831MOL0     N12101   4.681   7.576   9.127 -0.1639  0.0067  0.4527
  831MOL0     C12102   3.692   7.047   9.399  0.1709  0.2440  0.2534
  831MOL0     C12103   3.559   7.019   9.367 -0.1977  0.0877 -1.0025
  831MOL0     C12104   3.177   6.775   9.257 -0.2876  0.1966  0.7961
  831MOL0     C12105   3.090   6.824   9.352  0.1745 -1.4447 -0.0372
  831MOL0     C12106   2.954   6.812   9.330 -0.0537 -0.0491 -0.0650
  831MOL0     C12107   2.909   6.765   9.204 -0.4161  0.4647 -0.7117
  831MOL0     O12108   2.774   6.782   9.173  0.3293 -0.3178 -0.0611
  831MOL0     C12109   2.724   6.773   9.039  0.3058 -0.9639  0.4367
  831MOL0     C12110   2.578   6.807   9.034  0.3646 -0.2257  0.2193
  831MOL0     C12111   2.496   6.746   9.152  0.9034 -0.3425  0.3095
  831MOL0     C12112   2.338   6.745   9.117 -0.1281  0.5049 -0.4938
  831MOL0     C12113   2.287   6.630   9.198 -0.2749 -0.0657  0.6402
  831MOL0     C12114   2.252   6.527   9.259  0.9699 -0.7022 -0.2295
  831MOL0     C12115   2.998   6.718   9.105 -0.3288 -1.2618  0.0059
  831MOL0     C12116   3.134   6.718   9.132  0.1866  0.2202  1.2179
  831MOL0     C12117   3.224   6.653   9.025  0.2596 -0.7986 -0.0149
  831MOL0     H12118   3.536   6.702   9.485  2.9344 -1.0592  2.0741
  831MOL0     H12119   3.764   6.755   9.560 -0.2614 -1.2214 -2.3246
  831MOL0     H12120   3.962   7.103   9.352 -2.3295 -0.6867 -0.7193
  831MOL0     H12121   3.945   7.177   9.510  1.2994  0.3536 -0.3137
  831MOL0     H12122   4.131   6.954   9.448 -1.3592 -0.5031  0.7311
  831MOL0     H12123   4.127   7.051   9.599  1.1564  0.3157  0.2150
  831MOL0     H12124   4.312   7.135   9.489 -0.3797 -0.5609  0.8566
  831MOL0     H12125   4.187   7.249   9.417 -2.6025 -1.4334 -2.7707
  831MOL0     H12126   4.264   6.994   9.280 -0.2729 -0.7808 -0.5638
  831MOL0     H12127   4.147   7.117   9.227 -0.2270 -3.7337 -0.4473
  831MOL0     H12128   4.453   7.150   9.234  0.3874  1.5041 -0.3859
  831MOL0     H12129   4.332   7.161   9.099 -1.4256  0.8314  0.4743
  831MOL0     H12130   4.242   7.362   9.235 -0.5452 -0.9477  1.4827
  831MOL0     H12131   4.398   7.348   9.322 -1.1861 -2.2078  1.7682
  831MOL0     H12132   4.359   7.420   9.026  0.8190  2.6932 -0.6702
  831MOL0     H12133   4.518   7.374   9.105 -1.0752 -0.7169  0.6469
  831MOL0     H12134   4.344   7.612   9.133  0.0121  0.7021  1.3996
  831MOL0     H12135   4.443   7.572   9.275 -1.7458  1.1905  1.0322
  831MOL0     H12136   4.469   7.768   8.969 -1.8742 -2.5850  0.0624
  831MOL0     H12137   4.860   7.840   8.904  0.4675 -1.5175  3.4516
  831MOL0     H12138   4.710   7.905   8.840  0.9196  2.4953  0.7972
  831MOL0     H12139   4.666   8.032   9.043 -0.3517 -1.1906  1.1912
  831MOL0     H12140   4.784   7.948   9.143  0.9402  0.8837  0.5466
  831MOL0     H12141   4.852   8.131   8.893 -0.2548  0.9420  0.9107
  831MOL0     H12142   4.972   8.044   8.979 -0.3188  1.1537 -2.5387
  831MOL0     H12143   4.769   8.227   9.094 -0.8202 -2.3134 -2.1494
  831MOL0     H12144   4.927   8.292   9.051  0.6631 -0.3145 -0.4622
  831MOL0     H12145   5.030   8.054   9.418 -1.1929  2.1909 -0.9099
  831MOL0     H12146   5.275   8.027   9.471 -1.1608  1.2056  0.7250
  831MOL0     H12147   5.718   7.944   9.338  1.1765  2.5633 -0.8370
  831MOL0     H12148   5.926   7.899   9.462  1.5498  3.9023 -2.4915
  831MOL0     H12149   6.116   8.056   9.682 -0.5076  2.1809  0.5388
  831MOL0     H12150   6.026   8.103   9.823 -1.2613 -0.9629  0.8336
  831MOL0     H12151   6.215   7.999   9.916 -0.0774  0.9210  0.2433
  831MOL0     H12152   6.073   7.891   9.937  1.5686 -0.3747  1.6182
  831MOL0     H12153   6.149   7.774   9.714  2.7172 -1.4913 -0.1021
  831MOL0     H12154   6.287   7.884   9.718 -2.4888 -0.3523 -3.1967
  831MOL0     H12155   6.221   7.673   9.927  0.2505 -0.1880  0.3406
  831MOL0     H12156   6.362   7.774   9.930 -1.9343  2.0513 -0.3351
  831MOL0     H12157   6.345   7.647   9.669  2.9891 -1.4000 -0.3356
  831MOL0     H12158   6.322   7.515   9.775 -0.5255  0.8553 -1.4027
  831MOL0     H12159   6.566   7.579   9.720  0.3591  0.7339 -0.4697
  831MOL0     H12160   6.549   7.713   9.831 -1.6852  0.6867  3.0453
  831MOL0     H12161   6.467   7.473   9.959 -0.2616  0.2227 -0.9792
  831MOL0     H12162   6.572   7.612  10.009 -1.4012  2.3364  0.2941
  831MOL0     H12163   6.762   7.525   9.911  1.3999 -2.6359 -0.1500
  831MOL0     H12164   6.698   7.392   9.986 -0.1139  1.4722  1.1399
  831MOL0     H12165   5.768   8.101   9.812 -2.4484 -0.5185  0.7770
  831MOL0     H12166   5.568   8.169   9.679 -0.4342 -1.0418  0.5850
  831MOL0     H12167   5.362   8.193   9.078 -1.3745  1.7765  0.1925
  831MOL0     H12168   5.128   8.230   9.043 -0.1785 -0.5210 -0.4610
  831MOL0     H12169   3.741   7.132   9.352  1.4667 -0.6569 -0.0757
  831MOL0     H12170   3.503   7.091   9.308 -0.5637 -1.2988 -2.4240
  831MOL0     H12171   3.107   6.854   9.455  1.3939  1.1050 -0.9066
  831MOL0     H12172   2.882   6.853   9.400 -2.0562 -1.9691 -0.8580
  831MOL0     H12173   2.747   6.678   8.990  0.6199  0.4866 -2.4342
  831MOL0     H12174   2.763   6.851   8.973 -4.4389 -0.5526 -2.3344
  831MOL0     H12175   2.537   6.770   8.940 -0.6422 -1.2950  1.0555
  831MOL0     H12176   2.561   6.915   9.037  0.6667 -0.1419 -0.8000
  831MOL0     H12177   2.516   6.812   9.237  1.5088 -1.3704  0.9748
  831MOL0     H12178   2.529   6.647   9.182  0.2227 -0.4298  0.7918
  831MOL0     H12179   2.292   6.842   9.139  3.3667  2.4101 -0.8451
  831MOL0     H12180   2.315   6.728   9.012 -0.1615  1.8007 -0.7130
  831MOL0     H12181   2.221   6.444   9.319  0.2717 -0.2275  0.0694
  831MOL0     H12182   2.956   6.676   9.013 -2.1034 -1.1933  0.7386
  831MOL0     H12183   3.185   6.657   8.923 -0.3373 -2.9640  0.0910
  831MOL0     H12184   3.324   6.697   9.028 -1.1756  2.9501 -0.9832
  831MOL0     H12185   3.235   6.547   9.048 -1.7030 -0.9686  0.3257
  832MOL0     O12186   0.556   4.326   2.132  0.5320  0.1211 -0.1723
  832MOL0     C12187   0.486   4.420   2.173 -0.3108 -0.4348 -0.5701
  832MOL0     O12188   0.546   4.540   2.213  0.3030  0.4732  0.2133
  832MOL0     C12189   0.687   4.546   2.220 -0.9098 -0.7024  0.4847
  832MOL0     C12190   0.748   4.568   2.343  0.5170 -0.0990  0.1581
  832MOL0     C12191   0.889   4.564   2.366 -0.1751  0.3739  0.2323
  832MOL0     C12192   0.969   4.540   2.260  0.0259  0.2561 -0.2681
  832MOL0     O12193   1.106   4.519   2.269  0.5712  0.5156 -0.4788
  832MOL0     C12194   1.179   4.639   2.229  0.5882  0.3563  0.2525
  832MOL0     C12195   1.314   4.640   2.299  0.0370 -0.1647  0.3192
  832MOL0     C12196   1.416   4.548   2.243 -0.1155  0.4502 -0.3668
  832MOL0     C12197   1.544   4.561   2.335 -0.9228  0.1792 -0.3239
  832MOL0     C12198   1.667   4.488   2.276  0.3058  0.6360 -0.1306
  832MOL0     C12199   1.803   4.516   2.339  0.4066  0.3563 -0.5800
  832MOL0     C12200   1.911   4.417   2.290  0.4441  0.5786 -0.4320
  832MOL0     C12201   1.904   4.274   2.338  0.2382 -0.2650 -0.1852
  832MOL0     N12202   2.030   4.203   2.314  0.6513 -0.1697 -0.1210
  832MOL0     C12203   2.037   4.119   2.204  0.0623  0.8691 -0.1856
  832MOL0     C12204   2.161   4.061   2.220  0.0933  0.2717 -0.1292
  832MOL0     C12205   2.212   3.938   2.136  0.2991 -0.1945  0.2999
  832MOL0     C12206   2.362   3.946   2.130 -0.9991 -0.1505  0.2444
  832MOL0     C12207   2.437   3.827   2.066  0.1001  1.2105 -0.2068
  832MOL0     C12208   2.589   3.849   2.067  0.6110 -0.0304 -0.5754
  832MOL0     O12209   2.637   3.901   2.193 -0.3548 -0.2877 -0.8641
  832MOL0     C12210   2.726   4.012   2.191 -0.1278 -0.1974 -0.9263
  832MOL0     C12211   2.838   4.030   2.104  0.3209 -0.3268  0.4690
  832MOL0     C12212   2.918   4.145   2.115  0.0325 -0.7752  0.4361
  832MOL0     C12213   2.902   4.249   2.212  0.8166  0.5723  0.3960
  832MOL0     C12214   2.974   4.379   2.208  0.2067  0.2466 -0.2167
  832MOL0     O12215   2.966   4.458   2.314  0.0529  0.4077  0.6013
  832MOL0     C12216   3.059   4.554   2.343  0.0525 -0.2654  0.3114
  832MOL0     C12217   3.014   4.633   2.446 -0.1372 -0.6038  0.4453
  832MOL0     C12218   3.077   4.753   2.484 -0.8024 -0.1521  0.6477
  832MOL0     C12219   3.198   4.778   2.429  0.3562 -0.6568  0.6294
  832MOL0     O12220   3.261   4.877   2.503 -1.2679  0.1348 -0.4721
  832MOL0     C12221   3.383   4.932   2.447  0.1400 -0.6537 -0.6248
  832MOL0     C12222   3.449   5.017   2.548 -0.2628 -0.2074  1.0497
  832MOL0     C12223   3.572   5.086   2.481 -0.5291 -0.2130 -0.8654
  832MOL0     C12224   3.638   5.164   2.594  0.1602  0.9724 -0.7746
  832MOL0     C12225   3.754   5.268   2.560  0.2652 -0.4887 -0.3535
  832MOL0     C12226   3.888   5.198   2.534 -1.0114  0.1840  0.1141
  832MOL0     C12227   4.003   5.302   2.524  0.3110 -0.7087 -0.5505
  832MOL0     C12228   4.139   5.248   2.472  1.2007  0.4074  0.1498
  832MOL0    Cl12229   4.214   5.378   2.370 -0.5085  0.0177  0.6354
  832MOL0     C12230   3.251   4.705   2.315 -0.5336  0.4178  1.0761
  832MOL0     C12231   3.179   4.593   2.270  0.9487 -1.3230  0.1089
  832MOL0     O12232   3.043   4.392   2.106 -0.4434 -0.1281 -0.5603
  832MOL0     C12233   2.791   4.230   2.296  0.3639  0.1833 -0.4245
  832MOL0     C12234   2.710   4.112   2.290 -0.8250 -0.3818 -0.6427
  832MOL0     N12235   2.219   4.122   2.335 -0.7238 -0.7716  0.0793
  832MOL0     N12236   2.142   4.204   2.388 -0.1540  0.6749 -0.0326
  832MOL0     C12237   0.913   4.536   2.131  0.5586 -0.8728 -1.0638
  832MOL0     C12238   0.773   4.539   2.110 -0.5460  0.2729  0.1864
  832MOL0     C12239   0.339   4.430   2.176  0.7822  0.7353 -0.1062
  832MOL0     C12240   0.274   4.550   2.184 -0.4472 -0.3101 -0.9955
  832MOL0     C12241   0.134   4.563   2.185 -0.6781  0.4418 -0.0915
  832MOL0     C12242   0.052   4.450   2.175 -0.1954  0.2007  0.2672
  832MOL0     O12243  -0.083   4.482   2.178  0.4524  0.0796 -0.5844
  832MOL0     C12244  -0.188   4.387   2.181  0.2118  0.1819 -0.0052
  832MOL0     C12245  -0.327   4.433   2.220 -0.4076  0.8641  0.0357
  832MOL0     C12246  -0.404   4.494   2.098  0.1114 -0.4579  0.5822
  832MOL0     C12247  -0.552   4.516   2.133  0.1260  0.0446  0.1900
  832MOL0     C12248  -0.621   4.615   2.057  0.3209 -1.1196  0.0064
  832MOL0     C12249  -0.696   4.688   1.988 -0.5013 -0.1185  0.3323
  832MOL0     C12250   0.117   4.330   2.170  1.2834 -0.3323 -0.5288
  832MOL0     C12251   0.254   4.317   2.165  0.5578 -0.1822  0.1745
  832MOL0     C12252   0.317   4.177   2.147  0.3164  0.5975  0.2735
  832MOL0     H12253   0.681   4.574   2.428 -2.3416  2.5592 -2.0584
  832MOL0     H12254   0.932   4.567   2.465  0.8786  0.4525 -0.2134
  832MOL0     H12255   1.190   4.633   2.120 -0.8143 -0.8667  0.1529
  832MOL0     H12256   1.120   4.726   2.259  0.0649  0.8472 -2.0055
  832MOL0     H12257   1.306   4.611   2.404  0.7000  1.0723  0.7280
  832MOL0     H12258   1.349   4.742   2.285  0.5452 -0.3040  0.5403
  832MOL0     H12259   1.450   4.578   2.144  0.6366  1.4017  0.1534
  832MOL0     H12260   1.378   4.445   2.245 -0.3139  0.5266  0.0522
  832MOL0     H12261   1.573   4.666   2.337 -1.0448  0.2375  2.4687
  832MOL0     H12262   1.522   4.530   2.438  0.1777 -2.7943 -0.8921
  832MOL0     H12263   1.643   4.382   2.283  0.8894  0.5230  0.1963
  832MOL0     H12264   1.673   4.516   2.170 -0.7086  0.8390 -0.1472
  832MOL0     H12265   1.836   4.608   2.290  1.4307 -0.2780 -1.1214
  832MOL0     H12266   1.793   4.529   2.447 -0.7502  1.4627 -0.7983
  832MOL0     H12267   2.002   4.467   2.323 -0.8461  3.7021 -1.2130
  832MOL0     H12268   1.927   4.401   2.183  0.0132 -0.2019 -0.3835
  832MOL0     H12269   1.898   4.279   2.448 -2.2148 -0.8346 -0.2257
  832MOL0     H12270   1.812   4.221   2.312 -1.1175  0.5458  2.5428
  832MOL0     H12271   1.962   4.113   2.126 -0.5508 -1.0167  0.5087
  832MOL0     H12272   2.166   3.847   2.177 -1.6173  0.8606  0.5912
  832MOL0     H12273   2.176   3.936   2.033 -2.4816 -3.4498  1.1578
  832MOL0     H12274   2.381   4.039   2.076 -1.0242 -0.6625 -0.6487
  832MOL0     H12275   2.402   3.951   2.232  1.4054 -2.4190 -0.4895
  832MOL0     H12276   2.399   3.808   1.965  1.9972 -5.0410 -0.1505
  832MOL0     H12277   2.402   3.745   2.129 -2.4368  2.0508 -0.3803
  832MOL0     H12278   2.602   3.926   1.991  0.0567 -0.3626 -1.0163
  832MOL0     H12279   2.648   3.762   2.039 -1.5918 -1.0881 -2.2067
  832MOL0     H12280   2.859   3.963   2.020  1.5614 -0.2160  0.6637
  832MOL0     H12281   2.996   4.158   2.040  1.7039 -2.6295  1.7633
  832MOL0     H12282   2.925   4.609   2.503  0.3451  0.5921  1.7606
  832MOL0     H12283   3.045   4.809   2.572  0.6020  2.8122 -0.5910
  832MOL0     H12284   3.447   4.847   2.424  0.2322 -0.2591 -1.9035
  832MOL0     H12285   3.353   4.974   2.351 -3.7392 -3.1515 -0.7389
  832MOL0     H12286   3.381   5.096   2.581 -1.5867 -1.1237  0.5899
  832MOL0     H12287   3.477   4.957   2.635  0.2412 -0.5947  0.6227
  832MOL0     H12288   3.627   4.998   2.446 -3.0227 -1.9046 -0.7738
  832MOL0     H12289   3.548   5.157   2.402 -1.5211  1.4603  0.8553
  832MOL0     H12290   3.673   5.094   2.670 -1.0778  1.1889  0.0299
  832MOL0     H12291   3.554   5.223   2.633 -1.8482 -1.6076 -0.9927
  832MOL0     H12292   3.776   5.331   2.647  2.7134  1.8359 -2.4689
  832MOL0     H12293   3.726   5.331   2.476 -1.1917 -1.6664 -0.7943
  832MOL0     H12294   3.915   5.125   2.610  0.1755  0.5119  0.0254
  832MOL0     H12295   3.891   5.148   2.436  4.0472 -0.0864  0.1230
  832MOL0     H12296   4.020   5.350   2.621 -3.8308 -0.9801  0.4728
  832MOL0     H12297   3.983   5.383   2.455  3.3251 -1.2372 -2.2309
  832MOL0     H12298   4.208   5.215   2.550  0.3786 -1.3835  0.1859
  832MOL0     H12299   4.116   5.159   2.413  0.3982 -0.0279  1.0849
  832MOL0     H12300   3.351   4.723   2.276 -1.2025  2.7399  0.2427
  832MOL0     H12301   3.212   4.530   2.187  1.6163 -0.6645 -0.1410
  832MOL0     H12302   2.774   4.308   2.369 -1.4693 -1.3884  0.9428
  832MOL0     H12303   2.631   4.094   2.361 -1.0179  0.3579 -0.6562
  832MOL0     H12304   0.987   4.513   2.056  3.5485  2.4640  0.5720
  832MOL0     H12305   0.747   4.519   2.007  1.1561  0.8028 -0.3750
  832MOL0     H12306   0.336   4.637   2.200 -1.3546  0.5242 -1.8650
  832MOL0     H12307   0.092   4.663   2.186 -1.6172  0.0710 -0.8995
  832MOL0     H12308  -0.156   4.320   2.261 -2.1386 -0.0683  0.7769
  832MOL0     H12309  -0.190   4.333   2.086 -1.7279 -1.7261  1.0452
  832MOL0     H12310  -0.325   4.504   2.303 -0.3542  1.3129 -0.3489
  832MOL0     H12311  -0.386   4.349   2.259  1.6859 -1.0011 -0.5431
  832MOL0     H12312  -0.403   4.427   2.011  3.5979 -0.0750  0.1678
  832MOL0     H12313  -0.358   4.588   2.066 -1.8928  0.1010 -0.8057
  832MOL0     H12314  -0.603   4.419   2.134  2.9704 -1.6900  4.4438
  832MOL0     H12315  -0.552   4.560   2.234  4.0935  1.4096 -0.2415
  832MOL0     H12316  -0.761   4.745   1.924 -0.6469 -0.3974  0.2306
  832MOL0     H12317   0.059   4.239   2.156  0.9028 -0.4988  1.7745
  832MOL0     H12318   0.391   4.158   2.224  2.2155  2.5979 -0.9222
  832MOL0     H12319   0.235   4.104   2.145  0.8019  0.0605 -0.6141
  832MOL0     H12320   0.369   4.188   2.051 -0.1365 -1.4164 -0.2426
  833MOL0     O12321   5.599  10.882   2.080 -1.3202 -0.4182 -0.7327
  833MOL0     C12322   5.650  10.779   2.036 -0.0790  0.6131 -0.6035
  833MOL0     O12323   5.774  10.762   1.978  0.3500  0.4296  0.6441
  833MOL0     C12324   5.863  10.867   1.943 -1.0541 -0.3474  0.7430
  833MOL0     C12325   5.952  10.846   1.834 -0.3978 -0.9098  0.5893
  833MOL0     C12326   6.044  10.945   1.790  0.0503  0.2141  0.1821
  833MOL0     C12327   6.047  11.064   1.851 -0.0017 -1.0698 -0.6558
  833MOL0     O12328   6.151  11.150   1.806 -0.0798  0.6200  0.7260
  833MOL0     C12329   6.186  11.263   1.889 -0.2887 -0.0358 -0.2417
  833MOL0     C12330   6.268  11.203   2.000 -0.2915 -0.7629  0.2756
  833MOL0     C12331   6.414  11.172   1.971  0.4238  0.0447  0.1876
  833MOL0     C12332   6.503  11.143   2.090 -0.1121  0.8256 -0.3394
  833MOL0     C12333   6.649  11.129   2.052 -0.8158  0.3946 -0.3469
  833MOL0     C12334   6.688  10.980   2.004  0.0109 -1.1952 -0.7027
  833MOL0     C12335   6.837  10.973   2.011  0.2172  0.0650 -0.6809
  833MOL0     C12336   6.888  10.831   1.966  0.4652 -0.4419 -0.6885
  833MOL0     N12337   7.024  10.842   1.918  0.0536  0.4136 -0.3784
  833MOL0     C12338   7.126  10.786   1.982 -1.2157 -0.0906 -0.1137
  833MOL0     C12339   7.235  10.820   1.916  0.5882 -0.2399 -0.5769
  833MOL0     C12340   7.376  10.777   1.944  0.2606  0.2335  0.8834
  833MOL0     C12341   7.465  10.899   1.979  0.1841  0.3301 -0.0291
  833MOL0     C12342   7.450  10.934   2.128 -0.0449 -0.3162 -0.0392
  833MOL0     C12343   7.378  11.064   2.165 -0.6143  0.3192  0.7558
  833MOL0     O12344   7.426  11.174   2.094 -0.2771 -0.5457  0.0101
  833MOL0     C12345   7.534  11.241   2.144  0.0647 -0.3583  0.8811
  833MOL0     C12346   7.672  11.204   2.129  0.0940  0.2379  0.6420
  833MOL0     C12347   7.774  11.265   2.201 -0.1386  1.5188  0.0772
  833MOL0     C12348   7.748  11.370   2.284 -0.1568 -0.4386 -0.3921
  833MOL0     C12349   7.852  11.448   2.348  0.8342 -0.1656  0.1052
  833MOL0     O12350   7.972  11.413   2.322 -1.2306  0.2591 -0.2098
  833MOL0     C12351   8.077  11.470   2.397 -0.9480 -0.2442 -0.0044
  833MOL0     C12352   8.145  11.402   2.504 -0.0496 -0.7501 -0.5611
  833MOL0     C12353   8.257  11.460   2.569  0.1112  0.0581  0.1758
  833MOL0     C12354   8.297  11.585   2.530 -0.7593 -0.0897 -0.0709
  833MOL0     O12355   8.404  11.637   2.600  0.1194  0.2626  0.9802
  833MOL0     C12356   8.390  11.772   2.655  0.1172  0.6574 -0.5011
  833MOL0     C12357   8.319  11.757   2.792  0.0886 -0.1162  0.9407
  833MOL0     C12358   8.404  11.687   2.896 -0.7379 -0.2428  0.7811
  833MOL0     C12359   8.343  11.666   3.032  0.4644  0.4468  0.6828
  833MOL0     C12360   8.448  11.624   3.140 -0.0699  0.0908  0.0025
  833MOL0     C12361   8.533  11.505   3.086 -0.3332 -0.0269  0.4362
  833MOL0     C12362   8.571  11.419   3.204  0.5916 -1.1449  0.3819
  833MOL0     C12363   8.674  11.486   3.300 -0.1354  0.8287  0.0740
  833MOL0    Cl12364   8.612  11.586   3.430  0.1439  0.1859  0.3544
  833MOL0     C12365   8.235  11.653   2.422 -0.2959 -0.1183 -0.3695
  833MOL0     C12366   8.128  11.592   2.354  0.4621 -0.5698  0.5545
  833MOL0     O12367   7.821  11.541   2.418 -0.2682 -1.0628 -0.4369
  833MOL0     C12368   7.616  11.416   2.295 -0.5214 -0.4725 -0.3409
  833MOL0     C12369   7.511  11.357   2.226 -0.5393  1.0563 -0.1368
  833MOL0     N12370   7.190  10.898   1.812 -0.5493  0.3148  0.9463
  833MOL0     N12371   7.061  10.908   1.812  0.5020 -0.1502 -0.0669
  833MOL0     C12372   5.963  11.089   1.968 -0.6489 -0.0126 -0.5902
  833MOL0     C12373   5.887  10.990   2.013  0.2784  0.5684  0.2158
  833MOL0     C12374   5.585  10.642   2.082  0.8390 -1.0175 -0.2846
  833MOL0     C12375   5.452  10.643   2.117  1.0853  0.1495  0.0255
  833MOL0     C12376   5.386  10.522   2.132 -0.6767  0.0704 -0.9776
  833MOL0     C12377   5.444  10.393   2.134 -0.4597 -0.9652 -0.0472
  833MOL0     O12378   5.357  10.298   2.168 -0.1083  0.0488 -0.5115
  833MOL0     C12379   5.404  10.163   2.184  0.8390 -0.1253  0.6138
  833MOL0     C12380   5.285  10.066   2.187  0.9792  0.4760  0.5615
  833MOL0     C12381   5.180  10.107   2.293  0.2451 -1.0360 -0.3589
  833MOL0     C12382   5.051  10.028   2.285  0.5298 -0.1834 -0.4616
  833MOL0     C12383   5.078   9.887   2.283  0.0060 -0.4168  0.5528
  833MOL0     C12384   5.088   9.775   2.302  0.0397  0.9952  1.1020
  833MOL0     C12385   5.585  10.390   2.119  0.3777 -0.8311  0.0883
  833MOL0     C12386   5.653  10.511   2.087 -0.1756 -0.2796  0.4217
  833MOL0     C12387   5.800  10.507   2.051 -0.8533 -0.0707 -0.2603
  833MOL0     H12388   5.932  10.763   1.767 -3.7335  0.7148 -0.7098
  833MOL0     H12389   6.097  10.933   1.696  0.1805 -0.0711  0.2920
  833MOL0     H12390   6.247  11.332   1.830  0.2420 -0.9129 -0.7409
  833MOL0     H12391   6.097  11.305   1.936 -0.8825 -1.6865  0.1944
  833MOL0     H12392   6.217  11.130   2.064 -2.0979  2.4766  2.8256
  833MOL0     H12393   6.265  11.283   2.074 -2.0118 -1.5947  1.1936
  833MOL0     H12394   6.453  11.254   1.910 -4.2025  1.2967 -1.4867
  833MOL0     H12395   6.413  11.084   1.906 -4.1809 -0.5109  0.6568
  833MOL0     H12396   6.506  11.225   2.162  0.9570  0.3555  0.1788
  833MOL0     H12397   6.469  11.052   2.142 -1.8112  1.5645 -0.0876
  833MOL0     H12398   6.675  11.195   1.969  1.1023 -0.8990 -0.8402
  833MOL0     H12399   6.714  11.163   2.133  1.1557 -1.2426 -1.1440
  833MOL0     H12400   6.643  10.900   2.064  0.4827 -1.9168 -1.2983
  833MOL0     H12401   6.649  10.968   1.902 -0.8669 -0.6265 -0.4475
  833MOL0     H12402   6.878  11.002   2.108 -0.1272 -1.4117 -0.0756
  833MOL0     H12403   6.870  11.042   1.932 -1.1531  0.0131 -1.3175
  833MOL0     H12404   6.893  10.755   2.045  1.6915 -3.5908 -3.5709
  833MOL0     H12405   6.835  10.784   1.882  0.0622 -1.8247  0.2879
  833MOL0     H12406   7.113  10.715   2.063 -1.3792 -0.0039 -0.0641
  833MOL0     H12407   7.361  10.707   2.026 -0.6839  1.3890  1.7219
  833MOL0     H12408   7.411  10.740   1.847 -0.3609  0.9400  0.3811
  833MOL0     H12409   7.563  10.859   1.952 -1.9192 -3.1511 -3.5059
  833MOL0     H12410   7.450  10.988   1.918  1.4119 -0.3030 -1.3150
  833MOL0     H12411   7.553  10.944   2.162 -0.1740  1.3677 -0.0184
  833MOL0     H12412   7.409  10.847   2.178 -1.3694 -0.0471 -0.6026
  833MOL0     H12413   7.391  11.076   2.273 -1.3824  0.8528  0.7955
  833MOL0     H12414   7.273  11.053   2.140 -0.7804  3.0993 -0.1901
  833MOL0     H12415   7.693  11.125   2.057  2.4019  0.7301  0.6965
  833MOL0     H12416   7.875  11.234   2.179 -0.5350  1.5875 -2.0411
  833MOL0     H12417   8.099  11.316   2.551 -0.0836 -0.2826  0.2818
  833MOL0     H12418   8.318  11.407   2.642  0.4672 -2.1928 -1.6365
  833MOL0     H12419   8.491  11.810   2.672  0.5274  0.4343 -2.2473
  833MOL0     H12420   8.343  11.841   2.584 -2.0403  1.0601  1.1890
  833MOL0     H12421   8.298  11.855   2.836  1.3099  1.1301 -1.1308
  833MOL0     H12422   8.225  11.702   2.777 -0.5194  0.8499  1.1415
  833MOL0     H12423   8.422  11.586   2.857 -0.2940  0.1158  0.0391
  833MOL0     H12424   8.500  11.739   2.893 -0.2456 -0.9817 -3.7262
  833MOL0     H12425   8.265  11.588   3.033  0.3291  0.5804  1.0979
  833MOL0     H12426   8.296  11.754   3.077 -1.9922 -0.3692 -0.1210
  833MOL0     H12427   8.398  11.603   3.235  1.2155  0.3175  0.7441
  833MOL0     H12428   8.518  11.705   3.160 -0.1534  0.1616  0.0062
  833MOL0     H12429   8.472  11.445   3.019  0.6324 -0.3388 -0.1725
  833MOL0     H12430   8.620  11.540   3.030  0.3448 -4.2609 -1.5276
  833MOL0     H12431   8.614  11.326   3.166  2.9386 -0.8586  2.1075
  833MOL0     H12432   8.481  11.392   3.259  0.2007 -0.4182  0.1093
  833MOL0     H12433   8.737  11.409   3.345  0.5324 -0.6534 -3.0854
  833MOL0     H12434   8.739  11.552   3.243 -0.2383  0.5919 -0.3227
  833MOL0     H12435   8.283  11.743   2.383  3.8084 -0.6348  2.7775
  833MOL0     H12436   8.061  11.638   2.283 -2.5158 -1.8004  2.3808
  833MOL0     H12437   7.597  11.495   2.367  0.4198 -0.4158 -0.1479
  833MOL0     H12438   7.407  11.381   2.245 -0.4995  1.2911 -0.2205
  833MOL0     H12439   5.960  11.190   2.008 -1.3810  1.5794 -4.2137
  833MOL0     H12440   5.829  10.995   2.105 -0.6047  0.7865 -0.3457
  833MOL0     H12441   5.390  10.732   2.114 -0.0781 -0.6376  0.1077
  833MOL0     H12442   5.278  10.528   2.143 -0.3872  2.4036  1.8549
  833MOL0     H12443   5.465  10.152   2.274  0.3128  0.1129  1.0059
  833MOL0     H12444   5.465  10.130   2.099  0.7281  1.8768 -0.2929
  833MOL0     H12445   5.326   9.966   2.199 -2.1490 -0.9837  0.0645
  833MOL0     H12446   5.244  10.079   2.086  3.3074 -2.3309 -0.8747
  833MOL0     H12447   5.150  10.212   2.286 -2.6950 -1.6466  1.4688
  833MOL0     H12448   5.220  10.087   2.392 -0.6928  0.5784  0.3765
  833MOL0     H12449   4.986  10.062   2.367 -0.5907  1.0760 -1.8291
  833MOL0     H12450   4.999  10.062   2.195  2.4312 -1.5740 -2.1705
  833MOL0     H12451   5.079   9.669   2.318  2.9651  0.9129  2.9651
  833MOL0     H12452   5.638  10.297   2.139 -1.5528 -1.8089  0.8367
  833MOL0     H12453   5.826  10.539   1.950 -2.4456 -0.6070 -0.8710
  833MOL0     H12454   5.859  10.570   2.119 -1.3360  0.6880 -0.5301
  833MOL0     H12455   5.823  10.400   2.047  0.6702  0.0272  2.8367
  834MOL0     O12456   8.683   1.629   9.962  0.0539  0.3896 -0.2284
  834MOL0     C12457   8.640   1.514   9.939  0.1742  0.7377 -0.4735
  834MOL0     O12458   8.716   1.407   9.946 -0.2909  0.2418  0.2133
  834MOL0     C12459   8.851   1.416   9.964  0.2957 -0.1056  0.9021
  834MOL0     C12460   8.943   1.508   9.900 -0.0083  0.3052 -0.6848
  834MOL0     C12461   9.070   1.526   9.952  0.5838 -0.2347 -0.4346
  834MOL0     C12462   9.121   1.450  10.047 -0.7179  0.2245  0.2664
  834MOL0     O12463   9.246   1.449  10.087  0.2820 -0.2002 -0.1760
  834MOL0     C12464   9.340   1.516  10.004 -0.8978 -0.5053  0.3398
  834MOL0     C12465   9.479   1.491  10.051 -0.2339 -0.5104  0.3019
  834MOL0     C12466   9.571   1.563   9.956  0.4076  0.4003  1.0685
  834MOL0     C12467   9.714   1.523   9.996  0.6363  0.3035  0.4133
  834MOL0     C12468   9.812   1.550   9.880  0.2345  0.4063  0.3040
  834MOL0     C12469   9.833   1.702   9.848 -0.7709 -0.1835 -0.0518
  834MOL0     C12470   9.875   1.769   9.983  0.0734  0.7208 -0.3129
  834MOL0     C12471   9.919   1.910   9.956 -0.3592  0.1791  0.2728
  834MOL0     N12472  10.067   1.923   9.928  0.0409 -0.0965 -0.4192
  834MOL0     C12473  10.112   1.948   9.800  0.7547  0.1550  0.1016
  834MOL0     C12474  10.244   1.910   9.795 -0.1750  0.1857 -0.2417
  834MOL0     C12475  10.327   1.912   9.672 -0.6168  0.5251 -0.3157
  834MOL0     C12476  10.416   2.041   9.640 -0.1641 -0.0741  0.6374
  834MOL0     C12477  10.503   2.032   9.515 -0.1374  0.4241  0.0967
  834MOL0     C12478  10.649   1.975   9.518  0.1840 -0.1283  0.2130
  834MOL0     O12479  10.747   2.051   9.594 -0.2580 -0.4030  0.0064
  834MOL0     C12480  10.865   2.086   9.529 -0.9270  0.8940 -0.8207
  834MOL0     C12481  10.977   2.051   9.599  0.2160 -0.1184 -0.1517
  834MOL0     C12482  11.097   2.064   9.531 -0.8594 -0.1120  0.5127
  834MOL0     C12483  11.114   2.123   9.396 -0.3587  0.1522 -0.7619
  834MOL0     C12484  11.245   2.129   9.336 -0.0371 -0.2944 -0.8402
  834MOL0     O12485  11.354   2.118   9.410  0.7950 -0.3618  0.7372
  834MOL0     C12486  11.475   2.107   9.363  0.0597  0.4394 -0.3281
  834MOL0     C12487  11.576   2.148   9.455 -0.9173  0.6561  0.0175
  834MOL0     C12488  11.715   2.117   9.427  0.0697 -0.3116 -0.0858
  834MOL0     C12489  11.753   2.046   9.306 -0.4912  0.0690  0.5706
  834MOL0     O12490  11.885   2.022   9.270  0.4183 -0.4016  0.2221
  834MOL0     C12491  11.985   2.124   9.278 -0.7164 -0.3834 -0.3735
  834MOL0     C12492  12.120   2.064   9.244 -0.2571  0.4531  0.3442
  834MOL0     C12493  12.231   2.130   9.337 -1.3049  0.0122 -0.0675
  834MOL0     C12494  12.241   2.291   9.323 -0.6388  0.5865  0.1796
  834MOL0     C12495  12.373   2.330   9.393 -0.2647  0.9699  0.4980
  834MOL0     C12496  12.383   2.478   9.377  0.1754 -0.4008  0.8223
  834MOL0     C12497  12.502   2.519   9.452 -0.6731  0.3988 -0.4312
  834MOL0     C12498  12.544   2.666   9.413 -0.0710 -0.2804 -0.1242
  834MOL0    Cl12499  12.591   2.670   9.240  0.0251  0.2094 -0.0381
  834MOL0     C12500  11.652   1.994   9.231  0.1346  0.1318 -0.4587
  834MOL0     C12501  11.513   2.027   9.258 -0.2756 -0.1230  0.3016
  834MOL0     O12502  11.249   2.136   9.213 -0.1404 -0.0445 -0.0585
  834MOL0     C12503  10.996   2.154   9.339 -0.1760  0.2537  0.6929
  834MOL0     C12504  10.874   2.140   9.402 -0.8884  0.3719 -1.0024
  834MOL0     N12505  10.279   1.870   9.927  0.0651 -0.2356  0.3918
  834MOL0     N12506  10.176   1.877   9.997 -0.3204 -0.4401 -0.9970
  834MOL0     C12507   9.033   1.358  10.106 -0.1760  0.4327  0.7632
  834MOL0     C12508   8.903   1.343  10.072 -0.3508 -0.1065  0.3921
  834MOL0     C12509   8.501   1.489   9.873 -0.7206 -0.1052 -0.6639
  834MOL0     C12510   8.483   1.374   9.801 -0.7631  0.8788 -0.1309
  834MOL0     C12511   8.356   1.337   9.754  0.0819 -0.1147 -0.0405
  834MOL0     C12512   8.239   1.414   9.769 -0.7193 -0.1054  0.7440
  834MOL0     O12513   8.122   1.370   9.717 -0.1751  0.3295  0.4473
  834MOL0     C12514   8.006   1.441   9.764 -0.8158  0.3296 -0.2929
  834MOL0     C12515   7.887   1.374   9.719 -0.6922  0.1409  0.5101
  834MOL0     C12516   7.861   1.224   9.751 -0.6262 -0.7163  0.1741
  834MOL0     C12517   7.974   1.127   9.703 -0.1540 -0.6660  0.1955
  834MOL0     C12518   7.919   0.999   9.663  0.4854  0.4252 -0.5544
  834MOL0     C12519   7.891   0.886   9.628 -0.3892 -1.2140  0.6305
  834MOL0     C12520   8.261   1.530   9.849 -0.3223 -0.2822 -1.5519
  834MOL0     C12521   8.388   1.572   9.892 -0.5371  0.6888  0.2458
  834MOL0     C12522   8.409   1.706   9.952  0.2390 -0.0100  0.1576
  834MOL0     H12523   8.909   1.574   9.821  0.3674  0.9224 -0.3387
  834MOL0     H12524   9.120   1.610   9.906  1.3880 -0.7009 -0.4263
  834MOL0     H12525   9.340   1.474   9.903  2.9970  1.0302 -0.4542
  834MOL0     H12526   9.329   1.625   9.997 -0.9873 -0.4343  1.3435
  834MOL0     H12527   9.492   1.384  10.071 -2.2849 -0.4994  2.1335
  834MOL0     H12528   9.495   1.536  10.149 -0.1453 -1.2688  0.6455
  834MOL0     H12529   9.561   1.671   9.960  1.0237  0.4583  1.0548
  834MOL0     H12530   9.563   1.526   9.854  3.9846 -1.2862  1.2585
  834MOL0     H12531   9.752   1.567  10.088  0.0221  1.9298 -0.0645
  834MOL0     H12532   9.717   1.415  10.013 -0.7595  0.2771  0.6671
  834MOL0     H12533   9.906   1.508   9.918  0.5203  1.1850  0.4725
  834MOL0     H12534   9.781   1.498   9.789 -1.4337  0.6985  0.6788
  834MOL0     H12535   9.918   1.701   9.779 -2.0028  0.9222 -1.6406
  834MOL0     H12536   9.743   1.743   9.801  1.7656  2.3747 -3.1621
  834MOL0     H12537   9.943   1.707  10.042 -4.2297 -2.1443  2.1742
  834MOL0     H12538   9.787   1.787  10.046 -0.4747 -0.3917 -0.7396
  834MOL0     H12539   9.859   1.938   9.868  1.1839 -0.2890 -0.9847
  834MOL0     H12540   9.891   1.963  10.048 -1.1540 -2.3329  1.5472
  834MOL0     H12541  10.047   1.979   9.718 -0.5782 -3.3347 -0.3454
  834MOL0     H12542  10.403   1.834   9.661  0.2284  1.3345 -0.3529
  834MOL0     H12543  10.263   1.895   9.586  1.9721 -0.9939 -2.0745
  834MOL0     H12544  10.342   2.111   9.599  0.9566  1.5391  1.2759
  834MOL0     H12545  10.480   2.065   9.726 -0.9874 -1.4558  1.6934
  834MOL0     H12546  10.506   2.130   9.465 -1.8383 -0.2735 -1.4798
  834MOL0     H12547  10.452   1.970   9.441 -1.4200  1.5979 -0.0427
  834MOL0     H12548  10.686   1.957   9.417 -1.0826  0.9839 -0.4603
  834MOL0     H12549  10.644   1.878   9.569 -0.0273  0.1808  0.7989
  834MOL0     H12550  10.966   2.015   9.701 -4.1649 -1.8767 -1.0131
  834MOL0     H12551  11.190   2.027   9.573  1.0400 -1.1424 -3.9903
  834MOL0     H12552  11.556   2.206   9.545  2.0811 -0.4522  1.5131
  834MOL0     H12553  11.798   2.145   9.491  1.0749 -0.7136 -1.1768
  834MOL0     H12554  11.980   2.218   9.223  1.3566 -0.0518 -0.0921
  834MOL0     H12555  11.989   2.149   9.384  2.6521  0.6797 -0.6236
  834MOL0     H12556  12.115   1.966   9.293  1.2804 -0.0689 -0.4635
  834MOL0     H12557  12.148   2.056   9.139 -0.9511 -1.9184  0.2799
  834MOL0     H12558  12.221   2.117   9.445 -0.7402  2.6585  0.3835
  834MOL0     H12559  12.323   2.075   9.316 -1.2774 -0.6359  1.6174
  834MOL0     H12560  12.157   2.333   9.378 -1.2911 -0.8031  0.2826
  834MOL0     H12561  12.237   2.334   9.223 -1.7129  3.7330  1.4592
  834MOL0     H12562  12.462   2.282   9.351  0.1604  3.3762 -1.5912
  834MOL0     H12563  12.379   2.289   9.494  0.9066  1.2192  0.5403
  834MOL0     H12564  12.400   2.516   9.276  0.5043 -1.1542  0.5936
  834MOL0     H12565  12.290   2.525   9.411  0.4483  0.1456  0.8271
  834MOL0     H12566  12.583   2.447   9.439 -0.9713 -0.0355  0.0805
  834MOL0     H12567  12.472   2.518   9.557 -1.1246  0.7959 -0.5514
  834MOL0     H12568  12.470   2.744   9.433 -0.4243 -0.6541  0.0384
  834MOL0     H12569  12.632   2.692   9.472 -1.3537  2.2373  0.7945
  834MOL0     H12570  11.685   1.925   9.155  2.5821 -0.3649  0.9389
  834MOL0     H12571  11.434   1.975   9.205 -0.2593 -0.2219  0.3737
  834MOL0     H12572  10.998   2.185   9.235  1.4548  1.3807  1.0278
  834MOL0     H12573  10.789   2.165   9.338 -2.4284 -0.0476  0.7826
  834MOL0     H12574   9.072   1.291  10.182  2.2748  0.8332 -0.0661
  834MOL0     H12575   8.838   1.288  10.139 -4.3077  3.0378 -0.4169
  834MOL0     H12576   8.565   1.308   9.777  0.0702  1.4839  0.9625
  834MOL0     H12577   8.349   1.248   9.693 -0.4708  0.1816 -0.4146
  834MOL0     H12578   8.002   1.546   9.735  1.1128  0.5842  0.1730
  834MOL0     H12579   8.012   1.440   9.874  0.8922  0.2517 -0.3550
  834MOL0     H12580   7.869   1.384   9.611 -1.9364 -1.9224  0.4705
  834MOL0     H12581   7.798   1.417   9.764 -0.1450  1.5144  0.3302
  834MOL0     H12582   7.767   1.195   9.703 -0.3843 -2.3478  0.6041
  834MOL0     H12583   7.852   1.199   9.857  1.3670 -4.4850 -0.3470
  834MOL0     H12584   8.034   1.171   9.623 -0.5925  0.4930  0.4836
  834MOL0     H12585   8.038   1.105   9.789 -0.7174 -1.4820  0.4207
  834MOL0     H12586   7.850   0.791   9.603  0.4051 -1.2691 -0.5850
  834MOL0     H12587   8.179   1.594   9.881  1.5143  1.0253  0.7797
  834MOL0     H12588   8.473   1.714  10.041  0.2318  0.1702  0.1470
  834MOL0     H12589   8.458   1.778   9.886 -2.3811  2.6809  0.9306
  834MOL0     H12590   8.314   1.752   9.980  0.4528  0.2843  0.4153
  835MOL0     O12591  10.893   3.087   7.623  0.5155 -0.4064  0.5961
  835MOL0     C12592  10.871   2.981   7.676  0.9065 -0.4024 -0.1324
  835MOL0     O12593  10.957   2.880   7.669 -0.8223 -0.0852  0.2990
  835MOL0     C12594  11.082   2.897   7.607  0.6589 -0.3317  0.6288
  835MOL0     C12595  11.195   2.924   7.687 -0.2015 -0.8254 -0.2656
  835MOL0     C12596  11.313   2.959   7.621 -0.1654  0.6930  0.3884
  835MOL0     C12597  11.321   2.951   7.480 -0.8142  0.9084  0.5043
  835MOL0     O12598  11.439   2.991   7.422 -0.2920 -0.3972 -0.4742
  835MOL0     C12599  11.506   2.880   7.353 -0.5936 -0.3050  0.4442
  835MOL0     C12600  11.541   2.912   7.210 -0.5945  0.0011  0.4001
  835MOL0     C12601  11.607   3.048   7.188 -0.1939  0.9849 -0.3394
  835MOL0     C12602  11.661   3.052   7.043  0.0859  0.4988  0.1415
  835MOL0     C12603  11.704   3.191   7.020 -0.7063  0.6906 -0.2592
  835MOL0     C12604  11.827   3.245   7.106 -0.1782 -0.5351  1.2025
  835MOL0     C12605  11.961   3.196   7.036 -0.0001 -0.2512 -0.0982
  835MOL0     C12606  12.017   3.058   7.097  0.0732 -0.1013 -0.8775
  835MOL0     N12607  12.041   3.064   7.236  0.9650  0.4205 -0.1855
  835MOL0     C12608  11.954   3.005   7.318 -0.1795  0.8241  0.7717
  835MOL0     C12609  11.960   3.075   7.428 -0.3149  0.0276  0.1629
  835MOL0     C12610  11.860   3.063   7.531  0.8056  0.0180  0.1478
  835MOL0     C12611  11.933   3.043   7.664  0.0997  0.5080 -0.9106
  835MOL0     C12612  11.848   3.038   7.788  0.0616 -0.2559 -0.1572
  835MOL0     C12613  11.725   2.949   7.796  0.3488 -0.3327 -0.2319
  835MOL0     O12614  11.759   2.806   7.797  0.7887 -0.5552  0.5202
  835MOL0     C12615  11.812   2.760   7.913 -0.4218 -0.1873  0.3028
  835MOL0     C12616  11.889   2.644   7.909  0.3726  0.1366  0.5311
  835MOL0     C12617  11.955   2.596   8.020 -0.0708 -0.5024 -0.5092
  835MOL0     C12618  11.926   2.642   8.147  0.6813  0.5079  0.5253
  835MOL0     C12619  12.011   2.600   8.259 -0.1056  0.0852 -0.1770
  835MOL0     O12620  12.046   2.686   8.364  0.2489  0.0935  0.0853
  835MOL0     C12621  12.123   2.644   8.469  0.5786  0.3215 -0.3111
  835MOL0     C12622  12.260   2.677   8.453  0.1598 -0.3337  1.0026
  835MOL0     C12623  12.356   2.636   8.548 -0.8681 -0.3315 -0.0126
  835MOL0     C12624  12.308   2.591   8.662  0.6358 -0.4813 -0.8458
  835MOL0     O12625  12.405   2.576   8.763 -0.2010 -0.4402  0.6246
  835MOL0     C12626  12.391   2.476   8.872 -0.3215  0.0315  0.1814
  835MOL0     C12627  12.538   2.423   8.889  0.1297 -0.5263  0.0415
  835MOL0     C12628  12.565   2.334   9.003 -1.4031  0.1403  0.0684
  835MOL0     C12629  12.698   2.360   9.060  0.7326 -0.4346 -0.0711
  835MOL0     C12630  12.725   2.255   9.165  0.1291 -0.2330 -0.7623
  835MOL0     C12631  12.863   2.266   9.218 -0.2094  0.5403  0.4324
  835MOL0     C12632  12.915   2.404   9.279 -0.9901 -0.3104  0.1481
  835MOL0     C12633  13.029   2.378   9.380  0.6002 -0.5345 -0.1997
  835MOL0    Cl12634  12.957   2.306   9.526 -0.3310 -0.0813 -0.5174
  835MOL0     C12635  12.164   2.561   8.687  0.0702 -0.1443  0.6497
  835MOL0     C12636  12.075   2.592   8.586  0.2357 -0.6886 -0.0521
  835MOL0     O12637  12.046   2.482   8.257 -0.2422  0.4447  0.3133
  835MOL0     C12638  11.835   2.751   8.163 -0.5624 -0.7159  0.2649
  835MOL0     C12639  11.780   2.813   8.044 -0.0459 -0.2723  0.0217
  835MOL0     N12640  12.065   3.164   7.422 -0.3862 -0.1039  0.1242
  835MOL0     N12641  12.110   3.156   7.300  0.2104 -0.0938 -0.5563
  835MOL0     C12642  11.203   2.928   7.407 -0.0222 -0.0957 -0.0660
  835MOL0     C12643  11.080   2.901   7.468  0.2736 -0.3915 -0.5410
  835MOL0     C12644  10.750   2.957   7.760 -0.5854 -0.4307  0.1636
  835MOL0     C12645  10.742   2.839   7.832  0.2833 -0.7204  0.2097
  835MOL0     C12646  10.623   2.801   7.899 -0.6661 -0.3758  0.3305
  835MOL0     C12647  10.508   2.879   7.891  0.3445  0.1912  0.2288
  835MOL0     O12648  10.400   2.829   7.952  0.4319 -0.7865 -0.5341
  835MOL0     C12649  10.330   2.751   7.858 -0.2750  0.0979  0.8521
  835MOL0     C12650  10.220   2.680   7.932  0.6044  0.5191 -0.2048
  835MOL0     C12651  10.116   2.637   7.839  0.6454 -0.2016 -0.1124
  835MOL0     C12652   9.985   2.587   7.897 -0.2448 -0.1823  0.8090
  835MOL0     C12653   9.992   2.462   7.985 -0.3604 -0.5046  1.4820
  835MOL0     C12654   9.984   2.368   8.058  0.8767  0.2846 -0.6710
  835MOL0     C12655  10.507   2.996   7.826 -1.0901 -0.5880 -0.2247
  835MOL0     C12656  10.627   3.033   7.759 -0.8286 -0.2676  0.2375
  835MOL0     C12657  10.616   3.169   7.701  1.1150 -1.1459 -0.7246
  835MOL0     H12658  11.175   2.921   7.793 -2.8172 -2.1714 -0.7283
  835MOL0     H12659  11.396   2.998   7.678 -0.7500  0.7689  1.2181
  835MOL0     H12660  11.601   2.860   7.403 -0.1874  0.5278  0.0129
  835MOL0     H12661  11.450   2.786   7.355 -0.9619 -0.1124 -0.3802
  835MOL0     H12662  11.448   2.888   7.157  0.2297 -1.2661 -0.5363
  835MOL0     H12663  11.608   2.830   7.183  0.1443  0.6957  0.1056
  835MOL0     H12664  11.681   3.058   7.268  0.2435  0.1021 -0.6147
  835MOL0     H12665  11.524   3.118   7.202  1.3908  2.6185  1.4849
  835MOL0     H12666  11.738   2.976   7.036 -0.3415 -0.0855  1.4486
  835MOL0     H12667  11.587   3.025   6.967  1.3149  1.1935 -1.3541
  835MOL0     H12668  11.706   3.199   6.911 -1.7641  1.1125 -0.2667
  835MOL0     H12669  11.621   3.257   7.049  1.0293  1.4219  3.7603
  835MOL0     H12670  11.827   3.354   7.101 -6.0877 -0.1851 -3.2351
  835MOL0     H12671  11.826   3.217   7.212  1.6410 -0.3071  1.3009
  835MOL0     H12672  12.026   3.282   7.051 -3.1823  2.8107 -2.1716
  835MOL0     H12673  11.962   3.192   6.927  0.3719 -0.3077 -0.0918
  835MOL0     H12674  11.956   2.974   7.061 -1.0843  0.9003 -1.3154
  835MOL0     H12675  12.121   3.037   7.070  0.5922  0.9401  0.1929
  835MOL0     H12676  11.886   2.926   7.290  1.8062  0.0793 -2.4160
  835MOL0     H12677  11.797   3.152   7.535  1.1707  0.3186 -0.5282
  835MOL0     H12678  11.792   2.978   7.518  1.3285 -0.2344 -1.1811
  835MOL0     H12679  11.995   2.953   7.664  1.8026  1.4988  2.6464
  835MOL0     H12680  12.002   3.127   7.671  0.9368 -0.2010 -0.3870
  835MOL0     H12681  11.796   3.134   7.799  2.1508  1.2826 -2.5626
  835MOL0     H12682  11.914   3.025   7.874 -0.3662  2.3245  0.6525
  835MOL0     H12683  11.672   2.968   7.702  0.1607  1.2815  0.1699
  835MOL0     H12684  11.667   2.987   7.881  1.6878  1.3089 -0.0010
  835MOL0     H12685  11.906   2.612   7.807 -0.5050  1.0150  0.0874
  835MOL0     H12686  12.033   2.521   8.009  1.5482  0.5949  2.3402
  835MOL0     H12687  12.295   2.721   8.361  0.6542  0.5164  1.5790
  835MOL0     H12688  12.462   2.657   8.537 -1.1571  0.2876 -1.9557
  835MOL0     H12689  12.357   2.519   8.967 -0.2928  0.4629 -0.0059
  835MOL0     H12690  12.327   2.391   8.844 -0.5337  0.7224 -1.5768
  835MOL0     H12691  12.559   2.357   8.804 -1.3433 -0.3181 -0.5144
  835MOL0     H12692  12.594   2.517   8.883 -0.3106 -0.3345 -1.6791
  835MOL0     H12693  12.495   2.364   9.082 -1.2472 -2.0040  1.0880
  835MOL0     H12694  12.555   2.226   8.988  3.0720 -0.8060  2.3854
  835MOL0     H12695  12.698   2.463   9.097  0.9370 -0.4064 -0.1475
  835MOL0     H12696  12.778   2.354   8.985  0.4122 -1.0954 -0.3682
  835MOL0     H12697  12.709   2.158   9.116 -0.7327 -1.1945  1.3008
  835MOL0     H12698  12.661   2.261   9.254  0.8043  1.5889 -0.3556
  835MOL0     H12699  12.864   2.192   9.298 -2.2912  0.1360  0.1346
  835MOL0     H12700  12.926   2.229   9.137 -1.3393  1.2005 -0.7831
  835MOL0     H12701  12.840   2.467   9.327  1.8606  2.7943  0.9394
  835MOL0     H12702  12.946   2.463   9.193 -1.1450 -2.9651 -1.8743
  835MOL0     H12703  13.098   2.305   9.338  0.3798 -0.8910  0.0541
  835MOL0     H12704  13.085   2.469   9.405  0.2984 -1.1658  3.2545
  835MOL0     H12705  12.135   2.507   8.776 -0.3799 -2.5936 -0.8928
  835MOL0     H12706  11.967   2.576   8.590 -0.1503  1.4384 -0.6605
  835MOL0     H12707  11.810   2.790   8.261  1.4089  2.0965 -0.2278
  835MOL0     H12708  11.736   2.912   8.056 -1.1896 -0.8231  0.5505
  835MOL0     H12709  11.197   2.931   7.299  0.7870 -0.8456 -0.1479
  835MOL0     H12710  10.989   2.866   7.419  0.3565 -1.4231  0.0195
  835MOL0     H12711  10.819   2.763   7.839  0.2366 -0.6061  2.8305
  835MOL0     H12712  10.645   2.708   7.951  2.4336 -1.1911 -2.1360
  835MOL0     H12713  10.394   2.682   7.802  1.6242  3.0967 -0.8914
  835MOL0     H12714  10.284   2.819   7.786 -0.1635 -0.8860 -0.1810
  835MOL0     H12715  10.169   2.751   7.998  0.9124  2.0735 -1.5720
  835MOL0     H12716  10.260   2.597   7.991 -0.7052  0.0536  0.0722
  835MOL0     H12717  10.151   2.557   7.773  0.6614  0.2301 -0.6370
  835MOL0     H12718  10.088   2.720   7.773 -1.7453 -0.3676  0.5846
  835MOL0     H12719   9.929   2.661   7.955 -1.2164 -0.6627  0.5094
  835MOL0     H12720   9.921   2.580   7.809 -1.5532  4.3809  1.1795
  835MOL0     H12721   9.980   2.291   8.133 -0.1054  0.5114 -0.4884
  835MOL0     H12722  10.428   3.069   7.817 -0.3935  0.2245  0.1765
  835MOL0     H12723  10.714   3.215   7.694  0.3174  0.5797 -0.9984
  835MOL0     H12724  10.561   3.147   7.608  0.6243 -2.8974 -0.0722
  835MOL0     H12725  10.562   3.240   7.764 -2.1238 -1.8677 -2.4305
  836MOL0     O12726   1.140   8.392  10.220 -0.5575 -0.0360 -0.7549
  836MOL0     C12727   1.143   8.276  10.188 -0.8999  0.4902 -0.0460
  836MOL0     O12728   1.251   8.213  10.133 -0.1012  0.5463  0.1043
  836MOL0     C12729   1.373   8.280  10.142  0.2550  0.2494  0.0644
  836MOL0     C12730   1.425   8.361  10.038  0.6273 -0.3436  0.7965
  836MOL0     C12731   1.546   8.427  10.051 -0.2494 -0.5841  0.5237
  836MOL0     C12732   1.607   8.434  10.176 -0.0301  0.2283  0.7935
  836MOL0     O12733   1.726   8.498  10.175  0.3202  0.0438  0.2458
  836MOL0     C12734   1.787   8.545  10.301 -0.2441 -0.2758  0.4463
  836MOL0     C12735   1.914   8.474  10.326  0.5046  0.5663 -0.3402
  836MOL0     C12736   1.897   8.324  10.378  0.0825 -0.5920  0.0463
  836MOL0     C12737   2.034   8.255  10.373 -0.6393  1.1348 -0.4305
  836MOL0     C12738   2.045   8.120  10.450  0.2246 -0.1357 -0.0341
  836MOL0     C12739   1.933   8.018  10.407  0.4788  0.4586 -0.2580
  836MOL0     C12740   1.944   7.962  10.269  0.0381  0.0643  0.8213
  836MOL0     C12741   1.871   7.830  10.273 -0.0675 -0.6632  0.5137
  836MOL0     N12742   1.729   7.844  10.300 -0.0253 -0.4004  0.4272
  836MOL0     C12743   1.642   7.913  10.214 -0.4931  0.0305 -0.0509
  836MOL0     C12744   1.519   7.884  10.264  0.3268  0.4658  0.4634
  836MOL0     C12745   1.382   7.915  10.206  0.1022  0.9572 -0.2125
  836MOL0     C12746   1.330   7.786  10.146  0.0808  0.8191 -0.1760
  836MOL0     C12747   1.187   7.805  10.092 -0.0777  0.2555 -0.4426
  836MOL0     C12748   1.142   7.683  10.011  1.3195 -0.2816  0.2192
  836MOL0     O12749   1.209   7.679   9.887  0.2479 -0.4480  0.8177
  836MOL0     C12750   1.152   7.603   9.783  0.5399  0.1951  0.8143
  836MOL0     C12751   1.069   7.491   9.796 -0.5825  0.2661 -0.2002
  836MOL0     C12752   1.022   7.417   9.680  0.6748 -0.9064 -0.2792
  836MOL0     C12753   1.074   7.447   9.560 -0.8037 -0.1494  0.1236
  836MOL0     C12754   1.042   7.361   9.446  0.1395 -1.1021  1.1219
  836MOL0     O12755   1.143   7.332   9.366 -0.1115 -0.5680 -0.3659
  836MOL0     C12756   1.137   7.236   9.272  0.1253  0.1228 -0.4858
  836MOL0     C12757   1.108   7.099   9.281 -0.4251 -0.8346 -0.1846
  836MOL0     C12758   1.108   7.014   9.172  0.4486 -0.6607  0.1310
  836MOL0     C12759   1.140   7.065   9.044  0.0292 -0.3221  0.3357
  836MOL0     O12760   1.186   6.988   8.938  0.2269  1.2546 -0.3813
  836MOL0     C12761   1.113   6.871   8.921  0.3922 -1.0333 -0.2450
  836MOL0     C12762   1.156   6.768   8.815  0.4400  0.3497  0.1105
  836MOL0     C12763   1.046   6.675   8.768 -0.4753 -0.5384 -0.5828
  836MOL0     C12764   1.104   6.585   8.660 -0.4439 -0.0424 -0.1994
  836MOL0     C12765   1.029   6.456   8.646  0.0219 -0.8402 -1.2746
  836MOL0     C12766   0.880   6.467   8.613  0.1736 -0.4237 -0.8534
  836MOL0     C12767   0.854   6.480   8.467  0.0248  0.6257  1.0815
  836MOL0     C12768   0.825   6.624   8.425  1.0722 -0.9221 -0.4805
  836MOL0    Cl12769   0.781   6.636   8.250 -0.3512 -0.1396  0.0102
  836MOL0     C12770   1.176   7.200   9.034 -0.6990 -0.6782 -0.7501
  836MOL0     C12771   1.178   7.287   9.147  0.2692 -0.6688  1.0969
  836MOL0     O12772   0.926   7.331   9.433  0.1739  0.4032  0.4199
  836MOL0     C12773   1.151   7.568   9.542  0.2551  0.2792 -0.1263
  836MOL0     C12774   1.201   7.637   9.655  0.9002 -0.1490  0.0092
  836MOL0     N12775   1.537   7.823  10.385 -1.0930  0.3020  0.6061
  836MOL0     N12776   1.664   7.792  10.409 -0.6573  0.3832 -0.0046
  836MOL0     C12777   1.554   8.365  10.285  0.0969 -0.0516  1.0251
  836MOL0     C12778   1.435   8.290  10.267 -0.2209 -0.4247  0.6437
  836MOL0     C12779   1.023   8.210  10.175 -0.0922 -0.0814  0.3426
  836MOL0     C12780   0.936   8.222  10.063 -0.1050 -0.0669  0.2536
  836MOL0     C12781   0.822   8.150  10.042  0.7587  1.0245  0.8646
  836MOL0     C12782   0.780   8.058  10.142 -0.1757  0.1617  0.1053
  836MOL0     O12783   0.664   7.979  10.125 -0.1727 -0.4258  0.3808
  836MOL0     C12784   0.561   7.991  10.222 -0.0351  0.0726  0.0218
  836MOL0     C12785   0.426   7.959  10.153  0.4724 -0.2797 -0.5153
  836MOL0     C12786   0.405   7.806  10.141 -0.7843 -0.2776  0.2551
  836MOL0     C12787   0.268   7.781  10.097  0.4736 -0.6035 -0.3168
  836MOL0     C12788   0.241   7.840   9.965 -0.8599  0.3285 -0.0819
  836MOL0     C12789   0.235   7.895   9.859  0.4166 -0.4495 -0.5455
  836MOL0     C12790   0.854   8.048  10.262  0.2125 -0.1115  0.1907
  836MOL0     C12791   0.974   8.128  10.282  0.3195  0.7619  0.4816
  836MOL0     C12792   1.050   8.119  10.413 -0.3723 -0.1575 -0.0798
  836MOL0     H12793   1.360   8.351   9.952 -1.6050  0.6290  2.2599
  836MOL0     H12794   1.602   8.465   9.966  0.3209 -1.9807  0.2405
  836MOL0     H12795   1.818   8.649  10.288  4.2697 -1.4482  0.0051
  836MOL0     H12796   1.715   8.556  10.382 -0.3092  0.9478  0.2366
  836MOL0     H12797   1.964   8.521  10.411  1.3904 -0.8415 -0.0537
  836MOL0     H12798   1.983   8.486  10.242 -2.1264  1.0050 -2.5918
  836MOL0     H12799   1.825   8.266  10.319 -0.5315 -2.1196  2.1761
  836MOL0     H12800   1.855   8.327  10.479  0.4937  0.4982  0.1998
  836MOL0     H12801   2.050   8.223  10.269 -0.2773 -2.1504  0.5043
  836MOL0     H12802   2.110   8.325  10.407 -0.5889  0.7369  0.3056
  836MOL0     H12803   2.147   8.079  10.450 -0.0753 -0.9248  0.9984
  836MOL0     H12804   2.029   8.142  10.556 -2.2832 -0.6690 -0.2497
  836MOL0     H12805   1.919   7.936  10.477  0.2532 -0.8884 -1.8173
  836MOL0     H12806   1.837   8.071  10.411  0.4846  0.3894  1.1372
  836MOL0     H12807   2.050   7.945  10.248 -0.1594 -1.5057  0.9501
  836MOL0     H12808   1.910   8.035  10.195  1.2604 -0.0846  0.0880
  836MOL0     H12809   1.889   7.773  10.182  1.5335 -0.5669  0.7361
  836MOL0     H12810   1.910   7.757  10.345  0.3642 -1.2234 -0.2713
  836MOL0     H12811   1.657   7.957  10.117  0.7760 -2.5088 -1.0919
  836MOL0     H12812   1.316   7.952  10.285  1.7772  1.0235  1.2194
  836MOL0     H12813   1.394   7.988  10.125  2.7041  0.1242 -0.6793
  836MOL0     H12814   1.403   7.760  10.068  0.6727 -1.9464  1.1814
  836MOL0     H12815   1.321   7.708  10.222 -0.7477  2.5978  1.6543
  836MOL0     H12816   1.172   7.896  10.034 -1.8022  0.8465  0.8570
  836MOL0     H12817   1.126   7.826  10.181 -1.0645 -0.7208 -0.8652
  836MOL0     H12818   1.034   7.695  10.004  1.6068  3.0013 -0.0811
  836MOL0     H12819   1.157   7.590  10.066 -2.0972 -0.8199  0.4430
  836MOL0     H12820   1.032   7.481   9.898  0.6327  4.2660  0.8408
  836MOL0     H12821   0.959   7.329   9.690  0.8057 -1.0848 -0.9788
  836MOL0     H12822   1.077   7.067   9.380 -1.2057  1.4223  0.3461
  836MOL0     H12823   1.078   6.912   9.195  1.0393 -0.4219  2.1346
  836MOL0     H12824   1.106   6.816   9.016  3.3797 -0.2014  0.5582
  836MOL0     H12825   1.014   6.897   8.881 -0.9160 -3.4441  1.1912
  836MOL0     H12826   1.173   6.837   8.732  0.5892 -0.8222 -0.8488
  836MOL0     H12827   1.241   6.711   8.852  2.6549  3.7588  0.7835
  836MOL0     H12828   1.015   6.613   8.853 -1.0797  0.9970  0.3631
  836MOL0     H12829   0.961   6.730   8.728  0.7638  1.5379 -0.5187
  836MOL0     H12830   1.206   6.561   8.693 -0.9536  0.6976  2.1394
  836MOL0     H12831   1.097   6.634   8.563 -2.7323  0.4514  0.1751
  836MOL0     H12832   1.032   6.407   8.744  0.6140 -0.4880 -1.1142
  836MOL0     H12833   1.083   6.397   8.572  2.0774 -0.2199 -0.3455
  836MOL0     H12834   0.832   6.374   8.645  1.6911 -0.5631  1.2492
  836MOL0     H12835   0.836   6.551   8.668  2.0163  0.0435 -0.0014
  836MOL0     H12836   0.767   6.419   8.443 -0.7855  1.5384  1.6314
  836MOL0     H12837   0.929   6.443   8.396 -1.4219 -0.9182  0.2833
  836MOL0     H12838   0.740   6.665   8.479 -0.4153 -0.1411 -3.2434
  836MOL0     H12839   0.915   6.686   8.438 -0.6324  1.3358  1.2578
  836MOL0     H12840   1.223   7.237   8.943  0.6433  1.2019  0.6194
  836MOL0     H12841   1.213   7.390   9.147 -0.8094 -0.2905  0.6721
  836MOL0     H12842   1.187   7.595   9.443 -2.4899  3.2303 -0.4775
  836MOL0     H12843   1.281   7.710   9.655  1.8237 -1.0489  2.5294
  836MOL0     H12844   1.601   8.357  10.383  0.2762 -1.6552  0.8247
  836MOL0     H12845   1.398   8.234  10.352  0.6470 -2.0515 -0.0052
  836MOL0     H12846   0.971   8.297   9.994  1.3339  1.2708  2.3156
  836MOL0     H12847   0.759   8.178   9.959  0.3518  3.1125  1.8057
  836MOL0     H12848   0.559   8.086  10.277 -1.3188 -0.7127  1.4056
  836MOL0     H12849   0.581   7.924  10.306  0.0152  1.0767  0.8359
  836MOL0     H12850   0.426   8.019  10.062  0.9801  1.3813  0.5307
  836MOL0     H12851   0.343   7.995  10.214 -1.2948 -0.3650 -2.7393
  836MOL0     H12852   0.422   7.758  10.238 -3.2544  1.8162  1.8674
  836MOL0     H12853   0.465   7.759  10.062 -0.7082  1.1813 -0.5947
  836MOL0     H12854   0.231   7.679  10.082 -1.6381  0.1207 -0.4688
  836MOL0     H12855   0.195   7.833  10.160  0.5232  3.5599 -3.3152
  836MOL0     H12856   0.244   7.938   9.762  1.5635 -0.5597 -0.5058
  836MOL0     H12857   0.822   7.979  10.340  0.4260 -1.3724 -0.8169
  836MOL0     H12858   1.157   8.126  10.392 -0.4654  0.8346 -0.2442
  836MOL0     H12859   1.014   8.203  10.473  3.9581  2.7194 -1.0945
  836MOL0     H12860   1.041   8.017  10.453 -1.2501 -0.1589 -0.2609
  837MOL0     O12861   5.363   7.092   1.035  0.1772  0.5153 -0.5042
  837MOL0     C12862   5.336   7.087   0.912 -0.3774 -0.2793 -0.2017
  837MOL0     O12863   5.428   7.067   0.822 -0.6615  0.3064 -0.8773
  837MOL0     C12864   5.533   6.985   0.858 -0.5973 -0.4239 -0.3330
  837MOL0     C12865   5.640   7.047   0.923  0.6479  0.7714 -0.0907
  837MOL0     C12866   5.749   6.960   0.968 -0.1707  0.1525  0.4844
  837MOL0     C12867   5.745   6.818   0.929 -0.1993 -0.0881 -0.2873
  837MOL0     O12868   5.854   6.737   0.957 -0.7597  0.2997 -0.2687
  837MOL0     C12869   5.979   6.795   1.012  0.2196 -0.2312  0.6831
  837MOL0     C12870   6.096   6.701   1.020 -0.8684 -0.4973 -0.4907
  837MOL0     C12871   6.237   6.773   1.043 -0.3783 -0.0984 -0.1801
  837MOL0     C12872   6.341   6.667   1.071 -0.5608 -0.0546 -0.9919
  837MOL0     C12873   6.480   6.716   1.032 -0.6647 -0.3056  0.8129
  837MOL0     C12874   6.580   6.602   1.066  0.5917  0.7918 -0.1633
  837MOL0     C12875   6.721   6.631   1.036 -0.3300 -0.5471  0.0761
  837MOL0     C12876   6.813   6.505   1.063  1.0907 -0.9818 -0.5193
  837MOL0     N12877   6.937   6.515   0.989  0.2738  0.4294  0.4394
  837MOL0     C12878   6.959   6.455   0.863  0.2838  0.4461 -0.8222
  837MOL0     C12879   7.071   6.512   0.815 -0.0547  0.7299  0.0147
  837MOL0     C12880   7.133   6.481   0.681  0.4769  0.2159  0.2897
  837MOL0     C12881   7.081   6.553   0.561 -0.2857  0.9207 -0.7266
  837MOL0     C12882   7.146   6.508   0.426 -0.4431 -0.9378  0.5108
  837MOL0     C12883   7.298   6.545   0.420  0.9851 -0.6921 -0.1779
  837MOL0     O12884   7.303   6.682   0.462  0.2217  0.7318 -0.2752
  837MOL0     C12885   7.424   6.753   0.466  0.0882  0.7890 -0.0187
  837MOL0     C12886   7.552   6.712   0.430 -0.3397  0.5941 -1.4176
  837MOL0     C12887   7.668   6.791   0.446  0.5036 -0.6359  0.4776
  837MOL0     C12888   7.659   6.912   0.508  0.2328  0.3276  0.0686
  837MOL0     C12889   7.776   7.004   0.548  0.6723  0.3790 -0.1708
  837MOL0     O12890   7.889   6.999   0.473 -0.4109 -0.3723  0.1323
  837MOL0     C12891   7.982   7.094   0.476 -0.8080 -0.7961  0.9536
  837MOL0     C12892   8.112   7.085   0.533  0.1113 -0.1073  0.5440
  837MOL0     C12893   8.201   7.192   0.510 -0.4693  0.4600 -0.5076
  837MOL0     C12894   8.172   7.304   0.433  0.0489 -0.4143 -0.9219
  837MOL0     O12895   8.256   7.412   0.419  0.5942  0.0975  0.1310
  837MOL0     C12896   8.385   7.407   0.480  0.1242  0.5577  0.2276
  837MOL0     C12897   8.435   7.553   0.488 -0.0946  0.2216 -0.8960
  837MOL0     C12898   8.566   7.558   0.580 -0.0326 -0.6598  0.3634
  837MOL0     C12899   8.618   7.702   0.600 -0.3540 -0.6444  0.8763
  837MOL0     C12900   8.749   7.703   0.670  0.0644  0.2382 -0.5844
  837MOL0     C12901   8.803   7.842   0.712  0.6265  0.2579  0.7416
  837MOL0     C12902   8.916   7.836   0.815 -0.5334  0.1138 -0.0978
  837MOL0     C12903   9.042   7.776   0.745  0.0146  0.5507  0.3224
  837MOL0    Cl12904   9.195   7.850   0.816 -0.0559  0.1987 -0.2817
  837MOL0     C12905   8.038   7.310   0.374 -0.3795 -0.4096 -0.4441
  837MOL0     C12906   7.939   7.207   0.399 -0.0466 -0.5056 -0.1337
  837MOL0     O12907   7.753   7.092   0.631  0.0150  0.5831 -0.2043
  837MOL0     C12908   7.532   6.952   0.541  0.0609  0.2257  0.2755
  837MOL0     C12909   7.409   6.882   0.516  0.2380  0.3145 -0.0467
  837MOL0     N12910   7.113   6.600   0.909 -0.3858  0.0923  0.4174
  837MOL0     N12911   7.038   6.599   1.013  0.3789  0.4422  0.4204
  837MOL0     C12912   5.646   6.772   0.850 -0.8055  0.1174  0.7366
  837MOL0     C12913   5.541   6.851   0.811 -0.2894 -0.0185  0.2704
  837MOL0     C12914   5.203   7.123   0.858 -0.1218 -0.9383  0.5393
  837MOL0     C12915   5.201   7.186   0.732  1.4317  0.2316  0.3568
  837MOL0     C12916   5.082   7.218   0.672  0.0712 -0.2674  0.1246
  837MOL0     C12917   4.964   7.186   0.730  0.5421 -0.9066  0.3913
  837MOL0     O12918   4.845   7.202   0.662  0.0147 -0.0947 -0.2195
  837MOL0     C12919   4.727   7.214   0.736 -0.5720 -0.4658 -0.3740
  837MOL0     C12920   4.640   7.333   0.688  1.0500 -0.5429 -0.2544
  837MOL0     C12921   4.490   7.291   0.687  0.9781  0.3266 -0.0518
  837MOL0     C12922   4.393   7.402   0.677 -0.3138 -0.2855  0.2596
  837MOL0     C12923   4.399   7.497   0.560  0.5956  0.5657 -0.4842
  837MOL0     C12924   4.415   7.564   0.464 -0.0121 -0.4799  0.0986
  837MOL0     C12925   4.955   7.114   0.849  0.3625  0.5925 -0.2255
  837MOL0     C12926   5.075   7.087   0.917  0.2652  0.1263  1.1360
  837MOL0     C12927   5.076   7.013   1.048  1.3028 -0.1227 -0.4753
  837MOL0     H12928   5.637   7.151   0.953 -0.4382  0.3737  1.2845
  837MOL0     H12929   5.823   7.001   1.036  1.6707 -2.7559  0.3650
  837MOL0     H12930   6.000   6.876   0.941 -1.3231 -1.2988 -1.0662
  837MOL0     H12931   5.966   6.844   1.109 -0.9100  2.7441 -0.8610
  837MOL0     H12932   6.108   6.654   0.922  2.3430 -0.0125 -0.4336
  837MOL0     H12933   6.071   6.618   1.087  1.2725 -0.6849  0.1553
  837MOL0     H12934   6.226   6.839   1.130 -4.7738  2.8645 -2.5650
  837MOL0     H12935   6.278   6.832   0.960  1.5970 -2.6968 -1.1840
  837MOL0     H12936   6.334   6.631   1.174  0.2301 -4.2288 -2.2259
  837MOL0     H12937   6.325   6.582   1.005  0.7141  0.6897 -2.3144
  837MOL0     H12938   6.487   6.740   0.926 -0.2368  0.5803  1.0340
  837MOL0     H12939   6.499   6.812   1.081 -1.0197  0.4798 -0.5547
  837MOL0     H12940   6.562   6.566   1.168 -0.9507  0.0477 -0.6827
  837MOL0     H12941   6.546   6.518   1.006 -0.2194  0.5100  0.6668
  837MOL0     H12942   6.758   6.709   1.103  1.2276 -3.1734  2.4807
  837MOL0     H12943   6.737   6.661   0.932  2.3250 -0.2313  0.5147
  837MOL0     H12944   6.835   6.504   1.170 -0.4391  1.3647 -0.1025
  837MOL0     H12945   6.771   6.407   1.039  1.5705 -1.5639  0.9158
  837MOL0     H12946   6.890   6.384   0.819  1.7425 -1.5409 -0.0977
  837MOL0     H12947   7.239   6.503   0.689 -0.1003  2.5274  3.4818
  837MOL0     H12948   7.137   6.371   0.675  2.8445  0.1593  1.6410
  837MOL0     H12949   6.977   6.521   0.557 -0.5289  1.6637 -0.6492
  837MOL0     H12950   7.086   6.662   0.569  0.7520  0.9214 -1.2210
  837MOL0     H12951   7.090   6.556   0.346 -2.0885 -3.7864 -0.1730
  837MOL0     H12952   7.152   6.400   0.411  2.9575 -0.4546 -3.5067
  837MOL0     H12953   7.321   6.522   0.316 -2.6534 -1.8017 -0.8501
  837MOL0     H12954   7.367   6.489   0.485 -0.4040 -0.5555  1.4858
  837MOL0     H12955   7.578   6.613   0.394  3.4358  0.9293 -0.1249
  837MOL0     H12956   7.767   6.752   0.421  0.7599  0.6516 -0.6860
  837MOL0     H12957   8.138   6.992   0.581 -1.0515 -1.0906 -0.6484
  837MOL0     H12958   8.297   7.190   0.560  0.4896 -0.0418 -2.2686
  837MOL0     H12959   8.365   7.372   0.582  0.6406  0.1027  0.1777
  837MOL0     H12960   8.456   7.337   0.435  0.1694 -2.4059  4.3288
  837MOL0     H12961   8.450   7.595   0.388 -0.1033 -0.4276 -1.1720
  837MOL0     H12962   8.363   7.621   0.535  2.9104  3.6685 -0.7951
  837MOL0     H12963   8.533   7.515   0.675  1.5831 -0.7170  0.9271
  837MOL0     H12964   8.649   7.498   0.543  1.4934  1.2286  0.5272
  837MOL0     H12965   8.539   7.758   0.652  1.5040  0.2672  2.8604
  837MOL0     H12966   8.632   7.745   0.500 -0.0671 -2.3474  0.1620
  837MOL0     H12967   8.821   7.658   0.601 -0.7208  0.6376 -1.7086
  837MOL0     H12968   8.751   7.633   0.754 -0.9933 -0.7296 -1.3449
  837MOL0     H12969   8.831   7.891   0.619 -0.9419  0.6269  0.4326
  837MOL0     H12970   8.719   7.894   0.760 -1.1062 -1.8549  0.1743
  837MOL0     H12971   8.884   7.773   0.899  1.8654 -0.4809  0.4467
  837MOL0     H12972   8.944   7.936   0.848 -1.3714 -0.2752  2.0046
  837MOL0     H12973   9.054   7.671   0.772  0.1698  0.4600 -0.1056
  837MOL0     H12974   9.040   7.798   0.638  2.0637  0.5576  0.2501
  837MOL0     H12975   7.999   7.389   0.311 -2.0853 -1.8631 -1.2935
  837MOL0     H12976   7.842   7.201   0.352 -0.5317 -0.9169  0.8820
  837MOL0     H12977   7.512   7.045   0.593 -0.9230 -0.3580  0.9610
  837MOL0     H12978   7.310   6.907   0.553  0.8176  1.2271  0.9462
  837MOL0     H12979   5.651   6.666   0.828 -0.3217 -0.4453  3.2571
  837MOL0     H12980   5.462   6.818   0.744 -0.3348  0.2761  0.1765
  837MOL0     H12981   5.294   7.212   0.683  1.4807 -1.2505 -0.4023
  837MOL0     H12982   5.073   7.245   0.567 -0.2941 -1.5448 -0.1992
  837MOL0     H12983   4.747   7.247   0.838 -0.5387  3.6319 -1.5116
  837MOL0     H12984   4.671   7.120   0.741  0.4709 -1.0363  2.2270
  837MOL0     H12985   4.667   7.368   0.588  2.1511  0.0395  0.2289
  837MOL0     H12986   4.651   7.417   0.756 -0.4819  0.8622 -1.6518
  837MOL0     H12987   4.458   7.236   0.775  0.6856  1.4304  0.5477
  837MOL0     H12988   4.469   7.217   0.609 -0.5810 -0.1287  0.7655
  837MOL0     H12989   4.292   7.360   0.666 -0.0066 -1.8277  2.5942
  837MOL0     H12990   4.387   7.458   0.770  0.8103  1.9983 -0.9661
  837MOL0     H12991   4.447   7.621   0.379  1.2508  3.7449  3.0570
  837MOL0     H12992   4.871   7.065   0.898  1.3552 -1.4365 -0.4285
  837MOL0     H12993   4.975   6.979   1.075  1.2850 -1.6649 -2.3157
  837MOL0     H12994   5.128   6.917   1.039 -2.2314 -2.3455  0.4612
  837MOL0     H12995   5.110   7.076   1.130  1.1032  1.0485 -1.2669
  838MOL0     O12996   1.842   7.023   5.020 -0.6354  0.7752  0.9695
  838MOL0     C12997   1.940   7.057   4.944  0.8120 -0.2674  0.0720
  838MOL0     O12998   1.991   6.972   4.856 -0.8127 -0.1060 -0.6575
  838MOL0     C12999   2.101   7.024   4.794 -0.2847 -0.1297 -0.1269
  838MOL0     C13000   2.238   7.017   4.843  0.3804 -0.3701 -0.7706
  838MOL0     C13001   2.340   7.081   4.770  0.7391 -0.2449  0.2172
  838MOL0     C13002   2.316   7.151   4.653  0.6015  0.3457  0.3243
  838MOL0     O13003   2.421   7.219   4.595 -0.4058  0.3993  0.4344
  838MOL0     C13004   2.402   7.249   4.454 -0.0625  0.1339  0.1974
  838MOL0     C13005   2.538   7.297   4.394 -0.7294 -0.7606  0.1037
  838MOL0     C13006   2.564   7.438   4.381  0.2520 -0.2329  0.1058
  838MOL0     C13007   2.685   7.482   4.298  0.0155 -0.3712 -0.0537
  838MOL0     C13008   2.827   7.461   4.358  1.0026 -0.1103 -0.6557
  838MOL0     C13009   2.931   7.527   4.262 -0.1129 -0.5313  0.3312
  838MOL0     C13010   3.068   7.492   4.318 -0.3894 -0.2626 -0.3120
  838MOL0     C13011   3.177   7.586   4.266 -0.8301 -0.3616  0.2220
  838MOL0     N13012   3.315   7.530   4.282 -0.1437  1.0291 -0.4214
  838MOL0     C13013   3.398   7.559   4.392  0.0058 -0.4400  0.1842
  838MOL0     C13014   3.517   7.494   4.365  0.2735  0.6824 -0.2153
  838MOL0     C13015   3.634   7.477   4.452 -0.0076  0.1367 -0.4531
  838MOL0     C13016   3.755   7.554   4.386 -0.5097 -0.1101  0.3970
  838MOL0     C13017   3.734   7.703   4.340  0.0811 -0.2467  0.4936
  838MOL0     C13018   3.693   7.803   4.451 -0.1172  0.4806  0.0679
  838MOL0     O13019   3.808   7.814   4.537 -0.3829  0.5240 -0.0606
  838MOL0     C13020   3.933   7.863   4.502 -1.2301 -0.9132  0.5083
  838MOL0     C13021   4.037   7.847   4.596 -0.0173  0.2630  0.5471
  838MOL0     C13022   4.158   7.905   4.571 -0.6611  0.0454 -0.4442
  838MOL0     C13023   4.181   7.992   4.464  0.5876 -0.3833 -0.7261
  838MOL0     C13024   4.318   8.049   4.446 -0.7026 -0.2679 -0.1861
  838MOL0     O13025   4.360   8.082   4.318  0.4463 -0.2374  0.0902
  838MOL0     C13026   4.493   8.122   4.313  0.3128  0.2653  0.5286
  838MOL0     C13027   4.527   8.240   4.243 -0.0229  0.7557 -0.7558
  838MOL0     C13028   4.663   8.274   4.219 -0.6039  0.5550 -0.9227
  838MOL0     C13029   4.767   8.188   4.258 -0.1864 -0.6976  0.4372
  838MOL0     O13030   4.892   8.228   4.206 -0.4218 -0.5685 -0.7946
  838MOL0     C13031   5.005   8.164   4.269 -0.8638 -1.1628 -0.4049
  838MOL0     C13032   5.128   8.256   4.246 -0.0298 -0.1620 -1.1181
  838MOL0     C13033   5.249   8.181   4.275 -0.2543  0.5772  0.5906
  838MOL0     C13034   5.309   8.100   4.156  0.2285  0.5826 -0.2166
  838MOL0     C13035   5.447   8.048   4.182  0.3163  0.7288  0.1802
  838MOL0     C13036   5.485   7.924   4.101  0.1414 -0.3757 -0.1993
  838MOL0     C13037   5.634   7.903   4.107  0.0263 -0.1443 -0.2361
  838MOL0     C13038   5.690   7.788   4.028 -0.3961  0.7400 -0.0100
  838MOL0    Cl13039   5.600   7.632   4.076 -0.1414 -0.2479  0.0975
  838MOL0     C13040   4.736   8.062   4.320 -0.0499 -0.1539  1.0490
  838MOL0     C13041   4.602   8.032   4.342  0.7816  0.2166  0.7209
  838MOL0     O13042   4.392   8.048   4.543 -0.4155  0.3246  0.3926
  838MOL0     C13043   4.085   8.006   4.364  0.6053  0.0025 -0.2697
  838MOL0     C13044   3.961   7.939   4.385  1.0713 -1.6812 -0.9429
  838MOL0     N13045   3.499   7.420   4.247 -0.2719 -0.2486 -0.2532
  838MOL0     N13046   3.382   7.443   4.194 -0.1794 -0.0236 -0.3948
  838MOL0     C13047   2.187   7.143   4.607 -0.5298 -0.4333  0.5294
  838MOL0     C13048   2.079   7.089   4.677  0.3278 -0.5589 -0.2826
  838MOL0     C13049   2.003   7.197   4.973  0.2218  0.9360  0.5280
  838MOL0     C13050   1.977   7.312   4.883  0.8827 -0.6445 -1.0683
  838MOL0     C13051   2.029   7.442   4.919  0.2776  0.5198 -0.7480
  838MOL0     C13052   2.093   7.465   5.037 -0.0219 -1.0341  0.2478
  838MOL0     O13053   2.140   7.592   5.072  0.1175  0.6618  0.4796
  838MOL0     C13054   2.091   7.701   4.990 -0.3739 -0.0556  0.2424
  838MOL0     C13055   2.194   7.726   4.872  0.3952  0.1123  0.2821
  838MOL0     C13056   2.166   7.867   4.797 -0.5170  1.0728 -0.2559
  838MOL0     C13057   2.245   7.895   4.666  0.2481  0.3842 -0.9894
  838MOL0     C13058   2.364   7.811   4.656  0.4627 -0.4126  0.2114
  838MOL0     C13059   2.462   7.739   4.650  0.7185  0.3351  0.0071
  838MOL0     C13060   2.118   7.360   5.120 -0.1945 -0.0596  0.5673
  838MOL0     C13061   2.076   7.226   5.090 -0.5175 -1.1632 -0.1007
  838MOL0     C13062   2.106   7.107   5.180 -0.6514  0.0895  0.7279
  838MOL0     H13063   2.267   6.974   4.938 -2.9553  0.6955  0.9001
  838MOL0     H13064   2.441   7.085   4.811  0.1987 -0.4315  1.6158
  838MOL0     H13065   2.349   7.176   4.392  0.4753  1.2035 -1.5977
  838MOL0     H13066   2.336   7.337   4.456 -1.7311 -0.9986 -1.1621
  838MOL0     H13067   2.556   7.247   4.299  4.6074 -0.8832  0.8253
  838MOL0     H13068   2.610   7.251   4.462 -1.4499 -0.3030  1.1998
  838MOL0     H13069   2.576   7.479   4.482  0.9044  0.6739 -0.3296
  838MOL0     H13070   2.475   7.488   4.342 -1.2053 -0.5696  2.7430
  838MOL0     H13071   2.690   7.427   4.204 -3.1316 -1.2774  0.1917
  838MOL0     H13072   2.676   7.589   4.276  0.0674 -0.7475 -2.1215
  838MOL0     H13073   2.822   7.500   4.460 -0.4360 -0.6577 -0.4938
  838MOL0     H13074   2.848   7.354   4.365 -2.3674 -0.9263 -1.4292
  838MOL0     H13075   2.912   7.486   4.163 -0.8474  3.5092 -1.4271
  838MOL0     H13076   2.915   7.635   4.253 -1.4988 -0.9001 -2.8173
  838MOL0     H13077   3.091   7.395   4.274  0.8512  0.7442 -2.0597
  838MOL0     H13078   3.063   7.488   4.427  0.0737 -1.4662 -0.3249
  838MOL0     H13079   3.160   7.599   4.159 -2.3067  0.7456  0.5651
  838MOL0     H13080   3.165   7.686   4.308 -1.0735  0.7714 -2.3365
  838MOL0     H13081   3.366   7.611   4.482 -0.9338 -1.6674  0.5753
  838MOL0     H13082   3.601   7.522   4.546 -1.3603  3.3857 -2.3044
  838MOL0     H13083   3.651   7.370   4.468 -1.1286  0.2170  1.6275
  838MOL0     H13084   3.840   7.558   4.455  0.7004  0.7183 -1.0866
  838MOL0     H13085   3.795   7.502   4.298 -2.1615 -0.5686 -0.1274
  838MOL0     H13086   3.662   7.698   4.258  1.0759  0.5291 -0.4678
  838MOL0     H13087   3.833   7.731   4.302 -0.3567 -1.5053 -1.7667
  838MOL0     H13088   3.615   7.765   4.518  1.0716  0.6103  1.5742
  838MOL0     H13089   3.672   7.903   4.412  1.9481  0.8389 -0.2285
  838MOL0     H13090   4.018   7.809   4.695 -1.4964  0.9036  0.5234
  838MOL0     H13091   4.233   7.901   4.650 -0.0497  0.4473 -0.9924
  838MOL0     H13092   4.449   8.307   4.207  0.1007 -0.3356 -3.2802
  838MOL0     H13093   4.681   8.365   4.162  0.0318  0.7899 -0.3641
  838MOL0     H13094   4.984   8.154   4.376 -3.1402 -1.9971 -0.8772
  838MOL0     H13095   5.027   8.063   4.233  1.4543 -1.4622  1.5544
  838MOL0     H13096   5.128   8.293   4.143  0.2569 -1.1347 -1.4837
  838MOL0     H13097   5.125   8.333   4.323 -0.2871 -2.0444  0.8482
  838MOL0     H13098   5.323   8.260   4.292  2.3131 -0.9259 -2.4426
  838MOL0     H13099   5.233   8.124   4.367 -1.6951 -0.8761 -0.5046
  838MOL0     H13100   5.322   8.171   4.074  1.7993  0.1571 -0.3641
  838MOL0     H13101   5.239   8.021   4.127 -1.2397  2.2137 -1.2887
  838MOL0     H13102   5.460   8.036   4.290  0.7112  0.7423  0.1347
  838MOL0     H13103   5.524   8.125   4.170  0.3526  0.8935  1.2827
  838MOL0     H13104   5.433   7.841   4.149 -1.4167  0.3332 -0.5808
  838MOL0     H13105   5.448   7.929   3.998 -1.4272 -2.4644  0.1950
  838MOL0     H13106   5.681   7.902   4.206 -0.7564 -2.4326  0.1650
  838MOL0     H13107   5.684   7.986   4.055  0.2117  2.1098  3.2231
  838MOL0     H13108   5.684   7.810   3.921 -0.4350  0.6128 -0.0338
  838MOL0     H13109   5.795   7.759   4.039 -0.2817  1.0302 -0.3115
  838MOL0     H13110   4.815   7.992   4.345  1.2944  0.3566 -1.4878
  838MOL0     H13111   4.581   7.940   4.396  0.6427  1.0553  2.1522
  838MOL0     H13112   4.099   8.070   4.277 -2.6291 -0.9831 -1.6908
  838MOL0     H13113   3.884   7.956   4.310  0.9205  0.6823 -0.3324
  838MOL0     H13114   2.168   7.199   4.516  3.8693  0.0330 -0.2930
  838MOL0     H13115   1.980   7.104   4.634 -1.1834 -1.2219  2.6827
  838MOL0     H13116   1.904   7.305   4.803 -2.4098 -3.0495  1.8119
  838MOL0     H13117   2.001   7.526   4.856  1.3605  1.4363 -0.0658
  838MOL0     H13118   2.101   7.795   5.045  2.0279 -1.5412  2.5708
  838MOL0     H13119   1.989   7.693   4.949  0.7094  0.1889 -2.7366
  838MOL0     H13120   2.191   7.649   4.795 -0.2085  0.5339 -0.1295
  838MOL0     H13121   2.294   7.736   4.913  0.6926  1.2409 -0.6617
  838MOL0     H13122   2.179   7.952   4.865 -2.9494  0.2941  1.2983
  838MOL0     H13123   2.059   7.876   4.773 -0.9651  0.4348  1.4136
  838MOL0     H13124   2.184   7.862   4.581  2.0210 -2.3444 -1.3343
  838MOL0     H13125   2.266   8.002   4.658  1.4563  0.4542  2.0409
  838MOL0     H13126   2.546   7.677   4.629 -1.4380 -2.4363 -1.2034
  838MOL0     H13127   2.176   7.369   5.211  1.0023 -0.8661 -0.0743
  838MOL0     H13128   2.016   7.085   5.238 -1.5370  1.3388 -0.1249
  838MOL0     H13129   2.149   7.023   5.125 -0.3560  0.3738  0.5195
  838MOL0     H13130   2.180   7.143   5.251 -0.9598  4.2671 -0.8101
  839MOL0     O13131   5.728   8.560   6.316 -0.3996 -0.2363  1.0012
  839MOL0     C13132   5.761   8.677   6.284  0.1320  1.0473  0.4694
  839MOL0     O13133   5.673   8.782   6.293  0.2424  0.7784 -0.3848
  839MOL0     C13134   5.547   8.759   6.346 -0.0647  0.7369  0.0265
  839MOL0     C13135   5.502   8.821   6.466  0.7325 -0.0093 -0.8718
  839MOL0     C13136   5.368   8.797   6.504  0.6537  1.0972  0.0473
  839MOL0     C13137   5.284   8.705   6.435  0.3374 -0.0566  0.5310
  839MOL0     O13138   5.158   8.674   6.493 -0.1361  0.4540  0.0272
  839MOL0     C13139   5.055   8.652   6.411  0.7349  0.9028 -0.2606
  839MOL0     C13140   4.926   8.704   6.472  0.1747 -0.2882  1.1732
  839MOL0     C13141   4.798   8.667   6.392  0.1159  0.3313  0.9035
  839MOL0     C13142   4.674   8.737   6.441 -0.0233 -0.3254 -0.5248
  839MOL0     C13143   4.551   8.679   6.381 -0.1600 -0.5551  0.4796
  839MOL0     C13144   4.538   8.683   6.233  0.3865  0.9308  0.3215
  839MOL0     C13145   4.407   8.624   6.183 -0.2366  0.3275 -0.4147
  839MOL0     C13146   4.286   8.694   6.238 -0.4138 -0.9139  0.8852
  839MOL0     N13147   4.308   8.840   6.218 -0.1823  0.5313  0.1391
  839MOL0     C13148   4.328   8.933   6.321 -0.0223  0.6696  0.9255
  839MOL0     C13149   4.332   9.049   6.250  0.7216 -0.0320  0.5400
  839MOL0     C13150   4.326   9.185   6.309 -0.1776  0.0572  0.3805
  839MOL0     C13151   4.463   9.249   6.288  0.7427 -0.1797  0.4531
  839MOL0     C13152   4.581   9.206   6.372 -0.0454  0.8509  0.4570
  839MOL0     C13153   4.704   9.281   6.313 -0.7879  0.3996  0.5621
  839MOL0     O13154   4.817   9.264   6.405 -0.0744 -0.0010 -0.2686
  839MOL0     C13155   4.916   9.357   6.402  0.0134  0.4494 -0.7383
  839MOL0     C13156   4.943   9.428   6.285  0.6930  0.2118 -0.4317
  839MOL0     C13157   5.059   9.505   6.278 -0.3770  0.9450 -0.6707
  839MOL0     C13158   5.147   9.525   6.386  0.2545  0.9937 -1.0269
  839MOL0     C13159   5.276   9.585   6.366 -0.5599  0.6544 -1.3855
  839MOL0     O13160   5.371   9.585   6.469  0.1469 -0.1008 -0.5228
  839MOL0     C13161   5.482   9.662   6.455  0.0049  0.6442  0.1376
  839MOL0     C13162   5.507   9.783   6.512  0.0869 -0.5153  0.7279
  839MOL0     C13163   5.623   9.852   6.480 -0.7414 -0.1564 -0.2797
  839MOL0     C13164   5.718   9.805   6.396 -0.7318 -1.0181  0.1723
  839MOL0     O13165   5.830   9.887   6.378  1.0906 -0.1750 -0.1125
  839MOL0     C13166   5.941   9.853   6.304  0.0423  0.4107  0.3529
  839MOL0     C13167   6.038   9.975   6.292  0.4998  0.9238 -0.1794
  839MOL0     C13168   6.002  10.091   6.206 -0.0609  0.7710  0.3556
  839MOL0     C13169   6.131  10.151   6.154  0.3942 -0.1590  0.6660
  839MOL0     C13170   6.116  10.268   6.038  0.0549  1.1993 -0.1399
  839MOL0     C13171   6.255  10.317   6.002  0.2114 -0.2657  0.1573
  839MOL0     C13172   6.349  10.224   5.924 -0.7460 -0.1391 -0.1295
  839MOL0     C13173   6.490  10.289   5.931  0.1522 -0.3931 -0.7984
  839MOL0    Cl13174   6.596  10.207   5.805 -0.3662  0.3297  0.3812
  839MOL0     C13175   5.701   9.681   6.344 -0.3959 -0.5460  0.0827
  839MOL0     C13176   5.583   9.611   6.366  0.8257  0.3813 -0.2044
  839MOL0     O13177   5.288   9.638   6.258 -0.0346  0.0148 -0.2878
  839MOL0     C13178   5.119   9.460   6.509  0.2777 -0.0570  0.1898
  839MOL0     C13179   5.006   9.370   6.517  0.6318  0.6532 -0.6744
  839MOL0     N13180   4.312   9.024   6.115  1.0175  0.0372 -0.1615
  839MOL0     N13181   4.302   8.899   6.096 -0.0905  0.4569  0.2025
  839MOL0     C13182   5.325   8.649   6.316 -0.9992 -0.4737  0.9544
  839MOL0     C13183   5.454   8.681   6.265 -0.0249 -0.6695  0.3840
  839MOL0     C13184   5.902   8.695   6.249  0.5906 -1.0041  0.5935
  839MOL0     C13185   5.972   8.591   6.179  0.7640  0.8383  0.4658
  839MOL0     C13186   6.103   8.594   6.141  0.6201 -0.1002  0.3486
  839MOL0     C13187   6.174   8.714   6.148  0.7216  0.0408 -0.2865
  839MOL0     O13188   6.301   8.738   6.091  0.0984  0.1371  0.5032
  839MOL0     C13189   6.368   8.639   6.018 -0.0019 -0.3794  0.6271
  839MOL0     C13190   6.494   8.701   5.967  0.5012 -0.9286 -0.1145
  839MOL0     C13191   6.600   8.610   5.892 -0.0940  0.2591  0.0457
  839MOL0     C13192   6.558   8.569   5.752 -0.5481  0.5316 -0.9945
  839MOL0     C13193   6.582   8.680   5.651 -0.5338  0.4137 -1.0686
  839MOL0     C13194   6.606   8.763   5.566 -0.0270 -0.2468  0.4426
  839MOL0     C13195   6.105   8.829   6.205  0.2734  0.3269  0.9307
  839MOL0     C13196   5.970   8.824   6.248  0.6135  0.6879 -0.2479
  839MOL0     C13197   5.907   8.944   6.301 -0.4132  0.0517  0.7115
  839MOL0     H13198   5.563   8.892   6.522 -0.3149  2.5244 -2.7291
  839MOL0     H13199   5.337   8.829   6.603 -1.7783  1.9705 -0.9127
  839MOL0     H13200   5.069   8.696   6.312  2.1895  0.8934 -0.0817
  839MOL0     H13201   5.039   8.547   6.384 -2.3820  0.7577  1.6786
  839MOL0     H13202   4.924   8.811   6.495  1.5028 -0.6269  3.1902
  839MOL0     H13203   4.914   8.648   6.565 -0.2429 -1.5249  0.3977
  839MOL0     H13204   4.778   8.559   6.387 -0.9285  0.5250 -3.4316
  839MOL0     H13205   4.805   8.695   6.287 -0.7616  2.2784  1.3191
  839MOL0     H13206   4.669   8.713   6.548 -3.1319 -2.4523 -1.0313
  839MOL0     H13207   4.681   8.845   6.423  3.2577 -0.2652  0.4042
  839MOL0     H13208   4.551   8.573   6.408 -0.4476 -0.2589  1.6893
  839MOL0     H13209   4.462   8.730   6.420 -1.1309  0.4581 -2.7510
  839MOL0     H13210   4.543   8.788   6.202  0.6262  1.2466  1.3895
  839MOL0     H13211   4.626   8.637   6.185  0.5082  3.4857 -2.2144
  839MOL0     H13212   4.392   8.519   6.210 -0.8708  0.8333  1.2787
  839MOL0     H13213   4.417   8.623   6.074 -1.4021 -0.2043 -0.5257
  839MOL0     H13214   4.205   8.675   6.166 -0.1138  1.6849 -0.2608
  839MOL0     H13215   4.244   8.665   6.334 -3.0707 -1.8946 -0.4554
  839MOL0     H13216   4.332   8.922   6.429  0.6845  0.9961  0.9357
  839MOL0     H13217   4.252   9.242   6.251  1.4804  1.3668 -0.5467
  839MOL0     H13218   4.293   9.179   6.413  3.3992  1.6551  1.7775
  839MOL0     H13219   4.487   9.225   6.184  1.5590 -0.1796  0.6339
  839MOL0     H13220   4.456   9.358   6.293 -1.1059 -0.3130  3.7328
  839MOL0     H13221   4.588   9.097   6.384 -2.8523  0.4832 -0.5313
  839MOL0     H13222   4.553   9.233   6.474 -1.0402  1.5134  0.0246
  839MOL0     H13223   4.673   9.386   6.304 -0.7181  0.5164  1.5689
  839MOL0     H13224   4.741   9.249   6.216  1.4739  0.8749  1.1869
  839MOL0     H13225   4.885   9.441   6.194 -0.0350  0.7008  0.0973
  839MOL0     H13226   5.082   9.550   6.182  2.1659 -1.7673 -1.4866
  839MOL0     H13227   5.430   9.829   6.573 -0.8849  0.7674 -1.3623
  839MOL0     H13228   5.633   9.954   6.515  2.0982 -0.6956  0.8185
  839MOL0     H13229   5.988   9.775   6.365 -0.1383  0.3387  0.3987
  839MOL0     H13230   5.914   9.831   6.200 -1.2757  1.3279  0.4858
  839MOL0     H13231   6.063  10.014   6.391  2.7516 -1.0005  0.1022
  839MOL0     H13232   6.137   9.937   6.264 -0.2676 -0.1089 -1.5674
  839MOL0     H13233   5.937  10.072   6.121 -0.1666  1.8011  0.2041
  839MOL0     H13234   5.958  10.164   6.275 -0.0362 -0.6556  1.9564
  839MOL0     H13235   6.184  10.068   6.107  2.2827  0.6541  1.2511
  839MOL0     H13236   6.185  10.190   6.241  2.5584  1.3259 -1.1956
  839MOL0     H13237   6.055  10.352   6.071  0.0659  1.0532  0.2510
  839MOL0     H13238   6.072  10.216   5.952  3.3130 -0.5924 -0.9195
  839MOL0     H13239   6.236  10.391   5.924 -1.1898 -0.5083  0.2423
  839MOL0     H13240   6.305  10.369   6.084  0.5241 -0.3465  0.0222
  839MOL0     H13241   6.316  10.214   5.820 -1.3095  0.9426 -0.0662
  839MOL0     H13242   6.340  10.125   5.971  0.0950  0.6734  1.8592
  839MOL0     H13243   6.480  10.395   5.905  3.9218 -0.2638 -2.3180
  839MOL0     H13244   6.544  10.280   6.026  0.9347 -0.6346 -1.2540
  839MOL0     H13245   5.784   9.644   6.284 -0.8343 -2.2868  0.5091
  839MOL0     H13246   5.560   9.514   6.323  1.9492  0.3881 -0.8589
  839MOL0     H13247   5.183   9.475   6.595 -2.2727 -1.1323  2.4165
  839MOL0     H13248   4.967   9.337   6.613  0.2147 -2.1585 -1.7346
  839MOL0     H13249   5.270   8.585   6.247  0.4790  1.6276 -2.4426
  839MOL0     H13250   5.482   8.639   6.169  0.3983  2.6055 -1.0433
  839MOL0     H13251   5.921   8.496   6.170 -0.0952  1.2914  0.4519
  839MOL0     H13252   6.141   8.500   6.103  0.4885 -0.6098  1.4600
  839MOL0     H13253   6.307   8.609   5.933 -1.3346  0.0213  1.4151
  839MOL0     H13254   6.394   8.557   6.085 -0.0086 -0.0472  1.0397
  839MOL0     H13255   6.539   8.739   6.059 -0.7404  0.3194  0.0055
  839MOL0     H13256   6.468   8.787   5.904 -0.7674 -0.0610  1.5297
  839MOL0     H13257   6.621   8.518   5.947  0.7207  0.3889 -0.0267
  839MOL0     H13258   6.699   8.657   5.890  0.5072 -0.9627  0.1268
  839MOL0     H13259   6.615   8.480   5.724  0.3723  1.2246 -1.3616
  839MOL0     H13260   6.452   8.542   5.743  0.1536 -2.0261 -2.6136
  839MOL0     H13261   6.623   8.841   5.495  0.6015 -0.1229  0.7226
  839MOL0     H13262   6.164   8.919   6.189 -0.7891  0.6682 -1.4776
  839MOL0     H13263   5.860   8.917   6.396 -2.2882  0.4412 -0.0647
  839MOL0     H13264   5.981   9.020   6.325  1.2770 -1.4508  0.5142
  839MOL0     H13265   5.823   8.965   6.233 -0.3984 -1.2268  0.2601
  840MOL0     O13266   8.710   3.244   0.880 -0.4927  0.2483 -0.4491
  840MOL0     C13267   8.729   3.276   0.996  0.4209  0.2639  1.4473
  840MOL0     O13268   8.854   3.276   1.055  0.7814 -0.2420 -0.2960
  840MOL0     C13269   8.972   3.268   0.983 -0.2282  0.1474 -0.2957
  840MOL0     C13270   9.025   3.143   0.945  0.4731  0.1437  0.2660
  840MOL0     C13271   9.147   3.147   0.874  0.3038  1.7244 -0.6585
  840MOL0     C13272   9.211   3.263   0.835  0.6568  0.2581 -0.0155
  840MOL0     O13273   9.341   3.277   0.807 -0.1141  0.2425 -0.7123
  840MOL0     C13274   9.406   3.158   0.760  1.0467 -0.4654  0.6900
  840MOL0     C13275   9.547   3.170   0.709  0.7176 -0.5175  0.1056
  840MOL0     C13276   9.642   3.202   0.820 -0.4095 -0.0125 -0.5514
  840MOL0     C13277   9.779   3.226   0.757  0.7608 -1.1476 -0.3711
  840MOL0     C13278   9.872   3.298   0.862  1.0815  0.2381  0.1654
  840MOL0     C13279  10.011   3.285   0.812 -0.1927  0.4931  0.2072
  840MOL0     C13280  10.109   3.344   0.902 -0.4883  0.8602 -0.5358
  840MOL0     C13281  10.247   3.315   0.843 -0.7026 -0.2097  0.9238
  840MOL0     N13282  10.353   3.350   0.942 -0.7442  0.4923  1.0046
  840MOL0     C13283  10.484   3.390   0.921 -0.8855  0.8486  1.0941
  840MOL0     C13284  10.542   3.381   1.042 -0.1741 -1.0089 -0.1713
  840MOL0     C13285  10.674   3.413   1.079 -0.9875 -0.3920 -0.6576
  840MOL0     C13286  10.743   3.284   1.142  0.4180 -0.4048 -0.6059
  840MOL0     C13287  10.873   3.330   1.191 -0.4302 -0.1460  0.8476
  840MOL0     C13288  10.987   3.309   1.095 -0.3181 -1.0150 -0.4708
  840MOL0     O13289  11.058   3.436   1.075 -0.1580 -0.1982  0.8116
  840MOL0     C13290  11.197   3.426   1.087  0.1783 -0.1943 -1.3534
  840MOL0     C13291  11.250   3.459   1.210  0.2603  0.1515 -0.4321
  840MOL0     C13292  11.385   3.452   1.232  0.5193  0.0846  0.6061
  840MOL0     C13293  11.477   3.405   1.124 -0.2711 -0.8167 -0.4231
  840MOL0     C13294  11.618   3.381   1.140  0.2796  0.0306  1.0200
  840MOL0     O13295  11.674   3.427   1.257 -0.1055  0.3253 -0.1300
  840MOL0     C13296  11.812   3.407   1.284  0.0089  0.1472 -0.0115
  840MOL0     C13297  11.846   3.337   1.395 -0.3034 -0.3377 -0.3244
  840MOL0     C13298  11.981   3.305   1.426  1.2873  0.0515 -0.0333
  840MOL0     C13299  12.080   3.357   1.345 -0.1189  0.6041  0.2525
  840MOL0     O13300  12.216   3.333   1.356 -0.1320 -0.5690 -0.0994
  840MOL0     C13301  12.272   3.361   1.486  0.1204 -0.6112  0.5502
  840MOL0     C13302  12.280   3.513   1.518 -0.3322  0.4129  0.6368
  840MOL0     C13303  12.359   3.537   1.645  0.2102  0.0574  0.2662
  840MOL0     C13304  12.430   3.670   1.656 -0.1050 -0.5244  0.0890
  840MOL0     C13305  12.446   3.713   1.799 -0.1040 -0.7642  0.1462
  840MOL0     C13306  12.536   3.846   1.803 -0.3722 -0.6463  0.4397
  840MOL0     C13307  12.690   3.818   1.801  0.2160  0.2001 -0.0941
  840MOL0     C13308  12.781   3.937   1.822  0.2351 -0.7036 -0.2788
  840MOL0    Cl13309  12.948   3.867   1.853 -0.2084  0.1273  0.2026
  840MOL0     C13310  12.045   3.432   1.227  0.0700  0.0009 -0.2447
  840MOL0     C13311  11.910   3.451   1.204  0.7653 -0.2553 -0.8002
  840MOL0     O13312  11.680   3.309   1.055 -0.0689  0.3023  0.5297
  840MOL0     C13313  11.411   3.364   1.006 -0.6179 -0.5644 -0.8477
  840MOL0     C13314  11.274   3.383   0.990  0.8810 -0.1205 -0.2750
  840MOL0     N13315  10.447   3.356   1.138 -0.0848  0.6276 -0.3989
  840MOL0     N13316  10.338   3.346   1.078  0.2821  0.4627 -0.2112
  840MOL0     C13317   9.148   3.386   0.866  0.2462  0.8019 -0.2659
  840MOL0     C13318   9.021   3.384   0.928 -1.0681  0.2139 -0.3230
  840MOL0     C13319   8.607   3.325   1.066  0.9321  0.5355 -0.0711
  840MOL0     C13320   8.628   3.388   1.180  0.6310  0.5901  0.2824
  840MOL0     C13321   8.521   3.451   1.261 -0.6675  0.1421  0.7033
  840MOL0     C13322   8.390   3.442   1.217 -1.2088 -0.0299  0.1187
  840MOL0     O13323   8.292   3.520   1.268 -0.1853 -0.4022  0.1266
  840MOL0     C13324   8.245   3.480   1.390  0.0379  1.0519 -0.1735
  840MOL0     C13325   8.149   3.582   1.445  0.1412 -0.5954 -0.3287
  840MOL0     C13326   8.028   3.611   1.357  1.0238  0.0104 -0.1558
  840MOL0     C13327   7.924   3.704   1.418 -0.4603 -1.1463 -0.0920
  840MOL0     C13328   7.804   3.646   1.481 -0.3643  1.2254 -0.6993
  840MOL0     C13329   7.706   3.589   1.541 -0.5337  0.7572  1.0076
  840MOL0     C13330   8.362   3.363   1.104  0.1514  0.1925  0.5847
  840MOL0     C13331   8.468   3.303   1.029  0.1537 -0.0491 -0.2421
  840MOL0     C13332   8.426   3.217   0.920  0.6654 -0.1674  0.3616
  840MOL0     H13333   8.979   3.046   0.966 -1.0768  0.2446 -2.2380
  840MOL0     H13334   9.195   3.050   0.861 -0.8918  0.6727  1.8865
  840MOL0     H13335   9.406   3.093   0.848  0.3166  1.0313  1.8559
  840MOL0     H13336   9.355   3.110   0.676  0.1165  0.5023  0.6855
  840MOL0     H13337   9.563   3.242   0.629  1.7467 -0.1774  0.5896
  840MOL0     H13338   9.580   3.077   0.664  0.0059 -1.8840  2.2322
  840MOL0     H13339   9.640   3.115   0.887  0.2517  1.0843  0.9389
  840MOL0     H13340   9.619   3.295   0.873  0.1209  0.3641 -0.9824
  840MOL0     H13341   9.817   3.126   0.731  2.7286 -0.2619 -1.1227
  840MOL0     H13342   9.776   3.296   0.673 -1.8015  2.4461  2.4196
  840MOL0     H13343   9.834   3.400   0.874 -1.8262 -0.7739  0.2196
  840MOL0     H13344   9.858   3.248   0.958 -1.6425  0.8033  0.1326
  840MOL0     H13345  10.042   3.182   0.792 -1.2921 -0.0624  1.2375
  840MOL0     H13346  10.038   3.341   0.722  2.4960  0.1277  0.7003
  840MOL0     H13347  10.094   3.282   0.991 -0.0190  0.5852 -0.6501
  840MOL0     H13348  10.097   3.452   0.918  1.3046  0.7148  2.5399
  840MOL0     H13349  10.266   3.209   0.825 -0.7220 -0.2189  0.9578
  840MOL0     H13350  10.267   3.374   0.753 -3.1095  0.8063  0.9866
  840MOL0     H13351  10.529   3.421   0.827 -1.6412  1.3257  0.8837
  840MOL0     H13352  10.727   3.449   0.990  0.7950 -1.3700 -0.0346
  840MOL0     H13353  10.671   3.496   1.150  0.2598  0.8067 -1.9437
  840MOL0     H13354  10.684   3.245   1.226 -1.2459  1.7609 -0.6781
  840MOL0     H13355  10.747   3.195   1.078 -1.5171 -0.9603 -0.0114
  840MOL0     H13356  10.902   3.269   1.277 -1.3045 -2.0097 -0.1031
  840MOL0     H13357  10.864   3.434   1.224  0.2899  1.5327 -3.6219
  840MOL0     H13358  10.948   3.285   0.996  0.7927  0.3058 -1.2652
  840MOL0     H13359  11.054   3.227   1.123  0.6519 -1.1149 -2.8633
  840MOL0     H13360  11.183   3.496   1.287  0.9797 -0.2571  0.4076
  840MOL0     H13361  11.426   3.485   1.327  0.1038  2.1775  0.1092
  840MOL0     H13362  11.763   3.293   1.449 -0.8820  1.5151  0.3581
  840MOL0     H13363  12.010   3.235   1.504 -3.8404 -1.3582  0.9940
  840MOL0     H13364  12.212   3.297   1.552 -1.5284 -0.3182 -0.6181
  840MOL0     H13365  12.376   3.325   1.492  0.2927 -0.0592  0.9078
  840MOL0     H13366  12.313   3.558   1.424 -1.6147 -2.8566 -1.5336
  840MOL0     H13367  12.177   3.547   1.532 -1.4782 -1.8983 -1.5056
  840MOL0     H13368  12.292   3.533   1.731  3.5556  0.9126  3.1452
  840MOL0     H13369  12.437   3.465   1.673 -1.4602 -1.0729  2.3289
  840MOL0     H13370  12.374   3.748   1.603  0.5512 -1.0813 -1.4856
  840MOL0     H13371  12.527   3.667   1.606 -0.3118  1.1203 -0.5044
  840MOL0     H13372  12.496   3.628   1.846 -2.8906 -1.3538  2.2797
  840MOL0     H13373  12.351   3.718   1.853 -0.5540  2.5519 -0.7160
  840MOL0     H13374  12.498   3.913   1.726 -2.0160 -1.2605  0.6698
  840MOL0     H13375  12.510   3.891   1.900 -0.0621  0.6023 -0.0320
  840MOL0     H13376  12.710   3.785   1.699 -3.7103 -0.3447 -0.8179
  840MOL0     H13377  12.724   3.749   1.879  4.3862  2.7852  0.6949
  840MOL0     H13378  12.777   3.999   1.732 -1.7511  1.4917  1.1942
  840MOL0     H13379  12.748   3.997   1.907  2.3533 -1.3421  1.0536
  840MOL0     H13380  12.121   3.453   1.152 -2.4385 -0.4064 -3.0822
  840MOL0     H13381  11.869   3.504   1.119 -0.5977 -0.2753 -0.1744
  840MOL0     H13382  11.467   3.310   0.931  1.6443 -0.7371  0.8543
  840MOL0     H13383  11.233   3.342   0.898  3.2927 -0.8447 -1.1035
  840MOL0     H13384   9.210   3.473   0.844  0.6390  0.0204 -2.5409
  840MOL0     H13385   8.959   3.470   0.951  0.6713  1.6113 -0.6374
  840MOL0     H13386   8.727   3.395   1.224  0.7709 -1.2956  0.3542
  840MOL0     H13387   8.550   3.514   1.345 -1.1697  0.9654  0.2722
  840MOL0     H13388   8.330   3.477   1.458 -0.9651  1.5543  1.1456
  840MOL0     H13389   8.189   3.386   1.391 -3.9522  3.2070  1.7308
  840MOL0     H13390   8.213   3.669   1.463  0.7645 -1.1584  0.2943
  840MOL0     H13391   8.113   3.554   1.544  1.5825 -0.4778  0.2542
  840MOL0     H13392   7.991   3.511   1.333  2.1695 -0.8958  1.6891
  840MOL0     H13393   8.071   3.659   1.268 -1.1772 -1.4444 -2.1346
  840MOL0     H13394   7.975   3.778   1.480 -2.7331 -1.1886  1.9964
  840MOL0     H13395   7.883   3.749   1.327  0.6125  0.7866  0.3299
  840MOL0     H13396   7.617   3.537   1.570  0.0994 -0.9199  0.0403
  840MOL0     H13397   8.262   3.357   1.062  0.1973 -1.3552  0.6266
  840MOL0     H13398   8.451   3.266   0.826 -1.2238 -1.5881 -0.9814
  840MOL0     H13399   8.466   3.117   0.939 -1.2626 -0.7573  1.6301
  840MOL0     H13400   8.318   3.200   0.926  0.5039  0.7908  0.3089
  841MOL0     O13401   4.621  10.847   1.752  0.1898 -0.4238 -0.3182
  841MOL0     C13402   4.533  10.887   1.681  0.7005  0.1478 -0.2012
  841MOL0     O13403   4.561  10.984   1.578  0.1227 -0.0246  0.3809
  841MOL0     C13404   4.696  10.998   1.551  0.0347  0.7116  0.3241
  841MOL0     C13405   4.744  10.905   1.459 -0.3856 -0.4618  0.1987
  841MOL0     C13406   4.881  10.901   1.423 -0.8000 -0.6059 -0.3465
  841MOL0     C13407   4.971  10.999   1.482 -0.5022  0.5659  0.0146
  841MOL0     O13408   5.111  10.979   1.454  0.6857  0.1111 -0.6349
  841MOL0     C13409   5.194  11.096   1.440 -0.4321  1.4918  0.0028
  841MOL0     C13410   5.292  11.075   1.322 -0.5933 -0.0741  0.0945
  841MOL0     C13411   5.215  11.044   1.194 -0.1355 -0.0872  0.7172
  841MOL0     C13412   5.314  11.021   1.085  0.8097  0.7143  0.4798
  841MOL0     C13413   5.261  10.941   0.961 -0.1765 -0.7628 -0.9065
  841MOL0     C13414   5.177  11.034   0.874  1.0399  0.0789  1.1679
  841MOL0     C13415   5.080  10.968   0.769 -0.0114  0.8460 -0.4165
  841MOL0     C13416   5.027  11.076   0.674 -0.1652  0.7616 -0.3123
  841MOL0     N13417   5.026  11.021   0.532 -0.8007 -0.9344  0.9126
  841MOL0     C13418   5.127  11.051   0.438 -0.2854  0.4054 -0.6115
  841MOL0     C13419   5.115  10.959   0.337  0.6526  0.0543 -0.0104
  841MOL0     C13420   5.197  10.965   0.213  0.3792 -0.4048  0.5964
  841MOL0     C13421   5.330  10.882   0.219 -0.5472  0.3928  0.1367
  841MOL0     C13422   5.418  10.911   0.095  0.2876 -0.1051 -0.0680
  841MOL0     C13423   5.505  11.037   0.114 -0.2300 -0.7077  0.2222
  841MOL0     O13424   5.565  11.070  -0.015 -0.2268 -0.6670  0.4162
  841MOL0     C13425   5.640  11.191  -0.009 -1.3556  0.6684  0.4295
  841MOL0     C13426   5.729  11.225  -0.115  0.7691 -0.0782  0.3653
  841MOL0     C13427   5.801  11.335  -0.115 -0.5878 -0.6092 -0.6614
  841MOL0     C13428   5.792  11.439  -0.018 -0.0011  0.2830 -0.2383
  841MOL0     C13429   5.866  11.566  -0.032  0.2434 -1.1717 -0.3380
  841MOL0     O13430   5.949  11.580  -0.140  0.4731 -0.8728 -0.0133
  841MOL0     C13431   6.050  11.677  -0.136  1.5339 -0.1175  0.9021
  841MOL0     C13432   6.141  11.666  -0.031  0.6640  0.2178 -0.1079
  841MOL0     C13433   6.259  11.742  -0.034  0.0317 -0.5132 -0.5414
  841MOL0     C13434   6.294  11.822  -0.143 -0.1405  0.1682  0.4913
  841MOL0     O13435   6.416  11.876  -0.131  0.1208 -0.1091 -0.2052
  841MOL0     C13436   6.438  12.012  -0.185 -0.5451  1.1359  0.2527
  841MOL0     C13437   6.571  12.058  -0.125 -0.1087 -0.4675  0.3432
  841MOL0     C13438   6.584  12.214  -0.134  0.1389 -0.4027  0.6895
  841MOL0     C13439   6.722  12.253  -0.077  1.2124 -0.1513 -0.2394
  841MOL0     C13440   6.841  12.234  -0.172 -0.6402 -0.5655  0.4778
  841MOL0     C13441   6.979  12.270  -0.096  0.3940  0.8106  0.0743
  841MOL0     C13442   7.021  12.408  -0.154  0.3693  0.0585  0.3724
  841MOL0     C13443   7.173  12.426  -0.131  0.5612 -0.5533  0.7830
  841MOL0    Cl13444   7.198  12.430   0.050  0.5425 -0.1661 -0.2788
  841MOL0     C13445   6.211  11.828  -0.256 -0.1133 -0.1825 -0.6770
  841MOL0     C13446   6.089  11.759  -0.251  0.3584  1.5499  0.3176
  841MOL0     O13447   5.851  11.652   0.056 -0.1841  0.4469 -0.0068
  841MOL0     C13448   5.714  11.410   0.094  0.5437 -0.3795  0.1530
  841MOL0     C13449   5.639  11.294   0.090  0.9695  0.5590  0.1502
  841MOL0     N13450   5.009  10.877   0.371  0.6626  0.3344 -0.4101
  841MOL0     N13451   4.960  10.911   0.486 -0.4287  0.0131 -0.0382
  841MOL0     C13452   4.919  11.095   1.571  0.0100  0.4160  0.4545
  841MOL0     C13453   4.783  11.094   1.605  0.1763  0.0795  0.4729
  841MOL0     C13454   4.390  10.890   1.736 -0.4353  0.4763  0.4147
  841MOL0     C13455   4.286  10.938   1.651 -0.6980  0.1645 -0.1195
  841MOL0     C13456   4.156  10.945   1.695 -0.4470  0.1367  0.2899
  841MOL0     C13457   4.120  10.897   1.829  0.2920  0.5554  1.3830
  841MOL0     O13458   3.997  10.931   1.878  0.2251  0.1241  0.8661
  841MOL0     C13459   3.976  10.915   2.024  0.3992 -0.8084  0.4885
  841MOL0     C13460   3.824  10.927   2.057 -1.6222  0.0550  0.4248
  841MOL0     C13461   3.746  10.813   1.996 -0.6523  0.3093 -0.2497
  841MOL0     C13462   3.604  10.824   2.044 -0.2022 -0.0456 -0.9701
  841MOL0     C13463   3.517  10.728   1.978  0.8719  0.6294  0.4087
  841MOL0     C13464   3.438  10.654   1.926  0.9071  0.5041 -0.9045
  841MOL0     C13465   4.223  10.832   1.900 -0.8159  0.3559 -0.5596
  841MOL0     C13466   4.358  10.823   1.858  0.3523  0.0839  0.0023
  841MOL0     C13467   4.466  10.787   1.964  0.6918  1.1920 -0.2065
  841MOL0     H13468   4.676  10.832   1.416 -1.0051  0.4687 -0.4419
  841MOL0     H13469   4.917  10.831   1.348  0.9472  0.2660 -0.3822
  841MOL0     H13470   5.119  11.169   1.408 -1.2520  0.9006  0.5367
  841MOL0     H13471   5.239  11.121   1.537 -1.6114  2.8022  0.2451
  841MOL0     H13472   5.364  10.998   1.351  4.5225  4.5261  1.2885
  841MOL0     H13473   5.348  11.169   1.314 -0.8630 -0.0502 -2.0515
  841MOL0     H13474   5.145  11.124   1.170 -0.2388  0.1718  1.8062
  841MOL0     H13475   5.162  10.949   1.209 -2.5184  0.9324 -0.7078
  841MOL0     H13476   5.349  11.114   1.040  1.2985  0.1370 -0.3795
  841MOL0     H13477   5.393  10.958   1.127  0.3161  0.5253  1.1417
  841MOL0     H13478   5.345  10.908   0.899 -1.2842 -1.4603 -2.1130
  841MOL0     H13479   5.206  10.851   0.992 -0.3439 -0.3294  0.1014
  841MOL0     H13480   5.114  11.086   0.946 -0.2235 -0.1987  0.2914
  841MOL0     H13481   5.241  11.110   0.829 -2.0123  1.6638 -0.8385
  841MOL0     H13482   4.998  10.917   0.821  1.5098 -0.0686  1.2185
  841MOL0     H13483   5.142  10.898   0.712  1.0230  0.3475  1.2092
  841MOL0     H13484   4.923  11.097   0.701 -0.2785 -0.7350  0.5338
  841MOL0     H13485   5.082  11.171   0.683  0.1914  0.5074  0.2561
  841MOL0     H13486   5.209  11.119   0.454  0.4435 -0.8769  1.4597
  841MOL0     H13487   5.130  10.927   0.135 -0.3128 -0.5057  1.2231
  841MOL0     H13488   5.226  11.067   0.189 -0.2961  0.0231  1.5075
  841MOL0     H13489   5.382  10.902   0.313  1.2108  0.2267 -0.7619
  841MOL0     H13490   5.306  10.775   0.220 -1.6335  0.6111 -0.3631
  841MOL0     H13491   5.359  10.945   0.010 -0.4221  2.5106  1.3701
  841MOL0     H13492   5.494  10.835   0.075  0.0823 -0.0591 -1.0668
  841MOL0     H13493   5.586  11.011   0.183  2.3055  1.8611 -1.5881
  841MOL0     H13494   5.438  11.120   0.136 -0.1273 -0.6005  0.1299
  841MOL0     H13495   5.731  11.156  -0.199 -3.7296  0.5571 -0.5069
  841MOL0     H13496   5.869  11.353  -0.198  0.4377  2.1252  0.6477
  841MOL0     H13497   6.120  11.589   0.043 -4.1104  1.5832  0.2759
  841MOL0     H13498   6.331  11.719   0.043  1.8930  0.8983 -1.7461
  841MOL0     H13499   6.446  12.013  -0.294  0.7210 -1.9587  0.2161
  841MOL0     H13500   6.351  12.076  -0.165 -3.0437 -1.0358 -2.6842
  841MOL0     H13501   6.577  12.025  -0.021  0.3743  1.7905  1.1060
  841MOL0     H13502   6.651  12.019  -0.188 -0.8813  1.5874 -2.0768
  841MOL0     H13503   6.572  12.260  -0.232  2.4880  2.2404  1.5125
  841MOL0     H13504   6.504  12.251  -0.070  2.6740  2.8441  2.2837
  841MOL0     H13505   6.727  12.194   0.015  0.4138  0.2749  0.0917
  841MOL0     H13506   6.711  12.356  -0.044  2.1903  0.2742 -1.1847
  841MOL0     H13507   6.822  12.293  -0.262 -2.0198 -2.1597 -0.3511
  841MOL0     H13508   6.837  12.129  -0.203  3.4390 -0.9182  0.6190
  841MOL0     H13509   6.975  12.269   0.013 -1.6251  0.6576  0.0368
  841MOL0     H13510   7.053  12.197  -0.128  0.9243  1.4037 -0.0775
  841MOL0     H13511   6.974  12.498  -0.114  1.9095  2.0061 -1.9081
  841MOL0     H13512   6.999  12.410  -0.261 -0.8732  5.2526  0.4745
  841MOL0     H13513   7.222  12.343  -0.182  2.2810  0.3569  0.8606
  841MOL0     H13514   7.201  12.519  -0.181  0.1955  0.0191  1.6136
  841MOL0     H13515   6.239  11.876  -0.349  0.4215  0.4980 -0.1726
  841MOL0     H13516   6.030  11.773  -0.341  0.2747 -0.9453 -0.0868
  841MOL0     H13517   5.694  11.477   0.177  0.1651  0.0850 -0.3080
  841MOL0     H13518   5.573  11.273   0.174  0.2255  0.2423 -0.5012
  841MOL0     H13519   4.979  11.160   1.634  0.0935 -0.8470  1.7221
  841MOL0     H13520   4.748  11.159   1.685  0.6568 -2.1666  2.6262
  841MOL0     H13521   4.323  10.967   1.553  0.3574 -1.4250 -0.2370
  841MOL0     H13522   4.076  10.986   1.634  0.4549  1.8596  0.2075
  841MOL0     H13523   4.043  10.984   2.077 -0.2574  0.9806 -0.9113
  841MOL0     H13524   4.002  10.817   2.064  1.4041 -1.6078 -1.9781
  841MOL0     H13525   3.782  11.024   2.031 -0.9057  0.0101 -0.9514
  841MOL0     H13526   3.810  10.913   2.165 -0.2427 -0.7797  0.5170
  841MOL0     H13527   3.791  10.716   2.021  1.1448  0.9459 -0.8676
  841MOL0     H13528   3.730  10.823   1.888 -1.2438 -0.6929 -0.2709
  841MOL0     H13529   3.602  10.804   2.152 -2.3087 -3.7633 -1.5432
  841MOL0     H13530   3.576  10.928   2.030 -2.7160 -0.6381 -0.7416
  841MOL0     H13531   3.353  10.619   1.870 -0.5929  2.0784  0.2803
  841MOL0     H13532   4.215  10.793   2.001  0.4517  1.0513 -0.1669
  841MOL0     H13533   4.562  10.841   1.968  1.9431 -0.9752  0.5862
  841MOL0     H13534   4.427  10.773   2.065  3.4976 -0.6256  0.7376
  841MOL0     H13535   4.504  10.686   1.949  0.8604  0.9854  1.4321
  842MOL0     O13536   3.859   7.131   2.249 -0.5317 -0.9063  0.0096
  842MOL0     C13537   3.836   7.094   2.369 -0.4687  0.3654  0.1901
  842MOL0     O13538   3.923   7.019   2.436 -0.1145 -0.4054  0.6327
  842MOL0     C13539   4.051   7.008   2.388  0.7921  0.1324 -0.4186
  842MOL0     C13540   4.105   6.879   2.415  1.0232 -0.7979  0.0298
  842MOL0     C13541   4.227   6.847   2.369 -0.2131  0.8232  0.3582
  842MOL0     C13542   4.303   6.940   2.289 -0.0990 -0.4018 -0.8380
  842MOL0     O13543   4.430   6.899   2.247  0.1036 -0.1473  0.4413
  842MOL0     C13544   4.528   7.000   2.212  0.6688  0.8372  1.2599
  842MOL0     C13545   4.658   6.930   2.191  0.3101 -0.1449  0.8871
  842MOL0     C13546   4.726   6.875   2.321 -0.6249 -0.1664  0.1117
  842MOL0     C13547   4.835   6.775   2.266 -0.8181  0.7687  0.0838
  842MOL0     C13548   4.931   6.727   2.368  2.0952  0.5993 -0.0935
  842MOL0     C13549   4.860   6.639   2.466  0.0597 -0.8336  0.0184
  842MOL0     C13550   4.942   6.533   2.544 -0.5180 -0.2760  0.8859
  842MOL0     C13551   5.015   6.421   2.462  1.2869  0.9006  0.7987
  842MOL0     N13552   4.910   6.336   2.392  0.7085 -0.7231  0.2569
  842MOL0     C13553   4.848   6.373   2.268 -0.0781 -0.4814  0.3316
  842MOL0     C13554   4.745   6.284   2.263 -0.0490 -0.8560 -0.0438
  842MOL0     C13555   4.637   6.295   2.150 -0.5020  0.0477 -0.1416
  842MOL0     C13556   4.540   6.409   2.190  0.2934 -0.3707 -0.8262
  842MOL0     C13557   4.437   6.419   2.081  0.0456  0.6256  0.0180
  842MOL0     C13558   4.323   6.523   2.105  0.5373 -0.4724  0.0860
  842MOL0     O13559   4.213   6.465   2.188 -1.2548  0.4399 -0.2160
  842MOL0     C13560   4.096   6.529   2.190  0.0431  0.3101  0.4610
  842MOL0     C13561   3.991   6.469   2.260 -0.0108 -0.1177 -0.8047
  842MOL0     C13562   3.869   6.538   2.267 -0.6092  0.4876  0.3100
  842MOL0     C13563   3.854   6.663   2.197  0.2516 -0.2613 -0.9231
  842MOL0     C13564   3.739   6.744   2.222 -0.3434  0.7701  0.3761
  842MOL0     O13565   3.701   6.836   2.125 -0.0206  0.5699 -0.4876
  842MOL0     C13566   3.588   6.908   2.126 -0.8801  0.8662  0.5668
  842MOL0     C13567   3.598   7.020   2.049  0.6184  0.1792  0.3660
  842MOL0     C13568   3.495   7.116   2.041  0.8077 -0.0088 -0.8011
  842MOL0     C13569   3.375   7.101   2.122 -0.6491  1.1507 -0.1225
  842MOL0     O13570   3.275   7.183   2.125  0.6618 -0.5220 -0.3176
  842MOL0     C13571   3.198   7.175   2.001 -0.1308 -0.1093  0.2728
  842MOL0     C13572   3.047   7.202   2.027 -0.6025  0.4817  0.9617
  842MOL0     C13573   2.976   7.101   2.119 -1.1792  0.7796 -0.5971
  842MOL0     C13574   2.825   7.136   2.135 -0.4365  0.3188 -0.0118
  842MOL0     C13575   2.758   7.089   2.258 -1.0067  0.1268  0.1718
  842MOL0     C13576   2.612   7.087   2.252  0.4389  0.6930 -0.0277
  842MOL0     C13577   2.544   7.064   2.392 -0.6050  0.1858 -0.5595
  842MOL0     C13578   2.569   6.922   2.439  0.3912  0.1906 -0.8266
  842MOL0    Cl13579   2.710   6.907   2.543 -0.0871  0.4605 -0.0310
  842MOL0     C13580   3.364   6.987   2.202  0.1401  0.2489  0.7895
  842MOL0     C13581   3.471   6.898   2.200  0.3682  0.0079  0.0459
  842MOL0     O13582   3.688   6.732   2.335  0.0614 -0.0017  0.2895
  842MOL0     C13583   3.966   6.727   2.135  0.1491  0.1524 -0.0799
  842MOL0     C13584   4.086   6.657   2.141  0.6444 -0.0063  0.4721
  842MOL0     N13585   4.746   6.196   2.372  0.2041  0.2483  0.3047
  842MOL0     N13586   4.841   6.231   2.444 -0.0245  0.3954 -0.5833
  842MOL0     C13587   4.252   7.070   2.265  0.9544 -0.2197 -0.2629
  842MOL0     C13588   4.119   7.108   2.321 -0.6659 -0.4466  0.9245
  842MOL0     C13589   3.694   7.116   2.419 -0.2662 -0.1828 -0.5897
  842MOL0     C13590   3.631   7.019   2.488  0.1149 -0.6511 -0.1480
  842MOL0     C13591   3.499   7.027   2.537  0.3523  0.9141  1.1302
  842MOL0     C13592   3.431   7.144   2.523 -0.0275  0.4958 -0.6555
  842MOL0     O13593   3.306   7.173   2.565 -0.1335  0.3545 -0.5656
  842MOL0     C13594   3.243   7.083   2.658  0.0505 -0.2446  0.7984
  842MOL0     C13595   3.106   7.147   2.705 -0.5450  0.4936  0.3522
  842MOL0     C13596   3.016   7.190   2.582  0.0636  1.6799 -0.1873
  842MOL0     C13597   2.872   7.225   2.613  0.1046 -0.4465  1.1319
  842MOL0     C13598   2.877   7.343   2.703 -0.3519 -1.1829  1.0808
  842MOL0     C13599   2.866   7.440   2.786 -0.1075 -0.3909  0.2090
  842MOL0     C13600   3.496   7.248   2.453  0.5234 -0.6863  0.3213
  842MOL0     C13601   3.620   7.233   2.392 -1.1163  0.7569 -0.1643
  842MOL0     C13602   3.670   7.353   2.316  0.2329  0.2767  0.0878
  842MOL0     H13603   4.053   6.794   2.458  1.1544 -1.5133 -1.1621
  842MOL0     H13604   4.262   6.747   2.395  1.0394  1.5006  1.4087
  842MOL0     H13605   4.504   7.047   2.116 -1.1914 -0.1504  1.1866
  842MOL0     H13606   4.533   7.074   2.291  1.3795  1.5079  0.6052
  842MOL0     H13607   4.724   7.010   2.155 -0.5950 -0.6982 -2.2937
  842MOL0     H13608   4.649   6.849   2.118  1.3300  0.8168 -0.3560
  842MOL0     H13609   4.656   6.844   2.399 -0.2483  1.9788  1.3989
  842MOL0     H13610   4.778   6.960   2.365 -2.7031  1.9011 -1.1715
  842MOL0     H13611   4.789   6.685   2.223  1.3886 -0.2697 -0.2265
  842MOL0     H13612   4.888   6.839   2.195 -3.9804  5.0458  1.1477
  842MOL0     H13613   5.012   6.677   2.313  1.2825 -1.1976  0.2480
  842MOL0     H13614   4.973   6.811   2.423 -1.1975  1.3823  1.4763
  842MOL0     H13615   4.802   6.705   2.531  0.5623 -0.3564 -0.0114
  842MOL0     H13616   4.782   6.582   2.413 -0.2402 -0.7046  0.3174
  842MOL0     H13617   4.885   6.478   2.619  1.5074 -0.1562  2.6377
  842MOL0     H13618   5.023   6.581   2.600 -1.7937 -0.0378  2.6031
  842MOL0     H13619   5.096   6.452   2.395 -0.8846 -0.6278 -2.8514
  842MOL0     H13620   5.063   6.354   2.534  0.6995 -0.6182 -0.1735
  842MOL0     H13621   4.877   6.450   2.197 -0.4980  1.7928  2.4636
  842MOL0     H13622   4.691   6.316   2.058  0.0149 -5.1859 -1.3528
  842MOL0     H13623   4.581   6.202   2.135 -0.4619 -0.0575  0.3305
  842MOL0     H13624   4.491   6.409   2.288 -2.6126  1.3726 -2.1372
  842MOL0     H13625   4.598   6.502   2.189  0.9321 -0.7629 -0.9747
  842MOL0     H13626   4.396   6.323   2.048  3.0939  0.2342 -3.2623
  842MOL0     H13627   4.497   6.453   1.996 -3.7615  2.9344 -1.9969
  842MOL0     H13628   4.282   6.533   2.004 -1.4153  0.3913  0.9070
  842MOL0     H13629   4.360   6.618   2.143 -1.1374  0.8645 -1.4468
  842MOL0     H13630   4.006   6.373   2.309  1.6247  0.5316  0.0168
  842MOL0     H13631   3.791   6.486   2.321  0.6164 -2.0858 -0.2175
  842MOL0     H13632   3.689   7.039   1.994  1.0031  1.5731  1.4389
  842MOL0     H13633   3.517   7.199   1.976 -0.8656 -0.3124 -1.8124
  842MOL0     H13634   3.240   7.240   1.924 -0.9552 -0.0343 -0.1313
  842MOL0     H13635   3.194   7.078   1.951 -2.5100  1.4372 -2.9287
  842MOL0     H13636   3.042   7.306   2.062 -1.6976  0.6194  0.4423
  842MOL0     H13637   2.998   7.177   1.932  0.5086 -0.1674  0.5509
  842MOL0     H13638   2.980   7.001   2.075  0.6695  0.9062 -0.7775
  842MOL0     H13639   3.037   7.105   2.209  1.5059  0.2513 -2.2936
  842MOL0     H13640   2.776   7.082   2.053 -0.5265 -0.4475  0.5376
  842MOL0     H13641   2.815   7.243   2.114 -0.0524  0.4934  0.6703
  842MOL0     H13642   2.789   7.150   2.343 -1.7616 -1.0307  1.3117
  842MOL0     H13643   2.777   6.982   2.271 -2.1727 -0.6085 -3.0545
  842MOL0     H13644   2.589   7.190   2.221  1.6062  1.2684  0.9148
  842MOL0     H13645   2.571   7.016   2.180 -2.2527  0.3333  1.7195
  842MOL0     H13646   2.437   7.083   2.381 -0.9968 -1.8549 -0.7958
  842MOL0     H13647   2.589   7.134   2.462 -0.8250 -2.2084  2.1803
  842MOL0     H13648   2.490   6.883   2.504  0.0848  2.1130  0.0392
  842MOL0     H13649   2.563   6.853   2.355  1.6048  1.2351 -1.8107
  842MOL0     H13650   3.271   6.969   2.255  0.9942  0.2267  2.3165
  842MOL0     H13651   3.452   6.804   2.249  0.5857 -0.3037 -0.4580
  842MOL0     H13652   3.957   6.832   2.108 -0.2338  0.6738  1.9100
  842MOL0     H13653   4.174   6.709   2.102 -0.1319  0.8605 -0.1766
  842MOL0     H13654   4.301   7.132   2.190  0.6174 -0.8064 -0.9892
  842MOL0     H13655   4.088   7.211   2.306  0.8829 -0.2664 -1.5142
  842MOL0     H13656   3.691   6.937   2.528 -1.8585 -1.4055  1.4376
  842MOL0     H13657   3.474   6.943   2.601  0.3712  2.9151  3.9443
  842MOL0     H13658   3.317   7.071   2.738 -0.0101 -0.3159  0.8448
  842MOL0     H13659   3.232   6.982   2.618  1.9246 -0.2309  0.1265
  842MOL0     H13660   3.125   7.242   2.756 -1.0918  2.3701 -2.7029
  842MOL0     H13661   3.055   7.078   2.773  0.3565 -2.2650 -1.6331
  842MOL0     H13662   3.017   7.106   2.512  0.4234  2.9071 -1.6988
  842MOL0     H13663   3.065   7.274   2.531  3.0072 -0.0378 -0.4340
  842MOL0     H13664   2.814   7.247   2.523 -3.8733 -5.1396  2.0799
  842MOL0     H13665   2.822   7.142   2.664 -2.0691 -0.5914 -1.0962
  842MOL0     H13666   2.856   7.532   2.840 -1.7036 -0.2497 -0.2842
  842MOL0     H13667   3.452   7.345   2.430  1.8606  0.3233  1.7839
  842MOL0     H13668   3.636   7.451   2.351 -3.9209 -0.4817 -1.2811
  842MOL0     H13669   3.779   7.358   2.325  0.4544  0.5711 -2.1676
  842MOL0     H13670   3.625   7.356   2.216 -0.8838 -0.9267  0.5259
  843MOL0     O13671   1.662   3.006   3.221  0.8994  0.0203  0.1680
  843MOL0     C13672   1.607   2.916   3.159  0.1054 -0.0720 -0.1475
  843MOL0     O13673   1.675   2.817   3.087  0.3488 -0.3497  0.8457
  843MOL0     C13674   1.805   2.821   3.087  0.3561 -0.3766  0.4572
  843MOL0     C13675   1.881   2.866   2.977  0.6627  0.6649 -0.4483
  843MOL0     C13676   2.018   2.880   2.988  0.5556 -0.2908  0.5031
  843MOL0     C13677   2.079   2.850   3.110 -0.5753  0.8776  0.4949
  843MOL0     O13678   2.220   2.860   3.127 -0.3413 -0.2790  0.6094
  843MOL0     C13679   2.285   2.863   3.258 -0.1617  0.6756 -0.0779
  843MOL0     C13680   2.430   2.903   3.248  0.1514 -0.0295 -0.0645
  843MOL0     C13681   2.513   2.820   3.152 -0.0546 -0.7069  0.1524
  843MOL0     C13682   2.661   2.834   3.186 -0.8862  0.1668 -0.6810
  843MOL0     C13683   2.752   2.767   3.091  0.4047  0.4627 -0.5766
  843MOL0     C13684   2.903   2.776   3.121  0.8043 -0.6982 -0.2702
  843MOL0     C13685   2.925   2.729   3.265  1.2463 -0.8186 -0.5185
  843MOL0     C13686   2.895   2.576   3.295  0.1919  0.4985 -0.0549
  843MOL0     N13687   2.942   2.486   3.190 -0.2136 -0.7294  0.0271
  843MOL0     C13688   2.878   2.370   3.149  0.2520 -0.4760  0.0992
  843MOL0     C13689   2.968   2.285   3.093  0.3034 -0.8914  0.2836
  843MOL0     C13690   2.931   2.162   3.019  0.7489  0.7884 -0.9807
  843MOL0     C13691   3.042   2.082   2.955  0.1385 -0.0026 -0.2985
  843MOL0     C13692   3.132   2.016   3.064 -0.5499  0.0600  0.2227
  843MOL0     C13693   3.235   1.930   2.988  0.4391  0.2127 -0.4798
  843MOL0     O13694   3.253   1.810   3.063 -0.3594  0.0357  0.0433
  843MOL0     C13695   3.185   1.695   3.041  0.0503 -0.4055  0.0357
  843MOL0     C13696   3.216   1.590   3.126 -0.5758  0.0051  0.2708
  843MOL0     C13697   3.157   1.462   3.111  0.7322  0.6836 -0.1460
  843MOL0     C13698   3.074   1.434   2.997 -0.3213 -0.3533 -0.2656
  843MOL0     C13699   3.014   1.301   2.971 -0.4399 -1.0168 -0.9224
  843MOL0     O13700   3.005   1.220   3.086  0.9824  0.2554 -0.4213
  843MOL0     C13701   2.974   1.084   3.069 -0.3773 -0.8436  0.0677
  843MOL0     C13702   2.839   1.042   3.063 -0.3553 -0.1146 -0.5845
  843MOL0     C13703   2.811   0.908   3.056 -0.0019 -0.6934 -0.9991
  843MOL0     C13704   2.907   0.812   3.058  0.0092  0.6687 -0.6000
  843MOL0     O13705   2.878   0.679   3.048 -0.0156 -0.1147  0.2257
  843MOL0     C13706   2.870   0.615   3.184 -0.8434 -0.7944  0.3204
  843MOL0     C13707   2.839   0.473   3.164  0.4592 -0.0577 -0.8782
  843MOL0     C13708   2.828   0.394   3.293  0.1370  0.0714 -0.0293
  843MOL0     C13709   2.802   0.242   3.266 -0.2301  1.0823  0.6111
  843MOL0     C13710   2.776   0.173   3.409  0.0561 -0.5023 -0.1489
  843MOL0     C13711   2.910   0.165   3.478  0.3840  0.1679 -0.7281
  843MOL0     C13712   2.901   0.088   3.618 -0.0388  0.1067 -0.2468
  843MOL0     C13713   3.049   0.068   3.675  0.4363  0.1103 -0.2289
  843MOL0    Cl13714   3.036   0.030   3.845 -0.3011 -0.0283  0.0778
  843MOL0     C13715   3.039   0.846   3.061  0.9539  0.8029  0.0049
  843MOL0     C13716   3.073   0.980   3.077 -0.4380 -0.8878  0.4218
  843MOL0     O13717   2.954   1.289   2.868  0.3545  0.5175  0.7791
  843MOL0     C13718   3.056   1.537   2.907 -0.7501  0.1443  1.0812
  843MOL0     C13719   3.105   1.673   2.925  0.0497  0.3599 -0.4152
  843MOL0     N13720   3.095   2.341   3.116 -0.0409 -0.4825  0.8032
  843MOL0     N13721   3.081   2.462   3.169 -0.4087 -0.0679 -0.4387
  843MOL0     C13722   2.007   2.799   3.211  0.0315 -0.7233  0.6620
  843MOL0     C13723   1.866   2.784   3.203  0.1675  0.3762 -0.2912
  843MOL0     C13724   1.455   2.901   3.157 -0.8757 -0.0851 -0.6552
  843MOL0     C13725   1.399   2.766   3.178  0.6451 -0.0790  0.0666
  843MOL0     C13726   1.263   2.750   3.182 -1.0757 -0.1778 -0.0525
  843MOL0     C13727   1.176   2.859   3.179 -0.0137 -0.1716 -0.0618
  843MOL0     O13728   1.043   2.852   3.211  0.2618  0.0821  0.3709
  843MOL0     C13729   1.014   2.923   3.333 -0.6851 -0.1179  0.2773
  843MOL0     C13730   0.895   2.851   3.402 -0.3648  0.1263  0.0009
  843MOL0     C13731   0.760   2.840   3.319 -1.1344  0.3192  0.1176
  843MOL0     C13732   0.646   2.801   3.403 -0.0707  0.4207  0.1707
  843MOL0     C13733   0.538   2.730   3.325  0.6847 -0.4286  0.2233
  843MOL0     C13734   0.438   2.690   3.260 -0.2473 -0.9004  0.9039
  843MOL0     C13735   1.232   2.987   3.167 -0.9142  0.3507  0.0685
  843MOL0     C13736   1.366   3.008   3.142  0.0416 -0.4126  0.1805
  843MOL0     C13737   1.413   3.150   3.104  0.2188 -0.2489  0.0742
  843MOL0     H13738   1.821   2.882   2.888 -0.8414  2.2198  0.7657
  843MOL0     H13739   2.082   2.905   2.903 -0.0453 -0.1517  0.0848
  843MOL0     H13740   2.239   2.936   3.324 -0.1822  0.9319 -0.3697
  843MOL0     H13741   2.279   2.766   3.308 -0.2995  1.3272  1.2101
  843MOL0     H13742   2.470   2.899   3.349 -0.6042  1.2075  0.3147
  843MOL0     H13743   2.444   3.010   3.226  1.7318  0.1569  1.6290
  843MOL0     H13744   2.496   2.846   3.047 -0.1045  1.7753  0.7229
  843MOL0     H13745   2.490   2.716   3.178 -1.5437 -0.5127 -0.2900
  843MOL0     H13746   2.689   2.939   3.178  1.0983 -0.4587 -3.9147
  843MOL0     H13747   2.667   2.812   3.293  0.5565  2.7732 -0.1402
  843MOL0     H13748   2.725   2.661   3.086  1.1422  0.3128 -1.6375
  843MOL0     H13749   2.740   2.808   2.991 -1.3097  0.2986 -0.4690
  843MOL0     H13750   2.963   2.714   3.054  1.5596 -1.5796  1.1820
  843MOL0     H13751   2.943   2.876   3.103 -0.6530  0.1330  0.8963
  843MOL0     H13752   2.879   2.783   3.348  2.5347 -1.0001  0.3436
  843MOL0     H13753   3.033   2.745   3.272  1.1843 -0.8354  0.5729
  843MOL0     H13754   2.929   2.551   3.395  0.3196 -0.1899 -0.2634
  843MOL0     H13755   2.789   2.565   3.316  0.8121 -0.2667  3.2590
  843MOL0     H13756   2.772   2.345   3.152  0.0442 -0.0366 -1.9260
  843MOL0     H13757   2.867   2.094   3.076  0.9695  0.7806 -0.7411
  843MOL0     H13758   2.864   2.192   2.938 -0.9863 -0.3642 -0.0523
  843MOL0     H13759   2.992   2.007   2.894 -0.2296 -0.4646  0.5485
  843MOL0     H13760   3.101   2.154   2.898  2.7598 -0.4015  1.6817
  843MOL0     H13761   3.067   1.959   3.131  0.1447 -0.5713  0.3809
  843MOL0     H13762   3.183   2.095   3.120 -0.5797  2.4399 -2.8622
  843MOL0     H13763   3.335   1.973   2.989  0.1533  0.9315  1.4808
  843MOL0     H13764   3.206   1.909   2.885  4.7234  0.7999 -2.0049
  843MOL0     H13765   3.286   1.615   3.204 -1.4009 -0.9227  1.3384
  843MOL0     H13766   3.177   1.390   3.189  1.0773  2.6036  1.6188
  843MOL0     H13767   2.762   1.116   3.085  1.4837  1.1956  2.0056
  843MOL0     H13768   2.709   0.873   3.067  0.6273 -2.0221  1.3606
  843MOL0     H13769   2.968   0.640   3.227 -1.3861  1.9245  0.0847
  843MOL0     H13770   2.793   0.659   3.247  1.4292  1.4142  1.7288
  843MOL0     H13771   2.755   0.451   3.097  0.1150  2.1666 -1.2411
  843MOL0     H13772   2.924   0.429   3.109  2.2682  0.8433  1.0767
  843MOL0     H13773   2.914   0.422   3.353 -0.1432  1.0014 -0.0413
  843MOL0     H13774   2.739   0.428   3.346  0.6915 -3.6508  3.8522
  843MOL0     H13775   2.883   0.199   3.205 -0.4924  1.6883 -0.1879
  843MOL0     H13776   2.713   0.230   3.205 -2.0764 -0.6355  3.4183
  843MOL0     H13777   2.741   0.069   3.399  0.1640 -0.8559  2.5443
  843MOL0     H13778   2.700   0.228   3.464 -1.3795  1.9672 -4.1838
  843MOL0     H13779   2.982   0.117   3.412 -0.0243  0.1277 -1.1473
  843MOL0     H13780   2.947   0.266   3.498  2.9125 -1.0727  1.4868
  843MOL0     H13781   2.866  -0.014   3.601  3.4447 -1.1977 -0.3887
  843MOL0     H13782   2.831   0.141   3.683 -0.7846 -1.7573  0.5644
  843MOL0     H13783   3.091  -0.016   3.621 -0.8305  0.4517 -1.8220
  843MOL0     H13784   3.109   0.157   3.651 -2.3484  2.3938  0.6575
  843MOL0     H13785   3.110   0.764   3.056  0.0664  0.0949 -1.8664
  843MOL0     H13786   3.177   1.010   3.084 -0.0465 -1.3391 -2.2026
  843MOL0     H13787   2.992   1.543   2.820  1.4624  0.3158 -0.6137
  843MOL0     H13788   3.078   1.740   2.844 -0.3713 -0.3665 -0.8984
  843MOL0     H13789   2.051   2.774   3.308  0.7126  2.6411  1.3166
  843MOL0     H13790   1.813   2.739   3.287  1.0189 -0.9221 -0.4312
  843MOL0     H13791   1.467   2.682   3.183  0.9482  0.2325  1.7201
  843MOL0     H13792   1.217   2.653   3.201 -2.0525 -0.1912 -2.1715
  843MOL0     H13793   0.960   3.014   3.304 -4.8714 -1.7379  2.1106
  843MOL0     H13794   1.102   2.938   3.396 -1.0772 -1.4471  1.1804
  843MOL0     H13795   0.881   2.909   3.493  3.3351 -0.2698  0.9468
  843MOL0     H13796   0.927   2.750   3.428  0.3594  0.2012 -0.5867
  843MOL0     H13797   0.772   2.773   3.233  1.1813  2.6407 -1.5231
  843MOL0     H13798   0.738   2.937   3.273 -2.1951  0.3000  0.5533
  843MOL0     H13799   0.670   2.729   3.482  1.8016  0.3224 -0.4437
  843MOL0     H13800   0.594   2.891   3.436 -2.0355 -0.4955 -0.2634
  843MOL0     H13801   0.371   2.635   3.197 -2.8059  1.9896  0.8678
  843MOL0     H13802   1.169   3.075   3.178 -0.6625  0.6895 -1.1240
  843MOL0     H13803   1.489   3.125   3.029 -0.1264 -2.6183  0.4301
  843MOL0     H13804   1.327   3.206   3.066  0.1870  0.4515  1.1418
  843MOL0     H13805   1.466   3.200   3.186  0.6874 -2.7296  1.3791
  844MOL0     O13806   2.956   0.808   5.558 -0.3834 -0.3579 -0.5162
  844MOL0     C13807   2.950   0.904   5.624  0.1438 -0.2017 -0.0658
  844MOL0     O13808   2.847   0.995   5.622 -0.4708 -0.3279 -0.2764
  844MOL0     C13809   2.728   0.969   5.561  0.7788 -0.8517  0.1583
  844MOL0     C13810   2.646   1.082   5.543  0.1347 -0.1653  0.2305
  844MOL0     C13811   2.523   1.074   5.477 -0.2774  0.3496 -0.0792
  844MOL0     C13812   2.475   0.953   5.429  0.1578  0.1557  0.2329
  844MOL0     O13813   2.350   0.938   5.375 -1.0207  0.4581 -0.2618
  844MOL0     C13814   2.263   1.056   5.370  0.0398  1.0995 -0.3624
  844MOL0     C13815   2.136   1.025   5.301 -0.5926  0.1101  0.3379
  844MOL0     C13816   2.036   1.142   5.294  0.4452  0.4000  1.2196
  844MOL0     C13817   1.987   1.182   5.437 -0.1994  0.3075  0.8373
  844MOL0     C13818   1.882   1.302   5.428 -0.2970  0.0914 -0.4657
  844MOL0     C13819   1.817   1.311   5.572  0.0119 -0.1491  1.2327
  844MOL0     C13820   1.747   1.444   5.578  0.6785 -0.2679  0.9666
  844MOL0     C13821   1.627   1.437   5.480  0.2266  0.7118  0.7662
  844MOL0     N13822   1.522   1.531   5.508  0.0647 -1.3611  0.3172
  844MOL0     C13823   1.394   1.523   5.454  1.1102  0.6431  1.0081
  844MOL0     C13824   1.317   1.622   5.508  0.1722  1.2430  0.0756
  844MOL0     C13825   1.170   1.625   5.490  0.9311  1.0296 -0.2050
  844MOL0     C13826   1.099   1.550   5.600 -0.4655 -0.0145  0.1917
  844MOL0     C13827   1.144   1.577   5.744 -0.5441  0.1269 -0.2152
  844MOL0     C13828   1.261   1.497   5.798 -0.3765 -0.2391 -0.4907
  844MOL0     O13829   1.249   1.360   5.760 -0.2086  0.2326  0.0852
  844MOL0     C13830   1.362   1.278   5.777  0.9519  0.1089 -0.0872
  844MOL0     C13831   1.328   1.144   5.775  0.6594  0.4459  0.2973
  844MOL0     C13832   1.428   1.050   5.781  0.6104 -0.0383  0.1367
  844MOL0     C13833   1.563   1.081   5.806 -0.1240 -0.4501 -0.5302
  844MOL0     C13834   1.656   0.966   5.820  0.2102 -0.8957 -1.1987
  844MOL0     O13835   1.786   1.000   5.815 -0.2129  0.2610 -0.1774
  844MOL0     C13836   1.891   0.904   5.811 -0.5327  0.1769 -0.1006
  844MOL0     C13837   1.888   0.777   5.874  0.0086 -0.2939 -0.4459
  844MOL0     C13838   1.988   0.686   5.861  0.4234  0.0932 -0.4480
  844MOL0     C13839   2.097   0.715   5.785  0.7206  0.7238 -0.0499
  844MOL0     O13840   2.181   0.609   5.771 -0.4630  0.2838  0.4960
  844MOL0     C13841   2.319   0.642   5.758 -0.6158  1.1515  0.3488
  844MOL0     C13842   2.410   0.507   5.750  0.2908 -0.5001  0.0818
  844MOL0     C13843   2.412   0.435   5.615  0.8924  0.2244  0.0174
  844MOL0     C13844   2.484   0.296   5.621  0.8598 -0.7734 -0.0029
  844MOL0     C13845   2.498   0.235   5.475  1.0764  0.6718  0.1293
  844MOL0     C13846   2.529   0.087   5.471 -0.6295 -0.9921 -0.5209
  844MOL0     C13847   2.572   0.048   5.328 -0.2445 -0.3311  1.3489
  844MOL0     C13848   2.597  -0.103   5.322  0.1141 -0.3039  0.5520
  844MOL0    Cl13849   2.456  -0.205   5.351  0.2905 -0.1824 -0.3359
  844MOL0     C13850   2.108   0.843   5.735  0.1316  0.4555  0.8648
  844MOL0     C13851   2.004   0.932   5.741 -0.0669 -0.0795 -1.4410
  844MOL0     O13852   1.612   0.853   5.809 -0.1819 -0.0073  0.0982
  844MOL0     C13853   1.595   1.218   5.822  0.4676  0.2003  0.6521
  844MOL0     C13854   1.497   1.318   5.805 -0.1116  0.4780 -0.1183
  844MOL0     N13855   1.411   1.703   5.580 -0.1677 -0.1848  0.5174
  844MOL0     N13856   1.528   1.646   5.572  0.3776  0.5193 -0.8329
  844MOL0     C13857   2.551   0.843   5.454 -0.1048  0.3318 -0.3294
  844MOL0     C13858   2.669   0.846   5.528 -0.4363  0.1695  0.8645
  844MOL0     C13859   3.048   0.934   5.739 -0.3320 -0.1524 -0.0366
  844MOL0     C13860   3.037   1.064   5.798  0.3534  0.1567 -0.2516
  844MOL0     C13861   3.113   1.110   5.901  0.4619  0.7574  0.2138
  844MOL0     C13862   3.221   1.032   5.943  0.7785  0.2156 -0.0471
  844MOL0     O13863   3.287   1.097   6.040  0.5842 -0.2426 -0.8024
  844MOL0     C13864   3.395   1.017   6.096 -0.1647  0.4507 -0.8416
  844MOL0     C13865   3.485   1.115   6.165 -0.2506 -0.7936  0.6533
  844MOL0     C13866   3.585   1.039   6.254 -0.2555  0.7765  0.0597
  844MOL0     C13867   3.662   0.919   6.198 -0.1662 -0.0620  0.4372
  844MOL0     C13868   3.745   0.955   6.084 -0.2113 -0.0958 -0.0742
  844MOL0     C13869   3.820   1.010   5.999 -0.3131 -0.2962  0.3994
  844MOL0     C13870   3.239   0.907   5.883 -0.4804 -0.0390 -0.4352
  844MOL0     C13871   3.164   0.859   5.777  1.4379  0.4891  0.7194
  844MOL0     C13872   3.191   0.720   5.730 -0.2002  0.0516  0.2104
  844MOL0     H13873   2.694   1.172   5.580  2.7642 -1.1319 -0.6065
  844MOL0     H13874   2.469   1.165   5.451  0.2279 -0.1473 -3.3282
  844MOL0     H13875   2.237   1.095   5.469  0.9209  1.6959 -0.3506
  844MOL0     H13876   2.318   1.133   5.316  2.4093 -1.7121 -2.2946
  844MOL0     H13877   2.094   0.944   5.362  0.8754 -2.5587 -1.9495
  844MOL0     H13878   2.155   1.002   5.196  2.0552  2.7618  0.0973
  844MOL0     H13879   1.949   1.122   5.231  1.9872 -0.6838 -0.6819
  844MOL0     H13880   2.087   1.221   5.238 -0.7902  1.3244  1.3562
  844MOL0     H13881   1.945   1.099   5.494  1.8072  0.5904  2.8673
  844MOL0     H13882   2.072   1.235   5.482 -0.4108  2.1307 -0.7454
  844MOL0     H13883   1.925   1.397   5.397 -0.8476  0.4513 -0.1376
  844MOL0     H13884   1.807   1.289   5.349 -0.5786 -0.5319 -0.1042
  844MOL0     H13885   1.742   1.232   5.581  0.1493 -0.4970 -0.3297
  844MOL0     H13886   1.900   1.302   5.644  0.3616  0.2458  0.8836
  844MOL0     H13887   1.819   1.523   5.555  0.0052  0.4470  1.2774
  844MOL0     H13888   1.713   1.461   5.681 -2.8000 -2.2661  0.3076
  844MOL0     H13889   1.667   1.466   5.382  0.9014  2.5957  1.5440
  844MOL0     H13890   1.590   1.335   5.472  3.6131 -0.7187  1.5791
  844MOL0     H13891   1.350   1.451   5.386  0.9774  1.3457  0.3469
  844MOL0     H13892   1.128   1.725   5.502  0.7654  0.7909  1.4120
  844MOL0     H13893   1.133   1.579   5.398 -0.3672  0.8742  0.3755
  844MOL0     H13894   0.994   1.578   5.592  0.2226  2.8955  0.2880
  844MOL0     H13895   1.123   1.444   5.593  0.7244 -0.0440  3.1175
  844MOL0     H13896   1.059   1.561   5.811 -1.0326  1.1119 -0.5791
  844MOL0     H13897   1.164   1.684   5.761  1.1621 -0.2023  0.0634
  844MOL0     H13898   1.256   1.498   5.908 -0.9147  0.1647 -0.5147
  844MOL0     H13899   1.354   1.545   5.766 -0.6566  0.5890 -0.0949
  844MOL0     H13900   1.227   1.109   5.756  0.7348 -0.2324  1.0637
  844MOL0     H13901   1.397   0.946   5.783 -0.9659  0.4027  0.7782
  844MOL0     H13902   1.815   0.750   5.950  1.5782 -0.0164  1.2137
  844MOL0     H13903   1.981   0.600   5.927 -2.5608  1.0131  0.5586
  844MOL0     H13904   2.327   0.702   5.667 -3.2062  1.3491  0.1777
  844MOL0     H13905   2.345   0.708   5.840 -0.9473 -0.1458  1.5433
  844MOL0     H13906   2.514   0.533   5.769  0.6918 -0.1260 -2.2929
  844MOL0     H13907   2.375   0.436   5.826 -1.6766  0.0592 -0.2412
  844MOL0     H13908   2.309   0.427   5.580  0.5735  0.1313  0.9573
  844MOL0     H13909   2.459   0.499   5.540 -0.9659 -0.3633 -1.7421
  844MOL0     H13910   2.419   0.236   5.685  1.0860  0.9789  1.9832
  844MOL0     H13911   2.576   0.307   5.678 -1.3381  2.4701  3.3987
  844MOL0     H13912   2.571   0.293   5.418  1.3069  0.0633 -0.1967
  844MOL0     H13913   2.404   0.236   5.418  0.1504 -1.0548  1.5179
  844MOL0     H13914   2.619   0.072   5.532 -0.0396 -1.0216 -1.3735
  844MOL0     H13915   2.454   0.016   5.504 -0.6702 -1.4133 -1.4834
  844MOL0     H13916   2.661   0.101   5.293  0.8197 -2.0011  1.4136
  844MOL0     H13917   2.487   0.077   5.266 -1.1424  1.2429  3.2014
  844MOL0     H13918   2.619  -0.121   5.217 -0.0117 -2.5354  0.8636
  844MOL0     H13919   2.684  -0.122   5.385 -0.0543  1.2369  1.3015
  844MOL0     H13920   2.201   0.877   5.689 -0.7075  2.0233  0.2679
  844MOL0     H13921   2.023   1.029   5.696  3.2984  0.2445  0.3423
  844MOL0     H13922   1.694   1.250   5.854  0.3595  0.5483  0.6515
  844MOL0     H13923   1.528   1.422   5.798 -2.2287  1.0574 -1.8244
  844MOL0     H13924   2.506   0.762   5.397  1.3593 -2.2237  1.9063
  844MOL0     H13925   2.736   0.764   5.550 -0.0347 -0.0695 -1.0748
  844MOL0     H13926   2.952   1.126   5.770 -0.8433 -2.3763 -2.6483
  844MOL0     H13927   3.096   1.213   5.930  0.3681  0.7077  0.3365
  844MOL0     H13928   3.458   0.963   6.025  1.7500 -0.0189  1.1312
  844MOL0     H13929   3.352   0.947   6.168  2.4960  0.0519  0.4786
  844MOL0     H13930   3.434   1.193   6.222  2.1808 -0.1051  2.0144
  844MOL0     H13931   3.539   1.171   6.088 -0.3008 -2.7195 -0.8652
  844MOL0     H13932   3.538   1.007   6.348 -0.7992 -0.2956 -0.5598
  844MOL0     H13933   3.660   1.108   6.293 -0.1184  0.9542 -0.5108
  844MOL0     H13934   3.718   0.865   6.275  0.4357 -2.1435 -1.3499
  844MOL0     H13935   3.598   0.839   6.159  0.0215  0.2916 -0.6219
  844MOL0     H13936   3.879   1.051   5.919 -1.4493  3.0546  1.0977
  844MOL0     H13937   3.324   0.845   5.910  3.7788  4.9364 -0.8711
  844MOL0     H13938   3.107   0.656   5.755 -1.6072  1.4139 -0.8267
  844MOL0     H13939   3.197   0.725   5.621 -0.1362 -0.8329  0.1705
  844MOL0     H13940   3.285   0.683   5.773 -0.3130 -0.5027 -0.0141
  845MOL0     O13941   4.183   3.080   0.389  0.3388  0.5406 -0.7193
  845MOL0     C13942   4.082   3.089   0.305 -0.0580  0.0871  0.1613
  845MOL0     O13943   4.083   3.141   0.180 -0.1614 -0.0673 -0.0285
  845MOL0     C13944   4.209   3.182   0.137 -0.1152  0.2473  1.1768
  845MOL0     C13945   4.316   3.097   0.140  1.0606 -0.8091 -0.6268
  845MOL0     C13946   4.434   3.147   0.085 -0.0285  0.0673 -0.5226
  845MOL0     C13947   4.442   3.276   0.020 -0.0833  1.2187 -0.3994
  845MOL0     O13948   4.554   3.315  -0.042 -0.7519 -0.9468 -0.4682
  845MOL0     C13949   4.595   3.455  -0.025 -0.4124  0.2468  0.2234
  845MOL0     C13950   4.737   3.467  -0.088 -0.7272 -0.2525 -0.4989
  845MOL0     C13951   4.835   3.342  -0.079 -0.2303  0.1969  0.5221
  845MOL0     C13952   4.886   3.310   0.060 -0.7031  0.6417 -0.2882
  845MOL0     C13953   4.952   3.421   0.135  0.3364 -0.0505  0.1928
  845MOL0     C13954   4.994   3.379   0.278  0.0206 -0.3887 -0.1496
  845MOL0     C13955   4.887   3.416   0.381 -1.2434 -0.2676  0.2923
  845MOL0     C13956   4.890   3.565   0.431 -0.1978  0.4926 -0.3804
  845MOL0     N13957   5.007   3.605   0.515 -0.2161  0.1622  0.6535
  845MOL0     C13958   5.014   3.602   0.653 -0.3919  0.1514 -1.3518
  845MOL0     C13959   5.143   3.621   0.679 -1.0325  0.0796  0.6028
  845MOL0     C13960   5.192   3.614   0.825 -0.3465 -0.6524  0.6824
  845MOL0     C13961   5.220   3.476   0.874 -0.1009  0.3083  0.6036
  845MOL0     C13962   5.172   3.456   1.016  0.3178 -0.2108 -0.0615
  845MOL0     C13963   5.192   3.316   1.060 -1.0451 -0.3710 -0.7651
  845MOL0     O13964   5.335   3.280   1.063 -0.2663 -0.4849 -0.2429
  845MOL0     C13965   5.413   3.289   1.178  0.1819  0.1143  0.3773
  845MOL0     C13966   5.539   3.240   1.166  0.2513  0.2338  0.3560
  845MOL0     C13967   5.641   3.259   1.258 -0.5683  0.5469  0.1479
  845MOL0     C13968   5.607   3.323   1.385 -0.6631 -0.3507 -0.1917
  845MOL0     C13969   5.706   3.335   1.488 -0.3844 -0.3254 -0.7271
  845MOL0     O13970   5.828   3.274   1.468 -0.2215  0.3253 -0.3611
  845MOL0     C13971   5.897   3.231   1.573  0.2738 -0.1007 -0.1038
  845MOL0     C13972   6.028   3.295   1.587  0.5513 -0.1567 -0.7567
  845MOL0     C13973   6.099   3.279   1.705  0.7125  1.0327  0.5689
  845MOL0     C13974   6.051   3.191   1.803  1.1818 -0.0347  0.2142
  845MOL0     O13975   6.139   3.178   1.909  0.4130  0.2723  0.0269
  845MOL0     C13976   6.076   3.177   2.041  0.1257  0.4449 -0.1061
  845MOL0     C13977   6.168   3.264   2.128  0.7293  0.8336  0.6717
  845MOL0     C13978   6.279   3.204   2.210  0.4502 -0.2527 -0.2533
  845MOL0     C13979   6.313   3.060   2.167 -0.6315  0.3556 -0.0434
  845MOL0     C13980   6.453   3.007   2.225  0.2450 -0.1166  0.1357
  845MOL0     C13981   6.580   3.064   2.140 -0.1418  0.4801 -0.4345
  845MOL0     C13982   6.721   3.008   2.188  0.9871 -0.0569 -0.4147
  845MOL0     C13983   6.791   2.966   2.062  0.4933  1.1106 -0.9188
  845MOL0    Cl13984   6.703   2.818   1.994  0.2776 -0.0220 -0.0608
  845MOL0     C13985   5.933   3.122   1.787  0.1030 -0.2374  0.5712
  845MOL0     C13986   5.851   3.150   1.680 -0.8396 -0.5128  0.3112
  845MOL0     O13987   5.662   3.380   1.598 -0.1628 -0.0662 -0.2435
  845MOL0     C13988   5.470   3.353   1.401 -0.2136 -0.8867 -0.2475
  845MOL0     C13989   5.380   3.337   1.302 -0.3758  0.5204  0.6126
  845MOL0     N13990   5.216   3.635   0.564 -0.1955  0.1358  0.6619
  845MOL0     N13991   5.134   3.632   0.467  0.2565 -0.2991  0.3401
  845MOL0     C13992   4.327   3.358   0.014  0.4134  1.0240 -0.3411
  845MOL0     C13993   4.212   3.309   0.076  0.2714  0.3373  0.0029
  845MOL0     C13994   3.947   3.043   0.348  0.6138 -1.0059  0.3232
  845MOL0     C13995   3.837   3.082   0.269 -0.0269  0.6399 -0.1159
  845MOL0     C13996   3.711   3.035   0.310 -0.8770  0.0257  0.8639
  845MOL0     C13997   3.686   2.974   0.426 -0.1471 -0.1123 -0.2095
  845MOL0     O13998   3.567   2.918   0.457 -0.1188  0.3380 -0.4452
  845MOL0     C13999   3.476   3.010   0.525 -0.8414  0.1339  0.3706
  845MOL0     C14000   3.399   3.095   0.423  0.0495  0.0494 -0.1516
  845MOL0     C14001   3.286   3.166   0.488  0.1369 -0.3710 -0.0707
  845MOL0     C14002   3.233   3.276   0.400  0.9700  0.8140  0.0227
  845MOL0     C14003   3.127   3.209   0.318 -0.3078 -0.0658 -0.4786
  845MOL0     C14004   3.036   3.166   0.252  0.1222 -0.3280 -0.2626
  845MOL0     C14005   3.787   2.959   0.517 -0.2623  0.4083 -0.3138
  845MOL0     C14006   3.924   2.980   0.474 -0.0410  0.2710 -0.4966
  845MOL0     C14007   4.035   2.958   0.580 -0.6109  0.1341 -0.4293
  845MOL0     H14008   4.308   2.997   0.182  4.4034  0.0065  2.4413
  845MOL0     H14009   4.524   3.088   0.071  0.0060  0.5308 -2.5140
  845MOL0     H14010   4.524   3.519  -0.078  2.7276  3.1932 -0.8151
  845MOL0     H14011   4.596   3.492   0.078  0.3217 -1.9101  1.0605
  845MOL0     H14012   4.788   3.554  -0.047  1.2722 -1.6186  0.0692
  845MOL0     H14013   4.716   3.490  -0.193 -3.4295 -0.0257  0.0162
  845MOL0     H14014   4.922   3.351  -0.145 -0.3606 -3.9916 -0.5592
  845MOL0     H14015   4.794   3.250  -0.124  1.7635 -1.2502  1.4872
  845MOL0     H14016   4.808   3.272   0.128 -1.3915  1.3467 -0.6677
  845MOL0     H14017   4.947   3.221   0.042 -0.1025  0.5902  1.6851
  845MOL0     H14018   5.039   3.443   0.072 -1.3922  1.8747 -1.6734
  845MOL0     H14019   4.885   3.508   0.139  1.3595  0.9378 -2.0683
  845MOL0     H14020   5.025   3.274   0.284  1.2473  0.0265  2.0717
  845MOL0     H14021   5.085   3.430   0.312  0.0690 -0.3439 -0.3461
  845MOL0     H14022   4.897   3.359   0.474 -0.4489  2.3268  1.9076
  845MOL0     H14023   4.790   3.392   0.337 -1.4244  2.1502 -0.8225
  845MOL0     H14024   4.899   3.623   0.339  0.2930 -0.0978 -0.7070
  845MOL0     H14025   4.789   3.579   0.472 -1.7274 -0.5950 -3.4248
  845MOL0     H14026   4.940   3.589   0.731 -1.2651  4.8919 -1.1049
  845MOL0     H14027   5.280   3.677   0.846 -2.5448  2.4566  1.2649
  845MOL0     H14028   5.115   3.650   0.893 -0.6763 -2.6328  1.4221
  845MOL0     H14029   5.160   3.410   0.810  0.3690 -0.8901  1.3688
  845MOL0     H14030   5.325   3.454   0.855  0.5658  3.4655  0.0286
  845MOL0     H14031   5.063   3.469   1.015  0.4173  1.3188  1.9787
  845MOL0     H14032   5.220   3.519   1.091  1.4727  1.8086 -2.3432
  845MOL0     H14033   5.138   3.255   0.987 -0.2191 -1.9017 -0.1524
  845MOL0     H14034   5.156   3.312   1.163 -0.9969  3.5194 -0.4486
  845MOL0     H14035   5.573   3.220   1.065 -2.4074 -2.3286 -0.1656
  845MOL0     H14036   5.741   3.218   1.248 -0.5133  0.5209  0.7538
  845MOL0     H14037   6.067   3.361   1.511 -0.6137 -0.8755 -2.0190
  845MOL0     H14038   6.192   3.332   1.723  0.7056  1.0526  0.5442
  845MOL0     H14039   5.974   3.216   2.034 -0.1511  0.3108  2.4649
  845MOL0     H14040   6.067   3.088   2.105 -0.0979  0.6699  0.1775
  845MOL0     H14041   6.209   3.340   2.060  2.4939 -1.7950 -1.4219
  845MOL0     H14042   6.103   3.293   2.212 -1.1078  1.1800 -0.7938
  845MOL0     H14043   6.366   3.264   2.181  0.2457 -0.7213 -1.9552
  845MOL0     H14044   6.257   3.208   2.317 -1.9925  0.3381 -0.7235
  845MOL0     H14045   6.312   3.056   2.058 -3.0969 -0.3895 -0.0497
  845MOL0     H14046   6.234   2.999   2.212  0.6284 -0.1253  1.6388
  845MOL0     H14047   6.453   2.900   2.201 -3.8524  0.6208 -5.3046
  845MOL0     H14048   6.442   3.035   2.330 -3.0794 -0.3925 -0.0091
  845MOL0     H14049   6.558   3.044   2.035  0.9715 -0.1397 -0.5756
  845MOL0     H14050   6.572   3.172   2.157  0.8504  0.1977  2.3980
  845MOL0     H14051   6.703   2.928   2.260 -0.5914  0.6141 -0.0059
  845MOL0     H14052   6.771   3.085   2.248 -0.6052  1.1056 -0.4854
  845MOL0     H14053   6.800   3.039   1.980 -1.4577 -1.5743 -3.7623
  845MOL0     H14054   6.893   2.933   2.083 -0.2669 -0.0810  1.1052
  845MOL0     H14055   5.916   3.039   1.855  1.6469 -0.5097  0.6485
  845MOL0     H14056   5.758   3.101   1.654  0.0144 -1.4940 -1.0394
  845MOL0     H14057   5.434   3.401   1.491  0.0485  0.9922 -1.0815
  845MOL0     H14058   5.281   3.375   1.326  1.5134  4.5739  3.1598
  845MOL0     H14059   4.326   3.455  -0.034 -0.8457  0.6797 -1.0710
  845MOL0     H14060   4.123   3.372   0.081 -2.0710 -2.8495  2.8842
  845MOL0     H14061   3.853   3.139   0.178  0.8580  2.8785  1.3657
  845MOL0     H14062   3.636   3.037   0.231  1.7042 -1.9494 -1.9072
  845MOL0     H14063   3.532   3.087   0.579 -1.4394  0.2571  0.8287
  845MOL0     H14064   3.403   2.962   0.591  0.9002  1.1436  3.2246
  845MOL0     H14065   3.349   3.031   0.350 -0.4926 -0.7765  0.9184
  845MOL0     H14066   3.468   3.163   0.373 -0.5523  1.8687  1.3364
  845MOL0     H14067   3.311   3.216   0.582  0.9129 -0.7162 -0.0827
  845MOL0     H14068   3.217   3.086   0.516  1.2409 -1.7595 -1.1335
  845MOL0     H14069   3.183   3.358   0.453 -0.8130  1.0547 -1.9315
  845MOL0     H14070   3.322   3.315   0.350  1.3609 -0.9462 -0.6984
  845MOL0     H14071   2.950   3.128   0.199 -1.0646  0.5023  1.0184
  845MOL0     H14072   3.759   2.905   0.607  1.5452 -0.8032 -0.4245
  845MOL0     H14073   4.064   3.055   0.621 -1.0949  0.5270 -0.9907
  845MOL0     H14074   3.990   2.897   0.659 -1.0430 -0.8839 -1.4310
  845MOL0     H14075   4.126   2.914   0.538 -0.6801 -0.4568  0.0113
  846MOL0     O14076   6.320   5.604   9.481 -0.1431 -0.3076 -0.6766
  846MOL0     C14077   6.282   5.578   9.593 -0.1440  1.0857  0.0042
  846MOL0     O14078   6.347   5.597   9.712 -0.1439  0.4310  0.1370
  846MOL0     C14079   6.468   5.661   9.714  1.2093 -0.7076  0.1208
  846MOL0     C14080   6.577   5.587   9.671  0.3966  0.3723  0.3650
  846MOL0     C14081   6.694   5.654   9.650 -0.4452  0.0012 -0.2174
  846MOL0     C14082   6.711   5.787   9.695 -1.0366  0.2956  0.7038
  846MOL0     O14083   6.818   5.865   9.678 -0.3725 -0.5719  0.2705
  846MOL0     C14084   6.933   5.806   9.751 -0.3686 -0.9751 -0.5430
  846MOL0     C14085   7.037   5.918   9.762  0.0483  0.0966 -0.0764
  846MOL0     C14086   7.184   5.873   9.804 -0.1489  0.7584 -0.4021
  846MOL0     C14087   7.292   5.974   9.762 -0.0074 -0.6280  0.4432
  846MOL0     C14088   7.438   5.911   9.782 -0.2501  0.6178 -0.4131
  846MOL0     C14089   7.553   6.006   9.766  0.0525 -0.3802 -0.6551
  846MOL0     C14090   7.698   5.967   9.805 -0.5444 -0.3356 -0.4169
  846MOL0     C14091   7.766   5.859   9.716 -0.4430 -0.1890 -0.6835
  846MOL0     N14092   7.916   5.863   9.730 -0.4505 -0.1974  0.5031
  846MOL0     C14093   7.982   5.794   9.832 -0.1705  0.0310 -0.2313
  846MOL0     C14094   8.100   5.855   9.836 -0.0762 -0.8721  0.2008
  846MOL0     C14095   8.219   5.822   9.925 -0.2189 -0.5545  0.6904
  846MOL0     C14096   8.323   5.934   9.931  0.5961  0.1177  0.6268
  846MOL0     C14097   8.428   5.917  10.042  0.1489  1.1135  0.9798
  846MOL0     C14098   8.513   5.785  10.019  0.0510  0.3894 -0.1715
  846MOL0     O14099   8.632   5.799  10.088 -0.0542 -0.3267 -0.6042
  846MOL0     C14100   8.743   5.716  10.083 -1.2124 -0.1190  0.1101
  846MOL0     C14101   8.862   5.766  10.132 -0.7455 -0.0602 -0.1090
  846MOL0     C14102   8.979   5.683  10.138  0.1638 -0.0291 -0.0607
  846MOL0     C14103   8.975   5.545  10.107 -0.4106 -0.0099  0.0276
  846MOL0     C14104   9.095   5.464  10.128  0.8705  0.4335 -0.1230
  846MOL0     O14105   9.095   5.340  10.085 -0.0061  1.2459  0.3710
  846MOL0     C14106   9.205   5.271  10.037  0.5676  0.1187 -0.4358
  846MOL0     C14107   9.332   5.330  10.018  0.8673  0.6303 -0.6580
  846MOL0     C14108   9.448   5.258   9.992 -0.0694  0.6571  0.6104
  846MOL0     C14109   9.436   5.116   9.975 -0.1017  0.7453 -0.6920
  846MOL0     O14110   9.545   5.031   9.952  0.2663  0.2920  0.0157
  846MOL0     C14111   9.665   5.086   9.908 -0.2973  0.0692 -0.0518
  846MOL0     C14112   9.765   4.974   9.927 -0.1779 -0.7697  0.8833
  846MOL0     C14113   9.912   5.005   9.876 -0.2543 -0.0667 -0.0516
  846MOL0     C14114   9.969   5.096   9.991  0.0882  0.3467 -0.4064
  846MOL0     C14115  10.123   5.103   9.989  0.1768  0.9748 -0.2522
  846MOL0     C14116  10.171   5.210   9.891  0.5634  1.0684 -0.2707
  846MOL0     C14117  10.317   5.242   9.898 -0.1440  0.3256 -0.7190
  846MOL0     C14118  10.348   5.331  10.010 -0.1841 -0.1740 -0.4832
  846MOL0    Cl14119  10.519   5.376  10.013  0.1140  0.0706  0.3042
  846MOL0     C14120   9.313   5.055   9.998  0.3866 -1.3048  0.0258
  846MOL0     C14121   9.200   5.133  10.024 -0.8441 -0.4933  0.2562
  846MOL0     O14122   9.189   5.518  10.188  0.5805 -0.1558  0.7833
  846MOL0     C14123   8.859   5.499  10.041 -0.4669 -0.4319 -0.8817
  846MOL0     C14124   8.740   5.590  10.031  0.3021  0.5503  0.3944
  846MOL0     N14125   8.103   5.957   9.742  0.1927 -0.1612  0.1565
  846MOL0     N14126   7.992   5.958   9.680  0.3195  0.5560  0.3369
  846MOL0     C14127   6.598   5.852   9.743 -1.4467  0.3915 -0.1466
  846MOL0     C14128   6.474   5.789   9.760  0.5414 -1.2315 -0.2166
  846MOL0     C14129   6.148   5.519   9.603 -1.2894 -0.8927 -0.4955
  846MOL0     C14130   6.042   5.580   9.538  0.0740  0.1998  0.6022
  846MOL0     C14131   5.905   5.537   9.557 -0.3226 -0.6200  0.6232
  846MOL0     C14132   5.871   5.440   9.648  0.2136  0.0001 -0.1187
  846MOL0     O14133   5.741   5.400   9.667 -0.4955  0.7264  0.2560
  846MOL0     C14134   5.629   5.480   9.627 -0.0646 -0.2900  0.2684
  846MOL0     C14135   5.620   5.595   9.724 -0.3149  0.3189  0.4201
  846MOL0     C14136   5.501   5.684   9.687  0.2421 -0.3059 -0.0106
  846MOL0     C14137   5.538   5.825   9.721  0.0797  0.1548 -0.0996
  846MOL0     C14138   5.630   5.868   9.617 -0.7898 -0.2880  0.8639
  846MOL0     C14139   5.696   5.909   9.530 -0.2970 -1.0338  1.1964
  846MOL0     C14140   5.975   5.374   9.705 -0.3124 -0.3385  0.2681
  846MOL0     C14141   6.113   5.407   9.686  0.4246 -0.2177  0.2525
  846MOL0     C14142   6.220   5.333   9.755  0.4804 -0.2614  0.0011
  846MOL0     H14143   6.577   5.483   9.642 -4.1601 -0.4041  2.2079
  846MOL0     H14144   6.782   5.604   9.611 -0.2032 -0.0562  0.3823
  846MOL0     H14145   6.903   5.780   9.853  0.2930  0.1089 -0.0469
  846MOL0     H14146   6.969   5.714   9.705 -1.4387 -0.7742 -1.8304
  846MOL0     H14147   7.011   6.008   9.818 -1.1345 -2.2018  3.4359
  846MOL0     H14148   7.047   5.957   9.660 -1.2074  0.5223 -0.0463
  846MOL0     H14149   7.207   5.781   9.749  3.7781  1.1898  0.2098
  846MOL0     H14150   7.188   5.850   9.911  1.6346 -0.9566 -0.7847
  846MOL0     H14151   7.276   6.013   9.661  0.0405  1.6167  1.2427
  846MOL0     H14152   7.284   6.056   9.833  3.0740 -1.3981  1.8253
  846MOL0     H14153   7.441   5.869   9.883 -1.7561  2.1855  0.3314
  846MOL0     H14154   7.435   5.836   9.703 -2.5417 -3.3881  3.0269
  846MOL0     H14155   7.550   6.030   9.659  2.9978 -2.7478 -1.4136
  846MOL0     H14156   7.520   6.091   9.826  0.0656 -0.5957 -0.3402
  846MOL0     H14157   7.699   5.941   9.911 -1.9046  0.3660 -0.2128
  846MOL0     H14158   7.758   6.058   9.806  1.0310 -1.2937 -1.9109
  846MOL0     H14159   7.741   5.759   9.751  3.3899 -0.9916  0.2186
  846MOL0     H14160   7.738   5.866   9.610  1.4848 -1.1142 -1.3084
  846MOL0     H14161   7.954   5.709   9.894 -2.2822 -0.4674 -1.7482
  846MOL0     H14162   8.179   5.787  10.020 -1.4671  0.7860  0.6784
  846MOL0     H14163   8.271   5.732   9.889  1.0350  0.4547 -0.1031
  846MOL0     H14164   8.381   5.918   9.840 -2.6825 -0.5814 -1.5252
  846MOL0     H14165   8.280   6.035   9.936 -1.1484 -0.2186 -3.4798
  846MOL0     H14166   8.383   5.925  10.141 -0.4013 -2.0206  1.0700
  846MOL0     H14167   8.501   5.996  10.020  0.9667  0.7027  2.1671
  846MOL0     H14168   8.535   5.767   9.914 -3.4422 -0.4085 -0.8893
  846MOL0     H14169   8.452   5.701  10.052  0.8328  0.7007  2.3045
  846MOL0     H14170   8.883   5.865  10.170  2.1536  0.0899 -1.7889
  846MOL0     H14171   9.065   5.735  10.180 -0.4338  0.4559  0.5921
  846MOL0     H14172   9.331   5.438  10.020 -0.4257  0.6184  0.2932
  846MOL0     H14173   9.541   5.313   9.985  1.2631 -1.4293  1.2843
  846MOL0     H14174   9.669   5.110   9.801 -1.2770 -0.3375 -0.1861
  846MOL0     H14175   9.690   5.180   9.958 -1.2955  2.1784 -3.1898
  846MOL0     H14176   9.768   4.952  10.034  0.3207  0.0064  1.0345
  846MOL0     H14177   9.737   4.883   9.872  0.3165  0.0890 -0.8491
  846MOL0     H14178   9.967   4.912   9.862 -0.3449 -0.0912 -0.2531
  846MOL0     H14179   9.902   5.055   9.780 -1.7042 -1.5172 -0.6928
  846MOL0     H14180   9.952   5.052  10.090  0.9160 -1.5083 -1.0257
  846MOL0     H14181   9.915   5.189   9.976  2.1538  1.6190 -0.2960
  846MOL0     H14182  10.165   5.006   9.961  0.6086  1.4921 -1.4826
  846MOL0     H14183  10.163   5.139  10.083  0.4801  1.4584 -0.5668
  846MOL0     H14184  10.133   5.164   9.800  1.0963  0.7725 -0.3445
  846MOL0     H14185  10.113   5.303   9.901 -0.3450  0.7335 -2.0621
  846MOL0     H14186  10.344   5.283   9.800 -1.3668 -0.9926 -1.6636
  846MOL0     H14187  10.378   5.153   9.920 -2.2379 -0.8853  0.4788
  846MOL0     H14188  10.285   5.420  10.000  2.1539  1.4958 -1.3538
  846MOL0     H14189  10.309   5.281  10.099 -0.4137 -0.7579 -0.9042
  846MOL0     H14190   9.305   4.946  10.000 -0.3407 -1.2861 -1.0305
  846MOL0     H14191   9.112   5.073  10.048 -1.2298  0.8854  2.5599
  846MOL0     H14192   8.854   5.403   9.990  0.7460 -1.3577  0.6559
  846MOL0     H14193   8.651   5.545   9.989  0.6441  1.5038 -1.4684
  846MOL0     H14194   6.623   5.955   9.765 -1.8591 -0.1025  3.1376
  846MOL0     H14195   6.384   5.844   9.785 -0.1581 -1.6199 -1.7597
  846MOL0     H14196   6.049   5.674   9.485 -1.8800  0.6744  1.1234
  846MOL0     H14197   5.833   5.606   9.515  0.8476  0.4400  0.2978
  846MOL0     H14198   5.546   5.410   9.629 -0.4887  0.1955  2.9223
  846MOL0     H14199   5.631   5.520   9.525  1.4667  2.6271  1.3091
  846MOL0     H14200   5.722   5.635   9.722 -0.3504  0.4042 -0.4197
  846MOL0     H14201   5.597   5.546   9.819 -4.1518  1.5898  0.2989
  846MOL0     H14202   5.410   5.664   9.743 -1.6061 -0.8942 -3.0103
  846MOL0     H14203   5.474   5.674   9.581 -0.1604 -1.4198  0.1844
  846MOL0     H14204   5.448   5.885   9.708  0.2800  0.2813 -0.9216
  846MOL0     H14205   5.582   5.839   9.821 -1.4275 -0.1989  0.6392
  846MOL0     H14206   5.758   5.961   9.461 -1.4030 -0.1943  0.7944
  846MOL0     H14207   5.957   5.287   9.768  1.6745 -0.6079  0.5141
  846MOL0     H14208   6.277   5.386   9.833  0.2855  0.2994 -0.2283
  846MOL0     H14209   6.177   5.240   9.793  2.3374 -2.3158 -2.5644
  846MOL0     H14210   6.293   5.296   9.683 -0.2995  0.0958 -1.0061
  847MOL0     O14211   2.260   2.116   8.336  0.1096  0.6222  0.5169
  847MOL0     C14212   2.185   2.045   8.405 -0.5797 -0.3561  0.1684
  847MOL0     O14213   2.161   2.058   8.534  0.1707  0.2724 -0.6396
  847MOL0     C14214   2.231   2.151   8.605 -0.4168 -0.5681 -0.6689
  847MOL0     C14215   2.361   2.200   8.583 -0.7079  0.6795  0.5050
  847MOL0     C14216   2.419   2.290   8.673 -0.2535 -0.5359  0.0349
  847MOL0     C14217   2.347   2.344   8.774  0.6229  0.0329  0.3240
  847MOL0     O14218   2.412   2.443   8.849 -0.3854  0.5680  0.8238
  847MOL0     C14219   2.332   2.534   8.925  0.0535 -0.6984 -0.5902
  847MOL0     C14220   2.434   2.637   8.981  0.0581  0.0980  0.3755
  847MOL0     C14221   2.378   2.733   9.087 -0.4129 -0.5783  0.8934
  847MOL0     C14222   2.495   2.802   9.156  0.2478  0.4109 -0.2994
  847MOL0     C14223   2.578   2.890   9.082  0.1290 -0.5393 -0.2842
  847MOL0     C14224   2.680   2.961   9.167 -0.4131  0.6950 -0.3619
  847MOL0     C14225   2.794   3.037   9.089 -0.1770 -0.0002 -0.6029
  847MOL0     C14226   2.736   3.169   9.046  0.0282 -1.1947 -0.8976
  847MOL0     N14227   2.851   3.247   8.987  0.2057  0.2861 -0.1899
  847MOL0     C14228   2.894   3.372   9.019 -0.7126  0.8970 -0.8420
  847MOL0     C14229   3.009   3.386   8.960 -0.0228 -0.6266  0.5972
  847MOL0     C14230   3.090   3.512   8.966 -0.2462 -0.3656 -0.2774
  847MOL0     C14231   3.033   3.637   8.890 -0.1039  0.8906 -0.8536
  847MOL0     C14232   2.963   3.615   8.755  0.7204 -0.5325 -0.1619
  847MOL0     C14233   2.841   3.710   8.720 -1.1421  0.1260 -0.0040
  847MOL0     O14234   2.760   3.733   8.832  0.4861 -0.3801 -0.4418
  847MOL0     C14235   2.684   3.628   8.881  0.2452 -0.0941  1.1446
  847MOL0     C14236   2.664   3.510   8.809  0.1319  0.3104  0.0988
  847MOL0     C14237   2.579   3.411   8.857 -0.5046 -0.3749 -0.0325
  847MOL0     C14238   2.507   3.423   8.974  1.0354 -0.3565 -0.2505
  847MOL0     C14239   2.407   3.318   9.013 -0.3317 -0.8306 -0.1721
  847MOL0     O14240   2.373   3.227   8.920  0.3917  0.0678 -0.3487
  847MOL0     C14241   2.276   3.131   8.930 -0.4957 -0.1808 -0.3400
  847MOL0     C14242   2.186   3.120   9.037 -0.6197  0.4763 -0.1262
  847MOL0     C14243   2.085   3.021   9.029  0.6032  0.0881  0.1794
  847MOL0     C14244   2.081   2.925   8.926 -0.2299 -0.7397  0.6566
  847MOL0     O14245   1.980   2.834   8.929 -0.0185  0.3071  0.0450
  847MOL0     C14246   1.968   2.742   8.816  0.1289 -0.0226 -0.1367
  847MOL0     C14247   1.902   2.814   8.703  0.0795  0.0341 -0.0084
  847MOL0     C14248   1.858   2.716   8.599  0.4950  0.5420 -0.0051
  847MOL0     C14249   1.770   2.785   8.494 -0.4105  0.1476 -0.3796
  847MOL0     C14250   1.697   2.678   8.399  0.2440  0.3449  0.4764
  847MOL0     C14251   1.618   2.742   8.288 -0.1056  0.2138  0.8867
  847MOL0     C14252   1.563   2.640   8.184  0.6672 -0.0140  1.0215
  847MOL0     C14253   1.450   2.708   8.100  0.5258  1.2666  0.8208
  847MOL0    Cl14254   1.512   2.768   7.937  0.4106  0.0991  0.1875
  847MOL0     C14255   2.177   2.942   8.821 -0.2902  0.0835 -0.4101
  847MOL0     C14256   2.264   3.046   8.824 -0.1450  0.3243  0.5117
  847MOL0     O14257   2.371   3.324   9.132  0.2552 -0.0705  0.0119
  847MOL0     C14258   2.526   3.542   9.046  0.4792  1.1341  0.2406
  847MOL0     C14259   2.602   3.642   8.993  0.4369  0.1055 -0.0378
  847MOL0     N14260   3.045   3.272   8.898  0.7520  0.4417 -0.3049
  847MOL0     N14261   2.946   3.184   8.914  0.4020 -0.3153  0.5650
  847MOL0     C14262   2.222   2.291   8.805 -0.0671 -0.0933 -0.0236
  847MOL0     C14263   2.160   2.204   8.713  0.3815 -0.4193  0.5289
  847MOL0     C14264   2.132   1.934   8.329  0.0828  0.2841 -1.0267
  847MOL0     C14265   2.106   1.963   8.201  0.7236  0.3478  0.8139
  847MOL0     C14266   2.047   1.872   8.117 -0.0246 -0.2739 -0.6505
  847MOL0     C14267   2.030   1.739   8.159  0.5614  0.5449  0.6260
  847MOL0     O14268   1.989   1.648   8.059  0.0804 -0.0113  0.3062
  847MOL0     C14269   1.850   1.621   8.057  1.1082  0.6815 -0.1048
  847MOL0     C14270   1.828   1.545   7.929 -0.2246 -0.1305 -0.7534
  847MOL0     C14271   1.683   1.533   7.865 -1.4211  0.0100 -0.1581
  847MOL0     C14272   1.577   1.476   7.952  0.3362 -0.0889 -0.5935
  847MOL0     C14273   1.446   1.487   7.890  0.4269  0.2189  0.9530
  847MOL0     C14274   1.346   1.495   7.828 -0.4929  0.2232 -0.6260
  847MOL0     C14275   2.065   1.706   8.287  0.2430 -0.2734 -0.3319
  847MOL0     C14276   2.106   1.799   8.377  0.4893  0.1727 -0.3440
  847MOL0     C14277   2.142   1.760   8.517  0.3361  0.2090 -0.2203
  847MOL0     H14278   2.425   2.169   8.502 -2.8091  2.6590 -2.0826
  847MOL0     H14279   2.513   2.342   8.657 -0.9828  0.4780 -1.1295
  847MOL0     H14280   2.266   2.597   8.863 -0.7297  1.3787  2.1227
  847MOL0     H14281   2.275   2.475   8.997 -2.5338  0.2739 -1.6914
  847MOL0     H14282   2.473   2.688   8.893 -0.3754  0.1904  0.2325
  847MOL0     H14283   2.513   2.574   9.023  0.0361 -1.3396 -1.6002
  847MOL0     H14284   2.315   2.683   9.160 -1.1582 -1.1926 -0.1453
  847MOL0     H14285   2.307   2.804   9.044  2.2176  0.8239 -1.5050
  847MOL0     H14286   2.444   2.849   9.241 -2.2010 -0.6135 -1.1043
  847MOL0     H14287   2.561   2.724   9.197 -0.8902 -0.3689  0.1052
  847MOL0     H14288   2.631   2.838   9.002 -0.3754 -1.2600 -0.1568
  847MOL0     H14289   2.519   2.965   9.028  2.1443  0.6169 -0.9865
  847MOL0     H14290   2.629   3.024   9.242  0.2413  0.5582  0.2108
  847MOL0     H14291   2.729   2.876   9.214  1.4001  1.1845 -1.2818
  847MOL0     H14292   2.814   2.977   9.000 -4.2189 -1.3713 -0.8230
  847MOL0     H14293   2.890   3.051   9.139 -1.0491  3.1735  0.4468
  847MOL0     H14294   2.665   3.157   8.964  0.1429  1.9465 -1.5674
  847MOL0     H14295   2.687   3.228   9.124  1.5488 -1.7980  0.5569
  847MOL0     H14296   2.836   3.452   9.062  2.1559  3.1338 -0.8302
  847MOL0     H14297   3.088   3.547   9.069  0.4355  4.3005 -1.6110
  847MOL0     H14298   3.192   3.488   8.933 -0.8523 -3.3985 -0.2420
  847MOL0     H14299   2.962   3.684   8.960  0.3579  1.2933 -0.6486
  847MOL0     H14300   3.116   3.708   8.881  0.7260 -0.0372 -0.6846
  847MOL0     H14301   2.936   3.509   8.749  2.4686 -0.9853 -0.7601
  847MOL0     H14302   3.041   3.631   8.679 -0.7605 -0.2107 -1.6707
  847MOL0     H14303   2.787   3.667   8.635 -0.4649 -1.2329  0.2332
  847MOL0     H14304   2.876   3.804   8.676 -2.2652  0.9459  0.8037
  847MOL0     H14305   2.716   3.477   8.719 -1.7678 -0.6167 -0.7117
  847MOL0     H14306   2.576   3.312   8.811 -0.0132  0.7258 -2.5886
  847MOL0     H14307   2.182   3.178   9.129 -0.9420  0.0833  0.1095
  847MOL0     H14308   2.010   3.018   9.108 -2.2517  2.2945 -2.2394
  847MOL0     H14309   2.069   2.707   8.794  0.4027  0.0538  0.9295
  847MOL0     H14310   1.901   2.660   8.840 -0.0932  0.0927 -0.3641
  847MOL0     H14311   1.809   2.858   8.741  1.8268  3.5522  0.6436
  847MOL0     H14312   1.967   2.892   8.661  1.1184 -1.4547 -1.3007
  847MOL0     H14313   1.951   2.692   8.546  0.0941  0.7410 -0.8203
  847MOL0     H14314   1.811   2.629   8.645  0.5861  1.6462  2.3511
  847MOL0     H14315   1.834   2.845   8.427 -1.6256  2.3922  0.3631
  847MOL0     H14316   1.696   2.849   8.543  0.9079  0.9355  0.6603
  847MOL0     H14317   1.639   2.620   8.471  1.1691 -0.1231  0.8747
  847MOL0     H14318   1.774   2.615   8.354  1.4376  3.0197 -1.5344
  847MOL0     H14319   1.547   2.812   8.334 -1.4685 -0.0507 -0.6988
  847MOL0     H14320   1.697   2.801   8.241  1.3298 -3.1498 -1.2143
  847MOL0     H14321   1.523   2.562   8.250 -2.8231  1.8612  1.3194
  847MOL0     H14322   1.639   2.593   8.121 -0.7518 -0.8443 -0.1469
  847MOL0     H14323   1.378   2.627   8.085  2.0573 -0.0864  0.4715
  847MOL0     H14324   1.401   2.790   8.153  1.2512 -0.4771  4.4981
  847MOL0     H14325   2.184   2.867   8.743  1.0031 -2.0534  1.6442
  847MOL0     H14326   2.341   3.034   8.748 -0.3377 -1.5970  0.5667
  847MOL0     H14327   2.462   3.563   9.131 -2.2401 -2.7885 -0.5672
  847MOL0     H14328   2.583   3.737   9.042 -1.2030 -0.2517  0.0794
  847MOL0     H14329   2.173   2.316   8.899  0.6097 -1.5908  0.7564
  847MOL0     H14330   2.057   2.173   8.731  1.0528 -3.0267  0.2631
  847MOL0     H14331   2.124   2.060   8.155 -0.1628  0.3974  0.5553
  847MOL0     H14332   2.025   1.901   8.015 -0.6198  2.8644  0.2591
  847MOL0     H14333   1.786   1.711   8.057  0.1705  0.0474 -1.4627
  847MOL0     H14334   1.833   1.565   8.149  2.6758 -0.5289 -0.5128
  847MOL0     H14335   1.865   1.443   7.943  1.0052  0.6191  2.3979
  847MOL0     H14336   1.893   1.593   7.856  0.4162 -2.0561 -1.5062
  847MOL0     H14337   1.699   1.464   7.781  1.1441 -2.3887  2.1305
  847MOL0     H14338   1.659   1.632   7.825 -0.6641 -0.1340 -1.0081
  847MOL0     H14339   1.601   1.371   7.972  1.1457  0.3928  1.1664
  847MOL0     H14340   1.569   1.535   8.044 -1.0614  0.4035 -1.0023
  847MOL0     H14341   1.255   1.509   7.772 -0.4534 -0.8364 -0.9840
  847MOL0     H14342   2.046   1.605   8.320  0.8758 -0.0544  0.7612
  847MOL0     H14343   2.110   1.656   8.533 -0.3308  0.4773  0.2486
  847MOL0     H14344   2.246   1.786   8.536 -0.0341  0.7650  1.2222
  847MOL0     H14345   2.095   1.823   8.593  3.6697  3.3733 -0.5075
  848MOL0     O14346   6.580  10.276   8.493 -0.2875  0.2824  0.1481
  848MOL0     C14347   6.577  10.176   8.561 -0.0356  0.3787  0.4336
  848MOL0     O14348   6.496  10.064   8.532 -0.2092  0.1739 -0.1406
  848MOL0     C14349   6.383  10.084   8.458 -0.2380  0.2359 -0.8505
  848MOL0     C14350   6.298  10.204   8.461 -0.4457 -0.3338 -0.8879
  848MOL0     C14351   6.172  10.201   8.390 -0.5932 -1.0270  0.0257
  848MOL0     C14352   6.136  10.089   8.319  0.0961 -0.3489 -0.5438
  848MOL0     O14353   6.027  10.084   8.239 -0.2031  0.1466  0.1100
  848MOL0     C14354   5.923  10.183   8.263 -0.5371  0.4230  0.7380
  848MOL0     C14355   5.799  10.128   8.187 -0.5692  0.0468  0.0432
  848MOL0     C14356   5.662  10.168   8.249 -0.1040 -0.0916  0.7060
  848MOL0     C14357   5.550  10.119   8.164 -0.2148 -0.4749  0.2536
  848MOL0     C14358   5.425  10.176   8.234  0.2522 -0.2096  0.6767
  848MOL0     C14359   5.301  10.127   8.158 -0.9784  0.2920 -0.2139
  848MOL0     C14360   5.174  10.194   8.211 -0.5136  0.1176  0.0778
  848MOL0     C14361   5.053  10.169   8.124  0.3308 -0.3901  0.0825
  848MOL0     N14362   4.934  10.253   8.163 -0.0904 -0.4090 -0.9726
  848MOL0     C14363   4.811  10.204   8.140 -0.6476  0.6435 -0.3058
  848MOL0     C14364   4.734  10.307   8.154 -0.7392  0.1676 -0.4155
  848MOL0     C14365   4.587  10.298   8.152 -0.1426  0.6252 -0.9090
  848MOL0     C14366   4.533  10.234   8.026  0.2281  0.0243 -0.8872
  848MOL0     C14367   4.380  10.253   8.019  0.0555 -0.2866  0.4052
  848MOL0     C14368   4.308  10.148   8.098 -0.0527  0.2227  0.2280
  848MOL0     O14369   4.164  10.176   8.116  0.3241 -0.0320 -0.1070
  848MOL0     C14370   4.067  10.151   8.020  0.5551  0.1444  0.7792
  848MOL0     C14371   3.940  10.133   8.072 -1.4033 -0.3602 -0.6736
  848MOL0     C14372   3.835  10.122   7.976 -0.9329 -0.1484 -0.2982
  848MOL0     C14373   3.860  10.125   7.833  0.5092 -0.0142  0.4151
  848MOL0     C14374   3.741  10.113   7.733 -0.5079  0.5575 -0.1000
  848MOL0     O14375   3.615  10.099   7.786  0.5926 -0.0339 -0.4538
  848MOL0     C14376   3.495  10.097   7.712  0.0287  0.2295  0.9343
  848MOL0     C14377   3.475  10.019   7.595 -0.1523  0.0164 -0.3452
  848MOL0     C14378   3.347  10.039   7.522 -0.3799 -0.0508  0.3223
  848MOL0     C14379   3.237  10.108   7.568  0.6847 -0.0707  0.7112
  848MOL0     O14380   3.114  10.136   7.501 -0.8556  0.2238  0.2304
  848MOL0     C14381   3.090  10.073   7.374 -0.0616  0.6203  0.3817
  848MOL0     C14382   2.966  10.115   7.315  0.3202 -0.5656 -0.3401
  848MOL0     C14383   2.841  10.119   7.411  0.9357  1.6589 -0.3103
  848MOL0     C14384   2.706  10.135   7.333  0.3877 -0.2985  0.2936
  848MOL0     C14385   2.588  10.191   7.419 -0.6181  0.6274  1.7276
  848MOL0     C14386   2.592  10.337   7.436 -0.8810 -0.0164 -1.2812
  848MOL0     C14387   2.458  10.391   7.498 -0.4899 -0.0634  0.6573
  848MOL0     C14388   2.358  10.460   7.404 -0.0431  0.0546 -0.3180
  848MOL0    Cl14389   2.328  10.340   7.265 -0.1538 -0.3653  0.3266
  848MOL0     C14390   3.254  10.166   7.690 -0.3343  0.3624  0.2911
  848MOL0     C14391   3.378  10.174   7.756 -0.3351 -0.6106  0.2590
  848MOL0     O14392   3.776  10.111   7.614  0.0452  0.2931 -0.4168
  848MOL0     C14393   3.997  10.127   7.796  0.0224  0.4176 -0.8873
  848MOL0     C14394   4.101  10.139   7.888 -0.1691  0.2363  0.2454
  848MOL0     N14395   4.806  10.422   8.184  0.0160  0.4036 -0.2251
  848MOL0     N14396   4.925  10.388   8.189 -0.6643 -0.3056  0.3552
  848MOL0     C14397   6.209   9.975   8.320  0.3672  0.3621 -0.8582
  848MOL0     C14398   6.336   9.972   8.391  0.7820 -0.4525  0.6645
  848MOL0     C14399   6.658  10.175   8.674 -0.7505  0.0804 -0.0834
  848MOL0     C14400   6.617  10.089   8.777 -0.5822  0.2863  0.0115
  848MOL0     C14401   6.674  10.090   8.900 -0.3411 -0.0972 -1.3418
  848MOL0     C14402   6.771  10.181   8.939  0.1220 -0.7808  0.8003
  848MOL0     O14403   6.809  10.181   9.067  0.1168 -0.5870  0.3715
  848MOL0     C14404   6.902  10.276   9.120  0.6054 -0.2929 -0.4591
  848MOL0     C14405   6.936  10.241   9.268 -1.0629 -0.3331  0.3010
  848MOL0     C14406   7.031  10.347   9.339 -0.1091  0.4982  0.6175
  848MOL0     C14407   7.173  10.315   9.364 -0.3690 -0.6659 -0.6537
  848MOL0     C14408   7.275  10.354   9.257  0.3556 -0.3548  0.0683
  848MOL0     C14409   7.363  10.371   9.178  0.3763  0.6598  0.0148
  848MOL0     C14410   6.814  10.276   8.835 -0.9746  0.0871 -0.3049
  848MOL0     C14411   6.764  10.264   8.701  0.6857  0.2428 -0.6733
  848MOL0     C14412   6.830  10.356   8.594 -0.0741 -0.0533 -0.5043
  848MOL0     H14413   6.323  10.298   8.508 -1.0105  0.1525 -1.5380
  848MOL0     H14414   6.126  10.299   8.399  3.9097  1.2833  0.7313
  848MOL0     H14415   5.895  10.220   8.362  0.8588 -0.0034  1.3254
  848MOL0     H14416   5.948  10.273   8.205  2.5668 -0.6259  0.2254
  848MOL0     H14417   5.814  10.020   8.185 -2.1310 -0.2736  2.3175
  848MOL0     H14418   5.804  10.162   8.083  1.3229 -1.6801 -0.5005
  848MOL0     H14419   5.642  10.275   8.252 -3.4459 -0.6017  0.2022
  848MOL0     H14420   5.643  10.112   8.341  1.0397 -1.7893 -0.0423
  848MOL0     H14421   5.558  10.144   8.058  2.0316 -0.0394  0.4755
  848MOL0     H14422   5.550  10.010   8.168  1.3485 -0.5827 -1.2380
  848MOL0     H14423   5.419  10.136   8.335  1.3861  0.2710  0.9503
  848MOL0     H14424   5.405  10.284   8.239 -1.5591 -0.4364 -0.4253
  848MOL0     H14425   5.325  10.151   8.054  2.3095 -0.5839  0.2271
  848MOL0     H14426   5.292  10.019   8.172 -2.1390  0.3730 -0.2298
  848MOL0     H14427   5.197  10.300   8.225  0.6578 -0.1395  0.1935
  848MOL0     H14428   5.160  10.157   8.312  0.4564 -0.7013 -0.0698
  848MOL0     H14429   5.073  10.195   8.019 -0.7364 -2.6913 -0.7500
  848MOL0     H14430   5.025  10.064   8.133  0.9690 -0.5228  0.6198
  848MOL0     H14431   4.792  10.098   8.127  1.0452  0.3560 -0.7111
  848MOL0     H14432   4.559  10.251   8.247 -0.1649  0.8438 -0.8048
  848MOL0     H14433   4.544  10.399   8.154  0.5091  0.9143 -0.9704
  848MOL0     H14434   4.577  10.287   7.940 -0.4730  1.4713 -0.3804
  848MOL0     H14435   4.559  10.128   8.023  2.1805  0.4718 -1.0250
  848MOL0     H14436   4.357  10.240   7.913  1.6278 -1.0471  0.1320
  848MOL0     H14437   4.360  10.359   8.039 -0.9536  0.4895 -3.7553
  848MOL0     H14438   4.346  10.149   8.201  3.8383  1.9520 -1.0368
  848MOL0     H14439   4.325  10.046   8.062 -0.3187  0.4787 -0.6376
  848MOL0     H14440   3.925  10.139   8.179 -0.2442 -1.5255 -0.4130
  848MOL0     H14441   3.734  10.117   8.014 -1.6219  0.8909 -1.8986
  848MOL0     H14442   3.541   9.939   7.564  1.1586  0.7600  0.4330
  848MOL0     H14443   3.334   9.992   7.425 -2.0749 -1.1503  1.0249
  848MOL0     H14444   3.168  10.096   7.301  1.0737  1.8506  1.9030
  848MOL0     H14445   3.085   9.964   7.389 -0.4936  0.3218 -1.6371
  848MOL0     H14446   2.967  10.215   7.269  0.9913 -1.2677 -1.9085
  848MOL0     H14447   2.939  10.041   7.239 -1.1990  0.8051 -1.1950
  848MOL0     H14448   2.840  10.044   7.490  0.5919  0.8245 -1.0897
  848MOL0     H14449   2.857  10.214   7.464  1.4420  2.1326 -1.2710
  848MOL0     H14450   2.667  10.043   7.288 -1.3030 -0.3835  1.8035
  848MOL0     H14451   2.723  10.202   7.249 -0.2698 -0.2121  0.2218
  848MOL0     H14452   2.582  10.141   7.516  1.3561 -0.8890  1.1255
  848MOL0     H14453   2.502  10.176   7.353  1.6427  0.3228 -1.3557
  848MOL0     H14454   2.668  10.371   7.507 -3.6257  2.7450  0.5967
  848MOL0     H14455   2.597  10.385   7.338  1.3232 -1.6711 -2.0609
  848MOL0     H14456   2.466  10.450   7.590  0.6169  0.0540  0.5054
  848MOL0     H14457   2.406  10.303   7.537  0.1416 -1.5100 -1.5781
  848MOL0     H14458   2.261  10.481   7.449  1.3775  2.3272  1.9575
  848MOL0     H14459   2.401  10.551   7.360 -1.2985  0.2275 -1.2618
  848MOL0     H14460   3.172  10.214   7.743  1.6108 -1.2646  5.3293
  848MOL0     H14461   3.387  10.233   7.847 -0.5854  0.2197 -0.2483
  848MOL0     H14462   4.024  10.128   7.691  2.4261 -0.9381 -0.3537
  848MOL0     H14463   4.200  10.135   7.844 -0.4530 -0.8275 -0.3285
  848MOL0     H14464   6.156   9.899   8.264 -2.7746  1.8069 -0.0543
  848MOL0     H14465   6.401   9.886   8.386  1.7743  0.3483 -1.0966
  848MOL0     H14466   6.532  10.024   8.757 -0.6265  0.2139  0.4330
  848MOL0     H14467   6.626  10.027   8.974 -3.7299  1.6590 -1.8376
  848MOL0     H14468   6.857  10.376   9.123  0.7242 -0.0962  5.0047
  848MOL0     H14469   6.994  10.284   9.061  1.5055  1.3939  1.0731
  848MOL0     H14470   6.998  10.150   9.267 -0.7558 -0.1409  1.0816
  848MOL0     H14471   6.850  10.230   9.335  0.6954 -1.5386  2.4960
  848MOL0     H14472   6.977  10.366   9.432 -3.1403 -3.0510 -0.2213
  848MOL0     H14473   7.024  10.442   9.284  2.7080  1.0341  1.0056
  848MOL0     H14474   7.201  10.379   9.448 -0.5428  0.1214 -1.1947
  848MOL0     H14475   7.190  10.209   9.389  1.8955 -0.0690  0.5881
  848MOL0     H14476   7.450  10.375   9.116  0.1834 -2.0297 -0.5420
  848MOL0     H14477   6.884  10.356   8.852 -0.9854  0.6581 -2.6461
  848MOL0     H14478   6.764  10.440   8.570  0.4224  0.6754  0.5884
  848MOL0     H14479   6.917  10.405   8.640 -2.5556  1.5674  2.8517
  848MOL0     H14480   6.863  10.303   8.504 -1.5355 -1.9957  0.0340
  849MOL0     O14481   3.153   2.868   7.806  0.0422  0.4867  0.1701
  849MOL0     C14482   3.266   2.821   7.824 -0.9543 -0.9605  0.6308
  849MOL0     O14483   3.380   2.887   7.798  0.5710  0.0167 -0.8023
  849MOL0     C14484   3.374   3.011   7.738  0.4438  0.5888 -0.2281
  849MOL0     C14485   3.455   3.109   7.787 -0.5761  1.1025 -0.1491
  849MOL0     C14486   3.473   3.230   7.719 -0.5780 -0.5786 -0.2093
  849MOL0     C14487   3.408   3.258   7.602 -0.1407 -0.5730 -0.9029
  849MOL0     O14488   3.424   3.382   7.542  0.3324 -0.2499  0.5755
  849MOL0     C14489   3.380   3.407   7.406 -0.2618 -0.0147 -0.2185
  849MOL0     C14490   3.411   3.558   7.377  0.0776 -0.7833  0.3159
  849MOL0     C14491   3.569   3.587   7.374 -0.0526  0.0043  0.4258
  849MOL0     C14492   3.615   3.567   7.229 -0.2641  0.4102 -0.8201
  849MOL0     C14493   3.763   3.592   7.204  0.2933 -0.0775 -0.3146
  849MOL0     C14494   3.778   3.598   7.055  0.0676  0.7702  0.3180
  849MOL0     C14495   3.927   3.626   7.006 -0.9887 -0.3800 -0.0219
  849MOL0     C14496   3.923   3.679   6.867 -0.2293  1.5935  0.5124
  849MOL0     N14497   4.038   3.755   6.816 -0.2895  0.3037 -0.5573
  849MOL0     C14498   4.160   3.713   6.780  0.0773  0.7837 -0.3098
  849MOL0     C14499   4.242   3.817   6.756 -0.9180 -0.7947  0.2723
  849MOL0     C14500   4.370   3.833   6.698 -0.5607 -0.4890  0.1976
  849MOL0     C14501   4.432   3.697   6.667  0.2114 -0.6692 -0.2586
  849MOL0     C14502   4.581   3.694   6.653  0.9042 -0.1793  0.2730
  849MOL0     C14503   4.633   3.782   6.535  0.1494  0.6014 -0.6882
  849MOL0     O14504   4.585   3.722   6.416 -0.0000  0.7496 -0.5867
  849MOL0     C14505   4.683   3.718   6.323  0.1580 -0.3719 -0.3274
  849MOL0     C14506   4.781   3.819   6.304 -0.3580 -0.3526  0.4812
  849MOL0     C14507   4.873   3.796   6.199  0.1227  0.5031 -1.6565
  849MOL0     C14508   4.866   3.693   6.106 -1.1822  0.1031 -0.0428
  849MOL0     C14509   4.965   3.683   6.001 -0.0550 -1.2099  0.3553
  849MOL0     O14510   5.050   3.792   5.992 -0.5738  0.1374  0.7194
  849MOL0     C14511   5.160   3.784   5.917  0.4136 -0.2918 -0.4719
  849MOL0     C14512   5.279   3.792   5.980 -0.7653 -1.2287  0.3587
  849MOL0     C14513   5.399   3.767   5.912 -0.6622  0.4580 -0.9738
  849MOL0     C14514   5.396   3.729   5.782 -0.5262 -0.5024 -0.0225
  849MOL0     O14515   5.507   3.682   5.715  0.8080  0.1080  0.4578
  849MOL0     C14516   5.639   3.717   5.765  0.7826  0.1555  0.0952
  849MOL0     C14517   5.734   3.723   5.638 -0.3542 -0.4989 -0.2094
  849MOL0     C14518   5.873   3.780   5.676 -0.0862  0.3494  0.1871
  849MOL0     C14519   5.970   3.795   5.558  0.2619  0.0901  0.7144
  849MOL0     C14520   6.110   3.847   5.600  0.9620 -0.0360  0.2932
  849MOL0     C14521   6.199   3.823   5.477  0.0555  0.0207  0.0867
  849MOL0     C14522   6.343   3.877   5.491  0.6246  0.5376  0.3637
  849MOL0     C14523   6.411   3.878   5.354 -1.1473  0.3287 -0.0265
  849MOL0    Cl14524   6.476   3.720   5.317  0.6575 -0.1558 -0.1511
  849MOL0     C14525   5.276   3.728   5.718 -0.5667  0.4838  0.4309
  849MOL0     C14526   5.159   3.763   5.784  1.0918  0.7139 -0.0845
  849MOL0     O14527   4.972   3.580   5.934 -0.0515  0.4936  0.7231
  849MOL0     C14528   4.764   3.598   6.119 -0.4950 -0.3314 -0.3183
  849MOL0     C14529   4.676   3.608   6.226 -0.0236  0.1912  0.7116
  849MOL0     N14530   4.162   3.930   6.770 -0.6699 -0.2938 -0.2659
  849MOL0     N14531   4.043   3.892   6.820 -0.2792  0.3414 -0.0306
  849MOL0     C14532   3.316   3.160   7.557 -0.7321 -0.2592  0.5307
  849MOL0     C14533   3.310   3.037   7.616  0.5755 -0.3820 -0.3394
  849MOL0     C14534   3.296   2.695   7.895  0.0983  0.0578  0.4011
  849MOL0     C14535   3.430   2.648   7.911 -1.1803  0.4090 -0.8409
  849MOL0     C14536   3.453   2.518   7.958 -0.0913  0.3340  0.6641
  849MOL0     C14537   3.357   2.436   8.013  0.1587 -1.1962  0.7091
  849MOL0     O14538   3.405   2.326   8.070 -0.1624  0.1141  0.6899
  849MOL0     C14539   3.301   2.257   8.146  0.6521 -0.2798  0.0636
  849MOL0     C14540   3.369   2.137   8.213  0.4610  0.1416 -0.1045
  849MOL0     C14541   3.458   2.056   8.119  0.0338 -0.3994  0.1345
  849MOL0     C14542   3.381   1.999   7.993  1.4255 -0.0573 -0.5596
  849MOL0     C14543   3.468   1.926   7.907 -0.2030 -0.6036  0.4204
  849MOL0     C14544   3.539   1.863   7.830 -0.0955  0.1711 -0.1767
  849MOL0     C14545   3.229   2.485   7.995  0.5820  0.3494  0.2460
  849MOL0     C14546   3.191   2.603   7.930 -0.4542 -0.2897  0.4844
  849MOL0     C14547   3.051   2.621   7.906  0.3871  0.3308 -1.0561
  849MOL0     H14548   3.514   3.107   7.877 -1.2155  4.5653  0.4982
  849MOL0     H14549   3.548   3.293   7.766  0.3710 -1.0740 -1.0279
  849MOL0     H14550   3.426   3.337   7.336  0.1446 -0.0453  0.0768
  849MOL0     H14551   3.270   3.404   7.407 -0.5353  3.7374  2.2371
  849MOL0     H14552   3.376   3.620   7.460  1.3424  0.2764  0.0994
  849MOL0     H14553   3.366   3.598   7.286  0.8465  1.1588  0.7295
  849MOL0     H14554   3.635   3.522   7.432 -0.7233  0.4721  1.7501
  849MOL0     H14555   3.586   3.687   7.415 -0.3091 -0.0340  0.6287
  849MOL0     H14556   3.593   3.466   7.193  0.9156 -0.6886  1.3193
  849MOL0     H14557   3.552   3.635   7.171 -1.9680  0.9778  1.5513
  849MOL0     H14558   3.777   3.691   7.250 -0.7536 -0.1592  0.2080
  849MOL0     H14559   3.833   3.524   7.254  1.2515  1.1880  0.1415
  849MOL0     H14560   3.744   3.504   7.012 -0.8524  0.8135  0.9329
  849MOL0     H14561   3.710   3.677   7.021 -0.5753  0.5050  0.9722
  849MOL0     H14562   3.988   3.535   7.003 -0.9102 -0.3572  0.6619
  849MOL0     H14563   3.964   3.697   7.080 -3.1805 -0.1352  0.9180
  849MOL0     H14564   3.897   3.592   6.806 -0.4127  0.9635  1.4660
  849MOL0     H14565   3.837   3.743   6.844  2.4324  4.7049 -1.6043
  849MOL0     H14566   4.195   3.610   6.774  2.7978  1.5990  0.0924
  849MOL0     H14567   4.356   3.895   6.610  0.1487  1.2889  1.2929
  849MOL0     H14568   4.437   3.883   6.769  1.6642  0.9460 -2.7131
  849MOL0     H14569   4.405   3.632   6.751 -0.7330 -1.2695 -1.0051
  849MOL0     H14570   4.389   3.655   6.576  0.7481  0.4654 -1.0524
  849MOL0     H14571   4.613   3.590   6.652 -0.0745 -0.5136 -1.9402
  849MOL0     H14572   4.629   3.754   6.730  1.2337  0.4109 -0.3822
  849MOL0     H14573   4.741   3.788   6.550 -0.0371  1.5622  0.4931
  849MOL0     H14574   4.597   3.886   6.539 -1.4317  0.2644 -3.5548
  849MOL0     H14575   4.799   3.909   6.362  1.2647  2.3935 -3.7410
  849MOL0     H14576   4.960   3.860   6.194  0.5925 -0.2128 -3.3107
  849MOL0     H14577   5.296   3.804   6.087  1.5289  0.1473 -0.0833
  849MOL0     H14578   5.493   3.764   5.966 -1.1826  0.6116 -0.0311
  849MOL0     H14579   5.640   3.816   5.811 -3.9137  0.1708  0.6165
  849MOL0     H14580   5.673   3.644   5.840 -0.2006 -0.2611  0.1488
  849MOL0     H14581   5.740   3.621   5.597 -2.3955 -0.9381  0.4706
  849MOL0     H14582   5.688   3.782   5.558 -2.7625  0.3091  1.6411
  849MOL0     H14583   5.857   3.880   5.718 -3.0329 -0.9479  2.4692
  849MOL0     H14584   5.922   3.721   5.754 -0.2323 -0.8385 -0.5911
  849MOL0     H14585   5.944   3.867   5.481  0.6565 -2.8466 -2.4321
  849MOL0     H14586   5.970   3.694   5.515 -4.3440 -0.8306  2.3765
  849MOL0     H14587   6.152   3.777   5.673 -0.3206  0.6745  1.7739
  849MOL0     H14588   6.112   3.950   5.637  2.2682  0.0292  0.1192
  849MOL0     H14589   6.188   3.716   5.455 -2.6676 -0.3798  2.6890
  849MOL0     H14590   6.150   3.869   5.390 -0.8216 -1.0196  0.0015
  849MOL0     H14591   6.406   3.820   5.560  1.7949 -4.3954 -4.0965
  849MOL0     H14592   6.333   3.979   5.529 -2.4123 -0.3181  2.2863
  849MOL0     H14593   6.338   3.923   5.286  1.1893  2.5660 -1.2215
  849MOL0     H14594   6.490   3.953   5.364  1.5020 -2.2600 -0.3735
  849MOL0     H14595   5.280   3.677   5.622  0.7448 -1.6514  1.5407
  849MOL0     H14596   5.066   3.751   5.730  0.0710  1.3549  1.4715
  849MOL0     H14597   4.746   3.512   6.056 -4.2290  0.9701 -1.2487
  849MOL0     H14598   4.614   3.519   6.232 -0.5773  0.4718 -0.4919
  849MOL0     H14599   3.258   3.199   7.474  2.2528 -0.2562 -1.7581
  849MOL0     H14600   3.256   2.957   7.566  1.9125 -0.7725 -1.2200
  849MOL0     H14601   3.512   2.705   7.868  0.3305 -1.3240 -0.4012
  849MOL0     H14602   3.556   2.484   7.969 -0.6862 -1.5899  0.5954
  849MOL0     H14603   3.216   2.216   8.091  0.7101 -2.2795  1.3564
  849MOL0     H14604   3.245   2.319   8.216 -3.4011 -1.6636 -1.6557
  849MOL0     H14605   3.294   2.069   8.255  1.2669 -0.0505  1.0526
  849MOL0     H14606   3.438   2.176   8.287 -1.3567  3.3514  0.0733
  849MOL0     H14607   3.515   1.976   8.168 -1.8462 -0.8980  1.6024
  849MOL0     H14608   3.540   2.117   8.078 -0.4295 -0.8013 -1.4893
  849MOL0     H14609   3.307   1.942   8.049 -0.0264  2.0344 -0.2231
  849MOL0     H14610   3.334   2.068   7.922  0.6261 -0.5370 -0.5048
  849MOL0     H14611   3.600   1.807   7.764 -2.1556 -1.4434 -0.8230
  849MOL0     H14612   3.153   2.411   8.021  0.5254  0.0069 -0.8576
  849MOL0     H14613   3.034   2.608   7.798  3.1931 -0.9926 -1.4197
  849MOL0     H14614   2.987   2.560   7.970  2.9476 -1.3134  0.0788
  849MOL0     H14615   3.026   2.724   7.932  2.0082  0.1815  1.4138
  850MOL0     O14616   4.040   1.563   2.637  0.4393 -0.1885  0.2255
  850MOL0     C14617   3.919   1.569   2.664 -0.1421 -0.5161  0.8734
  850MOL0     O14618   3.861   1.678   2.724 -0.0935 -0.8851  0.5761
  850MOL0     C14619   3.930   1.796   2.715  0.8272 -1.0767  0.0530
  850MOL0     C14620   3.975   1.850   2.834  0.1157  0.6622 -0.4166
  850MOL0     C14621   4.052   1.970   2.837  0.6248  0.1982 -0.0473
  850MOL0     C14622   4.065   2.042   2.719 -0.3894 -0.6357  1.0697
  850MOL0     O14623   4.106   2.168   2.718  0.2265  0.0897 -0.2525
  850MOL0     C14624   4.190   2.218   2.824  0.6563  0.3339  0.5933
  850MOL0     C14625   4.215   2.366   2.820  0.9920 -0.6920 -0.9454
  850MOL0     C14626   4.291   2.407   2.696  0.2605  0.3963 -0.3816
  850MOL0     C14627   4.438   2.386   2.690 -0.8332  0.4401 -0.7261
  850MOL0     C14628   4.488   2.428   2.553 -0.9966 -0.3826  0.2181
  850MOL0     C14629   4.629   2.382   2.545 -1.5502  0.3986 -0.8278
  850MOL0     C14630   4.685   2.460   2.418  0.7432  0.5110 -0.6622
  850MOL0     C14631   4.722   2.595   2.461  0.2643 -0.6135  0.5234
  850MOL0     N14632   4.810   2.653   2.364  0.0017 -0.2095  0.6500
  850MOL0     C14633   4.941   2.691   2.381  0.6552  0.0545  0.4377
  850MOL0     C14634   4.995   2.741   2.263  0.5527  0.6372 -0.3334
  850MOL0     C14635   5.133   2.798   2.238  0.1875 -0.5581  0.6698
  850MOL0     C14636   5.122   2.944   2.197 -0.2770  0.4324 -0.4591
  850MOL0     C14637   5.249   3.008   2.168 -0.3202 -0.6741  0.5871
  850MOL0     C14638   5.358   2.931   2.100  0.0411 -0.4247 -0.2828
  850MOL0     O14639   5.445   2.842   2.174  0.4862 -0.5218 -0.1614
  850MOL0     C14640   5.580   2.822   2.130  0.6849 -0.4638  0.8037
  850MOL0     C14641   5.691   2.794   2.205 -0.0139  0.9392 -0.0731
  850MOL0     C14642   5.824   2.769   2.156  0.4012  0.3776 -0.2572
  850MOL0     C14643   5.847   2.781   2.018 -0.6133  0.1802  0.4801
  850MOL0     C14644   5.980   2.759   1.959 -0.2911  0.1044  0.1446
  850MOL0     O14645   6.003   2.798   1.833  0.2633 -0.2076 -0.9208
  850MOL0     C14646   6.124   2.800   1.777  0.2492  0.4655  0.1610
  850MOL0     C14647   6.127   2.789   1.639  0.2721  0.1926 -0.2985
  850MOL0     C14648   6.243   2.782   1.577 -0.4565  0.4623 -0.1709
  850MOL0     C14649   6.363   2.810   1.640  0.4578 -0.1535  0.7520
  850MOL0     O14650   6.488   2.809   1.578  0.2401  0.4054 -0.2041
  850MOL0     C14651   6.499   2.789   1.443 -0.0957 -0.2098 -0.1187
  850MOL0     C14652   6.639   2.823   1.405 -0.0903  0.3986  0.4623
  850MOL0     C14653   6.726   2.701   1.402  0.0476 -0.2852  0.0146
  850MOL0     C14654   6.860   2.723   1.337  0.2569  0.1189  0.0381
  850MOL0     C14655   6.946   2.596   1.336 -0.2635 -0.1988  0.7210
  850MOL0     C14656   7.072   2.611   1.250  0.1886  0.2696 -0.5428
  850MOL0     C14657   7.161   2.486   1.268  0.1425 -0.4731  0.1362
  850MOL0     C14658   7.280   2.489   1.181 -0.1630  0.0150  0.7343
  850MOL0    Cl14659   7.238   2.437   1.019  0.3680  0.1378 -0.3800
  850MOL0     C14660   6.362   2.830   1.776  0.1953  0.3791 -0.2660
  850MOL0     C14661   6.241   2.836   1.847  0.4643 -0.3310 -0.8587
  850MOL0     O14662   6.060   2.708   2.031  0.5996  0.5308 -0.6312
  850MOL0     C14663   5.733   2.809   1.933 -0.8431 -0.7010 -0.2219
  850MOL0     C14664   5.611   2.832   1.997 -0.7432 -0.3869  0.2743
  850MOL0     N14665   4.881   2.749   2.185 -0.8324 -0.3416  0.7727
  850MOL0     N14666   4.775   2.703   2.243  0.2387 -0.9469 -0.1603
  850MOL0     C14667   4.019   1.995   2.602  0.0063 -0.2220 -0.2594
  850MOL0     C14668   3.952   1.873   2.594  0.5512  0.2752  0.9858
  850MOL0     C14669   3.845   1.443   2.650  0.0446  0.1357 -0.5870
  850MOL0     C14670   3.745   1.417   2.749 -0.4741 -0.2863 -0.1882
  850MOL0     C14671   3.660   1.311   2.732 -0.1336  0.4307  0.1782
  850MOL0     C14672   3.672   1.217   2.625 -0.2245 -0.0003  0.2519
  850MOL0     O14673   3.575   1.120   2.625 -0.3523  0.3981  0.1339
  850MOL0     C14674   3.576   1.039   2.504  0.1554 -0.5807 -0.2225
  850MOL0     C14675   3.447   0.952   2.507  0.7519 -0.2658 -0.2465
  850MOL0     C14676   3.469   0.821   2.429  0.0304 -0.2082 -0.1913
  850MOL0     C14677   3.351   0.730   2.429  0.8570 -0.3568  0.2020
  850MOL0     C14678   3.389   0.607   2.361  0.0008 -0.2164  0.5790
  850MOL0     C14679   3.445   0.512   2.304 -0.7591 -0.4343 -0.6031
  850MOL0     C14680   3.785   1.235   2.538 -0.5551  0.6850  0.7317
  850MOL0     C14681   3.868   1.347   2.542  0.0586  0.0344  0.2397
  850MOL0     C14682   3.960   1.360   2.424  0.9195 -0.3458 -0.6598
  850MOL0     H14683   3.939   1.793   2.919 -1.6888 -1.9461 -2.7333
  850MOL0     H14684   4.094   1.988   2.935 -0.5390  1.9698  0.1635
  850MOL0     H14685   4.139   2.192   2.917 -0.0054  0.8969  0.3972
  850MOL0     H14686   4.288   2.171   2.814  0.6148  0.0181  1.6210
  850MOL0     H14687   4.256   2.410   2.910  0.1616  0.7283 -1.2253
  850MOL0     H14688   4.116   2.412   2.817  1.6156  0.6613 -1.8362
  850MOL0     H14689   4.270   2.513   2.678  1.3422  0.8137  0.6861
  850MOL0     H14690   4.252   2.348   2.613  2.7783 -2.2219  0.1372
  850MOL0     H14691   4.490   2.451   2.762  1.0027 -2.8982  1.2427
  850MOL0     H14692   4.454   2.280   2.713 -0.5964  0.5998 -0.1168
  850MOL0     H14693   4.432   2.386   2.469 -1.3136 -0.6712  0.5750
  850MOL0     H14694   4.477   2.537   2.555 -1.2819 -0.4215  1.7413
  850MOL0     H14695   4.696   2.407   2.628 -3.0617 -0.2418  0.6359
  850MOL0     H14696   4.631   2.275   2.523 -1.4454  0.2739 -0.2102
  850MOL0     H14697   4.615   2.451   2.334 -0.7805 -0.2414  0.6260
  850MOL0     H14698   4.779   2.412   2.389  0.1006 -2.3731  1.5310
  850MOL0     H14699   4.635   2.659   2.479 -0.8261 -1.9066  0.0278
  850MOL0     H14700   4.771   2.596   2.559 -0.6725  1.4163  1.0427
  850MOL0     H14701   4.988   2.675   2.477  1.0416  0.6016  0.3431
  850MOL0     H14702   5.196   2.790   2.327 -0.0742  0.0837  0.9180
  850MOL0     H14703   5.173   2.740   2.155 -2.3005 -1.8123  0.2297
  850MOL0     H14704   5.065   2.937   2.104 -0.3088  0.8271 -0.4692
  850MOL0     H14705   5.070   3.003   2.273 -0.2383 -1.9289  1.5522
  850MOL0     H14706   5.297   3.057   2.253  1.9935  0.6250 -1.3204
  850MOL0     H14707   5.218   3.096   2.109 -1.1464 -0.2398  1.6390
  850MOL0     H14708   5.412   3.020   2.064  2.2652 -0.8171  1.7984
  850MOL0     H14709   5.319   2.872   2.017 -1.8850  1.0808 -0.5226
  850MOL0     H14710   5.680   2.768   2.310 -0.6509 -0.8454 -0.5485
  850MOL0     H14711   5.906   2.744   2.222  1.1234  1.1629 -0.8483
  850MOL0     H14712   6.034   2.771   1.587 -0.6836 -0.7678  1.6410
  850MOL0     H14713   6.240   2.757   1.471 -3.3803 -0.9356  0.1587
  850MOL0     H14714   6.476   2.685   1.415  3.1861 -1.1440  0.2575
  850MOL0     H14715   6.425   2.844   1.384 -0.9102 -3.6573 -2.6763
  850MOL0     H14716   6.638   2.849   1.299  2.3985 -1.2986 -0.0758
  850MOL0     H14717   6.672   2.902   1.474 -0.0999  1.1169 -0.3360
  850MOL0     H14718   6.740   2.650   1.497  1.2953  0.0754  0.0444
  850MOL0     H14719   6.670   2.626   1.346 -0.6729  0.7396 -0.6743
  850MOL0     H14720   6.911   2.805   1.388  0.8534  0.6553 -1.3749
  850MOL0     H14721   6.844   2.756   1.234 -0.6971  0.3153  0.2450
  850MOL0     H14722   6.877   2.520   1.298  1.3542 -1.0959 -0.5093
  850MOL0     H14723   6.972   2.557   1.435  0.8283 -1.5513 -0.0660
  850MOL0     H14724   7.052   2.637   1.146  2.5595  2.1350 -0.5984
  850MOL0     H14725   7.134   2.692   1.288  1.5364  1.4688 -4.7270
  850MOL0     H14726   7.099   2.398   1.252  0.6581 -1.5543  3.3745
  850MOL0     H14727   7.192   2.479   1.372  0.2776 -0.9909  0.0646
  850MOL0     H14728   7.332   2.585   1.185 -0.4271  0.1229  4.2162
  850MOL0     H14729   7.350   2.412   1.214 -1.1465 -0.9808  0.5394
  850MOL0     H14730   6.460   2.821   1.822 -0.4800 -2.0825  0.8839
  850MOL0     H14731   6.240   2.866   1.952 -1.9559 -1.0829 -0.5972
  850MOL0     H14732   5.750   2.826   1.827  0.7331  2.3113  0.3986
  850MOL0     H14733   5.529   2.860   1.932 -0.5488  1.5278  0.7910
  850MOL0     H14734   4.038   2.058   2.516  1.9233 -0.3106  0.0509
  850MOL0     H14735   3.927   1.827   2.499  0.7888 -0.0325  1.0699
  850MOL0     H14736   3.734   1.490   2.829 -0.6786 -1.0955  0.5372
  850MOL0     H14737   3.579   1.295   2.803 -0.1976  1.2989  0.3112
  850MOL0     H14738   3.665   0.976   2.498  0.4078 -0.2798  0.2993
  850MOL0     H14739   3.563   1.110   2.422  1.5917  1.6841  1.3969
  850MOL0     H14740   3.367   1.017   2.472 -1.0658 -1.2331  1.8890
  850MOL0     H14741   3.422   0.931   2.611  0.4813 -1.6858 -0.5862
  850MOL0     H14742   3.553   0.767   2.474 -3.1524 -2.3707  3.8576
  850MOL0     H14743   3.483   0.849   2.324 -3.4146 -1.0335 -1.0031
  850MOL0     H14744   3.324   0.714   2.534 -0.4486 -0.5252 -0.1421
  850MOL0     H14745   3.269   0.782   2.379  0.3066 -0.7456  0.6815
  850MOL0     H14746   3.504   0.430   2.269 -0.0665 -2.0112  3.6824
  850MOL0     H14747   3.793   1.168   2.453 -0.8270  1.3899  0.1444
  850MOL0     H14748   4.054   1.312   2.449  0.4046  0.6524  4.0728
  850MOL0     H14749   3.916   1.319   2.332  3.4674  0.6116 -2.4035
  850MOL0     H14750   3.963   1.468   2.407  2.0597 -0.0959  0.9378
  851MOL0     O14751   1.371   6.187   6.530 -0.0742  0.2239  0.1030
  851MOL0     C14752   1.311   6.208   6.419 -0.0515 -0.1604 -1.0108
  851MOL0     O14753   1.371   6.212   6.307  0.2827  0.6820  0.3412
  851MOL0     C14754   1.501   6.185   6.290  0.0486 -0.7935  0.3024
  851MOL0     C14755   1.560   6.068   6.348 -0.8016 -0.7382  0.3298
  851MOL0     C14756   1.675   6.017   6.298 -0.9451  0.4368 -0.7476
  851MOL0     C14757   1.730   6.064   6.177 -0.2165 -0.2516 -0.0630
  851MOL0     O14758   1.843   6.007   6.113  1.0748 -0.5386 -0.4452
  851MOL0     C14759   1.952   6.098   6.110 -0.0023  0.0533  0.3710
  851MOL0     C14760   2.071   6.038   6.046  0.4936 -0.6202  0.3270
  851MOL0     C14761   2.129   5.920   6.131  0.3274 -0.8745 -0.5429
  851MOL0     C14762   2.195   5.960   6.279  0.7856 -0.3917  0.6485
  851MOL0     C14763   2.247   5.830   6.337 -0.2347  0.1624  0.6720
  851MOL0     C14764   2.389   5.788   6.292 -0.1882 -0.7989 -0.7658
  851MOL0     C14765   2.416   5.637   6.316 -0.3073  0.1531 -0.4915
  851MOL0     C14766   2.530   5.583   6.231  0.4649  0.1100  0.5764
  851MOL0     N14767   2.581   5.455   6.279  0.8315 -0.3260  0.8413
  851MOL0     C14768   2.519   5.328   6.268 -0.7983 -0.2481 -0.0542
  851MOL0     C14769   2.629   5.237   6.292  0.4531 -0.1431 -0.6926
  851MOL0     C14770   2.617   5.095   6.260  0.2469 -0.4398 -0.3374
  851MOL0     C14771   2.748   5.018   6.225  0.0692 -0.1844  0.6667
  851MOL0     C14772   2.818   5.064   6.096 -0.3461  0.1112 -0.1271
  851MOL0     C14773   2.940   4.978   6.043 -0.0506 -0.1824 -0.5217
  851MOL0     O14774   2.901   4.839   6.044  0.2105 -0.6958 -0.0450
  851MOL0     C14775   2.995   4.761   6.105 -0.8783 -1.1545 -0.5818
  851MOL0     C14776   2.979   4.719   6.234  0.0967  0.8565 -0.5894
  851MOL0     C14777   3.074   4.636   6.298 -0.2344 -0.0877  0.1799
  851MOL0     C14778   3.191   4.600   6.232 -0.1875  0.2683 -1.3382
  851MOL0     C14779   3.297   4.522   6.300  0.5117  0.6800 -0.6859
  851MOL0     O14780   3.406   4.484   6.224  0.7210 -0.1282  0.2304
  851MOL0     C14781   3.493   4.403   6.289 -0.1311  0.7358  0.3828
  851MOL0     C14782   3.495   4.275   6.239 -0.0588  0.0038  0.5916
  851MOL0     C14783   3.577   4.180   6.288 -0.2832 -0.2588 -0.7111
  851MOL0     C14784   3.661   4.201   6.400 -0.0781 -0.3162 -0.4107
  851MOL0     O14785   3.748   4.121   6.470  0.3274 -0.3680 -0.4622
  851MOL0     C14786   3.750   3.983   6.432  0.2186  0.1284 -0.0799
  851MOL0     C14787   3.854   3.921   6.533  0.6967  0.1453  0.5282
  851MOL0     C14788   3.902   3.780   6.503  0.1586 -1.1817 -0.0269
  851MOL0     C14789   3.797   3.662   6.536 -0.2219  0.4561  0.3801
  851MOL0     C14790   3.867   3.520   6.529 -0.2607 -0.9312  0.2542
  851MOL0     C14791   3.780   3.418   6.611  0.4327  0.7539  0.9843
  851MOL0     C14792   3.810   3.278   6.567  0.7386  0.3268 -0.2146
  851MOL0     C14793   3.720   3.228   6.453 -0.3964  0.6847  0.9458
  851MOL0    Cl14794   3.544   3.246   6.483 -0.2727  0.0315 -0.4350
  851MOL0     C14795   3.654   4.330   6.449 -0.1762  0.1160  0.5138
  851MOL0     C14796   3.582   4.433   6.392 -0.2734  0.4653 -0.4205
  851MOL0     O14797   3.279   4.489   6.417 -0.3306  0.1757  0.0977
  851MOL0     C14798   3.202   4.641   6.100  0.4988 -0.6166  0.9674
  851MOL0     C14799   3.107   4.726   6.034 -0.3107  0.3132  0.6785
  851MOL0     N14800   2.740   5.307   6.325 -0.1724  0.0391 -0.3860
  851MOL0     N14801   2.711   5.438   6.312  0.5621  0.2574  0.1262
  851MOL0     C14802   1.665   6.173   6.119 -0.1885  0.2855  0.4945
  851MOL0     C14803   1.549   6.226   6.173  0.2641 -0.5068  0.1668
  851MOL0     C14804   1.161   6.216   6.421 -0.0499  1.4234 -0.2128
  851MOL0     C14805   1.081   6.227   6.307 -0.1899  0.8696 -0.8489
  851MOL0     C14806   0.940   6.239   6.307  0.4332  0.4392  0.2482
  851MOL0     C14807   0.870   6.239   6.427 -0.0934 -0.1211  0.3740
  851MOL0     O14808   0.741   6.274   6.446  0.7094  0.1366 -1.1429
  851MOL0     C14809   0.646   6.254   6.340 -0.8755 -0.2927 -0.0987
  851MOL0     C14810   0.627   6.102   6.298 -0.1463 -0.5245  0.9964
  851MOL0     C14811   0.531   6.103   6.177 -0.0890 -0.5009 -0.1842
  851MOL0     C14812   0.385   6.125   6.199  0.3787  0.3141 -0.3635
  851MOL0     C14813   0.339   6.030   6.305  0.9120  0.0643  0.6784
  851MOL0     C14814   0.309   5.976   6.409  0.5645  0.0531 -0.0397
  851MOL0     C14815   0.946   6.232   6.548  0.0236  0.2125  1.1685
  851MOL0     C14816   1.079   6.219   6.544 -0.7852  0.3931 -0.9433
  851MOL0     C14817   1.144   6.207   6.681 -0.0113  1.2564  0.2748
  851MOL0     H14818   1.508   6.021   6.431  0.4450 -0.6904  1.1685
  851MOL0     H14819   1.713   5.930   6.351 -0.1304  0.5884 -1.0669
  851MOL0     H14820   1.927   6.186   6.050  2.7707 -0.5833 -1.9161
  851MOL0     H14821   1.976   6.126   6.213 -1.5324 -1.3331  1.1391
  851MOL0     H14822   2.155   6.105   6.027  1.6012 -0.9900  3.3955
  851MOL0     H14823   2.033   5.980   5.962 -2.5136 -2.2195  2.5988
  851MOL0     H14824   2.204   5.870   6.070 -0.2326 -1.9830 -0.3403
  851MOL0     H14825   2.047   5.849   6.149  0.2069 -0.7313 -0.5224
  851MOL0     H14826   2.285   6.022   6.269  1.0303 -0.9327 -0.6696
  851MOL0     H14827   2.115   5.998   6.343 -1.3223  0.9427 -2.5130
  851MOL0     H14828   2.235   5.838   6.446 -2.2649  3.0489  0.3473
  851MOL0     H14829   2.181   5.747   6.311  1.2550 -0.9683  0.3949
  851MOL0     H14830   2.415   5.818   6.190 -0.2282 -1.4892 -0.9863
  851MOL0     H14831   2.464   5.842   6.350 -1.6823 -1.6446  2.1145
  851MOL0     H14832   2.323   5.583   6.294 -0.6882 -0.0732  1.4391
  851MOL0     H14833   2.433   5.626   6.424  0.6168  0.4458 -0.5996
  851MOL0     H14834   2.504   5.579   6.125  2.0956 -1.2101  0.1905
  851MOL0     H14835   2.607   5.661   6.228  1.3077 -0.7283  0.1152
  851MOL0     H14836   2.415   5.301   6.249 -0.8182  0.5330 -1.1463
  851MOL0     H14837   2.579   5.037   6.345  2.9594  1.1116  2.1055
  851MOL0     H14838   2.550   5.080   6.174 -0.1733 -0.0155 -0.0936
  851MOL0     H14839   2.826   5.001   6.300  1.5526  0.1883 -0.7354
  851MOL0     H14840   2.709   4.918   6.207  0.1738  0.1989 -2.0524
  851MOL0     H14841   2.844   5.166   6.123 -3.2433  0.1892  3.0678
  851MOL0     H14842   2.746   5.067   6.014  0.8110  0.7546 -1.1624
  851MOL0     H14843   3.025   4.993   6.110  0.3639  3.5210 -1.6499
  851MOL0     H14844   2.985   5.007   5.948  2.3040  0.8807  0.8469
  851MOL0     H14845   2.895   4.747   6.296  1.9401  3.8886  0.7468
  851MOL0     H14846   3.050   4.601   6.398  1.7884 -1.9904  0.0858
  851MOL0     H14847   3.432   4.241   6.158  1.5376 -3.0286  0.4793
  851MOL0     H14848   3.564   4.077   6.255 -1.2655 -0.1195 -0.7949
  851MOL0     H14849   3.653   3.935   6.446  0.8253 -1.4090 -0.8867
  851MOL0     H14850   3.783   3.976   6.328 -0.7270  2.3734 -0.5894
  851MOL0     H14851   3.942   3.985   6.534  1.9471 -1.4554 -0.7295
  851MOL0     H14852   3.809   3.923   6.633  0.9649 -0.8640  0.6793
  851MOL0     H14853   3.944   3.768   6.403  2.1911 -0.1484  0.6535
  851MOL0     H14854   3.985   3.777   6.573 -0.9981  2.0745  1.7016
  851MOL0     H14855   3.716   3.661   6.462  2.2681 -0.9820 -2.5636
  851MOL0     H14856   3.750   3.680   6.633 -1.4807  1.7064 -0.4146
  851MOL0     H14857   3.970   3.517   6.564  0.4320  1.1494 -1.3579
  851MOL0     H14858   3.877   3.488   6.424  2.0354 -1.8839  0.7060
  851MOL0     H14859   3.820   3.419   6.713  1.9173  0.0486  0.4434
  851MOL0     H14860   3.675   3.447   6.601 -0.0212 -0.3057  2.4180
  851MOL0     H14861   3.775   3.209   6.644  0.6614  0.3302 -0.2471
  851MOL0     H14862   3.913   3.249   6.543  0.0315 -1.6118 -1.0848
  851MOL0     H14863   3.747   3.293   6.369  0.3505 -0.7103  0.0673
  851MOL0     H14864   3.743   3.126   6.421 -0.8681  0.9774 -0.4129
  851MOL0     H14865   3.699   4.358   6.544 -0.1426  0.7859  0.3062
  851MOL0     H14866   3.558   4.528   6.437 -0.1709  0.9126 -1.2938
  851MOL0     H14867   3.287   4.621   6.036 -0.4278 -0.2799 -0.4026
  851MOL0     H14868   3.128   4.769   5.936 -4.6058 -1.8868 -1.4993
  851MOL0     H14869   1.702   6.222   6.030  2.6140 -1.3070  0.6655
  851MOL0     H14870   1.495   6.308   6.128  0.0793 -1.0233 -0.5648
  851MOL0     H14871   1.117   6.209   6.206 -0.0498 -0.4834 -0.5774
  851MOL0     H14872   0.896   6.234   6.207  2.1270  2.5053 -0.6828
  851MOL0     H14873   0.691   6.315   6.263  1.5656  0.5845  1.8946
  851MOL0     H14874   0.550   6.297   6.370 -1.2581  0.0781 -1.7539
  851MOL0     H14875   0.581   6.046   6.380  2.6615 -2.9420  1.0518
  851MOL0     H14876   0.726   6.062   6.276  2.1045  4.0811  1.4890
  851MOL0     H14877   0.543   6.002   6.137 -1.5303 -0.0877 -1.7638
  851MOL0     H14878   0.557   6.177   6.100 -0.9393 -1.7456 -1.7215
  851MOL0     H14879   0.357   6.226   6.231  0.7183  0.6527 -1.1377
  851MOL0     H14880   0.329   6.116   6.106 -0.4711  0.3804  0.1227
  851MOL0     H14881   0.284   5.939   6.507  0.2742 -0.6967 -0.3941
  851MOL0     H14882   0.893   6.228   6.642 -0.4789 -1.2693  0.8418
  851MOL0     H14883   1.213   6.291   6.692  3.8384 -1.5797  0.1808
  851MOL0     H14884   1.077   6.210   6.767  2.7536 -0.5981  2.7075
  851MOL0     H14885   1.184   6.107   6.704 -3.0381 -0.0363  0.3884
  852MOL0     O14886   6.287   5.977  11.159 -0.0019  0.2416 -0.8831
  852MOL0     C14887   6.216   6.077  11.191 -0.3555  0.5344 -0.3502
  852MOL0     O14888   6.252   6.205  11.197 -0.5094 -0.2330  0.0302
  852MOL0     C14889   6.373   6.229  11.136 -0.4014 -0.8854  0.0355
  852MOL0     C14890   6.398   6.225  10.997 -0.3849  0.2362 -0.7964
  852MOL0     C14891   6.529   6.256  10.947  0.3782 -0.1624 -0.3112
  852MOL0     C14892   6.631   6.303  11.025  0.0395  0.8055 -0.6741
  852MOL0     O14893   6.759   6.333  10.969 -0.4450  0.8380  0.1220
  852MOL0     C14894   6.853   6.231  10.989 -0.2087 -0.3632 -0.4301
  852MOL0     C14895   6.983   6.256  10.904 -0.3818 -0.1240  0.6322
  852MOL0     C14896   7.082   6.373  10.949  0.3616 -0.6109  0.0856
  852MOL0     C14897   7.220   6.388  10.880  1.3426  0.0601 -0.4802
  852MOL0     C14898   7.333   6.285  10.924 -0.2689  0.6308 -0.0894
  852MOL0     C14899   7.364   6.163  10.836 -0.3810 -0.1514  0.3095
  852MOL0     C14900   7.477   6.060  10.885  0.1346  0.5413 -1.1141
  852MOL0     C14901   7.619   6.110  10.879 -1.0572 -0.2863  0.0357
  852MOL0     N14902   7.710   6.028  10.956  0.8752 -0.0841 -0.7689
  852MOL0     C14903   7.746   6.060  11.089  1.1739 -0.0285 -0.4891
  852MOL0     C14904   7.820   5.957  11.133 -0.3200  0.3384  0.2720
  852MOL0     C14905   7.893   5.927  11.265 -0.0517 -0.6986  0.5000
  852MOL0     C14906   8.040   5.898  11.252  0.1015 -0.5501  0.5053
  852MOL0     C14907   8.111   5.918  11.382  0.3706 -0.5122  0.0741
  852MOL0     C14908   8.239   5.850  11.372 -0.3021  0.1696 -0.0234
  852MOL0     O14909   8.315   5.879  11.488  0.4514 -0.3725  0.3941
  852MOL0     C14910   8.448   5.872  11.506 -0.4685 -0.7944  0.1206
  852MOL0     C14911   8.501   5.837  11.634 -0.0985 -0.1705 -0.2683
  852MOL0     C14912   8.631   5.836  11.666 -0.1408  0.9388  1.1414
  852MOL0     C14913   8.727   5.827  11.561 -0.5379 -1.2258  0.2036
  852MOL0     C14914   8.870   5.814  11.588 -0.5606 -0.8924 -0.3161
  852MOL0     O14915   8.954   5.791  11.484 -0.2737 -0.6747 -0.0200
  852MOL0     C14916   9.090   5.770  11.502  0.5411  0.4812 -0.9823
  852MOL0     C14917   9.174   5.831  11.593  0.8404 -0.4667  1.0708
  852MOL0     C14918   9.309   5.801  11.605  0.8276  0.4028  0.4773
  852MOL0     C14919   9.365   5.711  11.514  1.3264 -0.4933  0.3863
  852MOL0     O14920   9.497   5.693  11.504 -0.6536 -0.1896  0.0310
  852MOL0     C14921   9.548   5.648  11.627  0.4783  0.4512  0.3344
  852MOL0     C14922   9.670   5.557  11.608  0.6724 -0.0047  0.0043
  852MOL0     C14923   9.803   5.625  11.583 -0.9073 -0.9659  0.2728
  852MOL0     C14924   9.855   5.702  11.715 -0.5389  0.0957  0.2802
  852MOL0     C14925   9.982   5.788  11.690 -0.0531 -0.7401  0.6005
  852MOL0     C14926  10.053   5.810  11.820 -0.4765 -0.0781 -0.5563
  852MOL0     C14927  10.122   5.944  11.841 -0.2260  0.3346 -0.0048
  852MOL0     C14928  10.209   5.992  11.726 -0.8379 -0.5237  0.2685
  852MOL0    Cl14929  10.382   5.993  11.768  0.4277 -0.1210 -0.1679
  852MOL0     C14930   9.278   5.639  11.425 -0.6708  0.8609 -0.4805
  852MOL0     C14931   9.144   5.667  11.421  0.7315 -0.7410 -0.2185
  852MOL0     O14932   8.902   5.819  11.704 -0.2662 -0.2816  0.0192
  852MOL0     C14933   8.680   5.861  11.426 -0.8113 -0.0320  0.1211
  852MOL0     C14934   8.548   5.888  11.405  0.5866  0.9502 -0.6373
  852MOL0     N14935   7.826   5.867  11.022  0.2454 -0.0503 -0.8069
  852MOL0     N14936   7.769   5.913  10.921 -0.2760  0.6242  0.0802
  852MOL0     C14937   6.612   6.302  11.165  0.2550  1.2753 -0.0394
  852MOL0     C14938   6.483   6.273  11.221  0.1714  0.2325 -0.3258
  852MOL0     C14939   6.070   6.053  11.187  0.3388 -0.1500 -0.2053
  852MOL0     C14940   5.990   6.126  11.104  0.4482  1.1332  0.4866
  852MOL0     C14941   5.855   6.117  11.112 -0.4118 -0.3200  0.8290
  852MOL0     C14942   5.800   6.037  11.207  0.8786 -0.0141 -0.7047
  852MOL0     O14943   5.668   6.026  11.229 -0.6757 -0.4469  0.9154
  852MOL0     C14944   5.618   5.940  11.133  0.9161 -0.0722  0.4572
  852MOL0     C14945   5.498   5.860  11.183 -0.2863  0.3589 -0.1779
  852MOL0     C14946   5.396   5.958  11.244 -0.6467 -0.9402  0.5645
  852MOL0     C14947   5.262   5.892  11.251 -0.6794  0.9844  0.4061
  852MOL0     C14948   5.170   5.978  11.315  0.0596  0.2915 -0.0849
  852MOL0     C14949   5.108   6.057  11.376  0.0216  0.3652  1.1271
  852MOL0     C14950   5.880   5.963  11.288  0.7927  0.5749 -0.8161
  852MOL0     C14951   6.016   5.960  11.281 -0.5738 -0.0667  0.4235
  852MOL0     C14952   6.089   5.875  11.388 -0.3459 -0.3896  0.1188
  852MOL0     H14953   6.324   6.207  10.920  0.2998  0.2278 -1.4654
  852MOL0     H14954   6.548   6.236  10.842 -2.0261  0.8597 -1.0143
  852MOL0     H14955   6.885   6.227  11.094  2.8327  0.5251 -1.2286
  852MOL0     H14956   6.814   6.132  10.964 -1.3959 -0.0178 -0.0196
  852MOL0     H14957   6.951   6.280  10.802 -0.5254  0.3390  0.7847
  852MOL0     H14958   7.037   6.161  10.899 -4.2282 -2.5682  1.1794
  852MOL0     H14959   7.096   6.376  11.058 -2.9087 -0.5880  0.6110
  852MOL0     H14960   7.023   6.461  10.923 -0.6366 -1.8930 -2.3015
  852MOL0     H14961   7.200   6.377  10.773  1.2110  0.6566 -0.5201
  852MOL0     H14962   7.250   6.493  10.893 -0.6146  0.8376 -1.8246
  852MOL0     H14963   7.431   6.333  10.923  0.7642 -1.3423  1.0922
  852MOL0     H14964   7.313   6.246  11.025 -3.4000 -1.2744 -1.2875
  852MOL0     H14965   7.273   6.104  10.820 -1.5942  1.8611 -0.6122
  852MOL0     H14966   7.393   6.192  10.735  1.5484 -1.4732  0.4126
  852MOL0     H14967   7.468   5.972  10.820 -1.3141  0.5736 -0.9980
  852MOL0     H14968   7.456   6.028  10.987  0.2969  0.3562 -1.1379
  852MOL0     H14969   7.661   6.109  10.778  0.1141 -2.3901  0.4959
  852MOL0     H14970   7.620   6.211  10.923  0.0280 -0.8136  1.2838
  852MOL0     H14971   7.716   6.152  11.137 -2.5135 -0.2304 -2.0564
  852MOL0     H14972   7.882   6.012  11.333  1.8398 -0.6467  0.8102
  852MOL0     H14973   7.850   5.838  11.310 -0.5499 -1.1469 -0.8166
  852MOL0     H14974   8.063   5.805  11.199  2.1835 -0.4211  1.0997
  852MOL0     H14975   8.089   5.972  11.188  1.0208  2.4222  4.2947
  852MOL0     H14976   8.050   5.880  11.465 -0.4534  1.7276  0.5552
  852MOL0     H14977   8.126   6.025  11.399 -0.1195 -0.4210 -0.0783
  852MOL0     H14978   8.283   5.901  11.286 -0.6067 -1.5470 -1.2404
  852MOL0     H14979   8.232   5.742  11.356  0.9019 -0.3027  2.2665
  852MOL0     H14980   8.437   5.830  11.721 -0.8051 -2.9395 -0.9069
  852MOL0     H14981   8.660   5.830  11.770 -0.8226  0.9910  1.3388
  852MOL0     H14982   9.130   5.910  11.655 -0.8909 -1.2357  0.8775
  852MOL0     H14983   9.381   5.838  11.678  0.9101 -3.4339  2.5685
  852MOL0     H14984   9.578   5.741  11.676  1.1147  1.9437 -2.6532
  852MOL0     H14985   9.479   5.584  11.683  2.1510 -1.5682  0.2303
  852MOL0     H14986   9.678   5.508  11.706 -1.7054 -1.0753 -0.2710
  852MOL0     H14987   9.660   5.475  11.537  2.8874 -0.6414  0.3528
  852MOL0     H14988   9.870   5.544  11.556 -2.2146 -2.5798  1.6025
  852MOL0     H14989   9.814   5.689  11.495  0.2886 -1.4521  0.0549
  852MOL0     H14990   9.875   5.623  11.788  1.1092 -1.2507 -1.5098
  852MOL0     H14991   9.779   5.766  11.761  1.2078  3.0295 -0.6447
  852MOL0     H14992   9.947   5.886  11.653  4.8183  1.6800  1.5781
  852MOL0     H14993  10.049   5.738  11.619 -1.3359 -1.8359  0.1143
  852MOL0     H14994   9.991   5.790  11.908  0.8329 -1.6370  0.0681
  852MOL0     H14995  10.126   5.729  11.831 -0.2761  0.2550  0.7271
  852MOL0     H14996  10.185   5.936  11.929 -1.1622  0.2765  0.6751
  852MOL0     H14997  10.038   6.013  11.856 -0.0013  0.3623  1.2417
  852MOL0     H14998  10.198   5.932  11.635 -0.2427  0.2237 -0.3129
  852MOL0     H14999  10.181   6.091  11.690  1.2133 -0.0847 -0.2380
  852MOL0     H15000   9.310   5.560  11.357 -1.6240 -0.5972  0.7098
  852MOL0     H15001   9.072   5.614  11.360 -0.7116 -0.2955  1.0284
  852MOL0     H15002   8.748   5.882  11.344  0.4143  1.7017  1.4927
  852MOL0     H15003   8.532   5.898  11.298  0.1044  1.6974 -0.5037
  852MOL0     H15004   6.686   6.335  11.237 -0.8311 -2.4866  3.0984
  852MOL0     H15005   6.473   6.288  11.328 -1.2230  0.8999 -0.5240
  852MOL0     H15006   6.036   6.192  11.032 -0.4561 -0.7981 -2.0179
  852MOL0     H15007   5.797   6.196  11.066  2.0138  1.1584  0.1234
  852MOL0     H15008   5.684   5.863  11.092 -1.0061 -0.4403 -2.1998
  852MOL0     H15009   5.583   5.998  11.047  2.2606  1.0145  0.6017
  852MOL0     H15010   5.525   5.782  11.256 -1.2335  0.3746  0.2002
  852MOL0     H15011   5.451   5.798  11.106 -0.1038 -0.6291  0.4755
  852MOL0     H15012   5.386   6.047  11.181 -2.9247 -2.4862 -1.4843
  852MOL0     H15013   5.422   5.986  11.346  2.5081 -0.5441 -0.2537
  852MOL0     H15014   5.223   5.860  11.154  0.5930 -0.7330  0.3943
  852MOL0     H15015   5.277   5.803  11.313  3.4916  0.6647 -0.7369
  852MOL0     H15016   5.059   6.123  11.446 -3.7037 -0.2619 -0.6243
  852MOL0     H15017   5.827   5.900  11.359 -0.8547  0.4428 -2.1143
  852MOL0     H15018   6.061   5.913  11.486 -0.7862  1.0919 -0.5571
  852MOL0     H15019   6.050   5.773  11.377 -0.5406 -0.0536 -3.3193
  852MOL0     H15020   6.198   5.870  11.381 -0.2973  2.0380 -2.8410
  853MOL0     O15021   5.124   8.425   7.184 -0.2531  0.1447 -0.1571
  853MOL0     C15022   5.079   8.428   7.296  0.5418  0.0643  0.9124
  853MOL0     O15023   5.146   8.483   7.408 -0.1416  0.6475  0.2466
  853MOL0     C15024   5.255   8.564   7.382  0.7858 -0.8627  0.0103
  853MOL0     C15025   5.245   8.706   7.365 -0.5042  0.3721 -0.0136
  853MOL0     C15026   5.369   8.774   7.351 -0.1248 -0.1613  0.0097
  853MOL0     C15027   5.496   8.724   7.377  0.7709  1.4496  0.1702
  853MOL0     O15028   5.608   8.802   7.369  0.3219 -1.0001 -0.0865
  853MOL0     C15029   5.724   8.756   7.314 -0.7356  0.6925 -1.1257
  853MOL0     C15030   5.833   8.729   7.411  0.5907  1.4785 -0.4310
  853MOL0     C15031   5.936   8.647   7.340  0.4609  1.5151 -0.5848
  853MOL0     C15032   6.018   8.721   7.235 -0.3267  0.6153  0.4160
  853MOL0     C15033   6.109   8.624   7.169 -0.6192 -0.8614  0.1380
  853MOL0     C15034   6.045   8.551   7.044 -0.1749 -0.1027  0.0097
  853MOL0     C15035   6.136   8.442   6.988 -0.1303  0.1806 -0.2245
  853MOL0     C15036   6.114   8.382   6.850  0.2643 -0.1415  0.2054
  853MOL0     N15037   6.234   8.323   6.791 -0.1634 -0.4764  0.2450
  853MOL0     C15038   6.336   8.395   6.723  1.1843 -0.9077 -0.2726
  853MOL0     C15039   6.416   8.292   6.681 -0.2371  0.0013  0.1116
  853MOL0     C15040   6.545   8.334   6.611 -0.5591  0.4726  0.1963
  853MOL0     C15041   6.659   8.242   6.631 -0.2430 -0.7763 -0.0499
  853MOL0     C15042   6.792   8.317   6.603 -0.2022  0.2339  0.2054
  853MOL0     C15043   6.906   8.213   6.586  0.5558  0.1202 -0.6187
  853MOL0     O15044   7.016   8.285   6.536 -0.1484  1.0920  0.2309
  853MOL0     C15045   7.107   8.321   6.627 -0.1554 -0.5483  0.3563
  853MOL0     C15046   7.241   8.348   6.586  1.3717  0.7552 -0.0833
  853MOL0     C15047   7.332   8.405   6.660 -0.8654 -0.0917 -0.5504
  853MOL0     C15048   7.309   8.437   6.793  0.6688  0.0613  0.0656
  853MOL0     C15049   7.410   8.505   6.873 -0.6191 -0.2026 -0.1694
  853MOL0     O15050   7.405   8.496   7.009 -1.5262  0.3138 -1.2884
  853MOL0     C15051   7.492   8.565   7.089 -0.5265 -1.2179 -1.0702
  853MOL0     C15052   7.489   8.709   7.096  0.1075 -0.2917 -0.1321
  853MOL0     C15053   7.566   8.784   7.187  0.1059  1.0112 -0.1137
  853MOL0     C15054   7.655   8.715   7.273  0.9346  0.3161 -0.1266
  853MOL0     O15055   7.716   8.768   7.386  0.3694  0.2619 -1.0097
  853MOL0     C15056   7.803   8.878   7.352  0.9513  0.2770 -0.0935
  853MOL0     C15057   7.796   8.995   7.444  0.4444  0.7662 -0.3411
  853MOL0     C15058   7.652   9.053   7.457  0.2863 -0.9616 -0.0133
  853MOL0     C15059   7.615   9.111   7.599 -0.0359 -0.6693  0.0591
  853MOL0     C15060   7.465   9.070   7.629  0.0570  1.0250  0.5556
  853MOL0     C15061   7.408   9.159   7.732 -0.3905  0.2785  0.5528
  853MOL0     C15062   7.466   9.150   7.872 -0.2918  0.5099  0.5938
  853MOL0     C15063   7.401   9.248   7.956  0.0058 -0.0180  0.0586
  853MOL0    Cl15064   7.444   9.403   7.892  0.3751  0.1247  0.2108
  853MOL0     C15065   7.664   8.573   7.256  0.1751  0.1262  1.0574
  853MOL0     C15066   7.590   8.498   7.156 -0.6726 -0.3795 -0.2784
  853MOL0     O15067   7.491   8.574   6.810 -0.1473  0.5359 -0.0497
  853MOL0     C15068   7.183   8.395   6.847  0.4374  0.2617  0.8512
  853MOL0     C15069   7.083   8.349   6.761  0.4078  0.8386 -0.0869
  853MOL0     N15070   6.364   8.173   6.717  0.0176 -0.3410  0.3550
  853MOL0     N15071   6.255   8.188   6.775  0.0390  0.5761  0.1382
  853MOL0     C15072   5.501   8.589   7.389  0.0491 -0.7649  1.0064
  853MOL0     C15073   5.385   8.516   7.389 -1.2451 -0.0185  0.3441
  853MOL0     C15074   4.942   8.375   7.306  0.0764  0.5488 -0.0340
  853MOL0     C15075   4.909   8.365   7.439  0.3577  0.1338 -0.9109
  853MOL0     C15076   4.788   8.315   7.493  0.4247 -0.2369 -0.3174
  853MOL0     C15077   4.694   8.276   7.402 -1.0155 -0.1329 -0.1090
  853MOL0     O15078   4.568   8.244   7.458 -0.3516 -0.2475  0.4637
  853MOL0     C15079   4.455   8.226   7.364  0.2293  0.0714  0.2168
  853MOL0     C15080   4.321   8.202   7.448 -0.0433 -0.4654  0.2592
  853MOL0     C15081   4.205   8.264   7.361 -0.7489 -0.9790  0.1231
  853MOL0     C15082   4.213   8.421   7.352  0.0092 -0.2287 -0.0986
  853MOL0     C15083   4.288   8.493   7.464 -0.7915  0.3838  0.4121
  853MOL0     C15084   4.346   8.567   7.542 -0.7768 -0.1286  0.2846
  853MOL0     C15085   4.729   8.277   7.267  0.2218 -0.4063 -0.3577
  853MOL0     C15086   4.853   8.328   7.211 -0.1645  0.8439 -0.6513
  853MOL0     C15087   4.869   8.318   7.066 -0.7244 -0.6536  0.5080
  853MOL0     H15088   5.147   8.752   7.352 -1.1174 -0.8049  0.2739
  853MOL0     H15089   5.365   8.879   7.323  0.1215  0.6852  2.8636
  853MOL0     H15090   5.711   8.666   7.254  3.1081  0.9841 -2.6335
  853MOL0     H15091   5.761   8.834   7.246  0.5868  0.2884 -0.8838
  853MOL0     H15092   5.793   8.674   7.497 -0.2890  0.7206 -1.3013
  853MOL0     H15093   5.879   8.821   7.446  2.1561  0.7275 -0.4229
  853MOL0     H15094   5.889   8.567   7.282  2.6571 -0.4743  0.2359
  853MOL0     H15095   6.001   8.604   7.417  0.1645  1.0331 -0.5993
  853MOL0     H15096   5.951   8.771   7.164  0.5302  0.9401 -0.1799
  853MOL0     H15097   6.082   8.792   7.288  0.8540  0.1812 -0.3871
  853MOL0     H15098   6.201   8.676   7.138  0.0310 -1.3952  1.1333
  853MOL0     H15099   6.145   8.556   7.246 -0.2380 -0.0286  0.7101
  853MOL0     H15100   5.953   8.497   7.069  0.3476 -1.9506 -1.7719
  853MOL0     H15101   6.018   8.630   6.974  2.6125  0.1239 -0.9029
  853MOL0     H15102   6.123   8.358   7.056 -2.0934  0.6920  0.1030
  853MOL0     H15103   6.237   8.483   6.991  0.2211 -0.4737 -1.9652
  853MOL0     H15104   6.031   8.312   6.864  0.7486 -0.4856  1.5546
  853MOL0     H15105   6.073   8.471   6.800  1.2398  0.3553  0.2714
  853MOL0     H15106   6.345   8.502   6.707  0.9315 -0.9635 -0.8057
  853MOL0     H15107   6.526   8.341   6.504 -1.4885  0.4680  0.3584
  853MOL0     H15108   6.589   8.426   6.651  2.4729 -1.6092  2.1503
  853MOL0     H15109   6.654   8.195   6.730 -2.3753 -2.3445 -0.8484
  853MOL0     H15110   6.638   8.171   6.551  1.9918  1.4914 -2.8580
  853MOL0     H15111   6.816   8.385   6.685 -1.6768  0.4156  0.5007
  853MOL0     H15112   6.780   8.381   6.516  0.4731  2.6277  1.7798
  853MOL0     H15113   6.879   8.137   6.512  0.0455  0.3195 -0.6384
  853MOL0     H15114   6.922   8.160   6.680  0.1524  1.1348  0.0348
  853MOL0     H15115   7.250   8.334   6.479  0.4647  1.7760 -0.3073
  853MOL0     H15116   7.429   8.428   6.618  0.1500 -0.0157  1.6605
  853MOL0     H15117   7.412   8.767   7.045  0.6012 -0.5436 -1.2027
  853MOL0     H15118   7.549   8.889   7.205 -0.4491  0.4544  3.2801
  853MOL0     H15119   7.910   8.852   7.348  0.9947  0.1911  1.2915
  853MOL0     H15120   7.784   8.907   7.248  1.8250  0.6054 -0.1721
  853MOL0     H15121   7.827   8.970   7.546 -0.6041  3.9521  0.8630
  853MOL0     H15122   7.874   9.066   7.417 -1.6052  3.3405  0.1672
  853MOL0     H15123   7.642   9.129   7.380 -0.6142 -1.4092 -0.3470
  853MOL0     H15124   7.580   8.973   7.439  0.5221 -1.4529  1.0935
  853MOL0     H15125   7.613   9.221   7.599 -0.8277 -0.6342  2.2246
  853MOL0     H15126   7.676   9.080   7.684 -0.8235 -0.5639  0.6678
  853MOL0     H15127   7.468   8.970   7.674 -0.9358  1.0250  0.6606
  853MOL0     H15128   7.410   9.069   7.534 -0.5598 -0.4262  0.9020
  853MOL0     H15129   7.428   9.258   7.690  1.1224 -0.3360 -0.2519
  853MOL0     H15130   7.302   9.139   7.749 -0.2994 -0.0716  0.7255
  853MOL0     H15131   7.575   9.151   7.872 -0.2200 -1.8530 -0.0840
  853MOL0     H15132   7.454   9.055   7.927 -1.7209  0.6939  0.6503
  853MOL0     H15133   7.293   9.233   7.954 -0.5047  2.8289  1.0226
  853MOL0     H15134   7.449   9.240   8.054  2.3350 -1.4877 -1.1204
  853MOL0     H15135   7.732   8.521   7.322  0.7040 -1.1863 -0.4601
  853MOL0     H15136   7.614   8.395   7.132  5.5551  1.1025 -2.2636
  853MOL0     H15137   7.160   8.423   6.949 -1.5897  3.3770 -0.3233
  853MOL0     H15138   6.983   8.335   6.803 -0.0435  0.5863 -1.1867
  853MOL0     H15139   5.599   8.545   7.404  1.0494  1.2837  0.8191
  853MOL0     H15140   5.391   8.413   7.422  0.2723  0.0748  0.4288
  853MOL0     H15141   4.980   8.389   7.518  0.0885 -1.8807 -0.0088
  853MOL0     H15142   4.752   8.331   7.595 -0.9194 -0.6329 -0.7061
  853MOL0     H15143   4.472   8.150   7.287 -0.5440  0.7524 -0.6545
  853MOL0     H15144   4.443   8.319   7.307 -0.1389 -1.0674 -1.6419
  853MOL0     H15145   4.337   8.241   7.549  0.6908 -1.3771  0.5163
  853MOL0     H15146   4.314   8.093   7.461  2.6923 -0.8638 -0.8597
  853MOL0     H15147   4.111   8.263   7.417 -2.7017  4.0962 -2.4338
  853MOL0     H15148   4.188   8.208   7.269 -0.1288 -1.0380  0.0390
  853MOL0     H15149   4.274   8.439   7.263  0.0222  0.0908 -0.0272
  853MOL0     H15150   4.111   8.458   7.335  0.6147  1.3321 -0.5587
  853MOL0     H15151   4.413   8.622   7.604  0.0996 -1.4273  0.5352
  853MOL0     H15152   4.657   8.227   7.203 -1.0516  1.8762 -0.8137
  853MOL0     H15153   4.806   8.237   7.030  1.2024 -2.4346  0.9687
  853MOL0     H15154   4.849   8.416   7.022 -0.0403 -1.1069 -0.8411
  853MOL0     H15155   4.971   8.289   7.040 -0.9733  0.2887 -1.7124
  854MOL0     O15156   8.799   3.235  10.919 -0.3555  0.3284 -0.1333
  854MOL0     C15157   8.715   3.298  10.848 -0.9109  0.5148 -0.0289
  854MOL0     O15158   8.746   3.351  10.730 -0.3928  0.1631  0.5101
  854MOL0     C15159   8.864   3.328  10.666 -1.1469  0.4100  0.6124
  854MOL0     C15160   8.950   3.425  10.618 -0.1761  0.0905  0.6819
  854MOL0     C15161   9.061   3.393  10.539 -0.1618 -0.2868 -0.1565
  854MOL0     C15162   9.104   3.266  10.523  0.5418  0.1320  0.1285
  854MOL0     O15163   9.220   3.232  10.465 -0.1243 -0.3922  0.3607
  854MOL0     C15164   9.277   3.314  10.365  0.3657  0.0683  0.4638
  854MOL0     C15165   9.402   3.256  10.294 -0.7598 -0.3204 -0.6724
  854MOL0     C15166   9.364   3.118  10.237 -0.1549 -0.2691  1.0040
  854MOL0     C15167   9.477   3.039  10.157  0.3067 -0.0667  0.0839
  854MOL0     C15168   9.604   2.996  10.246 -0.3402 -0.0084  0.5145
  854MOL0     C15169   9.690   2.904  10.157 -0.3235  0.5674 -0.7078
  854MOL0     C15170   9.830   2.907  10.222 -0.3495 -0.8069 -0.2219
  854MOL0     C15171   9.923   2.809  10.150  0.1588  0.1708  0.6416
  854MOL0     N15172  10.064   2.836  10.187 -0.6270  0.5874  0.2019
  854MOL0     C15173  10.143   2.941  10.132  0.6465  0.7646 -0.7537
  854MOL0     C15174  10.245   2.948  10.225  0.1343 -0.6581  0.5869
  854MOL0     C15175  10.372   3.029  10.198  0.1054  0.0113 -0.0650
  854MOL0     C15176  10.499   2.955  10.227  0.0438 -0.0819 -0.2537
  854MOL0     C15177  10.625   3.044  10.199 -0.1289  0.3458 -0.5261
  854MOL0     C15178  10.734   2.950  10.166  0.6952 -0.8107 -0.7651
  854MOL0     O15179  10.844   3.042  10.158 -0.0197 -0.4674 -0.1258
  854MOL0     C15180  10.961   3.000  10.100 -0.6611  0.6027 -0.0733
  854MOL0     C15181  11.048   3.090  10.042  0.7004  0.3001  0.5921
  854MOL0     C15182  11.171   3.066   9.990  0.8483 -0.1755  0.3789
  854MOL0     C15183  11.217   2.936   9.990 -0.8750 -0.6450  0.1339
  854MOL0     C15184  11.354   2.908   9.947  0.0025  0.5249  1.0247
  854MOL0     O15185  11.402   2.793  10.009 -0.1017 -0.2241 -0.0316
  854MOL0     C15186  11.529   2.751  10.000 -1.0352  0.6609  0.5090
  854MOL0     C15187  11.574   2.643   9.910 -0.2519  0.0330 -1.0030
  854MOL0     C15188  11.704   2.590   9.918 -0.3204 -0.0586 -0.6475
  854MOL0     C15189  11.799   2.651  10.004  0.2209  0.6665  0.0759
  854MOL0     O15190  11.932   2.613   9.975 -0.3026  0.2000 -0.5614
  854MOL0     C15191  11.968   2.510  10.070  0.1672  0.2091 -0.4439
  854MOL0     C15192  12.043   2.578  10.181  0.8295 -0.6475  0.7954
  854MOL0     C15193  12.140   2.478  10.248 -0.0116 -0.3235  0.4706
  854MOL0     C15194  12.190   2.528  10.386  0.5637  0.6803  0.2200
  854MOL0     C15195  12.278   2.415  10.452  0.3280 -0.2240 -0.1499
  854MOL0     C15196  12.329   2.460  10.596  0.0597 -0.5108  0.7734
  854MOL0     C15197  12.388   2.347  10.679 -0.0645  0.1792 -0.6122
  854MOL0     C15198  12.452   2.398  10.816 -0.1799  0.6657  0.4077
  854MOL0    Cl15199  12.619   2.444  10.777  0.0544  0.2387 -0.5031
  854MOL0     C15200  11.758   2.743  10.095  0.1369 -0.3556  0.7444
  854MOL0     C15201  11.630   2.792  10.091  0.5682 -0.9371 -0.5722
  854MOL0     O15202  11.416   2.982   9.867 -0.1343  0.2173 -0.9825
  854MOL0     C15203  11.124   2.839  10.035  0.1606 -1.2727  0.0934
  854MOL0     C15204  11.008   2.876  10.102  0.0465  0.9509  0.7495
  854MOL0     N15205  10.220   2.873  10.343 -0.1230 -0.0498  0.0148
  854MOL0     N15206  10.108   2.809  10.320 -0.1307 -0.2969  0.3907
  854MOL0     C15207   9.020   3.160  10.561 -0.2743 -0.3543 -1.1575
  854MOL0     C15208   8.898   3.198  10.625  0.9659  0.3364  0.2322
  854MOL0     C15209   8.572   3.293  10.888 -0.4558  0.2527 -0.2024
  854MOL0     C15210   8.535   3.189  10.979 -0.2039 -0.0627 -0.4752
  854MOL0     C15211   8.408   3.176  11.027 -0.2803 -0.3537  0.3555
  854MOL0     C15212   8.311   3.270  10.991  0.3645  0.0669 -0.2572
  854MOL0     O15213   8.182   3.244  11.033 -0.1827  0.0769  0.8336
  854MOL0     C15214   8.071   3.268  10.954  0.1468  0.1868 -0.2309
  854MOL0     C15215   7.967   3.228  11.060 -0.2393 -0.4397 -0.3165
  854MOL0     C15216   7.902   3.350  11.122  0.4763 -0.1420 -0.1419
  854MOL0     C15217   7.784   3.310  11.217 -0.0775 -0.0432  0.0847
  854MOL0     C15218   7.839   3.287  11.354 -0.2853  0.3412 -0.0306
  854MOL0     C15219   7.892   3.273  11.460  1.0395 -0.8660 -0.3605
  854MOL0     C15220   8.340   3.377  10.911  0.7902  0.4345 -0.2374
  854MOL0     C15221   8.469   3.388  10.849 -0.3745  0.5924 -0.5444
  854MOL0     C15222   8.487   3.491  10.747  0.0475 -0.0352  0.4498
  854MOL0     H15223   8.915   3.526  10.636  2.2281  0.5223  3.5507
  854MOL0     H15224   9.121   3.478  10.507 -1.0691  1.5463  2.6837
  854MOL0     H15225   9.207   3.333  10.284 -1.6502 -0.4965  1.9874
  854MOL0     H15226   9.295   3.411  10.413 -0.8726  1.0797 -1.0282
  854MOL0     H15227   9.473   3.250  10.377  1.3506  2.4781 -2.1026
  854MOL0     H15228   9.456   3.315  10.219  1.9565  0.4157  1.6701
  854MOL0     H15229   9.281   3.132  10.167 -0.7802  0.7970  1.9289
  854MOL0     H15230   9.345   3.062  10.329  1.7657 -1.2391  0.8606
  854MOL0     H15231   9.434   2.946  10.118  0.8569 -0.7741  1.0974
  854MOL0     H15232   9.504   3.103  10.072  0.5601 -0.1215  0.1226
  854MOL0     H15233   9.661   3.089  10.255 -1.5922  0.7864  0.5867
  854MOL0     H15234   9.586   2.949  10.344  1.5660  2.9061  2.4283
  854MOL0     H15235   9.645   2.806  10.174  0.5250  0.2971  0.0921
  854MOL0     H15236   9.703   2.944  10.056 -0.7346  0.2447 -0.8872
  854MOL0     H15237   9.822   2.880  10.328  2.1637 -0.1817  0.1764
  854MOL0     H15238   9.864   3.010  10.212 -3.9100  0.9320  3.0704
  854MOL0     H15239   9.899   2.707  10.181 -0.5741  0.2127  0.2575
  854MOL0     H15240   9.914   2.827  10.042  3.2646  0.4808  0.3566
  854MOL0     H15241  10.122   2.995  10.040 -1.7650  0.3634 -0.4937
  854MOL0     H15242  10.365   3.050  10.091 -0.7049 -0.1509 -0.0477
  854MOL0     H15243  10.369   3.123  10.253  0.3141  0.1206 -0.2395
  854MOL0     H15244  10.498   2.905  10.325 -3.1040  3.9722  2.1009
  854MOL0     H15245  10.506   2.882  10.146  1.6840 -2.0434  1.5208
  854MOL0     H15246  10.645   3.093  10.294 -1.7737 -1.6713  0.9579
  854MOL0     H15247  10.604   3.124  10.128 -2.0757 -1.1611 -1.7639
  854MOL0     H15248  10.714   2.908  10.067 -0.4422 -0.7065 -0.5870
  854MOL0     H15249  10.741   2.867  10.236 -1.7210 -0.2964  0.1737
  854MOL0     H15250  11.009   3.192  10.049  2.0953  0.7370  3.2981
  854MOL0     H15251  11.226   3.148   9.944  1.3422 -0.7164 -0.0194
  854MOL0     H15252  11.508   2.604   9.833 -1.1278  0.3580 -0.4404
  854MOL0     H15253  11.739   2.515   9.848  3.2040  2.1820 -1.5869
  854MOL0     H15254  11.886   2.446  10.105  0.5766 -1.6609 -2.7151
  854MOL0     H15255  12.040   2.448  10.017  1.2691 -0.2714  1.5056
  854MOL0     H15256  12.104   2.656  10.135  0.1977  0.5468  1.9064
  854MOL0     H15257  11.980   2.630  10.254  0.3973  1.1765 -0.8186
  854MOL0     H15258  12.083   2.385  10.258 -1.1640  0.5735  3.2875
  854MOL0     H15259  12.215   2.451  10.173 -0.5035 -0.1171 -0.1079
  854MOL0     H15260  12.099   2.546  10.444  0.4842  0.8219  0.0507
  854MOL0     H15261  12.252   2.615  10.366 -0.2078  0.9391 -1.1326
  854MOL0     H15262  12.371   2.402  10.395  1.4450 -0.1508  1.5906
  854MOL0     H15263  12.222   2.321  10.447 -0.0816 -0.0954  1.6447
  854MOL0     H15264  12.399   2.543  10.579  0.6467 -0.6126  2.5547
  854MOL0     H15265  12.237   2.488  10.648 -0.5375 -2.4669  0.8363
  854MOL0     H15266  12.447   2.282  10.613  1.3841 -0.3206  1.0946
  854MOL0     H15267  12.313   2.279  10.719 -1.0740  2.2221  1.1877
  854MOL0     H15268  12.375   2.464  10.857  0.0970  2.3916 -1.6639
  854MOL0     H15269  12.460   2.299  10.861 -0.0963 -0.3392 -1.7022
  854MOL0     H15270  11.833   2.779  10.164  0.1069  0.4182  0.3777
  854MOL0     H15271  11.608   2.870  10.163  1.1909 -0.3020 -1.0586
  854MOL0     H15272  11.137   2.734  10.012 -2.2934 -1.0242 -3.2661
  854MOL0     H15273  10.939   2.797  10.132 -2.9579  3.0394 -0.1467
  854MOL0     H15274   9.055   3.058  10.547  3.4442  0.7441 -0.9676
  854MOL0     H15275   8.839   3.119  10.669  2.1882 -0.1542  1.0390
  854MOL0     H15276   8.603   3.109  11.006  1.5731  1.5312 -0.0493
  854MOL0     H15277   8.362   3.100  11.090 -6.4043  4.1968  2.4734
  854MOL0     H15278   8.066   3.202  10.867  1.1783 -0.8721  0.4908
  854MOL0     H15279   8.054   3.365  10.906  0.3179  0.4194  0.1740
  854MOL0     H15280   8.016   3.164  11.134  0.6446 -2.9641 -2.9185
  854MOL0     H15281   7.892   3.165  11.010 -0.7526 -0.9135  0.9981
  854MOL0     H15282   7.866   3.421  11.047  0.0840  0.2410  0.4034
  854MOL0     H15283   7.965   3.406  11.193  0.9667 -3.8780  2.6864
  854MOL0     H15284   7.704   3.384  11.211  0.4693  0.5036 -0.7542
  854MOL0     H15285   7.738   3.216  11.185 -0.1979  0.4410 -1.2569
  854MOL0     H15286   7.936   3.269  11.558 -0.3438  0.4176  0.3529
  854MOL0     H15287   8.253   3.440  10.891 -0.2050 -1.5397 -2.5748
  854MOL0     H15288   8.511   3.443  10.651 -0.8798  0.2957  0.0502
  854MOL0     H15289   8.395   3.548  10.739  1.0270  1.6046  0.4700
  854MOL0     H15290   8.556   3.574  10.767 -0.9493  1.2030 -1.0156
  855MOL0     O15291   1.029   9.032   6.641 -0.7667 -0.1353  0.1615
  855MOL0     C15292   1.071   8.969   6.745  0.0843 -0.8329  0.1917
  855MOL0     O15293   0.993   8.959   6.858 -0.2106 -0.3480 -0.1747
  855MOL0     C15294   0.867   9.000   6.865 -0.0094  0.2898 -0.6951
  855MOL0     C15295   0.830   9.128   6.819  0.7274  0.3538  0.0943
  855MOL0     C15296   0.698   9.174   6.843  1.0001  0.0978  0.1143
  855MOL0     C15297   0.592   9.083   6.879  0.1664 -0.7278 -0.1539
  855MOL0     O15298   0.455   9.124   6.889 -0.2289 -0.0037  0.4734
  855MOL0     C15299   0.412   9.255   6.857 -0.8749 -0.0035  0.0267
  855MOL0     C15300   0.399   9.275   6.704  0.5831  0.4171  0.4443
  855MOL0     C15301   0.346   9.413   6.652  0.3348  0.4111 -0.1462
  855MOL0     C15302   0.234   9.472   6.744 -0.2333  0.5301 -0.2206
  855MOL0     C15303   0.157   9.575   6.657  0.7783 -0.2399 -0.1529
  855MOL0     C15304   0.072   9.655   6.754  0.7277 -0.4981 -0.3277
  855MOL0     C15305   0.162   9.774   6.805 -0.0446  0.3725 -0.4368
  855MOL0     C15306   0.142   9.903   6.726  0.0270 -0.6415  0.8092
  855MOL0     N15307   0.227  10.012   6.786 -0.3846 -0.2278  0.8118
  855MOL0     C15308   0.351  10.044   6.735 -0.4402 -0.6254  0.3233
  855MOL0     C15309   0.413  10.115   6.829  0.4904 -0.6188  0.1555
  855MOL0     C15310   0.549  10.183   6.814  0.0116  0.2469  0.0113
  855MOL0     C15311   0.670  10.081   6.805 -0.2049  0.6356 -0.9751
  855MOL0     C15312   0.687  10.011   6.939  0.1203  0.1726  0.2357
  855MOL0     C15313   0.815   9.929   6.946  0.3088 -0.1925 -0.0261
  855MOL0     O15314   0.856   9.896   7.080  0.1954  0.2199  0.0408
  855MOL0     C15315   0.978   9.824   7.094  0.8333 -0.6121 -0.7102
  855MOL0     C15316   1.048   9.766   6.991  1.0262 -0.1872 -0.1602
  855MOL0     C15317   1.171   9.713   7.012 -1.0691  0.0421  0.1021
  855MOL0     C15318   1.225   9.701   7.145  0.1856 -0.5314  0.1967
  855MOL0     C15319   1.362   9.655   7.171 -0.2616 -0.2821  0.3797
  855MOL0     O15320   1.447   9.643   7.068  0.3021 -0.3631  0.2366
  855MOL0     C15321   1.577   9.620   7.074 -0.9279 -0.6043  0.3871
  855MOL0     C15322   1.657   9.614   7.189 -1.5411  0.6126 -0.7554
  855MOL0     C15323   1.798   9.597   7.178  0.7407  0.3610 -0.4134
  855MOL0     C15324   1.858   9.594   7.050  0.0642 -0.0350  0.6268
  855MOL0     O15325   1.997   9.595   7.018 -0.0170  1.0392 -0.2099
  855MOL0     C15326   2.104   9.615   7.108  0.0908  0.0623  0.0110
  855MOL0     C15327   2.116   9.509   7.214  1.0082  0.0060 -0.0013
  855MOL0     C15328   2.258   9.462   7.236  0.1588  0.2420 -1.2585
  855MOL0     C15329   2.266   9.368   7.367  0.6039  0.2914 -0.5306
  855MOL0     C15330   2.405   9.317   7.378 -0.8832  0.2294 -0.6004
  855MOL0     C15331   2.426   9.248   7.522  0.3276 -0.4027  0.1722
  855MOL0     C15332   2.569   9.215   7.563 -0.8464 -0.8129  0.9638
  855MOL0     C15333   2.563   9.162   7.703 -0.2412 -0.0729 -0.6824
  855MOL0    Cl15334   2.724   9.121   7.767 -0.0980  0.2226  0.3395
  855MOL0     C15335   1.778   9.596   6.940 -0.1218  0.7687 -0.4769
  855MOL0     C15336   1.637   9.600   6.945  0.2064  0.2048  0.6361
  855MOL0     O15337   1.388   9.631   7.290  0.2379  0.4870  0.2929
  855MOL0     C15338   1.144   9.747   7.252 -0.3346  0.9923  0.5345
  855MOL0     C15339   1.028   9.812   7.223  0.8035  0.2504 -0.2028
  855MOL0     N15340   0.318  10.154   6.919  0.0952 -0.0936 -0.2013
  855MOL0     N15341   0.210  10.079   6.905  0.0659  0.0374 -0.0022
  855MOL0     C15342   0.627   8.953   6.920 -1.2779  0.2627  0.0055
  855MOL0     C15343   0.766   8.918   6.916 -0.2108 -0.1500 -0.2112
  855MOL0     C15344   1.213   8.926   6.750 -0.5658 -0.8198 -0.7233
  855MOL0     C15345   1.289   8.964   6.856 -0.1886 -0.0406 -0.4993
  855MOL0     C15346   1.419   8.934   6.862 -0.3596  0.1942 -0.3557
  855MOL0     C15347   1.483   8.862   6.759  0.1768  0.0480 -0.7571
  855MOL0     O15348   1.618   8.836   6.769 -0.1360  0.4005  0.4272
  855MOL0     C15349   1.692   8.724   6.721 -0.0013  0.1022  0.5665
  855MOL0     C15350   1.759   8.764   6.587  0.0234  0.0720 -1.1077
  855MOL0     C15351   1.834   8.645   6.518  0.1462 -0.0797 -1.2351
  855MOL0     C15352   1.903   8.704   6.388  0.9253  0.5700 -0.4839
  855MOL0     C15353   1.861   8.627   6.267  0.4967 -0.2483 -0.6768
  855MOL0     C15354   1.827   8.563   6.174  0.2533  0.2158 -0.2217
  855MOL0     C15355   1.411   8.833   6.644 -0.0491 -0.3036 -0.7196
  855MOL0     C15356   1.273   8.860   6.642  0.8286  0.4490  0.6308
  855MOL0     C15357   1.196   8.809   6.524 -0.2034  0.3522 -0.5843
  855MOL0     H15358   0.893   9.204   6.775 -2.3013  2.2958 -1.1731
  855MOL0     H15359   0.661   9.274   6.822  0.2449 -0.4449 -1.2692
  855MOL0     H15360   0.311   9.263   6.897 -0.4764  1.9584  0.7710
  855MOL0     H15361   0.477   9.332   6.900  1.4243 -0.8782 -1.6249
  855MOL0     H15362   0.340   9.193   6.661 -0.7848 -0.2811  3.3913
  855MOL0     H15363   0.496   9.244   6.666  0.0761 -0.8234  0.1144
  855MOL0     H15364   0.296   9.405   6.556  0.3572  0.6727 -0.1808
  855MOL0     H15365   0.440   9.470   6.651  2.3569 -2.5580  2.2816
  855MOL0     H15366   0.161   9.399   6.779 -0.1662  1.1453  1.2795
  855MOL0     H15367   0.290   9.519   6.825  1.7718 -0.5652 -0.8968
  855MOL0     H15368   0.228   9.635   6.599  1.4147 -2.0705 -1.3670
  855MOL0     H15369   0.092   9.524   6.585  1.5711 -0.7226 -0.5332
  855MOL0     H15370  -0.028   9.691   6.726  0.4141  0.4858  1.8038
  855MOL0     H15371   0.038   9.592   6.837 -1.6313 -1.6530 -2.0515
  855MOL0     H15372   0.269   9.748   6.802 -0.2065 -0.2614 -0.9999
  855MOL0     H15373   0.160   9.789   6.913  1.4951 -2.3523  0.0822
  855MOL0     H15374   0.170   9.884   6.622 -0.3859  1.4113  0.2921
  855MOL0     H15375   0.035   9.926   6.725  0.1773  0.0707  0.4663
  855MOL0     H15376   0.389  10.011   6.639 -0.0876  1.1348 -0.1818
  855MOL0     H15377   0.537  10.256   6.735 -1.3748  1.2969  1.1370
  855MOL0     H15378   0.575  10.245   6.901 -0.6604 -1.9258  1.8814
  855MOL0     H15379   0.657  10.004   6.728 -0.8405 -2.1924  1.7425
  855MOL0     H15380   0.759  10.142   6.792 -0.8854  1.4426 -2.0204
  855MOL0     H15381   0.604   9.940   6.948 -1.6010  2.0283 -0.3118
  855MOL0     H15382   0.690  10.086   7.019  1.3801  1.0586 -0.6005
  855MOL0     H15383   0.902   9.987   6.911  1.4871 -0.9867  1.4663
  855MOL0     H15384   0.809   9.843   6.879  1.4042 -1.6948  1.7135
  855MOL0     H15385   1.024   9.786   6.887 -2.6979  2.0587  0.9514
  855MOL0     H15386   1.224   9.697   6.918 -1.4958  1.1449 -0.3451
  855MOL0     H15387   1.627   9.624   7.292  0.1287 -1.0482 -0.0477
  855MOL0     H15388   1.856   9.591   7.269  0.4964  0.7533 -0.2284
  855MOL0     H15389   2.193   9.615   7.044  0.0403  0.1355 -0.0600
  855MOL0     H15390   2.090   9.709   7.163 -2.4570  0.1121 -0.5849
  855MOL0     H15391   2.070   9.544   7.307 -0.2341  0.9870 -0.9451
  855MOL0     H15392   2.063   9.422   7.175  2.8361 -0.2901 -1.9897
  855MOL0     H15393   2.291   9.393   7.158  4.4108  1.5282 -0.8555
  855MOL0     H15394   2.326   9.547   7.243  1.5100 -0.8487 -0.7166
  855MOL0     H15395   2.203   9.278   7.360  2.7928 -1.4508  0.9317
  855MOL0     H15396   2.234   9.425   7.454  0.0833  0.7642 -1.0238
  855MOL0     H15397   2.487   9.389   7.372  1.3959 -2.2911 -1.9599
  855MOL0     H15398   2.424   9.252   7.292 -0.2156  0.1480 -0.3964
  855MOL0     H15399   2.390   9.312   7.603  0.3165 -1.7844  1.2874
  855MOL0     H15400   2.359   9.163   7.535  1.9864 -1.4224  2.9172
  855MOL0     H15401   2.628   9.307   7.555 -0.8004 -0.7233  2.1902
  855MOL0     H15402   2.617   9.138   7.502 -2.0302  0.1891 -1.3717
  855MOL0     H15403   2.514   9.237   7.767  1.0738  0.8299 -0.6964
  855MOL0     H15404   2.500   9.073   7.695  0.5565 -0.7718  0.4509
  855MOL0     H15405   1.842   9.594   6.852  0.9366 -1.0879  0.2754
  855MOL0     H15406   1.576   9.605   6.856  2.4664 -2.2081 -1.2005
  855MOL0     H15407   1.181   9.723   7.352  2.1508 -3.5003 -1.1870
  855MOL0     H15408   0.960   9.855   7.296  1.0873  2.6431 -1.2550
  855MOL0     H15409   0.552   8.891   6.968 -0.4361  0.3404  1.4479
  855MOL0     H15410   0.781   8.815   6.947 -3.8704 -0.8967 -0.4281
  855MOL0     H15411   1.236   9.014   6.936 -2.4734  0.5410 -2.2558
  855MOL0     H15412   1.481   8.973   6.942  1.4243 -0.6735 -1.2489
  855MOL0     H15413   1.635   8.632   6.702  1.5653 -0.3868 -2.5088
  855MOL0     H15414   1.768   8.688   6.792  1.9432 -1.8830 -2.2730
  855MOL0     H15415   1.826   8.847   6.611  0.2427 -0.4322  0.1277
  855MOL0     H15416   1.679   8.791   6.518 -2.5632 -2.4530  0.6477
  855MOL0     H15417   1.770   8.560   6.494  0.8228 -1.2274  0.7823
  855MOL0     H15418   1.913   8.618   6.588 -2.1856  2.0987  2.6177
  855MOL0     H15419   1.877   8.809   6.379  0.2150  0.5815  1.2971
  855MOL0     H15420   2.012   8.698   6.395  0.8241 -1.5970 -0.0322
  855MOL0     H15421   1.780   8.501   6.100  1.9580 -0.3915 -0.8405
  855MOL0     H15422   1.470   8.792   6.563  2.8609  0.4804  0.8706
  855MOL0     H15423   1.260   8.742   6.466  1.1917  1.0424  0.1100
  855MOL0     H15424   1.106   8.756   6.554  2.9631 -3.5016  3.3748
  855MOL0     H15425   1.163   8.893   6.462 -1.8817  0.9347  1.0175
  856MOL0     O15426   2.309   3.145   1.934  0.3326  0.2356  0.3017
  856MOL0     C15427   2.262   3.059   1.860 -0.2741 -0.0056 -0.5425
  856MOL0     O15428   2.326   2.947   1.807 -0.5687 -0.3280  0.3777
  856MOL0     C15429   2.464   2.938   1.816  0.5162  0.7158 -0.9728
  856MOL0     C15430   2.539   2.978   1.706 -0.1534 -0.5938 -0.1395
  856MOL0     C15431   2.678   2.966   1.711 -0.0103 -0.8463 -0.0199
  856MOL0     C15432   2.747   2.900   1.816  0.0702 -0.0714 -0.3469
  856MOL0     O15433   2.881   2.877   1.820  0.0020  0.2782  0.1548
  856MOL0     C15434   2.942   2.855   1.685 -0.1541 -0.3709 -0.2544
  856MOL0     C15435   2.972   2.706   1.675  0.8938  0.3485 -0.3545
  856MOL0     C15436   3.006   2.659   1.820  0.3052  0.1873 -0.1638
  856MOL0     C15437   3.063   2.519   1.831  0.9379  0.5013  0.1974
  856MOL0     C15438   3.101   2.486   1.976 -1.1451 -0.7491 -0.1700
  856MOL0     C15439   3.178   2.351   1.990 -0.0752  0.3214 -0.1872
  856MOL0     C15440   3.318   2.360   1.926 -0.0913  0.7789 -0.7698
  856MOL0     C15441   3.434   2.311   2.019  0.3194 -0.2104 -0.1538
  856MOL0     N15442   3.402   2.176   2.060  0.4912  0.7349 -0.4312
  856MOL0     C15443   3.374   2.063   1.984 -0.3383  0.1154 -0.1739
  856MOL0     C15444   3.352   1.957   2.070 -0.0546  0.3818 -0.6389
  856MOL0     C15445   3.328   1.811   2.037  0.4621 -0.0723 -0.3591
  856MOL0     C15446   3.409   1.707   2.112 -0.8073  0.0951  0.4377
  856MOL0     C15447   3.377   1.566   2.069 -0.6261  0.6671 -1.4633
  856MOL0     C15448   3.234   1.506   2.066 -0.6346  0.0187  0.4966
  856MOL0     O15449   3.242   1.387   2.138  0.2406  0.3203  0.2745
  856MOL0     C15450   3.136   1.292   2.122 -0.4057 -1.4319 -0.9176
  856MOL0     C15451   3.143   1.180   2.204  0.4224  0.2710 -0.0193
  856MOL0     C15452   3.039   1.085   2.215  0.2859 -0.0393 -0.8795
  856MOL0     C15453   2.919   1.111   2.136 -0.0168 -0.3971 -0.6217
  856MOL0     C15454   2.803   1.021   2.149  0.2237 -0.7541  0.0029
  856MOL0     O15455   2.821   0.900   2.224 -0.2237 -0.5246  0.9286
  856MOL0     C15456   2.755   0.788   2.175 -0.0819 -0.2271 -0.0703
  856MOL0     C15457   2.721   0.688   2.267 -0.2627 -0.6531  0.5853
  856MOL0     C15458   2.649   0.572   2.243 -0.7465 -0.6277  0.3882
  856MOL0     C15459   2.612   0.550   2.106 -0.1771  0.6627 -0.3733
  856MOL0     O15460   2.538   0.440   2.058  0.7018  0.4625 -0.2816
  856MOL0     C15461   2.501   0.347   2.153 -0.2686 -0.9349  0.6300
  856MOL0     C15462   2.439   0.221   2.082 -0.2528 -0.4204 -0.4370
  856MOL0     C15463   2.531   0.141   1.990 -1.0723  0.0365  0.3451
  856MOL0     C15464   2.522   0.180   1.839 -0.1548 -0.3943 -0.3332
  856MOL0     C15465   2.644   0.131   1.759  0.8835 -0.2906 -0.1798
  856MOL0     C15466   2.764   0.215   1.784  0.4970 -0.7144  0.0604
  856MOL0     C15467   2.788   0.303   1.659 -0.7316 -0.1111  0.1861
  856MOL0     C15468   2.908   0.388   1.684 -0.4263  0.7788 -0.1005
  856MOL0    Cl15469   2.868   0.518   1.800 -0.0936  0.3952 -0.0757
  856MOL0     C15470   2.653   0.645   2.011  0.2110 -0.7696  0.9018
  856MOL0     C15471   2.718   0.762   2.041 -0.0184  0.3290 -0.4743
  856MOL0     O15472   2.698   1.059   2.086  0.0618  0.3701 -0.4867
  856MOL0     C15473   2.920   1.222   2.046  0.9377 -0.7055  0.5737
  856MOL0     C15474   3.027   1.314   2.034 -0.2680  0.1119 -0.5408
  856MOL0     N15475   3.356   2.008   2.200  0.3974  0.0174 -0.1818
  856MOL0     N15476   3.385   2.143   2.194  0.9411  0.5249 -0.5332
  856MOL0     C15477   2.673   2.881   1.931 -0.0280 -0.0000  0.2108
  856MOL0     C15478   2.531   2.905   1.926 -0.1188 -0.2878  0.0814
  856MOL0     C15479   2.111   3.057   1.841  0.8128 -0.9458 -0.1766
  856MOL0     C15480   2.051   2.933   1.797  0.3616 -0.0729 -0.5483
  856MOL0     C15481   1.919   2.909   1.823  0.0504 -0.4588  0.6798
  856MOL0     C15482   1.830   3.010   1.861 -0.0162  0.2828 -0.0455
  856MOL0     O15483   1.690   2.994   1.868  0.3657 -0.1784 -0.2817
  856MOL0     C15484   1.627   2.924   1.975  0.2332 -0.8530  1.0129
  856MOL0     C15485   1.633   2.996   2.111 -0.7458 -0.0228 -0.3027
  856MOL0     C15486   1.544   2.928   2.209  0.6085  0.3425  0.2517
  856MOL0     C15487   1.592   2.800   2.275  0.3115  0.2849  0.6706
  856MOL0     C15488   1.497   2.772   2.380  0.5381 -0.2254 -0.2600
  856MOL0     C15489   1.421   2.749   2.462  1.0136  0.1785  0.6128
  856MOL0     C15490   1.880   3.142   1.869  0.8606  0.8119 -0.7863
  856MOL0     C15491   2.017   3.165   1.882 -0.6942 -0.0466  0.4433
  856MOL0     C15492   2.061   3.299   1.920 -1.0465  0.4739 -0.6973
  856MOL0     H15493   2.497   3.009   1.611 -1.0625  0.1112  0.4762
  856MOL0     H15494   2.728   2.996   1.619 -1.8120 -0.6477 -0.9851
  856MOL0     H15495   2.883   2.877   1.596  1.2094  4.0340 -0.2978
  856MOL0     H15496   3.030   2.919   1.677  1.3392 -1.7624  2.9135
  856MOL0     H15497   3.058   2.683   1.612  0.5474 -0.0374 -0.6896
  856MOL0     H15498   2.882   2.654   1.640  1.7532 -1.0260 -0.5952
  856MOL0     H15499   2.917   2.654   1.884  0.2432 -1.0617 -0.3353
  856MOL0     H15500   3.062   2.741   1.867 -3.2494  2.9494 -0.2554
  856MOL0     H15501   2.979   2.450   1.815 -0.4888  1.7744  1.7381
  856MOL0     H15502   3.141   2.503   1.757 -2.3736 -1.7339 -3.1881
  856MOL0     H15503   3.157   2.574   2.011  2.2456 -2.1809 -1.4966
  856MOL0     H15504   3.016   2.483   2.044 -0.5458  2.5437  0.9393
  856MOL0     H15505   3.184   2.323   2.095  0.8469 -0.4716 -0.4312
  856MOL0     H15506   3.116   2.272   1.947  0.6354 -0.3314 -0.0191
  856MOL0     H15507   3.334   2.461   1.886  2.7000  1.2125  1.0882
  856MOL0     H15508   3.314   2.287   1.845  1.7612 -0.7091  0.3876
  856MOL0     H15509   3.524   2.312   1.956  1.3072 -3.1197  1.0192
  856MOL0     H15510   3.448   2.378   2.104 -0.5503  2.7042 -2.1566
  856MOL0     H15511   3.382   2.047   1.877 -0.6699 -1.1120 -0.0361
  856MOL0     H15512   3.220   1.800   2.043  0.4013  0.2632 -0.7808
  856MOL0     H15513   3.350   1.800   1.930 -3.8771  2.1080 -1.7016
  856MOL0     H15514   3.518   1.714   2.105  0.3666 -4.7885  6.1696
  856MOL0     H15515   3.384   1.715   2.218  2.1554  1.4772  1.1523
  856MOL0     H15516   3.445   1.501   2.125 -1.9858 -1.3659 -2.0539
  856MOL0     H15517   3.410   1.556   1.966 -2.9372 -0.7930 -2.1282
  856MOL0     H15518   3.215   1.482   1.961  0.5953  0.4224  0.1675
  856MOL0     H15519   3.164   1.579   2.108 -0.4857  0.5450 -0.1607
  856MOL0     H15520   3.242   1.173   2.248  0.5210  2.2299  0.1133
  856MOL0     H15521   3.051   1.002   2.284 -2.7567 -0.0233 -0.1954
  856MOL0     H15522   2.760   0.714   2.365  1.5533 -2.4153  0.3929
  856MOL0     H15523   2.623   0.501   2.321  1.9397 -2.3580 -0.1571
  856MOL0     H15524   2.578   0.311   2.222 -2.6505 -1.0141  3.4722
  856MOL0     H15525   2.425   0.391   2.219  0.5202  0.5162  0.6117
  856MOL0     H15526   2.394   0.161   2.162 -1.0707  1.1024  0.3100
  856MOL0     H15527   2.360   0.257   2.015  1.0716  3.3944 -0.2315
  856MOL0     H15528   2.635   0.155   2.023 -1.4431  0.2694  1.4543
  856MOL0     H15529   2.505   0.036   2.007  0.1007 -0.0635  1.7235
  856MOL0     H15530   2.510   0.287   1.825 -0.5861 -0.5685 -1.3906
  856MOL0     H15531   2.436   0.137   1.785  1.2060  1.6603 -4.5441
  856MOL0     H15532   2.601   0.146   1.659 -3.4215 -1.2686  1.3349
  856MOL0     H15533   2.662   0.025   1.779 -3.7350 -1.0005  1.3388
  856MOL0     H15534   2.752   0.281   1.871 -0.2610 -1.6019  0.6446
  856MOL0     H15535   2.853   0.153   1.795 -0.3414 -2.7507 -3.3716
  856MOL0     H15536   2.703   0.368   1.636 -0.2113  0.0613 -1.3761
  856MOL0     H15537   2.810   0.238   1.574  1.2283 -1.5666  1.7247
  856MOL0     H15538   2.986   0.323   1.724 -0.4620 -0.5549 -2.0739
  856MOL0     H15539   2.943   0.436   1.592 -0.9267 -1.3381 -1.4385
  856MOL0     H15540   2.628   0.626   1.907  0.3672 -1.5676  1.0059
  856MOL0     H15541   2.746   0.832   1.962 -1.7211  1.8088  0.1794
  856MOL0     H15542   2.830   1.250   1.991  2.5770  2.0484 -0.9361
  856MOL0     H15543   3.019   1.394   1.961  0.9307  1.3804  0.6691
  856MOL0     H15544   2.715   2.859   2.029 -0.6950  0.3470  0.5830
  856MOL0     H15545   2.467   2.894   2.014 -3.1020 -0.6173 -1.9756
  856MOL0     H15546   2.126   2.860   1.764 -2.1310 -2.5133 -1.2372
  856MOL0     H15547   1.880   2.812   1.792  2.7759 -1.6797  0.7035
  856MOL0     H15548   1.676   2.827   1.981 -0.9443 -1.5226  0.1821
  856MOL0     H15549   1.521   2.917   1.949  0.2755 -1.1383  0.9151
  856MOL0     H15550   1.614   3.103   2.097  1.0621  0.3406 -0.2120
  856MOL0     H15551   1.739   2.995   2.138 -0.5134  4.1284 -0.4494
  856MOL0     H15552   1.446   2.912   2.162  0.9398  1.1426 -0.7418
  856MOL0     H15553   1.516   3.004   2.282  2.3426  0.5950  0.6897
  856MOL0     H15554   1.596   2.721   2.199 -1.4288  0.0497  0.7894
  856MOL0     H15555   1.688   2.807   2.328 -0.1594  1.8268  1.3806
  856MOL0     H15556   1.335   2.723   2.521  1.2002  0.7248  1.1327
  856MOL0     H15557   1.802   3.214   1.892 -2.6711 -3.1522  1.0865
  856MOL0     H15558   1.985   3.377   1.911 -1.2133  0.4892  0.5643
  856MOL0     H15559   2.086   3.290   2.027  2.2615 -2.3429 -1.5337
  856MOL0     H15560   2.151   3.327   1.864  1.6372 -0.9682  2.5018
  857MOL0     O15561   2.956   3.500   6.205  0.4558  0.7939 -0.0276
  857MOL0     C15562   2.968   3.488   6.330  0.4535  1.1025  1.6095
  857MOL0     O15563   3.081   3.501   6.396 -0.0768  0.1334 -0.7698
  857MOL0     C15564   3.201   3.520   6.336 -0.2857 -0.4716  0.3959
  857MOL0     C15565   3.256   3.641   6.351  0.5463 -0.9033  0.2803
  857MOL0     C15566   3.381   3.664   6.304 -0.2104 -0.9426 -0.3119
  857MOL0     C15567   3.460   3.567   6.240  0.8828 -0.5295 -0.3239
  857MOL0     O15568   3.592   3.595   6.208 -0.2463 -0.1535 -0.8032
  857MOL0     C15569   3.674   3.492   6.153 -0.4429 -0.3582 -0.2619
  857MOL0     C15570   3.824   3.545   6.138 -0.2337 -0.8515 -0.1896
  857MOL0     C15571   3.894   3.457   6.036  0.7060  1.1260  0.3551
  857MOL0     C15572   3.908   3.309   6.087 -0.0873 -0.8916 -0.6367
  857MOL0     C15573   3.965   3.219   5.981  0.8969 -0.0126 -1.2828
  857MOL0     C15574   3.930   3.075   5.999 -0.2700  0.0377  0.9642
  857MOL0     C15575   4.007   3.016   6.111  0.2630 -0.3931 -0.5125
  857MOL0     C15576   3.931   2.896   6.175  0.1402  0.0004  0.5565
  857MOL0     N15577   3.976   2.865   6.318  0.1552  0.1633 -0.2346
  857MOL0     C15578   4.103   2.811   6.347 -0.3098  1.0826 -0.2817
  857MOL0     C15579   4.116   2.824   6.478 -0.0714 -0.4672 -1.0173
  857MOL0     C15580   4.232   2.794   6.575  0.3513 -0.4893 -0.0006
  857MOL0     C15581   4.354   2.735   6.507 -0.0249 -0.1146  0.0945
  857MOL0     C15582   4.480   2.816   6.511  0.2983  0.0827  0.2963
  857MOL0     C15583   4.598   2.735   6.455 -1.1729 -0.2585 -0.5316
  857MOL0     O15584   4.724   2.808   6.472 -0.2206  0.1134 -0.4476
  857MOL0     C15585   4.853   2.760   6.441 -0.1623 -0.8781  0.1080
  857MOL0     C15586   4.872   2.626   6.415 -1.1041 -0.0054  0.0581
  857MOL0     C15587   4.999   2.583   6.378  0.2028  0.4423  0.0913
  857MOL0     C15588   5.108   2.667   6.364  0.3203  0.1285 -0.2339
  857MOL0     C15589   5.240   2.611   6.313  0.9973  0.5809 -0.4851
  857MOL0     O15590   5.335   2.704   6.283 -0.1394 -0.0397 -0.2862
  857MOL0     C15591   5.464   2.687   6.318  0.0347  0.9281 -0.9493
  857MOL0     C15592   5.551   2.795   6.300  0.3659 -0.5999 -0.1936
  857MOL0     C15593   5.684   2.793   6.334 -0.8732  0.2865  0.4901
  857MOL0     C15594   5.740   2.675   6.385  0.4132  0.3290 -0.7218
  857MOL0     O15595   5.871   2.693   6.416 -0.4521  0.4607  0.2610
  857MOL0     C15596   5.932   2.580   6.485  0.3703 -0.2301  0.9352
  857MOL0     C15597   6.057   2.635   6.554 -0.1431  0.3898 -0.1823
  857MOL0     C15598   6.156   2.715   6.463  0.7691  0.4404 -0.6537
  857MOL0     C15599   6.255   2.784   6.546  0.1456  0.1105  0.2243
  857MOL0     C15600   6.350   2.853   6.466 -0.3723 -0.9872 -0.4340
  857MOL0     C15601   6.432   2.966   6.544  0.4946  0.0944  0.9665
  857MOL0     C15602   6.533   3.038   6.454  0.4460 -0.2851  0.2891
  857MOL0     C15603   6.672   2.976   6.448  0.2402 -0.3002  0.0286
  857MOL0    Cl15604   6.757   2.994   6.290 -0.0422  0.0882 -0.3107
  857MOL0     C15605   5.660   2.558   6.407  0.0304 -0.3868  0.4399
  857MOL0     C15606   5.521   2.562   6.367 -0.1021 -0.1950  1.0624
  857MOL0     O15607   5.250   2.491   6.288  0.3779 -0.5838  0.7328
  857MOL0     C15608   5.091   2.806   6.390 -0.2573  0.0867 -0.0249
  857MOL0     C15609   4.963   2.846   6.436 -0.6520 -0.0925  0.0359
  857MOL0     N15610   4.000   2.888   6.521  0.0473 -0.1743 -0.7298
  857MOL0     N15611   3.912   2.911   6.428 -0.0917 -0.3968 -0.5506
  857MOL0     C15612   3.395   3.449   6.205  0.4476  0.2318  0.7974
  857MOL0     C15613   3.269   3.428   6.257  0.3465  0.8121  0.3916
  857MOL0     C15614   2.853   3.438   6.412 -0.9116  0.6346  0.1357
  857MOL0     C15615   2.747   3.378   6.348  0.4963  0.0287  1.4086
  857MOL0     C15616   2.635   3.338   6.403  0.0519  0.3933  0.0611
  857MOL0     C15617   2.617   3.333   6.541 -0.0877  0.3453 -0.4299
  857MOL0     O15618   2.509   3.276   6.605  0.1271  1.0385 -0.1816
  857MOL0     C15619   2.391   3.249   6.531 -0.0508  0.3417 -0.0730
  857MOL0     C15620   2.279   3.238   6.635  0.4622  0.5570 -0.1626
  857MOL0     C15621   2.286   3.108   6.713 -0.6872  0.9060 -0.7843
  857MOL0     C15622   2.163   3.087   6.797  1.3262 -0.0905 -0.2276
  857MOL0     C15623   2.043   3.050   6.719  0.0230  0.0190 -0.3697
  857MOL0     C15624   1.951   3.027   6.646 -0.0739 -0.5741  0.1469
  857MOL0     C15625   2.728   3.382   6.616 -0.1592 -0.2339 -0.3126
  857MOL0     C15626   2.844   3.440   6.560  0.0558 -0.6932  0.4156
  857MOL0     C15627   2.944   3.501   6.653  0.2841 -0.1102 -0.3694
  857MOL0     H15628   3.214   3.710   6.423  0.8757  2.0375 -2.1395
  857MOL0     H15629   3.438   3.752   6.334 -1.4790  0.0906 -0.7992
  857MOL0     H15630   3.664   3.401   6.213 -2.5247  0.0563  0.0877
  857MOL0     H15631   3.646   3.476   6.049  1.4506 -0.8794 -0.7312
  857MOL0     H15632   3.881   3.545   6.231  1.7759  2.9117 -1.2020
  857MOL0     H15633   3.826   3.652   6.114 -0.7748 -0.6861  0.4896
  857MOL0     H15634   3.985   3.497   5.988  0.0208  0.9414 -1.1633
  857MOL0     H15635   3.834   3.443   5.946  0.4702 -1.0398  0.7934
  857MOL0     H15636   3.974   3.309   6.174 -3.8439 -2.7079  2.5425
  857MOL0     H15637   3.808   3.275   6.114 -0.8859  1.5729 -0.3076
  857MOL0     H15638   3.918   3.244   5.886 -1.8773 -1.5587 -0.4241
  857MOL0     H15639   4.074   3.226   5.979  0.9722 -0.7205 -0.5409
  857MOL0     H15640   3.822   3.058   6.005 -0.6070  0.5186 -2.0863
  857MOL0     H15641   3.965   3.027   5.908 -1.7291 -1.4242  1.1408
  857MOL0     H15642   4.006   3.083   6.198 -5.1521 -0.1090 -0.5053
  857MOL0     H15643   4.111   2.992   6.085 -0.0166 -2.2260 -0.0747
  857MOL0     H15644   3.823   2.912   6.170 -0.2011 -1.6848  1.8442
  857MOL0     H15645   3.942   2.811   6.108 -3.8864  1.2339 -2.0825
  857MOL0     H15646   4.176   2.769   6.278 -2.0458  1.3058 -2.3350
  857MOL0     H15647   4.259   2.883   6.632 -1.5524 -0.4653  0.9594
  857MOL0     H15648   4.187   2.723   6.646 -3.2486 -0.6252 -2.1934
  857MOL0     H15649   4.377   2.641   6.558  0.1863 -0.3170 -0.3623
  857MOL0     H15650   4.326   2.714   6.403 -3.5212  1.1320  0.6480
  857MOL0     H15651   4.495   2.854   6.613 -1.0653  0.6650  0.2988
  857MOL0     H15652   4.466   2.907   6.453 -0.0899 -0.0498  0.1775
  857MOL0     H15653   4.575   2.717   6.350 -0.4816 -1.9352 -0.4293
  857MOL0     H15654   4.605   2.637   6.502 -0.6780 -2.1331 -4.1311
  857MOL0     H15655   4.796   2.550   6.431  1.3699 -2.4564  0.8590
  857MOL0     H15656   5.009   2.481   6.343 -0.0515  1.4114 -3.1060
  857MOL0     H15657   5.500   2.878   6.254 -1.8105 -0.6208  1.9564
  857MOL0     H15658   5.743   2.878   6.301  0.6744 -0.8643  0.1543
  857MOL0     H15659   5.857   2.535   6.550 -0.3891  0.5120  0.5862
  857MOL0     H15660   5.963   2.505   6.411  1.4861  1.3310 -0.2443
  857MOL0     H15661   6.018   2.695   6.636  1.5535  0.5491  0.5547
  857MOL0     H15662   6.107   2.556   6.612 -2.3632 -0.5594  0.5505
  857MOL0     H15663   6.197   2.653   6.383  1.7262  0.8817 -0.5174
  857MOL0     H15664   6.093   2.798   6.430 -1.5046  0.7922  3.7926
  857MOL0     H15665   6.315   2.707   6.596  1.9215  1.2895  0.0096
  857MOL0     H15666   6.208   2.852   6.617  2.4593  1.8765  0.1983
  857MOL0     H15667   6.299   2.906   6.385 -0.0363 -1.4156 -0.9233
  857MOL0     H15668   6.416   2.780   6.420  0.6124 -2.6750  3.2893
  857MOL0     H15669   6.366   3.039   6.593  0.4703  0.0514  0.9990
  857MOL0     H15670   6.492   2.920   6.623 -0.0181 -1.7460  0.3364
  857MOL0     H15671   6.556   3.141   6.482  1.9522  0.3256 -2.7904
  857MOL0     H15672   6.495   3.037   6.352  1.2031 -0.5974  0.0119
  857MOL0     H15673   6.731   3.016   6.531 -0.0787 -0.4123  0.3124
  857MOL0     H15674   6.670   2.870   6.474 -1.9356  0.1335  2.0290
  857MOL0     H15675   5.701   2.465   6.447  1.9590  0.5488  0.7188
  857MOL0     H15676   5.464   2.470   6.375 -3.8833  1.8043 -0.5528
  857MOL0     H15677   5.167   2.883   6.396 -0.8926  0.6848  0.5454
  857MOL0     H15678   4.942   2.950   6.459  0.6767 -0.3260  2.6556
  857MOL0     H15679   3.453   3.371   6.156  2.7457  0.9360  2.2472
  857MOL0     H15680   3.221   3.333   6.235  0.8821  0.5877  0.1663
  857MOL0     H15681   2.752   3.371   6.240 -3.2727  1.8386  0.9674
  857MOL0     H15682   2.548   3.308   6.345 -0.7378  2.1156  0.3081
  857MOL0     H15683   2.394   3.152   6.478  1.6092  1.8095 -2.9199
  857MOL0     H15684   2.359   3.323   6.457 -0.6336 -0.6218 -0.8105
  857MOL0     H15685   2.186   3.241   6.578 -0.6478 -0.3519  1.5259
  857MOL0     H15686   2.283   3.318   6.710 -0.3114  0.5437 -0.0985
  857MOL0     H15687   2.375   3.105   6.775 -0.5618 -1.0994 -0.9670
  857MOL0     H15688   2.295   3.017   6.651  1.3125  0.3777  0.1970
  857MOL0     H15689   2.177   3.008   6.870  1.5342 -1.1309 -1.3563
  857MOL0     H15690   2.133   3.181   6.845  0.3409  1.3401 -3.3197
  857MOL0     H15691   1.860   3.015   6.589 -1.3130  4.3030  0.6210
  857MOL0     H15692   2.719   3.378   6.724 -1.8080  0.6513 -0.3939
  857MOL0     H15693   2.904   3.519   6.753  1.2527 -2.4681  0.5132
  857MOL0     H15694   3.036   3.444   6.668  1.7496  2.2339  0.0582
  857MOL0     H15695   2.976   3.596   6.609 -0.2477 -0.1271 -0.7918
  858MOL0     O15696   0.980   4.439   3.721 -0.3235 -0.0827  0.2241
  858MOL0     C15697   0.999   4.316   3.735 -0.1722  0.0118 -1.3919
  858MOL0     O15698   0.940   4.238   3.827  0.2004  1.1276 -0.1411
  858MOL0     C15699   0.828   4.283   3.902  0.3771  0.9902 -0.4132
  858MOL0     C15700   0.751   4.400   3.898 -0.1533 -1.0697 -0.6720
  858MOL0     C15701   0.629   4.419   3.966 -1.1511  0.2892  0.5821
  858MOL0     C15702   0.579   4.318   4.054  0.8960 -0.1283  0.1913
  858MOL0     O15703   0.463   4.342   4.108 -0.2398  0.3242 -0.7005
  858MOL0     C15704   0.407   4.244   4.204  0.6226 -0.1314  0.2589
  858MOL0     C15705   0.279   4.285   4.271 -0.0982 -0.1378  0.0195
  858MOL0     C15706   0.183   4.340   4.167 -0.7036  0.5898  0.8510
  858MOL0     C15707   0.038   4.339   4.201  0.6494  0.3513  0.9870
  858MOL0     C15708  -0.035   4.212   4.173 -0.0575 -0.5772 -0.5331
  858MOL0     C15709  -0.187   4.237   4.178 -0.7458  0.3408  0.0187
  858MOL0     C15710  -0.260   4.112   4.171  0.6998  0.2042  0.3126
  858MOL0     C15711  -0.240   4.023   4.038  0.1562 -1.3037 -0.1062
  858MOL0     N15712  -0.283   4.092   3.915  0.7971  0.2545 -0.2326
  858MOL0     C15713  -0.206   4.159   3.823  0.0520 -0.0461 -0.9613
  858MOL0     C15714  -0.291   4.185   3.721  0.0869  0.0509  0.0466
  858MOL0     C15715  -0.241   4.235   3.580 -0.4858  0.5084  0.4084
  858MOL0     C15716  -0.141   4.132   3.536 -0.4641 -0.1510  0.3434
  858MOL0     C15717  -0.103   4.165   3.385 -0.6459 -0.3217  0.6278
  858MOL0     C15718   0.004   4.280   3.359  1.5775 -0.7589 -1.1341
  858MOL0     O15719   0.133   4.233   3.400  0.5473  0.3637 -0.2075
  858MOL0     C15720   0.206   4.183   3.288  0.5880 -0.4591  0.1674
  858MOL0     C15721   0.241   4.050   3.283 -0.6547 -0.1897 -0.2290
  858MOL0     C15722   0.306   3.997   3.170 -0.5168  0.3088  0.2175
  858MOL0     C15723   0.365   4.082   3.078 -0.4076 -0.4575  0.0180
  858MOL0     C15724   0.463   4.042   2.985 -1.1596  0.4954  0.2370
  858MOL0     O15725   0.498   3.905   2.987  0.4339 -0.7884  0.2433
  858MOL0     C15726   0.604   3.855   2.906 -0.2399 -0.1745  0.1382
  858MOL0     C15727   0.606   3.871   2.767  0.4482 -0.1550  0.4396
  858MOL0     C15728   0.698   3.804   2.686 -0.1784  0.2955 -0.7220
  858MOL0     C15729   0.808   3.730   2.754 -0.1770  0.9986  0.6829
  858MOL0     O15730   0.921   3.666   2.691  0.2887  0.0842 -0.1921
  858MOL0     C15731   0.888   3.606   2.568 -0.3880 -0.4935  0.1779
  858MOL0     C15732   0.982   3.486   2.532  0.5947 -0.3851  0.0627
  858MOL0     C15733   1.126   3.518   2.522 -0.8178  0.1596 -0.1394
  858MOL0     C15734   1.215   3.412   2.446  0.3231  0.1734  0.1722
  858MOL0     C15735   1.360   3.443   2.428 -0.4736 -0.0071 -0.0131
  858MOL0     C15736   1.402   3.573   2.360 -0.6491  0.0088  0.2222
  858MOL0     C15737   1.309   3.623   2.241 -0.6025 -0.0510 -0.0035
  858MOL0     C15738   1.310   3.534   2.116  0.9325 -0.4921 -0.4659
  858MOL0    Cl15739   1.461   3.507   2.037  0.0098 -0.1286 -0.4026
  858MOL0     C15740   0.794   3.726   2.891  0.2680  0.3267  0.1664
  858MOL0     C15741   0.687   3.773   2.967 -0.7555  0.3308  0.3928
  858MOL0     O15742   0.506   4.121   2.902  0.1918  0.4091 -0.1330
  858MOL0     C15743   0.342   4.215   3.091 -0.1084 -0.1608 -0.0224
  858MOL0     C15744   0.252   4.269   3.187  0.1395  0.2864 -0.0174
  858MOL0     N15745  -0.418   4.142   3.759  0.1076 -0.1683 -0.4922
  858MOL0     N15746  -0.413   4.098   3.876  0.2807 -0.0076  0.2030
  858MOL0     C15747   0.652   4.206   4.069 -1.2683 -0.1756 -0.0981
  858MOL0     C15748   0.772   4.188   3.993 -0.1908  0.7870 -0.5357
  858MOL0     C15749   1.109   4.258   3.650  0.1225 -0.2679  0.4681
  858MOL0     C15750   1.176   4.150   3.700 -0.8312 -0.1635  0.2277
  858MOL0     C15751   1.279   4.095   3.630 -0.0918 -0.1227 -0.1025
  858MOL0     C15752   1.324   4.156   3.507  0.2845  0.4491  0.7793
  858MOL0     O15753   1.441   4.106   3.443  0.0579  0.0642 -0.5775
  858MOL0     C15754   1.448   4.125   3.303 -0.2667 -0.5037 -0.0006
  858MOL0     C15755   1.529   4.008   3.233  0.4701 -0.0201 -0.5650
  858MOL0     C15756   1.575   4.040   3.080 -0.1962  0.4892 -0.6864
  858MOL0     C15757   1.730   4.057   3.065  0.0214  0.1466 -0.6732
  858MOL0     C15758   1.768   4.172   3.144 -0.0318 -0.3098  0.6558
  858MOL0     C15759   1.835   4.257   3.206  0.6313 -0.2175  0.5126
  858MOL0     C15760   1.254   4.260   3.456 -0.7956 -0.0615 -0.6660
  858MOL0     C15761   1.146   4.309   3.521  0.7102 -0.2636  0.7856
  858MOL0     C15762   1.063   4.416   3.454  0.8671 -0.3634  0.2318
  858MOL0     H15763   0.766   4.477   3.823 -0.8105 -0.4412 -0.1542
  858MOL0     H15764   0.578   4.509   3.934 -2.8240 -0.2204  1.6895
  858MOL0     H15765   0.391   4.151   4.149  2.3278  0.6365 -1.6626
  858MOL0     H15766   0.476   4.207   4.280 -1.0204  0.0677  1.9242
  858MOL0     H15767   0.284   4.360   4.351 -1.0345 -0.4880  0.4244
  858MOL0     H15768   0.239   4.196   4.320 -1.1115  1.1315  1.6141
  858MOL0     H15769   0.203   4.279   4.079  1.7183  3.7020 -0.9519
  858MOL0     H15770   0.218   4.440   4.140 -1.7044  0.3587 -1.5518
  858MOL0     H15771   0.030   4.374   4.305 -2.2262  0.9489  0.6629
  858MOL0     H15772  -0.012   4.414   4.139  0.1125  0.7410  1.8635
  858MOL0     H15773  -0.005   4.171   4.076  0.6939 -0.8811 -0.1805
  858MOL0     H15774  -0.011   4.131   4.243 -2.8049 -2.6014 -1.7492
  858MOL0     H15775  -0.211   4.281   4.275  4.9983  0.2481  1.8816
  858MOL0     H15776  -0.218   4.308   4.101  2.6194  2.7361  0.6232
  858MOL0     H15777  -0.365   4.142   4.168  0.6620  0.2890  1.7409
  858MOL0     H15778  -0.233   4.044   4.252  3.6045  0.7134 -0.1081
  858MOL0     H15779  -0.137   3.991   4.021  0.2514 -2.3408  1.9985
  858MOL0     H15780  -0.304   3.935   4.046 -3.5568  1.1691 -0.3876
  858MOL0     H15781  -0.100   4.181   3.828  0.2926 -0.7170 -2.6506
  858MOL0     H15782  -0.327   4.230   3.513 -0.0819 -0.5448 -0.0527
  858MOL0     H15783  -0.192   4.332   3.594  0.2975  0.5404 -2.0128
  858MOL0     H15784  -0.046   4.145   3.588  1.0974  1.4681 -2.6615
  858MOL0     H15785  -0.198   4.039   3.543  0.2710 -0.4402  4.1533
  858MOL0     H15786  -0.197   4.178   3.331  0.5578 -2.9554 -2.4485
  858MOL0     H15787  -0.054   4.073   3.351  3.5453  2.0636 -0.6305
  858MOL0     H15788  -0.027   4.370   3.412 -0.4899 -1.9804 -0.1449
  858MOL0     H15789   0.005   4.287   3.249  2.3975 -3.7313 -1.4009
  858MOL0     H15790   0.211   3.993   3.370 -0.0653  2.8491  2.1414
  858MOL0     H15791   0.343   3.896   3.153  3.8786  1.9855 -1.7128
  858MOL0     H15792   0.530   3.931   2.718 -0.7028 -1.3134  0.7636
  858MOL0     H15793   0.707   3.811   2.578  1.3418 -1.3714 -0.7604
  858MOL0     H15794   0.783   3.575   2.570 -1.2935  2.2541 -0.4259
  858MOL0     H15795   0.905   3.672   2.482  0.1068  2.4319  2.3476
  858MOL0     H15796   0.967   3.405   2.604  2.8184  0.1313  1.1769
  858MOL0     H15797   0.942   3.449   2.437 -1.8725  1.0630  0.4460
  858MOL0     H15798   1.122   3.613   2.469 -2.0978  0.7590  0.9972
  858MOL0     H15799   1.172   3.535   2.619 -0.4232 -1.6253  0.0359
  858MOL0     H15800   1.176   3.396   2.345  0.2647 -1.8823  0.4689
  858MOL0     H15801   1.213   3.316   2.498  0.4709 -0.9434 -1.7609
  858MOL0     H15802   1.410   3.376   2.357  2.5795  0.7619  1.2241
  858MOL0     H15803   1.411   3.437   2.524 -0.0538 -0.9050 -0.2738
  858MOL0     H15804   1.383   3.649   2.437 -0.3742 -1.2417  1.5581
  858MOL0     H15805   1.510   3.569   2.346 -0.1775  0.8901  3.0052
  858MOL0     H15806   1.340   3.723   2.207  0.2918 -1.4762 -3.8487
  858MOL0     H15807   1.209   3.640   2.282 -0.0444  0.3209  1.2723
  858MOL0     H15808   1.265   3.442   2.154 -0.5517  0.8704  1.2903
  858MOL0     H15809   1.242   3.581   2.044  0.0454  1.5217  1.5539
  858MOL0     H15810   0.871   3.676   2.949  1.0142  1.5581  0.2602
  858MOL0     H15811   0.691   3.772   3.076  3.7690 -1.5053  0.4510
  858MOL0     H15812   0.381   4.290   3.023 -2.4820 -0.3056 -1.7076
  858MOL0     H15813   0.234   4.376   3.181 -1.5565 -0.0144 -1.1423
  858MOL0     H15814   0.628   4.121   4.132 -1.6620  0.3537  0.4721
  858MOL0     H15815   0.810   4.087   3.996 -1.2390  0.4111  0.1381
  858MOL0     H15816   1.147   4.099   3.792  2.1220  2.7063  3.0493
  858MOL0     H15817   1.337   4.006   3.649  0.7441 -0.6008 -4.0847
  858MOL0     H15818   1.494   4.222   3.283 -0.4715 -0.5665 -0.8353
  858MOL0     H15819   1.348   4.128   3.257 -0.1755  2.4996 -0.2033
  858MOL0     H15820   1.456   3.927   3.235 -0.8271  1.1181  0.2860
  858MOL0     H15821   1.611   3.986   3.303 -0.4735 -2.8130 -0.2477
  858MOL0     H15822   1.524   4.130   3.045  3.6140  4.3597  2.6028
  858MOL0     H15823   1.540   3.955   3.020  0.4005 -0.7130  0.6188
  858MOL0     H15824   1.788   3.968   3.092  2.2699 -0.3374 -5.8427
  858MOL0     H15825   1.748   4.075   2.958  2.2152 -0.7572 -0.5133
  858MOL0     H15826   1.892   4.334   3.254 -0.5599  0.1331  1.4080
  858MOL0     H15827   1.288   4.312   3.366 -1.0074  0.4541 -0.4506
  858MOL0     H15828   1.069   4.415   3.345  0.0766  0.9935  0.1450
  858MOL0     H15829   0.955   4.408   3.470  0.3776  1.0693 -1.9603
  858MOL0     H15830   1.092   4.514   3.495  0.0935 -0.0176 -0.0259
  859MOL0     O15831   7.388   4.871  10.116  0.0625  0.4011  0.3801
  859MOL0     C15832   7.370   4.749  10.131 -0.7602 -0.7073 -0.0723
  859MOL0     O15833   7.352   4.679  10.243  0.0945 -0.5777 -0.4932
  859MOL0     C15834   7.339   4.753  10.356 -0.7155  0.1505  0.6566
  859MOL0     C15835   7.212   4.781  10.405 -1.5989 -0.7276 -0.1353
  859MOL0     C15836   7.205   4.866  10.517  0.1196  0.4135  0.7630
  859MOL0     C15837   7.318   4.926  10.573  0.6968  0.5318 -0.3406
  859MOL0     O15838   7.313   5.029  10.666 -0.1412  0.7789  0.0886
  859MOL0     C15839   7.211   5.121  10.639 -1.6021 -1.8285  0.2696
  859MOL0     C15840   7.268   5.254  10.695 -0.5099 -0.4165  0.2648
  859MOL0     C15841   7.243   5.270  10.850 -0.2360 -0.3287 -0.0546
  859MOL0     C15842   7.093   5.304  10.866  0.1590 -0.7965 -0.0317
  859MOL0     C15843   7.043   5.340  10.999 -0.5192 -0.4852 -0.4473
  859MOL0     C15844   7.010   5.216  11.093 -1.0039 -0.1367  0.9921
  859MOL0     C15845   7.133   5.156  11.160 -0.3496 -0.1484 -0.8936
  859MOL0     C15846   7.085   5.060  11.261 -0.0863 -0.5296 -0.2018
  859MOL0     N15847   7.195   4.980  11.312  0.0198 -0.3860 -0.7632
  859MOL0     C15848   7.233   4.862  11.260  0.2245  0.5797  0.2268
  859MOL0     C15849   7.333   4.825  11.335  0.1906 -0.0180 -0.8005
  859MOL0     C15850   7.420   4.707  11.317 -0.0805 -0.0594 -0.2103
  859MOL0     C15851   7.565   4.721  11.368 -0.0757 -1.1135 -0.5452
  859MOL0     C15852   7.648   4.590  11.325  1.3013  0.3053  0.8563
  859MOL0     C15853   7.804   4.617  11.354  0.7644  0.4000 -0.3579
  859MOL0     O15854   7.851   4.483  11.399  0.0778  0.9494  0.5123
  859MOL0     C15855   7.982   4.479  11.461  0.5209  0.6184 -0.2629
  859MOL0     C15856   8.049   4.359  11.453 -0.2479 -0.6962  0.9290
  859MOL0     C15857   8.179   4.339  11.502  0.0202  0.1664 -0.3050
  859MOL0     C15858   8.238   4.445  11.573  0.4438 -0.5907  0.3509
  859MOL0     C15859   8.363   4.426  11.640 -0.0791 -0.0693 -0.1608
  859MOL0     O15860   8.405   4.513  11.738  0.0947 -0.4850 -0.1771
  859MOL0     C15861   8.519   4.468  11.811 -1.0396  0.0185  0.2284
  859MOL0     C15862   8.653   4.463  11.757 -0.8157 -0.0687 -0.2562
  859MOL0     C15863   8.756   4.420  11.834  0.7000  0.4236  0.6994
  859MOL0     C15864   8.739   4.377  11.963  0.1596  0.1730  1.0522
  859MOL0     O15865   8.844   4.332  12.040  0.3543  0.4652 -0.0751
  859MOL0     C15866   8.981   4.334  11.985  1.2132 -0.0222  0.2298
  859MOL0     C15867   9.070   4.281  12.092 -0.3781  0.3181 -0.6398
  859MOL0     C15868   9.217   4.336  12.083  0.6333  0.4789 -0.0440
  859MOL0     C15869   9.296   4.271  11.975 -0.7423 -0.9921 -0.2928
  859MOL0     C15870   9.439   4.323  11.968 -0.0515  0.3982 -0.1532
  859MOL0     C15871   9.451   4.481  11.945  0.9017  0.4848  0.3092
  859MOL0     C15872   9.597   4.504  11.899 -0.8388 -0.6020 -0.0543
  859MOL0     C15873   9.623   4.646  11.846 -0.6011 -0.0601  0.4727
  859MOL0    Cl15874   9.803   4.674  11.824  0.3442 -0.7203  0.4628
  859MOL0     C15875   8.614   4.380  12.020  0.2203 -0.4776  0.0512
  859MOL0     C15876   8.504   4.424  11.949 -0.1772 -0.4046  0.3213
  859MOL0     O15877   8.421   4.325  11.608 -0.1808  0.8735  0.4893
  859MOL0     C15878   8.168   4.563  11.589 -0.1408 -0.3223  0.1826
  859MOL0     C15879   8.043   4.586  11.533  0.4925  1.5259  0.0207
  859MOL0     N15880   7.343   4.910  11.441  0.6806 -0.0827 -0.4873
  859MOL0     N15881   7.252   5.003  11.431 -0.2747 -0.1761  0.1159
  859MOL0     C15882   7.443   4.874  10.536 -0.2882  0.0196  0.5684
  859MOL0     C15883   7.457   4.789  10.430 -0.0856  0.5330 -0.3742
  859MOL0     C15884   7.395   4.673  10.006 -0.2130 -0.2099  0.0880
  859MOL0     C15885   7.497   4.587  10.009 -0.3132  0.0929 -0.0631
  859MOL0     C15886   7.520   4.507   9.896 -0.0461  0.5610  1.1302
  859MOL0     C15887   7.440   4.512   9.784  0.4627 -0.1490 -0.0276
  859MOL0     O15888   7.465   4.428   9.682  0.6562 -0.9134 -0.5661
  859MOL0     C15889   7.474   4.471   9.542 -0.0831  0.2232 -0.4922
  859MOL0     C15890   7.598   4.564   9.532  0.0747  0.4440  0.2898
  859MOL0     C15891   7.608   4.611   9.385 -0.6020 -1.0935 -0.8291
  859MOL0     C15892   7.695   4.514   9.302 -0.0236 -1.1660  0.0925
  859MOL0     C15893   7.698   4.563   9.164  0.2233 -0.3170 -0.2688
  859MOL0     C15894   7.701   4.618   9.054 -0.6157  0.0042 -0.3140
  859MOL0     C15895   7.347   4.606   9.784 -0.0371  0.5929  0.0699
  859MOL0     C15896   7.314   4.694   9.894 -0.1194 -0.1136 -0.2845
  859MOL0     C15897   7.188   4.790   9.897  0.4709  0.9419 -0.0429
  859MOL0     H15898   7.122   4.738  10.363  0.7136 -4.1492 -2.1316
  859MOL0     H15899   7.104   4.895  10.545 -0.7228 -0.4121 -1.2154
  859MOL0     H15900   7.187   5.135  10.533 -1.1427 -1.6059  0.1931
  859MOL0     H15901   7.116   5.099  10.688 -1.5407  0.4880  1.5863
  859MOL0     H15902   7.221   5.341  10.649 -0.1670 -2.2814 -4.1054
  859MOL0     H15903   7.376   5.261  10.681 -0.6724 -0.7015 -1.2215
  859MOL0     H15904   7.305   5.344  10.901 -1.8408  1.8915 -1.1095
  859MOL0     H15905   7.263   5.172  10.894  1.8491 -0.0538 -0.3051
  859MOL0     H15906   7.063   5.378  10.790 -1.9536 -2.6106 -1.0559
  859MOL0     H15907   7.040   5.219  10.822  1.1174 -0.6808 -1.4934
  859MOL0     H15908   7.118   5.408  11.041  0.6066 -0.0661 -2.9993
  859MOL0     H15909   6.946   5.391  10.996  0.2881  1.4041  1.7315
  859MOL0     H15910   6.940   5.260  11.164  0.7157 -0.0164  2.6795
  859MOL0     H15911   6.954   5.139  11.038 -0.0719  1.9631 -3.3424
  859MOL0     H15912   7.203   5.231  11.198  0.4947 -0.9132 -0.9070
  859MOL0     H15913   7.193   5.105  11.084  4.1471  2.2669  0.6814
  859MOL0     H15914   7.047   5.118  11.346 -1.0276  0.2758 -1.1525
  859MOL0     H15915   7.007   4.995  11.222 -0.9214 -1.5717  2.8879
  859MOL0     H15916   7.210   4.812  11.167  1.0945  0.2521  0.1744
  859MOL0     H15917   7.365   4.631  11.372 -2.5218  1.4304 -0.4356
  859MOL0     H15918   7.415   4.666  11.217 -0.1675 -2.0104  0.5605
  859MOL0     H15919   7.609   4.808  11.318  0.2935  0.0208  1.6623
  859MOL0     H15920   7.565   4.730  11.477 -3.5623  5.1602 -0.5966
  859MOL0     H15921   7.635   4.572  11.217  2.2809  1.2934  0.5616
  859MOL0     H15922   7.619   4.507  11.390  0.5752 -0.4478 -0.3672
  859MOL0     H15923   7.821   4.684  11.439 -1.0480 -2.0618  2.1312
  859MOL0     H15924   7.849   4.653  11.262  0.0755  2.3751  0.0295
  859MOL0     H15925   7.996   4.293  11.386 -1.6548  1.9772 -0.7881
  859MOL0     H15926   8.225   4.242  11.489  0.9507  0.8488 -2.5966
  859MOL0     H15927   8.679   4.496  11.656  2.3794  0.6040  0.6691
  859MOL0     H15928   8.857   4.418  11.793 -0.1518 -1.5835 -1.5407
  859MOL0     H15929   8.995   4.280  11.891 -2.8187  1.3911 -1.3925
  859MOL0     H15930   9.008   4.440  11.976  1.6604 -0.0544  1.1062
  859MOL0     H15931   9.045   4.332  12.186 -0.9572  3.0003 -2.1386
  859MOL0     H15932   9.066   4.172  12.086 -4.7157  0.2463  0.2531
  859MOL0     H15933   9.215   4.444  12.069 -0.8410  0.8436  2.3392
  859MOL0     H15934   9.266   4.322  12.180  0.4108 -1.9246 -0.2251
  859MOL0     H15935   9.257   4.313  11.882  2.6991 -0.1394 -1.4684
  859MOL0     H15936   9.292   4.162  11.969  1.7233 -1.0474 -4.1136
  859MOL0     H15937   9.486   4.272  11.883  3.5116  1.6332  0.8828
  859MOL0     H15938   9.501   4.284  12.049  1.4755  0.0476 -1.4271
  859MOL0     H15939   9.379   4.519  11.871 -1.6855 -0.0268  2.4125
  859MOL0     H15940   9.439   4.529  12.042 -3.0372  0.6833 -0.0898
  859MOL0     H15941   9.634   4.431  11.827 -1.3924 -0.9002 -0.0462
  859MOL0     H15942   9.658   4.489  11.989 -0.7176 -2.0532 -0.3549
  859MOL0     H15943   9.558   4.659  11.758  0.0066  1.3121  0.1923
  859MOL0     H15944   9.570   4.721  11.905  1.6980  2.2900 -0.2675
  859MOL0     H15945   8.600   4.333  12.117 -0.1322  0.2807  0.3736
  859MOL0     H15946   8.403   4.406  11.985 -0.1334  1.6812  1.6063
  859MOL0     H15947   8.215   4.650  11.636 -0.7623  0.3394 -0.3947
  859MOL0     H15948   7.988   4.678  11.547 -1.4504  0.3137  0.8728
  859MOL0     H15949   7.534   4.909  10.584 -0.4373 -1.4289  1.9806
  859MOL0     H15950   7.555   4.765  10.390  0.1453  3.3759 -1.7040
  859MOL0     H15951   7.561   4.566  10.094 -0.3700 -2.0415 -0.4983
  859MOL0     H15952   7.597   4.433   9.919 -2.3127 -2.3317  0.0452
  859MOL0     H15953   7.378   4.507   9.504  0.0977  0.2533 -0.9242
  859MOL0     H15954   7.493   4.375   9.494  1.0523  1.2899 -2.2880
  859MOL0     H15955   7.692   4.517   9.563 -1.4965 -2.3507  1.1486
  859MOL0     H15956   7.569   4.641   9.604 -3.5064 -2.3938  2.2239
  859MOL0     H15957   7.649   4.712   9.375 -1.4188 -0.4690  1.4945
  859MOL0     H15958   7.510   4.623   9.338 -0.1972  0.8766 -1.2720
  859MOL0     H15959   7.799   4.515   9.334  0.3347  3.9943 -0.3871
  859MOL0     H15960   7.652   4.414   9.310 -0.4339 -0.8305  4.6560
  859MOL0     H15961   7.680   4.674   8.965  1.7247 -1.5205 -1.9559
  859MOL0     H15962   7.278   4.625   9.702 -0.0764  1.1962  0.2395
  859MOL0     H15963   7.147   4.811   9.798 -0.9339 -0.2421  0.2529
  859MOL0     H15964   7.109   4.759   9.966 -0.0905  0.5623 -0.8394
  859MOL0     H15965   7.218   4.889   9.933 -1.1261  1.9962 -1.4551
  860MOL0     O15966   3.035   8.719   0.450  0.0548  0.2580 -0.2991
  860MOL0     C15967   2.939   8.787   0.477  0.3197  0.8870  0.3619
  860MOL0     O15968   2.822   8.792   0.408 -0.1332  0.8471 -0.0349
  860MOL0     C15969   2.814   8.716   0.299  0.1281  0.2328  1.4626
  860MOL0     C15970   2.840   8.778   0.175  0.3484 -0.7624 -0.2470
  860MOL0     C15971   2.855   8.699   0.056 -0.3294 -0.2594 -0.6795
  860MOL0     C15972   2.837   8.564   0.052 -0.2748 -0.5466  0.5648
  860MOL0     O15973   2.841   8.498  -0.068  0.0172  0.0045  0.5640
  860MOL0     C15974   2.760   8.556  -0.171 -1.2596  0.4139 -0.0503
  860MOL0     C15975   2.749   8.449  -0.284 -0.4026  0.9674 -0.6620
  860MOL0     C15976   2.702   8.308  -0.236 -0.1543 -0.2134 -0.0580
  860MOL0     C15977   2.552   8.328  -0.185 -0.5696  0.5473 -0.0273
  860MOL0     C15978   2.503   8.195  -0.112 -0.3157  0.2276  0.4770
  860MOL0     C15979   2.476   8.073  -0.195  0.3330  0.1032  0.2647
  860MOL0     C15980   2.408   7.959  -0.128 -0.4688  0.3208  0.5248
  860MOL0     C15981   2.263   7.996  -0.104  0.6539  0.2673 -0.0541
  860MOL0     N15982   2.191   7.893  -0.016 -0.8790 -0.1481 -0.2875
  860MOL0     C15983   2.091   7.812  -0.069 -0.7218  0.7502  0.9169
  860MOL0     C15984   2.017   7.769   0.038  0.0642 -0.8720  0.4396
  860MOL0     C15985   1.889   7.701   0.028 -0.2864  0.6321  0.1689
  860MOL0     C15986   1.817   7.688   0.165 -0.2597 -0.1021  0.3172
  860MOL0     C15987   1.694   7.598   0.153 -0.2591  0.1913 -0.1234
  860MOL0     C15988   1.578   7.664   0.072  0.5119  1.1765 -0.3038
  860MOL0     O15989   1.451   7.591   0.091  0.2940  0.3629 -0.3417
  860MOL0     C15990   1.430   7.467   0.033 -0.1396 -0.9825 -0.2864
  860MOL0     C15991   1.513   7.406  -0.052  0.1711  0.2587  0.5352
  860MOL0     C15992   1.481   7.284  -0.118  0.0256  0.3199  0.3099
  860MOL0     C15993   1.358   7.218  -0.082 -0.4628  0.9318  1.4824
  860MOL0     C15994   1.313   7.088  -0.142  0.3312 -0.4983  0.3117
  860MOL0     O15995   1.379   7.046  -0.248 -0.7089 -0.3788 -1.1196
  860MOL0     C15996   1.337   6.942  -0.328  0.7792 -0.2877 -0.7980
  860MOL0     C15997   1.429   6.834  -0.347  0.3929 -0.0410  0.1166
  860MOL0     C15998   1.382   6.723  -0.420 -0.9965  0.2291  1.1273
  860MOL0     C15999   1.252   6.708  -0.468  0.8318 -0.4825  0.7576
  860MOL0     O16000   1.217   6.588  -0.533 -0.1875 -0.0779 -0.3755
  860MOL0     C16001   1.083   6.534  -0.523 -0.2094  0.2287 -0.3235
  860MOL0     C16002   1.059   6.409  -0.606  1.0920 -0.1122  0.5327
  860MOL0     C16003   0.983   6.302  -0.527  1.1333 -0.8258 -0.2629
  860MOL0     C16004   0.939   6.191  -0.627  0.6388  1.1493 -1.2318
  860MOL0     C16005   0.877   6.076  -0.551  0.2199 -0.4550 -0.7316
  860MOL0     C16006   0.733   6.099  -0.500 -0.2656  0.0466 -0.3166
  860MOL0     C16007   0.686   5.988  -0.400  0.6709 -0.2174 -0.2846
  860MOL0     C16008   0.564   6.025  -0.317 -0.2552  0.2008 -0.5604
  860MOL0    Cl16009   0.554   5.923  -0.169 -0.4536 -0.0086 -0.2485
  860MOL0     C16010   1.160   6.816  -0.445 -0.4329  0.5423  0.1542
  860MOL0     C16011   1.209   6.929  -0.378 -0.1396  0.7719  0.2875
  860MOL0     O16012   1.216   7.035  -0.089  0.4972  0.2507  0.7593
  860MOL0     C16013   1.280   7.283   0.014 -0.5703 -0.4103  0.8424
  860MOL0     C16014   1.306   7.412   0.064 -0.5400  0.7411  0.5329
  860MOL0     N16015   2.075   7.823   0.152  0.5217  0.0831 -0.4259
  860MOL0     N16016   2.172   7.900   0.122 -0.9404 -0.0767 -0.0010
  860MOL0     C16017   2.790   8.515   0.173 -0.2991 -0.2093  0.0088
  860MOL0     C16018   2.786   8.579   0.299  0.4523  0.1258  0.0877
  860MOL0     C16019   2.948   8.856   0.613 -0.8292 -0.8427 -0.2284
  860MOL0     C16020   3.046   8.826   0.704  0.1395 -0.3664 -0.5350
  860MOL0     C16021   3.059   8.879   0.832  0.9546 -0.5418  0.4694
  860MOL0     C16022   2.998   8.999   0.856 -0.9713  0.3237 -0.1825
  860MOL0     O16023   3.029   9.053   0.977  0.3740  0.2907  0.7166
  860MOL0     C16024   2.931   9.130   1.047 -0.0042 -0.0918  1.1648
  860MOL0     C16025   2.982   9.162   1.185  0.8168 -0.0678  0.0866
  860MOL0     C16026   3.101   9.259   1.184 -0.0375 -0.0644 -0.1496
  860MOL0     C16027   3.140   9.298   1.331  0.2001 -0.4103 -1.1808
  860MOL0     C16028   3.204   9.188   1.414  0.5481 -0.1537  0.2561
  860MOL0     C16029   3.237   9.082   1.470  0.1865 -1.2410 -0.1038
  860MOL0     C16030   2.902   9.047   0.768 -0.4663  0.3638 -0.0523
  860MOL0     C16031   2.879   8.973   0.646  0.1981 -0.2302 -0.1018
  860MOL0     C16032   2.770   9.034   0.567 -0.5819 -0.5892  0.8269
  860MOL0     H16033   2.860   8.885   0.176 -0.8371 -0.5173  1.4689
  860MOL0     H16034   2.859   8.761  -0.033  1.1241  0.3479 -0.2200
  860MOL0     H16035   2.659   8.586  -0.140 -0.9339  2.2436 -0.6247
  860MOL0     H16036   2.812   8.638  -0.221  1.6315 -1.8707 -1.0854
  860MOL0     H16037   2.850   8.435  -0.322 -0.4752  1.4854 -1.0455
  860MOL0     H16038   2.690   8.481  -0.370 -0.1776 -0.1815 -1.2681
  860MOL0     H16039   2.759   8.271  -0.150 -2.3622 -1.6873  0.8348
  860MOL0     H16040   2.718   8.237  -0.318  2.3936  2.7325 -2.3684
  860MOL0     H16041   2.549   8.407  -0.109 -1.9476  0.7916 -0.3059
  860MOL0     H16042   2.482   8.352  -0.265 -0.0939 -0.7466 -0.8478
  860MOL0     H16043   2.574   8.171  -0.033  1.1212  0.6775 -0.6407
  860MOL0     H16044   2.403   8.220  -0.076 -0.8155 -0.3267 -0.5053
  860MOL0     H16045   2.425   8.099  -0.289 -2.0298  2.4061  2.0571
  860MOL0     H16046   2.573   8.031  -0.223  0.7971 -0.3610  2.3963
  860MOL0     H16047   2.449   7.928  -0.031  0.1822 -1.0818 -0.1777
  860MOL0     H16048   2.422   7.879  -0.201 -2.5322 -0.6128  1.0735
  860MOL0     H16049   2.270   8.082  -0.037  1.7524 -1.2071  1.8406
  860MOL0     H16050   2.212   8.033  -0.193 -0.5475  0.0647  0.5189
  860MOL0     H16051   2.060   7.805  -0.172  0.1300  0.2759  0.6814
  860MOL0     H16052   1.820   7.764  -0.029 -1.9765 -1.9583 -0.8289
  860MOL0     H16053   1.904   7.609  -0.028  1.0759  0.0768  1.3794
  860MOL0     H16054   1.885   7.637   0.234 -1.7449 -1.7034  0.6684
  860MOL0     H16055   1.793   7.789   0.202 -2.8775 -0.5051 -0.0760
  860MOL0     H16056   1.651   7.576   0.251  1.4057 -1.4324  0.3037
  860MOL0     H16057   1.730   7.500   0.120 -1.2271 -0.0550 -0.4757
  860MOL0     H16058   1.601   7.676  -0.034  0.8156  1.3693 -0.2192
  860MOL0     H16059   1.574   7.763   0.118  1.0978  0.3703  1.5914
  860MOL0     H16060   1.613   7.446  -0.070  0.7301 -1.4121 -0.3071
  860MOL0     H16061   1.551   7.243  -0.191  0.4440  3.0740 -0.9637
  860MOL0     H16062   1.529   6.839  -0.306  1.0567 -0.9640 -1.3244
  860MOL0     H16063   1.462   6.651  -0.432 -0.4453  0.9218  0.6123
  860MOL0     H16064   1.059   6.511  -0.419  3.5243  1.6728  1.0335
  860MOL0     H16065   1.013   6.605  -0.568  0.1038 -0.1173 -1.4016
  860MOL0     H16066   1.007   6.440  -0.697  1.8512 -1.1406 -0.2820
  860MOL0     H16067   1.154   6.369  -0.643  1.0294 -0.1132  0.3711
  860MOL0     H16068   1.054   6.266  -0.452  0.3266  2.8946  2.6239
  860MOL0     H16069   0.895   6.348  -0.481  2.3188  1.5438 -0.1936
  860MOL0     H16070   1.027   6.151  -0.676 -0.5921 -1.4809 -1.4554
  860MOL0     H16071   0.870   6.228  -0.704  1.8279 -1.0251 -3.4580
  860MOL0     H16072   0.945   6.063  -0.466 -0.6064  2.5090  0.5040
  860MOL0     H16073   0.886   5.995  -0.624  3.3542  0.9312 -2.0530
  860MOL0     H16074   0.716   6.194  -0.447 -0.5305 -0.4607  0.5280
  860MOL0     H16075   0.665   6.108  -0.586 -2.4992 -0.1954  1.3328
  860MOL0     H16076   0.766   5.981  -0.325  0.2899  0.7559  0.2219
  860MOL0     H16077   0.675   5.888  -0.444  1.5431  0.0075 -1.0451
  860MOL0     H16078   0.555   6.132  -0.295 -2.8750  0.2533 -1.6170
  860MOL0     H16079   0.489   6.008  -0.394 -0.8402  3.2513 -0.7883
  860MOL0     H16080   1.059   6.809  -0.484  0.0842  0.4059 -1.2289
  860MOL0     H16081   1.137   7.009  -0.365 -1.1658  0.0461 -0.7909
  860MOL0     H16082   1.196   7.224   0.049  0.1689 -2.0382  0.0064
  860MOL0     H16083   1.236   7.467   0.126 -0.0570 -0.5003  2.2384
  860MOL0     H16084   2.765   8.410   0.165 -2.2880  0.1150  1.2892
  860MOL0     H16085   2.761   8.526   0.390 -2.7431  0.0138 -0.7475
  860MOL0     H16086   3.111   8.743   0.676  1.2528  0.1140  0.5577
  860MOL0     H16087   3.128   8.828   0.898 -0.0155  1.8060  3.4930
  860MOL0     H16088   2.832   9.082   1.053 -1.0585  1.5184 -1.5542
  860MOL0     H16089   2.916   9.223   0.992 -3.4347 -1.8395 -1.3504
  860MOL0     H16090   3.003   9.061   1.220 -0.0278 -0.4788 -0.5531
  860MOL0     H16091   2.894   9.209   1.230 -0.7076  1.5096 -4.1169
  860MOL0     H16092   3.079   9.358   1.143  0.1497  0.4925  1.0471
  860MOL0     H16093   3.189   9.218   1.134  2.1650  2.8381  1.0220
  860MOL0     H16094   3.213   9.379   1.326  1.3828 -1.1876  1.3669
  860MOL0     H16095   3.045   9.325   1.377 -1.3475 -2.1918 -3.1372
  860MOL0     H16096   3.269   8.988   1.510  0.6884  0.0980  2.8786
  860MOL0     H16097   2.863   9.144   0.795  0.5297  0.3963  1.4093
  860MOL0     H16098   2.723   9.126   0.603 -1.0248  1.1140 -3.4843
  860MOL0     H16099   2.813   9.058   0.469  2.6666  0.8025  2.4429
  860MOL0     H16100   2.689   8.964   0.543  0.7355 -1.8552 -0.0468
  861MOL0     O16101   8.522   4.209   6.216 -0.0020  0.8140  0.5949
  861MOL0     C16102   8.524   4.317   6.159 -0.5876 -0.1631 -0.8240
  861MOL0     O16103   8.636   4.386   6.140 -0.1710 -0.2757 -0.0205
  861MOL0     C16104   8.744   4.345   6.200 -0.7339 -0.9274  0.4611
  861MOL0     C16105   8.819   4.234   6.140  0.4094 -0.0383 -0.6141
  861MOL0     C16106   8.949   4.201   6.197  0.0186  0.3571  0.3008
  861MOL0     C16107   8.995   4.264   6.308 -0.9582  0.3705 -0.3304
  861MOL0     O16108   9.118   4.219   6.354  0.1807 -0.0402 -0.1569
  861MOL0     C16109   9.170   4.248   6.475  0.3507 -1.3911 -0.1368
  861MOL0     C16110   9.306   4.174   6.503 -0.0505  0.1246 -0.0923
  861MOL0     C16111   9.408   4.199   6.388 -0.3899  0.4851 -0.9315
  861MOL0     C16112   9.420   4.072   6.308 -0.4227  0.2368 -0.1716
  861MOL0     C16113   9.508   3.967   6.376  0.2407 -0.6235 -0.0643
  861MOL0     C16114   9.595   3.892   6.281 -1.1738  0.3450  0.1427
  861MOL0     C16115   9.636   3.751   6.332  0.9129 -0.4553  0.1482
  861MOL0     C16116   9.736   3.676   6.244 -0.0809  0.0326 -0.0447
  861MOL0     N16117   9.877   3.720   6.276  1.0274 -0.0153  0.0418
  861MOL0     C16118   9.933   3.703   6.404 -0.4554  0.3776 -0.2144
  861MOL0     C16119  10.062   3.731   6.396 -0.6544 -0.5426  0.5475
  861MOL0     C16120  10.174   3.712   6.503 -0.8620 -0.7744  0.7167
  861MOL0     C16121  10.324   3.758   6.462  0.1345 -0.5241 -0.1949
  861MOL0     C16122  10.338   3.911   6.471  0.9316  1.2905  0.6085
  861MOL0     C16123  10.483   3.957   6.462 -0.3797  0.1346 -0.6634
  861MOL0     O16124  10.566   3.913   6.575  0.3843 -0.2462 -0.3293
  861MOL0     C16125  10.675   3.995   6.593 -0.1261  0.1408  0.1609
  861MOL0     C16126  10.728   4.011   6.716 -0.4810 -0.9735  0.4737
  861MOL0     C16127  10.848   4.075   6.729  0.3830  0.4729 -0.1943
  861MOL0     C16128  10.926   4.134   6.631 -1.1929 -0.6237  0.6754
  861MOL0     C16129  11.048   4.209   6.658 -0.4824 -0.7624  0.0959
  861MOL0     O16130  11.092   4.288   6.556  0.4094 -0.3103  0.4679
  861MOL0     C16131  11.197   4.373   6.581 -0.0344 -0.8972 -0.3198
  861MOL0     C16132  11.194   4.466   6.694 -0.1615  0.0288 -0.0142
  861MOL0     C16133  11.293   4.566   6.708  0.1090  0.7248  0.5419
  861MOL0     C16134  11.399   4.566   6.610  1.4540  0.4528 -0.1773
  861MOL0     O16135  11.495   4.662   6.607  0.3057 -0.9267  0.4987
  861MOL0     C16136  11.503   4.750   6.718 -0.0825 -0.5242 -0.0514
  861MOL0     C16137  11.621   4.843   6.705 -0.1362 -0.0511  0.4685
  861MOL0     C16138  11.759   4.782   6.724  0.2550  0.4518  0.8354
  861MOL0     C16139  11.883   4.856   6.676  0.4431  0.4905  0.8224
  861MOL0     C16140  11.917   4.985   6.762  0.5224 -0.3350  0.9218
  861MOL0     C16141  12.024   5.067   6.684 -0.3328 -1.3329  0.5705
  861MOL0     C16142  12.148   5.002   6.621  0.2424 -0.1057  0.4965
  861MOL0     C16143  12.274   5.081   6.616  0.4659 -0.4523 -0.0813
  861MOL0    Cl16144  12.234   5.248   6.574  0.1510 -0.1271  0.2195
  861MOL0     C16145  11.403   4.473   6.503 -0.2743 -0.8328  0.0239
  861MOL0     C16146  11.302   4.377   6.486 -0.5121 -0.0673 -0.1858
  861MOL0     O16147  11.108   4.185   6.768  0.2059 -0.5770  0.1704
  861MOL0     C16148  10.867   4.126   6.504 -0.3109 -0.5232  0.1109
  861MOL0     C16149  10.746   4.056   6.488  0.2788 -0.1590  0.4903
  861MOL0     N16150  10.074   3.781   6.264 -0.5054  0.2816  0.2913
  861MOL0     N16151   9.970   3.769   6.191  0.9777 -0.2989  0.7368
  861MOL0     C16152   8.930   4.369   6.364  0.5077  0.2936 -1.3238
  861MOL0     C16153   8.803   4.407   6.315  0.9319 -0.0496  0.8743
  861MOL0     C16154   8.395   4.371   6.109  0.8284 -0.4770 -0.5379
  861MOL0     C16155   8.293   4.278   6.072 -0.4946 -0.5722  0.0874
  861MOL0     C16156   8.175   4.334   6.025  0.0978 -0.6755  0.0754
  861MOL0     C16157   8.157   4.477   6.030  0.5582 -0.2409 -1.0250
  861MOL0     O16158   8.023   4.523   6.004 -0.3100 -0.5258 -0.3698
  861MOL0     C16159   8.011   4.599   5.886 -0.8915 -0.4768 -0.9936
  861MOL0     C16160   7.868   4.640   5.864 -0.6991  0.7556 -1.1199
  861MOL0     C16161   7.766   4.525   5.855  0.3273 -0.4505  0.1012
  861MOL0     C16162   7.619   4.580   5.856 -0.3556 -0.6228  0.6932
  861MOL0     C16163   7.527   4.479   5.781 -0.9426 -0.6479 -0.6247
  861MOL0     C16164   7.436   4.415   5.734 -0.2725 -0.1734 -0.0936
  861MOL0     C16165   8.245   4.561   6.085 -0.6801 -0.5889 -0.4686
  861MOL0     C16166   8.371   4.512   6.129  0.0831 -1.1146 -0.0525
  861MOL0     C16167   8.463   4.591   6.208 -0.1952  0.6120  0.0329
  861MOL0     H16168   8.770   4.191   6.053 -0.5502 -2.4077  1.0081
  861MOL0     H16169   9.007   4.121   6.151 -1.0789  0.3986 -1.2288
  861MOL0     H16170   9.192   4.355   6.480  2.8614 -1.8872  1.2046
  861MOL0     H16171   9.096   4.231   6.554 -1.1977  0.9170 -0.9800
  861MOL0     H16172   9.289   4.071   6.537 -1.1926  0.4494  0.3703
  861MOL0     H16173   9.360   4.214   6.589  1.3746 -2.7901  0.5198
  861MOL0     H16174   9.504   4.228   6.431 -0.8959 -0.3641  0.8926
  861MOL0     H16175   9.377   4.281   6.324 -1.5207  0.6759 -0.1791
  861MOL0     H16176   9.319   4.030   6.299 -1.9045  2.1475  4.5957
  861MOL0     H16177   9.472   4.083   6.212 -2.1767 -0.1972 -1.2326
  861MOL0     H16178   9.575   4.018   6.445  1.0959  0.7923 -1.8573
  861MOL0     H16179   9.441   3.897   6.427 -0.2436 -1.4324 -1.7168
  861MOL0     H16180   9.534   3.857   6.197  1.4894 -3.5145 -0.4229
  861MOL0     H16181   9.680   3.953   6.248 -1.0668 -0.7739 -1.8428
  861MOL0     H16182   9.540   3.698   6.323  0.1109  1.1326 -1.1103
  861MOL0     H16183   9.666   3.764   6.436 -1.2860 -0.4914  0.8445
  861MOL0     H16184   9.722   3.573   6.279 -0.2386 -0.0092 -0.2305
  861MOL0     H16185   9.716   3.693   6.138  1.1486 -2.5678 -0.7767
  861MOL0     H16186   9.884   3.668   6.494 -0.4303 -1.3804 -0.8349
  861MOL0     H16187  10.144   3.761   6.596 -0.6031 -2.9959  2.0312
  861MOL0     H16188  10.173   3.604   6.519  1.0045 -0.7824  0.9406
  861MOL0     H16189  10.397   3.713   6.530  1.8209 -0.3929 -1.8583
  861MOL0     H16190  10.348   3.720   6.362 -0.7872 -3.2425  0.5201
  861MOL0     H16191  10.288   3.941   6.563 -0.8542  2.0384 -0.5381
  861MOL0     H16192  10.289   3.960   6.386  0.5126  0.2746  0.2483
  861MOL0     H16193  10.478   4.066   6.471  0.6800  0.1616 -0.1713
  861MOL0     H16194  10.513   3.944   6.358 -2.0895  2.8776 -1.6085
  861MOL0     H16195  10.673   3.980   6.804 -0.8302  2.1521  1.5138
  861MOL0     H16196  10.883   4.075   6.832  2.5065 -0.9525 -0.8389
  861MOL0     H16197  11.109   4.467   6.761 -0.0177  2.8197  0.2142
  861MOL0     H16198  11.269   4.636   6.787  0.2706 -0.6021  1.8279
  861MOL0     H16199  11.411   4.807   6.738  1.3909  0.8137  3.6929
  861MOL0     H16200  11.515   4.688   6.807 -1.1570 -0.5048  0.1239
  861MOL0     H16201  11.615   4.900   6.612 -1.7930 -1.4272 -0.3120
  861MOL0     H16202  11.611   4.916   6.786  0.1382 -0.0343  0.4875
  861MOL0     H16203  11.779   4.771   6.831  2.1149 -0.3602  0.4373
  861MOL0     H16204  11.762   4.687   6.670 -0.3093  1.2410 -0.6285
  861MOL0     H16205  11.892   4.861   6.567 -0.5486 -3.3636  0.4167
  861MOL0     H16206  11.963   4.787   6.704  0.6185  1.2087  2.1776
  861MOL0     H16207  11.959   4.963   6.861 -0.3441 -0.5513  1.2553
  861MOL0     H16208  11.827   5.041   6.788  0.6204 -1.3220  3.7728
  861MOL0     H16209  11.970   5.120   6.605  1.1659 -0.0217  0.3730
  861MOL0     H16210  12.050   5.135   6.766 -0.9879 -1.0077  0.5179
  861MOL0     H16211  12.124   4.979   6.517 -1.0646 -1.3347  1.0349
  861MOL0     H16212  12.162   4.909   6.678  2.0022  0.5924  1.2995
  861MOL0     H16213  12.322   5.085   6.714  3.2129 -1.1928 -1.3089
  861MOL0     H16214  12.354   5.041   6.553  1.4176  0.6030  0.4046
  861MOL0     H16215  11.491   4.486   6.440  0.5906  3.3847  1.7400
  861MOL0     H16216  11.306   4.312   6.399 -2.0341 -1.1007  0.4745
  861MOL0     H16217  10.913   4.181   6.422 -1.0944 -0.7944 -0.5168
  861MOL0     H16218  10.689   4.048   6.396  0.7457  1.4577  0.0278
  861MOL0     H16219   8.974   4.425   6.445  0.9002 -1.7235 -0.0818
  861MOL0     H16220   8.744   4.482   6.366 -2.0933 -2.9095  1.9881
  861MOL0     H16221   8.301   4.170   6.068  0.0313 -0.5563 -3.7936
  861MOL0     H16222   8.083   4.282   5.998 -0.0970 -0.1692 -0.2678
  861MOL0     H16223   8.047   4.546   5.798  0.5203 -0.3629 -0.4981
  861MOL0     H16224   8.072   4.689   5.898  0.2369 -1.3915  0.4619
  861MOL0     H16225   7.871   4.701   5.774 -0.6522  1.4349 -0.6646
  861MOL0     H16226   7.838   4.698   5.952 -5.7193  0.2976 -2.2181
  861MOL0     H16227   7.782   4.453   5.936  1.3908 -1.6141 -1.0881
  861MOL0     H16228   7.776   4.476   5.757 -0.6123  0.0588 -0.2672
  861MOL0     H16229   7.589   4.594   5.961  1.8773 -0.5352  1.3679
  861MOL0     H16230   7.616   4.677   5.806 -1.1644 -0.5085  0.9406
  861MOL0     H16231   7.357   4.355   5.692 -0.3584 -1.5283  1.8943
  861MOL0     H16232   8.227   4.665   6.111  1.9454 -0.3359  0.5909
  861MOL0     H16233   8.523   4.533   6.278  0.0151  0.0387 -0.6101
  861MOL0     H16234   8.536   4.650   6.153  0.5456 -0.0977  0.2394
  861MOL0     H16235   8.400   4.660   6.264 -1.5662 -0.7128  0.2173
  862MOL0     O16236   7.894   8.193   4.524  0.0321 -0.0788 -0.5125
  862MOL0     C16237   7.848   8.094   4.467  0.3828 -0.9233  0.1271
  862MOL0     O16238   7.908   8.019   4.369  0.6311 -0.2739  0.2721
  862MOL0     C16239   8.033   8.056   4.314 -0.3611 -0.1430  0.3348
  862MOL0     C16240   8.064   7.977   4.205  0.4446  0.2223 -0.0976
  862MOL0     C16241   8.186   7.971   4.145 -0.2367  0.1364  0.0601
  862MOL0     C16242   8.290   8.053   4.189 -0.0540  1.1116  0.1441
  862MOL0     O16243   8.416   8.073   4.130 -0.3098  0.3470 -0.4062
  862MOL0     C16244   8.440   8.032   3.995  0.2469  0.1322  0.6208
  862MOL0     C16245   8.589   8.066   3.961 -0.5701 -1.1513 -0.3855
  862MOL0     C16246   8.686   7.985   4.036 -0.0615  0.0203 -0.3303
  862MOL0     C16247   8.824   8.038   4.036 -0.1148  0.1544  0.5917
  862MOL0     C16248   8.911   7.933   4.096 -0.0600 -0.3325  0.2315
  862MOL0     C16249   9.060   7.959   4.096  0.2001 -0.3132  0.2908
  862MOL0     C16250   9.135   7.836   4.159 -0.1762 -0.3129 -0.5592
  862MOL0     C16251   9.284   7.869   4.165  0.7762 -0.8011  0.5851
  862MOL0     N16252   9.365   7.775   4.240  0.0555 -0.1048  0.2875
  862MOL0     C16253   9.501   7.772   4.250 -0.3975 -0.6530  0.1695
  862MOL0     C16254   9.529   7.670   4.332  0.4025 -0.1638  1.1434
  862MOL0     C16255   9.656   7.648   4.400  0.2284  0.3427 -0.1638
  862MOL0     C16256   9.770   7.750   4.354  0.4889 -0.3282 -0.8485
  862MOL0     C16257   9.903   7.709   4.405 -0.4139  0.9740 -0.1078
  862MOL0     C16258  10.021   7.802   4.345  0.3298  0.2587 -0.6581
  862MOL0     O16259   9.980   7.937   4.367  0.1167  0.2425 -0.5932
  862MOL0     C16260  10.051   8.049   4.348 -0.5723 -0.6330  0.5112
  862MOL0     C16261  10.191   8.057   4.317 -0.4380 -0.2873  0.3920
  862MOL0     C16262  10.251   8.177   4.311 -0.1467 -0.8635 -0.1645
  862MOL0     C16263  10.177   8.298   4.310  0.0415 -0.2928  0.4954
  862MOL0     C16264  10.236   8.430   4.259 -1.0241 -0.0826 -0.3236
  862MOL0     O16265  10.348   8.427   4.178 -0.5591 -0.4697  0.2702
  862MOL0     C16266  10.398   8.530   4.104  0.5112  0.9102  0.6485
  862MOL0     C16267  10.330   8.635   4.064 -0.2570 -0.2976  0.5228
  862MOL0     C16268  10.391   8.738   3.989  0.5731  0.5892 -0.5536
  862MOL0     C16269  10.525   8.745   3.963 -0.8349 -0.7520 -0.1624
  862MOL0     O16270  10.589   8.840   3.885 -0.1284  0.3027  0.3679
  862MOL0     C16271  10.647   8.795   3.764  0.1100  0.0295  0.4981
  862MOL0     C16272  10.755   8.899   3.727  0.0190 -1.1672 -0.1016
  862MOL0     C16273  10.884   8.879   3.814  0.3682 -0.3631  0.2273
  862MOL0     C16274  10.986   8.984   3.771  0.1204  0.5130  0.7059
  862MOL0     C16275  11.130   8.945   3.809 -0.3135  0.3418 -0.4423
  862MOL0     C16276  11.230   9.063   3.779 -0.3136  0.0543 -0.0523
  862MOL0     C16277  11.203   9.125   3.644 -0.3773 -0.0546 -0.2755
  862MOL0     C16278  11.309   9.219   3.583 -0.0671  0.4074 -0.3199
  862MOL0    Cl16279  11.320   9.353   3.705 -0.0260 -0.0372  0.3691
  862MOL0     C16280  10.592   8.624   4.006  1.6125  0.0601  1.1928
  862MOL0     C16281  10.530   8.519   4.077 -0.4342 -0.4128 -0.5624
  862MOL0     O16282  10.173   8.532   4.283 -0.2932  0.0168  0.5516
  862MOL0     C16283  10.047   8.295   4.351  0.7971 -0.0515  0.5401
  862MOL0     C16284   9.985   8.173   4.364  0.1037  0.4820  0.0154
  862MOL0     N16285   9.409   7.608   4.360  0.5519  0.2948 -0.7468
  862MOL0     N16286   9.318   7.660   4.292 -0.0972 -0.7906 -0.1962
  862MOL0     C16287   8.265   8.139   4.302 -0.1978 -0.1268  0.1929
  862MOL0     C16288   8.136   8.141   4.360  0.3908 -0.2377  0.0215
  862MOL0     C16289   7.706   8.058   4.485 -0.2577 -1.1722 -0.3458
  862MOL0     C16290   7.647   7.962   4.396  0.0398  0.0204  0.5098
  862MOL0     C16291   7.512   7.953   4.382 -0.2412 -0.0467  0.2758
  862MOL0     C16292   7.427   8.014   4.470 -0.3988 -0.3948  0.0739
  862MOL0     O16293   7.299   8.036   4.435 -0.6835 -0.3599 -0.9949
  862MOL0     C16294   7.199   8.047   4.540  0.0080 -0.0120  0.7681
  862MOL0     C16295   7.065   8.004   4.484  0.4363  0.0708 -0.4084
  862MOL0     C16296   6.963   8.055   4.588 -0.2986 -0.0386 -1.0390
  862MOL0     C16297   6.833   7.976   4.594  0.6192 -1.3505  0.7467
  862MOL0     C16298   6.729   8.044   4.660 -0.3553  0.7027 -0.4980
  862MOL0     C16299   6.634   8.089   4.726 -0.8941 -0.0666  0.3914
  862MOL0     C16300   7.480   8.105   4.558 -0.0162 -0.8057 -0.5792
  862MOL0     C16301   7.618   8.131   4.563  0.7757 -0.6907 -0.0675
  862MOL0     C16302   7.658   8.230   4.666 -0.1423 -0.5810 -0.9939
  862MOL0     H16303   7.998   7.897   4.174 -0.9845  1.7724 -1.2849
  862MOL0     H16304   8.190   7.903   4.060 -1.0748 -1.8524  1.5249
  862MOL0     H16305   8.424   7.926   3.974  1.5493  0.2188 -0.9796
  862MOL0     H16306   8.363   8.081   3.934 -3.5406 -1.5629  3.6047
  862MOL0     H16307   8.600   8.172   3.988 -0.7006 -2.2847  5.0296
  862MOL0     H16308   8.605   8.058   3.853 -0.6940 -2.6945 -0.3108
  862MOL0     H16309   8.690   7.883   3.996  0.5600  0.8249 -2.4953
  862MOL0     H16310   8.661   7.985   4.142 -0.1471 -1.0417 -0.3345
  862MOL0     H16311   8.847   8.044   3.929  2.5961 -2.7354  0.8628
  862MOL0     H16312   8.837   8.133   4.089  2.2441  1.4997 -2.0977
  862MOL0     H16313   8.887   7.921   4.202  2.6370 -0.0437  0.9524
  862MOL0     H16314   8.889   7.840   4.042  0.2318  0.6098 -1.5669
  862MOL0     H16315   9.094   7.971   3.993  1.4113  0.0750  0.7150
  862MOL0     H16316   9.081   8.049   4.155  1.4979 -1.9762  2.5302
  862MOL0     H16317   9.131   7.753   4.088 -0.0174  1.1819 -2.3928
  862MOL0     H16318   9.099   7.813   4.260 -2.7749  1.0008 -1.1182
  862MOL0     H16319   9.321   7.892   4.064  0.0294  2.1247  0.8842
  862MOL0     H16320   9.288   7.961   4.223  0.4675 -1.1740  1.2081
  862MOL0     H16321   9.564   7.847   4.203 -0.5183 -1.5538 -1.4893
  862MOL0     H16322   9.636   7.646   4.508 -1.8823  1.6722 -0.4752
  862MOL0     H16323   9.685   7.547   4.369 -2.5417 -0.1174 -1.6055
  862MOL0     H16324   9.773   7.751   4.245 -1.4006 -2.3317 -0.9814
  862MOL0     H16325   9.738   7.852   4.379  2.3050 -0.0434  0.5786
  862MOL0     H16326   9.929   7.613   4.362 -0.0022  1.7546 -1.6730
  862MOL0     H16327   9.904   7.717   4.514  1.4307  1.4132 -0.1202
  862MOL0     H16328  10.039   7.755   4.248 -0.3945 -5.1036  1.4183
  862MOL0     H16329  10.113   7.789   4.402 -0.2146 -0.5554  0.0689
  862MOL0     H16330  10.253   7.969   4.308  0.4320  0.3957 -0.6522
  862MOL0     H16331  10.357   8.181   4.289 -0.3962  1.9213 -1.2996
  862MOL0     H16332  10.222   8.640   4.054 -0.0037  1.2679 -2.4970
  862MOL0     H16333  10.336   8.831   3.979  1.2160  1.2526  1.4927
  862MOL0     H16334  10.689   8.694   3.770  0.5365  0.1668 -0.0383
  862MOL0     H16335  10.561   8.792   3.696 -0.9651  1.1246  1.7597
  862MOL0     H16336  10.782   8.886   3.621  1.6262  1.2386 -0.0721
  862MOL0     H16337  10.728   9.003   3.746  2.2576 -0.7423  1.1334
  862MOL0     H16338  10.859   8.867   3.920  0.4048 -1.0373  0.1652
  862MOL0     H16339  10.931   8.787   3.779  0.4998 -1.1718  2.3335
  862MOL0     H16340  10.966   9.084   3.810 -1.5023  0.7685 -0.6651
  862MOL0     H16341  10.976   8.991   3.662 -1.0593  0.3274  0.7876
  862MOL0     H16342  11.176   8.866   3.749  0.8248  0.4406  0.2541
  862MOL0     H16343  11.153   8.906   3.909  2.4159  0.7642 -0.8096
  862MOL0     H16344  11.232   9.140   3.857 -0.1841 -1.1080  1.1364
  862MOL0     H16345  11.331   9.021   3.780  0.3965  1.3085 -3.6152
  862MOL0     H16346  11.111   9.183   3.636  0.8081  1.8743 -0.3986
  862MOL0     H16347  11.187   9.038   3.579  3.2651 -1.3632  0.3429
  862MOL0     H16348  11.406   9.167   3.587 -0.2427  0.0882 -0.1642
  862MOL0     H16349  11.279   9.245   3.481  0.7418 -0.5292 -0.8188
  862MOL0     H16350  10.698   8.622   3.982  1.3763  1.7419 -0.3239
  862MOL0     H16351  10.586   8.433   4.114 -0.8617 -0.4634 -0.0258
  862MOL0     H16352   9.977   8.377   4.341  2.7580  1.6233 -0.3044
  862MOL0     H16353   9.878   8.175   4.378  0.1219  3.4390  0.3506
  862MOL0     H16354   8.344   8.191   4.355  1.1907 -1.5609 -0.3893
  862MOL0     H16355   8.122   8.210   4.443  2.0209  1.8052 -1.2990
  862MOL0     H16356   7.708   7.892   4.339  2.4502  1.7416  0.8633
  862MOL0     H16357   7.473   7.883   4.309  6.0928 -2.7723 -1.1915
  862MOL0     H16358   7.197   8.152   4.571 -0.9073 -0.3720  2.0140
  862MOL0     H16359   7.226   8.009   4.639  0.2454  0.6976  0.9844
  862MOL0     H16360   7.071   7.895   4.474 -0.1385  0.0124 -0.1702
  862MOL0     H16361   7.052   8.051   4.387  1.5010 -3.4809 -2.4305
  862MOL0     H16362   6.936   8.157   4.556  0.5313 -0.5358 -3.5359
  862MOL0     H16363   7.005   8.058   4.689 -2.1637 -1.5640 -0.1638
  862MOL0     H16364   6.808   7.968   4.488  0.7647  1.1499  0.4543
  862MOL0     H16365   6.847   7.876   4.636 -0.4596 -1.5877  0.5522
  862MOL0     H16366   6.543   8.110   4.779 -1.0102 -4.8167  2.5439
  862MOL0     H16367   7.415   8.165   4.620  2.6310 -0.0363  1.6829
  862MOL0     H16368   7.756   8.208   4.711 -1.4977 -1.4363  1.7243
  862MOL0     H16369   7.667   8.330   4.622 -1.7041 -0.1608 -0.4063
  862MOL0     H16370   7.584   8.229   4.746  1.4966 -1.6133  0.5972
  863MOL0     O16371   9.656   2.187   0.634 -0.2729 -0.2210  0.3940
  863MOL0     C16372   9.537   2.157   0.611 -0.9490  0.0830  0.0164
  863MOL0     O16373   9.487   2.070   0.520  0.1150  0.3002  0.2070
  863MOL0     C16374   9.569   2.002   0.453 -0.1108 -0.0345  0.2545
  863MOL0     C16375   9.581   1.869   0.482 -0.6875  0.1952  0.4952
  863MOL0     C16376   9.681   1.794   0.418 -1.0043  0.1893  0.2368
  863MOL0     C16377   9.778   1.840   0.326  1.0370  0.1928 -0.3379
  863MOL0     O16378   9.868   1.760   0.255 -0.2455  0.2584 -0.1610
  863MOL0     C16379   9.835   1.628   0.224  0.6023 -0.1928  0.1852
  863MOL0     C16380   9.897   1.581   0.091 -0.2059  0.4137  0.0359
  863MOL0     C16381  10.041   1.553   0.092 -0.2978  0.3117  0.5608
  863MOL0     C16382  10.152   1.661   0.088  0.5144 -0.2890  0.4266
  863MOL0     C16383  10.164   1.739  -0.044  0.2486 -0.0343 -0.8637
  863MOL0     C16384  10.280   1.836  -0.027  0.3294  0.2150  0.4972
  863MOL0     C16385  10.281   1.924   0.096 -0.4306 -0.4615  0.4829
  863MOL0     C16386  10.391   2.024   0.067 -0.1815 -0.6706 -0.0223
  863MOL0     N16387  10.519   1.956   0.044 -0.3389  0.5547 -0.0600
  863MOL0     C16388  10.588   1.959  -0.076 -0.0072  0.7151 -0.2279
  863MOL0     C16389  10.712   1.914  -0.041  0.1396  0.0012  0.0357
  863MOL0     C16390  10.827   1.903  -0.141  0.7379  0.6987 -0.4554
  863MOL0     C16391  10.953   1.981  -0.083  0.4336 -0.3890  0.1483
  863MOL0     C16392  11.044   2.003  -0.195 -0.7362 -0.1623  0.7155
  863MOL0     C16393  11.081   1.880  -0.272  0.3738 -0.0532 -0.0491
  863MOL0     O16394  11.188   1.917  -0.361 -0.0069 -0.3375  1.1109
  863MOL0     C16395  11.274   1.821  -0.404 -0.6407 -0.0293 -0.4141
  863MOL0     C16396  11.253   1.680  -0.390  0.1306 -0.0888  0.1687
  863MOL0     C16397  11.334   1.588  -0.452  0.4001 -0.4761 -0.5869
  863MOL0     C16398  11.449   1.629  -0.526 -0.9220  0.2822  0.7141
  863MOL0     C16399  11.539   1.538  -0.596 -0.3309 -0.9201 -0.9009
  863MOL0     O16400  11.660   1.581  -0.629  0.7109 -0.0293  0.5623
  863MOL0     C16401  11.762   1.504  -0.683  0.2142  0.1004  0.2539
  863MOL0     C16402  11.847   1.565  -0.777  0.3451  1.3339 -0.3773
  863MOL0     C16403  11.963   1.502  -0.816 -0.2477 -0.1195 -0.0128
  863MOL0     C16404  11.980   1.362  -0.792 -0.0547 -0.4836 -0.0267
  863MOL0     O16405  12.084   1.306  -0.841  0.2875 -0.0158  0.0866
  863MOL0     C16406  12.086   1.165  -0.864 -0.8994 -0.3421 -1.3149
  863MOL0     C16407  12.198   1.130  -0.952 -0.9902 -0.3992  0.8519
  863MOL0     C16408  12.336   1.166  -0.895 -0.0834 -0.0146  0.2488
  863MOL0     C16409  12.444   1.083  -0.970 -0.4926 -0.5085 -0.1713
  863MOL0     C16410  12.589   1.111  -0.907 -0.6909 -0.1125  0.4609
  863MOL0     C16411  12.688   1.000  -0.940  0.3833  0.3614  0.5210
  863MOL0     C16412  12.827   1.026  -0.880  0.2660  0.2850  0.4656
  863MOL0     C16413  12.912   1.131  -0.941 -0.1711 -0.4769 -0.0818
  863MOL0    Cl16414  12.958   1.087  -1.102 -0.2407  0.0904  0.4084
  863MOL0     C16415  11.892   1.292  -0.706  0.1048  1.0678 -0.3199
  863MOL0     C16416  11.789   1.366  -0.649  0.1888  0.6830  0.3931
  863MOL0     O16417  11.499   1.424  -0.605 -0.6064  0.0199  0.5251
  863MOL0     C16418  11.473   1.765  -0.534  0.9731 -0.4352  0.1808
  863MOL0     C16419  11.384   1.862  -0.474  0.4828 -0.1647 -0.1012
  863MOL0     N16420  10.717   1.908   0.100 -0.4245 -0.7973  0.2281
  863MOL0     N16421  10.602   1.921   0.152 -0.5146 -0.3043  0.7699
  863MOL0     C16422   9.762   1.980   0.309 -0.0918  0.7373 -0.5071
  863MOL0     C16423   9.652   2.061   0.357 -0.4283  0.0705  0.3839
  863MOL0     C16424   9.447   2.214   0.713 -0.0992 -0.6403  0.2930
  863MOL0     C16425   9.483   2.334   0.772 -0.1431  0.1714  0.2990
  863MOL0     C16426   9.418   2.383   0.888 -0.1121 -0.7922 -0.3928
  863MOL0     C16427   9.328   2.299   0.949 -0.2355 -0.1455 -1.0840
  863MOL0     O16428   9.270   2.325   1.068 -0.2219  0.2177  0.4701
  863MOL0     C16429   9.301   2.438   1.141  0.0881 -0.0080 -0.0673
  863MOL0     C16430   9.437   2.437   1.223 -0.6126 -0.7355 -0.0783
  863MOL0     C16431   9.417   2.356   1.344 -0.4500  0.4097  0.0745
  863MOL0     C16432   9.537   2.360   1.434 -0.1285 -0.9278  0.6521
  863MOL0     C16433   9.513   2.261   1.544 -0.5734  0.2152  1.2593
  863MOL0     C16434   9.509   2.172   1.626  0.5639 -0.0484 -0.3612
  863MOL0     C16435   9.288   2.189   0.881  0.4775  1.3729 -0.2371
  863MOL0     C16436   9.344   2.141   0.766  0.1418 -0.4443 -0.1955
  863MOL0     C16437   9.303   2.008   0.718  0.1023 -0.0794 -0.4266
  863MOL0     H16438   9.531   1.817   0.563 -0.8928  0.0414  0.2685
  863MOL0     H16439   9.662   1.688   0.432 -5.5830  0.7145 -0.5160
  863MOL0     H16440   9.862   1.560   0.304  0.1170  0.9374  1.3475
  863MOL0     H16441   9.727   1.626   0.205  0.3319 -1.5260  1.6889
  863MOL0     H16442   9.889   1.662   0.018  2.5514  0.3566 -0.4445
  863MOL0     H16443   9.843   1.492   0.058  0.6775  0.2054 -0.8623
  863MOL0     H16444  10.049   1.505  -0.006  1.0711  1.4001  0.1156
  863MOL0     H16445  10.061   1.471   0.161 -1.1724 -0.8338 -0.4986
  863MOL0     H16446  10.130   1.728   0.172 -2.5272 -3.3798  2.3441
  863MOL0     H16447  10.245   1.608   0.109 -0.5596 -2.6320 -0.3908
  863MOL0     H16448  10.175   1.691  -0.142 -2.2326  0.1687 -1.3196
  863MOL0     H16449  10.067   1.790  -0.052  0.9791  2.2062  2.4232
  863MOL0     H16450  10.369   1.773  -0.019  1.3520  1.3413 -1.3611
  863MOL0     H16451  10.295   1.891  -0.120 -1.5902  0.2111  0.1340
  863MOL0     H16452  10.304   1.861   0.183  2.2867 -1.9475 -1.1469
  863MOL0     H16453  10.189   1.979   0.114  0.4941  2.9400 -3.7618
  863MOL0     H16454  10.361   2.083  -0.020  0.5645  0.3392  0.3827
  863MOL0     H16455  10.395   2.089   0.154  3.0474 -2.2074  1.1566
  863MOL0     H16456  10.556   1.986  -0.176 -0.1179  0.1451 -0.3486
  863MOL0     H16457  10.832   1.794  -0.148 -0.9679  0.3283  2.1788
  863MOL0     H16458  10.798   1.947  -0.237 -0.5622 -0.0410 -0.4327
  863MOL0     H16459  10.925   2.084  -0.057  0.7555 -0.1637 -0.3737
  863MOL0     H16460  10.996   1.937   0.007 -2.5794 -0.0717  1.8732
  863MOL0     H16461  11.134   2.041  -0.146 -1.5859 -0.9733  3.0394
  863MOL0     H16462  10.996   2.078  -0.260 -2.6324 -0.2059  2.0024
  863MOL0     H16463  11.005   1.839  -0.339  1.6069 -3.7985  0.5879
  863MOL0     H16464  11.109   1.795  -0.209 -1.5883 -2.1229 -1.7926
  863MOL0     H16465  11.168   1.635  -0.340 -0.9438  1.5100 -0.1432
  863MOL0     H16466  11.314   1.484  -0.429  2.7954 -0.7479  0.6734
  863MOL0     H16467  11.821   1.665  -0.811 -1.3209  1.5999  1.5128
  863MOL0     H16468  12.039   1.553  -0.875 -1.2273  0.0145 -1.1959
  863MOL0     H16469  12.091   1.109  -0.770 -1.1220 -0.1408 -1.1807
  863MOL0     H16470  11.991   1.140  -0.913 -1.3412  0.9903 -1.1844
  863MOL0     H16471  12.191   1.023  -0.975 -0.2600 -0.3729  0.4752
  863MOL0     H16472  12.194   1.179  -1.050 -0.4225 -0.0515  1.0010
  863MOL0     H16473  12.360   1.272  -0.906  0.7883 -0.1527  0.7108
  863MOL0     H16474  12.345   1.135  -0.791  0.6497 -2.0087 -0.3486
  863MOL0     H16475  12.448   1.115  -1.074 -3.7185 -1.2029 -0.6006
  863MOL0     H16476  12.427   0.975  -0.965  0.2989 -0.7170 -1.4428
  863MOL0     H16477  12.583   1.112  -0.798 -0.7056 -1.5462  0.4894
  863MOL0     H16478  12.620   1.206  -0.952 -1.0171 -0.4443 -0.4950
  863MOL0     H16479  12.653   0.900  -0.914  0.1399  0.7795  1.8488
  863MOL0     H16480  12.694   0.999  -1.049  0.3090 -0.5616  0.5191
  863MOL0     H16481  12.875   0.928  -0.892  1.8221  1.0859 -0.0724
  863MOL0     H16482  12.813   1.041  -0.773  0.8009  1.4957  0.3784
  863MOL0     H16483  12.869   1.231  -0.955  2.3778  0.4412 -2.1875
  863MOL0     H16484  12.990   1.141  -0.866 -0.8740 -1.1412  0.7640
  863MOL0     H16485  11.899   1.185  -0.687 -1.5589  0.7926 -1.0657
  863MOL0     H16486  11.726   1.311  -0.580 -1.3670  1.2527 -0.5175
  863MOL0     H16487  11.560   1.803  -0.586 -2.7959  4.0780 -3.8906
  863MOL0     H16488  11.407   1.968  -0.478 -0.3497  0.1431  2.0773
  863MOL0     H16489   9.829   2.034   0.243 -3.4516  1.9504 -3.1661
  863MOL0     H16490   9.630   2.164   0.330 -1.5732 -0.0163  0.9290
  863MOL0     H16491   9.558   2.389   0.717  1.2316 -1.6189  0.2865
  863MOL0     H16492   9.444   2.481   0.925 -1.5167 -1.0701  1.4874
  863MOL0     H16493   9.227   2.439   1.221  0.4366  2.1390  0.2880
  863MOL0     H16494   9.287   2.529   1.082 -1.7985  0.9265  1.7074
  863MOL0     H16495   9.458   2.538   1.258  1.1975 -0.3073 -2.1506
  863MOL0     H16496   9.530   2.413   1.172 -0.8595 -0.4162 -0.6933
  863MOL0     H16497   9.382   2.256   1.317 -2.5143  0.5909  1.8384
  863MOL0     H16498   9.340   2.383   1.416 -0.5679 -2.2681  1.0714
  863MOL0     H16499   9.624   2.333   1.373  0.6222  0.8597  0.8794
  863MOL0     H16500   9.557   2.462   1.467 -2.0073  0.3070 -1.6394
  863MOL0     H16501   9.508   2.121   1.720  0.6725 -2.3253 -1.5059
  863MOL0     H16502   9.211   2.128   0.927  0.6059  2.1464  1.0426
  863MOL0     H16503   9.383   1.934   0.713 -1.3333 -1.7267  0.0863
  863MOL0     H16504   9.224   1.972   0.784  1.1625 -0.4275  0.6992
  863MOL0     H16505   9.257   2.026   0.620  0.4953  0.9323 -0.4325
  864MOL0     O16506   3.863   8.185   8.260 -1.0996  0.6872 -0.6681
  864MOL0     C16507   3.848   8.221   8.379 -0.1123 -0.8548  0.7158
  864MOL0     O16508   3.932   8.316   8.431  0.1416  0.5425 -0.0934
  864MOL0     C16509   4.071   8.314   8.409 -0.6666 -1.3163  0.1127
  864MOL0     C16510   4.154   8.253   8.308  0.8760 -0.0662 -0.6612
  864MOL0     C16511   4.287   8.277   8.305 -0.1441 -0.1521  0.0779
  864MOL0     C16512   4.348   8.348   8.403 -0.3919  0.5470 -0.3888
  864MOL0     O16513   4.480   8.346   8.417 -0.0840 -0.4230 -0.5757
  864MOL0     C16514   4.550   8.408   8.317  1.3248  0.0133  0.3866
  864MOL0     C16515   4.643   8.511   8.368  0.4502  0.3313  0.5399
  864MOL0     C16516   4.731   8.566   8.258 -0.8894  0.0875 -0.1840
  864MOL0     C16517   4.808   8.688   8.319  0.7422  0.4696  0.4101
  864MOL0     C16518   4.912   8.740   8.220 -0.0125  0.5782 -0.4858
  864MOL0     C16519   4.999   8.853   8.275  0.1999 -0.2825 -0.1656
  864MOL0     C16520   5.083   8.937   8.176 -0.0346  0.0550  0.3506
  864MOL0     C16521   5.163   9.054   8.244  0.2601 -0.3347  0.4485
  864MOL0     N16522   5.229   9.137   8.137 -0.5680  0.0856  0.2126
  864MOL0     C16523   5.354   9.129   8.079  0.3828  0.8924  0.5266
  864MOL0     C16524   5.361   9.234   7.990  0.3547 -0.7869  0.4091
  864MOL0     C16525   5.480   9.259   7.895  0.5077 -0.6736  0.2230
  864MOL0     C16526   5.598   9.333   7.965  1.2931 -0.3414  0.0587
  864MOL0     C16527   5.667   9.250   8.072 -0.1195  0.2859  0.0109
  864MOL0     C16528   5.792   9.324   8.114  0.3788  0.8251  0.2446
  864MOL0     O16529   5.754   9.447   8.173 -0.1236 -0.1178  0.1169
  864MOL0     C16530   5.857   9.485   8.248 -0.5645 -0.6166 -0.2727
  864MOL0     C16531   5.944   9.582   8.206 -0.0093 -0.1809  0.5679
  864MOL0     C16532   6.060   9.618   8.275  0.3313 -0.1759  0.5091
  864MOL0     C16533   6.089   9.564   8.400  0.3986  0.9498 -0.1241
  864MOL0     C16534   6.210   9.595   8.477  0.4453  0.1002  0.2387
  864MOL0     O16535   6.218   9.560   8.609  0.0683  0.0290  0.1681
  864MOL0     C16536   6.342   9.563   8.669  0.5252 -0.1502 -0.6832
  864MOL0     C16537   6.415   9.446   8.676 -0.4124  0.1467  0.2575
  864MOL0     C16538   6.540   9.442   8.759  0.0758 -0.7028 -0.4830
  864MOL0     C16539   6.584   9.564   8.810  0.0603  0.5499 -0.4080
  864MOL0     O16540   6.702   9.557   8.889  0.1180  0.2199 -0.6048
  864MOL0     C16541   6.761   9.672   8.940  0.0048 -0.2359  0.1034
  864MOL0     C16542   6.855   9.642   9.051 -0.3588 -0.8981 -0.2403
  864MOL0     C16543   6.839   9.751   9.157 -0.6309 -0.7166 -0.1582
  864MOL0     C16544   6.923   9.725   9.277 -0.1946  0.1432 -0.1727
  864MOL0     C16545   6.918   9.827   9.379  0.0739 -0.4033  0.6965
  864MOL0     C16546   7.003   9.769   9.503  0.2353 -0.3185 -0.5485
  864MOL0     C16547   7.027   9.880   9.606 -0.2748  0.4245 -0.1493
  864MOL0     C16548   7.111   9.999   9.555  0.1094 -0.1959 -0.0033
  864MOL0    Cl16549   7.267   9.937   9.482  0.2657 -0.1956  0.5810
  864MOL0     C16550   6.515   9.682   8.784  0.4662  0.1732  0.0581
  864MOL0     C16551   6.392   9.683   8.716  0.1988 -0.0149 -0.1813
  864MOL0     O16552   6.306   9.640   8.411  0.1730  0.2858 -0.1658
  864MOL0     C16553   6.003   9.467   8.448  0.2278  0.0375  0.5123
  864MOL0     C16554   5.885   9.432   8.377 -0.5765  0.5268  0.2192
  864MOL0     N16555   5.245   9.311   8.002  0.4461 -0.0619  0.1636
  864MOL0     N16556   5.170   9.240   8.078 -0.3866  0.1100 -0.9199
  864MOL0     C16557   4.267   8.400   8.510 -0.1123 -0.3014  0.2842
  864MOL0     C16558   4.133   8.381   8.516 -0.0892  0.3835  0.2597
  864MOL0     C16559   3.726   8.168   8.448  0.2839 -0.6969  0.3113
  864MOL0     C16560   3.627   8.097   8.375 -1.8745  0.3387  0.9997
  864MOL0     C16561   3.513   8.053   8.427  0.9543 -0.3735  0.2937
  864MOL0     C16562   3.481   8.087   8.565 -0.4473  1.1174  0.2800
  864MOL0     O16563   3.366   8.035   8.622 -0.8510 -0.1572  0.3060
  864MOL0     C16564   3.275   7.975   8.542  0.5864 -0.1665  0.4074
  864MOL0     C16565   3.145   7.947   8.621 -0.1814 -0.6547 -0.2705
  864MOL0     C16566   3.055   7.872   8.524  0.5353  0.7477 -0.1324
  864MOL0     C16567   2.930   7.798   8.586  0.1012 -0.4146  0.3490
  864MOL0     C16568   2.824   7.890   8.621 -0.4485 -0.1008 -0.5206
  864MOL0     C16569   2.748   7.973   8.649  0.1107 -0.2313 -0.9651
  864MOL0     C16570   3.582   8.148   8.638  0.1249  0.5773  0.0998
  864MOL0     C16571   3.699   8.191   8.586 -0.3401 -0.1878 -0.0805
  864MOL0     C16572   3.795   8.265   8.684 -0.0449 -0.3779 -0.1752
  864MOL0     H16573   4.114   8.186   8.232 -1.0405  0.1419  0.1102
  864MOL0     H16574   4.350   8.238   8.225 -1.1697  1.2416 -1.4896
  864MOL0     H16575   4.603   8.325   8.269 -0.8182 -1.7805  0.9461
  864MOL0     H16576   4.489   8.456   8.240  0.7944  0.3917  1.0301
  864MOL0     H16577   4.708   8.469   8.445  0.3595 -0.1758  0.3420
  864MOL0     H16578   4.578   8.591   8.406  3.1025  3.1181 -0.3669
  864MOL0     H16579   4.673   8.598   8.171 -1.6994 -1.2801 -0.1791
  864MOL0     H16580   4.807   8.495   8.225  0.4243  0.9658  0.8374
  864MOL0     H16581   4.742   8.774   8.329 -0.1098  0.1801 -1.9920
  864MOL0     H16582   4.849   8.663   8.417  0.5305  0.9771  0.6294
  864MOL0     H16583   4.969   8.654   8.183 -1.7423 -0.5497 -0.6507
  864MOL0     H16584   4.858   8.782   8.134 -3.3490 -1.9604  0.1681
  864MOL0     H16585   4.943   8.913   8.347  2.3354  1.2076  0.3299
  864MOL0     H16586   5.075   8.801   8.335 -0.3013 -0.4796  0.3129
  864MOL0     H16587   5.017   8.977   8.098 -1.8422 -5.1505 -1.2626
  864MOL0     H16588   5.152   8.869   8.125 -0.2015 -1.1100  1.6059
  864MOL0     H16589   5.084   9.119   8.284  0.4709  0.8192 -0.9218
  864MOL0     H16590   5.238   9.015   8.314  0.0135  0.3330  1.1098
  864MOL0     H16591   5.427   9.050   8.095 -2.4682 -1.7724  1.4411
  864MOL0     H16592   5.517   9.175   7.834  1.4457  0.2716 -0.5413
  864MOL0     H16593   5.435   9.325   7.820 -0.6848  2.1859  3.2119
  864MOL0     H16594   5.669   9.355   7.885  1.6032  1.0570  0.6877
  864MOL0     H16595   5.565   9.431   8.002  0.8204 -1.3934  2.6581
  864MOL0     H16596   5.683   9.151   8.029 -0.7813  0.0753  0.2397
  864MOL0     H16597   5.602   9.235   8.158  0.6418 -2.9181  0.1661
  864MOL0     H16598   5.851   9.342   8.023 -0.0136 -1.0153 -0.4248
  864MOL0     H16599   5.842   9.253   8.181  0.3775 -0.1755 -0.7659
  864MOL0     H16600   5.923   9.638   8.116 -2.1425  1.0392  1.7342
  864MOL0     H16601   6.126   9.696   8.238 -0.1701  0.7036  1.4129
  864MOL0     H16602   6.363   9.357   8.640  0.0961  0.3911 -1.1580
  864MOL0     H16603   6.598   9.355   8.788 -1.0589 -0.3669  3.4000
  864MOL0     H16604   6.825   9.714   8.861  1.8018 -0.2772  1.4667
  864MOL0     H16605   6.683   9.739   8.977 -0.9874 -1.2608 -0.0994
  864MOL0     H16606   6.835   9.547   9.102  0.5227 -2.0859 -2.0289
  864MOL0     H16607   6.955   9.636   9.006  0.6152 -0.1451  1.6933
  864MOL0     H16608   6.876   9.844   9.113  0.1399 -0.7977  0.3018
  864MOL0     H16609   6.734   9.760   9.182 -0.0140  4.1056  1.6204
  864MOL0     H16610   7.025   9.730   9.237 -0.1667  0.6612 -0.0446
  864MOL0     H16611   6.897   9.630   9.325  0.8608 -0.8956 -1.5480
  864MOL0     H16612   6.815   9.850   9.410 -0.4192 -2.3369  0.6536
  864MOL0     H16613   6.960   9.922   9.345 -0.4972 -0.7177 -0.9773
  864MOL0     H16614   6.948   9.687   9.549  1.6637 -1.8461 -1.4774
  864MOL0     H16615   7.101   9.733   9.471  0.5715  0.7276 -0.7621
  864MOL0     H16616   7.083   9.847   9.694 -2.1394  2.3206  1.8861
  864MOL0     H16617   6.931   9.917   9.643 -1.6201 -1.5523 -1.4942
  864MOL0     H16618   7.061  10.066   9.484 -0.4680  0.7695  1.2829
  864MOL0     H16619   7.132  10.063   9.641  0.3948 -0.0015 -0.2133
  864MOL0     H16620   6.540   9.778   8.826 -0.9084  0.5125  0.1325
  864MOL0     H16621   6.328   9.770   8.699  0.4747  0.4402  0.9850
  864MOL0     H16622   6.014   9.437   8.551  1.9711 -1.3260 -0.0207
  864MOL0     H16623   5.823   9.352   8.416 -0.3242 -1.0101 -2.2567
  864MOL0     H16624   4.306   8.462   8.590  0.4314 -0.7588  0.3755
  864MOL0     H16625   4.084   8.423   8.603  2.2208 -0.2175  1.9469
  864MOL0     H16626   3.632   8.098   8.266 -1.2263 -0.6820  1.0060
  864MOL0     H16627   3.449   7.991   8.366 -0.5675 -1.2311  2.6360
  864MOL0     H16628   3.320   7.881   8.507  0.9147 -0.1590  0.8088
  864MOL0     H16629   3.256   8.033   8.452  2.0670 -0.5674 -0.1963
  864MOL0     H16630   3.092   8.039   8.644 -0.1811 -0.4698 -0.9763
  864MOL0     H16631   3.162   7.895   8.715 -0.8533  0.6014  0.5760
  864MOL0     H16632   3.109   7.792   8.473 -1.2972 -1.1264  0.7312
  864MOL0     H16633   3.033   7.944   8.445  0.7799  3.0070  1.7481
  864MOL0     H16634   2.890   7.730   8.510 -2.1352  2.6084 -1.3803
  864MOL0     H16635   2.963   7.742   8.675 -1.0794  0.7380  1.5459
  864MOL0     H16636   2.678   8.044   8.690  0.9687  0.5614 -0.8374
  864MOL0     H16637   3.559   8.169   8.742 -1.2867 -0.9634  0.1412
  864MOL0     H16638   3.801   8.200   8.772  0.4638 -2.8442 -1.9292
  864MOL0     H16639   3.900   8.265   8.654 -0.2253  0.9486 -0.8767
  864MOL0     H16640   3.764   8.366   8.711  4.4020  1.8445 -2.2987
  865MOL0     O16641   2.644   8.861   7.337  0.0962 -0.6458 -0.0502
  865MOL0     C16642   2.578   8.901   7.242  0.4288  0.6741 -0.1238
  865MOL0     O16643   2.626   8.913   7.113 -0.3460 -0.1341 -0.3923
  865MOL0     C16644   2.756   8.879   7.077 -0.1841 -0.9651  0.2585
  865MOL0     C16645   2.776   8.803   6.958 -0.5931  0.2268 -0.3481
  865MOL0     C16646   2.908   8.790   6.919 -1.3657  0.3726 -0.0754
  865MOL0     C16647   3.015   8.832   7.006  0.0163 -0.0720 -0.3243
  865MOL0     O16648   3.138   8.807   6.957  0.4565  0.0598 -0.5690
  865MOL0     C16649   3.255   8.863   7.010 -0.6759 -0.9094 -0.4215
  865MOL0     C16650   3.367   8.868   6.910 -0.3384 -0.4933 -0.3521
  865MOL0     C16651   3.480   8.963   6.952 -0.0488  0.4776  0.6222
  865MOL0     C16652   3.579   8.971   6.847 -1.0399 -0.2556  0.4033
  865MOL0     C16653   3.681   9.090   6.840 -0.4265  0.5863 -0.4556
  865MOL0     C16654   3.817   9.034   6.786  0.1345 -0.2385  0.4663
  865MOL0     C16655   3.903   9.168   6.741 -0.3072  1.1781 -0.0255
  865MOL0     C16656   4.044   9.114   6.699  1.0014  0.3442  1.5091
  865MOL0     N16657   4.049   9.023   6.584 -1.3356 -0.0746  0.5967
  865MOL0     C16658   3.958   9.022   6.491  0.8520 -0.0608 -0.0513
  865MOL0     C16659   3.940   8.897   6.445  0.3186  0.2688  0.4102
  865MOL0     C16660   3.838   8.851   6.343 -0.4329 -0.0695 -0.2736
  865MOL0     C16661   3.719   8.766   6.383 -0.4371 -0.1908 -0.9922
  865MOL0     C16662   3.600   8.831   6.455  1.4133  0.1499 -0.1174
  865MOL0     C16663   3.473   8.748   6.436 -0.0333 -0.0702 -0.3038
  865MOL0     O16664   3.451   8.718   6.299 -0.3018  0.7577  0.1371
  865MOL0     C16665   3.347   8.639   6.265  0.4600 -0.2749 -0.1454
  865MOL0     C16666   3.376   8.526   6.190 -0.3173 -0.0385 -0.1074
  865MOL0     C16667   3.288   8.439   6.135 -0.1868  0.0774 -0.4320
  865MOL0     C16668   3.151   8.487   6.149 -0.7592  0.9244 -0.9954
  865MOL0     C16669   3.037   8.419   6.086  0.4846  0.2709 -0.0259
  865MOL0     O16670   3.072   8.317   5.998  0.1421  0.3770 -0.2518
  865MOL0     C16671   2.993   8.278   5.891  0.2786  0.2683 -0.0460
  865MOL0     C16672   2.893   8.360   5.835  0.8310  0.2083  0.2015
  865MOL0     C16673   2.803   8.314   5.737 -0.0335  0.5276  0.5781
  865MOL0     C16674   2.823   8.189   5.685 -0.1255 -0.1881  0.1988
  865MOL0     O16675   2.730   8.148   5.599  0.0039  0.2956  0.3913
  865MOL0     C16676   2.615   8.101   5.662  0.3091  0.8243 -0.4681
  865MOL0     C16677   2.642   7.964   5.732  0.4260 -0.1618  0.0651
  865MOL0     C16678   2.683   7.857   5.633 -0.7192  0.2781  0.5737
  865MOL0     C16679   2.756   7.744   5.714  0.9930 -0.2788  1.0394
  865MOL0     C16680   2.787   7.625   5.617 -0.2295 -0.2871  0.2144
  865MOL0     C16681   2.892   7.533   5.685 -0.0260 -1.5113  0.6968
  865MOL0     C16682   2.963   7.436   5.592  0.1281 -0.4711 -0.5363
  865MOL0     C16683   2.897   7.292   5.590 -0.1158 -0.9907  0.2559
  865MOL0    Cl16684   2.911   7.211   5.750 -0.2028  0.0258 -0.0260
  865MOL0     C16685   2.920   8.108   5.732  0.3544  0.1925  0.4145
  865MOL0     C16686   3.009   8.153   5.829  0.2447  0.1707 -0.3532
  865MOL0     O16687   2.919   8.461   6.100 -0.3770  0.5345 -0.1637
  865MOL0     C16688   3.119   8.600   6.229 -0.4781 -0.1069 -0.1483
  865MOL0     C16689   3.218   8.679   6.273  0.0723 -0.7561  0.5462
  865MOL0     N16690   4.054   8.827   6.502  0.1107 -0.4568 -0.1451
  865MOL0     N16691   4.110   8.899   6.592 -0.4178 -0.0559 -0.2717
  865MOL0     C16692   2.985   8.897   7.127  0.4403  0.7798  0.2186
  865MOL0     C16693   2.860   8.918   7.165  0.5452  0.0820  0.1291
  865MOL0     C16694   2.429   8.943   7.259 -0.2860  0.4576  0.3144
  865MOL0     C16695   2.369   9.015   7.152 -0.4224  0.7323  0.0859
  865MOL0     C16696   2.240   9.052   7.149 -0.5094  0.0764  0.6740
  865MOL0     C16697   2.159   9.002   7.252 -0.7834  0.0004 -1.1770
  865MOL0     O16698   2.029   9.030   7.234  0.4405  0.4775 -0.1472
  865MOL0     C16699   1.931   8.964   7.324 -0.1501 -0.3501 -0.5350
  865MOL0     C16700   1.876   9.050   7.440  0.8309 -0.7553  0.8285
  865MOL0     C16701   1.772   8.974   7.520 -0.5182  0.9484  0.2582
  865MOL0     C16702   1.702   9.060   7.627 -0.0611 -0.0087 -0.5917
  865MOL0     C16703   1.610   9.156   7.569  0.4188  0.1771 -0.2917
  865MOL0     C16704   1.532   9.236   7.516 -1.2053  1.2285  0.3194
  865MOL0     C16705   2.220   8.928   7.362 -0.2920 -0.0114  0.0293
  865MOL0     C16706   2.353   8.901   7.372 -0.2372 -0.5784  1.0575
  865MOL0     C16707   2.404   8.811   7.486  0.5356  0.0025 -0.5150
  865MOL0     H16708   2.696   8.774   6.891  0.2737  1.5914 -2.0664
  865MOL0     H16709   2.941   8.754   6.822  1.3205  1.6451  0.2721
  865MOL0     H16710   3.234   8.964   7.046 -1.5299 -0.9438 -0.8060
  865MOL0     H16711   3.300   8.818   7.098 -0.3939 -0.6663 -0.4402
  865MOL0     H16712   3.314   8.919   6.829 -0.2530 -1.1942 -0.8610
  865MOL0     H16713   3.407   8.769   6.885 -0.9231 -1.0584  0.8409
  865MOL0     H16714   3.527   8.933   7.046 -1.8401 -2.3273  0.7572
  865MOL0     H16715   3.447   9.066   6.971  0.1041  0.6235  0.1104
  865MOL0     H16716   3.640   8.883   6.869  1.3471  1.0333 -0.6778
  865MOL0     H16717   3.530   8.973   6.749 -0.4716  2.3560  0.1178
  865MOL0     H16718   3.638   9.162   6.769 -0.1502 -0.5900 -1.8602
  865MOL0     H16719   3.701   9.129   6.940 -0.4875 -0.0119 -0.2127
  865MOL0     H16720   3.861   8.972   6.864 -1.2661  0.6408  2.0038
  865MOL0     H16721   3.803   8.972   6.698 -2.9508  1.6795 -0.5652
  865MOL0     H16722   3.905   9.233   6.829 -0.4713 -0.7501  1.4863
  865MOL0     H16723   3.853   9.207   6.652 -1.1958 -0.1486 -0.1417
  865MOL0     H16724   4.111   9.200   6.694 -0.7320  1.6622 -1.0087
  865MOL0     H16725   4.086   9.057   6.782  4.2492 -0.8044 -0.7383
  865MOL0     H16726   3.899   9.110   6.464  0.3775  0.7392  3.2322
  865MOL0     H16727   3.797   8.946   6.307 -2.5209 -0.6872  0.3403
  865MOL0     H16728   3.898   8.799   6.268 -0.4381  0.1450 -0.4243
  865MOL0     H16729   3.686   8.704   6.299  0.3086 -3.3901  0.9015
  865MOL0     H16730   3.764   8.688   6.444  0.1603 -0.8788 -2.2670
  865MOL0     H16731   3.599   8.940   6.446  4.5876  0.5692  2.6676
  865MOL0     H16732   3.621   8.809   6.560  0.8473 -2.8015 -0.5432
  865MOL0     H16733   3.387   8.799   6.478  1.0943  1.4896  0.2007
  865MOL0     H16734   3.483   8.652   6.487 -2.9889 -0.0740  0.4203
  865MOL0     H16735   3.477   8.490   6.173 -1.7814 -3.3643 -2.9456
  865MOL0     H16736   3.313   8.347   6.084 -0.3898 -1.3806  1.9577
  865MOL0     H16737   2.882   8.463   5.869  0.2337 -0.0744  0.8972
  865MOL0     H16738   2.738   8.382   5.682  0.7929  0.1390 -0.9645
  865MOL0     H16739   2.584   8.174   5.738 -1.0642 -0.6530  0.4653
  865MOL0     H16740   2.528   8.098   5.595  1.1271 -1.1726 -1.5184
  865MOL0     H16741   2.714   7.971   5.814  0.8747 -1.5988 -0.1676
  865MOL0     H16742   2.546   7.937   5.776  0.4302  0.3088  0.3761
  865MOL0     H16743   2.598   7.814   5.580  1.9135 -3.3581 -1.1544
  865MOL0     H16744   2.756   7.887   5.557 -1.0362 -1.3712 -0.4304
  865MOL0     H16745   2.691   7.709   5.795  0.8813  2.0395  2.0277
  865MOL0     H16746   2.846   7.776   5.768  2.5297 -1.6501 -0.5607
  865MOL0     H16747   2.841   7.674   5.535 -3.1605  0.4305 -1.4188
  865MOL0     H16748   2.697   7.579   5.574 -1.3723 -0.2675  2.4483
  865MOL0     H16749   2.963   7.596   5.739 -1.5322 -0.2384  1.2478
  865MOL0     H16750   2.850   7.476   5.768 -0.0425 -2.6252 -0.0460
  865MOL0     H16751   3.063   7.416   5.631  0.1920  1.1415  0.2240
  865MOL0     H16752   2.980   7.484   5.495 -1.6143  1.8625  0.2344
  865MOL0     H16753   2.792   7.297   5.561  0.3359  1.0833 -1.2348
  865MOL0     H16754   2.952   7.237   5.513  2.8819  0.9676  0.8023
  865MOL0     H16755   2.918   8.009   5.688 -2.6635  0.9692 -1.5439
  865MOL0     H16756   3.076   8.077   5.869  1.1440 -0.2361 -2.4888
  865MOL0     H16757   3.017   8.625   6.256  0.1394  2.6638 -0.0837
  865MOL0     H16758   3.198   8.769   6.331  0.2406 -0.0300 -0.4937
  865MOL0     H16759   3.065   8.924   7.196  1.2363  1.6695 -1.0146
  865MOL0     H16760   2.836   8.990   7.243 -0.3268  0.4796 -0.4743
  865MOL0     H16761   2.430   9.056   7.071 -0.3564 -0.9688 -0.7657
  865MOL0     H16762   2.194   9.103   7.065  0.7272 -0.7760 -0.5675
  865MOL0     H16763   1.972   8.874   7.371 -0.0411 -0.5210 -0.9541
  865MOL0     H16764   1.849   8.920   7.267 -0.7056  0.8330 -0.6667
  865MOL0     H16765   1.836   9.142   7.397 -0.6194 -1.2397  1.0714
  865MOL0     H16766   1.955   9.081   7.509  1.3876 -2.0171  0.7852
  865MOL0     H16767   1.831   8.895   7.567  0.5453  2.0390  0.8211
  865MOL0     H16768   1.699   8.920   7.459 -1.4534 -0.2624  2.3397
  865MOL0     H16769   1.647   8.993   7.693  0.7016  0.6111  0.7234
  865MOL0     H16770   1.786   9.098   7.686 -1.2633  2.3079 -0.2663
  865MOL0     H16771   1.458   9.292   7.462 -0.2424  0.2660 -2.1804
  865MOL0     H16772   2.166   8.881   7.444 -0.2865 -2.7179 -1.4105
  865MOL0     H16773   2.325   8.819   7.561  0.4359  1.0007 -0.7117
  865MOL0     H16774   2.421   8.707   7.457  2.2521  1.2147 -4.4939
  865MOL0     H16775   2.493   8.852   7.535 -0.3491  0.0332  1.1344
  866MOL0     O16776   7.734   1.374   5.311 -0.6513  0.2644 -0.0827
  866MOL0     C16777   7.673   1.314   5.225  0.1447  0.4281  0.3648
  866MOL0     O16778   7.710   1.199   5.167  0.2403 -0.1870 -0.0689
  866MOL0     C16779   7.843   1.169   5.168  0.7198  0.0545 -0.0215
  866MOL0     C16780   7.890   1.126   5.289  0.0801 -0.3446  0.0719
  866MOL0     C16781   8.024   1.095   5.300  0.2172  0.4428 -0.5429
  866MOL0     C16782   8.115   1.110   5.194  0.0323  0.6709  0.3492
  866MOL0     O16783   8.252   1.077   5.209  0.6187 -0.3442  0.2622
  866MOL0     C16784   8.353   1.127   5.116 -0.0544 -0.0468 -0.4251
  866MOL0     C16785   8.480   1.158   5.212 -0.4580  0.0865  0.1262
  866MOL0     C16786   8.604   1.212   5.142  0.6542 -0.4297  0.2134
  866MOL0     C16787   8.722   1.252   5.233 -1.2919 -0.2819 -0.2237
  866MOL0     C16788   8.851   1.276   5.148  0.1251  0.5199 -0.2449
  866MOL0     C16789   8.837   1.397   5.056 -0.7911  0.0647 -0.1152
  866MOL0     C16790   8.972   1.429   4.984  0.1832  0.7138 -0.0748
  866MOL0     C16791   9.067   1.520   5.053 -0.4130 -0.2022  0.1535
  866MOL0     N16792   9.201   1.526   4.999 -0.2251  0.0821 -0.2680
  866MOL0     C16793   9.219   1.572   4.872  0.2382 -0.5672  1.0578
  866MOL0     C16794   9.354   1.561   4.851  0.1045  0.0556  0.1314
  866MOL0     C16795   9.437   1.587   4.728 -0.8112  0.3783  0.9459
  866MOL0     C16796   9.524   1.717   4.724 -0.2514  0.0454 -0.0496
  866MOL0     C16797   9.629   1.735   4.846 -0.6421  0.3804  0.4103
  866MOL0     C16798   9.726   1.615   4.827 -0.0478  0.2800  0.3901
  866MOL0     O16799   9.829   1.598   4.921 -0.7675 -0.7424  0.1527
  866MOL0     C16800   9.964   1.639   4.895  0.6820  1.8190 -0.2194
  866MOL0     C16801  10.055   1.609   4.991  0.2711  0.3507 -0.1315
  866MOL0     C16802  10.185   1.667   4.963  0.2649 -0.3829 -0.1054
  866MOL0     C16803  10.221   1.736   4.852 -0.2966  0.1694 -0.1264
  866MOL0     C16804  10.360   1.778   4.832  0.3345  0.7074 -1.1394
  866MOL0     O16805  10.446   1.801   4.932 -0.8824 -0.1944  0.1417
  866MOL0     C16806  10.575   1.833   4.884  0.6957 -0.6128 -0.1709
  866MOL0     C16807  10.618   1.962   4.834 -0.3551  0.4306 -0.4598
  866MOL0     C16808  10.754   1.994   4.832  0.4581 -0.4932 -0.6934
  866MOL0     C16809  10.843   1.894   4.865  0.0982 -0.4215 -0.1397
  866MOL0     O16810  10.970   1.939   4.860 -0.1052  0.0855  0.6161
  866MOL0     C16811  11.064   1.855   4.808  0.4029 -0.5287  1.0140
  866MOL0     C16812  11.174   1.934   4.743  0.4889  0.0478 -0.5372
  866MOL0     C16813  11.154   1.974   4.590  0.1629 -0.8835  0.2230
  866MOL0     C16814  11.060   2.093   4.578 -0.7921  0.4168 -0.5338
  866MOL0     C16815  11.046   2.139   4.432 -0.2656  0.1751 -0.0263
  866MOL0     C16816  10.969   2.271   4.406  0.9913 -0.0960 -0.1501
  866MOL0     C16817  10.915   2.280   4.263  0.1877 -0.0279  1.1462
  866MOL0     C16818  10.971   2.395   4.173  0.3088 -0.0002  0.3816
  866MOL0    Cl16819  10.955   2.556   4.244  0.1984  0.2390  0.4815
  866MOL0     C16820  10.801   1.764   4.893 -0.5493 -0.6214 -0.2397
  866MOL0     C16821  10.663   1.733   4.902  1.1091 -0.0900 -0.3572
  866MOL0     O16822  10.379   1.810   4.718  0.0313 -0.8815 -0.2116
  866MOL0     C16823  10.129   1.758   4.752  0.3430  0.4812  0.5096
  866MOL0     C16824   9.996   1.708   4.774  0.0642 -0.4191  0.0638
  866MOL0     N16825   9.414   1.517   4.973  1.0222  0.0407  0.7747
  866MOL0     N16826   9.316   1.494   5.059  0.0673  0.8247  0.4968
  866MOL0     C16827   8.060   1.157   5.072  0.0974  0.0069 -0.6686
  866MOL0     C16828   7.922   1.183   5.057 -1.1823 -0.3621 -0.3876
  866MOL0     C16829   7.537   1.355   5.194 -0.1035 -0.3632  0.1263
  866MOL0     C16830   7.448   1.262   5.134  0.0400  0.1160 -0.2256
  866MOL0     C16831   7.319   1.302   5.094 -0.2427  0.3209 -0.1292
  866MOL0     C16832   7.266   1.427   5.123 -0.6112  0.5886 -0.2208
  866MOL0     O16833   7.141   1.467   5.090  0.2899  0.1482 -0.4068
  866MOL0     C16834   7.038   1.397   5.012  0.3234 -0.0850  0.2194
  866MOL0     C16835   7.060   1.439   4.868  0.1775 -0.6509 -0.6720
  866MOL0     C16836   6.990   1.573   4.830  0.3213  0.0030 -0.1210
  866MOL0     C16837   7.044   1.687   4.905  0.2913 -0.7367  0.2539
  866MOL0     C16838   7.190   1.716   4.887  0.4059 -0.2371 -0.2670
  866MOL0     C16839   7.306   1.748   4.891  0.9704  0.4130 -0.0616
  866MOL0     C16840   7.352   1.518   5.184 -0.6470 -0.0441 -0.3437
  866MOL0     C16841   7.489   1.487   5.221  0.3708 -0.1716  0.2852
  866MOL0     C16842   7.568   1.605   5.283 -0.3434  1.2556 -0.4574
  866MOL0     H16843   7.818   1.098   5.365 -1.5025 -1.1546 -1.6464
  866MOL0     H16844   8.054   1.056   5.397 -1.0060  0.1211 -0.2788
  866MOL0     H16845   8.370   1.062   5.030 -1.5892  0.6676 -1.3252
  866MOL0     H16846   8.323   1.224   5.074  0.7708  0.4386  0.0770
  866MOL0     H16847   8.515   1.066   5.260 -0.1507 -0.2407 -0.7068
  866MOL0     H16848   8.447   1.227   5.290 -1.0289 -0.0249 -0.0124
  866MOL0     H16849   8.568   1.300   5.088 -2.8252  0.5085  3.5412
  866MOL0     H16850   8.637   1.134   5.074  2.5876  2.0773 -1.9503
  866MOL0     H16851   8.687   1.340   5.288 -1.7512 -0.0805 -0.8310
  866MOL0     H16852   8.744   1.171   5.304 -0.4492  0.5380  0.4795
  866MOL0     H16853   8.938   1.287   5.213  0.8900  2.2778 -1.4572
  866MOL0     H16854   8.874   1.194   5.079 -1.3386  0.6202 -0.8816
  866MOL0     H16855   8.765   1.376   4.977 -1.5576 -1.1361  0.8724
  866MOL0     H16856   8.799   1.479   5.119 -4.4762 -0.8827 -0.8976
  866MOL0     H16857   8.938   1.470   4.888 -2.8647 -1.9632 -0.3045
  866MOL0     H16858   9.027   1.336   4.967  0.4561 -0.2526  4.6990
  866MOL0     H16859   9.029   1.623   5.052 -0.3688 -0.1732 -1.3119
  866MOL0     H16860   9.072   1.496   5.159  2.4493  2.2481  0.7383
  866MOL0     H16861   9.136   1.608   4.813 -0.5514 -3.4778  0.2036
  866MOL0     H16862   9.492   1.493   4.720  0.2422  1.0810 -0.2791
  866MOL0     H16863   9.370   1.589   4.642  0.7592  0.3523 -0.3120
  866MOL0     H16864   9.572   1.727   4.626 -2.6312  1.3345 -1.1808
  866MOL0     H16865   9.443   1.790   4.728 -3.2352 -2.8665 -2.3965
  866MOL0     H16866   9.573   1.746   4.939 -1.5506  4.0419 -0.3930
  866MOL0     H16867   9.688   1.826   4.830  1.2824 -0.8932 -0.1565
  866MOL0     H16868   9.770   1.616   4.727 -0.9828 -2.2622 -0.1320
  866MOL0     H16869   9.660   1.529   4.842 -0.1103  0.3872  0.7297
  866MOL0     H16870  10.017   1.553   5.075  4.7656  1.7853  3.2415
  866MOL0     H16871  10.257   1.647   5.041  2.3296 -0.8263 -2.0322
  866MOL0     H16872  10.556   2.048   4.812  2.5001  2.6574 -0.4652
  866MOL0     H16873  10.789   2.094   4.807 -0.7072 -0.3541 -1.8858
  866MOL0     H16874  11.103   1.792   4.889 -1.1907 -1.0938  1.3699
  866MOL0     H16875  11.026   1.789   4.729  1.7217  0.1312 -0.2177
  866MOL0     H16876  11.187   2.026   4.800  0.2991 -0.0636 -0.3111
  866MOL0     H16877  11.272   1.885   4.741  0.0302 -0.8616 -1.5088
  866MOL0     H16878  11.249   2.007   4.547  0.0126  1.2283  1.3795
  866MOL0     H16879  11.112   1.891   4.533 -2.8394  0.5493  0.1566
  866MOL0     H16880  11.100   2.165   4.650 -0.4036 -0.4220  0.1072
  866MOL0     H16881  10.964   2.072   4.625 -0.2508  0.5463  0.6519
  866MOL0     H16882  11.008   2.053   4.377  1.5199  0.3372 -1.5993
  866MOL0     H16883  11.140   2.147   4.377  0.3255  0.0036  0.9210
  866MOL0     H16884  10.876   2.267   4.464  0.2432 -2.0533 -1.3987
  866MOL0     H16885  11.017   2.361   4.446 -1.7236 -0.1225  3.8343
  866MOL0     H16886  10.807   2.295   4.260  0.4691  2.3994  0.2598
  866MOL0     H16887  10.943   2.191   4.206 -2.0292  0.1362 -0.3325
  866MOL0     H16888  11.080   2.397   4.171  0.3365 -1.1330 -0.1965
  866MOL0     H16889  10.931   2.397   4.071 -1.6143 -1.0813  1.0569
  866MOL0     H16890  10.877   1.687   4.892 -0.8638 -1.0124 -3.2359
  866MOL0     H16891  10.623   1.637   4.933 -0.5398  0.3738 -0.9630
  866MOL0     H16892  10.153   1.802   4.656 -0.5499 -0.5602 -0.2162
  866MOL0     H16893   9.926   1.737   4.696 -0.0285 -1.0156 -0.0779
  866MOL0     H16894   8.109   1.191   4.982  3.1425 -1.3869  0.3273
  866MOL0     H16895   7.874   1.243   4.979 -1.5690 -0.0182  0.1041
  866MOL0     H16896   7.475   1.157   5.125  0.1237  0.0009  1.1909
  866MOL0     H16897   7.252   1.231   5.047  0.1300 -0.7022  0.8207
  866MOL0     H16898   6.936   1.427   5.035  0.0082 -0.9826  0.0360
  866MOL0     H16899   7.050   1.290   5.032  2.2457 -0.6753 -3.2663
  866MOL0     H16900   7.025   1.359   4.802 -0.5272  0.3602 -1.5574
  866MOL0     H16901   7.166   1.443   4.842 -0.1681  0.9413 -2.0286
  866MOL0     H16902   6.881   1.567   4.835  0.4259 -2.1474  2.7361
  866MOL0     H16903   7.011   1.585   4.724  1.9106 -1.1695  0.0054
  866MOL0     H16904   6.987   1.769   4.860  2.0234  0.0755 -0.5568
  866MOL0     H16905   7.024   1.685   5.012  1.2816  0.9221  0.5192
  866MOL0     H16906   7.408   1.781   4.887  1.2636 -0.5581 -1.3755
  866MOL0     H16907   7.309   1.615   5.206  0.5565  0.6093 -0.8324
  866MOL0     H16908   7.529   1.702   5.249  2.4346  3.0287  0.9865
  866MOL0     H16909   7.588   1.602   5.391  2.0131 -0.4400 -0.8632
  866MOL0     H16910   7.664   1.604   5.231 -1.6726 -4.2193 -3.4801
  867MOL0     O16911   4.745   6.546   3.061  0.0413 -0.5638  0.3153
  867MOL0     C16912   4.677   6.463   3.117 -0.2170 -0.4273 -0.2412
  867MOL0     O16913   4.714   6.324   3.115  0.4656  0.3751  0.0707
  867MOL0     C16914   4.813   6.284   3.045  0.0482 -1.1287  0.8864
  867MOL0     C16915   4.944   6.298   3.079  0.2180 -0.5702  0.0899
  867MOL0     C16916   5.047   6.272   2.988 -0.6134  0.6897  0.4284
  867MOL0     C16917   5.025   6.228   2.864 -0.3552  0.5575  1.1571
  867MOL0     O16918   5.125   6.203   2.773  0.0175  0.9237 -0.4466
  867MOL0     C16919   5.151   6.064   2.755 -0.4622 -0.2141  0.3934
  867MOL0     C16920   5.259   6.043   2.648  1.0420  0.7810 -0.5808
  867MOL0     C16921   5.404   6.049   2.696  0.2872 -0.1010  0.8022
  867MOL0     C16922   5.439   5.948   2.805  0.0006  0.2966  0.3431
  867MOL0     C16923   5.437   5.799   2.763  1.0826 -0.7979  0.0773
  867MOL0     C16924   5.494   5.709   2.880  0.6009  0.3233 -0.3900
  867MOL0     C16925   5.512   5.560   2.844  0.7235 -0.1108 -0.5311
  867MOL0     C16926   5.380   5.507   2.779  0.5476  0.1036  0.1756
  867MOL0     N16927   5.391   5.358   2.765 -0.5257 -0.5328 -0.2633
  867MOL0     C16928   5.478   5.298   2.686 -0.5357  0.4166 -0.2844
  867MOL0     C16929   5.460   5.175   2.716 -1.3008  0.3205  0.2956
  867MOL0     C16930   5.544   5.064   2.651 -0.0568 -0.2205 -0.5263
  867MOL0     C16931   5.512   4.924   2.713 -0.7104  0.1451 -0.2075
  867MOL0     C16932   5.582   4.925   2.856  0.6457 -0.0663  0.8168
  867MOL0     C16933   5.630   4.786   2.906  0.0999  0.5726  0.0938
  867MOL0     O16934   5.745   4.755   2.830  0.0684  0.5648  0.3909
  867MOL0     C16935   5.826   4.641   2.862  0.8727  0.2726 -1.1681
  867MOL0     C16936   5.940   4.616   2.793 -0.1331  0.0793  0.8089
  867MOL0     C16937   6.036   4.510   2.820 -0.2214 -0.2916 -0.4401
  867MOL0     C16938   6.016   4.431   2.942 -0.4671  0.2186  0.7558
  867MOL0     C16939   6.125   4.334   2.982 -0.4778 -0.3608 -0.2577
  867MOL0     O16940   6.082   4.238   3.065 -0.7825 -0.2410  1.3363
  867MOL0     C16941   6.176   4.165   3.146 -0.1072  0.1434  0.3411
  867MOL0     C16942   6.286   4.229   3.214  0.8387 -0.7336 -0.2144
  867MOL0     C16943   6.374   4.151   3.285 -0.8356  0.3645 -0.0880
  867MOL0     C16944   6.356   4.013   3.291  0.0615 -0.3262 -0.2557
  867MOL0     O16945   6.433   3.932   3.368 -0.6006  0.0273  0.0005
  867MOL0     C16946   6.573   3.952   3.366 -0.4624 -0.1077  0.3475
  867MOL0     C16947   6.643   3.862   3.458 -0.7846  0.5329 -0.0030
  867MOL0     C16948   6.800   3.888   3.447  0.1737  0.7904 -0.1079
  867MOL0     C16949   6.876   3.803   3.551 -0.2666  0.1654  0.1080
  867MOL0     C16950   7.024   3.819   3.514 -0.0100 -1.7697  0.4055
  867MOL0     C16951   7.078   3.951   3.574  0.4117  0.2904  0.7715
  867MOL0     C16952   7.228   3.956   3.584 -0.2257  0.5006 -0.0665
  867MOL0     C16953   7.263   4.075   3.651  1.0474 -0.7472 -0.1206
  867MOL0    Cl16954   7.435   4.103   3.629 -0.1075 -0.4491 -0.5131
  867MOL0     C16955   6.242   3.949   3.238 -0.3615 -0.6617  0.5199
  867MOL0     C16956   6.148   4.029   3.172  0.3739 -0.1215  0.1216
  867MOL0     O16957   6.236   4.346   2.927  0.6582  0.4013  0.7720
  867MOL0     C16958   5.904   4.466   3.014 -0.1903 -0.2195  0.1749
  867MOL0     C16959   5.812   4.564   2.978  0.0350 -0.0634  1.1902
  867MOL0     N16960   5.371   5.162   2.822  0.2898  0.2872  0.2710
  867MOL0     N16961   5.320   5.272   2.846 -0.2509 -0.5045 -0.6954
  867MOL0     C16962   4.892   6.217   2.825 -0.1529 -0.1790 -1.3811
  867MOL0     C16963   4.789   6.236   2.916 -0.0116 -0.3285 -0.2739
  867MOL0     C16964   4.556   6.511   3.191  0.3858  0.2791  0.1323
  867MOL0     C16965   4.487   6.603   3.116  0.4722 -0.8080 -0.5189
  867MOL0     C16966   4.361   6.642   3.173 -0.2221 -0.1411  0.7793
  867MOL0     C16967   4.316   6.612   3.302  0.3645 -0.0931  0.0043
  867MOL0     O16968   4.202   6.656   3.369  0.1453 -0.0752 -0.3539
  867MOL0     C16969   4.127   6.747   3.288 -0.3143 -0.3531 -0.0877
  867MOL0     C16970   4.184   6.890   3.281  1.2425 -0.0445 -0.1682
  867MOL0     C16971   4.070   6.994   3.289 -0.2680  0.4641  0.0254
  867MOL0     C16972   3.967   6.992   3.176 -0.4906 -0.3267  0.3757
  867MOL0     C16973   4.016   6.936   3.052  0.7392  0.1175  0.6637
  867MOL0     C16974   4.076   6.885   2.956 -0.5317 -0.5840 -0.0920
  867MOL0     C16975   4.398   6.518   3.365 -0.2536 -0.1993 -0.6377
  867MOL0     C16976   4.516   6.472   3.319  0.0302  0.3001 -0.2202
  867MOL0     C16977   4.609   6.382   3.404  0.8083 -1.2240  0.0730
  867MOL0     H16978   4.948   6.345   3.177 -1.0531  2.4816 -1.1904
  867MOL0     H16979   5.151   6.276   3.019 -0.7623 -0.3128  1.1136
  867MOL0     H16980   5.169   6.010   2.848  2.5504  0.6444  0.4196
  867MOL0     H16981   5.055   6.028   2.715 -0.3867 -0.3778  0.3553
  867MOL0     H16982   5.245   6.111   2.563  2.7000  0.0376 -1.4967
  867MOL0     H16983   5.245   5.941   2.610 -0.0425  1.2898 -1.6507
  867MOL0     H16984   5.418   6.148   2.739 -3.0500 -0.0209  1.9675
  867MOL0     H16985   5.471   6.048   2.610 -1.6522  1.6952 -0.8406
  867MOL0     H16986   5.543   5.975   2.823  0.1202 -0.5235  0.9304
  867MOL0     H16987   5.374   5.963   2.892 -1.1882  0.7487 -0.5845
  867MOL0     H16988   5.337   5.768   2.732 -0.6712  1.5806  2.8746
  867MOL0     H16989   5.500   5.790   2.674 -1.3788 -0.7705 -1.7754
  867MOL0     H16990   5.589   5.751   2.916 -0.0878  0.6244  1.1498
  867MOL0     H16991   5.416   5.706   2.957  0.7695  0.4528 -0.2120
  867MOL0     H16992   5.544   5.494   2.926  2.3506 -1.8024 -2.3999
  867MOL0     H16993   5.600   5.549   2.780  2.6986  2.6408  1.4729
  867MOL0     H16994   5.295   5.521   2.846 -0.8114 -1.0055 -1.2246
  867MOL0     H16995   5.353   5.552   2.683 -1.1199 -2.3979 -0.6391
  867MOL0     H16996   5.543   5.344   2.612  1.7270 -2.8038 -0.4610
  867MOL0     H16997   5.529   5.071   2.543  2.2014  2.5381 -0.7642
  867MOL0     H16998   5.647   5.094   2.673 -0.8227  0.2154  3.0926
  867MOL0     H16999   5.405   4.900   2.716 -0.3133 -2.1531 -1.6784
  867MOL0     H17000   5.564   4.845   2.658  1.4583  2.0645 -1.1020
  867MOL0     H17001   5.509   4.967   2.926 -1.7122 -0.6158 -1.1437
  867MOL0     H17002   5.671   4.988   2.860  0.7292 -0.0970 -0.1699
  867MOL0     H17003   5.554   4.710   2.883  1.7242 -0.5013 -2.1501
  867MOL0     H17004   5.650   4.789   3.013 -1.1762 -3.7853  0.6415
  867MOL0     H17005   5.938   4.677   2.704 -1.5160 -1.0380  0.0250
  867MOL0     H17006   6.121   4.488   2.757  1.3263  0.2167  1.3565
  867MOL0     H17007   6.294   4.337   3.208 -3.4870  0.2033  4.1090
  867MOL0     H17008   6.465   4.197   3.322 -1.2180 -1.3685  3.3901
  867MOL0     H17009   6.603   3.932   3.262 -2.9126 -0.6576 -0.3451
  867MOL0     H17010   6.602   4.055   3.390 -0.9011  0.8609 -2.7914
  867MOL0     H17011   6.613   3.855   3.563  3.1355 -0.9954  1.2088
  867MOL0     H17012   6.623   3.765   3.412 -1.8420  1.3224 -1.2654
  867MOL0     H17013   6.830   3.867   3.344  1.7013 -1.4324  0.7142
  867MOL0     H17014   6.829   3.990   3.475  2.9442  0.5799 -1.8145
  867MOL0     H17015   6.843   3.699   3.541 -2.7190  0.4201  3.7572
  867MOL0     H17016   6.863   3.836   3.654 -0.5382 -2.8186  1.1282
  867MOL0     H17017   7.032   3.813   3.406  2.8788  2.2613  0.1564
  867MOL0     H17018   7.084   3.736   3.553  3.2074 -0.4349 -1.2812
  867MOL0     H17019   7.035   4.037   3.521  1.7118  0.7286  0.4026
  867MOL0     H17020   7.031   3.986   3.666 -0.1161  1.4869  0.0703
  867MOL0     H17021   7.281   3.958   3.488  0.2660  2.0452  0.2019
  867MOL0     H17022   7.272   3.876   3.644  0.2222  0.5365 -0.3474
  867MOL0     H17023   7.202   4.158   3.615  0.3908 -0.3599  1.7750
  867MOL0     H17024   7.230   4.059   3.754 -2.8737 -0.7982 -1.2127
  867MOL0     H17025   6.223   3.843   3.249 -1.0649 -0.4296  1.6652
  867MOL0     H17026   6.067   3.974   3.125  0.5546 -0.3154  0.0305
  867MOL0     H17027   5.877   4.407   3.100 -0.7189 -2.9522 -1.7366
  867MOL0     H17028   5.723   4.588   3.036 -0.6456 -0.0211  0.1554
  867MOL0     H17029   4.874   6.194   2.721 -1.3470  0.9602 -1.4599
  867MOL0     H17030   4.688   6.214   2.885  0.4902 -3.1663 -0.1158
  867MOL0     H17031   4.526   6.639   3.022  0.4103  1.4798  0.2661
  867MOL0     H17032   4.301   6.712   3.115 -0.1986 -0.1009  0.8034
  867MOL0     H17033   4.033   6.758   3.343  0.1578 -0.8315  0.8403
  867MOL0     H17034   4.103   6.716   3.186  1.6028  0.8209 -0.9631
  867MOL0     H17035   4.230   6.911   3.184  3.3848 -3.3961 -0.0381
  867MOL0     H17036   4.245   6.909   3.369  1.2675  0.1869 -0.2359
  867MOL0     H17037   4.120   7.091   3.279 -0.7275  0.9436  1.9997
  867MOL0     H17038   4.015   6.989   3.383  0.4606  1.4257  0.5234
  867MOL0     H17039   3.876   6.934   3.192 -0.4017 -0.8588 -0.8773
  867MOL0     H17040   3.941   7.097   3.158  2.1522  0.1864 -0.9343
  867MOL0     H17041   4.132   6.841   2.876 -0.2794  0.2853 -0.4051
  867MOL0     H17042   4.369   6.487   3.466 -0.2518 -0.1499 -0.6221
  867MOL0     H17043   4.586   6.389   3.511  1.2649  2.9849  0.0498
  867MOL0     H17044   4.612   6.277   3.372  0.5986 -0.4072 -2.8911
  867MOL0     H17045   4.710   6.422   3.392  0.1434  0.2960 -0.7246
  868MOL0     O17046   9.606   7.149   2.890  0.1548 -0.5504  0.5023
  868MOL0     C17047   9.585   7.041   2.947 -0.1287 -0.4163  0.5310
  868MOL0     O17048   9.677   6.981   3.031 -0.2648  0.2240  0.8233
  868MOL0     C17049   9.806   7.043   3.032  0.3734  0.0668  0.0657
  868MOL0     C17050   9.905   7.014   2.938  0.2505  0.6677  1.6800
  868MOL0     C17051  10.033   7.082   2.952  0.4351  0.6143 -0.3303
  868MOL0     C17052  10.050   7.186   3.055 -0.0842 -0.1167  0.7374
  868MOL0     O17053  10.154   7.270   3.046 -0.1799 -0.0130  0.2063
  868MOL0     C17054  10.125   7.395   2.982  0.2756  0.5370 -0.4325
  868MOL0     C17055  10.255   7.471   2.953 -0.3825 -0.5428  1.1170
  868MOL0     C17056  10.234   7.604   2.860  0.5783 -0.1346 -0.7177
  868MOL0     C17057  10.191   7.566   2.717  0.2042  0.0193  1.0456
  868MOL0     C17058  10.201   7.679   2.616  0.0869  0.4086  0.2378
  868MOL0     C17059  10.133   7.638   2.484  0.2664  1.0813 -0.5266
  868MOL0     C17060  10.165   7.745   2.376  0.3093 -0.0460 -0.8911
  868MOL0     C17061  10.084   7.733   2.247  0.5556  0.2572  0.0989
  868MOL0     N17062   9.940   7.782   2.266 -0.0572  0.2459  0.1154
  868MOL0     C17063   9.856   7.691   2.322 -0.6407 -0.0000  0.4644
  868MOL0     C17064   9.759   7.772   2.365  0.0344 -0.7540  0.2798
  868MOL0     C17065   9.635   7.748   2.438 -1.1189 -0.0781  0.8462
  868MOL0     C17066   9.500   7.780   2.357 -0.0981  0.2641 -0.2424
  868MOL0     C17067   9.376   7.735   2.432 -0.3775  0.0291  0.3384
  868MOL0     C17068   9.236   7.769   2.375  0.1948 -0.4824  0.0689
  868MOL0     O17069   9.200   7.906   2.385  0.5330  1.0142  0.5410
  868MOL0     C17070   9.076   7.944   2.351  1.1004 -1.0427  0.0429
  868MOL0     C17071   8.987   7.859   2.279  0.0277 -0.1302 -0.9743
  868MOL0     C17072   8.850   7.896   2.271 -0.2117  0.2913 -0.0600
  868MOL0     C17073   8.801   8.020   2.314 -0.1616  0.5871  0.0068
  868MOL0     C17074   8.668   8.066   2.298 -0.2130 -0.0040 -0.1314
  868MOL0     O17075   8.573   7.976   2.269 -0.1404  0.2370 -0.9192
  868MOL0     C17076   8.441   8.016   2.275  0.4874 -0.3864 -0.0790
  868MOL0     C17077   8.367   7.983   2.164 -0.0272  0.3610  0.5053
  868MOL0     C17078   8.228   8.013   2.164 -0.6417 -0.3355  0.4389
  868MOL0     C17079   8.171   8.087   2.270  0.3045  0.5624 -0.0654
  868MOL0     O17080   8.039   8.125   2.275 -0.6395  1.1609  0.4732
  868MOL0     C17081   7.950   8.053   2.188  0.2181  0.6994  0.1156
  868MOL0     C17082   7.805   8.075   2.250 -0.0703 -0.7340  0.6152
  868MOL0     C17083   7.689   8.004   2.161 -0.1200 -0.6241 -0.9306
  868MOL0     C17084   7.562   8.001   2.237 -0.6485  0.6460  0.2000
  868MOL0     C17085   7.444   7.955   2.144 -0.4508  0.4855 -0.7114
  868MOL0     C17086   7.306   7.974   2.205  0.2532  0.7984  0.6127
  868MOL0     C17087   7.201   7.934   2.103  0.0270  0.1188 -0.0387
  868MOL0     C17088   7.213   7.799   2.019 -1.0900 -0.2819 -0.3055
  868MOL0    Cl17089   7.175   7.676   2.135 -0.5572  0.4169  0.3520
  868MOL0     C17090   8.252   8.123   2.377 -0.2724  0.3423  0.2783
  868MOL0     C17091   8.381   8.084   2.380 -1.0379 -0.2221 -0.0707
  868MOL0     O17092   8.647   8.187   2.307 -0.3970 -0.4800  0.6681
  868MOL0     C17093   8.894   8.104   2.382  0.9684 -0.4405 -0.6778
  868MOL0     C17094   9.026   8.062   2.406  0.4933 -0.2058  0.3163
  868MOL0     N17095   9.784   7.902   2.344 -0.7858 -0.0753 -0.0244
  868MOL0     N17096   9.897   7.903   2.286  0.1361  0.5006  0.5479
  868MOL0     C17097   9.953   7.199   3.150  0.6456 -0.2345 -0.8457
  868MOL0     C17098   9.837   7.124   3.140  0.5198 -0.1499 -0.4175
  868MOL0     C17099   9.452   6.986   2.925  0.0411 -0.1975 -0.2204
  868MOL0     C17100   9.404   6.894   3.020  0.2373 -0.5698  0.3644
  868MOL0     C17101   9.263   6.855   3.023 -0.5116  0.5673 -0.9521
  868MOL0     C17102   9.184   6.891   2.917  0.2502  0.4041 -0.9420
  868MOL0     O17103   9.064   6.829   2.890 -0.0659  0.1027 -0.4861
  868MOL0     C17104   8.984   6.778   2.999 -0.5655 -0.4246  0.3371
  868MOL0     C17105   8.837   6.768   2.946 -0.4466  0.7733  0.1664
  868MOL0     C17106   8.765   6.887   2.910 -0.8952 -0.7127  0.3528
  868MOL0     C17107   8.763   6.994   3.031 -0.0709 -0.1308  0.2195
  868MOL0     C17108   8.694   6.934   3.145  0.2651  0.6713 -0.4465
  868MOL0     C17109   8.630   6.871   3.230 -0.2899  0.0138  0.5318
  868MOL0     C17110   9.241   6.976   2.816  0.3246 -0.7536  0.2140
  868MOL0     C17111   9.366   7.024   2.822 -1.2570  0.0853  0.0893
  868MOL0     C17112   9.411   7.093   2.692 -0.5122 -0.2298  0.2977
  868MOL0     H17113   9.871   6.951   2.857 -0.9970  0.7063  2.1477
  868MOL0     H17114  10.114   7.058   2.884 -1.5092 -0.4124 -2.4050
  868MOL0     H17115  10.071   7.378   2.888 -1.2715 -2.1911  0.8620
  868MOL0     H17116  10.061   7.440   3.059  0.8083 -0.2355  0.4798
  868MOL0     H17117  10.334   7.411   2.906  0.3380  2.6854 -2.2125
  868MOL0     H17118  10.308   7.501   3.044  3.9025 -0.4881 -1.1321
  868MOL0     H17119  10.328   7.660   2.863  0.9097 -0.7141  0.6494
  868MOL0     H17120  10.160   7.670   2.906  1.4449 -0.6046  1.5215
  868MOL0     H17121  10.255   7.491   2.669  0.5975  1.8694 -1.5809
  868MOL0     H17122  10.088   7.531   2.720  0.5689 -1.0375  1.6058
  868MOL0     H17123  10.156   7.771   2.653 -4.8036  0.1009 -3.7011
  868MOL0     H17124  10.308   7.691   2.597  0.5859 -1.2654  1.7816
  868MOL0     H17125  10.171   7.538   2.461  0.4885  0.9961  0.1762
  868MOL0     H17126  10.026   7.628   2.505  0.4615 -0.6560 -0.1881
  868MOL0     H17127  10.271   7.733   2.351 -0.1272 -0.2550 -2.7872
  868MOL0     H17128  10.146   7.844   2.418 -0.2381  0.7747 -2.9306
  868MOL0     H17129  10.130   7.786   2.163  0.9921  2.4892  1.6466
  868MOL0     H17130  10.094   7.627   2.222 -0.5450  0.0694  0.3948
  868MOL0     H17131   9.860   7.584   2.306  1.3553 -0.0307  0.8470
  868MOL0     H17132   9.626   7.641   2.462 -0.9346 -0.4238 -0.5676
  868MOL0     H17133   9.632   7.807   2.530 -1.5372  3.0016 -1.0216
  868MOL0     H17134   9.490   7.887   2.338  0.7931  0.5288  0.6386
  868MOL0     H17135   9.493   7.729   2.261 -2.3187 -2.1853  1.0673
  868MOL0     H17136   9.382   7.787   2.528  0.0563 -1.0501  0.9193
  868MOL0     H17137   9.377   7.627   2.452  0.4796  0.2834  1.8064
  868MOL0     H17138   9.168   7.699   2.424  0.2756 -2.7465 -2.8012
  868MOL0     H17139   9.229   7.740   2.270 -3.0730  1.0846 -0.2569
  868MOL0     H17140   9.011   7.762   2.236 -0.8777  0.7949 -3.7353
  868MOL0     H17141   8.774   7.838   2.219  0.1892 -0.0368 -0.2889
  868MOL0     H17142   8.419   7.914   2.098 -0.0007 -0.5730  1.4636
  868MOL0     H17143   8.173   7.981   2.076  0.1229  0.2246 -0.2699
  868MOL0     H17144   7.967   8.093   2.087  0.9354 -0.4434 -0.2359
  868MOL0     H17145   7.967   7.946   2.174 -0.1444  0.4442  1.4874
  868MOL0     H17146   7.796   8.040   2.354 -0.6224 -0.8350  0.5390
  868MOL0     H17147   7.782   8.182   2.250 -0.9361 -0.7590 -3.5415
  868MOL0     H17148   7.674   8.070   2.074  0.0797  2.0596  0.9381
  868MOL0     H17149   7.723   7.903   2.138 -1.8870 -1.7400  1.0593
  868MOL0     H17150   7.533   8.093   2.290 -1.1887  0.7474 -0.2640
  868MOL0     H17151   7.576   7.926   2.316  3.5264 -0.1402 -1.0416
  868MOL0     H17152   7.443   7.846   2.133 -2.7276  0.0060  2.5902
  868MOL0     H17153   7.455   8.012   2.051  0.6655  2.4057  0.5282
  868MOL0     H17154   7.298   7.922   2.302 -3.3377  0.3653  0.2372
  868MOL0     H17155   7.296   8.082   2.217  4.3693  1.2888  0.9634
  868MOL0     H17156   7.198   8.008   2.022  0.4842  1.0174  0.7565
  868MOL0     H17157   7.103   7.932   2.152 -3.0028  0.9794 -5.1918
  868MOL0     H17158   7.140   7.800   1.938  0.1725  4.6839 -1.7354
  868MOL0     H17159   7.312   7.769   1.981 -1.7614 -1.7203 -1.0159
  868MOL0     H17160   8.200   8.155   2.466 -1.5123 -2.2660  0.5929
  868MOL0     H17161   8.439   8.126   2.461 -3.7113  2.1121  0.7934
  868MOL0     H17162   8.875   8.203   2.424 -0.5948  0.3888 -3.1484
  868MOL0     H17163   9.088   8.126   2.468  1.5080  1.0044 -1.8342
  868MOL0     H17164   9.966   7.271   3.231  0.3119  0.1230 -1.1095
  868MOL0     H17165   9.768   7.135   3.223  4.3553  1.8572  2.8318
  868MOL0     H17166   9.470   6.864   3.101  2.3248 -2.1503 -1.8051
  868MOL0     H17167   9.227   6.785   3.098  2.3747 -0.8755 -0.7630
  868MOL0     H17168   8.996   6.846   3.083 -1.0645  3.4377 -2.4346
  868MOL0     H17169   9.026   6.681   3.025  2.8375  1.0794  0.9202
  868MOL0     H17170   8.786   6.707   3.020  0.9276  3.4581  3.5936
  868MOL0     H17171   8.845   6.707   2.855  1.3818  0.7638  0.2996
  868MOL0     H17172   8.663   6.858   2.882 -1.6563 -0.5608  2.7901
  868MOL0     H17173   8.804   6.927   2.816 -2.2996  2.3981  0.9623
  868MOL0     H17174   8.865   7.030   3.049 -0.4150  1.8866 -1.5417
  868MOL0     H17175   8.702   7.079   3.001 -2.5114 -0.5125  3.4998
  868MOL0     H17176   8.591   6.803   3.303  0.2156 -1.9594 -0.9641
  868MOL0     H17177   9.182   6.978   2.725 -0.5017 -2.3472  0.6708
  868MOL0     H17178   9.517   7.078   2.670 -0.5508 -2.9803  1.5061
  868MOL0     H17179   9.369   7.053   2.599 -0.8079  1.0703 -0.1508
  868MOL0     H17180   9.382   7.198   2.689 -2.0800 -0.5482  2.0389
  869MOL0     O17181   2.696   9.445   2.900  0.0831  0.5229 -0.1163
  869MOL0     C17182   2.688   9.482   2.788  0.1468  0.7943 -0.3079
  869MOL0     O17183   2.572   9.498   2.725  0.0669 -0.3618 -0.0852
  869MOL0     C17184   2.449   9.494   2.790  0.1621  0.0677  0.3937
  869MOL0     C17185   2.344   9.436   2.719  0.4765  0.7716  0.2774
  869MOL0     C17186   2.216   9.425   2.773 -0.4436 -0.8807  0.2349
  869MOL0     C17187   2.200   9.463   2.908  0.1557 -0.1804 -0.6758
  869MOL0     O17188   2.074   9.429   2.969 -0.5339 -0.7331  0.3631
  869MOL0     C17189   2.078   9.418   3.112  0.4954  0.4075  0.2162
  869MOL0     C17190   1.951   9.346   3.153 -0.0458 -0.2442 -0.5770
  869MOL0     C17191   1.926   9.307   3.296 -0.5984 -0.5440 -0.0480
  869MOL0     C17192   1.961   9.418   3.398  0.5536  0.5961 -0.2185
  869MOL0     C17193   1.925   9.372   3.544  0.7724 -0.6082  0.0711
  869MOL0     C17194   2.031   9.297   3.610 -0.7535 -0.0605  0.0559
  869MOL0     C17195   2.020   9.322   3.760 -0.5053  0.8410 -0.1257
  869MOL0     C17196   2.117   9.233   3.853  0.6973 -1.2002 -0.6190
  869MOL0     N17197   2.252   9.263   3.807  0.0525 -0.0560 -0.4769
  869MOL0     C17198   2.319   9.376   3.846 -0.1194  0.2545 -0.4334
  869MOL0     C17199   2.439   9.362   3.794 -0.0339  0.4659  0.6436
  869MOL0     C17200   2.553   9.464   3.799 -0.0760  0.3357  0.0354
  869MOL0     C17201   2.626   9.452   3.936 -0.7190  0.1239  0.5811
  869MOL0     C17202   2.776   9.415   3.908  0.6573  0.4588  0.1089
  869MOL0     C17203   2.841   9.534   3.842  0.0169 -0.0579  0.4414
  869MOL0     O17204   2.861   9.629   3.943 -0.1694 -0.0173  0.2353
  869MOL0     C17205   2.968   9.714   3.930 -0.4624  0.1597  1.1777
  869MOL0     C17206   3.047   9.747   4.044 -0.0371  0.6815  0.2991
  869MOL0     C17207   3.152   9.827   4.038  0.1461 -0.1438 -0.4799
  869MOL0     C17208   3.192   9.881   3.915  0.8883  0.2016 -0.0456
  869MOL0     C17209   3.314   9.961   3.899  0.1218  0.3517  0.0421
  869MOL0     O17210   3.384   9.973   4.021  0.1480  0.5812 -0.1522
  869MOL0     C17211   3.510  10.034   4.017  0.0825 -1.1591  0.8079
  869MOL0     C17212   3.516  10.171   4.014  0.3746  0.9640  0.2804
  869MOL0     C17213   3.631  10.243   4.034  0.0462  1.5470 -0.1417
  869MOL0     C17214   3.752  10.167   4.032  0.6664 -0.5205 -0.9423
  869MOL0     O17215   3.873  10.227   4.029 -0.4469  0.2171  0.0267
  869MOL0     C17216   3.913  10.288   4.153  0.2055  0.4383 -0.2692
  869MOL0     C17217   3.986  10.419   4.116  0.1723 -0.3369 -0.5535
  869MOL0     C17218   4.039  10.512   4.235 -0.2704  0.5994 -0.1956
  869MOL0     C17219   4.123  10.439   4.337 -1.5208 -1.0455  0.6734
  869MOL0     C17220   4.212  10.545   4.421  0.8602  0.3464 -0.4662
  869MOL0     C17221   4.324  10.499   4.518 -0.3369  0.1034  0.2572
  869MOL0     C17222   4.272  10.417   4.631  0.5268 -0.1293 -0.2373
  869MOL0     C17223   4.382  10.343   4.710  1.5756 -1.2398  0.2054
  869MOL0    Cl17224   4.498  10.467   4.784 -0.3539  0.2920  0.2694
  869MOL0     C17225   3.750  10.033   4.033  0.4300  0.4811 -0.5949
  869MOL0     C17226   3.621   9.964   4.034 -0.5824 -0.5536  0.6090
  869MOL0     O17227   3.341  10.016   3.794  0.5330  0.3202 -0.0085
  869MOL0     C17228   3.128   9.849   3.796 -0.0510  0.1728 -0.0824
  869MOL0     C17229   3.016   9.771   3.802 -0.4445 -0.0185  0.3661
  869MOL0     N17230   2.437   9.235   3.730  0.2588 -0.3191  0.4034
  869MOL0     N17231   2.325   9.179   3.739 -0.2193 -0.8532 -0.3965
  869MOL0     C17232   2.306   9.526   2.982  0.3319 -0.1136  0.2386
  869MOL0     C17233   2.430   9.532   2.923  0.6908  0.4690 -0.4044
  869MOL0     C17234   2.808   9.499   2.715 -0.7562  0.5441 -0.0818
  869MOL0     C17235   2.805   9.552   2.581 -0.9376 -1.0079  0.1264
  869MOL0     C17236   2.935   9.559   2.507  0.3385 -0.3922 -0.4666
  869MOL0     C17237   3.052   9.523   2.577 -0.3254 -1.5409  0.1108
  869MOL0     O17238   3.161   9.508   2.496  0.6500 -0.2423 -0.5142
  869MOL0     C17239   3.263   9.601   2.526 -0.0256 -0.2567  0.2017
  869MOL0     C17240   3.385   9.515   2.573  0.4316  0.5762 -0.2873
  869MOL0     C17241   3.518   9.602   2.569  0.1248 -0.3007  0.2361
  869MOL0     C17242   3.653   9.532   2.597 -0.1890 -0.1779 -0.1508
  869MOL0     C17243   3.673   9.508   2.739  0.1051  0.6309  0.1385
  869MOL0     C17244   3.663   9.488   2.856 -0.0767  0.3859 -0.1389
  869MOL0     C17245   3.050   9.474   2.706 -0.0490  1.0205  0.3642
  869MOL0     C17246   2.932   9.467   2.774  0.2371 -0.0375 -0.7286
  869MOL0     C17247   2.962   9.449   2.920  0.2719 -0.4357  0.4148
  869MOL0     H17248   2.362   9.379   2.628 -2.6529 -1.4733  0.9114
  869MOL0     H17249   2.142   9.361   2.726  0.7897 -1.7870 -0.5402
  869MOL0     H17250   2.158   9.352   3.147 -0.4570  0.0516  1.8204
  869MOL0     H17251   2.075   9.522   3.147 -1.4622 -0.0388  1.5213
  869MOL0     H17252   1.955   9.256   3.090  0.6865 -2.0545  1.8807
  869MOL0     H17253   1.860   9.395   3.118 -4.3160 -4.2491  3.4707
  869MOL0     H17254   1.986   9.220   3.324 -0.0279 -0.1519 -0.0229
  869MOL0     H17255   1.820   9.283   3.305 -0.9525  0.4790 -1.1713
  869MOL0     H17256   2.069   9.435   3.398  0.7400 -0.4354  0.7940
  869MOL0     H17257   1.904   9.508   3.375  0.5645  1.1398  1.7139
  869MOL0     H17258   1.910   9.461   3.604  0.1517 -0.8346  0.2581
  869MOL0     H17259   1.836   9.309   3.543  1.7733 -2.0949  0.6485
  869MOL0     H17260   2.037   9.191   3.582  1.4381  0.6623 -2.6097
  869MOL0     H17261   2.124   9.338   3.571 -0.1377 -1.8323 -0.4376
  869MOL0     H17262   1.918   9.296   3.790 -0.4592  0.9499  0.1333
  869MOL0     H17263   2.044   9.428   3.776  1.5022  0.0140  3.1539
  869MOL0     H17264   2.100   9.265   3.956 -0.7784 -1.4168 -0.7767
  869MOL0     H17265   2.091   9.127   3.865  0.2181 -0.9350  0.8535
  869MOL0     H17266   2.278   9.455   3.907 -1.9181  0.9773 -2.4771
  869MOL0     H17267   2.619   9.440   3.715 -0.2810 -0.0860 -0.0065
  869MOL0     H17268   2.524   9.569   3.800  2.0335  0.9743  1.7086
  869MOL0     H17269   2.624   9.550   3.985  1.4078  1.9965 -2.6847
  869MOL0     H17270   2.572   9.377   3.996  0.6982 -0.1386  1.5725
  869MOL0     H17271   2.788   9.338   3.831 -0.5204  0.6895 -0.3279
  869MOL0     H17272   2.834   9.382   3.994  1.7950 -5.2294 -2.3513
  869MOL0     H17273   2.796   9.572   3.750  2.1981 -0.0058 -0.6789
  869MOL0     H17274   2.944   9.517   3.807  0.0925  2.9887 -1.1823
  869MOL0     H17275   3.032   9.702   4.141  2.5147 -0.8982  0.0538
  869MOL0     H17276   3.221   9.827   4.122 -0.6571  2.0729  0.2397
  869MOL0     H17277   3.423  10.222   3.993 -0.5558 -0.1634  1.4614
  869MOL0     H17278   3.640  10.352   4.036  2.5792  1.4108 -0.9275
  869MOL0     H17279   3.828  10.311   4.218  0.5402 -1.1659  0.7864
  869MOL0     H17280   3.974  10.219   4.211  0.0631  2.7717  2.8977
  869MOL0     H17281   4.071  10.388   4.055 -0.5788 -0.8758 -1.3541
  869MOL0     H17282   3.921  10.480   4.052  2.8368  0.4258 -2.7274
  869MOL0     H17283   4.100  10.594   4.196 -0.7266  0.9043 -0.2739
  869MOL0     H17284   3.961  10.554   4.298  0.1043  0.3151  0.4632
  869MOL0     H17285   4.196  10.377   4.283 -2.0612  0.2569 -1.7152
  869MOL0     H17286   4.070  10.373   4.406 -0.2466  0.1121  2.8931
  869MOL0     H17287   4.133  10.608   4.464 -0.9029  0.9944 -4.2676
  869MOL0     H17288   4.261  10.614   4.353 -0.4748  0.9994 -0.8062
  869MOL0     H17289   4.400  10.458   4.451 -0.4520  0.1333  0.1077
  869MOL0     H17290   4.374  10.588   4.556 -2.7081  2.5292 -1.8482
  869MOL0     H17291   4.205  10.340   4.591  0.9101 -0.2939 -0.5740
  869MOL0     H17292   4.225  10.480   4.707  0.8353  0.1032 -0.2364
  869MOL0     H17293   4.330  10.283   4.785 -0.0949  0.3564  0.4180
  869MOL0     H17294   4.441  10.275   4.648 -1.1099 -1.9122 -1.8578
  869MOL0     H17295   3.844   9.978   4.035 -0.1983 -0.7059  2.8181
  869MOL0     H17296   3.622   9.855   4.037  0.8623 -0.5752 -0.0691
  869MOL0     H17297   3.160   9.877   3.696  1.6027 -0.0104  0.3651
  869MOL0     H17298   2.968   9.750   3.707  2.0691 -3.0711 -0.4139
  869MOL0     H17299   2.291   9.566   3.081  0.5990  1.9851 -0.5252
  869MOL0     H17300   2.507   9.569   2.990 -0.0061 -1.4606  1.5861
  869MOL0     H17301   2.713   9.586   2.534 -1.0182 -0.0735  0.9275
  869MOL0     H17302   2.937   9.571   2.399  0.7275 -2.9110 -0.8191
  869MOL0     H17303   3.240   9.672   2.606  1.6459 -0.0653  0.5527
  869MOL0     H17304   3.279   9.659   2.434 -0.1108 -1.3064 -0.4900
  869MOL0     H17305   3.403   9.429   2.509  1.8840  0.1990  0.5776
  869MOL0     H17306   3.355   9.485   2.674 -2.2158 -0.0277 -1.1716
  869MOL0     H17307   3.512   9.695   2.628  1.1624  2.2603 -3.3234
  869MOL0     H17308   3.518   9.641   2.467  1.5896 -1.7726 -0.3791
  869MOL0     H17309   3.659   9.443   2.534  1.1544 -1.6760  1.9546
  869MOL0     H17310   3.731   9.599   2.559 -1.2192  1.5408  0.6222
  869MOL0     H17311   3.651   9.467   2.960  2.2164  1.2065  0.3519
  869MOL0     H17312   3.150   9.442   2.731 -0.4297  0.4009  1.1609
  869MOL0     H17313   2.933   9.542   2.969  0.9708  0.6495 -1.1384
  869MOL0     H17314   2.904   9.364   2.956 -0.5162  0.9926  2.7222
  869MOL0     H17315   3.067   9.427   2.940  0.0404 -2.6534 -0.5003
  870MOL0     O17316   1.742   0.595  10.724 -0.1034 -0.0898  0.0081
  870MOL0     C17317   1.692   0.708  10.744 -0.0494  0.1162  0.0910
  870MOL0     O17318   1.764   0.824  10.737  0.6329 -0.2245 -0.0443
  870MOL0     C17319   1.896   0.842  10.758  0.5682 -0.1765  0.2391
  870MOL0     C17320   1.930   0.976  10.730  0.8447 -0.5384  0.3717
  870MOL0     C17321   2.062   1.020  10.743  0.0323 -0.5799  1.2880
  870MOL0     C17322   2.165   0.931  10.775 -0.9985 -0.3596  0.0790
  870MOL0     O17323   2.301   0.971  10.774 -0.3061 -0.2305  0.0458
  870MOL0     C17324   2.347   1.066  10.677  0.3581  0.1459 -0.4050
  870MOL0     C17325   2.449   1.000  10.579  0.4979  0.1592  0.5672
  870MOL0     C17326   2.587   0.986  10.637 -0.4302 -0.5417  0.3817
  870MOL0     C17327   2.666   0.873  10.567 -0.0764  0.8334 -0.3909
  870MOL0     C17328   2.802   0.871  10.626  0.1938  1.9433  1.1321
  870MOL0     C17329   2.811   0.782  10.751 -0.3393  0.8083  0.1820
  870MOL0     C17330   2.959   0.769  10.793  0.1018 -0.6526 -0.1347
  870MOL0     C17331   3.014   0.878  10.885 -1.2163 -0.0141  0.3025
  870MOL0     N17332   2.924   0.910  10.997 -0.1003 -0.6157 -0.8859
  870MOL0     C17333   2.883   0.813  11.088  0.3429 -0.5875 -0.1893
  870MOL0     C17334   2.787   0.880  11.160 -0.2272  0.0955 -0.6444
  870MOL0     C17335   2.695   0.817  11.255  0.3226 -0.0165  0.7537
  870MOL0     C17336   2.550   0.838  11.202 -0.2737 -0.2394  0.0876
  870MOL0     C17337   2.457   0.751  11.287  0.0743  0.5444  0.0969
  870MOL0     C17338   2.315   0.786  11.251 -0.0955  0.2242  0.3633
  870MOL0     O17339   2.223   0.699  11.321 -0.6506 -0.0698 -0.7039
  870MOL0     C17340   2.087   0.704  11.312  0.7783  0.2062  0.3086
  870MOL0     C17341   2.019   0.778  11.217  0.2201  0.7174  0.1171
  870MOL0     C17342   1.876   0.780  11.217  0.1049 -0.4036  0.5094
  870MOL0     C17343   1.803   0.703  11.313 -0.9822  0.2941  0.2102
  870MOL0     C17344   1.655   0.719  11.328 -0.0822 -0.7647 -0.3661
  870MOL0     O17345   1.592   0.800  11.236 -0.2582 -0.0297 -0.0742
  870MOL0     C17346   1.464   0.848  11.262 -0.7057 -0.7695  0.0671
  870MOL0     C17347   1.360   0.799  11.184  0.1680  0.0607 -0.8710
  870MOL0     C17348   1.238   0.874  11.176  0.9159  0.0003  0.0475
  870MOL0     C17349   1.204   0.983  11.255  0.1274 -0.9136  0.7701
  870MOL0     O17350   1.071   1.029  11.253  0.2256  0.3697 -0.3910
  870MOL0     C17351   1.009   1.076  11.376 -0.2447 -0.8143  0.6532
  870MOL0     C17352   0.938   0.953  11.440  0.4394 -0.0362 -0.0453
  870MOL0     C17353   0.796   0.925  11.374  0.0930 -0.1543 -0.1822
  870MOL0     C17354   0.733   0.809  11.458 -0.2678  0.4323  0.1444
  870MOL0     C17355   0.581   0.838  11.488  0.6225  0.1710  0.5774
  870MOL0     C17356   0.557   0.939  11.595 -0.8529  0.0344  0.8266
  870MOL0     C17357   0.407   0.972  11.617 -0.1101  0.6441  0.3629
  870MOL0     C17358   0.334   0.837  11.641  0.8400  0.1118 -0.3252
  870MOL0    Cl17359   0.160   0.853  11.688 -0.1863 -0.0489 -0.2384
  870MOL0     C17360   1.313   1.038  11.322 -0.1873 -0.6613 -0.1209
  870MOL0     C17361   1.442   0.974  11.329  0.0005  1.0379 -0.1087
  870MOL0     O17362   1.599   0.680  11.435  0.2063 -0.5987  0.2826
  870MOL0     C17363   1.881   0.631  11.411 -0.0280 -0.7010  0.0787
  870MOL0     C17364   2.020   0.635  11.410  0.0501 -0.1708 -0.0306
  870MOL0     N17365   2.785   1.010  11.121  0.4506  0.3615  0.1298
  870MOL0     N17366   2.852   1.021  11.015 -0.1697 -0.2491  1.1241
  870MOL0     C17367   2.126   0.796  10.808  0.3564 -0.3746 -0.4710
  870MOL0     C17368   1.992   0.750  10.801  0.4843  0.1129 -0.5371
  870MOL0     C17369   1.549   0.722  10.770  0.1402  0.0219 -0.4563
  870MOL0     C17370   1.454   0.628  10.699 -1.0573  0.2288 -0.0092
  870MOL0     C17371   1.329   0.630  10.732  0.8521  0.6856 -0.4954
  870MOL0     C17372   1.280   0.732  10.821 -0.2289 -0.1307  0.1881
  870MOL0     O17373   1.143   0.733  10.840 -0.3721 -0.3671  0.3386
  870MOL0     C17374   1.072   0.808  10.738 -0.5966  0.6449 -0.7516
  870MOL0     C17375   0.936   0.739  10.733  0.2001  0.1835  0.1080
  870MOL0     C17376   0.829   0.820  10.653 -0.2610 -0.4629  0.2403
  870MOL0     C17377   0.688   0.763  10.680 -0.6396 -0.1120  0.6204
  870MOL0     C17378   0.577   0.833  10.624 -1.0930  0.5230 -0.1696
  870MOL0     C17379   0.489   0.899  10.577 -0.8101  0.0389 -0.4356
  870MOL0     C17380   1.353   0.835  10.863 -0.2487 -0.1451 -0.7087
  870MOL0     C17381   1.495   0.833  10.849 -0.0160 -0.4702  0.2083
  870MOL0     C17382   1.567   0.935  10.919 -0.4719  0.6931 -0.2601
  870MOL0     H17383   1.846   1.038  10.698 -0.3418 -3.8525 -3.8768
  870MOL0     H17384   2.092   1.124  10.731  0.6153 -0.7383  1.3090
  870MOL0     H17385   2.267   1.101  10.612  1.4192  0.1545 -1.7477
  870MOL0     H17386   2.386   1.146  10.740 -0.6790 -1.4259  2.4494
  870MOL0     H17387   2.450   1.060  10.488  0.4019 -0.5493  0.0898
  870MOL0     H17388   2.407   0.905  10.544 -3.8460  1.5383  1.3733
  870MOL0     H17389   2.570   0.957  10.741  1.4420 -1.7770  0.3947
  870MOL0     H17390   2.640   1.082  10.634  0.9421 -1.2669  0.4330
  870MOL0     H17391   2.613   0.782  10.594  1.6002  0.0429  0.3944
  870MOL0     H17392   2.664   0.889  10.458 -0.0454  0.4502 -0.4500
  870MOL0     H17393   2.859   0.812  10.554 -2.5410 -3.1153  2.5973
  870MOL0     H17394   2.844   0.970  10.647  1.2144  1.1437  3.1104
  870MOL0     H17395   2.748   0.823  10.832 -0.8619  4.2651 -1.7655
  870MOL0     H17396   2.777   0.680  10.730 -1.3876  1.7891 -3.6929
  870MOL0     H17397   3.021   0.765  10.703 -4.2141  2.0227 -3.6992
  870MOL0     H17398   2.982   0.680  10.852 -0.5525 -1.7836 -1.5247
  870MOL0     H17399   3.101   0.839  10.938 -2.3516  0.5823  2.7281
  870MOL0     H17400   3.025   0.974  10.834  0.2991 -0.6023 -0.5555
  870MOL0     H17401   2.908   0.708  11.093  2.2047 -0.1376  3.3533
  870MOL0     H17402   2.717   0.711  11.271  0.7319  0.2430  1.9687
  870MOL0     H17403   2.701   0.869  11.351  1.0492 -1.0558  1.2924
  870MOL0     H17404   2.520   0.943  11.209  0.7166  0.1607 -1.3796
  870MOL0     H17405   2.550   0.811  11.096  1.0817  1.4344 -0.3808
  870MOL0     H17406   2.472   0.778  11.393  4.2284  1.9613 -0.6483
  870MOL0     H17407   2.469   0.645  11.265 -0.3516  0.6819 -0.8061
  870MOL0     H17408   2.295   0.760  11.147 -2.5925  0.9306  0.6067
  870MOL0     H17409   2.300   0.891  11.274 -0.6489  0.3649 -0.6105
  870MOL0     H17410   2.074   0.839  11.146  2.5834 -3.1248 -1.6317
  870MOL0     H17411   1.831   0.834  11.134  0.2388  2.6237  2.2678
  870MOL0     H17412   1.366   0.709  11.124 -2.6394 -0.3474 -0.6876
  870MOL0     H17413   1.161   0.846  11.105  1.7698  1.0570 -1.3354
  870MOL0     H17414   1.091   1.114  11.438  1.7868 -0.2932 -2.1817
  870MOL0     H17415   0.930   1.149  11.355  0.7490 -0.3152 -1.5759
  870MOL0     H17416   1.008   0.869  11.447  1.1410  0.4153 -1.2238
  870MOL0     H17417   0.928   0.988  11.543  2.1127 -0.1158  0.1692
  870MOL0     H17418   0.735   1.015  11.380  0.6393  0.4863 -2.7281
  870MOL0     H17419   0.802   0.882  11.273  2.0380 -2.5003  0.7992
  870MOL0     H17420   0.792   0.797  11.549  2.8259 -1.3058 -1.9010
  870MOL0     H17421   0.737   0.708  11.414  1.9797 -0.5177  2.2930
  870MOL0     H17422   0.535   0.742  11.510 -2.1521  0.6690 -2.2759
  870MOL0     H17423   0.537   0.868  11.393  1.3903 -0.3002  0.0607
  870MOL0     H17424   0.607   0.900  11.684  1.2069 -0.9461 -0.6476
  870MOL0     H17425   0.608   1.032  11.567  2.7745 -2.2984 -1.1605
  870MOL0     H17426   0.374   1.027  11.528  2.5318  0.1272 -1.0363
  870MOL0     H17427   0.392   1.033  11.706 -0.3321  0.7122  0.2795
  870MOL0     H17428   0.320   0.762  11.562 -1.2458 -1.8641  1.7791
  870MOL0     H17429   0.388   0.771  11.709 -1.5061 -1.0390  0.5247
  870MOL0     H17430   1.287   1.128  11.376  2.4105 -0.4637  0.9875
  870MOL0     H17431   1.515   1.011  11.400 -0.6288  0.0718  1.0898
  870MOL0     H17432   1.837   0.571  11.490 -0.6574 -1.7093 -1.0103
  870MOL0     H17433   2.071   0.581  11.489  0.2020 -0.0180 -0.0237
  870MOL0     H17434   2.213   0.740  10.842 -1.3803 -1.5866  2.2621
  870MOL0     H17435   1.955   0.650  10.822 -0.0008  0.6727  1.4208
  870MOL0     H17436   1.489   0.559  10.622  0.1970 -0.8664  1.4617
  870MOL0     H17437   1.252   0.570  10.685  2.9770 -3.4978  0.8004
  870MOL0     H17438   1.121   0.806  10.640 -3.5648  0.2505 -2.3397
  870MOL0     H17439   1.062   0.913  10.770  0.6620  0.2568  1.0848
  870MOL0     H17440   0.905   0.725  10.837  2.0647 -1.9867  0.4580
  870MOL0     H17441   0.935   0.644  10.679 -1.7883 -0.2004  0.7162
  870MOL0     H17442   0.853   0.812  10.546 -0.7643 -1.4764  0.1878
  870MOL0     H17443   0.830   0.926  10.680  0.1209 -0.4100  0.0188
  870MOL0     H17444   0.678   0.663  10.638 -2.8961  0.5881 -0.7076
  870MOL0     H17445   0.682   0.760  10.789  2.3945 -0.0340  0.8519
  870MOL0     H17446   0.410   0.939  10.517 -1.5659 -1.5088 -0.5264
  870MOL0     H17447   1.304   0.922  10.905  0.2056 -0.1476 -0.1552
  870MOL0     H17448   1.568   1.017  10.847 -0.6671  1.8335  1.0108
  870MOL0     H17449   1.505   0.980  10.997 -1.0238 -4.0630  2.4160
  870MOL0     H17450   1.661   0.917  10.973 -0.9341 -0.7323  0.1221
  871MOL0     O17451   1.374   1.465   1.915 -0.2890  0.2460 -0.2704
  871MOL0     C17452   1.289   1.466   1.829  0.2072 -0.0240 -0.8238
  871MOL0     O17453   1.314   1.482   1.694  0.5332  0.7592 -0.8711
  871MOL0     C17454   1.441   1.463   1.646 -0.9749 -1.2584  0.4441
  871MOL0     C17455   1.527   1.572   1.603 -0.2297 -0.9957  0.1992
  871MOL0     C17456   1.658   1.545   1.562 -0.8995 -0.4714 -0.5809
  871MOL0     C17457   1.696   1.417   1.555 -0.7794  0.2631 -0.2778
  871MOL0     O17458   1.831   1.386   1.521  0.3836 -0.2751 -0.0912
  871MOL0     C17459   1.938   1.486   1.521 -0.9463 -0.1833 -0.4884
  871MOL0     C17460   2.065   1.401   1.521  0.1274 -1.1199 -0.7289
  871MOL0     C17461   2.187   1.492   1.483 -0.3540 -0.1666  0.1571
  871MOL0     C17462   2.322   1.420   1.488  1.3268 -0.3187  0.1206
  871MOL0     C17463   2.374   1.389   1.343  0.5828  0.8360 -0.3664
  871MOL0     C17464   2.517   1.347   1.351  0.1639  0.6074 -0.2520
  871MOL0     C17465   2.548   1.257   1.234 -0.7552  0.5076  0.9802
  871MOL0     C17466   2.683   1.277   1.167  0.0201 -0.3193 -0.2172
  871MOL0     N17467   2.807   1.249   1.247 -0.0326 -0.3991 -0.9408
  871MOL0     C17468   2.825   1.243   1.386  0.0262 -0.5700  0.9994
  871MOL0     C17469   2.946   1.204   1.408 -0.0841 -0.2498 -0.5467
  871MOL0     C17470   3.003   1.184   1.545 -0.7920 -0.3083  0.4014
  871MOL0     C17471   3.154   1.206   1.550 -0.0090  0.3423 -0.5019
  871MOL0     C17472   3.202   1.229   1.697 -0.2087 -0.5617  0.6909
  871MOL0     C17473   3.346   1.211   1.732  0.7221  0.3118 -0.7532
  871MOL0     O17474   3.429   1.277   1.637  0.2186 -0.7713 -0.5010
  871MOL0     C17475   3.456   1.411   1.657  0.7128 -0.4114  0.2877
  871MOL0     C17476   3.365   1.510   1.642 -0.1652 -0.0943  0.6948
  871MOL0     C17477   3.398   1.641   1.667  0.5921  0.4315  0.0907
  871MOL0     C17478   3.533   1.681   1.676 -0.2043 -0.6181  0.3050
  871MOL0     C17479   3.575   1.820   1.703 -0.0326  0.3092  0.4637
  871MOL0     O17480   3.713   1.847   1.718  0.2137  0.1487  0.1392
  871MOL0     C17481   3.743   1.972   1.768  1.2614 -1.0101 -0.4962
  871MOL0     C17482   3.748   2.008   1.901  0.0192  0.3276  1.1227
  871MOL0     C17483   3.788   2.136   1.935 -0.1562  0.1623 -0.3398
  871MOL0     C17484   3.819   2.229   1.840 -0.0073  0.4151  0.0730
  871MOL0     O17485   3.854   2.348   1.888  0.0870  0.5125 -1.3940
  871MOL0     C17486   3.858   2.457   1.793 -1.0068  0.9051  0.4696
  871MOL0     C17487   3.850   2.591   1.870 -0.5547 -0.5875 -0.5045
  871MOL0     C17488   3.976   2.630   1.952  0.2072 -0.2534 -0.9196
  871MOL0     C17489   4.098   2.667   1.866 -0.4283  0.6285 -0.6717
  871MOL0     C17490   4.207   2.750   1.944  0.1903  0.0835 -0.6324
  871MOL0     C17491   4.252   2.680   2.076  0.3231  0.6253 -0.3018
  871MOL0     C17492   4.331   2.546   2.065  0.7237  0.3046  0.5818
  871MOL0     C17493   4.446   2.560   1.979 -0.4385  0.2758  0.3142
  871MOL0    Cl17494   4.539   2.411   2.027 -0.3377 -0.0403 -0.0729
  871MOL0     C17495   3.807   2.196   1.707  0.7507  0.2315  0.4578
  871MOL0     C17496   3.768   2.069   1.672 -0.3232 -0.0458 -0.1954
  871MOL0     O17497   3.484   1.899   1.723 -0.3530 -0.4007  0.1672
  871MOL0     C17498   3.625   1.578   1.684 -0.2819  0.2077  0.4413
  871MOL0     C17499   3.589   1.442   1.679 -0.4438 -0.3627  0.9972
  871MOL0     N17500   3.017   1.191   1.297  0.2049  0.1910  0.1100
  871MOL0     N17501   2.931   1.221   1.198  0.8350 -0.1768 -0.1276
  871MOL0     C17502   1.607   1.307   1.588 -0.0983  0.1541  0.5415
  871MOL0     C17503   1.490   1.340   1.636 -0.1899  1.1290 -0.6161
  871MOL0     C17504   1.153   1.478   1.872 -0.7479 -0.0015 -0.2585
  871MOL0     C17505   1.056   1.534   1.782 -0.1312 -0.3864 -0.1867
  871MOL0     C17506   0.923   1.559   1.824 -0.5933 -0.0799  0.5911
  871MOL0     C17507   0.885   1.510   1.944  0.1215  0.3656  0.8814
  871MOL0     O17508   0.754   1.535   1.974 -0.5066 -1.2272 -0.8874
  871MOL0     C17509   0.695   1.504   2.104 -0.3804  0.7549  0.5299
  871MOL0     C17510   0.550   1.544   2.100 -0.3904 -0.5499  0.4555
  871MOL0     C17511   0.478   1.495   1.972  0.8685 -0.8007  0.3522
  871MOL0     C17512   0.322   1.494   1.980 -0.5628 -0.1595  0.1843
  871MOL0     C17513   0.271   1.632   1.981 -0.5406  0.3389  0.6426
  871MOL0     C17514   0.247   1.751   1.992  0.1297 -0.3419  0.0298
  871MOL0     C17515   0.972   1.451   2.035  0.1405  0.7608  0.1806
  871MOL0     C17516   1.112   1.440   2.005 -0.6545 -0.2775  1.3250
  871MOL0     C17517   1.189   1.364   2.107  0.3951  0.9607 -0.0215
  871MOL0     H17518   1.484   1.671   1.616  1.7667  0.2404 -1.8286
  871MOL0     H17519   1.730   1.623   1.538  0.5148 -0.9126  1.9357
  871MOL0     H17520   1.941   1.562   1.442  2.0267  1.2231  0.8300
  871MOL0     H17521   1.944   1.539   1.617 -2.1261 -0.5647 -0.1965
  871MOL0     H17522   2.050   1.315   1.455  0.2028 -0.4874 -1.5917
  871MOL0     H17523   2.073   1.364   1.624 -0.9995 -0.1888 -0.2908
  871MOL0     H17524   2.188   1.577   1.552 -3.7051 -0.7434  1.1058
  871MOL0     H17525   2.178   1.529   1.381  3.1691  2.4421  0.5933
  871MOL0     H17526   2.384   1.490   1.545  1.9090 -1.9423  1.5704
  871MOL0     H17527   2.320   1.324   1.540 -0.4888 -2.3700 -3.3519
  871MOL0     H17528   2.306   1.310   1.309 -0.4073 -0.0736  3.2930
  871MOL0     H17529   2.364   1.482   1.285  1.8819  0.1930 -1.6841
  871MOL0     H17530   2.582   1.432   1.373  1.2621 -0.4507  0.7738
  871MOL0     H17531   2.522   1.277   1.435  2.8888  0.0760 -0.7718
  871MOL0     H17532   2.468   1.277   1.161  0.3099  2.6109  0.3101
  871MOL0     H17533   2.539   1.149   1.253 -0.2651  0.2426 -0.2260
  871MOL0     H17534   2.691   1.197   1.093  1.4613  1.1955 -1.8034
  871MOL0     H17535   2.693   1.374   1.117 -0.5306 -0.7082 -1.1085
  871MOL0     H17536   2.743   1.244   1.457  1.0804 -1.5854  2.2896
  871MOL0     H17537   2.944   1.232   1.624 -1.5423  0.2835 -0.4999
  871MOL0     H17538   2.990   1.077   1.560  1.3704 -0.7063 -0.1990
  871MOL0     H17539   3.200   1.117   1.507 -3.3528 -1.3514 -0.8870
  871MOL0     H17540   3.186   1.288   1.485 -2.1391  0.8501 -0.9602
  871MOL0     H17541   3.157   1.162   1.771  1.5304 -2.9457 -0.2769
  871MOL0     H17542   3.173   1.334   1.712  2.3910  0.3981 -0.3761
  871MOL0     H17543   3.376   1.106   1.729  2.3339  0.7530 -1.9173
  871MOL0     H17544   3.356   1.250   1.834  1.1107  0.5938 -0.8948
  871MOL0     H17545   3.257   1.500   1.637 -0.4927  0.3553  4.4489
  871MOL0     H17546   3.324   1.718   1.685  0.6404  0.5311 -0.1288
  871MOL0     H17547   3.719   1.944   1.984  2.5647  1.0582  2.6575
  871MOL0     H17548   3.796   2.173   2.036 -0.3251 -0.7895  0.0377
  871MOL0     H17549   3.956   2.459   1.743  0.6637 -2.9298  3.1127
  871MOL0     H17550   3.783   2.454   1.714  2.9567 -0.7559 -3.6833
  871MOL0     H17551   3.831   2.670   1.797 -0.6568 -1.0099 -0.9484
  871MOL0     H17552   3.760   2.588   1.932  0.9932  0.9488  1.9441
  871MOL0     H17553   3.957   2.715   2.017  0.9751 -0.8566  0.1303
  871MOL0     H17554   4.004   2.549   2.019 -1.0129 -0.9102 -1.1854
  871MOL0     H17555   4.063   2.721   1.778 -0.1426  1.9848  0.0199
  871MOL0     H17556   4.134   2.572   1.827 -1.0894  0.4903 -0.9612
  871MOL0     H17557   4.167   2.849   1.967 -1.1409 -1.0139  2.3004
  871MOL0     H17558   4.299   2.757   1.885  0.9967 -1.1376  0.4159
  871MOL0     H17559   4.309   2.763   2.119 -0.3847  2.1782 -2.2042
  871MOL0     H17560   4.170   2.666   2.147 -0.0049  1.1806 -0.5648
  871MOL0     H17561   4.267   2.466   2.026 -1.9770  2.3303  0.5375
  871MOL0     H17562   4.355   2.513   2.167 -1.9471  0.6530  1.3951
  871MOL0     H17563   4.417   2.553   1.874  3.7814  3.0340 -1.3229
  871MOL0     H17564   4.515   2.645   1.989  0.4072 -0.5273  1.6768
  871MOL0     H17565   3.832   2.264   1.627 -2.4382  0.1522 -0.7085
  871MOL0     H17566   3.755   2.036   1.569  2.4429  2.0915 -1.3600
  871MOL0     H17567   3.732   1.593   1.669  0.1336 -2.0962  0.7263
  871MOL0     H17568   3.661   1.362   1.669 -1.7774 -1.6218  1.0839
  871MOL0     H17569   1.646   1.206   1.593 -0.5801 -0.3083 -2.8306
  871MOL0     H17570   1.422   1.262   1.668  0.0615  0.8862 -0.6665
  871MOL0     H17571   1.082   1.551   1.678  0.5392 -1.2601 -0.1840
  871MOL0     H17572   0.860   1.616   1.757 -0.9588 -1.3714 -0.2128
  871MOL0     H17573   0.746   1.547   2.190 -0.2881  2.8812 -0.5274
  871MOL0     H17574   0.690   1.395   2.106  0.4762  0.5986 -1.9889
  871MOL0     H17575   0.556   1.653   2.093 -1.2219 -0.5937 -1.7832
  871MOL0     H17576   0.496   1.507   2.188 -3.2856  0.2400 -0.8693
  871MOL0     H17577   0.513   1.395   1.946  1.9725 -0.0007 -1.4116
  871MOL0     H17578   0.514   1.560   1.892 -0.3678  1.1821  1.2976
  871MOL0     H17579   0.287   1.434   1.896  3.8145 -0.7482 -1.4572
  871MOL0     H17580   0.291   1.443   2.072 -1.5422 -2.1963 -1.1905
  871MOL0     H17581   0.234   1.855   2.016  0.8923  0.1934 -1.7055
  871MOL0     H17582   0.947   1.426   2.138  0.7086 -0.8465 -0.0454
  871MOL0     H17583   1.234   1.281   2.052 -0.5446  0.1642  0.3894
  871MOL0     H17584   1.264   1.421   2.162  2.0301 -1.5198  0.4690
  871MOL0     H17585   1.125   1.308   2.176  2.8319 -2.2934 -0.1691
  872MOL0     O17586   2.049   2.738   7.659 -0.1811 -0.4382 -0.7450
  872MOL0     C17587   1.956   2.670   7.711  0.7422 -1.0298  0.2958
  872MOL0     O17588   1.945   2.632   7.844  0.2163  0.0579 -0.3141
  872MOL0     C17589   2.018   2.708   7.935 -0.4035  0.2249 -0.8101
  872MOL0     C17590   1.938   2.732   8.044 -1.0437 -0.9307  0.6521
  872MOL0     C17591   1.993   2.817   8.150 -0.0570  0.4192 -0.4408
  872MOL0     C17592   2.126   2.852   8.154  0.2110  0.5956 -0.6936
  872MOL0     O17593   2.174   2.914   8.268 -0.3996 -0.9128 -0.4807
  872MOL0     C17594   2.265   3.019   8.244  0.1417 -0.0256  0.0567
  872MOL0     C17595   2.232   3.122   8.355 -0.0815 -0.2691 -0.0859
  872MOL0     C17596   2.327   3.245   8.347  0.0491  0.1210  0.9825
  872MOL0     C17597   2.341   3.318   8.477 -0.5779 -0.6081  0.6945
  872MOL0     C17598   2.398   3.457   8.452 -0.1801 -0.0310  0.7456
  872MOL0     C17599   2.374   3.561   8.564 -0.4560  0.6447 -0.3088
  872MOL0     C17600   2.464   3.680   8.549 -0.5169  0.6224 -0.3698
  872MOL0     C17601   2.409   3.767   8.430 -0.5437 -0.7334 -0.2549
  872MOL0     N17602   2.472   3.903   8.404  0.2091 -0.4767 -0.8873
  872MOL0     C17603   2.407   4.014   8.360  1.0284 -0.1593  0.2095
  872MOL0     C17604   2.509   4.097   8.325 -0.2712  0.3253 -0.1156
  872MOL0     C17605   2.481   4.228   8.273 -0.1554 -0.2305 -0.3435
  872MOL0     C17606   2.469   4.338   8.375 -0.8305  0.5830  0.3471
  872MOL0     C17607   2.595   4.399   8.437  0.8944 -0.1212  0.2322
  872MOL0     C17608   2.700   4.446   8.342 -0.3425  0.4721  0.4215
  872MOL0     O17609   2.784   4.542   8.416  0.9495  0.4850 -0.5297
  872MOL0     C17610   2.901   4.506   8.477  0.0156  0.4621  0.0434
  872MOL0     C17611   2.980   4.612   8.526 -0.0321  0.1679  0.2106
  872MOL0     C17612   3.104   4.585   8.590  0.7097  0.8216  0.5351
  872MOL0     C17613   3.139   4.450   8.622 -1.5568 -0.1487  0.6077
  872MOL0     C17614   3.249   4.430   8.717 -0.0256  0.2668 -0.7630
  872MOL0     O17615   3.263   4.297   8.770  0.6403  0.1786  0.2162
  872MOL0     C17616   3.382   4.254   8.825  0.5591 -1.2757 -0.2862
  872MOL0     C17617   3.376   4.171   8.933  0.3182  1.1139  0.0408
  872MOL0     C17618   3.487   4.117   8.989  0.0097  0.4351 -0.3014
  872MOL0     C17619   3.607   4.147   8.929  0.2100  0.9547 -0.3873
  872MOL0     O17620   3.730   4.090   8.963 -0.1067  0.3576 -0.1637
  872MOL0     C17621   3.741   4.032   9.094 -1.1067  0.6661 -0.2238
  872MOL0     C17622   3.881   3.985   9.110  0.2548  0.2116 -0.4435
  872MOL0     C17623   3.980   4.097   9.080  0.0862  0.6745 -0.3295
  872MOL0     C17624   4.113   4.084   9.156  0.5201  0.2235 -0.5789
  872MOL0     C17625   4.208   4.200   9.114  0.4882  0.1444 -0.6406
  872MOL0     C17626   4.353   4.190   9.184  1.9407 -0.3128  1.0918
  872MOL0     C17627   4.445   4.078   9.126 -0.5661  0.2638  0.2253
  872MOL0     C17628   4.568   4.064   9.217 -0.0009  0.1631 -0.6732
  872MOL0    Cl17629   4.662   4.221   9.216  0.1364  0.0534  0.5106
  872MOL0     C17630   3.620   4.225   8.811 -0.3303  0.1996 -1.4424
  872MOL0     C17631   3.503   4.279   8.757 -0.0309 -0.4797 -0.2672
  872MOL0     O17632   3.321   4.523   8.748  0.6328  0.1097  0.8887
  872MOL0     C17633   3.066   4.344   8.583 -0.2857  0.2866 -0.6316
  872MOL0     C17634   2.949   4.371   8.503  0.1690 -0.3025 -0.9036
  872MOL0     N17635   2.634   4.035   8.351  0.3108 -0.0376  0.4786
  872MOL0     N17636   2.611   3.918   8.392  0.0164 -0.5646  0.1298
  872MOL0     C17637   2.206   2.831   8.042  0.4550  0.6778  0.6538
  872MOL0     C17638   2.150   2.760   7.932 -0.1036  0.6831  0.0418
  872MOL0     C17639   1.851   2.631   7.614  1.3380 -0.5794  0.1759
  872MOL0     C17640   1.725   2.683   7.627 -0.5759 -0.1636 -0.1492
  872MOL0     C17641   1.618   2.658   7.545 -0.8314 -0.9700 -0.2619
  872MOL0     C17642   1.633   2.561   7.442  0.7147  0.7706  0.5964
  872MOL0     O17643   1.529   2.532   7.358  0.9864  0.8524  0.0045
  872MOL0     C17644   1.391   2.544   7.403  0.0105  0.8460 -1.1002
  872MOL0     C17645   1.324   2.411   7.377 -0.7423  0.8199 -0.4164
  872MOL0     C17646   1.190   2.424   7.449  0.2925 -0.0800 -0.4210
  872MOL0     C17647   1.121   2.287   7.445 -0.0043 -0.3822  0.2193
  872MOL0     C17648   0.980   2.300   7.501 -0.2041  0.1389  0.4733
  872MOL0     C17649   0.871   2.308   7.551 -0.4368  1.3309  0.6608
  872MOL0     C17650   1.761   2.515   7.410  0.2665 -1.3147 -0.2643
  872MOL0     C17651   1.863   2.549   7.494 -0.8321 -0.0495  0.8682
  872MOL0     C17652   2.002   2.499   7.460  1.0583 -0.6232  0.7758
  872MOL0     H17653   1.836   2.696   8.041 -1.8676  0.7036  3.9505
  872MOL0     H17654   1.934   2.846   8.236  2.0640  3.6936  0.0810
  872MOL0     H17655   2.370   2.989   8.234  0.7774  2.2542 -0.7160
  872MOL0     H17656   2.241   3.070   8.150  3.3272  0.6291 -0.5120
  872MOL0     H17657   2.234   3.080   8.456 -0.7213  3.9326  1.8942
  872MOL0     H17658   2.131   3.163   8.356 -1.0993 -2.4299 -2.7520
  872MOL0     H17659   2.286   3.307   8.267 -2.0604  1.2514  2.8384
  872MOL0     H17660   2.432   3.223   8.322  0.5975  4.3354 -1.3642
  872MOL0     H17661   2.241   3.344   8.512 -0.4493  0.5233  0.2751
  872MOL0     H17662   2.399   3.255   8.545  1.2730 -0.8959 -1.0302
  872MOL0     H17663   2.505   3.446   8.431  0.1661  1.5988  1.5143
  872MOL0     H17664   2.351   3.492   8.360  2.4802 -0.6466 -0.9778
  872MOL0     H17665   2.271   3.595   8.578 -1.6937 -2.6006 -0.8561
  872MOL0     H17666   2.409   3.520   8.659 -0.5707  1.8614  0.2782
  872MOL0     H17667   2.570   3.653   8.542 -0.2705  1.8325 -1.6691
  872MOL0     H17668   2.449   3.731   8.645 -0.5971 -1.6524  0.8965
  872MOL0     H17669   2.423   3.699   8.345  1.6900 -2.7922  1.6181
  872MOL0     H17670   2.304   3.787   8.456  0.1851  2.5180  0.6347
  872MOL0     H17671   2.302   4.029   8.336  0.3090  0.4640  3.2943
  872MOL0     H17672   2.534   4.260   8.183 -0.2451  3.5213  0.7683
  872MOL0     H17673   2.378   4.220   8.237 -0.2645  1.3545 -0.4496
  872MOL0     H17674   2.412   4.420   8.331  1.4202  1.0158 -2.0244
  872MOL0     H17675   2.402   4.294   8.449 -1.2266 -0.5658 -0.6644
  872MOL0     H17676   2.644   4.328   8.504  5.2781  1.5671 -0.8645
  872MOL0     H17677   2.560   4.489   8.488 -0.8167 -0.7402  0.2273
  872MOL0     H17678   2.653   4.491   8.254  2.3785 -0.3175 -1.5888
  872MOL0     H17679   2.761   4.364   8.303 -2.6096 -0.6733 -0.9947
  872MOL0     H17680   2.945   4.715   8.526  2.9667  1.2908 -0.0638
  872MOL0     H17681   3.171   4.663   8.626 -1.1313  2.4800  0.5938
  872MOL0     H17682   3.281   4.161   8.985  0.8081 -2.3469  0.5096
  872MOL0     H17683   3.481   4.054   9.077  1.9430 -0.9006 -1.0595
  872MOL0     H17684   3.721   4.102   9.176 -0.6757 -1.2856  1.6566
  872MOL0     H17685   3.672   3.949   9.113  0.8573 -0.5551  2.1944
  872MOL0     H17686   3.874   3.961   9.217 -2.6605 -3.0401 -1.1713
  872MOL0     H17687   3.888   3.898   9.044 -3.0734 -1.2149  0.8366
  872MOL0     H17688   3.998   4.099   8.972  0.6649  0.0649 -0.2492
  872MOL0     H17689   3.943   4.195   9.111  1.5975  0.6970  1.5876
  872MOL0     H17690   4.163   3.991   9.129  3.4240  1.5154 -0.0605
  872MOL0     H17691   4.099   4.090   9.264 -0.1510 -2.4779 -0.4423
  872MOL0     H17692   4.163   4.295   9.145  0.6226 -0.3727  1.2631
  872MOL0     H17693   4.224   4.208   9.006  1.9947 -3.3148 -0.8068
  872MOL0     H17694   4.414   4.280   9.176  2.2227 -0.6848 -2.4401
  872MOL0     H17695   4.329   4.169   9.289 -1.2860  0.1599  0.5514
  872MOL0     H17696   4.480   4.098   9.024  0.9669  2.0914  1.0339
  872MOL0     H17697   4.400   3.979   9.127  3.0545 -1.6301 -1.9868
  872MOL0     H17698   4.533   4.042   9.318 -0.1806  2.1121 -0.2767
  872MOL0     H17699   4.634   3.982   9.188  1.0426  0.5363  0.5767
  872MOL0     H17700   3.711   4.248   8.758  0.2585  2.1233  0.2962
  872MOL0     H17701   3.508   4.342   8.669  1.1688 -1.1194 -0.6746
  872MOL0     H17702   3.107   4.244   8.595 -2.6731 -0.7458 -0.6024
  872MOL0     H17703   2.894   4.284   8.469 -0.6581  0.2252 -0.9517
  872MOL0     H17704   2.313   2.853   8.042  1.0635 -1.8565  0.5947
  872MOL0     H17705   2.214   2.734   7.848  1.1694 -1.0771  1.4746
  872MOL0     H17706   1.686   2.755   7.699 -0.5337  0.4392 -0.7224
  872MOL0     H17707   1.530   2.720   7.559 -1.6732 -1.2239 -3.5875
  872MOL0     H17708   1.354   2.625   7.340 -0.9576  1.1816 -0.1139
  872MOL0     H17709   1.386   2.564   7.510  0.3741 -3.5039 -0.0702
  872MOL0     H17710   1.388   2.325   7.397 -1.5730  0.1304 -0.6251
  872MOL0     H17711   1.309   2.404   7.269 -0.2138 -0.5865 -0.4161
  872MOL0     H17712   1.125   2.502   7.408 -0.6335  0.0367  1.2178
  872MOL0     H17713   1.199   2.448   7.555  1.3292 -0.9326 -0.2981
  872MOL0     H17714   1.111   2.255   7.341  1.6159 -0.5786  0.1057
  872MOL0     H17715   1.167   2.200   7.492  0.1341  0.7072  2.2534
  872MOL0     H17716   0.773   2.304   7.593  0.4059 -1.6378  2.7372
  872MOL0     H17717   1.776   2.454   7.321  0.1919  0.4913 -1.5663
  872MOL0     H17718   2.066   2.476   7.546  0.2179  0.1779  1.6421
  872MOL0     H17719   1.985   2.410   7.398 -2.2074  1.0582 -1.0106
  872MOL0     H17720   2.050   2.574   7.398 -1.2607 -0.6521 -1.2123
  873MOL0     O17721   3.678   7.221   1.283 -0.2699  0.0747  0.3050
  873MOL0     C17722   3.687   7.186   1.163  0.3307 -0.0117 -0.2817
  873MOL0     O17723   3.799   7.127   1.108 -0.3900 -0.9337  0.5559
  873MOL0     C17724   3.916   7.120   1.179  0.0859  0.1827 -0.3703
  873MOL0     C17725   3.990   7.228   1.225  0.2603 -0.5738 -0.3060
  873MOL0     C17726   4.101   7.208   1.301  0.5159 -0.1550 -0.8950
  873MOL0     C17727   4.151   7.083   1.325 -0.1303  0.0066  0.0183
  873MOL0     O17728   4.278   7.079   1.374  0.1703  0.0134 -1.1156
  873MOL0     C17729   4.354   6.956   1.379 -0.4128  0.3896 -0.0687
  873MOL0     C17730   4.495   6.992   1.418 -0.4410  1.1959 -0.1622
  873MOL0     C17731   4.587   6.872   1.405  0.6332 -0.5672  0.8534
  873MOL0     C17732   4.736   6.910   1.386  0.0578 -0.3921  0.0445
  873MOL0     C17733   4.834   6.790   1.394  0.8418  0.2016  0.3706
  873MOL0     C17734   4.988   6.842   1.410  0.2547  0.0343  1.1880
  873MOL0     C17735   5.080   6.720   1.426 -0.9533 -0.6998 -0.5172
  873MOL0     C17736   5.065   6.651   1.558  0.0507  0.5764 -1.1059
  873MOL0     N17737   5.170   6.555   1.585  0.2299 -0.2285  0.0662
  873MOL0     C17738   5.258   6.558   1.686 -0.1013 -0.4385 -0.1944
  873MOL0     C17739   5.336   6.446   1.674  0.7619  0.1198 -0.2387
  873MOL0     C17740   5.461   6.418   1.754 -0.5504  0.4021  0.6365
  873MOL0     C17741   5.594   6.478   1.689  0.5125  0.0548 -0.0810
  873MOL0     C17742   5.675   6.368   1.626  0.2248 -0.5072  0.2942
  873MOL0     C17743   5.805   6.427   1.576 -0.1506 -0.4281  1.2582
  873MOL0     O17744   5.879   6.486   1.680 -0.7240  0.4248 -0.0700
  873MOL0     C17745   5.936   6.404   1.778 -0.2256 -0.7342  0.6050
  873MOL0     C17746   5.981   6.465   1.893 -0.0851  0.5062 -0.3847
  873MOL0     C17747   6.036   6.388   1.994  0.5673 -0.3403  0.4821
  873MOL0     C17748   6.050   6.254   1.987 -0.2056 -0.1917 -0.3864
  873MOL0     C17749   6.098   6.175   2.104 -0.5407  0.7773 -0.1850
  873MOL0     O17750   6.185   6.219   2.198  0.0168  0.1171  0.8750
  873MOL0     C17751   6.237   6.151   2.310  0.9432  0.3034  0.2707
  873MOL0     C17752   6.370   6.117   2.310 -0.1385 -0.4278 -0.1057
  873MOL0     C17753   6.406   6.032   2.415  0.3764 -0.2969  0.1243
  873MOL0     C17754   6.329   6.014   2.530  0.0662  1.0441  0.4002
  873MOL0     O17755   6.375   5.920   2.619 -0.3148  0.8295 -0.0933
  873MOL0     C17756   6.304   5.908   2.738  0.0823 -0.2578  0.0168
  873MOL0     C17757   6.382   5.798   2.811  0.1865  0.3151 -0.9111
  873MOL0     C17758   6.522   5.837   2.864 -0.5482  0.6299  1.0048
  873MOL0     C17759   6.601   5.719   2.940  0.3518  0.4319  0.0317
  873MOL0     C17760   6.724   5.780   3.006 -0.1232 -0.3027  0.5911
  873MOL0     C17761   6.800   5.679   3.091 -0.2755  0.3202  0.4853
  873MOL0     C17762   6.828   5.546   3.017  0.1066  0.1679  0.2151
  873MOL0     C17763   6.961   5.485   3.057  0.0909  0.3520  0.5289
  873MOL0    Cl17764   6.988   5.315   3.009 -0.7106 -0.0443 -0.2289
  873MOL0     C17765   6.202   6.064   2.538 -0.0430 -0.3433  0.8184
  873MOL0     C17766   6.155   6.134   2.424  0.1569  0.3604  0.4076
  873MOL0     O17767   6.057   6.062   2.117 -0.2379  0.1759 -0.4333
  873MOL0     C17768   6.004   6.194   1.869 -0.1361 -0.5202  0.0728
  873MOL0     C17769   5.945   6.265   1.767 -0.0631 -0.4353 -0.7145
  873MOL0     N17770   5.281   6.374   1.573 -0.4852  0.2952 -0.4156
  873MOL0     N17771   5.182   6.440   1.524 -0.4439 -0.7953 -0.9415
  873MOL0     C17772   4.085   6.970   1.283 -0.0663  0.5138  0.1544
  873MOL0     C17773   3.970   6.996   1.209  0.3387  0.8318  1.1349
  873MOL0     C17774   3.570   7.184   1.075 -0.1185 -0.0395 -0.2178
  873MOL0     C17775   3.588   7.137   0.943  0.0328 -0.3655 -0.0056
  873MOL0     C17776   3.476   7.136   0.854 -1.0710 -0.7664 -0.9726
  873MOL0     C17777   3.350   7.176   0.887  0.2170 -0.5455 -0.2795
  873MOL0     O17778   3.263   7.148   0.797 -0.0339 -0.1582  0.0646
  873MOL0     C17779   3.129   7.133   0.834  1.5002 -0.1288 -0.0926
  873MOL0     C17780   3.075   7.020   0.756 -0.6258 -0.4731  0.1751
  873MOL0     C17781   3.136   6.881   0.764 -0.1746 -0.0457 -0.3900
  873MOL0     C17782   3.117   6.795   0.636 -1.5528  0.0998 -0.5667
  873MOL0     C17783   3.217   6.680   0.633  0.1021 -0.1927  0.3687
  873MOL0     C17784   3.305   6.598   0.629  0.0437  0.8020  0.3039
  873MOL0     C17785   3.334   7.222   1.023  0.6619 -0.1712  0.2922
  873MOL0     C17786   3.443   7.233   1.110 -0.1644  0.2558  0.2032
  873MOL0     C17787   3.408   7.298   1.250 -0.3718  0.0569  0.6011
  873MOL0     H17788   3.959   7.329   1.199 -1.0605 -1.1258 -0.9821
  873MOL0     H17789   4.143   7.299   1.342 -1.0414 -0.0740  0.6436
  873MOL0     H17790   4.315   6.870   1.433 -0.7847 -0.2117 -1.2519
  873MOL0     H17791   4.363   6.919   1.276 -1.0233  0.7225 -0.2469
  873MOL0     H17792   4.499   7.028   1.522 -2.2283 -0.9737  0.7449
  873MOL0     H17793   4.537   7.074   1.359  0.7568  1.0464  0.4424
  873MOL0     H17794   4.554   6.808   1.323  2.0780  0.7101 -0.7883
  873MOL0     H17795   4.575   6.798   1.485  1.3898  0.0642  1.5681
  873MOL0     H17796   4.755   6.958   1.290  0.1715  3.2914  1.7149
  873MOL0     H17797   4.772   6.976   1.466  0.1562 -2.0895  1.4699
  873MOL0     H17798   4.805   6.724   1.477 -1.7526  2.5245  1.4721
  873MOL0     H17799   4.815   6.730   1.304 -2.2386  3.0153 -1.0715
  873MOL0     H17800   5.009   6.895   1.317 -0.5428  1.3512  1.7285
  873MOL0     H17801   4.997   6.917   1.488  3.5146  2.1235 -0.9603
  873MOL0     H17802   5.186   6.747   1.427 -0.5816 -2.0402  0.7444
  873MOL0     H17803   5.066   6.644   1.349 -0.0207 -1.4274 -0.0067
  873MOL0     H17804   5.065   6.726   1.638 -0.8227  0.6219 -1.1335
  873MOL0     H17805   4.972   6.593   1.564  1.2012 -1.2366  0.1445
  873MOL0     H17806   5.264   6.633   1.764 -1.2815 -1.4445  0.9116
  873MOL0     H17807   5.443   6.467   1.850  0.0423 -0.3811  1.1570
  873MOL0     H17808   5.463   6.311   1.778 -1.0829 -0.1823 -1.6894
  873MOL0     H17809   5.569   6.546   1.607 -0.1383  0.5994  0.5592
  873MOL0     H17810   5.653   6.527   1.767 -0.6298 -0.3651  1.0768
  873MOL0     H17811   5.614   6.320   1.549  0.2642 -1.1261  0.6458
  873MOL0     H17812   5.694   6.290   1.700  0.3427 -0.6194  0.1477
  873MOL0     H17813   5.783   6.510   1.509 -0.3646 -0.1186  1.7087
  873MOL0     H17814   5.863   6.349   1.525 -0.5371 -1.0919  1.7999
  873MOL0     H17815   5.976   6.572   1.908 -0.2017  0.3256  1.0015
  873MOL0     H17816   6.064   6.448   2.080  0.9445  0.9344 -0.5052
  873MOL0     H17817   6.429   6.138   2.221 -1.1038  2.5139 -0.1709
  873MOL0     H17818   6.497   5.973   2.412 -0.0233 -0.9167  0.2416
  873MOL0     H17819   6.319   5.999   2.797  0.8721 -1.9703  2.6088
  873MOL0     H17820   6.197   5.884   2.735  0.1078 -0.5102  0.9579
  873MOL0     H17821   6.324   5.792   2.904 -1.2186  0.5392 -1.7491
  873MOL0     H17822   6.374   5.698   2.766 -1.6092  0.1869 -0.3755
  873MOL0     H17823   6.584   5.870   2.781 -0.9512  0.5740  0.6803
  873MOL0     H17824   6.517   5.919   2.937  0.4399  0.3811  1.3669
  873MOL0     H17825   6.608   5.627   2.882  1.8739  1.0874 -0.9051
  873MOL0     H17826   6.540   5.688   3.025  2.7539 -1.2026  1.2569
  873MOL0     H17827   6.710   5.868   3.069  0.4748  1.3713 -1.4755
  873MOL0     H17828   6.787   5.829   2.931 -0.0165  0.0448  0.9047
  873MOL0     H17829   6.894   5.732   3.107 -0.0204 -0.2311  0.8150
  873MOL0     H17830   6.750   5.655   3.185 -2.6603  0.2507 -0.7226
  873MOL0     H17831   6.834   5.559   2.908  0.1273  0.8583  0.2961
  873MOL0     H17832   6.745   5.475   3.022 -0.8778  0.8199 -3.5306
  873MOL0     H17833   7.040   5.543   3.007 -0.6299  0.0808 -1.0045
  873MOL0     H17834   6.970   5.499   3.165 -0.8939 -1.7678  0.9232
  873MOL0     H17835   6.131   6.043   2.617  1.5168  0.6174  2.5769
  873MOL0     H17836   6.063   6.187   2.402 -0.3016 -0.2529  0.8022
  873MOL0     H17837   6.012   6.087   1.852  2.3856 -0.2557 -0.9025
  873MOL0     H17838   5.917   6.207   1.680 -1.6182 -1.1854  0.2327
  873MOL0     H17839   4.107   6.871   1.321  1.5499  1.1262  0.9088
  873MOL0     H17840   3.919   6.908   1.171  1.2526  1.2359 -1.2156
  873MOL0     H17841   3.682   7.094   0.910  1.0119  1.7820 -0.2379
  873MOL0     H17842   3.492   7.100   0.753 -1.2543 -2.8811 -0.3152
  873MOL0     H17843   3.072   7.225   0.818  1.3265 -0.0990  0.6263
  873MOL0     H17844   3.123   7.096   0.937  1.5354 -2.3841 -0.8379
  873MOL0     H17845   3.080   7.058   0.653  0.0727  0.6524  0.5956
  873MOL0     H17846   2.969   7.016   0.780 -0.1636  0.4771  2.7028
  873MOL0     H17847   3.082   6.836   0.848 -3.5083  2.6671 -0.8458
  873MOL0     H17848   3.244   6.884   0.782  0.1978 -1.8231 -1.9596
  873MOL0     H17849   3.017   6.750   0.636 -0.8033 -1.6826  0.5302
  873MOL0     H17850   3.146   6.862   0.556  0.3188  1.0074  0.7914
  873MOL0     H17851   3.378   6.521   0.643 -0.5127  0.5089  1.6814
  873MOL0     H17852   3.237   7.238   1.069  1.1630 -0.5370  1.5137
  873MOL0     H17853   3.476   7.380   1.276  0.0876 -0.3881  0.8225
  873MOL0     H17854   3.310   7.346   1.252  0.3293  2.0036 -2.9293
  873MOL0     H17855   3.422   7.218   1.323  1.3689  0.3584  0.6439
  874MOL0     O17856   7.002   9.622   4.531  0.3265 -0.7175  0.6143
  874MOL0     C17857   6.935   9.552   4.453 -0.2991 -0.7153  0.6918
  874MOL0     O17858   6.966   9.527   4.317  0.3657  0.4212 -0.1987
  874MOL0     C17859   7.065   9.607   4.271 -0.8680  0.1545 -0.1730
  874MOL0     C17860   7.062   9.749   4.265  0.8427 -0.0971 -0.7659
  874MOL0     C17861   7.165   9.829   4.217  1.1503  0.5670 -0.0698
  874MOL0     C17862   7.283   9.772   4.182 -0.2656  0.4181  0.0900
  874MOL0     O17863   7.402   9.835   4.147  0.3045 -0.2359  0.0045
  874MOL0     C17864   7.388   9.970   4.103 -0.4357 -1.2983 -0.2721
  874MOL0     C17865   7.521  10.041   4.101 -1.0577 -0.4919  0.1662
  874MOL0     C17866   7.507  10.190   4.090 -0.6368  0.0639  0.1762
  874MOL0     C17867   7.651  10.247   4.083 -0.3385 -0.2630  1.3066
  874MOL0     C17868   7.669  10.399   4.112  0.4739 -0.7398  0.2527
  874MOL0     C17869   7.803  10.452   4.157 -0.1289  1.2964 -0.2504
  874MOL0     C17870   7.805  10.605   4.197 -0.7043  0.4223  0.0317
  874MOL0     C17871   7.805  10.701   4.075 -0.1535  0.5162  0.2050
  874MOL0     N17872   7.832  10.845   4.105  0.0944 -0.2565 -0.1600
  874MOL0     C17873   7.944  10.901   4.166 -0.4756  0.0536  0.2139
  874MOL0     C17874   7.927  11.035   4.165  0.2854  0.5790  0.7598
  874MOL0     C17875   8.014  11.145   4.212 -0.1225 -0.1104 -0.0083
  874MOL0     C17876   8.030  11.151   4.365  0.5783  0.7310 -0.4078
  874MOL0     C17877   7.933  11.260   4.421 -0.3417  0.5333  0.0637
  874MOL0     C17878   7.795  11.199   4.431 -0.6128 -0.3311 -0.2397
  874MOL0     O17879   7.721  11.309   4.465  0.0800  0.3493  0.0321
  874MOL0     C17880   7.581  11.289   4.472  0.9628  0.0777  0.5285
  874MOL0     C17881   7.505  11.396   4.429  0.9949 -0.0516  1.1198
  874MOL0     C17882   7.365  11.394   4.432  0.3639 -0.1663  0.4059
  874MOL0     C17883   7.302  11.278   4.469 -1.0231 -0.1754 -0.0960
  874MOL0     C17884   7.161  11.267   4.472  0.1012  0.6579  0.3564
  874MOL0     O17885   7.088  11.377   4.422  0.9400  0.1465  0.8719
  874MOL0     C17886   6.944  11.361   4.406 -0.9788  0.3566 -0.5784
  874MOL0     C17887   6.853  11.373   4.513  0.4607  0.3808  0.2997
  874MOL0     C17888   6.713  11.365   4.490  0.4690 -0.3117  0.9806
  874MOL0     C17889   6.663  11.337   4.366 -0.7936  0.3639  0.1274
  874MOL0     O17890   6.525  11.351   4.347 -0.4793 -0.1257  0.2192
  874MOL0     C17891   6.446  11.238   4.401  0.2151  0.3032 -0.4211
  874MOL0     C17892   6.297  11.265   4.373 -0.1409  0.6492  0.2356
  874MOL0     C17893   6.269  11.304   4.231  0.9257 -0.6734  0.3264
  874MOL0     C17894   6.308  11.211   4.118 -0.8583 -0.4899  0.1168
  874MOL0     C17895   6.295  11.285   3.977 -1.0226 -0.2380  0.1544
  874MOL0     C17896   6.150  11.304   3.939  0.0289  0.3742 -0.3696
  874MOL0     C17897   6.127  11.360   3.798  1.0194 -0.1770  0.6594
  874MOL0     C17898   6.000  11.310   3.727 -0.5997 -0.4319 -0.8212
  874MOL0    Cl17899   6.025  11.145   3.671 -0.3527  0.4600  0.3283
  874MOL0     C17900   6.754  11.332   4.255  0.1477 -0.4695 -0.7521
  874MOL0     C17901   6.894  11.346   4.277  0.5731 -0.1979 -0.2237
  874MOL0     O17902   7.109  11.159   4.496  0.6453 -0.2280  0.2495
  874MOL0     C17903   7.370  11.169   4.512 -0.9525  0.3079 -0.2143
  874MOL0     C17904   7.511  11.176   4.511  0.4875 -0.1889 -0.1791
  874MOL0     N17905   7.801  11.056   4.099 -0.1875  0.2466  0.3806
  874MOL0     N17906   7.747  10.949   4.072 -0.0376  0.0644  0.5210
  874MOL0     C17907   7.293   9.634   4.199  0.1471 -0.2037  0.1435
  874MOL0     C17908   7.186   9.550   4.236 -0.5271 -0.5091 -0.3659
  874MOL0     C17909   6.811   9.496   4.512 -0.6050 -0.3999  0.2099
  874MOL0     C17910   6.792   9.505   4.653  0.7599 -0.7349  0.3342
  874MOL0     C17911   6.673   9.452   4.709 -1.4178 -0.5467 -0.6531
  874MOL0     C17912   6.576   9.394   4.631  0.4736  1.1325 -0.4417
  874MOL0     O17913   6.469   9.341   4.700 -0.6464 -0.0951  0.1764
  874MOL0     C17914   6.356   9.284   4.631  0.0752  0.6760 -0.2553
  874MOL0     C17915   6.237   9.255   4.728  0.0493 -0.1484  0.0022
  874MOL0     C17916   6.110   9.334   4.680  0.0163 -0.4886  0.4856
  874MOL0     C17917   6.034   9.267   4.571  0.0069 -0.0012  1.1214
  874MOL0     C17918   5.927   9.183   4.622 -0.3160  0.6470 -0.7441
  874MOL0     C17919   5.832   9.111   4.650 -0.0071  1.0157 -0.1844
  874MOL0     C17920   6.601   9.384   4.502  0.1928 -0.1625 -0.8028
  874MOL0     C17921   6.709   9.433   4.430  0.4200 -0.7217  0.0133
  874MOL0     C17922   6.706   9.416   4.272 -0.4405  0.4823 -0.0634
  874MOL0     H17923   6.970   9.798   4.296  0.5032 -1.3900  0.3768
  874MOL0     H17924   7.140   9.935   4.221 -0.0655  0.3746 -1.6243
  874MOL0     H17925   7.343   9.974   4.003 -1.8396 -3.2498  0.2231
  874MOL0     H17926   7.327  10.019   4.180  1.0958 -1.1666  0.9068
  874MOL0     H17927   7.587  10.003   4.022 -0.0929  0.3082  0.5650
  874MOL0     H17928   7.577  10.021   4.193 -0.1662  0.5162 -0.1398
  874MOL0     H17929   7.445  10.238   4.166 -0.0842  1.5254 -0.2555
  874MOL0     H17930   7.464  10.204   3.990  0.9587  3.1939 -0.1953
  874MOL0     H17931   7.719  10.191   4.149  0.9628  0.1510  0.3489
  874MOL0     H17932   7.692  10.238   3.982  0.6231 -3.1008  1.8497
  874MOL0     H17933   7.632  10.459   4.029 -0.4674 -0.2784  0.9937
  874MOL0     H17934   7.604  10.428   4.195  0.1279  1.3424 -0.6898
  874MOL0     H17935   7.825  10.390   4.244 -0.9808  1.7876  0.3258
  874MOL0     H17936   7.878  10.442   4.077  1.8285  4.6708  0.9306
  874MOL0     H17937   7.899  10.616   4.252  1.1491  1.3371 -3.0960
  874MOL0     H17938   7.731  10.622   4.276  0.6433  0.1134  1.4112
  874MOL0     H17939   7.865  10.673   3.988 -1.9235 -0.4743 -0.7441
  874MOL0     H17940   7.705  10.698   4.031  1.0141 -0.0248 -2.6438
  874MOL0     H17941   8.032  10.853   4.207 -0.2288  0.8857  0.6817
  874MOL0     H17942   8.116  11.127   4.176  0.4700  1.9080  0.5605
  874MOL0     H17943   7.974  11.238   4.171 -2.4969 -1.7100 -1.5559
  874MOL0     H17944   8.008  11.052   4.404  1.3442 -0.3005 -2.4347
  874MOL0     H17945   8.133  11.183   4.383  1.6548 -0.8884 -3.0877
  874MOL0     H17946   7.935  11.350   4.358 -4.0097  0.8626  0.2032
  874MOL0     H17947   7.979  11.284   4.518  0.3067  3.1394 -0.7985
  874MOL0     H17948   7.804  11.114   4.500  0.2800 -1.5781 -1.8165
  874MOL0     H17949   7.765  11.158   4.334 -0.5309 -2.6013  0.6307
  874MOL0     H17950   7.549  11.487   4.389  0.1842 -1.1369 -2.6047
  874MOL0     H17951   7.310  11.482   4.400  1.9157  0.4797 -0.5897
  874MOL0     H17952   6.891  11.396   4.612  1.0203  1.0004 -0.0468
  874MOL0     H17953   6.649  11.373   4.578 -0.5977  1.7517  0.0754
  874MOL0     H17954   6.481  11.150   4.347  1.3433 -0.5913  1.6857
  874MOL0     H17955   6.460  11.214   4.506 -0.8976 -0.7972 -0.5089
  874MOL0     H17956   6.252  11.166   4.382 -0.0740  0.6662  0.7868
  874MOL0     H17957   6.252  11.329   4.448  0.0257 -1.3984  2.1787
  874MOL0     H17958   6.161  11.309   4.211  1.3178  0.8203 -1.7834
  874MOL0     H17959   6.310  11.404   4.214 -1.4784  0.3602  0.1921
  874MOL0     H17960   6.268  11.109   4.121  0.0391 -0.8895 -0.9588
  874MOL0     H17961   6.417  11.200   4.123 -0.9034 -2.5883 -2.0852
  874MOL0     H17962   6.341  11.228   3.896 -2.8917 -0.5467 -0.7365
  874MOL0     H17963   6.345  11.382   3.985 -1.0777 -0.3091  1.6557
  874MOL0     H17964   6.095  11.209   3.945 -0.5291  0.7493  0.6905
  874MOL0     H17965   6.113  11.373   4.016  3.9940 -1.2347  3.4181
  874MOL0     H17966   6.211  11.345   3.729  0.2327  0.8381 -0.5632
  874MOL0     H17967   6.123  11.469   3.808 -3.7451 -0.2672  1.7910
  874MOL0     H17968   5.913  11.325   3.792 -0.7835  1.0673 -1.3874
  874MOL0     H17969   5.987  11.370   3.637  3.0618 -0.6292 -1.6531
  874MOL0     H17970   6.705  11.320   4.159  0.1467  2.2493 -1.1736
  874MOL0     H17971   6.945  11.351   4.181  0.1699  3.2565 -0.3817
  874MOL0     H17972   7.331  11.076   4.551 -0.3746 -0.2899 -1.0207
  874MOL0     H17973   7.580  11.102   4.550  1.0963  0.2824 -0.3271
  874MOL0     H17974   7.392   9.593   4.180  0.3595  0.6206 -0.6382
  874MOL0     H17975   7.194   9.442   4.227  0.4748 -0.8198  2.9358
  874MOL0     H17976   6.868   9.544   4.719 -2.0939  0.9439  2.9202
  874MOL0     H17977   6.660   9.449   4.816  1.1955  0.6976 -0.2345
  874MOL0     H17978   6.381   9.187   4.587  1.7045  1.8607 -2.0795
  874MOL0     H17979   6.329   9.352   4.549  1.9808  2.6472  0.6466
  874MOL0     H17980   6.259   9.298   4.826  2.3432  3.1199 -1.7822
  874MOL0     H17981   6.210   9.149   4.719  2.4570 -0.8118 -0.0401
  874MOL0     H17982   6.147   9.430   4.643  1.1631 -1.6374 -1.5296
  874MOL0     H17983   6.045   9.355   4.766 -2.4616  2.4398 -1.8475
  874MOL0     H17984   5.990   9.339   4.502 -1.9740 -0.9326  1.3462
  874MOL0     H17985   6.109   9.210   4.515  2.6941  2.6112  1.8307
  874MOL0     H17986   5.748   9.053   4.684  2.0198 -0.2103  3.1141
  874MOL0     H17987   6.527   9.332   4.442 -0.8398 -1.0095  1.1174
  874MOL0     H17988   6.765   9.326   4.254  0.1897  0.5867  1.3392
  874MOL0     H17989   6.611   9.401   4.219 -0.6259 -2.2957  0.8815
  874MOL0     H17990   6.763   9.498   4.229 -0.8907  2.1930  2.3720
  875MOL0     O17991   5.164   3.014   3.328 -0.7378 -0.3847 -0.0363
  875MOL0     C17992   5.096   3.084   3.397 -0.3192 -0.0366 -0.6260
  875MOL0     O17993   4.968   3.062   3.428 -0.4088  0.0044  0.3276
  875MOL0     C17994   4.896   2.947   3.379  0.3634 -0.4951 -0.3509
  875MOL0     C17995   4.908   2.881   3.260  0.2220 -0.0185  0.2345
  875MOL0     C17996   4.826   2.771   3.241 -0.0231  0.1818  0.0714
  875MOL0     C17997   4.742   2.721   3.341 -0.1221 -0.4855 -0.4998
  875MOL0     O17998   4.662   2.606   3.349  0.0139 -0.0667 -0.1915
  875MOL0     C17999   4.671   2.510   3.247 -0.2594 -1.1745 -0.2276
  875MOL0     C18000   4.588   2.394   3.288  0.0292 -0.3410 -0.0157
  875MOL0     C18001   4.442   2.425   3.316  0.2835 -0.0586 -0.3309
  875MOL0     C18002   4.353   2.312   3.355  1.1255  0.2423  0.3611
  875MOL0     C18003   4.204   2.330   3.306  0.2622  0.1453  0.5335
  875MOL0     C18004   4.105   2.212   3.300 -1.2636 -0.5752  0.7650
  875MOL0     C18005   3.969   2.254   3.254  0.9755  0.4443 -0.4132
  875MOL0     C18006   3.890   2.144   3.183 -0.1233  0.0744  0.3958
  875MOL0     N18007   3.916   2.010   3.241  0.1171  0.7391  0.3486
  875MOL0     C18008   3.913   1.973   3.372  0.3940  0.4539  0.5301
  875MOL0     C18009   3.959   1.842   3.374  0.1447 -0.5969  0.1713
  875MOL0     C18010   3.977   1.758   3.494  0.1135  0.4169 -0.6526
  875MOL0     C18011   4.105   1.805   3.570  0.4613  0.3093  0.6821
  875MOL0     C18012   4.227   1.837   3.481 -0.3560  0.7116 -0.7183
  875MOL0     C18013   4.338   1.856   3.575  0.2684  0.5768 -0.2038
  875MOL0     O18014   4.369   1.735   3.643  0.1422  0.5164 -0.8993
  875MOL0     C18015   4.479   1.752   3.720 -0.0857  0.2255  0.3258
  875MOL0     C18016   4.598   1.712   3.658 -0.8824 -0.3592  0.8375
  875MOL0     C18017   4.712   1.706   3.734  0.7140  0.8636  1.0771
  875MOL0     C18018   4.708   1.749   3.868 -0.0100 -0.2042 -0.0241
  875MOL0     C18019   4.840   1.753   3.935  1.1772  0.2839 -0.6979
  875MOL0     O18020   4.832   1.798   4.060 -0.4257 -0.7229 -0.5923
  875MOL0     C18021   4.942   1.796   4.140 -0.5356 -0.5577  0.6696
  875MOL0     C18022   4.994   1.926   4.186  0.3755 -0.4405 -0.3978
  875MOL0     C18023   5.109   1.931   4.263  0.5179 -0.5201 -0.2101
  875MOL0     C18024   5.178   1.814   4.299  0.2628  0.7467  0.0079
  875MOL0     O18025   5.289   1.803   4.391  0.0015 -0.2218 -0.2872
  875MOL0     C18026   5.392   1.902   4.374  0.0261 -0.3050 -0.1471
  875MOL0     C18027   5.533   1.846   4.399  0.0379 -0.0534 -0.0466
  875MOL0     C18028   5.612   1.953   4.460  1.0245 -0.4821  1.0369
  875MOL0     C18029   5.767   1.928   4.485  1.0934  1.2778 -0.4616
  875MOL0     C18030   5.852   2.030   4.541  0.3030  0.5976  0.6540
  875MOL0     C18031   5.999   1.986   4.543 -0.3795 -0.0157  0.4363
  875MOL0     C18032   6.095   2.069   4.637  0.3364 -0.0133  0.2511
  875MOL0     C18033   6.233   1.999   4.629  0.1256 -0.4481 -1.0793
  875MOL0    Cl18034   6.359   2.048   4.745  0.1480  0.3991 -0.2041
  875MOL0     C18035   5.122   1.692   4.257 -0.1069  0.2516 -0.1135
  875MOL0     C18036   5.000   1.678   4.184 -0.3725 -0.7726  0.0374
  875MOL0     O18037   4.933   1.704   3.878 -0.9295  0.1725  0.0205
  875MOL0     C18038   4.586   1.791   3.930  0.5955 -0.5327  0.6645
  875MOL0     C18039   4.469   1.779   3.853  0.6380  0.6068  0.7447
  875MOL0     N18040   3.982   1.810   3.243  0.3096  0.2577  0.2885
  875MOL0     N18041   3.946   1.908   3.160  0.5255  0.1511 -0.0708
  875MOL0     C18042   4.722   2.806   3.451  0.3003  0.0386  0.1799
  875MOL0     C18043   4.799   2.915   3.469 -0.4496 -0.4396  0.0797
  875MOL0     C18044   5.158   3.212   3.443  0.5197  0.6201  1.0148
  875MOL0     C18045   5.288   3.237   3.404 -0.2386 -0.2148 -0.5802
  875MOL0     C18046   5.355   3.352   3.428 -0.1788  0.5196  0.2006
  875MOL0     C18047   5.299   3.443   3.513  0.1678 -0.2291  0.3371
  875MOL0     O18048   5.353   3.557   3.559 -0.5400 -0.6437 -0.1862
  875MOL0     C18049   5.493   3.570   3.550  0.6237 -0.1206  0.1411
  875MOL0     C18050   5.531   3.715   3.564 -0.2306 -0.2751 -0.1601
  875MOL0     C18051   5.502   3.770   3.703  0.0797  0.2066  0.0194
  875MOL0     C18052   5.609   3.719   3.800  0.0306 -0.2699  0.8221
  875MOL0     C18053   5.615   3.824   3.903  0.6477 -0.0387 -0.5661
  875MOL0     C18054   5.619   3.910   3.994 -0.2699  0.2396  0.1734
  875MOL0     C18055   5.163   3.417   3.565 -0.2140  0.4002 -0.9147
  875MOL0     C18056   5.092   3.308   3.530  0.2646  0.4611 -0.3185
  875MOL0     C18057   4.952   3.303   3.580 -0.0358 -0.4401  0.5607
  875MOL0     H18058   4.975   2.910   3.180 -0.6159  0.4237 -0.3330
  875MOL0     H18059   4.828   2.719   3.146 -0.7451  0.6507 -0.2091
  875MOL0     H18060   4.629   2.546   3.153 -1.3433  1.7563  1.2804
  875MOL0     H18061   4.778   2.487   3.243  0.6825  2.5644  0.0574
  875MOL0     H18062   4.635   2.340   3.370  1.8910 -2.3029 -2.2028
  875MOL0     H18063   4.596   2.333   3.197 -1.5339 -0.2509 -0.2501
  875MOL0     H18064   4.411   2.472   3.223 -0.0761 -2.2939 -1.3970
  875MOL0     H18065   4.419   2.504   3.388 -0.6418 -3.1230  3.0565
  875MOL0     H18066   4.390   2.215   3.319  0.9417  0.0760  0.6167
  875MOL0     H18067   4.333   2.297   3.462 -1.5209 -0.8533 -0.2097
  875MOL0     H18068   4.150   2.415   3.348 -0.4649 -0.2650  0.4449
  875MOL0     H18069   4.211   2.360   3.201  0.8431 -2.5306 -0.2649
  875MOL0     H18070   4.153   2.146   3.228 -2.1722 -0.1029 -0.3023
  875MOL0     H18071   4.097   2.155   3.394  1.5473  2.8629  3.3518
  875MOL0     H18072   3.982   2.338   3.185  0.6628  0.8972  0.0765
  875MOL0     H18073   3.917   2.292   3.342  3.0557  0.4578  0.8965
  875MOL0     H18074   3.782   2.162   3.182 -0.2859 -0.2358 -3.4248
  875MOL0     H18075   3.923   2.141   3.079 -1.2242  2.6822 -0.1180
  875MOL0     H18076   3.895   2.028   3.464 -2.5086  0.4259  0.0463
  875MOL0     H18077   3.889   1.755   3.559  0.7506  1.1624  0.2784
  875MOL0     H18078   3.993   1.656   3.460 -0.0877  0.4399 -0.8143
  875MOL0     H18079   4.088   1.897   3.627  1.8115 -0.7637  2.9753
  875MOL0     H18080   4.132   1.732   3.647 -0.4543 -0.8105 -0.0240
  875MOL0     H18081   4.199   1.926   3.424 -2.3586  1.0972  0.7445
  875MOL0     H18082   4.244   1.756   3.410 -3.2105 -0.3539 -0.3479
  875MOL0     H18083   4.325   1.936   3.649  4.1294  2.5233 -1.3276
  875MOL0     H18084   4.424   1.890   3.517  0.5762  1.5035  0.7544
  875MOL0     H18085   4.594   1.667   3.559 -2.6660  0.2926  0.5841
  875MOL0     H18086   4.801   1.674   3.681 -1.1283 -1.0649 -1.0981
  875MOL0     H18087   4.936   2.015   4.165  1.9620  0.4252 -1.3343
  875MOL0     H18088   5.156   2.021   4.301 -0.1698 -0.1305 -0.2633
  875MOL0     H18089   5.389   1.956   4.279  3.0377 -0.2317 -0.3142
  875MOL0     H18090   5.378   1.970   4.458  0.2697 -1.9804  1.3077
  875MOL0     H18091   5.526   1.765   4.472  1.0507 -1.4222 -1.4193
  875MOL0     H18092   5.580   1.807   4.308  0.0063  0.3753 -0.2529
  875MOL0     H18093   5.618   2.034   4.386  2.4104 -1.4620  0.0096
  875MOL0     H18094   5.564   1.988   4.551  0.3011 -0.0841  0.5130
  875MOL0     H18095   5.814   1.902   4.390  0.9475  0.9769 -0.4527
  875MOL0     H18096   5.767   1.840   4.549 -1.8305 -0.1754 -2.2779
  875MOL0     H18097   5.822   2.046   4.645 -2.1426 -0.2748  0.1478
  875MOL0     H18098   5.847   2.127   4.491 -1.1458  0.8340  1.2215
  875MOL0     H18099   5.990   1.880   4.567 -4.9730 -0.6219 -2.6688
  875MOL0     H18100   6.036   1.993   4.440  0.8532 -0.1462  0.8516
  875MOL0     H18101   6.057   2.070   4.740 -0.7685  0.6286 -0.1375
  875MOL0     H18102   6.098   2.174   4.605 -3.1826  0.5542  1.3202
  875MOL0     H18103   6.233   1.894   4.658  1.4798  0.4070  2.5930
  875MOL0     H18104   6.266   2.025   4.528  0.6540 -0.5270 -0.9266
  875MOL0     H18105   5.170   1.601   4.291  0.6992  0.8182  0.3108
  875MOL0     H18106   4.953   1.582   4.165  1.1362 -1.5588  0.2055
  875MOL0     H18107   4.573   1.828   4.031 -2.3440 -0.2856  0.3007
  875MOL0     H18108   4.374   1.785   3.904  0.4397 -1.4364  0.6733
  875MOL0     H18109   4.650   2.780   3.529 -0.7276  1.0944 -0.3876
  875MOL0     H18110   4.764   2.975   3.552  0.3826 -1.8502  1.4863
  875MOL0     H18111   5.339   3.164   3.343 -3.5207 -1.8746 -1.5810
  875MOL0     H18112   5.453   3.357   3.382 -0.7636 -0.1376 -1.1903
  875MOL0     H18113   5.521   3.538   3.449 -1.8535 -0.6096 -0.4591
  875MOL0     H18114   5.551   3.502   3.614  1.7213 -0.9101 -1.6069
  875MOL0     H18115   5.492   3.777   3.482 -1.1940  1.6282  1.6319
  875MOL0     H18116   5.639   3.722   3.546 -0.3273  1.2561 -0.2878
  875MOL0     H18117   5.403   3.748   3.743 -0.3363  1.2080 -0.4267
  875MOL0     H18118   5.500   3.878   3.686 -2.5552 -0.1890 -3.1325
  875MOL0     H18119   5.586   3.627   3.854  2.2850 -0.7003  1.1387
  875MOL0     H18120   5.706   3.694   3.757  1.4483  1.8693  2.5131
  875MOL0     H18121   5.624   3.977   4.077 -1.0301  0.6741 -0.1205
  875MOL0     H18122   5.123   3.497   3.628  4.1786  1.0533  1.4063
  875MOL0     H18123   4.891   3.260   3.500  0.1005  0.8972 -0.3036
  875MOL0     H18124   4.937   3.255   3.677 -2.0601 -1.4534 -0.1943
  875MOL0     H18125   4.917   3.407   3.583  1.3089  0.2590 -3.0139
  876MOL0     O18126   8.453   9.956   0.291 -0.4421  0.0146 -0.3961
  876MOL0     C18127   8.546   9.919   0.366 -0.7510  0.6305 -0.4679
  876MOL0     O18128   8.532   9.880   0.496 -0.6266 -0.4553  0.4886
  876MOL0     C18129   8.415   9.907   0.564  0.3331 -0.1286  0.5227
  876MOL0     C18130   8.426   9.948   0.699  0.1916  0.8962 -0.1122
  876MOL0     C18131   8.312   9.953   0.776 -0.0192 -0.4472 -0.2416
  876MOL0     C18132   8.182   9.923   0.725 -0.7538 -0.3072 -0.3466
  876MOL0     O18133   8.081   9.948   0.814 -0.4185 -0.3730 -0.3819
  876MOL0     C18134   7.945   9.918   0.789 -0.1357  0.1665  0.2529
  876MOL0     C18135   7.870   9.951   0.918  0.2489 -0.6763  0.1371
  876MOL0     C18136   7.875  10.096   0.968  0.3058  0.1705 -0.2450
  876MOL0     C18137   7.735  10.158   0.935  0.6037  0.0892  0.5208
  876MOL0     C18138   7.729  10.317   0.964 -0.0967  0.5585 -0.1780
  876MOL0     C18139   7.606  10.381   0.907 -0.5357  0.0717 -0.0440
  876MOL0     C18140   7.597  10.528   0.944 -0.4852 -0.0486 -0.5992
  876MOL0     C18141   7.472  10.580   0.872 -0.1082 -0.0128  0.1403
  876MOL0     N18142   7.441  10.721   0.914  0.1411  0.2399 -0.4928
  876MOL0     C18143   7.499  10.835   0.859  0.4181  0.0586  0.5782
  876MOL0     C18144   7.463  10.933   0.941  0.1192  0.1688  0.0377
  876MOL0     C18145   7.514  11.064   0.939 -0.8050 -0.0582 -0.3673
  876MOL0     C18146   7.448  11.150   0.833  0.5271  0.4637 -0.2503
  876MOL0     C18147   7.306  11.211   0.877  0.9984  0.0975  0.6982
  876MOL0     C18148   7.327  11.295   1.009 -0.0184  0.6108 -0.0822
  876MOL0     O18149   7.204  11.374   1.027 -0.2530 -1.1427  0.1514
  876MOL0     C18150   7.092  11.316   1.082 -0.5532 -0.3025 -0.0580
  876MOL0     C18151   6.984  11.402   1.077  0.3650  0.8477 -0.0510
  876MOL0     C18152   6.862  11.359   1.113 -0.0160 -1.1442 -0.2829
  876MOL0     C18153   6.836  11.232   1.160  0.5060  0.2161 -0.9743
  876MOL0     C18154   6.699  11.187   1.179 -0.2888  0.3701  0.6346
  876MOL0     O18155   6.680  11.062   1.226 -0.2116  0.3588 -0.2673
  876MOL0     C18156   6.571  10.990   1.198 -0.4470 -0.2018  0.1484
  876MOL0     C18157   6.566  10.856   1.244  0.0994 -0.0091 -0.3918
  876MOL0     C18158   6.455  10.774   1.225 -1.3226 -0.0345  1.0811
  876MOL0     C18159   6.339  10.817   1.153 -0.7914 -0.5257  0.3970
  876MOL0     O18160   6.239  10.738   1.117  0.0276 -0.1671 -0.2094
  876MOL0     C18161   6.178  10.662   1.221 -0.0282  0.5386  0.6539
  876MOL0     C18162   6.042  10.602   1.168  0.2710 -0.3980 -0.2848
  876MOL0     C18163   6.062  10.517   1.036 -0.6530  0.1303  0.0421
  876MOL0     C18164   5.967  10.392   1.024 -1.2905  0.5655 -0.3825
  876MOL0     C18165   5.978  10.310   0.901  0.2125 -0.7943  0.1804
  876MOL0     C18166   5.900  10.183   0.896  0.0926  0.2725  0.5918
  876MOL0     C18167   5.921  10.109   0.766 -0.6253 -0.0943  0.2957
  876MOL0     C18168   5.863   9.962   0.768  0.0339  0.6873  0.0299
  876MOL0    Cl18169   5.947   9.841   0.885 -0.2992 -0.3519 -0.3203
  876MOL0     C18170   6.348  10.952   1.100 -0.0633  0.2620 -0.0065
  876MOL0     C18171   6.465  11.033   1.123 -0.0055  0.0807 -0.2999
  876MOL0     O18172   6.617  11.273   1.150 -0.4617  0.1523  0.0963
  876MOL0     C18173   6.944  11.144   1.166  0.6561  0.2226 -0.6442
  876MOL0     C18174   7.071  11.189   1.137 -1.2764 -0.4614  0.3940
  876MOL0     N18175   7.382  10.880   1.043 -0.0330 -0.3167  0.3741
  876MOL0     N18176   7.382  10.752   1.033 -0.1617 -0.7376  0.1527
  876MOL0     C18177   8.173   9.887   0.589 -0.2864  0.3187 -0.7442
  876MOL0     C18178   8.288   9.875   0.513 -0.1446 -0.5173  0.5842
  876MOL0     C18179   8.670   9.871   0.297 -0.4056 -1.4482 -0.5683
  876MOL0     C18180   8.670   9.881   0.155 -0.1201 -1.5822  0.1635
  876MOL0     C18181   8.773   9.818   0.082  0.0059 -0.0671  0.7316
  876MOL0     C18182   8.870   9.739   0.137  0.3054  1.4077 -0.0535
  876MOL0     O18183   8.952   9.660   0.058  0.1563 -0.4221 -0.4561
  876MOL0     C18184   9.083   9.709   0.046 -0.4537 -0.2436 -0.1393
  876MOL0     C18185   9.146   9.679  -0.095 -1.3550 -0.4038 -0.1405
  876MOL0     C18186   9.138   9.538  -0.143 -0.8629  0.0777  1.0114
  876MOL0     C18187   9.226   9.520  -0.274 -0.1560 -0.5353 -0.6323
  876MOL0     C18188   9.196   9.611  -0.390  0.0134  0.6992  0.5842
  876MOL0     C18189   9.188   9.680  -0.499  0.0387  0.7142 -0.0746
  876MOL0     C18190   8.886   9.753   0.277 -0.0432 -0.1968 -0.6320
  876MOL0     C18191   8.786   9.819   0.357  0.5936 -0.4796 -0.1379
  876MOL0     C18192   8.812   9.818   0.505  0.1451 -0.3402 -0.3618
  876MOL0     H18193   8.509   9.990   0.754 -1.2237  2.3822  0.9659
  876MOL0     H18194   8.315   9.998   0.875  0.0777  1.6597 -1.1495
  876MOL0     H18195   7.906   9.964   0.698 -1.0974 -0.2177  0.4592
  876MOL0     H18196   7.936   9.810   0.775  1.1513  0.3020 -2.1899
  876MOL0     H18197   7.918   9.890   0.996  0.8006 -0.6658 -0.1908
  876MOL0     H18198   7.770   9.910   0.904 -0.4544  0.5180  1.4906
  876MOL0     H18199   7.952  10.160   0.922  1.7399  0.8544  2.8480
  876MOL0     H18200   7.888  10.092   1.076  2.0484 -4.4210 -0.4140
  876MOL0     H18201   7.720  10.145   0.828  1.6759 -2.7671  0.6364
  876MOL0     H18202   7.654  10.098   0.977  1.5864 -2.5055 -1.0772
  876MOL0     H18203   7.727  10.324   1.073  3.2167  1.3243 -0.0774
  876MOL0     H18204   7.820  10.364   0.926  0.8211  1.3613  2.8075
  876MOL0     H18205   7.610  10.369   0.798  2.0256  0.8543 -0.0933
  876MOL0     H18206   7.530  10.320   0.957 -0.7525  1.4855  1.4377
  876MOL0     H18207   7.685  10.578   0.903  0.9348  0.7724  3.0391
  876MOL0     H18208   7.590  10.555   1.050 -0.5282  0.7415 -0.8040
  876MOL0     H18209   7.488  10.567   0.765 -1.7474 -0.4989 -0.0645
  876MOL0     H18210   7.381  10.522   0.891 -1.1539  1.9362  1.4864
  876MOL0     H18211   7.565  10.838   0.773 -3.2827  0.8613 -2.4920
  876MOL0     H18212   7.518  11.112   1.037 -0.8337  0.0304 -0.4101
  876MOL0     H18213   7.618  11.052   0.910 -0.2418  3.7847 -0.4771
  876MOL0     H18214   7.527  11.219   0.803  1.3572 -0.3787 -0.0260
  876MOL0     H18215   7.436  11.086   0.744 -5.9380 -0.6770  0.8925
  876MOL0     H18216   7.232  11.133   0.899 -2.2183  2.4195 -1.0272
  876MOL0     H18217   7.270  11.281   0.801 -2.6962 -1.4331  0.8347
  876MOL0     H18218   7.422  11.349   1.008  1.0923 -1.2533 -1.2467
  876MOL0     H18219   7.344  11.223   1.089  0.8735 -0.8798 -1.5523
  876MOL0     H18220   6.993  11.505   1.042  1.3023  0.7839 -0.0350
  876MOL0     H18221   6.781  11.427   1.090 -0.6320 -1.4250  0.9722
  876MOL0     H18222   6.652  10.826   1.302  0.5527  1.5860 -0.1848
  876MOL0     H18223   6.459  10.669   1.251 -0.1013 -0.2491  0.1454
  876MOL0     H18224   6.244  10.587   1.266 -0.4888 -0.7524 -0.7260
  876MOL0     H18225   6.136  10.732   1.294 -3.7752  1.9594 -2.5004
  876MOL0     H18226   5.989  10.540   1.240 -1.3145 -1.3465 -2.1837
  876MOL0     H18227   5.975  10.688   1.156  1.1626  1.2389  4.1827
  876MOL0     H18228   6.046  10.574   0.944 -0.8253  0.3223  0.1900
  876MOL0     H18229   6.164  10.479   1.027 -1.1734 -1.7189  1.2610
  876MOL0     H18230   5.865  10.428   1.041 -1.5652 -0.4948  0.3007
  876MOL0     H18231   5.992  10.327   1.108  0.2764  1.2734 -0.2588
  876MOL0     H18232   6.076  10.261   0.901 -0.8833 -3.1282 -0.0566
  876MOL0     H18233   5.956  10.373   0.815 -0.1913  1.1654  1.6475
  876MOL0     H18234   5.946  10.121   0.974  2.8578  1.7871  0.2958
  876MOL0     H18235   5.793  10.203   0.908 -0.2065 -0.9286  0.0991
  876MOL0     H18236   6.028  10.101   0.746 -0.7857 -2.0366 -0.0285
  876MOL0     H18237   5.874  10.172   0.691  2.6439  0.7640 -1.2156
  876MOL0     H18238   5.762   9.975   0.809 -0.4418  0.5144 -1.0413
  876MOL0     H18239   5.871   9.911   0.671  3.2976  0.0777  0.5106
  876MOL0     H18240   6.271  10.999   1.040  0.9573  3.6437  1.0930
  876MOL0     H18241   6.448  11.133   1.083  0.4739  0.3077  0.0507
  876MOL0     H18242   6.932  11.042   1.201  2.0350 -0.9133 -3.1984
  876MOL0     H18243   7.153  11.125   1.168  0.3715 -0.1920 -2.9713
  876MOL0     H18244   8.076   9.857   0.551  0.5927 -2.9792 -0.6960
  876MOL0     H18245   8.288   9.839   0.411  3.0884  0.2108  0.2325
  876MOL0     H18246   8.595   9.943   0.107 -1.7451  0.7266  5.0771
  876MOL0     H18247   8.761   9.830  -0.025 -2.1669  3.4194  1.2024
  876MOL0     H18248   9.146   9.659   0.119 -1.2486  0.9272  1.3974
  876MOL0     H18249   9.084   9.818   0.055  1.3334 -0.3585  1.5213
  876MOL0     H18250   9.249   9.697  -0.064 -2.3284 -0.0660  3.4730
  876MOL0     H18251   9.106   9.751  -0.167 -1.4347  0.7671  1.0233
  876MOL0     H18252   9.037   9.517  -0.179 -1.0732  2.3436  0.1010
  876MOL0     H18253   9.161   9.464  -0.067 -0.4441 -0.6262  0.2154
  876MOL0     H18254   9.331   9.538  -0.249  0.2394 -0.1464 -2.4187
  876MOL0     H18255   9.201   9.418  -0.304 -4.5594 -0.4160  1.8034
  876MOL0     H18256   9.193   9.727  -0.595  0.0491 -0.4608 -0.6664
  876MOL0     H18257   8.973   9.703   0.319  0.9376  1.0467 -1.1342
  876MOL0     H18258   8.921   9.811   0.518  0.1554  2.1707  1.9085
  876MOL0     H18259   8.784   9.908   0.560  1.6291  1.5787 -2.5352
  876MOL0     H18260   8.758   9.738   0.556  1.4675 -0.5459  0.7890
  877MOL0     O18261   3.588   1.328   4.945  0.0673  0.3465  0.0918
  877MOL0     C18262   3.553   1.312   5.062 -0.4251  0.1617 -1.2514
  877MOL0     O18263   3.430   1.319   5.105  0.1599 -0.3746 -0.0532
  877MOL0     C18264   3.329   1.353   5.021  0.3611 -0.2076  0.7428
  877MOL0     C18265   3.335   1.477   4.964  0.6430 -0.0392  0.7379
  877MOL0     C18266   3.227   1.524   4.891  0.3686  0.2397  0.1908
  877MOL0     C18267   3.105   1.449   4.881 -0.9511  0.0371  0.6601
  877MOL0     O18268   3.000   1.510   4.812 -0.0390 -0.2923 -0.9955
  877MOL0     C18269   2.883   1.427   4.793 -0.3640 -0.3819  0.7739
  877MOL0     C18270   2.781   1.504   4.704  0.5992  0.9820  0.3811
  877MOL0     C18271   2.653   1.413   4.688 -0.9427 -0.5976 -0.1239
  877MOL0     C18272   2.561   1.413   4.814  0.7991  0.6510  0.4406
  877MOL0     C18273   2.455   1.300   4.809 -1.0167 -0.4800  0.1451
  877MOL0     C18274   2.504   1.185   4.888  0.4452 -0.0572  0.2107
  877MOL0     C18275   2.442   1.052   4.859 -0.0307 -0.7363  0.2461
  877MOL0     C18276   2.504   0.941   4.943 -0.0336 -0.7545 -0.0886
  877MOL0     N18277   2.642   0.916   4.900  0.2768 -0.4035 -0.3319
  877MOL0     C18278   2.684   0.832   4.802 -0.1060  0.2884  0.5601
  877MOL0     C18279   2.823   0.846   4.788 -0.2346 -0.1992  0.5399
  877MOL0     C18280   2.908   0.766   4.699 -0.2573 -0.3596  0.9283
  877MOL0     C18281   2.943   0.640   4.765 -0.2639  1.1521 -0.5191
  877MOL0     C18282   3.020   0.543   4.678  0.0381  0.1988  0.7140
  877MOL0     C18283   3.169   0.567   4.701  0.3371  0.1747  0.7523
  877MOL0     O18284   3.228   0.464   4.629 -0.2630 -0.1211  0.9983
  877MOL0     C18285   3.358   0.438   4.656  0.7431  0.3867 -0.0890
  877MOL0     C18286   3.415   0.325   4.598  0.1429  0.1837  0.1490
  877MOL0     C18287   3.545   0.288   4.632  0.3201  0.2397 -0.1261
  877MOL0     C18288   3.632   0.375   4.700  0.7081 -0.1525  0.6177
  877MOL0     C18289   3.770   0.338   4.722 -0.9521 -0.3045 -0.3058
  877MOL0     O18290   3.809   0.207   4.722  0.1380  1.0259  0.1654
  877MOL0     C18291   3.935   0.160   4.726  0.3343 -0.4196 -0.2195
  877MOL0     C18292   3.951   0.020   4.750  0.9556 -0.9623  0.6609
  877MOL0     C18293   4.082  -0.027   4.767 -0.1027  0.7821 -0.6834
  877MOL0     C18294   4.193   0.063   4.758 -0.6877  0.1172  0.0476
  877MOL0     O18295   4.321   0.021   4.791  0.2061  0.2024  0.3593
  877MOL0     C18296   4.338  -0.099   4.867  0.4727  0.3257  0.0076
  877MOL0     C18297   4.483  -0.115   4.922 -0.3050 -0.5770 -1.0738
  877MOL0     C18298   4.529   0.030   4.999  0.9834  0.2184  0.1564
  877MOL0     C18299   4.659  -0.007   5.065  0.1924 -0.6508  0.0515
  877MOL0     C18300   4.726   0.115   5.133  0.3582 -0.5331  0.2757
  877MOL0     C18301   4.850   0.088   5.213  0.8794  0.1815 -0.5932
  877MOL0     C18302   4.917   0.219   5.251  0.5890  0.1394  0.2920
  877MOL0     C18303   5.007   0.196   5.372 -0.2038 -0.5949 -0.4058
  877MOL0    Cl18304   5.104   0.346   5.389 -0.4170  0.1634  0.3036
  877MOL0     C18305   4.177   0.198   4.737 -0.2485 -0.6950  0.7331
  877MOL0     C18306   4.048   0.244   4.721  0.4056  0.2057 -0.2064
  877MOL0     O18307   3.845   0.432   4.758  0.1200  0.1382  0.2067
  877MOL0     C18308   3.580   0.497   4.754 -0.1311  0.6905  0.4855
  877MOL0     C18309   3.446   0.519   4.738  0.7843  0.2692 -0.1777
  877MOL0     N18310   2.859   0.959   4.866  0.2112 -0.2338 -1.0310
  877MOL0     N18311   2.751   0.994   4.937 -0.1624  0.2071 -0.1145
  877MOL0     C18312   3.100   1.329   4.951  1.3428  0.7502 -0.5753
  877MOL0     C18313   3.217   1.283   5.008  0.3263 -0.6658 -0.0361
  877MOL0     C18314   3.648   1.260   5.162 -0.3289 -0.2825  0.7084
  877MOL0     C18315   3.746   1.164   5.132 -0.3538  1.0207  0.0102
  877MOL0     C18316   3.838   1.115   5.226  0.2834 -0.5411 -0.3411
  877MOL0     C18317   3.829   1.155   5.360 -0.2223 -0.5081  1.1502
  877MOL0     O18318   3.924   1.097   5.439  0.2589 -0.3289  0.0836
  877MOL0     C18319   3.911   1.078   5.580  0.4028  0.7904 -0.5981
  877MOL0     C18320   4.010   1.171   5.655  0.3350 -0.1141  0.2140
  877MOL0     C18321   4.161   1.132   5.616  0.3718 -1.2279  0.7464
  877MOL0     C18322   4.266   1.216   5.683 -0.3540 -0.6023  0.5604
  877MOL0     C18323   4.267   1.198   5.830 -0.0123 -0.1302  0.1133
  877MOL0     C18324   4.261   1.195   5.953  0.0078  0.7129  0.4023
  877MOL0     C18325   3.719   1.226   5.401  0.2374 -0.3268  0.2729
  877MOL0     C18326   3.629   1.286   5.306  0.1304  1.0062  0.4192
  877MOL0     C18327   3.527   1.377   5.368  0.1852 -0.7459  0.3331
  877MOL0     H18328   3.418   1.546   4.977  0.9836  0.4692 -3.0754
  877MOL0     H18329   3.238   1.622   4.844  3.1604 -0.9036 -1.8176
  877MOL0     H18330   2.919   1.338   4.740  1.7907  0.1494  1.2564
  877MOL0     H18331   2.829   1.401   4.885  0.4663  1.4343  1.8107
  877MOL0     H18332   2.838   1.528   4.613  3.1506  1.6830  2.0385
  877MOL0     H18333   2.748   1.598   4.750 -3.6549 -0.3391  0.4546
  877MOL0     H18334   2.691   1.313   4.664  1.5038  0.3413 -0.4858
  877MOL0     H18335   2.591   1.451   4.607 -0.2137  1.7013  0.3343
  877MOL0     H18336   2.624   1.403   4.903  3.5762 -2.0968 -1.6092
  877MOL0     H18337   2.509   1.509   4.814 -0.3116  0.1188 -2.0255
  877MOL0     H18338   2.359   1.333   4.849 -2.5950 -0.6603 -3.1643
  877MOL0     H18339   2.445   1.282   4.702 -1.3114 -1.3604  0.3148
  877MOL0     H18340   2.609   1.179   4.857  0.4425  2.2339 -0.3811
  877MOL0     H18341   2.499   1.205   4.995 -2.0618  1.1498 -0.0791
  877MOL0     H18342   2.453   1.026   4.754 -4.4082 -0.9495 -0.3357
  877MOL0     H18343   2.337   1.048   4.888 -0.8348  5.2344 -0.6750
  877MOL0     H18344   2.500   0.977   5.046 -2.7086  4.8477 -1.7335
  877MOL0     H18345   2.444   0.851   4.928  1.1495 -1.1169 -3.4586
  877MOL0     H18346   2.611   0.767   4.755 -1.5774  1.7895  0.7057
  877MOL0     H18347   2.860   0.746   4.602  0.8890 -1.0057  0.4817
  877MOL0     H18348   2.996   0.830   4.684 -0.5961 -0.0206  0.3053
  877MOL0     H18349   2.999   0.655   4.858  0.5555  1.6015 -1.0732
  877MOL0     H18350   2.850   0.587   4.787 -0.0714  0.7903 -0.5770
  877MOL0     H18351   2.999   0.547   4.571  0.8678  1.1077  0.5738
  877MOL0     H18352   3.006   0.441   4.715  3.7306 -2.1319 -3.3713
  877MOL0     H18353   3.195   0.559   4.806  0.8490  1.2672  0.7219
  877MOL0     H18354   3.191   0.670   4.670 -2.1921  1.5026  2.9655
  877MOL0     H18355   3.348   0.262   4.540  1.7052 -0.0112 -1.5376
  877MOL0     H18356   3.595   0.194   4.614  1.1605  0.8072 -0.8571
  877MOL0     H18357   3.857  -0.034   4.747  1.6544 -2.1816 -2.0404
  877MOL0     H18358   4.087  -0.132   4.793 -2.2142 -0.0414 -3.2331
  877MOL0     H18359   4.277  -0.098   4.958 -2.0370  0.3106 -1.6042
  877MOL0     H18360   4.307  -0.187   4.812  1.4705 -1.4669  2.1220
  877MOL0     H18361   4.477  -0.191   5.000  1.8445  1.5028  1.2863
  877MOL0     H18362   4.556  -0.131   4.843  1.1946  1.9696 -0.3308
  877MOL0     H18363   4.543   0.116   4.933  3.0829  0.7111  1.1679
  877MOL0     H18364   4.446   0.057   5.065  0.3329 -1.1254 -0.0789
  877MOL0     H18365   4.733  -0.047   4.995 -0.1464 -1.8483  0.3609
  877MOL0     H18366   4.645  -0.082   5.143  1.5310  1.7622  2.8000
  877MOL0     H18367   4.638   0.156   5.184 -2.4749 -2.1561 -2.8659
  877MOL0     H18368   4.749   0.187   5.053 -2.3611 -1.5450 -1.5674
  877MOL0     H18369   4.825   0.020   5.295 -0.3504  2.5433  1.1472
  877MOL0     H18370   4.912   0.025   5.150 -2.6976 -2.5574 -1.7708
  877MOL0     H18371   4.844   0.298   5.270 -0.2781 -0.8491  1.2095
  877MOL0     H18372   4.984   0.250   5.170  2.2273 -0.2687  1.4186
  877MOL0     H18373   4.942   0.176   5.457  1.0015 -0.7328  0.5137
  877MOL0     H18374   5.073   0.109   5.361 -1.6791 -1.9458  1.0940
  877MOL0     H18375   4.265   0.262   4.737 -1.5906  1.2857  2.7361
  877MOL0     H18376   4.048   0.350   4.699  3.6648  0.0936 -1.2998
  877MOL0     H18377   3.649   0.567   4.800  0.1361 -0.1680  1.4009
  877MOL0     H18378   3.399   0.607   4.782 -0.4176 -0.7909  0.7241
  877MOL0     H18379   3.011   1.266   4.953  1.4137  0.6629 -0.0677
  877MOL0     H18380   3.217   1.185   5.056 -0.4492 -1.0176 -0.7234
  877MOL0     H18381   3.758   1.119   5.034 -1.1621 -0.1773  0.4509
  877MOL0     H18382   3.906   1.033   5.207  3.5111  2.1904 -1.6353
  877MOL0     H18383   3.935   0.975   5.607 -1.1544  0.4393 -0.4581
  877MOL0     H18384   3.811   1.097   5.622  2.5547  2.3229  4.7299
  877MOL0     H18385   3.997   1.170   5.764 -1.2087 -0.0797  0.0564
  877MOL0     H18386   4.000   1.277   5.631  5.1160  0.6046  0.4390
  877MOL0     H18387   4.174   1.141   5.508 -0.1508 -0.3431  0.7481
  877MOL0     H18388   4.185   1.027   5.637  2.4204 -2.2647 -5.0042
  877MOL0     H18389   4.366   1.189   5.647  1.2701  2.2079  2.5714
  877MOL0     H18390   4.240   1.320   5.662 -1.1403 -1.1366 -1.3052
  877MOL0     H18391   4.259   1.185   6.059  1.9981 -0.6719  0.3597
  877MOL0     H18392   3.711   1.245   5.508 -1.0218 -0.6575  0.2507
  877MOL0     H18393   3.563   1.424   5.460  1.9668 -0.0203 -0.6756
  877MOL0     H18394   3.486   1.455   5.303 -0.4665 -0.2788  1.2757
  877MOL0     H18395   3.439   1.322   5.401  0.1518  0.5413  2.6194
  878MOL0     O18396   2.311   0.025   4.645  0.0103  0.0628  0.6160
  878MOL0     C18397   2.401   0.103   4.642  0.1178 -0.5190  0.7675
  878MOL0     O18398   2.444   0.177   4.753  0.0075  0.1840  0.1902
  878MOL0     C18399   2.381   0.147   4.872 -0.3434 -0.6491 -0.1061
  878MOL0     C18400   2.385   0.030   4.943  0.3160  0.9119  0.0167
  878MOL0     C18401   2.326   0.015   5.062 -0.3794 -0.9451 -0.1067
  878MOL0     C18402   2.258   0.125   5.124 -0.2188 -0.3212  0.7804
  878MOL0     O18403   2.205   0.129   5.248  0.7268 -0.6253  0.0117
  878MOL0     C18404   2.191   0.011   5.320 -0.4637 -0.0580 -0.3669
  878MOL0     C18405   2.059   0.014   5.401  0.7779  1.0273  0.6992
  878MOL0     C18406   2.043   0.137   5.493  0.0639  0.8129  0.0710
  878MOL0     C18407   1.895   0.166   5.521 -0.3178 -0.4387 -0.2088
  878MOL0     C18408   1.883   0.289   5.621 -0.4801  0.2725 -0.2480
  878MOL0     C18409   1.747   0.345   5.614  0.0491 -0.2652 -0.1267
  878MOL0     C18410   1.755   0.472   5.702 -0.4211  0.2351 -0.3422
  878MOL0     C18411   1.617   0.493   5.756 -0.2469  0.3814 -0.3368
  878MOL0     N18412   1.509   0.493   5.655  0.3377 -0.3902 -0.4696
  878MOL0     C18413   1.477   0.605   5.580  0.0327 -0.1471  0.2527
  878MOL0     C18414   1.369   0.568   5.507 -0.1915  0.0707  0.1045
  878MOL0     C18415   1.294   0.643   5.396  1.4010 -0.6363 -0.0147
  878MOL0     C18416   1.206   0.755   5.460  0.2326 -0.0152 -0.0007
  878MOL0     C18417   1.098   0.697   5.557 -0.2606 -0.9015  0.1997
  878MOL0     C18418   0.966   0.763   5.563 -0.7601 -0.3282  0.5583
  878MOL0     O18419   0.977   0.908   5.597 -0.2854  0.7098  0.3086
  878MOL0     C18420   0.875   0.998   5.568 -0.0619 -0.0533 -0.4257
  878MOL0     C18421   0.742   0.972   5.536 -0.3742 -1.4524  0.0920
  878MOL0     C18422   0.655   1.086   5.527 -0.2823  0.2766  0.1059
  878MOL0     C18423   0.699   1.215   5.524  0.1735 -0.0577 -0.1212
  878MOL0     C18424   0.604   1.327   5.515  0.6460 -0.5345 -0.1329
  878MOL0     O18425   0.655   1.454   5.513 -0.0844  0.5552  0.5584
  878MOL0     C18426   0.568   1.564   5.498 -0.5004  0.3165  0.0395
  878MOL0     C18427   0.638   1.681   5.479 -1.3360  0.3399  0.3770
  878MOL0     C18428   0.592   1.812   5.471  0.2546  0.6696 -0.5316
  878MOL0     C18429   0.447   1.820   5.476  0.3984 -0.5021 -0.1827
  878MOL0     O18430   0.379   1.944   5.466 -0.2014  0.0428 -0.3166
  878MOL0     C18431   0.264   1.967   5.389 -0.5862  0.1795 -0.2826
  878MOL0     C18432   0.226   2.112   5.395  0.3647  0.0334 -0.0864
  878MOL0     C18433   0.342   2.215   5.382  0.1663 -0.5500  0.1197
  878MOL0     C18434   0.297   2.363   5.344  0.8326 -0.0246  0.3242
  878MOL0     C18435   0.423   2.452   5.353 -0.4031  0.1430 -1.1856
  878MOL0     C18436   0.551   2.414   5.274  0.8108 -0.1540  0.0449
  878MOL0     C18437   0.656   2.523   5.259  0.2759  0.2590  0.3253
  878MOL0     C18438   0.784   2.464   5.200  0.2897  0.8904  0.6058
  878MOL0    Cl18439   0.912   2.591   5.169  0.0763  0.3274 -0.6046
  878MOL0     C18440   0.367   1.703   5.507  0.2453 -0.9231 -0.0076
  878MOL0     C18441   0.428   1.577   5.517  1.4371  0.4119 -0.6612
  878MOL0     O18442   0.487   1.296   5.496  0.0458 -0.4866  0.0589
  878MOL0     C18443   0.831   1.242   5.544 -0.4006  0.5768  0.8841
  878MOL0     C18444   0.911   1.134   5.584  0.2874  0.3150 -0.2226
  878MOL0     N18445   1.327   0.453   5.577  0.5970  1.1100  0.0918
  878MOL0     N18446   1.402   0.412   5.674 -0.7891 -0.2274 -0.2968
  878MOL0     C18447   2.245   0.243   5.043 -0.7822  0.5805 -0.6530
  878MOL0     C18448   2.301   0.252   4.909  0.2150 -0.5947 -0.1727
  878MOL0     C18449   2.493   0.088   4.533  0.3657  1.0206 -0.0514
  878MOL0     C18450   2.628   0.079   4.564 -0.4234 -0.2732  0.9918
  878MOL0     C18451   2.726   0.048   4.468  1.2602 -0.1045  0.5575
  878MOL0     C18452   2.697   0.030   4.332  1.1500 -0.7890  0.4108
  878MOL0     O18453   2.806  -0.001   4.249 -0.5880 -0.9935  0.1718
  878MOL0     C18454   2.777   0.002   4.112 -0.6030 -0.0373 -0.7685
  878MOL0     C18455   2.736  -0.138   4.051  0.1045 -0.2091 -1.0998
  878MOL0     C18456   2.688  -0.126   3.907  0.5121  0.1067  0.4679
  878MOL0     C18457   2.590  -0.016   3.870  0.9822  0.7638 -0.6001
  878MOL0     C18458   2.463  -0.037   3.949  0.1930 -0.2561  0.1845
  878MOL0     C18459   2.365  -0.064   4.013 -0.3527  0.0992  0.2222
  878MOL0     C18460   2.563   0.065   4.297  0.2185  0.5639 -0.1787
  878MOL0     C18461   2.462   0.086   4.395 -0.8639 -0.0321 -0.0323
  878MOL0     C18462   2.318   0.107   4.349  0.5320 -0.0546 -0.9254
  878MOL0     H18463   2.428  -0.059   4.899  2.6529 -0.9783  5.3591
  878MOL0     H18464   2.333  -0.082   5.110  2.6169 -0.9858 -0.4798
  878MOL0     H18465   2.177  -0.073   5.250  3.1175 -0.1010 -1.2429
  878MOL0     H18466   2.275  -0.006   5.388 -0.8056 -1.9454 -0.3688
  878MOL0     H18467   2.052  -0.077   5.461  2.2203 -0.0616 -0.6825
  878MOL0     H18468   1.977   0.007   5.329  0.8101 -0.0986  0.7514
  878MOL0     H18469   2.084   0.222   5.438 -0.3466  1.5009  0.8088
  878MOL0     H18470   2.094   0.123   5.589  0.9730  0.2668 -0.4772
  878MOL0     H18471   1.844   0.194   5.428 -0.7657  0.6030  0.3335
  878MOL0     H18472   1.844   0.085   5.574 -3.1493  1.0961 -0.3909
  878MOL0     H18473   1.911   0.255   5.721 -6.0392 -4.0511  0.3454
  878MOL0     H18474   1.956   0.364   5.589  1.7857 -0.9121  1.8000
  878MOL0     H18475   1.733   0.386   5.513  0.9854 -0.9531 -0.5502
  878MOL0     H18476   1.669   0.279   5.651 -1.0181 -0.3849 -2.4037
  878MOL0     H18477   1.790   0.556   5.641 -1.5427  1.5103  0.6895
  878MOL0     H18478   1.820   0.459   5.788 -1.2081  0.2383  0.2620
  878MOL0     H18479   1.593   0.417   5.831  1.2756 -0.2395 -0.4493
  878MOL0     H18480   1.615   0.583   5.818  1.8297  1.7382 -2.1180
  878MOL0     H18481   1.535   0.696   5.585  2.2179 -1.3714 -0.9043
  878MOL0     H18482   1.363   0.689   5.324  2.9505  0.9604  2.3577
  878MOL0     H18483   1.229   0.569   5.349  1.0956 -2.2251  2.7426
  878MOL0     H18484   1.273   0.818   5.518  0.0940 -0.9810  1.2619
  878MOL0     H18485   1.160   0.812   5.378 -1.9539 -1.7466 -0.0880
  878MOL0     H18486   1.145   0.693   5.656  0.0630  0.6956  0.1301
  878MOL0     H18487   1.077   0.590   5.546  0.2088 -0.9578 -0.2193
  878MOL0     H18488   0.887   0.715   5.621 -3.1970  0.4640 -1.8793
  878MOL0     H18489   0.935   0.766   5.458 -2.3909 -2.4122  0.9104
  878MOL0     H18490   0.708   0.870   5.529  1.0483 -2.0862  1.5579
  878MOL0     H18491   0.548   1.070   5.515 -0.7974  0.9224  3.0103
  878MOL0     H18492   0.745   1.663   5.476 -1.0144  2.1468 -0.8955
  878MOL0     H18493   0.653   1.901   5.461 -3.7896  3.6877 -0.9117
  878MOL0     H18494   0.276   1.944   5.283  0.3427  2.9339 -0.8569
  878MOL0     H18495   0.173   1.915   5.421 -0.6414 -0.1547 -0.9715
  878MOL0     H18496   0.146   2.144   5.327  0.9607  4.2573  0.9282
  878MOL0     H18497   0.186   2.120   5.496  1.1031 -1.0105  0.3005
  878MOL0     H18498   0.395   2.212   5.477  1.2019 -1.2870 -0.4649
  878MOL0     H18499   0.417   2.190   5.307  1.6347  4.1165 -0.2848
  878MOL0     H18500   0.221   2.394   5.416  0.9814 -0.3877  0.6372
  878MOL0     H18501   0.254   2.354   5.244  1.1816 -3.2518  0.3833
  878MOL0     H18502   0.452   2.474   5.456  1.8062  0.9956 -1.9174
  878MOL0     H18503   0.401   2.552   5.313  2.6283  1.1608 -0.5806
  878MOL0     H18504   0.603   2.335   5.330  0.7448  1.2312  2.1660
  878MOL0     H18505   0.528   2.389   5.170  0.8901  2.9697 -0.7984
  878MOL0     H18506   0.673   2.557   5.361  1.5570  0.2693  0.1217
  878MOL0     H18507   0.616   2.606   5.198  0.0951  1.5989  2.1772
  878MOL0     H18508   0.821   2.384   5.264  2.1717 -0.1150 -1.5799
  878MOL0     H18509   0.748   2.428   5.103 -2.3415  2.2014  1.0083
  878MOL0     H18510   0.264   1.726   5.534  0.9723  1.8075  0.7872
  878MOL0     H18511   0.368   1.489   5.536  0.6157  0.6792 -1.9091
  878MOL0     H18512   0.867   1.344   5.553 -3.0030  1.4456  2.9876
  878MOL0     H18513   1.011   1.162   5.618  0.9275 -1.7832 -0.2341
  878MOL0     H18514   2.171   0.316   5.073 -1.0543  0.0752 -0.0720
  878MOL0     H18515   2.290   0.334   4.840 -3.8041  0.1918  1.1642
  878MOL0     H18516   2.670   0.070   4.664  0.4289  1.3460  0.8039
  878MOL0     H18517   2.830   0.037   4.497  2.2793  3.2723 -1.3231
  878MOL0     H18518   2.866   0.041   4.063 -1.3880  1.2366 -1.2306
  878MOL0     H18519   2.702   0.078   4.089  0.2011  1.8110  2.1831
  878MOL0     H18520   2.651  -0.181   4.106 -1.0257  0.8241 -1.9849
  878MOL0     H18521   2.816  -0.212   4.055  0.5754  0.3021  2.8148
  878MOL0     H18522   2.641  -0.223   3.884  1.8486 -0.2650 -0.8306
  878MOL0     H18523   2.770  -0.116   3.836  1.2721  1.4299  1.4895
  878MOL0     H18524   2.636   0.081   3.892  2.6536 -0.4280  1.6041
  878MOL0     H18525   2.573  -0.029   3.763  1.1860 -1.2761 -0.4136
  878MOL0     H18526   2.291  -0.102   4.081  1.9268 -1.1993  2.1511
  878MOL0     H18527   2.532   0.066   4.193 -0.6598 -3.0161 -0.1037
  878MOL0     H18528   2.246   0.129   4.428 -0.3331 -2.6802 -0.8859
  878MOL0     H18529   2.308   0.192   4.280 -1.3122  0.9745  0.5323
  878MOL0     H18530   2.279   0.025   4.287  0.0323 -2.9688  2.9143
  879MOL0     O18531   6.694   0.710   1.292 -0.7860  0.1075 -0.4451
  879MOL0     C18532   6.707   0.718   1.414  0.2740 -0.2364  0.5117
  879MOL0     O18533   6.829   0.716   1.474 -0.0055  0.2594 -0.3772
  879MOL0     C18534   6.948   0.716   1.404  0.7410 -0.4062  0.1755
  879MOL0     C18535   7.060   0.659   1.471  0.1019  1.1233  0.3531
  879MOL0     C18536   7.185   0.643   1.397  1.0788 -0.3860 -0.8337
  879MOL0     C18537   7.204   0.715   1.280 -1.0013 -0.1438 -1.0400
  879MOL0     O18538   7.334   0.722   1.224 -0.2501 -0.0616 -0.3442
  879MOL0     C18539   7.349   0.788   1.097 -0.1235  0.7932 -0.3899
  879MOL0     C18540   7.475   0.747   1.029  0.1097  0.3392 -0.0595
  879MOL0     C18541   7.595   0.773   1.120 -0.0111  0.4723  0.2404
  879MOL0     C18542   7.727   0.750   1.042  0.2881 -1.2696  0.3749
  879MOL0     C18543   7.743   0.600   1.023  0.3915  0.1770  1.8688
  879MOL0     C18544   7.760   0.562   0.875 -0.0104  0.1715  1.3063
  879MOL0     C18545   7.895   0.604   0.811  0.3809  0.8159  0.6353
  879MOL0     C18546   7.920   0.500   0.689  0.5302  0.2724  0.5603
  879MOL0     N18547   7.831   0.539   0.575  0.3101 -0.2469 -0.5466
  879MOL0     C18548   7.821   0.670   0.532  0.0236  0.3696  0.6295
  879MOL0     C18549   7.703   0.674   0.468 -0.4283  0.3159  0.3207
  879MOL0     C18550   7.641   0.808   0.427 -0.3721 -0.0689  0.3109
  879MOL0     C18551   7.494   0.812   0.374 -0.3103 -1.0354  0.4583
  879MOL0     C18552   7.479   0.782   0.227 -0.1363  0.1010  0.4496
  879MOL0     C18553   7.542   0.648   0.168  0.1324  0.8438 -0.0828
  879MOL0     O18554   7.543   0.654   0.026 -0.5996 -0.1497 -0.2934
  879MOL0     C18555   7.429   0.639  -0.044 -0.2638  0.0269  0.6364
  879MOL0     C18556   7.402   0.717  -0.156 -0.0695 -0.7402  0.5212
  879MOL0     C18557   7.293   0.679  -0.233  0.2012  0.2450  0.5779
  879MOL0     C18558   7.211   0.573  -0.205  0.2366  0.4147  0.0462
  879MOL0     C18559   7.098   0.546  -0.288 -0.0814  0.6110  0.6222
  879MOL0     O18560   6.989   0.477  -0.240 -0.8274 -0.6147 -0.8861
  879MOL0     C18561   6.893   0.431  -0.321  0.1592  0.2558  0.6048
  879MOL0     C18562   6.834   0.509  -0.417 -0.1619 -0.7327 -0.2401
  879MOL0     C18563   6.729   0.458  -0.492 -0.1318 -0.7877  0.4376
  879MOL0     C18564   6.675   0.335  -0.460 -0.0800  1.1103  0.5863
  879MOL0     O18565   6.576   0.275  -0.548 -0.0979 -0.7415  0.3659
  879MOL0     C18566   6.479   0.192  -0.491 -0.0637  0.6616 -0.3379
  879MOL0     C18567   6.349   0.227  -0.560  0.7953  0.2262 -0.5783
  879MOL0     C18568   6.228   0.150  -0.501 -0.2399 -0.4583 -0.1946
  879MOL0     C18569   6.224  -0.006  -0.514 -0.6200 -0.4982  0.6525
  879MOL0     C18570   6.083  -0.058  -0.477 -0.5909 -0.2437  0.7072
  879MOL0     C18571   6.075  -0.205  -0.526  0.0970 -0.2777 -0.2758
  879MOL0     C18572   5.939  -0.264  -0.479  0.1992  0.5314 -0.6331
  879MOL0     C18573   5.934  -0.414  -0.504  0.0281  0.6599 -0.3937
  879MOL0    Cl18574   5.921  -0.473  -0.678  0.2910 -0.0027 -0.0748
  879MOL0     C18575   6.734   0.251  -0.360  0.3582  0.1470 -0.5118
  879MOL0     C18576   6.853   0.296  -0.301  0.4568 -0.8205 -0.1711
  879MOL0     O18577   7.113   0.570  -0.405  0.5867 -0.0127  0.3508
  879MOL0     C18578   7.236   0.492  -0.090  0.5575  0.7050  0.9404
  879MOL0     C18579   7.353   0.527  -0.015 -0.3986  0.6411  0.2344
  879MOL0     N18580   7.654   0.550   0.451 -0.3280 -0.0923  0.1988
  879MOL0     N18581   7.730   0.465   0.521  0.0189 -0.2231  0.1899
  879MOL0     C18582   7.097   0.784   1.229  0.0005  0.0612  0.0651
  879MOL0     C18583   6.969   0.785   1.286 -0.0110 -0.1818 -0.1983
  879MOL0     C18584   6.582   0.734   1.498  0.2713  0.6291 -0.1293
  879MOL0     C18585   6.460   0.755   1.436 -0.3494 -0.0665 -0.2138
  879MOL0     C18586   6.342   0.776   1.503  0.6462  0.0191 -0.0575
  879MOL0     C18587   6.339   0.768   1.641 -0.5721 -0.8690 -1.1798
  879MOL0     O18588   6.214   0.804   1.701 -0.1934 -0.1097  0.3797
  879MOL0     C18589   6.196   0.797   1.843 -0.0674 -0.8951 -0.4037
  879MOL0     C18590   6.050   0.761   1.872 -0.2877 -0.2029  0.4359
  879MOL0     C18591   5.952   0.875   1.848  0.0925  0.1646 -0.7074
  879MOL0     C18592   5.816   0.829   1.875 -0.4419 -0.1497 -0.5405
  879MOL0     C18593   5.725   0.945   1.840  0.6453 -0.3452 -0.4385
  879MOL0     C18594   5.659   1.034   1.799 -0.1227 -0.5844  0.2517
  879MOL0     C18595   6.462   0.742   1.715  0.1519  0.3634  0.2133
  879MOL0     C18596   6.581   0.736   1.643 -0.3545 -0.6984 -0.3224
  879MOL0     C18597   6.710   0.721   1.707  0.7025  0.3515  0.1985
  879MOL0     H18598   7.047   0.609   1.566 -0.4474  3.8721  1.8145
  879MOL0     H18599   7.268   0.586   1.436  3.1164  2.5149 -0.5576
  879MOL0     H18600   7.269   0.768   1.025 -2.0358  1.5321  1.4096
  879MOL0     H18601   7.362   0.895   1.117 -1.4920  0.6251  1.8094
  879MOL0     H18602   7.491   0.791   0.930  1.3709  0.0690  0.0029
  879MOL0     H18603   7.454   0.641   1.010  0.2323  0.3852 -0.4662
  879MOL0     H18604   7.609   0.730   1.219 -2.6608 -0.0384  0.4757
  879MOL0     H18605   7.607   0.880   1.141 -0.2107  0.4297  0.5701
  879MOL0     H18606   7.715   0.809   0.950 -1.4959 -2.6504 -0.3417
  879MOL0     H18607   7.814   0.788   1.097 -0.1133 -3.1132  2.4308
  879MOL0     H18608   7.829   0.556   1.074 -0.2256 -2.2218  0.9805
  879MOL0     H18609   7.653   0.553   1.066 -0.7811  0.7308  0.1101
  879MOL0     H18610   7.754   0.454   0.861  2.3369  0.2665 -1.3767
  879MOL0     H18611   7.679   0.607   0.818  1.2658 -1.9011 -2.5200
  879MOL0     H18612   7.973   0.590   0.887 -0.1395  0.0029  1.0379
  879MOL0     H18613   7.896   0.709   0.782  0.7498  0.4093 -0.8966
  879MOL0     H18614   8.014   0.519   0.636 -0.8640  1.4059 -1.7009
  879MOL0     H18615   7.902   0.396   0.716  0.0375 -0.8241 -3.3298
  879MOL0     H18616   7.881   0.756   0.562 -0.6435  1.3379 -0.6904
  879MOL0     H18617   7.646   0.864   0.521 -0.8829 -0.5004  0.5963
  879MOL0     H18618   7.712   0.854   0.357  0.0977 -1.4461 -0.1522
  879MOL0     H18619   7.432   0.739   0.427  1.2629 -2.4930  0.3601
  879MOL0     H18620   7.455   0.913   0.389 -2.5268 -1.0722 -3.5020
  879MOL0     H18621   7.521   0.875   0.187 -1.4099  1.5288  2.2677
  879MOL0     H18622   7.379   0.789   0.184  0.6943  2.2174 -1.3058
  879MOL0     H18623   7.495   0.556   0.204 -0.1631  1.1067  0.2006
  879MOL0     H18624   7.647   0.647   0.199  0.1222 -0.1362 -0.0545
  879MOL0     H18625   7.456   0.808  -0.180 -0.4805 -0.8698 -1.0272
  879MOL0     H18626   7.270   0.731  -0.325  0.9422 -1.1252 -0.4253
  879MOL0     H18627   6.861   0.613  -0.435 -3.3710 -0.3421 -4.1475
  879MOL0     H18628   6.693   0.505  -0.582  2.5280  1.5363  0.4650
  879MOL0     H18629   6.502   0.091  -0.525  1.5183  0.6568  0.6674
  879MOL0     H18630   6.479   0.202  -0.382 -2.4370  0.7888 -0.3072
  879MOL0     H18631   6.335   0.335  -0.561  2.3728  0.4449 -1.2044
  879MOL0     H18632   6.349   0.190  -0.663  3.1317  0.1549 -0.6069
  879MOL0     H18633   6.221   0.173  -0.395  1.4381  1.0059 -0.3584
  879MOL0     H18634   6.134   0.191  -0.538  0.0207  1.7010  1.3547
  879MOL0     H18635   6.293  -0.050  -0.441 -0.2536  1.5077  1.5638
  879MOL0     H18636   6.247  -0.029  -0.619  1.8891  2.0773  0.5150
  879MOL0     H18637   6.005  -0.008  -0.535 -0.6263 -1.7724 -0.6369
  879MOL0     H18638   6.051  -0.036  -0.375  0.2760  2.1267  0.5210
  879MOL0     H18639   6.089  -0.224  -0.633 -1.1307 -0.8504 -0.3442
  879MOL0     H18640   6.161  -0.245  -0.471  0.2391  2.2649  1.5622
  879MOL0     H18641   5.863  -0.224  -0.547  0.1523  0.7545 -0.4505
  879MOL0     H18642   5.916  -0.247  -0.374  0.8879 -1.9493 -0.0150
  879MOL0     H18643   6.019  -0.455  -0.448  1.8931  1.2634 -2.6380
  879MOL0     H18644   5.842  -0.459  -0.464  1.5855 -2.6481 -0.1954
  879MOL0     H18645   6.685   0.158  -0.333  1.3740  0.2104  1.8295
  879MOL0     H18646   6.918   0.244  -0.232  1.5943 -1.1565 -1.4519
  879MOL0     H18647   7.172   0.408  -0.068  3.5010 -2.1097 -0.4224
  879MOL0     H18648   7.374   0.451   0.059 -0.1652 -0.2829 -0.7626
  879MOL0     H18649   7.104   0.828   1.130  0.0046 -0.1495 -0.0292
  879MOL0     H18650   6.885   0.835   1.240 -0.1173  1.1714  1.3609
  879MOL0     H18651   6.462   0.759   1.327  0.6495 -0.0206 -0.2088
  879MOL0     H18652   6.249   0.802   1.455  1.0409  3.4579  0.8261
  879MOL0     H18653   6.203   0.902   1.873 -1.9947 -1.3909  2.0903
  879MOL0     H18654   6.272   0.741   1.898 -0.9732 -2.1282 -0.3767
  879MOL0     H18655   6.041   0.739   1.979 -1.1443 -1.6359  0.0882
  879MOL0     H18656   6.010   0.688   1.802 -0.5610  0.9153 -0.6190
  879MOL0     H18657   5.959   0.895   1.740 -3.0996 -1.6024 -1.3971
  879MOL0     H18658   5.970   0.967   1.902 -3.2731 -0.4599  1.7862
  879MOL0     H18659   5.791   0.744   1.811 -1.7063 -0.0566 -0.1857
  879MOL0     H18660   5.803   0.800   1.979  0.7567 -4.2509 -1.3647
  879MOL0     H18661   5.611   1.119   1.755  1.0844  0.3341  0.6536
  879MOL0     H18662   6.464   0.724   1.822  1.2606 -0.1220  0.1285
  879MOL0     H18663   6.760   0.819   1.702 -0.7191  1.1692  1.3371
  879MOL0     H18664   6.696   0.703   1.814  0.5899  2.2569  0.5423
  879MOL0     H18665   6.764   0.631   1.679 -0.5475 -0.4818  0.3941
  880MOL0     O18666   1.612  11.266   8.208  0.3478  0.6138  0.2975
  880MOL0     C18667   1.554  11.368   8.173 -0.5009 -0.9751  0.0534
  880MOL0     O18668   1.418  11.381   8.155 -0.5675 -0.1631  0.4910
  880MOL0     C18669   1.341  11.279   8.182 -0.8716  0.9567 -0.1076
  880MOL0     C18670   1.267  11.232   8.075 -0.2835 -0.1759 -0.1903
  880MOL0     C18671   1.177  11.125   8.097 -0.2591  0.4982 -0.4777
  880MOL0     C18672   1.145  11.082   8.223  0.5307 -0.2630  0.2671
  880MOL0     O18673   1.047  10.990   8.230 -0.5480 -0.0682  0.4329
  880MOL0     C18674   1.080  10.873   8.294 -0.5710  0.2305 -1.1199
  880MOL0     C18675   1.012  10.753   8.215 -1.7522 -0.2052 -0.0678
  880MOL0     C18676   0.863  10.755   8.242 -0.0018 -0.0766 -0.4224
  880MOL0     C18677   0.782  10.709   8.125 -0.1740 -0.6654  0.5052
  880MOL0     C18678   0.768  10.558   8.116  0.4454  0.5581  0.6210
  880MOL0     C18679   0.699  10.513   7.992 -0.8082 -0.2142 -0.7847
  880MOL0     C18680   0.682  10.367   7.998  1.3224 -0.2492 -0.6120
  880MOL0     C18681   0.689  10.302   7.855  0.2984  0.6864 -0.3686
  880MOL0     N18682   0.817  10.325   7.771  0.0493 -0.2292  0.3125
  880MOL0     C18683   0.944  10.293   7.801 -0.4507 -0.7507 -0.0020
  880MOL0     C18684   1.013  10.336   7.695 -0.5445 -1.0478 -0.1309
  880MOL0     C18685   1.172  10.324   7.686 -0.4144 -0.8210 -0.0542
  880MOL0     C18686   1.231  10.463   7.673 -0.2936 -0.3094 -0.4326
  880MOL0     C18687   1.162  10.566   7.767  0.4589  0.3967 -0.5119
  880MOL0     C18688   1.235  10.693   7.798  0.5182 -0.6411  0.4589
  880MOL0     O18689   1.254  10.757   7.666 -0.5215 -0.6098 -0.3718
  880MOL0     C18690   1.319  10.880   7.658 -0.3533 -0.9528  0.5574
  880MOL0     C18691   1.321  10.944   7.536 -0.1114  0.0977 -0.7153
  880MOL0     C18692   1.394  11.068   7.527 -0.9531  0.1343 -0.3013
  880MOL0     C18693   1.466  11.118   7.641  0.2497  0.8868 -0.2688
  880MOL0     C18694   1.537  11.248   7.639  0.2418 -0.4076 -1.1021
  880MOL0     O18695   1.563  11.314   7.752  0.1569 -0.1153  0.3304
  880MOL0     C18696   1.670  11.403   7.753  0.2486 -0.3586 -0.5159
  880MOL0     C18697   1.785  11.354   7.808  0.3044  0.6663 -0.4016
  880MOL0     C18698   1.902  11.437   7.811  0.3251  0.4158 -0.1462
  880MOL0     C18699   1.904  11.562   7.754 -0.1168  0.2046 -0.7597
  880MOL0     O18700   2.017  11.636   7.749 -0.1704  0.7439  0.6804
  880MOL0     C18701   2.086  11.673   7.871  1.0723  0.3718  0.7115
  880MOL0     C18702   2.236  11.655   7.855 -0.4751 -0.5100  0.7338
  880MOL0     C18703   2.322  11.687   7.981  0.6823  0.4797  0.8697
  880MOL0     C18704   2.272  11.788   8.087 -0.9613 -0.0648  0.2922
  880MOL0     C18705   2.375  11.828   8.195 -0.2442  0.3925 -0.2199
  880MOL0     C18706   2.339  11.937   8.295  0.8579 -0.0562 -0.3701
  880MOL0     C18707   2.453  11.923   8.405 -0.3081  0.1307  0.4237
  880MOL0     C18708   2.414  12.001   8.533  0.0197 -0.7134 -0.2306
  880MOL0    Cl18709   2.535  11.970   8.659 -0.1468  0.2419  0.3280
  880MOL0     C18710   1.789  11.604   7.699 -0.0845 -0.2730 -0.3502
  880MOL0     C18711   1.671  11.533   7.693 -0.8623  1.2735 -1.0322
  880MOL0     O18712   1.554  11.294   7.523  1.1551  0.3615 -0.4109
  880MOL0     C18713   1.459  11.043   7.762  0.3053  1.0318 -0.2073
  880MOL0     C18714   1.404  10.919   7.760  0.7683 -0.2775  1.0386
  880MOL0     N18715   0.939  10.392   7.597  0.7012 -0.6206 -0.3898
  880MOL0     N18716   0.817  10.382   7.643 -0.3838 -0.2041 -0.3987
  880MOL0     C18717   1.213  11.143   8.330  0.9553  1.1709  0.3641
  880MOL0     C18718   1.310  11.241   8.310 -0.0044 -0.3872  0.0749
  880MOL0     C18719   1.632  11.489   8.160  0.4951 -0.4459  0.4289
  880MOL0     C18720   1.760  11.495   8.215  0.1885  0.6964  0.6606
  880MOL0     C18721   1.848  11.598   8.213  0.3754 -0.3103 -0.1511
  880MOL0     C18722   1.815  11.720   8.158  0.3852 -0.1713 -0.3287
  880MOL0     O18723   1.907  11.823   8.160  0.0174  0.0028 -0.1680
  880MOL0     C18724   1.873  11.937   8.087  0.9418 -0.4612  0.0026
  880MOL0     C18725   1.992  12.043   8.115  0.2457  0.8613  0.7502
  880MOL0     C18726   1.945  12.182   8.083 -0.4361  0.3464 -0.1008
  880MOL0     C18727   2.057  12.285   8.094  0.1971 -0.6068  0.1839
  880MOL0     C18728   2.174  12.285   7.996  0.3719  0.2994  0.0506
  880MOL0     C18729   2.271  12.277   7.919  0.3017  0.2783  0.3332
  880MOL0     C18730   1.689  11.720   8.100 -0.1798 -0.5210  0.7830
  880MOL0     C18731   1.595  11.618   8.102  0.0934  0.2134  0.0260
  880MOL0     C18732   1.467  11.649   8.023  0.0703  0.2429  0.4590
  880MOL0     H18733   1.299  11.263   7.976 -2.3108  1.9213 -0.2758
  880MOL0     H18734   1.142  11.071   8.009  1.3813 -1.2897 -0.1106
  880MOL0     H18735   1.187  10.859   8.312 -0.9906  1.3668  3.4385
  880MOL0     H18736   1.038  10.877   8.395 -0.4854 -1.7929 -0.9634
  880MOL0     H18737   1.048  10.660   8.260 -4.1746 -0.9441  0.4542
  880MOL0     H18738   1.037  10.745   8.108  2.1102 -0.9078  0.7230
  880MOL0     H18739   0.834  10.857   8.270 -1.9369 -0.9038  0.7509
  880MOL0     H18740   0.837  10.704   8.335 -0.4008  0.4831 -0.2227
  880MOL0     H18741   0.679  10.746   8.136  0.5771  2.4169 -1.3946
  880MOL0     H18742   0.819  10.757   8.034 -1.9126 -1.2021 -0.5510
  880MOL0     H18743   0.862  10.503   8.128 -0.0011 -0.8980 -1.8461
  880MOL0     H18744   0.713  10.528   8.206  1.8586  0.0747  1.3526
  880MOL0     H18745   0.606  10.568   7.974  0.1228  1.1970 -1.4522
  880MOL0     H18746   0.765  10.541   7.909  1.5527 -0.6893  0.8124
  880MOL0     H18747   0.583  10.350   8.040  1.4530  0.8795  0.1751
  880MOL0     H18748   0.759  10.311   8.052  0.9833  0.3082  0.4731
  880MOL0     H18749   0.673  10.194   7.855 -0.0364  0.7063  1.3867
  880MOL0     H18750   0.607  10.349   7.801 -1.5388 -0.0779  1.6083
  880MOL0     H18751   0.983  10.249   7.893  0.0277  0.0308  0.1800
  880MOL0     H18752   1.198  10.276   7.781 -0.5957  1.2625  1.1127
  880MOL0     H18753   1.204  10.252   7.610  1.4544  1.0701 -1.1635
  880MOL0     H18754   1.338  10.461   7.695 -0.7462 -1.4798  2.0304
  880MOL0     H18755   1.228  10.491   7.568 -0.8825  0.3421 -0.2522
  880MOL0     H18756   1.127  10.525   7.862 -0.9077  1.2023 -0.6248
  880MOL0     H18757   1.066  10.590   7.719 -1.4710 -0.5196  2.5740
  880MOL0     H18758   1.325  10.660   7.849 -0.2158 -3.7177  0.0044
  880MOL0     H18759   1.177  10.754   7.868 -0.8111 -1.7636  0.3940
  880MOL0     H18760   1.263  10.896   7.457  1.4281 -1.0235 -1.2067
  880MOL0     H18761   1.399  11.125   7.435  0.5009 -1.0104 -0.9775
  880MOL0     H18762   1.784  11.248   7.829  0.0551  0.2521 -2.3510
  880MOL0     H18763   1.994  11.387   7.840  1.4552  3.1741  1.3445
  880MOL0     H18764   2.060  11.774   7.905  0.0266  0.2195  0.3998
  880MOL0     H18765   2.064  11.600   7.949  1.9166  0.4289  1.0175
  880MOL0     H18766   2.250  11.551   7.827 -0.6569 -0.8211  1.7758
  880MOL0     H18767   2.286  11.709   7.774  2.0362 -3.7389 -0.0420
  880MOL0     H18768   2.345  11.600   8.044 -2.8745 -0.2634  1.3280
  880MOL0     H18769   2.415  11.728   7.942  1.0013  0.3945  1.5316
  880MOL0     H18770   2.170  11.768   8.122 -0.8385 -1.7468 -0.2300
  880MOL0     H18771   2.253  11.875   8.024 -1.0844 -0.6602 -0.5053
  880MOL0     H18772   2.471  11.861   8.153  1.6336 -3.1933  0.9209
  880MOL0     H18773   2.397  11.733   8.244 -1.3120  1.0659  1.6579
  880MOL0     H18774   2.330  12.038   8.253  2.0555  0.1093 -0.2696
  880MOL0     H18775   2.243  11.906   8.337  0.9313 -1.3091 -1.0718
  880MOL0     H18776   2.542  11.968   8.362 -0.4955 -2.0826 -2.5946
  880MOL0     H18777   2.459  11.816   8.431 -0.7321  0.1954  0.8218
  880MOL0     H18778   2.426  12.104   8.499  4.7034 -0.3041  1.8004
  880MOL0     H18779   2.316  11.967   8.567  0.1890  1.1819  2.4544
  880MOL0     H18780   1.791  11.700   7.647  0.7045 -1.4382 -2.6147
  880MOL0     H18781   1.581  11.566   7.643 -0.2649  3.0110 -1.0089
  880MOL0     H18782   1.516  11.078   7.847 -0.4772 -2.5950  2.0529
  880MOL0     H18783   1.427  10.845   7.836  1.3510 -1.1450  0.0467
  880MOL0     H18784   1.194  11.111   8.432  3.1000  0.5006  0.6013
  880MOL0     H18785   1.372  11.277   8.392  1.8383 -3.3462  0.1266
  880MOL0     H18786   1.797  11.410   8.272  0.2437  0.0681 -0.2814
  880MOL0     H18787   1.952  11.600   8.244  0.4024 -0.0723 -0.2551
  880MOL0     H18788   1.773  11.977   8.103  0.7578 -0.2569 -1.5516
  880MOL0     H18789   1.877  11.922   7.979  0.5728  0.8224 -0.2117
  880MOL0     H18790   2.075  12.028   8.045  0.3369  0.7887  0.8749
  880MOL0     H18791   2.019  12.023   8.219 -0.4879 -0.8380  0.6599
  880MOL0     H18792   1.865  12.204   8.154 -1.0996 -3.2464  0.4631
  880MOL0     H18793   1.894  12.188   7.986 -0.7862  2.0248  0.1511
  880MOL0     H18794   2.019  12.385   8.071  2.0247 -0.2114 -1.4482
  880MOL0     H18795   2.093  12.290   8.197  1.4304 -0.8515 -0.2218
  880MOL0     H18796   2.353  12.263   7.852 -0.4636  1.1928 -0.8212
  880MOL0     H18797   1.657  11.808   8.045  0.4122 -2.1303 -2.3858
  880MOL0     H18798   1.422  11.734   8.076  2.6282  2.3028 -0.4671
  880MOL0     H18799   1.484  11.684   7.921  3.1916 -1.7172  0.1784
  880MOL0     H18800   1.405  11.560   8.008  0.8166  0.0729 -2.1528
  881MOL0     O18801   5.153   6.314   8.015 -0.4530  0.5896 -0.3919
  881MOL0     C18802   5.083   6.218   7.986  0.1616  0.1918  0.3285
  881MOL0     O18803   5.125   6.111   7.919 -0.3800 -0.2806 -0.2973
  881MOL0     C18804   5.261   6.102   7.886  0.6317  0.0836  0.2952
  881MOL0     C18805   5.307   6.176   7.781 -0.3581  0.6045 -0.5838
  881MOL0     C18806   5.433   6.148   7.722  0.3021  0.0694 -0.4560
  881MOL0     C18807   5.516   6.058   7.777  0.2536  0.3858 -1.0245
  881MOL0     O18808   5.633   6.064   7.713  0.0907  0.2518  0.3313
  881MOL0     C18809   5.742   5.984   7.759  0.4508 -0.5558  0.0982
  881MOL0     C18810   5.855   5.994   7.658 -0.5389  0.1056 -0.0166
  881MOL0     C18811   5.917   6.140   7.631  0.7030 -0.2823  0.3947
  881MOL0     C18812   6.041   6.132   7.530  0.0975  0.9893 -0.6150
  881MOL0     C18813   6.085   6.280   7.493  0.8166 -0.4264 -0.6586
  881MOL0     C18814   6.229   6.278   7.445  0.6942 -0.1418  0.2305
  881MOL0     C18815   6.294   6.409   7.425 -0.5351  0.4809  0.5332
  881MOL0     C18816   6.294   6.456   7.275  0.3981 -0.2765 -0.1514
  881MOL0     N18817   6.164   6.500   7.227  0.1606 -0.1178  0.1248
  881MOL0     C18818   6.099   6.618   7.272  0.0668  0.2561 -0.3541
  881MOL0     C18819   5.972   6.605   7.211 -0.9706  0.8296 -0.3546
  881MOL0     C18820   5.850   6.687   7.229  0.0890 -0.4030  0.1032
  881MOL0     C18821   5.829   6.774   7.112  0.5685 -1.3368  0.2744
  881MOL0     C18822   5.693   6.841   7.133 -0.7720  0.5460  1.1755
  881MOL0     C18823   5.697   6.977   7.067  0.4129  0.4349 -0.2625
  881MOL0     O18824   5.562   7.024   7.076 -0.7401 -0.0948  0.9966
  881MOL0     C18825   5.483   7.047   6.964  0.3178  0.4512 -0.1532
  881MOL0     C18826   5.359   7.110   6.989 -0.3912 -0.8112  0.5182
  881MOL0     C18827   5.276   7.135   6.883 -0.4778  0.2766  1.4442
  881MOL0     C18828   5.298   7.092   6.751  0.0078 -0.5647 -0.5894
  881MOL0     C18829   5.211   7.124   6.635  0.7210 -0.5935 -0.8436
  881MOL0     O18830   5.203   7.024   6.541  0.4185  0.2147 -0.2474
  881MOL0     C18831   5.114   7.041   6.431  0.0839  0.0472 -0.8458
  881MOL0     C18832   4.982   7.077   6.458  0.3690  0.4756  0.2935
  881MOL0     C18833   4.880   7.072   6.364  0.9710 -0.9315  1.1347
  881MOL0     C18834   4.913   7.040   6.226 -0.7522  0.3838 -0.0770
  881MOL0     O18835   4.821   7.043   6.129 -0.2579  0.2894 -0.2039
  881MOL0     C18836   4.678   7.060   6.156 -0.4265 -0.2783 -0.5431
  881MOL0     C18837   4.608   7.071   6.021  0.4073  0.7233  0.2170
  881MOL0     C18838   4.464   7.121   6.010 -0.0174  0.6864  0.5538
  881MOL0     C18839   4.361   7.073   6.111 -0.1680 -0.0472 -0.4681
  881MOL0     C18840   4.214   7.109   6.083  0.2004  0.8489 -0.1319
  881MOL0     C18841   4.167   7.078   5.943  0.4182  0.3826  0.1121
  881MOL0     C18842   4.015   7.059   5.929 -0.1993 -0.9462 -0.1684
  881MOL0     C18843   3.968   7.051   5.783  1.4183 -0.4447 -0.1614
  881MOL0    Cl18844   3.799   7.116   5.795  0.7298 -0.1620  0.2256
  881MOL0     C18845   5.044   7.009   6.196 -0.4063  0.4018  0.1643
  881MOL0     C18846   5.142   7.002   6.296  0.1704 -1.1497 -0.5503
  881MOL0     O18847   5.153   7.237   6.626 -0.3907  0.4733  0.4575
  881MOL0     C18848   5.407   7.006   6.733 -0.1960 -0.2015  0.2373
  881MOL0     C18849   5.501   6.989   6.834  0.4531  0.9498  0.1275
  881MOL0     N18850   5.964   6.496   7.130 -0.6040 -1.0263  0.0734
  881MOL0     N18851   6.084   6.437   7.131 -0.2012  0.3784  0.5390
  881MOL0     C18852   5.480   5.973   7.887 -0.0920 -0.3835 -0.6616
  881MOL0     C18853   5.342   5.991   7.934 -0.4459  0.6370  0.9734
  881MOL0     C18854   4.934   6.219   8.011  0.4218 -0.4981  0.5764
  881MOL0     C18855   4.850   6.155   7.912 -0.3210 -0.2618  1.0045
  881MOL0     C18856   4.713   6.171   7.919 -0.1147  0.2501  0.2148
  881MOL0     C18857   4.645   6.240   8.020  0.8402  0.6594  0.0265
  881MOL0     O18858   4.505   6.237   8.034  0.0228  0.1144 -0.7762
  881MOL0     C18859   4.439   6.263   8.161  0.0605  0.3124  0.3700
  881MOL0     C18860   4.288   6.238   8.156  0.4197  0.7301 -0.6555
  881MOL0     C18861   4.219   6.205   8.287 -1.2220  0.3243 -0.4967
  881MOL0     C18862   4.132   6.304   8.349  0.8281  0.1880 -0.1322
  881MOL0     C18863   4.025   6.342   8.259  0.4443 -0.4674  0.1671
  881MOL0     C18864   3.929   6.344   8.185  0.7035 -0.2657  0.1132
  881MOL0     C18865   4.728   6.293   8.120 -0.1197 -0.7282  0.3990
  881MOL0     C18866   4.866   6.290   8.115 -0.9648 -0.1188 -0.1381
  881MOL0     C18867   4.936   6.354   8.228 -0.1172 -0.4284 -0.4682
  881MOL0     H18868   5.236   6.250   7.747 -0.1482  2.4689  2.5945
  881MOL0     H18869   5.465   6.193   7.628 -1.5711 -1.3660 -1.8648
  881MOL0     H18870   5.778   6.016   7.857  4.0602 -3.0953 -0.1884
  881MOL0     H18871   5.713   5.879   7.766 -2.1026  0.1158  0.8660
  881MOL0     H18872   5.813   5.941   7.572 -0.3124  0.6476 -0.4729
  881MOL0     H18873   5.939   5.934   7.693 -1.8807 -0.0613  3.2854
  881MOL0     H18874   5.942   6.193   7.724  0.1844  0.9616 -0.1563
  881MOL0     H18875   5.840   6.201   7.583 -0.6392 -2.2024  0.0126
  881MOL0     H18876   6.118   6.076   7.583 -0.3516 -2.9766 -3.6547
  881MOL0     H18877   6.019   6.068   7.444  1.3312 -0.1997 -0.0760
  881MOL0     H18878   6.021   6.306   7.408  1.2334 -0.3262 -0.9438
  881MOL0     H18879   6.074   6.346   7.580 -0.2372 -0.2707 -0.8915
  881MOL0     H18880   6.290   6.218   7.514 -2.1252 -2.2931  1.0149
  881MOL0     H18881   6.220   6.226   7.350  0.3719 -1.8057  1.1300
  881MOL0     H18882   6.396   6.405   7.464  0.0008  1.3416 -0.7352
  881MOL0     H18883   6.246   6.486   7.487  0.2077  0.0240  1.7199
  881MOL0     H18884   6.353   6.546   7.253  0.9140 -0.1596  1.5543
  881MOL0     H18885   6.333   6.375   7.212 -2.0905 -1.7220  0.0599
  881MOL0     H18886   6.120   6.696   7.345  0.2581 -0.5777  0.5092
  881MOL0     H18887   5.763   6.623   7.241  0.9975 -1.7912 -0.4714
  881MOL0     H18888   5.866   6.748   7.319  1.0534  1.7590 -1.4380
  881MOL0     H18889   5.915   6.841   7.105 -0.3411  0.1082  2.0460
  881MOL0     H18890   5.815   6.715   7.021  0.2360  0.1120 -0.6398
  881MOL0     H18891   5.667   6.869   7.236 -0.1710  2.8958  0.7401
  881MOL0     H18892   5.613   6.786   7.083  0.6173 -0.6552  0.2012
  881MOL0     H18893   5.726   6.967   6.962  0.7317  1.2097 -0.2501
  881MOL0     H18894   5.755   7.045   7.130  0.1889 -0.1033  0.5360
  881MOL0     H18895   5.326   7.151   7.084 -1.5367 -3.7877  1.5321
  881MOL0     H18896   5.199   7.208   6.905  3.4877  6.1390 -1.4726
  881MOL0     H18897   4.950   7.122   6.552 -0.6915  2.7726 -1.0796
  881MOL0     H18898   4.781   7.101   6.398  1.4838  1.7252  0.5539
  881MOL0     H18899   4.629   6.971   6.197  2.4410 -1.7454  0.0231
  881MOL0     H18900   4.661   7.150   6.215  1.1995 -0.2739 -0.0251
  881MOL0     H18901   4.665   7.105   5.934  2.0978 -2.8116 -0.2560
  881MOL0     H18902   4.613   6.970   5.978  0.2626  0.6981  0.2563
  881MOL0     H18903   4.468   7.231   6.018  0.2121  0.5911  2.1408
  881MOL0     H18904   4.434   7.090   5.910 -2.0350  0.2302  1.2596
  881MOL0     H18905   4.374   7.123   6.208 -2.6867 -1.0697  0.4870
  881MOL0     H18906   4.362   6.965   6.126 -3.3867 -0.5344 -2.6784
  881MOL0     H18907   4.189   7.208   6.122 -2.1123  0.2789 -0.0680
  881MOL0     H18908   4.152   7.047   6.148 -2.0376  4.3077  1.3140
  881MOL0     H18909   4.205   7.152   5.872  0.4430  1.3239  1.0879
  881MOL0     H18910   4.198   6.975   5.922 -1.8219 -0.4239  0.4805
  881MOL0     H18911   3.980   7.149   5.981  2.7128  0.0335  0.2959
  881MOL0     H18912   3.978   6.970   5.982  0.1721 -0.0427  1.6792
  881MOL0     H18913   4.029   7.119   5.723  2.7826  1.3000  2.9602
  881MOL0     H18914   3.967   6.946   5.751 -0.1201 -0.5089 -0.0116
  881MOL0     H18915   5.054   6.983   6.091 -3.1146 -0.1125 -0.0265
  881MOL0     H18916   5.240   6.958   6.279  0.6305 -0.4362  0.1878
  881MOL0     H18917   5.427   6.954   6.640  1.3987  0.5424  0.1259
  881MOL0     H18918   5.589   6.929   6.813 -0.4024 -1.1109  2.0547
  881MOL0     H18919   5.549   5.908   7.939 -0.5599 -1.1247 -0.9519
  881MOL0     H18920   5.311   5.908   7.995  0.3044 -0.1136  0.3581
  881MOL0     H18921   4.906   6.094   7.842 -0.9315 -1.0787  1.2248
  881MOL0     H18922   4.641   6.141   7.843  0.5402 -0.5141 -0.1201
  881MOL0     H18923   4.455   6.363   8.203  0.0805  0.8614 -0.9109
  881MOL0     H18924   4.493   6.203   8.235  1.5999  0.6006 -0.4594
  881MOL0     H18925   4.261   6.165   8.079 -0.6933 -0.3003  0.6481
  881MOL0     H18926   4.247   6.334   8.124  0.0342  0.5089 -0.8455
  881MOL0     H18927   4.301   6.197   8.360 -1.4119  2.9801  0.1137
  881MOL0     H18928   4.180   6.103   8.295 -0.8047  0.2721  1.3892
  881MOL0     H18929   4.083   6.267   8.440  1.2562  0.4086  0.1901
  881MOL0     H18930   4.187   6.394   8.377 -2.2264  1.4959  2.3450
  881MOL0     H18931   3.858   6.360   8.107  0.0143 -1.0435  0.5712
  881MOL0     H18932   4.679   6.356   8.194 -2.0106  0.5103 -1.7692
  881MOL0     H18933   4.967   6.458   8.211 -1.2591 -0.3054 -1.9997
  881MOL0     H18934   4.870   6.347   8.314  0.4370  0.7573  0.0908
  881MOL0     H18935   5.021   6.293   8.258 -1.2188  0.1465  4.8678
  882MOL0     O18936   8.163   5.317   2.146 -0.1842  0.0489 -0.0986
  882MOL0     C18937   8.079   5.348   2.229 -0.7523 -0.0848  1.2141
  882MOL0     O18938   8.095   5.329   2.364  0.6311  0.1937 -0.4124
  882MOL0     C18939   8.218   5.298   2.404  0.1054  0.2847  0.3471
  882MOL0     C18940   8.259   5.168   2.391 -0.0588  0.5011  0.8010
  882MOL0     C18941   8.380   5.121   2.430  1.4286  0.7434 -0.0171
  882MOL0     C18942   8.474   5.208   2.494  0.6403  0.2625  0.0543
  882MOL0     O18943   8.594   5.168   2.531  0.4622  0.0374 -0.5164
  882MOL0     C18944   8.618   5.028   2.547  0.5556  0.1318 -0.4429
  882MOL0     C18945   8.708   4.999   2.670 -0.3630  0.0617 -0.4428
  882MOL0     C18946   8.846   5.055   2.652 -0.6952 -0.2850  0.3719
  882MOL0     C18947   8.934   5.008   2.765  0.6941  0.2596  0.5855
  882MOL0     C18948   9.083   5.046   2.745 -0.0047  0.7858 -0.5110
  882MOL0     C18949   9.181   4.978   2.841 -0.2023 -0.3814 -0.6585
  882MOL0     C18950   9.324   5.025   2.819 -0.1087  0.0143  0.5653
  882MOL0     C18951   9.346   5.134   2.919 -0.0098  0.1672 -0.2230
  882MOL0     N18952   9.464   5.211   2.890 -0.3844  0.2273 -0.5768
  882MOL0     C18953   9.472   5.350   2.870 -0.3948  0.0042 -0.4260
  882MOL0     C18954   9.593   5.390   2.919  0.4720 -0.6877  0.2995
  882MOL0     C18955   9.629   5.533   2.934 -0.0451 -0.0814 -0.0587
  882MOL0     C18956   9.766   5.569   3.006  0.7959 -0.4403 -0.2572
  882MOL0     C18957   9.779   5.716   2.970  0.3149  0.3509  0.2038
  882MOL0     C18958   9.876   5.780   3.067 -0.2494  0.0019 -0.2436
  882MOL0     O18959  10.005   5.721   3.067  0.6119 -0.2755 -0.0949
  882MOL0     C18960  10.088   5.761   2.969 -0.4416  0.2685 -1.1230
  882MOL0     C18961  10.040   5.846   2.867  0.9599 -0.9247 -0.5233
  882MOL0     C18962  10.140   5.902   2.790 -0.5401  0.1646  0.3365
  882MOL0     C18963  10.275   5.862   2.790  0.0571  1.0757  0.2647
  882MOL0     C18964  10.366   5.930   2.698  0.0486  0.4690  0.2714
  882MOL0     O18965  10.496   5.888   2.715 -0.2759  0.3017 -0.0241
  882MOL0     C18966  10.588   5.939   2.622  0.2686  0.5026 -0.9433
  882MOL0     C18967  10.597   5.898   2.495 -0.0554 -0.3537 -0.6803
  882MOL0     C18968  10.708   5.933   2.417 -0.5754  0.0761 -0.9067
  882MOL0     C18969  10.820   6.003   2.477  0.4358 -0.1156  0.1732
  882MOL0     O18970  10.925   6.025   2.389 -0.0216  0.8310  0.8461
  882MOL0     C18971  11.033   6.102   2.429  0.4684 -0.3577 -0.6345
  882MOL0     C18972  11.118   6.137   2.293 -0.2524  0.1985 -0.5733
  882MOL0     C18973  11.173   6.029   2.198 -0.0305  0.4935 -0.0835
  882MOL0     C18974  11.282   6.080   2.107  0.7205 -0.1411  0.8588
  882MOL0     C18975  11.325   5.984   2.008  0.6821  0.5715 -0.6285
  882MOL0     C18976  11.449   6.034   1.944 -0.2856  0.6079  0.1031
  882MOL0     C18977  11.461   5.982   1.804  0.5098 -0.5153  0.2738
  882MOL0     C18978  11.603   6.001   1.743  0.6393 -0.2248 -1.0310
  882MOL0    Cl18979  11.717   5.893   1.849 -0.5015 -0.2057  0.2220
  882MOL0     C18980  10.805   6.048   2.605 -0.0270 -0.4618 -0.5063
  882MOL0     C18981  10.686   6.031   2.675 -0.3292  0.3153 -0.4533
  882MOL0     O18982  10.322   6.008   2.608 -0.1853  0.1897 -0.0102
  882MOL0     C18983  10.316   5.769   2.884 -0.5142 -0.4434 -0.0201
  882MOL0     C18984  10.225   5.724   2.982  0.9521 -0.1046  0.0798
  882MOL0     N18985   9.661   5.275   2.965 -0.1240  0.0006  0.2334
  882MOL0     N18986   9.579   5.174   2.954 -0.4087 -0.1545  1.1254
  882MOL0     C18987   8.433   5.341   2.515  0.1930  0.8672  0.0115
  882MOL0     C18988   8.305   5.384   2.477  0.8459  0.3361 -0.0741
  882MOL0     C18989   7.951   5.407   2.167  0.0801 -0.1298 -0.5516
  882MOL0     C18990   7.949   5.442   2.029  0.4309 -0.0676 -0.6896
  882MOL0     C18991   7.828   5.496   1.972 -0.6358  0.1769  0.5692
  882MOL0     C18992   7.736   5.558   2.046  0.0654 -0.6352 -0.1763
  882MOL0     O18993   7.641   5.632   1.976  1.2309 -0.4388 -0.0649
  882MOL0     C18994   7.571   5.745   2.035  0.7500  0.8646 -0.0171
  882MOL0     C18995   7.426   5.694   2.060 -0.1348 -0.0614  0.1800
  882MOL0     C18996   7.347   5.787   2.152 -0.8202  0.6257 -0.1105
  882MOL0     C18997   7.211   5.734   2.175  0.2117  0.6466  0.0016
  882MOL0     C18998   7.213   5.607   2.241 -0.1125  1.2525  0.3527
  882MOL0     C18999   7.223   5.504   2.304  0.5227 -1.3071  0.8039
  882MOL0     C19000   7.741   5.542   2.185 -1.0168 -0.0684 -0.2391
  882MOL0     C19001   7.836   5.458   2.249 -0.7786  0.8222 -0.7059
  882MOL0     C19002   7.836   5.449   2.401  0.0022  0.3268  0.7997
  882MOL0     H19003   8.185   5.098   2.352  0.5953  0.7099 -0.9227
  882MOL0     H19004   8.404   5.019   2.402  0.5130  0.0082  1.6897
  882MOL0     H19005   8.528   4.969   2.566  1.6384 -0.9244  1.7962
  882MOL0     H19006   8.674   4.992   2.460  1.3129  1.8686 -0.7316
  882MOL0     H19007   8.727   4.891   2.676  0.9736 -0.2593 -5.6271
  882MOL0     H19008   8.659   5.038   2.760  2.5125  0.2013  1.1750
  882MOL0     H19009   8.833   5.164   2.656 -1.8636 -0.4517  2.7477
  882MOL0     H19010   8.883   5.041   2.550 -0.5777  1.4957  0.1420
  882MOL0     H19011   8.895   5.050   2.858 -2.0022 -3.6235  1.4423
  882MOL0     H19012   8.917   4.900   2.767 -0.9859  0.4655 -0.4541
  882MOL0     H19013   9.105   5.011   2.644 -0.5078 -1.2295  0.0143
  882MOL0     H19014   9.085   5.153   2.764 -0.8930  0.9894 -1.4852
  882MOL0     H19015   9.147   4.977   2.945  1.6390 -2.1644 -0.0251
  882MOL0     H19016   9.179   4.873   2.810 -0.7870 -1.0347  1.4430
  882MOL0     H19017   9.340   5.067   2.719  1.2598 -1.6595  0.0389
  882MOL0     H19018   9.396   4.946   2.843  1.6979  1.8395  1.4114
  882MOL0     H19019   9.259   5.200   2.924 -0.4594 -0.0734 -2.9465
  882MOL0     H19020   9.344   5.086   3.017  1.3439  0.8359  0.1546
  882MOL0     H19021   9.393   5.416   2.837 -1.1097 -1.2196 -1.2459
  882MOL0     H19022   9.636   5.583   2.837  1.2357  0.0959  0.1069
  882MOL0     H19023   9.545   5.576   2.989  0.1536 -0.7706  0.8024
  882MOL0     H19024   9.754   5.551   3.113  2.9435 -0.9203 -0.0469
  882MOL0     H19025   9.843   5.500   2.968  2.3079  0.3110  1.2938
  882MOL0     H19026   9.683   5.768   2.974  0.4622  0.5456  2.3983
  882MOL0     H19027   9.818   5.713   2.867  0.1488  0.0889  0.1471
  882MOL0     H19028   9.840   5.771   3.170 -2.6795  2.9603 -0.6952
  882MOL0     H19029   9.885   5.887   3.045  1.7551  0.0700  0.7177
  882MOL0     H19030   9.940   5.881   2.846  0.6360  0.4891  2.7287
  882MOL0     H19031  10.126   5.978   2.714 -1.0533 -0.8243 -0.5816
  882MOL0     H19032  10.523   5.833   2.449 -1.8659  2.0074 -1.3528
  882MOL0     H19033  10.708   5.902   2.313 -1.5874 -0.6016 -0.7211
  882MOL0     H19034  10.990   6.184   2.488 -1.4541 -3.7959  3.2731
  882MOL0     H19035  11.100   6.048   2.496 -0.5930 -0.5793  0.2762
  882MOL0     H19036  11.050   6.198   2.233 -0.7860  0.1400 -0.0332
  882MOL0     H19037  11.198   6.203   2.327 -1.7672  2.9721 -2.0359
  882MOL0     H19038  11.210   5.941   2.253 -2.9345 -1.3879 -0.8873
  882MOL0     H19039  11.097   5.986   2.131 -0.8653  1.0124  0.5104
  882MOL0     H19040  11.368   6.108   2.169  1.8281  2.3915 -1.5970
  882MOL0     H19041  11.256   6.174   2.057  2.7902  0.0182 -0.0113
  882MOL0     H19042  11.259   5.954   1.926  2.7132  0.0990 -2.1527
  882MOL0     H19043  11.358   5.892   2.057  0.6248 -1.4750 -4.0855
  882MOL0     H19044  11.450   6.143   1.937 -2.8136  0.6165 -1.6790
  882MOL0     H19045  11.537   6.007   2.004  0.0819 -1.6531 -1.3397
  882MOL0     H19046  11.395   6.044   1.743  2.6894  3.6921  1.7636
  882MOL0     H19047  11.430   5.877   1.798 -1.1922 -0.2248  2.7287
  882MOL0     H19048  11.603   5.962   1.641  1.0587  2.3899 -2.1337
  882MOL0     H19049  11.619   6.110   1.744  0.6045 -0.2068 -1.7744
  882MOL0     H19050  10.875   6.105   2.665  2.5390 -2.5221 -1.3923
  882MOL0     H19051  10.677   6.064   2.778  0.4442  0.9760 -0.5920
  882MOL0     H19052  10.412   5.720   2.891 -1.2714 -1.9698  0.0448
  882MOL0     H19053  10.274   5.664   3.058 -0.9135 -2.5052 -0.4741
  882MOL0     H19054   8.512   5.395   2.567 -1.4446  1.6455  1.8368
  882MOL0     H19055   8.261   5.481   2.497  0.8715  0.2273  0.5058
  882MOL0     H19056   8.039   5.415   1.974  0.4555 -1.9482  0.2029
  882MOL0     H19057   7.833   5.489   1.864  2.1895  0.5489  0.5873
  882MOL0     H19058   7.570   5.833   1.969 -2.8964  3.8305  3.4627
  882MOL0     H19059   7.616   5.761   2.133 -2.7412 -3.5293  2.6800
  882MOL0     H19060   7.448   5.606   2.120  3.0271  2.5744  3.3901
  882MOL0     H19061   7.374   5.685   1.965 -0.0987 -3.6293  0.3906
  882MOL0     H19062   7.344   5.886   2.105  0.5121  1.5680  1.6758
  882MOL0     H19063   7.402   5.800   2.246  0.2561 -3.8602  0.0980
  882MOL0     H19064   7.145   5.808   2.222  0.5354  2.9984 -2.8803
  882MOL0     H19065   7.160   5.725   2.078 -2.0503  1.5559  1.0112
  882MOL0     H19066   7.237   5.413   2.358  1.1636 -1.0220  1.1357
  882MOL0     H19067   7.673   5.600   2.248  0.6489  1.1812  0.4901
  882MOL0     H19068   7.915   5.517   2.432 -0.8240  2.3108 -1.2093
  882MOL0     H19069   7.738   5.474   2.444 -0.7378  0.9217 -1.1517
  882MOL0     H19070   7.859   5.347   2.434  2.4838  0.9786  1.2136
  883MOL0     O19071   1.975   0.012   6.390  0.4525  0.6091  0.2126
  883MOL0     C19072   1.955  -0.084   6.314  0.1404  0.7035 -0.9682
  883MOL0     O19073   2.047  -0.174   6.269 -0.1047 -0.1407  0.3541
  883MOL0     C19074   2.176  -0.153   6.320 -0.2035  0.2171 -0.0900
  883MOL0     C19075   2.284  -0.150   6.237 -0.0580 -0.6337 -0.0619
  883MOL0     C19076   2.411  -0.153   6.296  0.4825 -0.6466 -0.6239
  883MOL0     C19077   2.429  -0.169   6.436 -0.7164  0.1134 -0.2907
  883MOL0     O19078   2.541  -0.199   6.499 -0.3464 -0.3177  0.2806
  883MOL0     C19079   2.553  -0.341   6.503  0.6019  0.0297 -0.5124
  883MOL0     C19080   2.701  -0.379   6.477  0.6841 -0.4903 -1.4873
  883MOL0     C19081   2.739  -0.347   6.332 -0.2343  0.2114  0.7960
  883MOL0     C19082   2.894  -0.372   6.320  0.6968  0.6650  0.3309
  883MOL0     C19083   2.954  -0.309   6.192 -0.2846  0.1126  0.7261
  883MOL0     C19084   3.101  -0.337   6.179  0.2723  0.4493  0.4409
  883MOL0     C19085   3.148  -0.248   6.068  0.5753 -0.2345  0.0256
  883MOL0     C19086   3.299  -0.267   6.038  0.1759 -0.0628  0.0972
  883MOL0     N19087   3.340  -0.165   5.951  0.0903 -0.4450  0.3547
  883MOL0     C19088   3.342  -0.178   5.812  0.0192  0.2761  0.3578
  883MOL0     C19089   3.379  -0.059   5.773  0.4628  0.3249 -0.4469
  883MOL0     C19090   3.368  -0.023   5.628  0.8686  0.4275  0.1541
  883MOL0     C19091   3.494  -0.037   5.546  0.8268  0.9608 -0.3905
  883MOL0     C19092   3.466  -0.015   5.395 -0.4944  0.2750 -0.1783
  883MOL0     C19093   3.590  -0.030   5.318  1.0092  0.2310  0.6660
  883MOL0     O19094   3.632  -0.170   5.313  1.0171  0.5600  0.4085
  883MOL0     C19095   3.761  -0.178   5.293  0.5120 -0.1285 -0.0177
  883MOL0     C19096   3.827  -0.107   5.188  0.0022  0.3445 -0.2792
  883MOL0     C19097   3.963  -0.124   5.168  0.1871 -0.9247 -0.2452
  883MOL0     C19098   4.034  -0.209   5.246 -0.0995  0.2648 -0.4433
  883MOL0     C19099   4.178  -0.233   5.231  0.3410 -0.7985  0.1867
  883MOL0     O19100   4.223  -0.358   5.251  0.5759 -0.3473  0.9239
  883MOL0     C19101   4.353  -0.390   5.272  0.8457  0.5805  0.4932
  883MOL0     C19102   4.373  -0.523   5.294 -0.0077  0.8384 -0.0769
  883MOL0     C19103   4.491  -0.578   5.324 -0.5614 -0.2481 -0.5356
  883MOL0     C19104   4.604  -0.493   5.342  0.4375 -0.3195 -0.5033
  883MOL0     O19105   4.735  -0.529   5.374  1.4540  0.1024 -0.4881
  883MOL0     C19106   4.762  -0.601   5.494 -0.2610 -0.0657  0.2662
  883MOL0     C19107   4.740  -0.755   5.494  0.2273  0.6246 -0.1740
  883MOL0     C19108   4.737  -0.814   5.640  0.3135 -0.0718  0.1840
  883MOL0     C19109   4.713  -0.962   5.652  0.2517  0.3857 -0.2292
  883MOL0     C19110   4.570  -1.030   5.626  0.0013 -0.4333  0.6491
  883MOL0     C19111   4.481  -1.001   5.743  0.3450  0.8431 -0.8517
  883MOL0     C19112   4.336  -1.049   5.707  0.1950  0.3514  0.0271
  883MOL0     C19113   4.236  -1.025   5.816 -0.4101 -0.1987 -0.5244
  883MOL0    Cl19114   4.260  -1.171   5.935 -0.2474 -0.1539  0.1433
  883MOL0     C19115   4.583  -0.358   5.320 -0.6707  0.5888 -0.4428
  883MOL0     C19116   4.465  -0.304   5.292  0.0594 -0.0210 -0.6353
  883MOL0     O19117   4.245  -0.133   5.216 -0.1984  0.3437  0.6418
  883MOL0     C19118   3.967  -0.296   5.342  0.0374  1.0183  0.3279
  883MOL0     C19119   3.832  -0.281   5.365 -0.9232 -0.3052 -0.0820
  883MOL0     N19120   3.402   0.023   5.884  0.1447  0.2672  0.2010
  883MOL0     N19121   3.385  -0.044   5.993 -0.2222  0.7842  1.0193
  883MOL0     C19122   2.327  -0.152   6.523  0.5227 -0.2082  0.3120
  883MOL0     C19123   2.201  -0.145   6.467 -0.2984 -0.0000  0.4354
  883MOL0     C19124   1.818  -0.106   6.254 -0.6238  0.8212  0.7670
  883MOL0     C19125   1.797  -0.218   6.170  0.5832 -0.1436 -1.0060
  883MOL0     C19126   1.672  -0.250   6.138  0.2697 -0.4886 -0.6134
  883MOL0     C19127   1.560  -0.187   6.174  0.2794 -0.9198  0.3410
  883MOL0     O19128   1.437  -0.240   6.133 -0.2988  0.1115 -0.2582
  883MOL0     C19129   1.311  -0.174   6.159  0.5060 -0.5720 -0.1105
  883MOL0     C19130   1.186  -0.228   6.091 -0.0349  0.1462 -0.0788
  883MOL0     C19131   1.063  -0.146   6.132 -0.1621 -0.3329  0.0904
  883MOL0     C19132   0.984  -0.112   6.009  0.7195  0.1331 -0.5133
  883MOL0     C19133   0.879  -0.018   6.036 -0.1968  0.5797  0.4147
  883MOL0     C19134   0.788   0.058   6.039  1.0932 -0.5638 -0.3380
  883MOL0     C19135   1.568  -0.082   6.256 -0.2256  0.6165 -0.4278
  883MOL0     C19136   1.699  -0.031   6.279  0.7824  0.4627 -0.3587
  883MOL0     C19137   1.690   0.091   6.372 -0.3514 -0.5525  0.7439
  883MOL0     H19138   2.271  -0.149   6.130 -0.6515  2.0364 -0.0242
  883MOL0     H19139   2.495  -0.166   6.229 -1.0320 -2.6133 -2.2700
  883MOL0     H19140   2.532  -0.365   6.608  0.7140  1.1090 -0.2310
  883MOL0     H19141   2.481  -0.404   6.451  0.1531 -1.3804  1.6586
  883MOL0     H19142   2.724  -0.485   6.485 -1.0014 -0.8219 -0.7984
  883MOL0     H19143   2.755  -0.320   6.552 -1.3663 -0.2119 -0.1568
  883MOL0     H19144   2.719  -0.243   6.307 -0.6431 -0.2746 -1.0038
  883MOL0     H19145   2.697  -0.410   6.253  2.7703  1.3346 -1.9324
  883MOL0     H19146   2.931  -0.323   6.411 -0.9221 -1.3141  2.1832
  883MOL0     H19147   2.920  -0.478   6.322  1.0200  0.7503  0.9113
  883MOL0     H19148   2.896  -0.350   6.109  1.0462 -2.1960  0.8358
  883MOL0     H19149   2.946  -0.200   6.200 -1.8400  0.0670  0.0658
  883MOL0     H19150   3.157  -0.313   6.270  0.4510 -2.1491  1.0822
  883MOL0     H19151   3.114  -0.443   6.156  2.1789  0.4963  1.1276
  883MOL0     H19152   3.131  -0.146   6.103 -1.8329 -0.2651 -0.8496
  883MOL0     H19153   3.092  -0.267   5.975  2.0863 -3.7695 -0.3305
  883MOL0     H19154   3.356  -0.262   6.131 -1.0327  0.1154  0.8600
  883MOL0     H19155   3.312  -0.365   5.991  0.8030  0.6052 -1.1912
  883MOL0     H19156   3.309  -0.268   5.760 -1.7302  0.8873  0.3326
  883MOL0     H19157   3.294  -0.086   5.579 -0.1596  1.0790  0.8230
  883MOL0     H19158   3.325   0.077   5.629 -3.9112 -1.2648  3.0754
  883MOL0     H19159   3.575   0.030   5.577  0.2820  0.9177  1.2140
  883MOL0     H19160   3.528  -0.140   5.558 -3.7268 -0.7216 -0.1036
  883MOL0     H19161   3.440   0.089   5.374 -1.4339 -0.5880 -3.8345
  883MOL0     H19162   3.385  -0.075   5.353 -0.8682  0.8810 -0.3292
  883MOL0     H19163   3.661   0.033   5.372  3.7564 -0.9826 -1.2450
  883MOL0     H19164   3.557   0.008   5.221 -4.4934 -0.5801  1.9378
  883MOL0     H19165   3.796  -0.043   5.105  0.4263  2.2904  0.9898
  883MOL0     H19166   3.995  -0.068   5.081 -0.0711 -0.2906  0.0572
  883MOL0     H19167   4.284  -0.585   5.298 -0.1076  0.9962  0.2565
  883MOL0     H19168   4.495  -0.685   5.342  0.3575 -0.1261  0.0685
  883MOL0     H19169   4.867  -0.583   5.517 -0.4701  0.3866  0.9000
  883MOL0     H19170   4.697  -0.557   5.571 -1.2052  1.9614 -1.5669
  883MOL0     H19171   4.634  -0.774   5.477  0.0620  2.4964 -1.5586
  883MOL0     H19172   4.797  -0.813   5.421  0.5228  0.0928  0.4672
  883MOL0     H19173   4.834  -0.787   5.684 -0.5646  1.2552  1.4132
  883MOL0     H19174   4.658  -0.762   5.696 -0.8621 -1.9451  0.3438
  883MOL0     H19175   4.744  -0.984   5.755 -2.0199 -0.9836  0.2288
  883MOL0     H19176   4.770  -1.010   5.572  1.3604  0.4358  0.5063
  883MOL0     H19177   4.569  -1.137   5.607  1.5507 -0.2695 -0.6111
  883MOL0     H19178   4.546  -0.972   5.536  2.7634 -0.0596  0.0595
  883MOL0     H19179   4.526  -1.054   5.828  2.7000  2.1152 -1.2010
  883MOL0     H19180   4.483  -0.894   5.765  1.7580  0.7189 -0.2670
  883MOL0     H19181   4.341  -1.156   5.688 -1.9010  0.7470 -3.7224
  883MOL0     H19182   4.316  -1.004   5.609  1.7474 -2.2083 -1.5635
  883MOL0     H19183   4.259  -0.931   5.866 -4.6132  0.8090 -0.1109
  883MOL0     H19184   4.136  -1.033   5.773  1.0235 -4.0246 -3.8333
  883MOL0     H19185   4.676  -0.301   5.322 -0.0357 -0.3963 -1.1264
  883MOL0     H19186   4.457  -0.196   5.295 -1.8914 -0.1390  2.0549
  883MOL0     H19187   4.011  -0.379   5.397 -1.7793  0.8552  1.6297
  883MOL0     H19188   3.777  -0.352   5.425 -1.6524  1.4112  1.3752
  883MOL0     H19189   2.339  -0.166   6.630 -2.3443 -2.1868  0.4826
  883MOL0     H19190   2.123  -0.154   6.542 -1.2088  0.5072 -0.4222
  883MOL0     H19191   1.881  -0.277   6.134  1.9609  2.2915 -2.0095
  883MOL0     H19192   1.660  -0.328   6.064 -1.8596  2.2311 -3.3684
  883MOL0     H19193   1.323  -0.068   6.136  3.3040 -0.6194  0.7133
  883MOL0     H19194   1.283  -0.184   6.264 -0.8165  2.7809 -0.0282
  883MOL0     H19195   1.175  -0.334   6.117  6.0200 -0.4612  1.3994
  883MOL0     H19196   1.199  -0.218   5.983 -0.5042  0.1020 -0.1415
  883MOL0     H19197   1.095  -0.054   6.182  2.1446 -0.5399 -0.8455
  883MOL0     H19198   1.004  -0.198   6.208  0.1169  2.0081  2.0487
  883MOL0     H19199   1.043  -0.061   5.932 -0.3850  1.1957 -0.6830
  883MOL0     H19200   0.948  -0.203   5.960 -1.3611  0.5778  0.1248
  883MOL0     H19201   0.711   0.132   6.048  3.5618  1.9142  2.0005
  883MOL0     H19202   1.475  -0.039   6.292  0.0530  0.2098  0.8304
  883MOL0     H19203   1.591   0.134   6.391 -0.8394 -1.0023 -0.6700
  883MOL0     H19204   1.734   0.055   6.465  0.1066 -0.6111  0.5103
  883MOL0     H19205   1.743   0.182   6.341 -1.8153  0.3553  0.8138
  884MOL0     O19206   1.904   8.190   8.713 -0.3604 -0.7459  0.1320
  884MOL0     C19207   1.909   8.111   8.802  0.4254 -0.5530 -0.6025
  884MOL0     O19208   1.988   8.004   8.806 -0.5360 -0.5643  0.0526
  884MOL0     C19209   2.086   7.997   8.705 -0.0334 -0.9233 -0.0654
  884MOL0     C19210   2.221   8.029   8.731 -0.7019  0.6557 -0.5186
  884MOL0     C19211   2.319   8.038   8.629  0.0749  0.0675  0.2094
  884MOL0     C19212   2.284   7.999   8.499  0.6057 -0.8943 -1.3728
  884MOL0     O19213   2.360   8.003   8.389  0.2297 -0.3160 -0.4142
  884MOL0     C19214   2.503   8.019   8.416  0.3835  0.3478 -0.5375
  884MOL0     C19215   2.593   7.926   8.321 -0.1071 -0.3288  0.3148
  884MOL0     C19216   2.545   7.772   8.316 -0.0716  0.2590 -0.3332
  884MOL0     C19217   2.543   7.730   8.160 -0.0305  0.0180 -0.2911
  884MOL0     C19218   2.687   7.721   8.100 -0.9371  0.2031 -0.6776
  884MOL0     C19219   2.780   7.619   8.176 -0.1077  0.3326  0.4137
  884MOL0     C19220   2.921   7.638   8.116 -0.1230 -0.2902 -0.0937
  884MOL0     C19221   2.993   7.776   8.159  0.1835 -0.7281  0.5742
  884MOL0     N19222   3.137   7.771   8.136 -0.0967  0.5592 -0.0035
  884MOL0     C19223   3.191   7.757   8.017 -0.1659 -0.2197  0.7013
  884MOL0     C19224   3.327   7.764   8.031  0.1693  0.4262 -0.6699
  884MOL0     C19225   3.433   7.729   7.928  0.7327  0.3618 -0.8841
  884MOL0     C19226   3.411   7.578   7.892  0.2291 -0.2004 -0.6810
  884MOL0     C19227   3.518   7.517   7.796  0.2445  0.4174 -1.1579
  884MOL0     C19228   3.479   7.372   7.754  0.1522 -0.0049  0.2082
  884MOL0     O19229   3.391   7.393   7.642  0.2618  0.2619  0.7173
  884MOL0     C19230   3.347   7.287   7.569  0.2509  0.0264  0.4486
  884MOL0     C19231   3.275   7.317   7.451 -0.0191 -0.2101  0.3829
  884MOL0     C19232   3.236   7.218   7.365  0.5983  0.6543 -1.0843
  884MOL0     C19233   3.265   7.081   7.388 -0.6163  0.3431 -1.0859
  884MOL0     C19234   3.245   6.993   7.272  0.0347  0.0647 -0.4533
  884MOL0     O19235   3.232   7.046   7.149 -1.0279  0.7146  1.1525
  884MOL0     C19236   3.203   6.947   7.058 -0.2165 -0.4135  0.0824
  884MOL0     C19237   3.302   6.862   7.012  0.0440  0.6620 -0.1463
  884MOL0     C19238   3.272   6.783   6.906  0.5962  1.3437 -0.6126
  884MOL0     C19239   3.142   6.765   6.852  0.5795  0.3184  0.0263
  884MOL0     O19240   3.109   6.676   6.757 -0.9237 -0.1770 -0.4323
  884MOL0     C19241   2.993   6.612   6.763  1.1081 -0.0192 -0.0872
  884MOL0     C19242   2.981   6.537   6.631 -0.4909  0.0965 -0.3139
  884MOL0     C19243   2.834   6.492   6.595 -0.4680 -0.3846  0.6900
  884MOL0     C19244   2.773   6.410   6.705  0.1706  0.1670  0.6957
  884MOL0     C19245   2.679   6.304   6.653  0.6329  0.0684 -0.4708
  884MOL0     C19246   2.568   6.342   6.551  1.1292 -0.1094  0.6607
  884MOL0     C19247   2.457   6.415   6.626 -0.4073 -0.0513 -0.1911
  884MOL0     C19248   2.355   6.469   6.534  0.2597 -0.1392 -0.1135
  884MOL0    Cl19249   2.261   6.334   6.459  0.2602  0.6635  0.3666
  884MOL0     C19250   3.040   6.856   6.901  0.3624  0.7756 -0.0766
  884MOL0     C19251   3.069   6.949   6.996 -0.6930  0.2900 -0.4719
  884MOL0     O19252   3.205   6.887   7.308 -0.4840  0.2558  0.2568
  884MOL0     C19253   3.334   7.043   7.508  0.3113 -0.7183  1.1590
  884MOL0     C19254   3.376   7.155   7.594  0.2649  0.0855 -0.5197
  884MOL0     N19255   3.350   7.793   8.164 -0.0908  0.2933 -0.7295
  884MOL0     N19256   3.235   7.795   8.229 -0.0979  0.8299  0.1965
  884MOL0     C19257   2.152   7.965   8.474  0.9639  0.1594 -0.6271
  884MOL0     C19258   2.055   7.967   8.574 -0.3654  0.0113 -0.8754
  884MOL0     C19259   1.814   8.127   8.918 -0.3796  0.6244 -0.5034
  884MOL0     C19260   1.739   8.248   8.931 -0.1958  0.1151 -0.2322
  884MOL0     C19261   1.658   8.272   9.043  0.1789 -0.6115 -0.0845
  884MOL0     C19262   1.633   8.172   9.140  0.6454 -0.6899 -0.4861
  884MOL0     O19263   1.549   8.193   9.249  0.1812 -0.1551  0.0253
  884MOL0     C19264   1.487   8.324   9.264  0.0454  0.4247  0.3614
  884MOL0     C19265   1.548   8.417   9.357  0.0850 -0.5004  0.2148
  884MOL0     C19266   1.705   8.419   9.336  0.0380 -0.3375  0.5011
  884MOL0     C19267   1.769   8.506   9.454  0.0157  0.2645  0.4294
  884MOL0     C19268   1.909   8.522   9.416 -0.4935 -0.2221  0.5006
  884MOL0     C19269   2.024   8.525   9.388 -0.0751  0.1013 -0.3753
  884MOL0     C19270   1.688   8.050   9.124 -1.0078  1.0787 -0.2434
  884MOL0     C19271   1.787   8.026   9.026  0.5382  0.5062 -0.0532
  884MOL0     C19272   1.854   7.892   9.011  0.0309  0.3905  0.5272
  884MOL0     H19273   2.251   8.049   8.833 -2.9180 -2.1612  0.8468
  884MOL0     H19274   2.417   8.078   8.655 -1.2954  3.8519  0.0876
  884MOL0     H19275   2.529   8.124   8.403 -0.6711  0.3232 -3.3224
  884MOL0     H19276   2.519   7.970   8.513 -2.8700  1.1874  0.5458
  884MOL0     H19277   2.697   7.907   8.351  0.3880  0.3716 -0.8755
  884MOL0     H19278   2.589   7.974   8.223  1.0314 -0.3328  0.2490
  884MOL0     H19279   2.441   7.750   8.343  0.6987  0.7980  3.7393
  884MOL0     H19280   2.601   7.706   8.383  0.2614 -0.3100 -1.1599
  884MOL0     H19281   2.492   7.633   8.159  1.1239 -0.6144 -0.3026
  884MOL0     H19282   2.484   7.794   8.096 -2.0028 -1.9130 -0.5266
  884MOL0     H19283   2.679   7.695   7.994 -2.4219 -0.2236 -0.4866
  884MOL0     H19284   2.734   7.820   8.098 -1.7400  0.6282  0.2585
  884MOL0     H19285   2.785   7.647   8.282  0.1334 -2.6860  1.3124
  884MOL0     H19286   2.744   7.517   8.163 -0.2703  0.2200  1.6513
  884MOL0     H19287   2.921   7.640   8.006  1.5831  3.7187 -0.1744
  884MOL0     H19288   2.983   7.557   8.155  1.3362 -0.0875 -1.8438
  884MOL0     H19289   2.945   7.850   8.094 -0.7467 -3.1893 -1.7371
  884MOL0     H19290   2.970   7.795   8.264 -1.0678 -0.1006  0.2038
  884MOL0     H19291   3.128   7.756   7.929 -0.9617  4.4318  0.9885
  884MOL0     H19292   3.413   7.783   7.835  0.0532 -0.6136 -1.3195
  884MOL0     H19293   3.537   7.740   7.960  0.6829 -0.2489 -0.5009
  884MOL0     H19294   3.417   7.517   7.982  4.0653  0.3106 -0.4152
  884MOL0     H19295   3.314   7.567   7.844  0.8082  0.4648 -2.0727
  884MOL0     H19296   3.619   7.514   7.837  0.1202  2.3528 -0.6102
  884MOL0     H19297   3.532   7.572   7.703  3.8618 -0.9506 -1.5844
  884MOL0     H19298   3.421   7.328   7.836  0.8629 -0.5756  0.4052
  884MOL0     H19299   3.571   7.324   7.720  0.2532  1.2211 -1.3712
  884MOL0     H19300   3.249   7.422   7.441  2.9889  0.4384 -1.6794
  884MOL0     H19301   3.183   7.257   7.279 -2.4229  1.0964  0.8319
  884MOL0     H19302   3.398   6.859   7.064  1.1077 -1.1605 -2.0134
  884MOL0     H19303   3.352   6.721   6.868 -0.4159 -0.2392 -0.2668
  884MOL0     H19304   2.991   6.531   6.836 -2.1882  1.1183  1.2525
  884MOL0     H19305   2.900   6.670   6.770 -1.8631 -4.0258 -1.8545
  884MOL0     H19306   3.024   6.606   6.558  1.4342 -2.6857 -2.0365
  884MOL0     H19307   3.053   6.455   6.630  0.7125  0.9330  3.2326
  884MOL0     H19308   2.770   6.579   6.576  1.4300  0.9887  0.2018
  884MOL0     H19309   2.847   6.443   6.498 -1.1936  1.4253 -0.3645
  884MOL0     H19310   2.717   6.476   6.772  2.7407  1.6424  1.5243
  884MOL0     H19311   2.841   6.357   6.772 -0.4640  0.4884  1.6144
  884MOL0     H19312   2.636   6.244   6.733  0.0287 -1.5828 -1.9633
  884MOL0     H19313   2.745   6.238   6.596  1.6917  0.5042  0.2118
  884MOL0     H19314   2.612   6.403   6.472  0.2386 -0.8163 -0.4096
  884MOL0     H19315   2.533   6.259   6.488  1.9930  0.9005 -1.2207
  884MOL0     H19316   2.503   6.497   6.681  2.9992 -1.7616 -0.2414
  884MOL0     H19317   2.414   6.346   6.698 -0.7733  0.3136 -0.0591
  884MOL0     H19318   2.293   6.531   6.600 -0.3807  1.2771 -1.9645
  884MOL0     H19319   2.388   6.537   6.456 -1.7266 -0.7117 -1.5478
  884MOL0     H19320   2.935   6.857   6.872  0.0158  0.3498  1.1188
  884MOL0     H19321   2.981   7.007   7.021 -0.9568 -1.8379  4.5407
  884MOL0     H19322   3.361   6.941   7.531 -1.6833 -1.9270 -1.4141
  884MOL0     H19323   3.442   7.137   7.680 -0.3217 -1.1719 -0.3037
  884MOL0     H19324   2.126   7.948   8.370 -1.1519 -2.1303  0.1906
  884MOL0     H19325   1.949   7.948   8.560 -0.1352 -1.0830 -1.1761
  884MOL0     H19326   1.754   8.321   8.852 -0.4566  2.1660  1.5219
  884MOL0     H19327   1.615   8.372   9.043  2.1688  0.3580 -2.6904
  884MOL0     H19328   1.390   8.290   9.302  0.3689 -1.5594 -0.4706
  884MOL0     H19329   1.475   8.380   9.171  3.3874  0.0605 -0.3918
  884MOL0     H19330   1.513   8.396   9.458 -1.3642 -0.4174 -0.2593
  884MOL0     H19331   1.511   8.518   9.342 -0.0309 -0.9550 -3.5065
  884MOL0     H19332   1.734   8.449   9.235 -0.3755 -1.2583  0.0966
  884MOL0     H19333   1.737   8.317   9.358  1.6402  0.5124  2.4256
  884MOL0     H19334   1.721   8.604   9.448 -0.6310  0.0027  1.1865
  884MOL0     H19335   1.752   8.449   9.546  1.0258 -1.1161 -0.2093
  884MOL0     H19336   2.122   8.542   9.347  0.3737 -2.4664 -0.4787
  884MOL0     H19337   1.673   7.971   9.197  0.5241 -1.4679 -2.4827
  884MOL0     H19338   1.963   7.893   9.021  0.2087 -2.4665 -0.1272
  884MOL0     H19339   1.819   7.822   9.088 -1.1419 -3.8752 -3.4276
  884MOL0     H19340   1.821   7.836   8.923 -0.3678 -1.9792  2.0775
  885MOL0     O19341   7.635  10.776   6.385  0.5489 -0.2162  0.1177
  885MOL0     C19342   7.626  10.804   6.264  0.5843 -0.5179 -0.1015
  885MOL0     O19343   7.721  10.879   6.196  0.4344  0.4787  0.1151
  885MOL0     C19344   7.829  10.939   6.257  0.0146 -0.4955 -0.5597
  885MOL0     C19345   7.915  10.892   6.355  0.0413  0.0493  0.2283
  885MOL0     C19346   8.024  10.977   6.397 -0.4804  0.0287  0.7371
  885MOL0     C19347   8.052  11.096   6.339  0.1318  0.9638 -0.3228
  885MOL0     O19348   8.170  11.157   6.390 -0.6173  0.6497 -0.1670
  885MOL0     C19349   8.189  11.291   6.335 -0.9170  0.1893  1.3031
  885MOL0     C19350   8.306  11.346   6.414  0.5748 -0.5960  0.5230
  885MOL0     C19351   8.434  11.254   6.399 -0.0112 -0.0813 -0.2188
  885MOL0     C19352   8.560  11.323   6.465  0.3189  0.1714 -0.3970
  885MOL0     C19353   8.677  11.225   6.499  0.1614  1.1587 -0.3139
  885MOL0     C19354   8.736  11.169   6.368  0.6025  0.2130 -0.5139
  885MOL0     C19355   8.858  11.086   6.417 -0.7309  0.5260 -0.0096
  885MOL0     C19356   8.977  11.181   6.443 -0.9414 -0.0930  0.5597
  885MOL0     N19357   9.035  11.260   6.330 -0.0463 -0.1275 -0.4763
  885MOL0     C19358   9.134  11.212   6.242  0.6106  0.2980  0.0133
  885MOL0     C19359   9.170  11.317   6.172 -0.4350  0.3539  0.5329
  885MOL0     C19360   9.285  11.322   6.077  0.9540 -0.4101 -0.5172
  885MOL0     C19361   9.382  11.431   6.122 -0.4986 -0.4031  0.4769
  885MOL0     C19362   9.476  11.380   6.235  0.6729  0.3334 -0.4681
  885MOL0     C19363   9.592  11.471   6.283  0.2861 -0.2290  0.5766
  885MOL0     O19364   9.659  11.406   6.395  0.7252 -0.7624 -0.5872
  885MOL0     C19365   9.767  11.327   6.376  0.0630  0.5370 -0.0884
  885MOL0     C19366   9.873  11.342   6.292 -0.1068  0.3058  0.5147
  885MOL0     C19367   9.981  11.253   6.291  0.6191 -0.2329  0.8138
  885MOL0     C19368   9.984  11.151   6.388  0.6697 -0.7188 -0.8854
  885MOL0     C19369  10.108  11.087   6.429  0.1394  0.3943 -0.5141
  885MOL0     O19370  10.221  11.143   6.378  0.1598  0.0170 -0.1673
  885MOL0     C19371  10.349  11.115   6.412  0.4578 -0.0381  0.3315
  885MOL0     C19372  10.446  11.128   6.309  0.7620  0.0794  0.3950
  885MOL0     C19373  10.579  11.118   6.338 -0.8003  0.4275  0.1080
  885MOL0     C19374  10.618  11.064   6.457  0.2316 -0.1877 -0.1267
  885MOL0     O19375  10.752  11.044   6.495 -0.1989  0.1925  0.2694
  885MOL0     C19376  10.833  10.999   6.390 -0.8107  0.2838 -0.6102
  885MOL0     C19377  10.971  10.966   6.445  0.4607  0.3492  0.3102
  885MOL0     C19378  11.036  11.090   6.506  0.4641 -0.0344  0.4376
  885MOL0     C19379  11.175  11.055   6.575 -0.5759  0.3479  0.8080
  885MOL0     C19380  11.243  11.166   6.650 -0.2848  0.4562 -0.7961
  885MOL0     C19381  11.354  11.241   6.576 -0.2835  0.2369 -0.8322
  885MOL0     C19382  11.495  11.180   6.595  0.6281  0.1988  0.5717
  885MOL0     C19383  11.595  11.275   6.527 -0.9037  0.1020 -0.2838
  885MOL0    Cl19384  11.756  11.203   6.564 -0.0947  0.6065 -0.1172
  885MOL0     C19385  10.526  11.044   6.564 -0.2224  0.4836  0.9525
  885MOL0     C19386  10.392  11.057   6.538  0.4186  0.0111 -0.5787
  885MOL0     O19387  10.098  10.989   6.507 -0.4569  0.5848 -0.4468
  885MOL0     C19388   9.868  11.124   6.460 -0.6909  0.5885 -0.1431
  885MOL0     C19389   9.758  11.214   6.450 -0.1489  0.2313  0.0154
  885MOL0     N19390   9.099  11.431   6.211  0.3454 -0.4598 -0.4865
  885MOL0     N19391   9.019  11.393   6.307  0.6725  1.1045 -0.5506
  885MOL0     C19392   7.966  11.147   6.248 -0.1720  0.3219  0.5463
  885MOL0     C19393   7.860  11.062   6.203  0.5634  0.5085 -0.6862
  885MOL0     C19394   7.506  10.779   6.188 -0.8045 -0.1720 -0.0123
  885MOL0     C19395   7.483  10.853   6.067 -0.2003  0.3907  0.3828
  885MOL0     C19396   7.360  10.835   6.002  0.1788  0.2749  0.0935
  885MOL0     C19397   7.269  10.738   6.042  0.3903 -0.4466  0.0977
  885MOL0     O19398   7.149  10.721   5.970 -0.0612  0.3251  0.2084
  885MOL0     C19399   7.066  10.840   5.965  0.2266  0.8327 -0.2911
  885MOL0     C19400   7.046  10.890   5.832 -0.4442 -0.3239  0.7022
  885MOL0     C19401   6.979  10.789   5.734 -0.1441  0.7582 -0.0262
  885MOL0     C19402   6.948  10.865   5.604  0.6277 -0.1963  0.3549
  885MOL0     C19403   6.819  10.932   5.621 -0.6591  0.0965 -0.2632
  885MOL0     C19404   6.712  10.987   5.648 -1.0630 -0.3906  0.5554
  885MOL0     C19405   7.291  10.668   6.154 -0.2405  0.0403  0.5872
  885MOL0     C19406   7.403  10.690   6.233  0.0515 -0.0521  0.2016
  885MOL0     C19407   7.412  10.604   6.364 -0.8306 -0.0546 -0.3258
  885MOL0     H19408   7.887  10.807   6.416  0.6532 -1.4705 -1.4893
  885MOL0     H19409   8.103  10.951   6.466  1.2078  0.5983 -0.9085
  885MOL0     H19410   8.208  11.283   6.227 -0.7899 -0.1541  1.3475
  885MOL0     H19411   8.101  11.353   6.357 -1.5487 -0.9612  2.1040
  885MOL0     H19412   8.289  11.361   6.521  2.3106 -1.3156  0.9268
  885MOL0     H19413   8.326  11.445   6.372  1.3653 -0.9517  0.0294
  885MOL0     H19414   8.450  11.235   6.293  0.2583  2.4046 -0.6912
  885MOL0     H19415   8.410  11.160   6.449 -1.7279  1.0555  1.2646
  885MOL0     H19416   8.600  11.402   6.400  0.1121  0.0065 -0.7281
  885MOL0     H19417   8.529  11.378   6.554 -1.3688 -1.2114 -0.0813
  885MOL0     H19418   8.748  11.281   6.560 -0.5314  2.0425 -0.2940
  885MOL0     H19419   8.649  11.142   6.564 -0.8527 -0.6142 -2.8465
  885MOL0     H19420   8.657  11.099   6.338  0.8616 -1.1540  1.7523
  885MOL0     H19421   8.761  11.248   6.297  2.2634  1.8121  1.7117
  885MOL0     H19422   8.888  11.019   6.335  4.4481 -1.5506  3.0925
  885MOL0     H19423   8.830  11.016   6.497  1.3758  0.8890  1.1098
  885MOL0     H19424   8.945  11.245   6.526 -1.8772 -1.5484  1.3462
  885MOL0     H19425   9.063  11.126   6.481 -0.5823  0.5604  0.7148
  885MOL0     H19426   9.177  11.114   6.221 -0.6520 -0.6536  1.6066
  885MOL0     H19427   9.327  11.221   6.075  2.6767  0.2457  0.3255
  885MOL0     H19428   9.244  11.330   5.976 -0.7598 -3.7763 -0.2500
  885MOL0     H19429   9.434  11.457   6.030 -1.2491 -5.1415 -1.5735
  885MOL0     H19430   9.325  11.515   6.161 -1.1313  0.0267 -1.2846
  885MOL0     H19431   9.520  11.285   6.202 -3.0500 -2.6479  2.1201
  885MOL0     H19432   9.413  11.348   6.319 -0.6577 -0.8178 -1.8511
  885MOL0     H19433   9.559  11.573   6.306 -0.5296 -0.1026 -0.9837
  885MOL0     H19434   9.661  11.489   6.200 -0.1937  2.2300  0.6439
  885MOL0     H19435   9.883  11.430   6.228 -0.9446 -0.2482 -0.4130
  885MOL0     H19436  10.062  11.273   6.223  0.0789 -0.3452  0.1259
  885MOL0     H19437  10.418  11.163   6.210  1.4523 -3.0204 -1.0208
  885MOL0     H19438  10.643  11.167   6.265  0.5867 -0.3268  0.7771
  885MOL0     H19439  10.793  10.910   6.341  0.9591 -0.9760  0.1210
  885MOL0     H19440  10.842  11.072   6.309 -1.5816  0.8932 -0.1579
  885MOL0     H19441  10.960  10.892   6.525  0.6435  2.2573  2.1752
  885MOL0     H19442  11.024  10.909   6.368 -1.7526 -3.1568  1.1641
  885MOL0     H19443  11.051  11.165   6.428  0.0693 -1.4201 -1.0374
  885MOL0     H19444  10.965  11.138   6.574  0.4107  0.6183 -0.0796
  885MOL0     H19445  11.241  11.013   6.498 -3.8080  0.2467 -2.1846
  885MOL0     H19446  11.153  10.978   6.650 -3.3071 -3.4344 -3.3142
  885MOL0     H19447  11.269  11.126   6.749 -1.3002 -0.6152 -0.9301
  885MOL0     H19448  11.169  11.242   6.676  2.6794  2.7369  1.6521
  885MOL0     H19449  11.317  11.245   6.474 -2.2625 -2.1795 -0.2887
  885MOL0     H19450  11.351  11.345   6.611  1.3169 -0.0663  0.3210
  885MOL0     H19451  11.488  11.084   6.543 -3.9938  0.7200 -0.1381
  885MOL0     H19452  11.527  11.166   6.699 -0.8787  0.2540  1.0614
  885MOL0     H19453  11.595  11.278   6.418  1.9249 -2.4657 -0.4944
  885MOL0     H19454  11.584  11.379   6.558 -0.9157 -0.3262  1.2143
  885MOL0     H19455  10.566  10.988   6.648  2.0014 -1.6360 -1.3372
  885MOL0     H19456  10.325  11.021   6.615  1.5243 -1.3394 -0.2012
  885MOL0     H19457   9.865  11.038   6.525 -0.9238 -0.3716 -1.3760
  885MOL0     H19458   9.679  11.189   6.521 -0.1904  1.2726  0.3455
  885MOL0     H19459   7.983  11.243   6.202 -1.5334  1.4386  2.2648
  885MOL0     H19460   7.782  11.099   6.137 -0.4859 -0.6434 -0.1255
  885MOL0     H19461   7.549  10.920   6.012 -2.0771 -1.0160 -4.0426
  885MOL0     H19462   7.371  10.869   5.899 -4.1673 -0.0356 -0.6301
  885MOL0     H19463   7.112  10.921   6.023 -0.5315 -0.7564  2.6965
  885MOL0     H19464   6.969  10.818   6.010  0.2385  1.1351 -0.1081
  885MOL0     H19465   7.144  10.917   5.795 -0.5467  1.0251  1.3652
  885MOL0     H19466   6.987  10.982   5.831 -1.2062 -0.7970 -0.9543
  885MOL0     H19467   6.897  10.733   5.779 -0.9901  0.3726 -1.9553
  885MOL0     H19468   7.062  10.719   5.720 -0.3982  0.5377 -0.4468
  885MOL0     H19469   7.030  10.933   5.581 -0.2664  0.6214 -0.5532
  885MOL0     H19470   6.932  10.792   5.524 -2.0018 -1.1996  1.6621
  885MOL0     H19471   6.623  11.035   5.683  0.1086  0.5393  2.4533
  885MOL0     H19472   7.205  10.606   6.175 -1.1711  1.5070  1.2563
  885MOL0     H19473   7.397  10.659   6.457  0.5870 -0.9036  0.4289
  885MOL0     H19474   7.341  10.521   6.366 -0.7330 -0.1238  0.6828
  885MOL0     H19475   7.515  10.570   6.368  0.1337  2.4723 -1.6141
  886MOL0     O19476  10.323   9.435   1.274  0.7953 -0.2504  0.4039
  886MOL0     C19477  10.218   9.495   1.255 -0.4102 -0.4933  0.6151
  886MOL0     O19478  10.198   9.616   1.186  0.3294  0.6271  0.1882
  886MOL0     C19479  10.293   9.696   1.143 -1.0621 -0.0317 -0.1355
  886MOL0     C19480  10.262   9.798   1.050  0.0880  0.0583 -0.4066
  886MOL0     C19481  10.358   9.882   0.992  0.7589  0.3588 -0.8120
  886MOL0     C19482  10.484   9.882   1.046 -0.4676 -0.2431 -0.4730
  886MOL0     O19483  10.573   9.970   0.996  0.4996  0.2191 -0.4051
  886MOL0     C19484  10.716   9.942   1.012  0.4817  0.7145 -0.2268
  886MOL0     C19485  10.791  10.044   0.927 -0.2469 -0.8108 -0.5004
  886MOL0     C19486  10.742  10.189   0.968 -0.8997 -0.6778  0.7848
  886MOL0     C19487  10.816  10.295   0.881 -0.0219  1.3099  0.2107
  886MOL0     C19488  10.818  10.435   0.944 -0.6172 -0.5477  0.1438
  886MOL0     C19489  10.901  10.533   0.872 -0.0940 -0.7144 -0.0216
  886MOL0     C19490  11.038  10.492   0.861 -0.2414  0.2039 -0.5739
  886MOL0     C19491  11.123  10.610   0.819 -0.2350 -0.7784 -0.0203
  886MOL0     N19492  11.267  10.584   0.782  0.2705 -0.2784  0.5690
  886MOL0     C19493  11.302  10.497   0.686  0.1568 -0.3955 -0.3858
  886MOL0     C19494  11.432  10.474   0.711 -0.7505 -0.4475  0.3918
  886MOL0     C19495  11.515  10.375   0.623  0.2440  0.5526  0.0075
  886MOL0     C19496  11.636  10.326   0.691  0.1673  0.2721  0.2323
  886MOL0     C19497  11.710  10.230   0.599  0.6203  0.1831  0.2272
  886MOL0     C19498  11.845  10.187   0.662 -0.4619  0.2179 -0.5142
  886MOL0     O19499  11.829  10.120   0.791 -0.6627 -0.3167  0.0726
  886MOL0     C19500  11.944  10.118   0.872  0.0251  0.6207  0.3703
  886MOL0     C19501  11.938  10.014   0.968 -0.1482  0.0021  0.4244
  886MOL0     C19502  12.035  10.007   1.069  0.3226 -0.6421 -0.6037
  886MOL0     C19503  12.146  10.088   1.061 -0.8236  0.2844 -0.6604
  886MOL0     C19504  12.247  10.068   1.166 -0.7236  1.2826 -0.1593
  886MOL0     O19505  12.377  10.106   1.145  0.2638 -0.4531  0.5506
  886MOL0     C19506  12.479  10.064   1.220  0.8375 -0.1565 -0.3724
  886MOL0     C19507  12.592  10.150   1.228  0.2624  0.7306 -0.5454
  886MOL0     C19508  12.703  10.123   1.306 -0.3640 -0.5410  0.4417
  886MOL0     C19509  12.724   9.990   1.356  0.5657  0.6533  0.0136
  886MOL0     O19510  12.847   9.943   1.394  0.4397 -0.5025 -0.0138
  886MOL0     C19511  12.934   9.960   1.283 -0.4672 -0.6613  0.0380
  886MOL0     C19512  13.017   9.839   1.247 -0.2034  0.3237 -0.5544
  886MOL0     C19513  13.097   9.854   1.130 -0.1625 -0.6031  0.6221
  886MOL0     C19514  13.169   9.719   1.087 -0.6377 -0.1730 -0.1911
  886MOL0     C19515  13.090   9.590   1.045 -0.4611  0.4113  0.0170
  886MOL0     C19516  13.198   9.492   1.001 -0.1891  0.0923 -0.5206
  886MOL0     C19517  13.142   9.364   0.922  0.7561 -0.3246 -0.6170
  886MOL0     C19518  13.175   9.379   0.774  0.3022  0.5684  0.2337
  886MOL0    Cl19519  13.119   9.226   0.701  0.3560  0.0754 -0.1442
  886MOL0     C19520  12.609   9.906   1.353  0.0790 -0.2420  0.5663
  886MOL0     C19521  12.490   9.942   1.287 -0.9295  0.6692  0.2286
  886MOL0     O19522  12.213  10.008   1.261 -0.4721  0.6930 -0.6132
  886MOL0     C19523  12.169  10.177   0.953 -0.1602 -0.6079  0.0749
  886MOL0     C19524  12.063  10.201   0.862 -0.1321  0.6013  0.4371
  886MOL0     N19525  11.481  10.552   0.819 -0.3760  0.2841  0.0630
  886MOL0     N19526  11.376  10.622   0.854  0.1484  0.0557  1.0103
  886MOL0     C19527  10.525   9.777   1.131 -0.4660  0.5104  0.2274
  886MOL0     C19528  10.432   9.683   1.174 -0.0590 -0.4896  0.1319
  886MOL0     C19529  10.103   9.448   1.328 -0.6469 -0.1799  0.1051
  886MOL0     C19530  10.025   9.546   1.393 -0.3932  0.3294 -0.1021
  886MOL0     C19531   9.905   9.505   1.449 -0.4696  0.5503 -0.3139
  886MOL0     C19532   9.851   9.374   1.434 -0.3145 -1.4610 -0.6786
  886MOL0     O19533   9.719   9.346   1.485  0.0509  0.0201  0.2851
  886MOL0     C19534   9.640   9.276   1.395 -0.3548 -1.4393 -0.4235
  886MOL0     C19535   9.494   9.338   1.394  0.2285 -0.5831  0.0001
  886MOL0     C19536   9.505   9.472   1.320  0.6514  0.5715 -0.4005
  886MOL0     C19537   9.363   9.514   1.295 -0.0940 -1.3297  0.2524
  886MOL0     C19538   9.353   9.640   1.216 -0.3412  0.0559  0.3783
  886MOL0     C19539   9.357   9.742   1.161  0.3192 -0.2141  0.6521
  886MOL0     C19540   9.929   9.287   1.364  0.7941  0.5439  0.1503
  886MOL0     C19541  10.053   9.318   1.316  0.9918  0.3732 -0.3506
  886MOL0     C19542  10.124   9.228   1.224 -0.1335  0.7009 -0.1317
  886MOL0     H19543  10.156   9.808   1.031 -0.1241 -1.0250  0.1219
  886MOL0     H19544  10.322   9.957   0.922 -0.7633 -2.7978 -3.7648
  886MOL0     H19545  10.739   9.942   1.119 -1.0731 -0.7613  0.1572
  886MOL0     H19546  10.737   9.838   0.986 -0.7215  0.3260  0.2457
  886MOL0     H19547  10.780  10.021   0.820  0.7800  1.1661 -1.0869
  886MOL0     H19548  10.896  10.041   0.954 -0.2300  2.1069  0.1226
  886MOL0     H19549  10.779  10.199   1.070 -1.3290  0.4602  0.8466
  886MOL0     H19550  10.633  10.198   0.962 -0.8053  2.1410  1.5903
  886MOL0     H19551  10.917  10.259   0.857  0.0077  1.4545  0.1150
  886MOL0     H19552  10.764  10.298   0.784 -1.0662 -1.6111  0.5729
  886MOL0     H19553  10.716  10.474   0.952  0.4125  3.3597 -2.6750
  886MOL0     H19554  10.854  10.432   1.047 -0.6026 -2.3048  0.1179
  886MOL0     H19555  10.856  10.554   0.774 -0.3659 -0.1127  0.2281
  886MOL0     H19556  10.894  10.627   0.927  0.6885 -1.7961  2.0229
  886MOL0     H19557  11.060  10.413   0.789  1.4598 -1.3310  1.4734
  886MOL0     H19558  11.079  10.462   0.958  0.5048  1.4504 -0.4869
  886MOL0     H19559  11.071  10.667   0.741 -0.4217  1.4286  1.6220
  886MOL0     H19560  11.133  10.682   0.900  1.0744 -2.1709  1.1005
  886MOL0     H19561  11.238  10.447   0.614  0.7909 -1.8539  0.0141
  886MOL0     H19562  11.459  10.292   0.578 -0.6905  2.1642 -1.9814
  886MOL0     H19563  11.542  10.428   0.532 -1.4646  0.4037 -0.6137
  886MOL0     H19564  11.699  10.408   0.727  0.7405 -0.0829  0.0482
  886MOL0     H19565  11.615  10.260   0.775 -0.3677 -0.3875 -0.4140
  886MOL0     H19566  11.727  10.280   0.503  1.1501  0.3248  0.3917
  886MOL0     H19567  11.654  10.145   0.560  1.1090  0.9023 -2.2804
  886MOL0     H19568  11.909  10.275   0.663 -0.6579  0.3812  1.0413
  886MOL0     H19569  11.888  10.113   0.594 -1.5258  0.2574 -1.2620
  886MOL0     H19570  11.859   9.940   0.964 -1.4713  1.1180  3.1870
  886MOL0     H19571  12.026   9.929   1.143  0.4978 -2.0444 -1.9900
  886MOL0     H19572  12.582  10.240   1.169  1.3564  0.3350 -1.3783
  886MOL0     H19573  12.779  10.198   1.328 -0.2046  1.4122 -5.1080
  886MOL0     H19574  12.872   9.987   1.196 -3.0441 -3.5312  0.8109
  886MOL0     H19575  13.010  10.037   1.296  0.2342 -1.5992  1.7063
  886MOL0     H19576  13.082   9.813   1.331 -0.5509  2.0150  0.2968
  886MOL0     H19577  12.945   9.756   1.250  0.7525 -0.5088  0.2688
  886MOL0     H19578  13.029   9.876   1.046  1.4954  0.9296 -0.3944
  886MOL0     H19579  13.159   9.942   1.147 -3.5909  1.6985  2.3023
  886MOL0     H19580  13.232   9.698   1.174 -0.7302 -0.0644 -0.0979
  886MOL0     H19581  13.215   9.759   0.996 -1.2901  1.7955  0.3093
  886MOL0     H19582  13.025   9.625   0.963 -1.6238 -0.7685  0.4006
  886MOL0     H19583  13.033   9.544   1.126 -2.2410 -0.1039 -1.4598
  886MOL0     H19584  13.279   9.537   0.943  1.0476 -0.6470  0.5747
  886MOL0     H19585  13.250   9.463   1.092 -1.8875  0.1075  0.5075
  886MOL0     H19586  13.035   9.345   0.933  1.0573 -2.5105 -1.1010
  886MOL0     H19587  13.185   9.275   0.969 -0.1414 -0.2210  0.4552
  886MOL0     H19588  13.120   9.456   0.720  0.4264 -0.8758 -2.1151
  886MOL0     H19589  13.283   9.394   0.759  0.5085 -1.1701 -0.3442
  886MOL0     H19590  12.623   9.809   1.401  3.6717  1.0824  2.6355
  886MOL0     H19591  12.414   9.866   1.277  0.0481 -0.4277  0.9028
  886MOL0     H19592  12.264  10.228   0.961  1.1504 -2.9166 -0.0964
  886MOL0     H19593  12.070  10.285   0.794 -0.3327  2.0601  2.1475
  886MOL0     H19594  10.627   9.756   1.164 -0.2756 -1.9407 -1.6623
  886MOL0     H19595  10.474   9.604   1.235  1.0996 -1.1398 -1.4356
  886MOL0     H19596  10.059   9.649   1.401 -1.0589  0.5655 -0.1954
  886MOL0     H19597   9.845   9.579   1.501  0.6000  1.6008 -0.5389
  886MOL0     H19598   9.642   9.174   1.436  1.0066 -1.8539 -1.4360
  886MOL0     H19599   9.677   9.271   1.292 -2.7018 -0.7950 -1.3410
  886MOL0     H19600   9.445   9.337   1.492  2.4326 -0.6985  1.1672
  886MOL0     H19601   9.423   9.278   1.337 -0.1919  0.1373 -0.2488
  886MOL0     H19602   9.554   9.462   1.222 -0.2769  1.5928 -1.0008
  886MOL0     H19603   9.556   9.545   1.384 -1.0448 -0.9277  2.8824
  886MOL0     H19604   9.311   9.438   1.236 -0.5861  0.5853 -1.9352
  886MOL0     H19605   9.308   9.533   1.388  2.9290  0.4304  1.8550
  886MOL0     H19606   9.344   9.833   1.105 -0.7363 -0.8576 -0.1829
  886MOL0     H19607   9.897   9.184   1.358  2.8585 -0.0884 -1.2990
  886MOL0     H19608  10.101   9.123   1.245  0.4635  0.9426  2.0005
  886MOL0     H19609  10.094   9.244   1.120  1.0060 -0.7683 -0.7280
  886MOL0     H19610  10.232   9.231   1.245 -0.3756  0.7799  1.1714
  887MOL0     O19611   7.327   9.395   2.179 -0.1145 -0.3493  0.1241
  887MOL0     C19612   7.361   9.291   2.237 -0.5100  0.1728  0.2753
  887MOL0     O19613   7.486   9.243   2.262 -0.0564 -0.4508 -0.6300
  887MOL0     C19614   7.595   9.296   2.212  0.1098  0.7319  0.6961
  887MOL0     C19615   7.716   9.269   2.284 -0.2185  0.0248 -0.1325
  887MOL0     C19616   7.836   9.316   2.232 -0.2229 -0.6135  0.6378
  887MOL0     C19617   7.838   9.387   2.110 -0.1638 -0.3326  0.0960
  887MOL0     O19618   7.957   9.431   2.067  0.6268  0.0596 -0.3406
  887MOL0     C19619   8.079   9.361   2.107 -0.3613  0.1145 -0.1073
  887MOL0     C19620   8.190   9.370   2.003 -0.2313  0.6666  0.3030
  887MOL0     C19621   8.304   9.280   2.041  0.4795  0.2592 -0.4571
  887MOL0     C19622   8.431   9.322   1.973  0.8591 -0.6717  1.1104
  887MOL0     C19623   8.556   9.249   2.019 -0.6614  0.2368  0.4982
  887MOL0     C19624   8.690   9.282   1.957 -0.3807 -0.1178  0.0579
  887MOL0     C19625   8.744   9.430   1.976  0.1679  0.6958  0.6243
  887MOL0     C19626   8.885   9.439   1.927 -0.0799 -0.0709  0.3242
  887MOL0     N19627   8.994   9.426   2.021  0.0201  0.1983 -0.5890
  887MOL0     C19628   9.076   9.521   2.067 -0.3173 -0.2659 -0.1687
  887MOL0     C19629   9.156   9.470   2.162  0.5556  0.3042 -0.5964
  887MOL0     C19630   9.277   9.529   2.224 -0.3363  0.4918 -0.0652
  887MOL0     C19631   9.272   9.675   2.252  0.2040 -0.3107 -0.8321
  887MOL0     C19632   9.395   9.709   2.334 -0.6408 -0.3479  0.2944
  887MOL0     C19633   9.381   9.850   2.382  0.0460 -0.1145 -0.4495
  887MOL0     O19634   9.389   9.956   2.288  0.2743 -0.6864  0.0923
  887MOL0     C19635   9.512  10.008   2.257  0.8209 -0.1101 -0.5332
  887MOL0     C19636   9.632   9.950   2.295  0.1210 -0.6025  0.3328
  887MOL0     C19637   9.750  10.017   2.274  0.1438 -0.1151 -1.0615
  887MOL0     C19638   9.753  10.143   2.207 -0.6154  0.1270 -0.0794
  887MOL0     C19639   9.886  10.206   2.178 -1.1181  0.4758 -0.4921
  887MOL0     O19640   9.995  10.197   2.271 -0.0615 -0.1667 -0.0503
  887MOL0     C19641  10.116  10.233   2.222 -0.3128  0.0219  0.9660
  887MOL0     C19642  10.178  10.348   2.263  0.1325 -0.2443 -0.2558
  887MOL0     C19643  10.311  10.386   2.243  0.3008  0.4127 -0.1283
  887MOL0     C19644  10.395  10.297   2.173  0.5433 -0.9531 -0.6593
  887MOL0     O19645  10.530  10.336   2.166 -0.5130  0.1839 -0.4900
  887MOL0     C19646  10.603  10.302   2.049 -0.1139 -0.0049 -0.2112
  887MOL0     C19647  10.756  10.316   2.064 -0.2853  0.1507 -1.1113
  887MOL0     C19648  10.827  10.282   1.933  1.0175  0.3779  0.1430
  887MOL0     C19649  10.978  10.293   1.956  0.3737 -0.1530  0.3678
  887MOL0     C19650  11.055  10.251   1.828 -0.2342 -0.2581 -0.1679
  887MOL0     C19651  11.206  10.242   1.850 -0.0934  1.0902 -0.5820
  887MOL0     C19652  11.270  10.246   1.708  0.5084  0.2018  0.7365
  887MOL0     C19653  11.402  10.164   1.706  0.8519 -0.4188  0.1752
  887MOL0    Cl19654  11.451  10.133   1.533 -0.0700  0.3427 -0.1936
  887MOL0     C19655  10.335  10.175   2.133  1.6487 -0.1378 -0.5870
  887MOL0     C19656  10.197  10.139   2.157  0.0689 -0.6850  0.2732
  887MOL0     O19657   9.888  10.267   2.072 -0.4501 -0.5793  0.1859
  887MOL0     C19658   9.632  10.189   2.159 -0.2419  0.4441 -0.8168
  887MOL0     C19659   9.513  10.123   2.185 -0.5097 -0.6141 -0.7054
  887MOL0     N19660   9.095   9.341   2.188 -0.6595  0.2295 -0.6063
  887MOL0     N19661   9.006   9.320   2.103  0.0793 -0.0008  0.1338
  887MOL0     C19662   7.720   9.404   2.040 -0.0941 -0.8448 -0.1591
  887MOL0     C19663   7.603   9.355   2.087  0.2067 -0.9179  0.5335
  887MOL0     C19664   7.248   9.207   2.290 -0.0156 -0.2501  0.0584
  887MOL0     C19665   7.159   9.270   2.375 -0.4033  0.5545  0.5125
  887MOL0     C19666   7.063   9.197   2.438  1.1130 -0.6947 -0.1279
  887MOL0     C19667   7.047   9.060   2.409 -0.8814  0.2879 -0.7793
  887MOL0     O19668   6.946   9.003   2.479  0.0476  0.0415  0.1917
  887MOL0     C19669   6.842   8.971   2.386 -0.0612 -0.9102  0.1689
  887MOL0     C19670   6.758   9.098   2.338  0.2035  0.3938 -0.4238
  887MOL0     C19671   6.708   9.178   2.454 -0.1717 -1.2898 -0.7350
  887MOL0     C19672   6.691   9.326   2.411  0.6760 -0.6243  0.2457
  887MOL0     C19673   6.623   9.401   2.513  0.3573 -0.5939 -0.0289
  887MOL0     C19674   6.582   9.468   2.606  0.2077 -0.8427  0.5230
  887MOL0     C19675   7.140   8.996   2.329 -0.0251 -0.0536  0.1093
  887MOL0     C19676   7.242   9.066   2.268 -0.4793 -0.2437  0.4410
  887MOL0     C19677   7.334   8.992   2.173 -0.2678  0.2728 -0.8061
  887MOL0     H19678   7.706   9.212   2.376 -1.1637 -1.7184 -1.2554
  887MOL0     H19679   7.926   9.289   2.287  1.9198  1.1471 -1.7854
  887MOL0     H19680   8.117   9.392   2.204 -1.1507 -3.4205  1.4824
  887MOL0     H19681   8.072   9.252   2.101  1.6622 -0.0224 -0.4419
  887MOL0     H19682   8.209   9.477   1.995  1.1418  0.4574  0.6562
  887MOL0     H19683   8.151   9.338   1.906  0.1475  1.3996 -0.0942
  887MOL0     H19684   8.292   9.176   2.007  1.3443  0.6939 -2.1949
  887MOL0     H19685   8.316   9.274   2.149  1.3448  1.6050 -0.4611
  887MOL0     H19686   8.423   9.315   1.864 -0.7071  2.7986  0.8515
  887MOL0     H19687   8.451   9.428   1.995  3.4544 -0.9611  0.5391
  887MOL0     H19688   8.561   9.251   2.128  1.4116 -1.2862  0.4935
  887MOL0     H19689   8.550   9.141   2.001  1.4789  0.0673  0.5107
  887MOL0     H19690   8.761   9.211   2.001  1.0741  0.3620 -1.4039
  887MOL0     H19691   8.692   9.253   1.851 -1.8984 -2.1956  0.5534
  887MOL0     H19692   8.738   9.457   2.082  1.3871 -2.6270  1.6643
  887MOL0     H19693   8.672   9.495   1.925 -2.1918 -1.8036  0.5393
  887MOL0     H19694   8.902   9.369   1.844  0.8592 -2.4975  2.4202
  887MOL0     H19695   8.890   9.543   1.894 -1.8206  0.9376  2.8617
  887MOL0     H19696   9.085   9.617   2.017 -1.4544 -0.6585 -1.1934
  887MOL0     H19697   9.288   9.469   2.314  0.1644 -0.2853 -0.6337
  887MOL0     H19698   9.363   9.502   2.162 -0.0892  0.2737  0.3653
  887MOL0     H19699   9.273   9.736   2.160 -0.4198  1.7055  0.4250
  887MOL0     H19700   9.186   9.705   2.313  1.2718 -2.0496  1.6872
  887MOL0     H19701   9.483   9.694   2.271 -1.9962 -0.6277 -1.6303
  887MOL0     H19702   9.403   9.638   2.417 -2.2040 -0.3494  0.4804
  887MOL0     H19703   9.465   9.864   2.451 -0.5863  1.8236  0.0074
  887MOL0     H19704   9.286   9.870   2.433 -1.3253 -3.3893 -1.4707
  887MOL0     H19705   9.639   9.854   2.345 -0.2245 -0.4603  0.6539
  887MOL0     H19706   9.846   9.972   2.296  1.0416 -0.8173 -5.5882
  887MOL0     H19707  10.105  10.404   2.320  0.9338  0.1692  0.3873
  887MOL0     H19708  10.358  10.477   2.279  2.3549 -0.6913  0.1232
  887MOL0     H19709  10.573  10.199   2.028  0.2257 -0.1830  0.1555
  887MOL0     H19710  10.560  10.363   1.969 -1.4120 -0.2908  0.2323
  887MOL0     H19711  10.785  10.414   2.103  2.3482 -1.2066  0.6093
  887MOL0     H19712  10.790  10.252   2.146 -2.1474  2.8929  2.0760
  887MOL0     H19713  10.804  10.180   1.901  0.4504  0.7340 -0.6003
  887MOL0     H19714  10.784  10.343   1.854 -3.6716 -2.2697  0.2938
  887MOL0     H19715  11.001  10.217   2.032 -0.8064 -0.5563  0.3399
  887MOL0     H19716  11.004  10.394   1.989  1.2361 -0.5206  0.8566
  887MOL0     H19717  11.022  10.325   1.754 -3.6477 -3.0917 -1.8215
  887MOL0     H19718  11.013  10.159   1.786 -0.7083 -0.7724  1.3645
  887MOL0     H19719  11.242  10.323   1.913 -1.3689 -0.4181  2.2471
  887MOL0     H19720  11.222  10.154   1.912 -1.7734  2.4770  1.9709
  887MOL0     H19721  11.299  10.349   1.687 -0.4130  0.5019  0.8767
  887MOL0     H19722  11.203  10.197   1.636 -1.1416  0.5253  1.9877
  887MOL0     H19723  11.479  10.229   1.749 -1.1252  2.1016  0.0658
  887MOL0     H19724  11.392  10.066   1.753 -2.2876 -0.4231 -0.3401
  887MOL0     H19725  10.402  10.104   2.085  0.7020 -0.4386 -1.5097
  887MOL0     H19726  10.151  10.044   2.130  3.2935 -1.5519 -3.0005
  887MOL0     H19727   9.626  10.281   2.101 -0.3391  2.7319  2.5563
  887MOL0     H19728   9.417  10.165   2.159  0.5403  1.8083 -0.9747
  887MOL0     H19729   7.735   9.469   1.954 -0.1555 -2.1870 -1.2317
  887MOL0     H19730   7.513   9.378   2.031  2.4386  3.0727 -1.9034
  887MOL0     H19731   7.172   9.376   2.396 -0.2202  1.7554 -4.5002
  887MOL0     H19732   6.983   9.248   2.490  0.4049 -0.2885 -1.5511
  887MOL0     H19733   6.771   8.919   2.451 -0.5650  2.3934  2.5119
  887MOL0     H19734   6.877   8.897   2.314  1.0545 -2.8731  2.5888
  887MOL0     H19735   6.665   9.064   2.293  0.4386  2.0717 -2.2901
  887MOL0     H19736   6.805   9.170   2.271 -2.0218  1.4813 -0.8797
  887MOL0     H19737   6.780   9.178   2.536  1.3456  1.4884 -1.9259
  887MOL0     H19738   6.615   9.139   2.496 -0.2776  2.3109  3.0085
  887MOL0     H19739   6.784   9.376   2.385 -0.3597  0.3062 -1.9761
  887MOL0     H19740   6.636   9.325   2.316  1.2702  1.5202 -0.1667
  887MOL0     H19741   6.543   9.515   2.694  0.0196  0.0104 -0.0101
  887MOL0     H19742   7.132   8.891   2.300  3.7592 -0.6033  0.4259
  887MOL0     H19743   7.433   8.998   2.220 -0.9691  0.2615  0.7109
  887MOL0     H19744   7.305   8.888   2.159 -2.3074  1.0270 -2.7556
  887MOL0     H19745   7.327   9.039   2.074 -0.4492  0.8769 -0.5071
  888MOL0     O19746   2.408   8.700   7.016 -0.1342 -0.4836  0.3929
  888MOL0     C19747   2.347   8.622   7.087  0.0205  0.4918  0.9475
  888MOL0     O19748   2.405   8.519   7.154  0.3627  0.1772  0.3739
  888MOL0     C19749   2.546   8.507   7.153  0.5231 -0.8121 -0.1352
  888MOL0     C19750   2.619   8.547   7.273  0.2364 -0.4065 -0.5361
  888MOL0     C19751   2.751   8.520   7.284  0.6091  0.7727 -1.0016
  888MOL0     C19752   2.813   8.450   7.180  0.3273 -0.3872 -0.4355
  888MOL0     O19753   2.946   8.416   7.196 -0.0701 -0.1003 -0.3404
  888MOL0     C19754   3.033   8.529   7.226 -0.2888 -0.6975 -0.1632
  888MOL0     C19755   3.169   8.496   7.180 -0.3153  0.3978 -0.0599
  888MOL0     C19756   3.281   8.559   7.263 -0.3210  0.2172  0.6583
  888MOL0     C19757   3.418   8.563   7.191  0.1365 -0.6080 -0.0868
  888MOL0     C19758   3.525   8.639   7.276  0.2009 -0.1736  0.4262
  888MOL0     C19759   3.656   8.646   7.194  0.2067 -0.8116  0.0740
  888MOL0     C19760   3.764   8.735   7.264  0.1822 -0.0524 -0.2366
  888MOL0     C19761   3.890   8.783   7.189  0.1203  0.5899 -0.0927
  888MOL0     N19762   3.966   8.906   7.238  0.3321  0.3784  0.8240
  888MOL0     C19763   3.997   8.927   7.375 -0.1525  0.9649  0.3028
  888MOL0     C19764   4.089   9.018   7.375  0.5550 -0.1632 -0.2545
  888MOL0     C19765   4.136   9.092   7.493  0.0243  0.1501  0.1732
  888MOL0     C19766   4.228   9.002   7.583  0.1116  1.0738 -0.3028
  888MOL0     C19767   4.309   9.079   7.679  0.3672  0.0090 -0.6569
  888MOL0     C19768   4.441   9.124   7.621  0.7934 -0.0457  0.4153
  888MOL0     O19769   4.529   9.008   7.613  0.4647  0.2375  0.3502
  888MOL0     C19770   4.656   9.029   7.591 -1.0163  0.2108 -0.2071
  888MOL0     C19771   4.740   8.919   7.609 -0.0706 -0.1518  0.1481
  888MOL0     C19772   4.874   8.924   7.581  0.5583  0.4699 -0.1876
  888MOL0     C19773   4.924   9.043   7.520 -0.3407  0.5393 -0.5517
  888MOL0     C19774   5.055   9.054   7.469 -0.4200 -0.5211 -0.7953
  888MOL0     O19775   5.100   9.158   7.407 -0.3903 -0.5892  0.4314
  888MOL0     C19776   5.234   9.172   7.385 -0.2570  0.8401 -0.3069
  888MOL0     C19777   5.313   9.214   7.490 -0.2832  0.6833 -0.1110
  888MOL0     C19778   5.450   9.215   7.497 -0.0418  0.0967 -0.1202
  888MOL0     C19779   5.515   9.192   7.377  0.2144  0.5263  0.7789
  888MOL0     O19780   5.653   9.213   7.374  0.1456 -0.0579 -0.2522
  888MOL0     C19781   5.723   9.217   7.246  0.3052 -0.6615  0.3483
  888MOL0     C19782   5.880   9.197   7.249 -0.0454 -0.3410 -0.0377
  888MOL0     C19783   5.933   9.185   7.112 -0.8672 -0.4899  0.0507
  888MOL0     C19784   6.083   9.195   7.135  0.5403 -0.3120  0.8283
  888MOL0     C19785   6.158   9.192   7.005  0.8457  0.5093  0.9690
  888MOL0     C19786   6.301   9.185   7.035  0.0556  0.2789  0.2668
  888MOL0     C19787   6.375   9.190   6.906  0.8476  0.5863  0.4665
  888MOL0     C19788   6.524   9.195   6.941 -0.1767  0.4598  1.0490
  888MOL0    Cl19789   6.630   9.230   6.804  0.1411  0.6984  0.1426
  888MOL0     C19790   5.440   9.149   7.263 -0.3741 -0.0253  0.4738
  888MOL0     C19791   5.305   9.144   7.268  0.0039  0.2970 -0.9623
  888MOL0     O19792   5.114   8.947   7.479  0.2975 -0.1298  0.1119
  888MOL0     C19793   4.840   9.154   7.500 -0.1486 -0.9770  0.4486
  888MOL0     C19794   4.710   9.147   7.533 -0.1695  0.5100  0.0849
  888MOL0     N19795   4.109   9.057   7.243  0.0583 -0.2326  0.1518
  888MOL0     N19796   4.046   8.984   7.158  0.6860 -0.6149  0.1467
  888MOL0     C19797   2.747   8.413   7.062 -0.2695  0.4753  0.4294
  888MOL0     C19798   2.613   8.440   7.052  0.9390 -0.1790 -0.1346
  888MOL0     C19799   2.205   8.644   7.096  0.5313 -0.6074 -0.1669
  888MOL0     C19800   2.148   8.595   7.218 -0.1944 -0.2411 -0.0706
  888MOL0     C19801   2.020   8.615   7.256  0.0433  0.7737  0.4422
  888MOL0     C19802   1.929   8.660   7.161 -0.0513 -0.8885 -0.5178
  888MOL0     O19803   1.793   8.672   7.177 -0.4018  0.0648 -0.5626
  888MOL0     C19804   1.726   8.545   7.159  0.0593  0.0499 -0.0411
  888MOL0     C19805   1.576   8.565   7.193  0.8349 -0.3725 -0.1410
  888MOL0     C19806   1.515   8.684   7.116 -0.0665  0.4404  0.5302
  888MOL0     C19807   1.367   8.674   7.131  0.3883 -0.6846  0.1003
  888MOL0     C19808   1.311   8.552   7.067 -0.2885  0.2886 -0.6725
  888MOL0     C19809   1.280   8.446   7.014 -0.9540  0.4229  0.7768
  888MOL0     C19810   1.975   8.705   7.039  0.4294  0.3347 -0.8042
  888MOL0     C19811   2.113   8.707   7.005  0.5239  0.4206 -0.5287
  888MOL0     C19812   2.152   8.803   6.896  0.4181  0.8839  0.7980
  888MOL0     H19813   2.566   8.603   7.349 -0.3708 -1.1326 -0.4161
  888MOL0     H19814   2.801   8.551   7.375 -0.4966 -1.2098  0.3507
  888MOL0     H19815   3.006   8.620   7.171  1.0932 -0.7639 -0.9917
  888MOL0     H19816   3.033   8.552   7.333 -0.7977  2.6870 -0.7632
  888MOL0     H19817   3.176   8.520   7.074 -0.4561 -0.9931 -0.4047
  888MOL0     H19818   3.174   8.387   7.184 -1.5264  0.3612  1.0217
  888MOL0     H19819   3.289   8.511   7.362  0.5512 -1.5496 -0.2249
  888MOL0     H19820   3.257   8.665   7.270 -2.5292 -0.2843  1.3407
  888MOL0     H19821   3.439   8.457   7.174  2.4510 -0.5546  1.7920
  888MOL0     H19822   3.408   8.618   7.097 -1.2810  3.1930  2.0698
  888MOL0     H19823   3.498   8.742   7.297  3.0447  0.1617  3.2299
  888MOL0     H19824   3.525   8.587   7.373 -1.0009 -0.6091  0.2044
  888MOL0     H19825   3.695   8.546   7.173  2.5766  0.2383 -0.8333
  888MOL0     H19826   3.633   8.701   7.103 -1.0068 -1.0901  0.2002
  888MOL0     H19827   3.798   8.682   7.353 -0.8353 -1.6086 -0.7477
  888MOL0     H19828   3.714   8.831   7.279  0.5643 -0.0651  1.2981
  888MOL0     H19829   3.958   8.699   7.172 -0.3059  0.4637 -1.3090
  888MOL0     H19830   3.852   8.801   7.088 -0.9792 -1.8689 -0.1738
  888MOL0     H19831   3.949   8.876   7.458 -2.2631  2.8294  0.3493
  888MOL0     H19832   4.204   9.175   7.471  2.4569 -1.6929  0.2808
  888MOL0     H19833   4.058   9.138   7.554  1.0851 -0.2448  1.9021
  888MOL0     H19834   4.160   8.935   7.636  0.4842  0.6219 -0.3905
  888MOL0     H19835   4.290   8.928   7.532  0.3435  0.4452  0.8590
  888MOL0     H19836   4.318   9.013   7.766 -1.2710  0.9856  0.3077
  888MOL0     H19837   4.254   9.169   7.706 -1.9661 -0.1484 -4.2321
  888MOL0     H19838   4.485   9.208   7.675  2.2595 -1.8088  2.0877
  888MOL0     H19839   4.431   9.157   7.517 -0.6037  0.1785  0.5965
  888MOL0     H19840   4.691   8.826   7.636 -0.4250 -0.3181 -1.0227
  888MOL0     H19841   4.943   8.850   7.619 -2.2509 -1.3246  1.8388
  888MOL0     H19842   5.258   9.243   7.579  2.4007 -0.6086  2.1108
  888MOL0     H19843   5.503   9.266   7.577  3.2522 -1.9426 -0.7917
  888MOL0     H19844   5.677   9.136   7.189 -0.0516 -0.1061 -0.1578
  888MOL0     H19845   5.700   9.312   7.198  2.1784 -0.4213 -0.1505
  888MOL0     H19846   5.924   9.280   7.304  2.1086 -0.2132 -1.8114
  888MOL0     H19847   5.908   9.106   7.303 -0.9781 -0.7177 -0.1667
  888MOL0     H19848   5.927   9.086   7.067  1.1300 -1.7793  2.4057
  888MOL0     H19849   5.901   9.271   7.052  0.7637  0.4794  0.4980
  888MOL0     H19850   6.117   9.113   7.200 -0.4970  0.2428  2.0968
  888MOL0     H19851   6.107   9.291   7.180 -1.5312  0.6187  0.0568
  888MOL0     H19852   6.141   9.287   6.954 -0.5554 -0.5143 -0.5874
  888MOL0     H19853   6.127   9.112   6.937 -1.7089  1.7507  0.5746
  888MOL0     H19854   6.332   9.267   7.101  0.4064 -1.9525  3.0779
  888MOL0     H19855   6.327   9.096   7.093  2.3422 -0.3857 -1.6347
  888MOL0     H19856   6.347   9.279   6.848  1.3081  1.1094  1.0286
  888MOL0     H19857   6.358   9.100   6.846 -1.1500  1.9754 -1.1673
  888MOL0     H19858   6.554   9.266   7.019  1.2817  1.6394 -0.5302
  888MOL0     H19859   6.547   9.093   6.973 -0.8925  0.3843  1.3615
  888MOL0     H19860   5.486   9.153   7.164 -0.2033  4.2864  0.5247
  888MOL0     H19861   5.240   9.126   7.183 -1.4200  2.8593 -0.4995
  888MOL0     H19862   4.873   9.251   7.465 -0.8378 -0.1359  2.0294
  888MOL0     H19863   4.654   9.240   7.527 -0.8237  0.1721  0.8101
  888MOL0     H19864   2.791   8.351   6.985  1.2236  0.0106  1.6081
  888MOL0     H19865   2.545   8.401   6.977  1.0985 -0.3887 -0.1701
  888MOL0     H19866   2.194   8.533   7.294 -2.9077 -0.7292  1.3010
  888MOL0     H19867   1.989   8.573   7.351 -0.6398 -2.5320 -1.0892
  888MOL0     H19868   1.770   8.462   7.216  1.2640  0.6504 -0.0675
  888MOL0     H19869   1.719   8.520   7.053 -1.9201 -1.5661  0.4093
  888MOL0     H19870   1.556   8.578   7.300  1.2004  1.5288 -0.2730
  888MOL0     H19871   1.540   8.465   7.166  1.6406 -0.8372  0.4464
  888MOL0     H19872   1.535   8.673   7.009 -1.3366 -2.2876  0.4863
  888MOL0     H19873   1.554   8.777   7.159 -1.4243  0.0509  2.7454
  888MOL0     H19874   1.340   8.677   7.237 -3.0155 -4.1781 -0.4717
  888MOL0     H19875   1.312   8.759   7.088 -1.1322 -1.7491 -0.1171
  888MOL0     H19876   1.255   8.351   6.970 -0.2768  1.9446 -3.3176
  888MOL0     H19877   1.892   8.750   6.985 -2.0721  0.7216  3.0010
  888MOL0     H19878   2.238   8.859   6.934  0.9138  0.8864 -0.2736
  888MOL0     H19879   2.178   8.754   6.801  0.4946 -3.8866  3.0152
  888MOL0     H19880   2.076   8.881   6.880  0.2815  0.3587 -1.5354
  889MOL0     O19881   2.679   4.140   7.839  0.3660  0.4559 -0.6333
  889MOL0     C19882   2.762   4.212   7.786  0.0464 -0.8936  0.0558
  889MOL0     O19883   2.758   4.250   7.655 -0.5813  0.0622 -0.7437
  889MOL0     C19884   2.639   4.241   7.592  0.1840  1.0155  0.9509
  889MOL0     C19885   2.542   4.335   7.611  0.1351 -0.6810 -0.1561
  889MOL0     C19886   2.422   4.337   7.534  0.6624 -0.2630  0.8889
  889MOL0     C19887   2.410   4.235   7.438  0.5659 -0.2116 -0.2739
  889MOL0     O19888   2.305   4.230   7.354  0.6247  0.1823 -0.5045
  889MOL0     C19889   2.311   4.337   7.260 -0.0224  0.8031 -1.3858
  889MOL0     C19890   2.189   4.326   7.166  0.6315 -0.6373 -0.9502
  889MOL0     C19891   2.177   4.185   7.101  0.1152  0.6283 -0.1966
  889MOL0     C19892   2.072   4.095   7.171  0.0654  0.3793  1.1796
  889MOL0     C19893   2.103   3.938   7.184  0.7131  0.4639 -0.1333
  889MOL0     C19894   2.116   3.875   7.039  0.1559  0.2208 -0.8022
  889MOL0     C19895   2.152   3.727   7.038 -0.4837 -0.2096 -0.2991
  889MOL0     C19896   2.308   3.726   7.037 -0.0109  0.8410 -0.1998
  889MOL0     N19897   2.373   3.728   6.901  0.2173 -0.5125  0.3985
  889MOL0     C19898   2.315   3.735   6.778 -0.4035  0.2902 -1.0595
  889MOL0     C19899   2.413   3.688   6.693 -0.7705  1.0895  0.6178
  889MOL0     C19900   2.406   3.694   6.542 -0.3254 -0.5176  0.2572
  889MOL0     C19901   2.472   3.818   6.497  0.0178 -0.9551  0.9004
  889MOL0     C19902   2.486   3.831   6.343 -0.4924 -0.6357 -0.4579
  889MOL0     C19903   2.621   3.794   6.291 -0.3752  0.3840  0.7877
  889MOL0     O19904   2.641   3.829   6.151 -0.2266  0.0324  0.3586
  889MOL0     C19905   2.766   3.855   6.105  0.3191 -0.4263 -0.3898
  889MOL0     C19906   2.781   3.905   5.973  0.7894  0.1569 -1.4024
  889MOL0     C19907   2.901   3.939   5.914  0.0260  0.1578 -0.1668
  889MOL0     C19908   3.017   3.921   5.980 -0.4096  0.0588 -0.1430
  889MOL0     C19909   3.149   3.970   5.936  1.1380 -0.9756  0.1577
  889MOL0     O19910   3.250   3.929   6.010  0.0269  0.4251 -0.4840
  889MOL0     C19911   3.377   3.924   5.965  0.0219  0.2627  0.1367
  889MOL0     C19912   3.434   4.031   5.904  0.6923  0.2075 -0.6063
  889MOL0     C19913   3.558   4.027   5.857 -0.0831  0.1376  0.0622
  889MOL0     C19914   3.650   3.919   5.874  0.2744  0.4326 -0.6533
  889MOL0     O19915   3.783   3.914   5.839  0.3353  0.0686  0.2956
  889MOL0     C19916   3.847   4.029   5.793  0.2202  0.5550  0.4887
  889MOL0     C19917   3.999   4.010   5.771  1.1702  0.2032 -1.1320
  889MOL0     C19918   4.035   3.907   5.666 -0.3606 -0.2579  0.7343
  889MOL0     C19919   4.180   3.857   5.651 -0.3202 -0.5451 -0.2883
  889MOL0     C19920   4.249   3.790   5.772 -0.3500 -0.3429 -0.5529
  889MOL0     C19921   4.384   3.715   5.739  0.2796  0.1567  0.1731
  889MOL0     C19922   4.428   3.615   5.840  0.9452  1.2875  0.0155
  889MOL0     C19923   4.525   3.522   5.784 -0.0254 -1.2392  0.4416
  889MOL0    Cl19924   4.536   3.363   5.875  0.2235 -0.2315 -0.1035
  889MOL0     C19925   3.591   3.809   5.930  0.2079  0.5172  0.3777
  889MOL0     C19926   3.453   3.809   5.980 -1.3269 -0.3217 -0.7395
  889MOL0     O19927   3.154   4.032   5.826 -0.2473 -0.0628 -0.3541
  889MOL0     C19928   3.010   3.850   6.107  0.0619  0.1734  0.2229
  889MOL0     C19929   2.890   3.811   6.164 -0.4171  0.0431  0.6441
  889MOL0     N19930   2.529   3.653   6.773  0.4808  0.2236  0.5120
  889MOL0     N19931   2.503   3.681   6.892  1.4875 -0.4046 -0.3953
  889MOL0     C19932   2.510   4.142   7.413 -0.2680 -0.0306  0.6095
  889MOL0     C19933   2.620   4.142   7.498  0.6371 -0.0689 -0.0394
  889MOL0     C19934   2.876   4.281   7.865  0.4001  0.1284  0.4231
  889MOL0     C19935   2.972   4.361   7.796  0.1724 -0.3907 -0.4428
  889MOL0     C19936   3.070   4.427   7.869 -1.3406 -0.6473  0.2987
  889MOL0     C19937   3.085   4.412   8.007  0.3138  0.3428  0.8049
  889MOL0     O19938   3.201   4.461   8.068  0.0337  0.3652 -0.2731
  889MOL0     C19939   3.190   4.461   8.217  1.5795 -0.4656 -0.9501
  889MOL0     C19940   3.303   4.561   8.267  0.9555  0.2026  0.0480
  889MOL0     C19941   3.416   4.490   8.346 -0.1566  0.2932  0.5159
  889MOL0     C19942   3.530   4.581   8.370 -0.2265 -0.5857 -0.1752
  889MOL0     C19943   3.619   4.530   8.472  0.1104 -0.3102 -0.6471
  889MOL0     C19944   3.693   4.488   8.562  0.3758  0.5636 -0.1880
  889MOL0     C19945   3.006   4.312   8.060  0.4199 -0.0435  0.2437
  889MOL0     C19946   2.899   4.253   7.997 -1.1139  0.7194 -0.3008
  889MOL0     C19947   2.840   4.131   8.070  0.3306  0.4963  0.0554
  889MOL0     H19948   2.554   4.410   7.688 -0.0181 -1.2474  0.4202
  889MOL0     H19949   2.354   4.422   7.530  1.6762  0.5254 -0.9610
  889MOL0     H19950   2.294   4.427   7.319  1.4767  0.1050  0.1869
  889MOL0     H19951   2.406   4.345   7.207  0.6761 -1.2584 -0.5465
  889MOL0     H19952   2.201   4.399   7.086  2.6677 -0.6167 -0.6911
  889MOL0     H19953   2.093   4.346   7.214  2.3300 -0.9884  3.0615
  889MOL0     H19954   2.274   4.136   7.107  0.1460  0.4129 -1.9654
  889MOL0     H19955   2.154   4.188   6.994 -1.3406 -0.9579  0.0230
  889MOL0     H19956   2.055   4.134   7.272 -0.3991  1.1494  0.8162
  889MOL0     H19957   1.979   4.107   7.116  0.8498 -0.0093 -0.2839
  889MOL0     H19958   2.188   3.917   7.249  0.4393  1.2686  0.5146
  889MOL0     H19959   2.017   3.888   7.230  1.6363 -3.1455 -1.9428
  889MOL0     H19960   2.011   3.886   7.012 -0.4091  1.7545  1.7005
  889MOL0     H19961   2.179   3.940   6.978  0.8349  0.2717 -0.0737
  889MOL0     H19962   2.122   3.686   6.941 -1.0117  0.4263 -0.4080
  889MOL0     H19963   2.112   3.674   7.125 -2.2173  1.7854  0.2123
  889MOL0     H19964   2.351   3.805   7.099 -1.0866 -0.3425  2.2147
  889MOL0     H19965   2.338   3.628   7.077  0.7854  1.0013 -0.3940
  889MOL0     H19966   2.218   3.780   6.760 -0.9533 -0.3942  0.0620
  889MOL0     H19967   2.460   3.606   6.507  2.3785  0.8313  0.7644
  889MOL0     H19968   2.302   3.699   6.512 -0.5653  4.0840  1.0800
  889MOL0     H19969   2.416   3.900   6.543 -1.5152 -2.4579  1.8770
  889MOL0     H19970   2.572   3.812   6.542  0.0657 -4.5457  0.6787
  889MOL0     H19971   2.458   3.935   6.325  1.7979  0.0040 -0.5319
  889MOL0     H19972   2.407   3.773   6.295 -0.9338  0.7592 -1.4575
  889MOL0     H19973   2.635   3.687   6.306  3.6301  0.3096 -1.7214
  889MOL0     H19974   2.693   3.842   6.358  1.1643  0.6589 -0.9680
  889MOL0     H19975   2.689   3.925   5.918  0.0539  1.3461  0.1809
  889MOL0     H19976   2.904   3.984   5.815  1.2928  1.3351  0.3741
  889MOL0     H19977   3.379   4.125   5.898 -2.5923 -1.4970  0.3668
  889MOL0     H19978   3.600   4.115   5.811 -2.7109  0.1512 -2.6450
  889MOL0     H19979   3.812   4.064   5.695 -0.8493 -4.1381 -1.0611
  889MOL0     H19980   3.827   4.106   5.867 -0.0941  1.2121 -0.2612
  889MOL0     H19981   4.027   4.114   5.749 -1.5191  0.6158 -3.1733
  889MOL0     H19982   4.032   3.983   5.872 -0.7793  4.4203  0.8944
  889MOL0     H19983   3.971   3.822   5.689 -2.2019  0.9879  0.4540
  889MOL0     H19984   4.011   3.948   5.567 -2.5289 -0.5909  1.0817
  889MOL0     H19985   4.254   3.934   5.623 -0.0036 -2.0129 -4.1864
  889MOL0     H19986   4.187   3.793   5.563  1.5271  2.5859 -2.6575
  889MOL0     H19987   4.174   3.721   5.812  1.7364 -1.8847  0.9054
  889MOL0     H19988   4.266   3.869   5.846  0.1673 -0.4512 -0.5582
  889MOL0     H19989   4.374   3.673   5.638  3.3187  1.6639 -0.8767
  889MOL0     H19990   4.467   3.786   5.734  2.2245 -1.9154  1.3373
  889MOL0     H19991   4.339   3.558   5.868  0.2519  2.9547  1.3707
  889MOL0     H19992   4.466   3.661   5.932  1.3082 -0.0741  0.5674
  889MOL0     H19993   4.505   3.506   5.678 -0.0774 -0.5376  0.3403
  889MOL0     H19994   4.622   3.573   5.788 -0.4314 -0.3464 -0.5269
  889MOL0     H19995   3.656   3.722   5.930  0.5034  0.7331  0.0673
  889MOL0     H19996   3.415   3.722   6.031 -0.7802 -0.6745 -0.9328
  889MOL0     H19997   3.091   3.830   6.177 -0.5996  0.1973  0.9988
  889MOL0     H19998   2.875   3.757   6.257  0.8218  1.0402  1.4414
  889MOL0     H19999   2.508   4.067   7.335  0.0585  0.6473 -0.0647
  889MOL0     H20000   2.701   4.071   7.485  1.4171  0.1670  2.7459
  889MOL0     H20001   2.969   4.379   7.689 -1.4224 -0.1447 -0.3871
  889MOL0     H20002   3.119   4.498   7.803 -2.0438 -0.2789  0.1638
  889MOL0     H20003   3.195   4.361   8.261 -1.5355 -0.0567  0.6301
  889MOL0     H20004   3.093   4.497   8.252  2.3102  0.8057 -0.1777
  889MOL0     H20005   3.250   4.640   8.321 -0.6716  0.1774 -1.4340
  889MOL0     H20006   3.354   4.596   8.176  0.1577 -1.1440 -0.9415
  889MOL0     H20007   3.456   4.407   8.288  1.5123 -0.5246  2.6783
  889MOL0     H20008   3.376   4.440   8.435  2.4090 -3.1237 -0.0284
  889MOL0     H20009   3.587   4.607   8.280 -0.4614  2.1568  0.3879
  889MOL0     H20010   3.492   4.679   8.400  0.7521 -0.3723  0.3992
  889MOL0     H20011   3.758   4.457   8.641  0.1607  2.0697  0.6253
  889MOL0     H20012   3.037   4.283   8.160  2.0662 -3.0550 -0.9888
  889MOL0     H20013   2.889   4.119   8.167 -0.6138 -0.7151  0.4037
  889MOL0     H20014   2.732   4.148   8.082  0.6507  6.1031 -1.9942
  889MOL0     H20015   2.852   4.038   8.015 -0.4329  1.5445 -1.9981
  890MOL0     O20016   3.819   6.761   3.537  0.3489 -0.9838  0.6234
  890MOL0     C20017   3.736   6.780   3.450 -0.2739 -0.3734 -0.4219
  890MOL0     O20018   3.674   6.899   3.426 -0.1119 -0.2525 -0.0052
  890MOL0     C20019   3.684   7.000   3.521  0.2616  0.0425  0.0790
  890MOL0     C20020   3.678   6.999   3.664 -0.5123  0.0840  0.5643
  890MOL0     C20021   3.678   7.115   3.750  0.3015  0.4048 -0.2146
  890MOL0     C20022   3.676   7.247   3.684 -0.9476 -0.2954 -0.9434
  890MOL0     O20023   3.649   7.372   3.734 -0.8379 -0.3303 -0.2730
  890MOL0     C20024   3.644   7.381   3.874  0.2860 -0.5678 -0.2877
  890MOL0     C20025   3.657   7.532   3.916  0.2415 -0.1969  0.4846
  890MOL0     C20026   3.805   7.573   3.926  0.5446 -0.1151 -0.5545
  890MOL0     C20027   3.831   7.718   3.967  0.6713  0.4240  0.4301
  890MOL0     C20028   3.975   7.745   3.946  0.5247 -0.5937  0.2105
  890MOL0     C20029   3.999   7.894   3.991  0.1486 -0.0419 -0.3032
  890MOL0     C20030   4.130   7.940   3.936 -0.0699  0.6793 -0.1817
  890MOL0     C20031   4.250   7.847   3.971  0.2762 -0.2999 -0.2143
  890MOL0     N20032   4.377   7.899   3.925 -0.3904 -0.5568 -0.0703
  890MOL0     C20033   4.496   7.913   3.993  0.2952 -0.4591 -0.3845
  890MOL0     C20034   4.580   7.954   3.901 -1.8375 -0.7889  0.0232
  890MOL0     C20035   4.720   7.979   3.944  0.6134 -0.7176 -0.4945
  890MOL0     C20036   4.798   8.047   3.826  0.2967  0.1947  0.3437
  890MOL0     C20037   4.941   8.094   3.867  0.2268  0.4765 -0.1197
  890MOL0     C20038   5.036   7.979   3.879  1.0004  0.5324 -0.4811
  890MOL0     O20039   5.034   7.896   3.761 -1.3725  0.7788  0.4210
  890MOL0     C20040   5.109   7.776   3.761 -0.3549 -0.9155  0.5029
  890MOL0     C20041   5.109   7.690   3.651 -1.1462 -0.0986  0.0472
  890MOL0     C20042   5.206   7.585   3.642 -0.4478 -0.1358  0.0636
  890MOL0     C20043   5.301   7.557   3.741 -0.3291  0.0128  0.7180
  890MOL0     C20044   5.411   7.453   3.735 -0.2605 -0.4001  0.4454
  890MOL0     O20045   5.417   7.393   3.613 -0.0232 -0.4044  1.3762
  890MOL0     C20046   5.490   7.280   3.588 -0.5714 -0.2342 -0.0502
  890MOL0     C20047   5.506   7.174   3.684 -0.9648  1.3975 -0.9265
  890MOL0     C20048   5.589   7.059   3.660  0.6549 -0.3685  0.8535
  890MOL0     C20049   5.667   7.062   3.544 -0.5441 -0.4908 -0.0228
  890MOL0     O20050   5.745   6.949   3.515 -0.2655 -0.0723 -0.1471
  890MOL0     C20051   5.852   6.909   3.608 -0.0457 -0.2678  0.2623
  890MOL0     C20052   5.954   7.024   3.636 -0.1590 -0.6256 -0.2867
  890MOL0     C20053   6.026   7.085   3.519  0.1711  0.3291 -0.3744
  890MOL0     C20054   6.170   7.131   3.552  0.7065  0.1773 -0.9562
  890MOL0     C20055   6.248   7.189   3.427 -0.1769 -0.4628 -0.2950
  890MOL0     C20056   6.368   7.270   3.478  0.0727 -0.5148 -0.5973
  890MOL0     C20057   6.435   7.359   3.373  0.1841  0.6635 -0.3206
  890MOL0     C20058   6.505   7.483   3.426  0.2626  0.6711  0.1409
  890MOL0    Cl20059   6.377   7.600   3.470 -0.6247  0.3718  0.1630
  890MOL0     C20060   5.662   7.166   3.454 -0.3481  0.6118 -0.6513
  890MOL0     C20061   5.575   7.274   3.478  0.0651 -0.4359  0.2103
  890MOL0     O20062   5.473   7.417   3.831 -0.1235  0.5360 -0.2360
  890MOL0     C20063   5.284   7.629   3.858 -0.1508  0.4335  0.7669
  890MOL0     C20064   5.192   7.736   3.866 -0.9907 -0.0575  0.1208
  890MOL0     N20065   4.522   7.969   3.776  0.1134  0.3681 -0.3052
  890MOL0     N20066   4.398   7.930   3.791  0.9745 -0.9211  0.0420
  890MOL0     C20067   3.687   7.243   3.544 -0.5372 -0.2108 -0.6443
  890MOL0     C20068   3.704   7.132   3.462  0.2706  0.0926 -0.1498
  890MOL0     C20069   3.708   6.673   3.342 -0.9125 -0.3464 -0.1297
  890MOL0     C20070   3.613   6.713   3.244  0.6138 -0.7565 -0.2571
  890MOL0     C20071   3.574   6.622   3.151  1.1795  0.3887  1.5028
  890MOL0     C20072   3.641   6.500   3.135  0.0917  0.2098  0.1738
  890MOL0     O20073   3.587   6.412   3.044  0.1455 -0.7770 -1.1017
  890MOL0     C20074   3.628   6.279   3.042 -0.1282 -0.6230 -0.0534
  890MOL0     C20075   3.557   6.205   2.917 -0.3482 -0.6736  0.3557
  890MOL0     C20076   3.409   6.186   2.947  0.0239  0.1719  0.3186
  890MOL0     C20077   3.344   6.113   2.824  0.0976  0.4703 -0.7842
  890MOL0     C20078   3.411   5.983   2.800 -0.4145  0.6247  0.0039
  890MOL0     C20079   3.452   5.868   2.809  0.6122  0.1007 -0.1407
  890MOL0     C20080   3.733   6.467   3.231  0.6362  0.1049 -0.0312
  890MOL0     C20081   3.774   6.550   3.335  0.2178  0.7694 -0.6401
  890MOL0     C20082   3.880   6.498   3.432 -0.3793  0.3227 -0.2437
  890MOL0     H20083   3.681   6.901   3.712 -1.2255 -0.5565 -0.6592
  890MOL0     H20084   3.686   7.106   3.858  1.6698 -0.9435 -0.3956
  890MOL0     H20085   3.551   7.343   3.917  1.1959 -1.0516  1.3631
  890MOL0     H20086   3.724   7.318   3.916  3.1390  2.3017 -1.0432
  890MOL0     H20087   3.593   7.540   4.005  0.9162 -1.4122  1.1035
  890MOL0     H20088   3.601   7.585   3.839  0.7651 -1.2244 -0.6216
  890MOL0     H20089   3.850   7.551   3.829  0.1781  2.5197 -1.3983
  890MOL0     H20090   3.856   7.511   4.001  0.6860  2.0961  1.2893
  890MOL0     H20091   3.773   7.783   3.901  1.3733  0.6455  0.0208
  890MOL0     H20092   3.798   7.728   4.071  0.9730  0.8618  0.4887
  890MOL0     H20093   4.033   7.674   4.005  1.3528 -0.3887 -0.3284
  890MOL0     H20094   4.006   7.737   3.841  0.6880 -1.4272  0.3143
  890MOL0     H20095   3.922   7.952   3.940  2.2046  1.9654 -1.3400
  890MOL0     H20096   3.990   7.906   4.099  0.7115 -1.2379 -0.1039
  890MOL0     H20097   4.149   8.041   3.973 -0.4991  0.1585  1.5577
  890MOL0     H20098   4.117   7.952   3.828  2.4785 -0.6175 -0.7266
  890MOL0     H20099   4.247   7.838   4.080 -0.0047 -0.1816 -0.2102
  890MOL0     H20100   4.234   7.753   3.917 -1.3133  1.0683 -2.3004
  890MOL0     H20101   4.508   7.905   4.100 -0.3374  1.2008 -0.1656
  890MOL0     H20102   4.725   8.036   4.038  0.8449 -1.2221 -0.1969
  890MOL0     H20103   4.761   7.878   3.954  2.3830 -0.3312 -2.9159
  890MOL0     H20104   4.806   7.976   3.743 -0.3347 -1.3507  1.5577
  890MOL0     H20105   4.739   8.134   3.795 -2.4968 -1.3371  1.1000
  890MOL0     H20106   4.938   8.140   3.966 -2.7671 -2.3859  1.2902
  890MOL0     H20107   4.970   8.173   3.796 -1.7736 -1.3917 -3.2311
  890MOL0     H20108   4.998   7.919   3.962 -0.6274  1.4997 -0.4871
  890MOL0     H20109   5.139   8.016   3.880  0.6580  1.6681 -2.2373
  890MOL0     H20110   5.051   7.720   3.564 -1.3058 -0.9094 -0.1363
  890MOL0     H20111   5.218   7.535   3.546  2.0537  2.2257 -0.9661
  890MOL0     H20112   5.457   7.165   3.781  0.0780 -4.7905 -0.5539
  890MOL0     H20113   5.602   6.982   3.736 -0.8057 -1.3117  0.1777
  890MOL0     H20114   5.812   6.876   3.705 -2.1617 -1.4996 -0.9503
  890MOL0     H20115   5.913   6.831   3.561  0.4149  0.4774 -0.3859
  890MOL0     H20116   5.906   7.110   3.683  2.0220  1.2313 -1.2822
  890MOL0     H20117   6.028   6.990   3.709  0.6104  1.3463 -0.0929
  890MOL0     H20118   6.038   7.015   3.436 -1.1587 -0.9885  0.4846
  890MOL0     H20119   5.967   7.174   3.494 -0.3393  0.4342  1.0759
  890MOL0     H20120   6.230   7.051   3.596  0.3770 -0.2944 -1.3591
  890MOL0     H20121   6.155   7.209   3.628  1.3924 -0.4591 -0.1468
  890MOL0     H20122   6.178   7.255   3.374  0.7673  1.1278  0.3702
  890MOL0     H20123   6.273   7.107   3.360 -2.3505 -0.8268 -0.7387
  890MOL0     H20124   6.333   7.334   3.559  1.0410 -1.1036  0.2940
  890MOL0     H20125   6.443   7.214   3.533  0.1992 -0.4308 -0.6825
  890MOL0     H20126   6.364   7.390   3.296 -2.6793 -1.3159  1.3276
  890MOL0     H20127   6.513   7.299   3.326  1.6300 -1.4935  4.2158
  890MOL0     H20128   6.562   7.456   3.515 -1.0244 -1.4309  0.3921
  890MOL0     H20129   6.581   7.508   3.351 -0.2122 -1.1539 -1.0119
  890MOL0     H20130   5.725   7.169   3.366  1.0385 -0.6728  0.2681
  890MOL0     H20131   5.563   7.359   3.412 -1.9197 -1.7685 -1.2472
  890MOL0     H20132   5.348   7.599   3.941  1.5180 -1.2018 -1.0085
  890MOL0     H20133   5.213   7.797   3.953  1.1164  1.7018 -1.5014
  890MOL0     H20134   3.663   7.336   3.495 -3.8563 -0.0231  1.0053
  890MOL0     H20135   3.706   7.150   3.355 -1.6757 -0.1484 -0.2670
  890MOL0     H20136   3.555   6.804   3.254  1.9185 -0.0761  1.7185
  890MOL0     H20137   3.497   6.644   3.078  2.8290 -0.4352 -0.5672
  890MOL0     H20138   3.595   6.228   3.132  1.0339 -0.2246  0.6177
  890MOL0     H20139   3.736   6.268   3.029 -0.0835 -2.9413  1.6869
  890MOL0     H20140   3.601   6.107   2.898  1.8737  0.5601 -1.2910
  890MOL0     H20141   3.566   6.262   2.824 -0.1581 -0.1815  0.6722
  890MOL0     H20142   3.364   6.284   2.966  2.0566  1.8783 -2.8660
  890MOL0     H20143   3.402   6.111   3.027 -0.3006 -2.2193 -1.8346
  890MOL0     H20144   3.236   6.103   2.842 -0.6258  2.2554 -3.3439
  890MOL0     H20145   3.353   6.174   2.733 -2.5558  0.0797 -1.4037
  890MOL0     H20146   3.498   5.773   2.828 -0.3167 -0.1528  0.9190
  890MOL0     H20147   3.781   6.369   3.237 -1.2680 -0.8197  1.5476
  890MOL0     H20148   3.974   6.552   3.431  0.5108 -1.1535  0.2369
  890MOL0     H20149   3.839   6.498   3.534  0.8165 -0.1938  0.2520
  890MOL0     H20150   3.889   6.390   3.412 -0.8892  0.1327  0.4900
  891MOL0     O20151   2.867  10.716   8.969 -0.0468  0.1058  0.2041
  891MOL0     C20152   2.856  10.802   9.051  0.4781 -0.6259 -0.5230
  891MOL0     O20153   2.746  10.889   9.063  0.1413 -0.9220  0.5178
  891MOL0     C20154   2.645  10.869   8.972 -0.4626  0.1727  0.5082
  891MOL0     C20155   2.647  10.947   8.847  1.1136  0.4923 -0.0615
  891MOL0     C20156   2.548  10.934   8.751  0.2043  0.1043  0.5020
  891MOL0     C20157   2.442  10.844   8.772  0.6265 -0.7743  0.2633
  891MOL0     O20158   2.352  10.798   8.674 -0.3513 -0.4926 -0.2502
  891MOL0     C20159   2.388  10.792   8.534 -0.1181  0.1432 -0.8058
  891MOL0     C20160   2.276  10.736   8.451  0.9009  0.6036 -0.8646
  891MOL0     C20161   2.189  10.638   8.529 -0.2266  1.5680 -0.2412
  891MOL0     C20162   2.158  10.524   8.424  0.4868 -0.7046 -0.1608
  891MOL0     C20163   2.091  10.412   8.516 -0.7045  0.6190 -0.0222
  891MOL0     C20164   2.078  10.289   8.428 -0.9922  0.1418  0.2019
  891MOL0     C20165   1.972  10.193   8.486 -1.1824 -0.6987 -0.5404
  891MOL0     C20166   1.928  10.092   8.386  0.2492 -0.9753 -0.2548
  891MOL0     N20167   1.854   9.992   8.460  0.1919  0.1212  0.6993
  891MOL0     C20168   1.747  10.003   8.538 -0.2570 -0.9416 -0.3242
  891MOL0     C20169   1.729   9.877   8.588  0.5682 -0.1812  0.4194
  891MOL0     C20170   1.621   9.835   8.678 -0.4370 -0.2503  0.2257
  891MOL0     C20171   1.500   9.784   8.609 -0.8830 -0.4016  0.1365
  891MOL0     C20172   1.430   9.904   8.532 -0.4752 -0.1746  0.0124
  891MOL0     C20173   1.299   9.862   8.469 -1.0925  0.1328 -0.0674
  891MOL0     O20174   1.205   9.801   8.565 -0.5062  0.0593  0.2564
  891MOL0     C20175   1.080   9.845   8.530 -0.2126 -0.4244 -0.6233
  891MOL0     C20176   1.043   9.974   8.567  0.2838 -1.2434 -0.4078
  891MOL0     C20177   0.930  10.037   8.507 -0.3616 -0.1200 -0.2751
  891MOL0     C20178   0.853   9.968   8.413  1.2048  0.2084  0.9137
  891MOL0     C20179   0.738  10.039   8.357  0.4037 -0.3783 -0.4367
  891MOL0     O20180   0.640   9.960   8.290 -0.8107  0.1577 -0.2782
  891MOL0     C20181   0.511  10.000   8.257 -0.1431  0.1451  0.0708
  891MOL0     C20182   0.446   9.930   8.153 -0.7586  0.0507  0.1381
  891MOL0     C20183   0.314   9.953   8.114  0.7748 -0.2961 -0.0493
  891MOL0     C20184   0.243  10.059   8.174 -0.0921 -0.4500  0.5103
  891MOL0     O20185   0.117  10.079   8.128  0.4408 -0.1520  0.2626
  891MOL0     C20186   0.023  10.135   8.215  0.7421  0.1599 -0.7326
  891MOL0     C20187  -0.135  10.135   8.156  0.0179  0.3480 -0.2678
  891MOL0     C20188  -0.235  10.209   8.247  0.2459  0.2885 -0.8794
  891MOL0     C20189  -0.237  10.352   8.214  0.3867  0.0642 -0.5579
  891MOL0     C20190  -0.340  10.430   8.303 -0.0466 -0.8377 -0.4182
  891MOL0     C20191  -0.371  10.576   8.257 -0.3804 -1.1764  0.2717
  891MOL0     C20192  -0.250  10.672   8.234  0.3281  0.5786  0.8931
  891MOL0     C20193  -0.290  10.817   8.219 -0.3389  0.0086  0.0227
  891MOL0    Cl20194  -0.149  10.921   8.224 -0.3402 -0.1065 -0.6532
  891MOL0     C20195   0.302  10.127   8.283  0.8759 -0.2285 -0.5446
  891MOL0     C20196   0.432  10.100   8.316 -0.0999  0.2907  0.9017
  891MOL0     O20197   0.720  10.159   8.387 -0.5294  0.4625 -0.5805
  891MOL0     C20198   0.887   9.842   8.370 -0.5605  0.4980  0.3618
  891MOL0     C20199   1.004   9.780   8.432  0.0993 -0.6475  0.9615
  891MOL0     N20200   1.837   9.801   8.544  0.3347 -1.1945  1.6964
  891MOL0     N20201   1.911   9.863   8.458  0.3222 -0.0424 -0.8319
  891MOL0     C20202   2.435  10.765   8.890  1.0452 -0.6336 -0.0161
  891MOL0     C20203   2.534  10.781   8.996  0.0790  0.4854  0.7909
  891MOL0     C20204   2.983  10.825   9.132 -0.6394 -0.1895 -0.2725
  891MOL0     C20205   3.105  10.763   9.100 -0.1119  0.4852 -0.7293
  891MOL0     C20206   3.220  10.786   9.181  0.1114  0.6392 -1.0833
  891MOL0     C20207   3.215  10.870   9.290 -0.1227 -0.2691  0.8290
  891MOL0     O20208   3.339  10.902   9.340 -0.3154  0.2258  0.7754
  891MOL0     C20209   3.362  11.042   9.374  0.6730  0.6442  0.5365
  891MOL0     C20210   3.452  11.050   9.491 -1.9623 -0.2021  1.0726
  891MOL0     C20211   3.601  11.008   9.458 -0.3674  0.5426  0.4741
  891MOL0     C20212   3.686  10.983   9.579  0.0358  0.3026 -0.2775
  891MOL0     C20213   3.828  10.956   9.547 -0.1406 -0.5382  0.0504
  891MOL0     C20214   3.945  10.951   9.506  0.1223 -0.5440  0.3017
  891MOL0     C20215   3.098  10.923   9.326  0.0318  0.0680  0.1556
  891MOL0     C20216   2.976  10.892   9.259  0.1449 -0.6033 -0.2896
  891MOL0     C20217   2.848  10.925   9.331 -0.0445  0.5749 -0.1801
  891MOL0     H20218   2.739  10.999   8.820  1.5616 -0.9967 -1.5455
  891MOL0     H20219   2.555  10.975   8.651 -0.1756 -2.3886 -0.6210
  891MOL0     H20220   2.405  10.893   8.497 -1.8900  0.0668 -1.9293
  891MOL0     H20221   2.482  10.736   8.524  0.6442  1.3469 -0.6974
  891MOL0     H20222   2.330  10.707   8.361  0.8886 -2.6909  0.0798
  891MOL0     H20223   2.213  10.819   8.418  0.2081  0.2591 -0.4366
  891MOL0     H20224   2.102  10.692   8.567  0.2810  0.6120  2.4964
  891MOL0     H20225   2.236  10.591   8.616  0.0749 -0.1885 -1.3040
  891MOL0     H20226   2.108  10.555   8.332  3.1183 -0.6335 -1.6834
  891MOL0     H20227   2.250  10.478   8.386 -0.5670 -1.7338 -1.5892
  891MOL0     H20228   2.156  10.395   8.602 -0.3253 -0.1726 -0.4505
  891MOL0     H20229   1.995  10.447   8.555 -0.7649  0.7240 -0.2577
  891MOL0     H20230   2.044  10.322   8.330  2.9513  1.6918 -0.8622
  891MOL0     H20231   2.170  10.234   8.407  0.0755  1.9146  0.0097
  891MOL0     H20232   1.875  10.232   8.517 -1.6131 -1.5297 -0.7942
  891MOL0     H20233   2.014  10.144   8.574  0.0204 -0.5112 -0.9917
  891MOL0     H20234   1.853  10.137   8.321  0.7228  1.1798  0.5926
  891MOL0     H20235   2.008  10.043   8.328  1.3610 -2.0806  2.0586
  891MOL0     H20236   1.685  10.091   8.552 -0.0532 -0.7234 -0.7748
  891MOL0     H20237   1.657   9.763   8.751 -0.3076 -0.1520  0.2568
  891MOL0     H20238   1.590   9.920   8.739 -1.0358 -0.4050  0.1513
  891MOL0     H20239   1.529   9.694   8.554 -1.2395 -0.8959  0.7414
  891MOL0     H20240   1.428   9.751   8.684 -1.0510 -1.9358 -0.6799
  891MOL0     H20241   1.502   9.930   8.453  1.1250  0.1644  1.5165
  891MOL0     H20242   1.420   9.990   8.598 -1.0546  0.4242 -0.8364
  891MOL0     H20243   1.314   9.776   8.403 -0.5481 -0.3514  0.6646
  891MOL0     H20244   1.262   9.949   8.415 -3.4367 -0.3460  0.6448
  891MOL0     H20245   1.104  10.019   8.645  1.2669 -1.3738 -1.0873
  891MOL0     H20246   0.904  10.129   8.560  0.6420 -0.9377  1.7581
  891MOL0     H20247   0.492   9.843   8.108 -2.7225 -0.8675 -0.1845
  891MOL0     H20248   0.281   9.889   8.032 -1.2613  0.7396 -0.1030
  891MOL0     H20249   0.014  10.070   8.303 -1.2840 -0.5566 -1.4152
  891MOL0     H20250   0.041  10.241   8.235  2.6682 -0.6028  2.0744
  891MOL0     H20251  -0.137  10.177   8.055 -2.0420  1.7132  0.2785
  891MOL0     H20252  -0.148  10.028   8.141 -0.9366  0.5361 -0.8824
  891MOL0     H20253  -0.334  10.170   8.222  0.1609  0.9756 -1.6396
  891MOL0     H20254  -0.210  10.193   8.353  0.9635 -1.6006 -1.2936
  891MOL0     H20255  -0.264  10.359   8.108 -3.4006  2.4287  0.3816
  891MOL0     H20256  -0.135  10.390   8.220  1.9970 -3.4297 -2.4258
  891MOL0     H20257  -0.298  10.431   8.404  0.7560 -0.9751 -0.7393
  891MOL0     H20258  -0.440  10.386   8.303 -1.4229  1.9994 -1.2229
  891MOL0     H20259  -0.430  10.574   8.165  0.1136  1.5655 -0.1932
  891MOL0     H20260  -0.426  10.626   8.338  2.1316  0.2216  1.2313
  891MOL0     H20261  -0.206  10.641   8.139  2.4774  0.8115  1.7457
  891MOL0     H20262  -0.176  10.649   8.312 -1.6590 -0.0228  2.6960
  891MOL0     H20263  -0.352  10.842   8.132  1.2896  1.5698 -0.7484
  891MOL0     H20264  -0.349  10.838   8.309 -1.7905 -0.9248 -0.6644
  891MOL0     H20265   0.249  10.210   8.329  1.0604  0.7072 -1.9645
  891MOL0     H20266   0.479  10.156   8.396  1.9110  0.8602 -0.5771
  891MOL0     H20267   0.840   9.785   8.291  0.7994 -1.1909  0.7086
  891MOL0     H20268   1.024   9.678   8.399  2.5802  0.7429 -2.3511
  891MOL0     H20269   2.371  10.677   8.898  1.1622 -0.8587 -1.3665
  891MOL0     H20270   2.535  10.714   9.081 -2.1060 -1.1172 -0.3330
  891MOL0     H20271   3.109  10.707   9.007 -0.5158 -1.1422  0.2070
  891MOL0     H20272   3.317  10.748   9.150 -0.1293 -0.1161 -0.9364
  891MOL0     H20273   3.267  11.094   9.387 -1.7676 -1.7485 -4.5657
  891MOL0     H20274   3.414  11.101   9.298  1.5563  2.4595  2.4416
  891MOL0     H20275   3.404  10.993   9.570 -1.5254 -2.9510 -0.4959
  891MOL0     H20276   3.460  11.154   9.523 -3.1194  0.0180  0.7041
  891MOL0     H20277   3.645  11.082   9.391 -1.2532  0.8644  0.2236
  891MOL0     H20278   3.588  10.916   9.401 -1.1647  1.1542 -0.3709
  891MOL0     H20279   3.678  11.072   9.643  2.5418 -1.6349  3.0872
  891MOL0     H20280   3.653  10.904   9.646 -0.0348 -1.5704 -2.4121
  891MOL0     H20281   4.050  10.945   9.489  0.3622  0.9333  1.0732
  891MOL0     H20282   3.085  10.977   9.419 -3.3291  1.9018 -1.1995
  891MOL0     H20283   2.867  10.933   9.438 -4.1744  1.7488  0.6302
  891MOL0     H20284   2.808  11.022   9.301  0.6966  1.2989  1.0931
  891MOL0     H20285   2.783  10.838   9.320  3.6581 -2.3538 -0.9263
  892MOL0     O20286   7.996  11.282   0.077  0.6530 -0.4447  0.1047
  892MOL0     C20287   7.904  11.335   0.015 -0.5006  0.2802 -0.4190
  892MOL0     O20288   7.923  11.433  -0.073  0.2456  0.5071 -0.6421
  892MOL0     C20289   8.052  11.492  -0.110 -0.1314 -0.8298  0.5183
  892MOL0     C20290   8.048  11.600  -0.193 -0.5591  0.0819  0.1663
  892MOL0     C20291   8.168  11.662  -0.237 -0.2018  0.9548 -0.3043
  892MOL0     C20292   8.293  11.614  -0.197 -0.7512  0.0102  0.1923
  892MOL0     O20293   8.409  11.669  -0.247  0.0621  0.0280 -0.5319
  892MOL0     C20294   8.530  11.598  -0.252  0.0429  0.2558  0.3765
  892MOL0     C20295   8.607  11.634  -0.131 -0.4772 -1.1387 -0.0899
  892MOL0     C20296   8.753  11.592  -0.136  0.8891 -1.3529 -0.2101
  892MOL0     C20297   8.837  11.702  -0.206 -0.2224  0.1480  0.2093
  892MOL0     C20298   8.980  11.653  -0.205  0.3799  1.1792 -0.5292
  892MOL0     C20299   9.053  11.754  -0.295  0.8118  0.2146 -0.3758
  892MOL0     C20300   9.202  11.727  -0.283 -0.6651  0.5076  0.1111
  892MOL0     C20301   9.256  11.589  -0.326  0.0653  0.8976  1.0334
  892MOL0     N20302   9.402  11.586  -0.316 -0.0217  0.0782  0.2361
  892MOL0     C20303   9.489  11.682  -0.267 -0.5902  0.1319 -0.6489
  892MOL0     C20304   9.596  11.612  -0.222  0.4103 -0.0377  0.5803
  892MOL0     C20305   9.727  11.674  -0.174 -0.2188  0.0917  0.3339
  892MOL0     C20306   9.852  11.597  -0.180  0.0508 -0.2723 -0.9474
  892MOL0     C20307   9.956  11.660  -0.079  0.3796  0.1785  1.0939
  892MOL0     C20308  10.087  11.595  -0.071 -0.1508  1.0072  0.1946
  892MOL0     O20309  10.161  11.616  -0.190  0.2098  0.5518 -0.6828
  892MOL0     C20310  10.294  11.571  -0.190 -0.2876  0.5563 -0.4305
  892MOL0     C20311  10.341  11.453  -0.126  0.5420 -0.0377  0.4729
  892MOL0     C20312  10.475  11.411  -0.122 -0.3830 -0.2425 -0.1881
  892MOL0     C20313  10.579  11.498  -0.171  0.2776  0.4527  0.2619
  892MOL0     C20314  10.728  11.456  -0.162  0.0648  0.2473 -0.8045
  892MOL0     O20315  10.758  11.322  -0.122  0.0267 -0.2505  0.1560
  892MOL0     C20316  10.885  11.274  -0.140  0.4232  0.4899 -0.1740
  892MOL0     C20317  10.912  11.177  -0.239 -0.6998 -0.0389  0.6200
  892MOL0     C20318  11.039  11.121  -0.250  0.3008  0.3409 -0.0150
  892MOL0     C20319  11.134  11.144  -0.155 -0.2418  0.2681  0.5131
  892MOL0     O20320  11.245  11.071  -0.145 -0.1598 -0.1286 -0.1919
  892MOL0     C20321  11.310  11.024  -0.261  0.1085 -0.3744  0.9570
  892MOL0     C20322  11.445  10.966  -0.224 -0.5102  0.1786 -0.3661
  892MOL0     C20323  11.445  10.864  -0.103  0.2488  1.1101  0.7760
  892MOL0     C20324  11.546  10.750  -0.134  0.1042 -0.4987 -0.0270
  892MOL0     C20325  11.566  10.653  -0.008 -0.4764  0.1221  1.1582
  892MOL0     C20326  11.655  10.529  -0.047  0.4096 -0.5308 -0.3086
  892MOL0     C20327  11.758  10.567  -0.155 -0.5963 -0.2371  0.6604
  892MOL0     C20328  11.857  10.461  -0.185 -1.1290 -0.0427 -0.3892
  892MOL0    Cl20329  11.952  10.424  -0.046 -0.2502 -0.2283 -0.4208
  892MOL0     C20330  11.103  11.235  -0.050 -0.7694 -0.2482  0.1016
  892MOL0     C20331  10.985  11.307  -0.043  0.1048  0.5095  0.2587
  892MOL0     O20332  10.807  11.535  -0.210  0.6870 -0.4145  0.0241
  892MOL0     C20333  10.533  11.606  -0.240  0.5698 -0.9715  0.8598
  892MOL0     C20334  10.397  11.641  -0.261  0.0854 -1.0047  0.3213
  892MOL0     N20335   9.583  11.479  -0.260  0.6449 -0.2371 -0.5646
  892MOL0     N20336   9.465  11.464  -0.316  0.0046 -0.1849 -0.3134
  892MOL0     C20337   8.294  11.509  -0.108 -0.4285  0.0228  0.4932
  892MOL0     C20338   8.180  11.452  -0.066  0.7310  0.5465  0.5177
  892MOL0     C20339   7.767  11.278   0.020 -0.7100 -0.0577  0.7243
  892MOL0     C20340   7.660  11.353  -0.046  0.1732  0.0837  0.0947
  892MOL0     C20341   7.531  11.288  -0.058  0.4328  0.3366 -0.5963
  892MOL0     C20342   7.503  11.167  -0.006  0.1232  0.0016 -0.0947
  892MOL0     O20343   7.382  11.107  -0.016  0.2690  0.0569 -0.7725
  892MOL0     C20344   7.261  11.171  -0.062 -0.0708  0.0133  0.5015
  892MOL0     C20345   7.152  11.067  -0.061 -0.3162  0.9811 -0.4084
  892MOL0     C20346   7.013  11.116  -0.087 -0.3290 -0.1632 -0.2552
  892MOL0     C20347   6.945  11.155   0.049 -0.4155 -0.6665 -1.1251
  892MOL0     C20348   6.871  11.044   0.113  0.5605 -1.3233  0.9565
  892MOL0     C20349   6.825  10.947   0.171  0.3789  0.0437  0.7494
  892MOL0     C20350   7.606  11.108   0.072  0.3131 -0.0122 -0.1920
  892MOL0     C20351   7.733  11.163   0.094  1.0154 -0.6231  0.3279
  892MOL0     C20352   7.824  11.096   0.184  0.1867 -0.3080 -0.8390
  892MOL0     H20353   7.956  11.639  -0.234  0.5612  0.0926 -2.5390
  892MOL0     H20354   8.166  11.746  -0.306 -2.1595  1.1693 -0.0505
  892MOL0     H20355   8.516  11.490  -0.266  0.9440  0.1867 -0.0018
  892MOL0     H20356   8.585  11.632  -0.340 -0.8223  2.6476  0.6810
  892MOL0     H20357   8.559  11.591  -0.043  0.0101 -1.2798  0.1091
  892MOL0     H20358   8.593  11.742  -0.120 -0.0293 -1.1416  0.5676
  892MOL0     H20359   8.754  11.491  -0.180 -1.8643 -1.3159 -0.4941
  892MOL0     H20360   8.804  11.586  -0.039  3.3760  2.5396 -1.0578
  892MOL0     H20361   8.800  11.712  -0.308  0.7489  1.1043 -0.0687
  892MOL0     H20362   8.822  11.790  -0.142 -1.6576 -0.0275  0.1436
  892MOL0     H20363   9.017  11.648  -0.102  1.5081 -2.7223 -0.9483
  892MOL0     H20364   8.999  11.552  -0.241 -0.0842  1.4160 -1.4689
  892MOL0     H20365   9.023  11.740  -0.399  1.3566  0.8608 -0.6284
  892MOL0     H20366   9.019  11.855  -0.269 -0.5928  0.0294 -1.4338
  892MOL0     H20367   9.228  11.734  -0.177  2.8652 -0.7558 -0.5588
  892MOL0     H20368   9.256  11.811  -0.328  1.0998 -1.4581 -1.6191
  892MOL0     H20369   9.209  11.503  -0.277  0.4463 -3.0662 -4.6048
  892MOL0     H20370   9.231  11.570  -0.431 -1.3087 -0.0404  1.4985
  892MOL0     H20371   9.479  11.789  -0.250  0.7651  0.1444  0.2679
  892MOL0     H20372   9.745  11.771  -0.221 -0.3984  0.1776  0.4400
  892MOL0     H20373   9.695  11.697  -0.072  0.7574 -1.9026  1.1263
  892MOL0     H20374   9.843  11.492  -0.148  0.6918  0.6391  2.7312
  892MOL0     H20375   9.890  11.599  -0.282  2.1123 -2.3293 -0.3091
  892MOL0     H20376   9.918  11.664   0.023 -0.9249 -2.4033  0.8049
  892MOL0     H20377   9.975  11.763  -0.112  0.4180 -0.4260 -0.9235
  892MOL0     H20378  10.070  11.491  -0.041 -2.4216  1.3894  0.3660
  892MOL0     H20379  10.148  11.637   0.010 -1.5297 -0.0322  1.8247
  892MOL0     H20380  10.266  11.392  -0.078  1.7606 -1.6770  0.3564
  892MOL0     H20381  10.507  11.323  -0.067 -1.3733 -1.2700 -1.2118
  892MOL0     H20382  10.834  11.157  -0.312 -0.1344  4.2587 -1.4913
  892MOL0     H20383  11.060  11.042  -0.322 -0.6666 -1.7800  1.8762
  892MOL0     H20384  11.257  10.941  -0.307 -2.7062  1.4896  0.6078
  892MOL0     H20385  11.332  11.100  -0.336 -3.0256  0.8344  1.1237
  892MOL0     H20386  11.490  10.907  -0.305  4.2666  3.2110 -0.3264
  892MOL0     H20387  11.516  11.047  -0.203 -0.6445 -0.3352  2.4473
  892MOL0     H20388  11.477  10.912  -0.010 -0.3451 -2.3027  2.9331
  892MOL0     H20389  11.348  10.822  -0.076  0.7240  0.2924  1.2588
  892MOL0     H20390  11.639  10.801  -0.162 -0.0479 -0.2193 -0.0371
  892MOL0     H20391  11.529  10.693  -0.226 -0.9734  2.6119 -1.9575
  892MOL0     H20392  11.471  10.625   0.037 -0.7482 -1.6689 -0.4276
  892MOL0     H20393  11.632  10.702   0.065  1.7304 -2.2549  0.8853
  892MOL0     H20394  11.695  10.488   0.046 -0.2084  0.6586  0.5039
  892MOL0     H20395  11.588  10.449  -0.080 -0.4466 -0.5767  1.4538
  892MOL0     H20396  11.826  10.645  -0.120  2.6276 -1.0388 -3.0660
  892MOL0     H20397  11.718  10.587  -0.254  1.5356 -1.8375 -0.6243
  892MOL0     H20398  11.806  10.370  -0.217  1.5747 -1.7536 -0.1732
  892MOL0     H20399  11.930  10.480  -0.265 -0.9694 -0.3986 -0.3303
  892MOL0     H20400  11.184  11.249   0.021 -1.5672 -0.2719  1.0395
  892MOL0     H20401  10.963  11.367   0.045  0.9340 -0.4228  1.1323
  892MOL0     H20402  10.605  11.675  -0.281  0.6718 -1.8737 -0.5487
  892MOL0     H20403  10.394  11.742  -0.302 -1.5360 -1.4780 -0.8221
  892MOL0     H20404   8.382  11.465  -0.062 -1.2432 -0.2069  1.9051
  892MOL0     H20405   8.193  11.368   0.001 -0.0660 -0.8128 -0.9578
  892MOL0     H20406   7.665  11.448  -0.098  1.6283 -1.7450 -3.4596
  892MOL0     H20407   7.460  11.353  -0.107 -3.2197 -2.6388  0.3159
  892MOL0     H20408   7.288  11.214  -0.159 -0.1523 -2.8912 -0.9175
  892MOL0     H20409   7.237  11.256   0.002  0.1865  0.9900 -0.6604
  892MOL0     H20410   7.162  11.025   0.039  2.0438 -1.1094 -1.4128
  892MOL0     H20411   7.181  10.991  -0.134 -0.4592  3.3527 -3.1120
  892MOL0     H20412   6.960  11.034  -0.136  0.7377 -0.6335 -0.6433
  892MOL0     H20413   7.025  11.200  -0.156  2.2441  1.0324  1.4959
  892MOL0     H20414   7.016  11.199   0.120 -1.9027  0.8554 -0.5268
  892MOL0     H20415   6.877  11.234   0.017  0.7519  0.5949 -0.6001
  892MOL0     H20416   6.796  10.851   0.210 -0.5437 -0.2912 -0.6715
  892MOL0     H20417   7.588  11.008   0.112 -0.2978 -0.0449 -0.5407
  892MOL0     H20418   7.906  11.047   0.130  0.0000 -0.5821 -0.8764
  892MOL0     H20419   7.874  11.167   0.251  2.0901  0.2768 -2.7489
  892MOL0     H20420   7.779  11.011   0.235  1.2548 -1.8607 -2.3981
  893MOL0     O20421   2.823   4.973   4.363  0.1124 -0.1740  0.9154
  893MOL0     C20422   2.838   4.976   4.235 -0.5790  0.5692 -0.7881
  893MOL0     O20423   2.960   4.970   4.173  0.9454  0.8347  0.0472
  893MOL0     C20424   3.082   5.019   4.226  0.2270 -0.2795 -0.2748
  893MOL0     C20425   3.200   4.977   4.160 -0.2336 -1.0225  0.0438
  893MOL0     C20426   3.327   5.030   4.199  0.3925  0.2981  0.6716
  893MOL0     C20427   3.329   5.123   4.311  0.5983  1.0215 -0.3789
  893MOL0     O20428   3.445   5.174   4.363 -1.0568  0.2808 -0.2460
  893MOL0     C20429   3.567   5.117   4.316  0.5669 -0.2442 -0.1487
  893MOL0     C20430   3.686   5.181   4.382 -0.2829 -0.0216  0.0167
  893MOL0     C20431   3.830   5.136   4.349 -0.1934  0.1092  0.0511
  893MOL0     C20432   3.836   4.989   4.381 -0.7496 -0.5247  0.0874
  893MOL0     C20433   3.982   4.936   4.381 -0.7279  0.3535  0.2134
  893MOL0     C20434   4.075   5.007   4.479  0.3762 -0.0490 -0.2728
  893MOL0     C20435   4.200   4.920   4.521  0.2403  0.5358  0.3221
  893MOL0     C20436   4.287   4.864   4.403 -0.6348  0.0598 -0.7023
  893MOL0     N20437   4.422   4.833   4.451 -0.5198  0.1133  0.3057
  893MOL0     C20438   4.455   4.775   4.573 -0.5670  0.6970  0.5051
  893MOL0     C20439   4.589   4.765   4.563 -0.3560  0.4790 -0.0082
  893MOL0     C20440   4.672   4.722   4.679 -0.7954  1.1651  1.1329
  893MOL0     C20441   4.825   4.738   4.648 -0.7433 -0.0315  0.7481
  893MOL0     C20442   4.905   4.716   4.782  0.1045 -0.6724  0.4871
  893MOL0     C20443   5.051   4.685   4.755  0.0517  0.7180 -0.0319
  893MOL0     O20444   5.124   4.794   4.684  0.1367  0.1914 -0.3451
  893MOL0     C20445   5.255   4.778   4.648 -0.1141 -1.3617  0.0198
  893MOL0     C20446   5.319   4.870   4.564  0.7463  0.1359  0.5948
  893MOL0     C20447   5.451   4.871   4.539 -1.0724  0.2552 -0.0578
  893MOL0     C20448   5.537   4.760   4.576 -0.2288 -0.5488 -0.7942
  893MOL0     C20449   5.679   4.777   4.546  0.9632 -0.3117 -0.1674
  893MOL0     O20450   5.722   4.900   4.502  0.4047 -0.0874 -0.1712
  893MOL0     C20451   5.857   4.929   4.479 -0.1721  0.1078 -0.8499
  893MOL0     C20452   5.916   5.055   4.514  0.4578  1.1076 -0.6064
  893MOL0     C20453   6.041   5.095   4.479 -0.7389  0.6878  0.2140
  893MOL0     C20454   6.127   5.007   4.420  0.5095  0.3503  0.4545
  893MOL0     O20455   6.259   5.035   4.410 -0.6392 -0.1587 -0.1053
  893MOL0     C20456   6.344   4.922   4.405 -0.0131  0.0317  0.4902
  893MOL0     C20457   6.486   4.970   4.455 -0.2595 -0.7525  0.0960
  893MOL0     C20458   6.541   5.077   4.364 -0.0934  0.3318 -0.4200
  893MOL0     C20459   6.691   5.092   4.387 -0.5449  0.2402  0.4240
  893MOL0     C20460   6.756   5.198   4.294 -0.1251  0.9172  0.1791
  893MOL0     C20461   6.913   5.221   4.320  0.2133  1.0784  0.2971
  893MOL0     C20462   6.949   5.250   4.468 -0.8427 -0.9718 -0.3602
  893MOL0     C20463   6.863   5.361   4.529  0.2373 -0.2601  0.0343
  893MOL0    Cl20464   6.937   5.436   4.674  0.0341 -0.0550  0.1987
  893MOL0     C20465   6.077   4.875   4.391 -0.2777  0.3315  0.3793
  893MOL0     C20466   5.951   4.834   4.425  0.4917 -0.1434 -0.6030
  893MOL0     O20467   5.745   4.678   4.571 -0.2369 -0.5275  0.3602
  893MOL0     C20468   5.477   4.659   4.651  0.7648  0.7297 -0.2114
  893MOL0     C20469   5.342   4.667   4.679  0.3303 -0.3381  0.1455
  893MOL0     N20470   4.638   4.801   4.439  0.2616 -0.2553 -0.1152
  893MOL0     N20471   4.539   4.845   4.370  0.1284 -0.3440 -0.3308
  893MOL0     C20472   3.209   5.162   4.372  0.7394  0.4336 -0.9886
  893MOL0     C20473   3.082   5.113   4.334 -0.0095  0.2745 -0.5964
  893MOL0     C20474   2.713   4.967   4.149 -0.4379 -0.1326 -0.3660
  893MOL0     C20475   2.710   4.886   4.035 -0.2125  0.6603  1.3410
  893MOL0     C20476   2.595   4.867   3.959  0.3389 -0.1620  0.0835
  893MOL0     C20477   2.472   4.923   3.994 -1.1146  0.0385 -0.5484
  893MOL0     O20478   2.357   4.901   3.925 -0.0672 -0.1175  0.4695
  893MOL0     C20479   2.364   4.829   3.796  0.3869  0.4512 -0.6063
  893MOL0     C20480   2.242   4.839   3.705 -0.1261  0.8601 -0.5586
  893MOL0     C20481   2.208   4.978   3.660  0.2678 -0.5353  0.4236
  893MOL0     C20482   2.073   4.977   3.594  0.5346 -0.9858 -0.9251
  893MOL0     C20483   2.049   5.119   3.554 -0.3342 -0.3918 -0.1202
  893MOL0     C20484   2.015   5.235   3.517 -0.2225  0.0489 -0.4311
  893MOL0     C20485   2.480   5.010   4.100 -0.8455 -0.1942  0.3506
  893MOL0     C20486   2.595   5.042   4.180 -0.2009 -0.2734  0.0279
  893MOL0     C20487   2.581   5.159   4.287 -0.5790 -0.0095 -0.4605
  893MOL0     H20488   3.172   4.911   4.079 -1.2864 -1.4863  0.7545
  893MOL0     H20489   3.420   4.996   4.154 -0.5275 -0.2939 -0.8396
  893MOL0     H20490   3.571   5.009   4.336 -4.1722 -0.5606  0.4080
  893MOL0     H20491   3.565   5.141   4.210 -2.5386 -0.4859 -0.2360
  893MOL0     H20492   3.680   5.171   4.490 -2.6963 -1.6960 -0.1902
  893MOL0     H20493   3.686   5.288   4.360 -2.3950 -0.0127 -0.1426
  893MOL0     H20494   3.896   5.199   4.409 -0.5619  1.7948 -1.2551
  893MOL0     H20495   3.866   5.139   4.246 -0.9633 -0.8270 -0.2617
  893MOL0     H20496   3.793   4.964   4.479 -0.0689  1.6564  0.9923
  893MOL0     H20497   3.787   4.934   4.300 -0.2940 -1.7654  0.6216
  893MOL0     H20498   3.969   4.831   4.410 -1.1181  1.2628  3.7363
  893MOL0     H20499   4.022   4.936   4.279  2.2614 -2.9322  1.1763
  893MOL0     H20500   4.096   5.102   4.429 -0.4161  1.4825  2.1003
  893MOL0     H20501   4.025   5.041   4.571  1.8141 -0.2599  0.6272
  893MOL0     H20502   4.160   4.844   4.589  0.9420 -0.2546 -0.1394
  893MOL0     H20503   4.261   4.988   4.582 -1.2346 -0.6958  3.3685
  893MOL0     H20504   4.236   4.773   4.368 -1.5823 -2.0527  5.0645
  893MOL0     H20505   4.300   4.937   4.323  1.1905 -1.1158 -1.5570
  893MOL0     H20506   4.399   4.755   4.663  1.6111 -1.5637  1.4647
  893MOL0     H20507   4.644   4.784   4.764 -0.7581  2.9057 -0.0820
  893MOL0     H20508   4.656   4.614   4.688  1.6714  0.8568  2.6385
  893MOL0     H20509   4.857   4.677   4.563  4.8021  3.9277 -0.5309
  893MOL0     H20510   4.838   4.840   4.611 -1.1018 -0.9884 -2.2672
  893MOL0     H20511   4.859   4.637   4.842  1.1569 -3.1727 -1.7867
  893MOL0     H20512   4.915   4.810   4.837  2.6773 -1.4415  1.4694
  893MOL0     H20513   5.063   4.596   4.693 -0.9726  0.8534 -0.4419
  893MOL0     H20514   5.095   4.658   4.851  3.1054  2.1903 -0.8743
  893MOL0     H20515   5.249   4.940   4.519  1.7594  0.3172 -0.7683
  893MOL0     H20516   5.487   4.953   4.478  2.1875 -2.4909 -2.2527
  893MOL0     H20517   5.854   5.124   4.570  0.9309  0.8202  0.2822
  893MOL0     H20518   6.087   5.188   4.512  0.8731 -0.9151  2.8597
  893MOL0     H20519   6.314   4.843   4.475 -0.0491  0.5857  1.0974
  893MOL0     H20520   6.350   4.885   4.302  3.7646 -0.0673  0.6058
  893MOL0     H20521   6.479   5.009   4.557 -2.7009 -1.6187  0.3075
  893MOL0     H20522   6.555   4.886   4.470  0.0815 -0.2810  1.2675
  893MOL0     H20523   6.522   5.039   4.263 -1.4910 -0.8637  0.2497
  893MOL0     H20524   6.490   5.173   4.369  1.6655  1.2813  3.3168
  893MOL0     H20525   6.727   4.991   4.365 -1.3255  0.3174 -1.3225
  893MOL0     H20526   6.713   5.117   4.492 -2.5217 -1.0235  1.2138
  893MOL0     H20527   6.697   5.289   4.302 -2.5344 -0.5789  0.6112
  893MOL0     H20528   6.745   5.167   4.190 -1.0972 -1.2506  0.8456
  893MOL0     H20529   6.973   5.138   4.280  0.3682  1.2581  0.1551
  893MOL0     H20530   6.943   5.305   4.256 -1.2883  1.6323  0.2736
  893MOL0     H20531   7.053   5.285   4.473 -0.9240 -0.7943  0.1529
  893MOL0     H20532   6.948   5.155   4.520 -0.7922 -0.3484  0.8072
  893MOL0     H20533   6.853   5.434   4.448  1.2037  1.7444  1.6091
  893MOL0     H20534   6.761   5.325   4.548  0.0814  0.1758  0.0565
  893MOL0     H20535   6.135   4.811   4.327 -0.8568  1.5667 -1.4704
  893MOL0     H20536   5.927   4.731   4.400  0.5433  0.0092 -1.3051
  893MOL0     H20537   5.533   4.575   4.691 -1.3746 -0.0552  1.2940
  893MOL0     H20538   5.308   4.591   4.747 -1.8831  0.0162 -0.4924
  893MOL0     H20539   3.213   5.226   4.460  0.5223  0.5354 -1.0521
  893MOL0     H20540   2.995   5.146   4.390 -0.9043 -2.7266 -0.0607
  893MOL0     H20541   2.791   4.821   4.005 -1.9440 -1.6762  1.5050
  893MOL0     H20542   2.606   4.801   3.874 -1.9566 -0.3767 -0.1175
  893MOL0     H20543   2.384   4.723   3.815  4.0615  1.3692  1.7309
  893MOL0     H20544   2.452   4.866   3.742  0.1717  1.5707 -0.2026
  893MOL0     H20545   2.163   4.799   3.770 -0.0391 -0.3606 -1.1838
  893MOL0     H20546   2.245   4.772   3.618 -2.7993  1.6759 -1.3839
  893MOL0     H20547   2.289   5.012   3.594  0.5614  0.1460  1.1169
  893MOL0     H20548   2.199   5.046   3.745 -0.4193 -2.4134  1.9117
  893MOL0     H20549   2.068   4.919   3.502 -1.1257 -1.0123 -0.8487
  893MOL0     H20550   1.992   4.951   3.663 -2.4264  3.9819 -1.9581
  893MOL0     H20551   1.996   5.339   3.501  0.1003 -0.2889 -3.8805
  893MOL0     H20552   2.380   5.049   4.121  0.4837  2.3213  2.5482
  893MOL0     H20553   2.678   5.186   4.329 -0.3749 -0.4421 -0.6479
  893MOL0     H20554   2.543   5.246   4.232  1.5107  1.0699 -0.3289
  893MOL0     H20555   2.520   5.119   4.368  0.9022  2.0840  1.8723
  894MOL0     O20556   1.380   6.226   3.103 -0.4737 -0.8260  0.1045
  894MOL0     C20557   1.398   6.338   3.154 -0.5647 -0.2829 -0.1903
  894MOL0     O20558   1.300   6.424   3.181 -0.4288 -0.3111  0.3917
  894MOL0     C20559   1.197   6.427   3.092  0.8842 -0.0973  0.2670
  894MOL0     C20560   1.068   6.419   3.142  0.6003  0.7776 -0.0089
  894MOL0     C20561   0.958   6.417   3.054 -0.9539 -1.0253  0.1551
  894MOL0     C20562   0.975   6.442   2.915 -0.3535  0.4306 -0.1566
  894MOL0     O20563   0.873   6.440   2.827 -0.0408 -0.8337  0.0863
  894MOL0     C20564   0.810   6.311   2.814 -0.0659 -0.8954  0.0779
  894MOL0     C20565   0.730   6.299   2.685 -0.5140 -0.3924  0.5634
  894MOL0     C20566   0.589   6.333   2.676  0.7439 -0.0166 -0.0339
  894MOL0     C20567   0.571   6.485   2.694 -0.6590 -0.6496  0.3848
  894MOL0     C20568   0.422   6.531   2.663  0.4273 -0.2219  0.8029
  894MOL0     C20569   0.317   6.505   2.773 -0.1398  0.0533 -1.2443
  894MOL0     C20570   0.324   6.589   2.894 -0.2498  0.1335 -0.7248
  894MOL0     C20571   0.290   6.736   2.863  0.0480  0.0426  0.1047
  894MOL0     N20572   0.275   6.801   2.992 -0.3420 -0.2324 -0.8014
  894MOL0     C20573   0.384   6.846   3.061 -0.1258 -0.4092  0.2294
  894MOL0     C20574   0.329   6.889   3.181 -0.4129 -0.0931  0.7563
  894MOL0     C20575   0.393   6.946   3.311 -0.3763 -0.1646  0.3257
  894MOL0     C20576   0.419   6.840   3.411 -0.3776  0.1243  0.6987
  894MOL0     C20577   0.419   6.894   3.559  0.1072  0.6642 -0.9168
  894MOL0     C20578   0.523   7.003   3.580 -0.4784  0.2814 -0.7606
  894MOL0     O20579   0.463   7.103   3.656 -0.2219  0.0229 -1.0823
  894MOL0     C20580   0.539   7.207   3.700  0.2668  0.4911 -0.7935
  894MOL0     C20581   0.669   7.227   3.658 -0.2668 -0.0404  0.1830
  894MOL0     C20582   0.747   7.331   3.700 -0.2743  0.5405  0.3752
  894MOL0     C20583   0.688   7.431   3.791  0.9270  0.2880  0.8202
  894MOL0     C20584   0.766   7.534   3.846 -0.6790  0.0062 -0.9566
  894MOL0     O20585   0.857   7.579   3.757 -0.5774  1.1387  0.1510
  894MOL0     C20586   0.950   7.669   3.805  0.4979  0.8323 -0.6140
  894MOL0     C20587   0.931   7.775   3.886  1.1124  1.1058 -0.5580
  894MOL0     C20588   1.035   7.856   3.931  0.3260  0.3288  0.0108
  894MOL0     C20589   1.167   7.831   3.885  1.6288 -1.1464  0.1704
  894MOL0     O20590   1.275   7.912   3.922  0.0450 -0.2161 -0.3981
  894MOL0     C20591   1.258   7.992   4.043 -0.7600  0.4716 -0.2532
  894MOL0     C20592   1.397   8.045   4.089  0.7192  0.8072  0.4227
  894MOL0     C20593   1.505   7.949   4.123  0.2982 -0.5222  0.5068
  894MOL0     C20594   1.628   8.022   4.188 -0.3831  0.0789  0.8696
  894MOL0     C20595   1.735   7.917   4.226 -0.2703 -0.0678 -0.5267
  894MOL0     C20596   1.848   7.962   4.313  1.0041  0.6097 -0.2054
  894MOL0     C20597   1.925   8.088   4.257  0.1071 -0.8323  0.2696
  894MOL0     C20598   2.043   8.131   4.338 -0.5237 -0.0375 -0.7155
  894MOL0    Cl20599   2.176   8.020   4.297  0.2860 -0.1590 -0.1351
  894MOL0     C20600   1.185   7.725   3.800 -0.3102  0.0217  0.0677
  894MOL0     C20601   1.080   7.637   3.764 -1.2855 -0.6225 -1.0863
  894MOL0     O20602   0.740   7.567   3.962  0.4083 -0.5910  0.0744
  894MOL0     C20603   0.554   7.417   3.820  0.3363 -0.0709 -0.9113
  894MOL0     C20604   0.476   7.305   3.786  0.3109  0.5383 -0.3643
  894MOL0     N20605   0.187   6.870   3.177  0.3596  0.3004  0.6649
  894MOL0     N20606   0.161   6.833   3.061 -0.7514  0.1096 -0.3063
  894MOL0     C20607   1.114   6.450   2.871  0.2425  0.2121  0.3309
  894MOL0     C20608   1.217   6.439   2.954 -0.5849  0.0626  0.4978
  894MOL0     C20609   1.534   6.367   3.198 -0.7686 -0.0702 -0.0162
  894MOL0     C20610   1.622   6.262   3.252  0.0586  0.1915 -0.2441
  894MOL0     C20611   1.749   6.290   3.304 -0.0820 -0.0089 -0.2663
  894MOL0     C20612   1.785   6.427   3.293 -0.2427  0.2537 -0.4026
  894MOL0     O20613   1.913   6.478   3.332  0.9495  0.2627  0.1756
  894MOL0     C20614   2.008   6.386   3.380 -0.4897 -0.8571  1.3293
  894MOL0     C20615   2.139   6.463   3.430 -0.2744 -0.0357 -0.6823
  894MOL0     C20616   2.254   6.360   3.476  0.8429  0.3018 -0.1025
  894MOL0     C20617   2.350   6.435   3.573  0.3972 -0.2091  0.2135
  894MOL0     C20618   2.451   6.345   3.623 -0.3841  0.2361  0.0240
  894MOL0     C20619   2.496   6.233   3.642  0.2604 -0.1919  0.4955
  894MOL0     C20620   1.706   6.524   3.241 -0.4505 -0.3549 -1.1546
  894MOL0     C20621   1.581   6.494   3.186 -0.2469  0.5767  0.3700
  894MOL0     C20622   1.505   6.614   3.137 -0.2823 -0.4486 -0.3371
  894MOL0     H20623   1.068   6.383   3.244  4.1510  1.2886  0.2762
  894MOL0     H20624   0.858   6.393   3.088 -0.5795  0.7703  2.7569
  894MOL0     H20625   0.897   6.245   2.810  0.7011  0.1277 -1.3011
  894MOL0     H20626   0.749   6.288   2.901  0.1041  0.8673  0.6973
  894MOL0     H20627   0.730   6.193   2.657 -0.6937 -0.6852  1.6124
  894MOL0     H20628   0.782   6.353   2.606  3.1461 -0.6310  2.5942
  894MOL0     H20629   0.530   6.283   2.754  1.5335 -0.0086  0.5839
  894MOL0     H20630   0.539   6.314   2.581 -1.1816  2.6886  0.3166
  894MOL0     H20631   0.596   6.518   2.795 -1.1167 -1.6646  0.8497
  894MOL0     H20632   0.637   6.537   2.624 -2.2795  0.7241 -0.2061
  894MOL0     H20633   0.413   6.637   2.637 -2.8946 -0.3418  1.0456
  894MOL0     H20634   0.405   6.484   2.566  1.6710 -0.3431  0.6211
  894MOL0     H20635   0.215   6.511   2.736 -1.8092 -0.8405  2.6954
  894MOL0     H20636   0.311   6.399   2.802  1.3619  0.3613  0.3379
  894MOL0     H20637   0.427   6.581   2.930 -0.5148 -2.3217 -0.3550
  894MOL0     H20638   0.269   6.548   2.979  2.1279 -1.7144  0.0470
  894MOL0     H20639   0.378   6.784   2.819  0.6058  1.7772  2.8443
  894MOL0     H20640   0.203   6.761   2.801  0.5343  1.9355  0.1271
  894MOL0     H20641   0.484   6.853   3.020 -0.2720 -0.6811 -0.1756
  894MOL0     H20642   0.482   6.998   3.274  0.4727 -2.6377 -1.3097
  894MOL0     H20643   0.324   7.023   3.349 -1.4464  0.1980 -2.2057
  894MOL0     H20644   0.347   6.759   3.393  2.8637 -2.8430 -0.1398
  894MOL0     H20645   0.512   6.788   3.385 -0.8305  0.9117 -3.1309
  894MOL0     H20646   0.443   6.816   3.632  1.3240  3.5261  1.9649
  894MOL0     H20647   0.320   6.926   3.594 -0.1977 -1.7938  0.7491
  894MOL0     H20648   0.545   7.045   3.481  2.1979 -0.2634 -0.4935
  894MOL0     H20649   0.615   6.963   3.624 -1.2994 -2.6623 -1.4675
  894MOL0     H20650   0.712   7.161   3.583  1.6001  1.6944 -0.3814
  894MOL0     H20651   0.847   7.351   3.662  0.6254  0.2867  2.4748
  894MOL0     H20652   0.829   7.802   3.911  1.2914  2.0271 -0.7725
  894MOL0     H20653   1.008   7.936   3.999  1.8352  2.9980 -2.3128
  894MOL0     H20654   1.192   8.078   4.027 -0.5755  0.1879 -3.0443
  894MOL0     H20655   1.230   7.924   4.124  1.4177 -0.6663 -0.3983
  894MOL0     H20656   1.435   8.118   4.017 -0.6634  1.5304  0.3947
  894MOL0     H20657   1.394   8.097   4.185  1.3212  1.1257  0.2698
  894MOL0     H20658   1.460   7.880   4.196 -2.4478  0.7811  0.1604
  894MOL0     H20659   1.532   7.888   4.036  1.8039 -2.0573  1.9783
  894MOL0     H20660   1.605   8.082   4.276  1.3765  0.8359  0.8504
  894MOL0     H20661   1.660   8.079   4.100 -2.4131 -3.7958 -2.7619
  894MOL0     H20662   1.783   7.867   4.141 -0.5339  0.7540 -1.1773
  894MOL0     H20663   1.680   7.848   4.290  0.9806  0.7366  1.5312
  894MOL0     H20664   1.810   7.987   4.412  1.7418  2.0060 -0.2440
  894MOL0     H20665   1.921   7.883   4.330 -1.9685 -2.0737  0.8378
  894MOL0     H20666   1.864   8.178   4.245  0.9819 -0.2843 -0.1868
  894MOL0     H20667   1.948   8.062   4.153 -0.2486 -2.9525  0.6578
  894MOL0     H20668   2.060   8.237   4.318 -0.7043  0.4001  1.2723
  894MOL0     H20669   2.026   8.121   4.445 -1.4133 -2.8661 -1.0285
  894MOL0     H20670   1.283   7.695   3.765 -1.0354 -1.6248 -0.6666
  894MOL0     H20671   1.092   7.554   3.696 -2.2244 -0.0620 -1.9650
  894MOL0     H20672   0.520   7.490   3.893  1.5282 -1.0903  0.7426
  894MOL0     H20673   0.376   7.297   3.826 -1.0199 -0.4581 -3.5460
  894MOL0     H20674   1.134   6.469   2.766 -1.6118  0.1636 -0.0721
  894MOL0     H20675   1.322   6.440   2.925 -0.6850  0.1270  0.1244
  894MOL0     H20676   1.586   6.161   3.262 -1.7529  0.8584  0.4594
  894MOL0     H20677   1.813   6.210   3.340 -0.0934  0.1150  0.0278
  894MOL0     H20678   2.034   6.318   3.299  0.0264  1.2535 -0.3409
  894MOL0     H20679   1.955   6.343   3.466 -2.8821  2.7184  1.8352
  894MOL0     H20680   2.107   6.530   3.510  0.0314  2.6398 -2.6779
  894MOL0     H20681   2.186   6.526   3.355 -0.0959 -0.3434 -0.8283
  894MOL0     H20682   2.291   6.324   3.380 -0.7157 -0.1604 -0.5588
  894MOL0     H20683   2.203   6.278   3.528  0.0976  1.5252  1.1937
  894MOL0     H20684   2.382   6.516   3.507 -0.0560 -0.9038 -0.8929
  894MOL0     H20685   2.292   6.468   3.660  0.1983 -0.7263  0.2817
  894MOL0     H20686   2.523   6.129   3.641  2.8837  0.2418 -4.3619
  894MOL0     H20687   1.759   6.616   3.220  2.7545 -1.3250  1.7474
  894MOL0     H20688   1.431   6.652   3.208  0.3678  0.4370 -0.1097
  894MOL0     H20689   1.569   6.698   3.109 -2.4934  1.2373 -0.6163
  894MOL0     H20690   1.463   6.584   3.041  1.0694  0.0813 -1.1286
  895MOL0     O20691   7.944   9.680   1.765 -0.6126 -0.2218  0.4443
  895MOL0     C20692   7.920   9.797   1.798  0.2814  1.7142  0.7571
  895MOL0     O20693   8.021   9.874   1.839  0.5341 -0.2725 -0.1063
  895MOL0     C20694   8.134   9.826   1.903 -0.1909 -0.3598  0.4378
  895MOL0     C20695   8.212   9.726   1.848  0.0669 -0.8410 -0.4738
  895MOL0     C20696   8.318   9.684   1.924  0.4197 -0.8918  0.3927
  895MOL0     C20697   8.364   9.746   2.040 -0.2869  0.5781 -0.6955
  895MOL0     O20698   8.471   9.703   2.110 -0.5154  0.5350  0.2725
  895MOL0     C20699   8.535   9.795   2.203 -0.7454  1.0599  0.3198
  895MOL0     C20700   8.685   9.770   2.224 -0.2999 -0.9588 -0.0439
  895MOL0     C20701   8.774   9.804   2.099  0.8589  0.1231 -0.2933
  895MOL0     C20702   8.892   9.881   2.148  0.7909 -0.3764  0.0292
  895MOL0     C20703   8.975   9.943   2.044  0.8665 -0.2345  0.3761
  895MOL0     C20704   9.074  10.047   2.089  0.2985  0.5171 -0.9242
  895MOL0     C20705   9.133  10.113   1.966 -1.0079 -0.3445 -0.9171
  895MOL0     C20706   9.023  10.209   1.901  0.2246 -0.3586 -0.1562
  895MOL0     N20707   9.088  10.310   1.819 -0.6076  0.4601 -0.5212
  895MOL0     C20708   9.113  10.444   1.845  0.8630  0.4576  0.4619
  895MOL0     C20709   9.199  10.489   1.754 -0.2351 -0.3841 -0.0085
  895MOL0     C20710   9.276  10.621   1.771 -0.3829 -0.7898  0.2918
  895MOL0     C20711   9.410  10.603   1.847  0.0206  0.3812 -0.2363
  895MOL0     C20712   9.487  10.475   1.815  0.5059 -0.0732 -0.2680
  895MOL0     C20713   9.548  10.475   1.670  0.1631  0.1764  0.8086
  895MOL0     O20714   9.640  10.366   1.641  0.1013 -0.4396  0.5968
  895MOL0     C20715   9.775  10.379   1.660  0.2621  1.0090 -0.5324
  895MOL0     C20716   9.859  10.293   1.593 -0.3057  0.4754 -0.2259
  895MOL0     C20717  10.001  10.313   1.594  0.2105 -0.1077  0.1865
  895MOL0     C20718  10.050  10.413   1.683 -0.7589 -0.1367  0.8982
  895MOL0     C20719  10.198  10.436   1.695  0.9500 -0.5964 -0.6758
  895MOL0     O20720  10.270  10.339   1.765  0.0443  0.3974  0.0697
  895MOL0     C20721  10.399  10.303   1.734 -0.1179 -0.0588 -0.6677
  895MOL0     C20722  10.444  10.175   1.766 -0.5186 -0.2947  0.0724
  895MOL0     C20723  10.573  10.129   1.740 -0.4336  0.3071  0.7449
  895MOL0     C20724  10.656  10.210   1.665  0.3041 -0.2367  0.4903
  895MOL0     O20725  10.784  10.172   1.642 -0.2035 -0.7436  0.5780
  895MOL0     C20726  10.808  10.035   1.580 -0.6678 -0.0865  0.4079
  895MOL0     C20727  10.841  10.037   1.433 -0.2581 -0.0930  0.0481
  895MOL0     C20728  10.925  10.157   1.404  0.8733 -0.6922 -0.3775
  895MOL0     C20729  11.027  10.119   1.300 -0.4502 -0.2711  0.2680
  895MOL0     C20730  11.120  10.238   1.255  0.4081 -0.0467 -0.1171
  895MOL0     C20731  11.254  10.190   1.191 -1.1672  0.7733  0.5199
  895MOL0     C20732  11.321  10.286   1.099 -0.3335 -0.8795  0.2916
  895MOL0     C20733  11.447  10.228   1.036 -0.6602  0.2875 -0.1306
  895MOL0    Cl20734  11.424  10.077   0.940 -0.0893 -0.3419  0.0303
  895MOL0     C20735  10.618  10.339   1.628  0.0147 -1.0587  0.2168
  895MOL0     C20736  10.493  10.389   1.673 -0.2296  0.3987  0.6531
  895MOL0     O20737  10.238  10.507   1.603  1.1911 -0.5418 -0.3634
  895MOL0     C20738   9.961  10.497   1.754  0.0908 -0.0188  0.4466
  895MOL0     C20739   9.826  10.478   1.739  0.0978 -0.8573  0.0111
  895MOL0     N20740   9.221  10.378   1.663  0.4574 -0.2584 -0.5783
  895MOL0     N20741   9.150  10.280   1.697 -0.4790 -0.2303 -0.5006
  895MOL0     C20742   8.277   9.847   2.094 -0.0220  0.2640  0.3908
  895MOL0     C20743   8.168   9.889   2.024  0.2725 -0.6605  0.1297
  895MOL0     C20744   7.786   9.840   1.753 -0.3997  0.0320 -0.3522
  895MOL0     C20745   7.741   9.787   1.629  0.2169 -0.4774 -0.0728
  895MOL0     C20746   7.634   9.846   1.559 -0.5726  0.6748  0.3148
  895MOL0     C20747   7.562   9.945   1.626 -0.8043 -0.0130  0.3916
  895MOL0     O20748   7.442   9.973   1.566  0.8166 -0.1173 -0.2923
  895MOL0     C20749   7.354  10.061   1.641  0.5883  0.3492  0.3923
  895MOL0     C20750   7.221  10.080   1.568  0.7899  0.3459  0.2051
  895MOL0     C20751   7.128  10.178   1.640  0.9625  0.1134  0.0767
  895MOL0     C20752   6.987  10.178   1.582  0.4973  0.4887  0.6005
  895MOL0     C20753   6.920  10.303   1.613 -0.4765  0.2310  0.6642
  895MOL0     C20754   6.876  10.411   1.626 -0.3185  0.2078  0.9604
  895MOL0     C20755   7.611   9.996   1.753  0.7580  0.2769 -0.4248
  895MOL0     C20756   7.730   9.950   1.805 -0.2647 -0.6413 -0.5849
  895MOL0     C20757   7.782  10.023   1.932 -0.9470  0.3795 -0.2100
  895MOL0     H20758   8.197   9.662   1.761  0.9983  1.6071 -2.5901
  895MOL0     H20759   8.372   9.602   1.879 -1.2722 -2.2074  0.6175
  895MOL0     H20760   8.526   9.897   2.164 -0.8613  0.5246 -1.1308
  895MOL0     H20761   8.484   9.781   2.299 -0.4703  4.1465  1.0347
  895MOL0     H20762   8.701   9.664   2.248  0.9307 -0.9994 -0.9561
  895MOL0     H20763   8.713   9.820   2.318 -2.2345  0.3473 -0.1061
  895MOL0     H20764   8.730   9.873   2.027  0.5444  0.7179  0.4574
  895MOL0     H20765   8.806   9.712   2.049 -0.2706  0.0173 -0.8419
  895MOL0     H20766   8.862   9.957   2.219 -0.0827  0.6545 -1.3909
  895MOL0     H20767   8.963   9.817   2.202  0.1124 -0.1929  1.1517
  895MOL0     H20768   9.027   9.863   1.990  0.7042 -2.0342  2.7100
  895MOL0     H20769   8.905   9.989   1.974  0.2670  0.2601  1.2890
  895MOL0     H20770   9.026  10.119   2.155 -1.6646  0.4755 -2.2212
  895MOL0     H20771   9.156   9.997   2.143  3.8041  3.6624 -2.8749
  895MOL0     H20772   9.162  10.041   1.888  0.0381 -1.4717  0.4580
  895MOL0     H20773   9.225  10.166   1.990  1.0928 -3.6575 -0.8895
  895MOL0     H20774   8.955  10.151   1.838 -1.7233 -0.9134  2.3272
  895MOL0     H20775   8.964  10.256   1.980 -0.0689 -0.2037 -0.4630
  895MOL0     H20776   9.080  10.492   1.937  2.2354  1.6060  0.3972
  895MOL0     H20777   9.298  10.649   1.668 -2.7739 -2.2692 -0.7186
  895MOL0     H20778   9.211  10.697   1.814  1.4044  0.5461  0.7276
  895MOL0     H20779   9.472  10.692   1.833  0.8254 -0.3570 -1.5484
  895MOL0     H20780   9.380  10.602   1.952 -0.6286  1.7403 -0.3940
  895MOL0     H20781   9.422  10.389   1.834  1.7020 -0.7050  1.2162
  895MOL0     H20782   9.568  10.470   1.889 -0.2693  0.0455  0.6148
  895MOL0     H20783   9.587  10.573   1.642 -0.4618  0.6467  1.5578
  895MOL0     H20784   9.465  10.460   1.600  1.9425 -0.2810 -1.3199
  895MOL0     H20785   9.813  10.214   1.533  0.3548  1.8056 -2.6108
  895MOL0     H20786  10.064  10.242   1.542 -0.1316 -0.6770  0.5384
  895MOL0     H20787  10.385  10.110   1.830 -0.1257 -1.4130 -0.6869
  895MOL0     H20788  10.596  10.031   1.781 -4.3114 -1.0298  0.2277
  895MOL0     H20789  10.888   9.993   1.641 -1.6145  1.0845  2.5780
  895MOL0     H20790  10.718   9.974   1.590 -0.5421 -0.0474  2.0439
  895MOL0     H20791  10.895   9.944   1.410 -1.3289 -1.1450  1.6296
  895MOL0     H20792  10.751  10.032   1.372 -0.7419  3.6649  0.2275
  895MOL0     H20793  10.870  10.246   1.371  0.1806 -0.8510  0.3284
  895MOL0     H20794  10.990  10.187   1.486 -1.6588  1.6170  0.9146
  895MOL0     H20795  10.987  10.067   1.213  0.6313  1.3010 -1.2352
  895MOL0     H20796  11.085  10.043   1.354  0.3509  0.7165  0.8354
  895MOL0     H20797  11.143  10.293   1.347  1.8707  1.1705 -1.1554
  895MOL0     H20798  11.059  10.304   1.193  0.4412  0.1315  0.0385
  895MOL0     H20799  11.326  10.141   1.258 -3.5203 -0.9858  1.9424
  895MOL0     H20800  11.229  10.108   1.123  0.8872 -1.2534  2.0624
  895MOL0     H20801  11.348  10.379   1.150 -0.5833 -0.2221 -0.7361
  895MOL0     H20802  11.257  10.306   1.012  0.6932  0.0044 -0.2817
  895MOL0     H20803  11.484  10.304   0.967  1.0310  1.4950  1.9988
  895MOL0     H20804  11.523  10.213   1.112 -0.1499 -0.5745 -0.7880
  895MOL0     H20805  10.691  10.395   1.571 -0.2591 -0.8819  0.0410
  895MOL0     H20806  10.474  10.492   1.646 -0.2946  0.4988  1.0792
  895MOL0     H20807  10.013  10.576   1.807  2.4513 -2.7686  2.5370
  895MOL0     H20808   9.769  10.558   1.785  1.7996 -0.7807  2.1860
  895MOL0     H20809   8.291   9.898   2.188 -3.1939  2.4115 -0.1238
  895MOL0     H20810   8.089   9.950   2.068  1.4039  0.3578  0.8196
  895MOL0     H20811   7.790   9.704   1.579 -4.5795 -4.7907  1.4337
  895MOL0     H20812   7.601   9.821   1.458 -0.3748  1.7206 -0.0118
  895MOL0     H20813   7.398  10.160   1.651 -0.8560  1.0611 -0.0618
  895MOL0     H20814   7.331  10.012   1.736  3.0748  1.4125  1.6363
  895MOL0     H20815   7.189   9.975   1.575  5.2135 -1.1729  0.9259
  895MOL0     H20816   7.244  10.102   1.464  1.4609 -2.5639 -0.3721
  895MOL0     H20817   7.167  10.277   1.614 -0.7206  1.6017  2.6785
  895MOL0     H20818   7.134  10.163   1.748 -0.1583  1.6315  0.3916
  895MOL0     H20819   7.000  10.176   1.473 -0.2572 -1.4119  0.4984
  895MOL0     H20820   6.932  10.089   1.615  2.0220  0.0648  2.1435
  895MOL0     H20821   6.831  10.507   1.640 -0.2906  0.3466  0.1510
  895MOL0     H20822   7.550  10.068   1.807  0.5562  0.1616 -0.4983
  895MOL0     H20823   7.796   9.954   2.015  1.1764 -0.4328 -1.1608
  895MOL0     H20824   7.882  10.062   1.911 -0.5088  1.4078  3.1925
  895MOL0     H20825   7.710  10.101   1.957 -0.1069  1.4091 -0.9024
  896MOL0     O20826   2.529   7.936   9.838  0.8312 -0.6087  0.2577
  896MOL0     C20827   2.463   7.967   9.742  0.0256  0.3242  0.6597
  896MOL0     O20828   2.513   8.024   9.630  0.7044 -0.1815  0.1180
  896MOL0     C20829   2.650   8.010   9.603  0.4315  0.1418  0.2049
  896MOL0     C20830   2.729   8.115   9.648  1.1913  0.2203 -0.2552
  896MOL0     C20831   2.865   8.111   9.615 -0.0854  0.2133  1.0952
  896MOL0     C20832   2.918   8.004   9.540 -0.2344 -0.1780  0.2333
  896MOL0     O20833   3.045   8.001   9.502 -0.0653  0.4272  0.6486
  896MOL0     C20834   3.147   8.078   9.576  0.1798 -0.3445  0.7095
  896MOL0     C20835   3.271   8.033   9.505  0.5677 -0.1083 -0.4734
  896MOL0     C20836   3.389   8.117   9.557  0.1906  0.6048  0.1699
  896MOL0     C20837   3.500   8.115   9.453 -1.4064 -0.3515  1.1306
  896MOL0     C20838   3.560   7.970   9.439  0.5195 -0.9479  0.6966
  896MOL0     C20839   3.706   7.983   9.407 -0.6038 -0.0035  0.1119
  896MOL0     C20840   3.782   7.847   9.404  0.9730  0.7504  1.2894
  896MOL0     C20841   3.936   7.871   9.392  0.9478  0.9749  0.1786
  896MOL0     N20842   4.011   7.755   9.438 -0.2607 -0.0334  0.3155
  896MOL0     C20843   4.010   7.702   9.568  0.4909 -0.1255  0.0330
  896MOL0     C20844   4.071   7.587   9.553 -0.1632 -1.4256  0.6287
  896MOL0     C20845   4.087   7.488   9.666  0.5346 -0.1206  0.7496
  896MOL0     C20846   4.219   7.468   9.735  0.3659 -0.9724 -0.4126
  896MOL0     C20847   4.350   7.445   9.656  0.7937 -1.0369 -0.9571
  896MOL0     C20848   4.464   7.399   9.748 -0.2846  0.1074 -0.3814
  896MOL0     O20849   4.577   7.392   9.663  0.3323  0.4190 -0.4351
  896MOL0     C20850   4.699   7.376   9.714  0.7331  0.7075 -0.4143
  896MOL0     C20851   4.802   7.425   9.642 -0.5763 -0.0979  0.0289
  896MOL0     C20852   4.931   7.382   9.658  0.2632  0.9668  0.3292
  896MOL0     C20853   4.967   7.297   9.769 -0.0906  0.2284  0.8711
  896MOL0     C20854   5.112   7.251   9.788  0.8607  0.2460  0.1487
  896MOL0     O20855   5.203   7.315   9.711 -0.5043  0.3544  0.6269
  896MOL0     C20856   5.335   7.288   9.689  0.0828 -0.0983  0.1013
  896MOL0     C20857   5.379   7.152   9.714 -0.2721 -0.0689  0.0181
  896MOL0     C20858   5.510   7.122   9.711 -0.1392 -0.7145 -0.2690
  896MOL0     C20859   5.605   7.229   9.679  0.0382  0.2441 -0.3301
  896MOL0     O20860   5.744   7.212   9.673  0.4153 -1.0978  0.2076
  896MOL0     C20861   5.805   7.209   9.543  0.8586  0.0139  0.8435
  896MOL0     C20862   5.940   7.260   9.544  0.5023 -0.4098 -0.5036
  896MOL0     C20863   6.038   7.202   9.640 -0.1802  0.3939  0.3007
  896MOL0     C20864   6.171   7.279   9.664 -0.6453 -0.8492 -0.5743
  896MOL0     C20865   6.297   7.191   9.679  0.4569  0.2961 -0.2174
  896MOL0     C20866   6.293   7.101   9.802 -0.0955 -0.6756  0.6720
  896MOL0     C20867   6.442   7.039   9.821  0.7095 -0.4916 -0.0560
  896MOL0     C20868   6.494   6.946   9.727 -0.6463  0.7559 -0.1028
  896MOL0    Cl20869   6.663   6.902   9.783 -0.0918  0.0653  0.4264
  896MOL0     C20870   5.556   7.359   9.648 -0.3488  0.9038 -0.6841
  896MOL0     C20871   5.425   7.387   9.661  0.8336 -0.0700 -0.9104
  896MOL0     O20872   5.137   7.177   9.878 -0.0676 -0.3589  0.3772
  896MOL0     C20873   4.861   7.250   9.854 -0.1940 -0.2792 -0.7795
  896MOL0     C20874   4.730   7.296   9.830 -0.5647 -0.1141  1.0770
  896MOL0     N20875   4.122   7.569   9.425  1.0835 -0.1270 -0.6472
  896MOL0     N20876   4.096   7.674   9.362  0.4536  0.7773 -0.6634
  896MOL0     C20877   2.835   7.903   9.477 -1.0130 -0.5270  0.1628
  896MOL0     C20878   2.704   7.906   9.521  0.0078 -0.6261  0.0026
  896MOL0     C20879   2.322   7.942   9.754 -0.5432  0.5089  0.6074
  896MOL0     C20880   2.255   7.871   9.654 -0.3140  0.1058  0.9402
  896MOL0     C20881   2.120   7.836   9.668  0.5720 -1.2134  0.7810
  896MOL0     C20882   2.049   7.865   9.786 -1.2598 -0.9066 -0.2543
  896MOL0     O20883   1.919   7.835   9.809 -0.2693 -0.9712 -0.1304
  896MOL0     C20884   1.839   7.770   9.712  0.6044 -0.0917  0.5952
  896MOL0     C20885   1.712   7.716   9.786  0.1423  1.3428 -0.9857
  896MOL0     C20886   1.747   7.605   9.890  0.6814  0.1422  0.1110
  896MOL0     C20887   1.644   7.590  10.014 -0.0782 -0.9476 -0.2253
  896MOL0     C20888   1.541   7.498   9.981  0.7302 -0.0922 -0.6293
  896MOL0     C20889   1.452   7.422   9.950 -0.6147 -0.1251 -0.5874
  896MOL0     C20890   2.119   7.912   9.894 -0.7469  0.9164 -0.5584
  896MOL0     C20891   2.259   7.950   9.876 -0.2814  0.2955 -0.5755
  896MOL0     C20892   2.322   8.010  10.009  0.5235  0.1193 -0.1625
  896MOL0     H20893   2.688   8.198   9.705  1.8149  0.2218  0.2034
  896MOL0     H20894   2.934   8.190   9.642  0.4141  0.6137 -1.1542
  896MOL0     H20895   3.145   8.186   9.558 -2.1762 -0.4225  0.1955
  896MOL0     H20896   3.156   8.053   9.682  2.4173 -0.3634  0.5594
  896MOL0     H20897   3.261   8.043   9.397  0.6289  2.8513 -0.3027
  896MOL0     H20898   3.307   7.932   9.528  0.8576  0.0368 -0.2799
  896MOL0     H20899   3.412   8.085   9.659  0.0688  3.3585  1.1314
  896MOL0     H20900   3.363   8.222   9.573 -0.8002  0.6360 -1.4081
  896MOL0     H20901   3.458   8.160   9.362 -1.4591  1.1869  1.8795
  896MOL0     H20902   3.586   8.182   9.467 -1.4130  0.7469 -2.8895
  896MOL0     H20903   3.545   7.917   9.534  2.0243 -1.2506  0.8033
  896MOL0     H20904   3.517   7.916   9.354  0.3844  2.5819 -1.6780
  896MOL0     H20905   3.710   8.022   9.305 -0.1559 -1.0275 -0.2684
  896MOL0     H20906   3.751   8.041   9.488 -1.7893  0.3339  0.5551
  896MOL0     H20907   3.746   7.791   9.318 -0.3816  4.3217 -0.7102
  896MOL0     H20908   3.774   7.807   9.506  3.0069 -1.0514  0.8032
  896MOL0     H20909   3.954   7.913   9.292 -2.4641 -0.7643 -1.3708
  896MOL0     H20910   3.972   7.953   9.454  2.2700  2.5842 -2.5185
  896MOL0     H20911   3.967   7.747   9.657  2.3401 -1.0326  1.4476
  896MOL0     H20912   4.016   7.506   9.747 -1.3825 -4.5171  0.3107
  896MOL0     H20913   4.048   7.398   9.618  0.6820  0.6264 -0.8608
  896MOL0     H20914   4.226   7.551   9.806  0.0994  0.9148 -2.4991
  896MOL0     H20915   4.209   7.372   9.786 -0.6528 -0.0423  1.2187
  896MOL0     H20916   4.377   7.544   9.617 -2.0481  0.4272  0.4945
  896MOL0     H20917   4.329   7.381   9.570 -0.9951  1.2553 -2.3520
  896MOL0     H20918   4.447   7.299   9.790 -2.0128  0.4169 -0.2921
  896MOL0     H20919   4.490   7.458   9.837  0.0433 -1.7372  0.8223
  896MOL0     H20920   4.778   7.496   9.563  0.8388 -0.1330 -0.4709
  896MOL0     H20921   5.009   7.414   9.590  1.4839 -2.3446 -0.0231
  896MOL0     H20922   5.313   7.071   9.745 -1.3447  1.6593  2.6658
  896MOL0     H20923   5.549   7.022   9.727  0.8871 -0.4036 -0.7277
  896MOL0     H20924   5.803   7.106   9.507  2.3960  0.5115 -0.8364
  896MOL0     H20925   5.745   7.275   9.479  1.2293  2.1347  2.5528
  896MOL0     H20926   5.979   7.262   9.442  1.9198  1.4990  0.0208
  896MOL0     H20927   5.928   7.362   9.581  0.9136 -0.4333 -0.2921
  896MOL0     H20928   5.978   7.176   9.729 -0.9071 -0.8316 -0.5135
  896MOL0     H20929   6.064   7.102   9.604 -0.6815  1.1994 -2.4730
  896MOL0     H20930   6.157   7.344   9.751 -2.7135  2.7108 -3.3468
  896MOL0     H20931   6.200   7.335   9.575  2.3464 -1.2496  0.0333
  896MOL0     H20932   6.369   7.272   9.693  1.4608 -0.7021  0.6103
  896MOL0     H20933   6.325   7.132   9.590  0.6572  0.1781 -0.0781
  896MOL0     H20934   6.274   7.161   9.891  0.6823 -2.4530  2.1162
  896MOL0     H20935   6.211   7.029   9.802 -0.9664  0.2962  1.2001
  896MOL0     H20936   6.439   6.980   9.913 -1.1574 -2.4905 -1.3177
  896MOL0     H20937   6.516   7.118   9.839 -1.9305  2.5669 -1.6306
  896MOL0     H20938   6.422   6.864   9.720 -0.1036  0.2530  0.0689
  896MOL0     H20939   6.510   6.995   9.630  1.2001 -1.2021 -0.8948
  896MOL0     H20940   5.619   7.440   9.614  1.9611  1.3764  3.9105
  896MOL0     H20941   5.408   7.489   9.628  4.6908 -0.2099 -4.0875
  896MOL0     H20942   4.872   7.189   9.942 -3.6246 -2.3023 -1.5921
  896MOL0     H20943   4.651   7.272   9.900 -0.8485  0.3548  0.9201
  896MOL0     H20944   2.878   7.827   9.413  0.3317  0.2290  0.1314
  896MOL0     H20945   2.640   7.831   9.476 -0.4006  1.3526 -2.9857
  896MOL0     H20946   2.303   7.840   9.562 -5.5503 -2.7700 -1.2701
  896MOL0     H20947   2.065   7.799   9.583 -0.1083 -1.8999  1.5010
  896MOL0     H20948   1.890   7.684   9.668 -1.4205  0.5239 -3.4512
  896MOL0     H20949   1.799   7.845   9.643 -1.8935 -0.7321  1.2587
  896MOL0     H20950   1.650   7.675   9.706  0.1658  0.4173 -0.5462
  896MOL0     H20951   1.664   7.796   9.843  1.1413 -0.7639  3.2136
  896MOL0     H20952   1.841   7.632   9.938  0.2980  1.2920  0.2437
  896MOL0     H20953   1.754   7.505   9.846  0.7126  1.3524 -2.8161
  896MOL0     H20954   1.697   7.564  10.107 -2.2079 -0.9989  1.0392
  896MOL0     H20955   1.584   7.679  10.035 -2.1671 -2.1147 -1.0695
  896MOL0     H20956   1.390   7.340   9.919 -1.2315  1.1597 -2.9507
  896MOL0     H20957   2.081   7.902   9.995  0.1245 -0.1490 -0.3159
  896MOL0     H20958   2.369   7.922  10.055  0.0664 -0.4807 -0.8312
  896MOL0     H20959   2.392   8.089   9.981 -1.7110  2.2541  0.0087
  896MOL0     H20960   2.246   8.047  10.078  0.7002 -1.5204  0.9729
  897MOL0     O20961   9.764   8.506   4.200  0.4241 -0.7496  0.7163
  897MOL0     C20962   9.832   8.613   4.190 -0.3768 -0.0065 -1.0356
  897MOL0     O20963   9.840   8.707   4.291 -0.5199 -0.2232  0.5588
  897MOL0     C20964   9.790   8.667   4.411 -0.0900  0.2032 -1.1338
  897MOL0     C20965   9.653   8.672   4.444 -0.6247  0.3377  0.6290
  897MOL0     C20966   9.613   8.651   4.576  0.7931 -0.0371 -0.2149
  897MOL0     C20967   9.698   8.605   4.669  0.6075 -0.4368 -0.1507
  897MOL0     O20968   9.651   8.548   4.778 -0.1550  0.3038 -0.3927
  897MOL0     C20969   9.599   8.415   4.780 -0.1503 -0.0767  0.5377
  897MOL0     C20970   9.461   8.454   4.829  0.4156 -0.3908  0.3521
  897MOL0     C20971   9.393   8.333   4.882  0.3408  0.0150 -0.3637
  897MOL0     C20972   9.247   8.352   4.852  0.1743  0.6657 -0.4850
  897MOL0     C20973   9.157   8.230   4.891  0.1953  0.5345 -0.1508
  897MOL0     C20974   9.010   8.254   4.886  0.4024  0.5193  0.5029
  897MOL0     C20975   8.934   8.132   4.939  0.3245 -0.2366  0.3935
  897MOL0     C20976   8.779   8.153   4.893 -0.1486 -0.3572  0.4605
  897MOL0     N20977   8.725   8.271   4.956  0.4246 -0.2411  1.4354
  897MOL0     C20978   8.681   8.284   5.078 -0.8132 -0.0155 -0.0001
  897MOL0     C20979   8.626   8.405   5.100 -0.3352  0.3620 -0.5716
  897MOL0     C20980   8.571   8.467   5.222 -0.6079 -0.0245  0.7849
  897MOL0     C20981   8.427   8.431   5.236 -0.0533 -0.2855  0.1157
  897MOL0     C20982   8.370   8.491   5.367 -0.2604  0.5694  0.8337
  897MOL0     C20983   8.269   8.608   5.351  0.3138  0.3720  0.6128
  897MOL0     O20984   8.286   8.711   5.452  0.0910 -0.0089  0.5658
  897MOL0     C20985   8.393   8.799   5.434 -0.4242  1.0476  0.2013
  897MOL0     C20986   8.478   8.800   5.320 -0.0359  0.4369 -0.4200
  897MOL0     C20987   8.583   8.885   5.307 -0.1360 -0.2111 -0.5072
  897MOL0     C20988   8.612   8.975   5.409 -0.6434 -0.6364  0.7451
  897MOL0     C20989   8.735   9.060   5.403  1.4666 -0.6432  0.4458
  897MOL0     O20990   8.746   9.156   5.497  0.6427 -0.4226  0.3060
  897MOL0     C20991   8.871   9.207   5.529  0.8425  1.4193 -0.1839
  897MOL0     C20992   8.980   9.115   5.580  0.8709 -0.2721 -0.5374
  897MOL0     C20993   9.090   9.160   5.652 -0.1676 -0.3138  0.4380
  897MOL0     C20994   9.102   9.298   5.669  0.1346 -0.5649 -0.4637
  897MOL0     O20995   9.219   9.335   5.737 -0.2363 -0.3314 -0.5887
  897MOL0     C20996   9.290   9.461   5.705  1.1399  0.0963 -0.4844
  897MOL0     C20997   9.412   9.419   5.643 -0.0413  0.8989  0.3846
  897MOL0     C20998   9.484   9.542   5.583  0.0752 -0.1539  0.2380
  897MOL0     C20999   9.617   9.493   5.523 -0.3197 -0.1525 -0.5830
  897MOL0     C21000   9.710   9.611   5.479 -0.1911 -0.1142  0.6192
  897MOL0     C21001   9.843   9.565   5.422 -0.7451 -0.0794 -0.3268
  897MOL0     C21002   9.918   9.666   5.333 -0.7678 -0.0497  0.6611
  897MOL0     C21003   9.857   9.680   5.189  0.6746  0.5569 -0.1921
  897MOL0    Cl21004   9.944   9.798   5.080  0.1907  0.3504  0.2500
  897MOL0     C21005   9.008   9.387   5.620  0.8547  0.2516  0.2057
  897MOL0     C21006   8.884   9.343   5.555 -0.4067 -0.1533 -0.5395
  897MOL0     O21007   8.814   9.046   5.318 -0.7553  0.8229 -0.6015
  897MOL0     C21008   8.529   8.972   5.524 -0.7193 -0.8705  0.3851
  897MOL0     C21009   8.415   8.894   5.535  0.5798  0.0087  0.4142
  897MOL0     N21010   8.642   8.470   4.976 -0.0996  0.9578 -0.1181
  897MOL0     N21011   8.672   8.380   4.892 -0.2569  0.4204 -0.4648
  897MOL0     C21012   9.830   8.590   4.632  0.4829 -0.0722 -0.3075
  897MOL0     C21013   9.881   8.631   4.509 -0.2270  0.3475 -0.5858
  897MOL0     C21014   9.915   8.634   4.059  0.0706  0.4961 -0.9472
  897MOL0     C21015   9.958   8.764   4.033 -0.7176 -0.4914  0.2473
  897MOL0     C21016  10.000   8.802   3.908  1.0706 -0.7611  0.1046
  897MOL0     C21017  10.023   8.700   3.808  0.0918  0.2417  0.3387
  897MOL0     O21018  10.073   8.710   3.685 -0.2699 -0.0553  0.2474
  897MOL0     C21019  10.166   8.822   3.650 -0.0165 -0.5756 -0.5866
  897MOL0     C21020  10.216   8.811   3.516 -0.6858 -0.3243 -0.2014
  897MOL0     C21021  10.350   8.881   3.506  0.1779 -0.3521 -1.0652
  897MOL0     C21022  10.379   8.927   3.365 -0.0239 -0.3136  0.0253
  897MOL0     C21023  10.395   8.815   3.263  0.6244  0.1853 -0.7624
  897MOL0     C21024  10.407   8.727   3.178 -0.6684 -0.0804 -0.7169
  897MOL0     C21025   9.972   8.564   3.829 -0.1009  0.0857 -1.1764
  897MOL0     C21026   9.931   8.530   3.958  0.5776 -0.1144  0.5711
  897MOL0     C21027   9.907   8.385   3.977 -0.9547  0.0888  0.0892
  897MOL0     H21028   9.582   8.712   4.372  1.1181  2.2894 -0.1232
  897MOL0     H21029   9.508   8.658   4.604  0.3910  0.3078 -1.7229
  897MOL0     H21030   9.597   8.366   4.683  4.2910  0.5427 -0.1119
  897MOL0     H21031   9.651   8.349   4.851  1.2728 -1.9387 -2.0590
  897MOL0     H21032   9.416   8.518   4.753  2.7964  1.9536  0.7450
  897MOL0     H21033   9.481   8.510   4.921  0.1956 -2.1714  1.5239
  897MOL0     H21034   9.406   8.314   4.989  0.9131  3.1433  0.2127
  897MOL0     H21035   9.412   8.244   4.821  0.4781  0.2594 -0.6789
  897MOL0     H21036   9.221   8.442   4.908  3.1227  1.5151 -0.2750
  897MOL0     H21037   9.239   8.372   4.745 -0.5985 -1.2749 -0.8242
  897MOL0     H21038   9.183   8.150   4.821  1.9448  1.6991 -0.8957
  897MOL0     H21039   9.186   8.200   4.992 -0.0078  0.7057 -0.0390
  897MOL0     H21040   8.989   8.342   4.946  0.1632  0.6467  0.2325
  897MOL0     H21041   8.985   8.279   4.782 -0.1107 -1.8107 -0.0127
  897MOL0     H21042   8.949   8.131   5.047 -1.8489  2.0038  0.8135
  897MOL0     H21043   8.958   8.041   4.884 -1.3594 -0.3481 -0.2290
  897MOL0     H21044   8.769   8.165   4.784 -4.0228 -1.9843  0.4888
  897MOL0     H21045   8.723   8.063   4.917 -2.1833  1.0443  1.2568
  897MOL0     H21046   8.700   8.212   5.157 -0.6657  1.3954  1.3085
  897MOL0     H21047   8.623   8.434   5.313  0.7163  2.1486  0.8893
  897MOL0     H21048   8.581   8.575   5.209  0.6722 -0.4383 -2.6156
  897MOL0     H21049   8.381   8.482   5.151  0.7136  1.0937  0.5047
  897MOL0     H21050   8.417   8.322   5.244  2.2292 -0.4449  1.7369
  897MOL0     H21051   8.453   8.522   5.432  1.7924  0.0878 -1.4454
  897MOL0     H21052   8.317   8.412   5.421  1.3992 -1.3936 -0.2626
  897MOL0     H21053   8.167   8.568   5.361 -0.1522  1.5948  1.0223
  897MOL0     H21054   8.274   8.660   5.255  1.7386 -0.7482  0.0403
  897MOL0     H21055   8.463   8.743   5.229  0.0977 -1.1905  0.5478
  897MOL0     H21056   8.641   8.882   5.216 -1.3280  1.5843 -1.3753
  897MOL0     H21057   8.966   9.009   5.566  4.6004 -1.3122  2.0444
  897MOL0     H21058   9.154   9.082   5.691 -2.6620 -2.1988  1.0186
  897MOL0     H21059   9.231   9.530   5.644 -2.1124 -0.4486  1.7987
  897MOL0     H21060   9.308   9.514   5.799  0.1010  0.9208 -0.7337
  897MOL0     H21061   9.480   9.375   5.716  2.1280  1.8031 -0.9854
  897MOL0     H21062   9.376   9.348   5.568 -1.5574  2.0542 -0.0312
  897MOL0     H21063   9.415   9.589   5.512 -0.2144 -3.5879 -1.9758
  897MOL0     H21064   9.509   9.613   5.662 -2.0214  1.6485 -0.6137
  897MOL0     H21065   9.602   9.428   5.436  0.6461  0.8499 -1.5137
  897MOL0     H21066   9.674   9.433   5.594  1.1569 -0.8697 -2.2898
  897MOL0     H21067   9.729   9.658   5.576 -0.4057 -1.2398  1.2333
  897MOL0     H21068   9.659   9.674   5.406  0.0045  0.9883  1.4025
  897MOL0     H21069   9.914   9.529   5.497 -3.2521 -2.3253  1.1151
  897MOL0     H21070   9.812   9.479   5.362 -1.2245 -0.8707  1.0281
  897MOL0     H21071  10.019   9.635   5.307 -0.6712  1.7947 -1.4746
  897MOL0     H21072   9.923   9.759   5.391  3.5871  0.2401  0.1296
  897MOL0     H21073   9.850   9.582   5.140  0.0389  0.3353  0.3078
  897MOL0     H21074   9.754   9.713   5.208  1.0519  0.2399  3.1246
  897MOL0     H21075   9.022   9.492   5.644  1.2853  0.2513 -0.0356
  897MOL0     H21076   8.800   9.409   5.539  0.7748  0.9455 -2.7214
  897MOL0     H21077   8.560   9.043   5.600  1.1701  0.4312 -1.4829
  897MOL0     H21078   8.345   8.896   5.618  1.1910  1.9663  0.9343
  897MOL0     H21079   9.887   8.548   4.714  2.1817  3.4129  0.5019
  897MOL0     H21080   9.985   8.609   4.486  0.1215 -1.2398  2.0826
  897MOL0     H21081   9.948   8.836   4.113  3.1109 -1.8915  2.2535
  897MOL0     H21082  10.026   8.901   3.873  1.2035 -1.2469 -1.2234
  897MOL0     H21083  10.244   8.815   3.727 -1.6543  1.1301  1.3512
  897MOL0     H21084  10.110   8.916   3.654 -2.2232 -1.8094 -1.2297
  897MOL0     H21085  10.144   8.845   3.440 -2.8528 -5.5711 -0.9200
  897MOL0     H21086  10.234   8.704   3.500  2.7259 -0.3827  2.8197
  897MOL0     H21087  10.432   8.815   3.535 -0.0663 -0.4192 -0.5045
  897MOL0     H21088  10.353   8.968   3.573  1.7705 -2.4356  1.7875
  897MOL0     H21089  10.292   8.990   3.341 -0.4210 -0.7785  0.2294
  897MOL0     H21090  10.468   8.989   3.375  0.1943 -0.4822 -0.7642
  897MOL0     H21091  10.426   8.661   3.096 -2.8769  0.1856 -1.5182
  897MOL0     H21092   9.973   8.493   3.748 -2.1911  0.5959 -1.7287
  897MOL0     H21093   9.804   8.355   3.958  0.0578 -2.4824 -1.9565
  897MOL0     H21094   9.967   8.333   3.900 -1.9637  1.2444 -1.5364
  897MOL0     H21095   9.948   8.348   4.071  1.8091  2.1033 -0.2100
  898MOL0     O21096   5.141   2.802  10.050 -1.0513 -0.3716 -0.1455
  898MOL0     C21097   5.213   2.741  10.128 -0.6680  0.8147 -0.7704
  898MOL0     O21098   5.180   2.629  10.189 -0.2661  0.4359  0.2029
  898MOL0     C21099   5.039   2.617  10.198  0.1087  0.3980 -0.4374
  898MOL0     C21100   4.964   2.701  10.282 -0.6239 -0.8998 -0.1406
  898MOL0     C21101   4.825   2.690  10.301  0.9191 -0.1411  0.4591
  898MOL0     C21102   4.758   2.596  10.225 -0.3089  0.9311 -0.1941
  898MOL0     O21103   4.619   2.581  10.258  0.0788 -0.1903  0.1611
  898MOL0     C21104   4.542   2.481  10.192  0.2633  0.2228 -0.3231
  898MOL0     C21105   4.407   2.449  10.253 -0.0959 -0.1639 -0.9718
  898MOL0     C21106   4.332   2.569  10.300  0.6473 -0.5743 -0.1460
  898MOL0     C21107   4.213   2.530  10.386 -0.3049 -0.1177 -0.9696
  898MOL0     C21108   4.131   2.648  10.412  0.5976 -0.1031  0.1217
  898MOL0     C21109   4.012   2.661  10.312  0.3547 -0.1039  0.6746
  898MOL0     C21110   3.914   2.780  10.331  1.2954  0.4006  0.0217
  898MOL0     C21111   3.789   2.777  10.233 -0.1064 -0.2658 -0.9119
  898MOL0     N21112   3.678   2.830  10.310 -0.2052  0.0416 -0.4413
  898MOL0     C21113   3.663   2.966  10.339  0.2835 -0.6101 -0.5648
  898MOL0     C21114   3.546   2.966  10.405  0.9659  0.0236 -0.1621
  898MOL0     C21115   3.482   3.080  10.469 -0.5036 -0.6184  0.9020
  898MOL0     C21116   3.507   3.068  10.620  0.3966  0.4202 -0.1333
  898MOL0     C21117   3.420   3.168  10.691  0.8427 -0.1950  0.4258
  898MOL0     C21118   3.443   3.153  10.840  0.0746 -0.1545 -0.5794
  898MOL0     O21119   3.381   3.248  10.927  0.4666 -0.0558  0.0632
  898MOL0     C21120   3.238   3.257  10.928 -0.5731  0.1083 -0.3931
  898MOL0     C21121   3.179   3.384  10.956 -1.1146 -0.9387 -0.4241
  898MOL0     C21122   3.040   3.398  10.938  0.0617 -0.1290 -0.2186
  898MOL0     C21123   2.956   3.291  10.912  0.6678 -0.4039 -0.2888
  898MOL0     C21124   2.807   3.319  10.905  0.3628  0.5553  0.4693
  898MOL0     O21125   2.749   3.426  10.970 -0.2337 -0.2038 -0.5032
  898MOL0     C21126   2.624   3.454  10.951 -0.5986 -0.2897 -0.3904
  898MOL0     C21127   2.564   3.488  11.068 -0.3529  0.3413 -0.8339
  898MOL0     C21128   2.426   3.502  11.070  0.2023 -0.0782 -0.2852
  898MOL0     C21129   2.346   3.486  10.958 -0.1504 -0.6243 -0.0393
  898MOL0     O21130   2.207   3.484  10.960 -0.2277 -0.4312  0.0049
  898MOL0     C21131   2.133   3.518  11.076 -0.5818  0.2472 -0.4531
  898MOL0     C21132   1.983   3.511  11.036  0.7417  1.0073  0.1139
  898MOL0     C21133   1.933   3.599  10.916 -0.6777  0.0410 -0.1112
  898MOL0     C21134   1.781   3.586  10.882 -0.3095 -0.2336  0.5601
  898MOL0     C21135   1.729   3.460  10.808 -0.0735 -0.1109  0.2904
  898MOL0     C21136   1.581   3.461  10.759  0.4381 -0.1967 -0.3797
  898MOL0     C21137   1.509   3.329  10.734  0.6853 -0.6431  0.0388
  898MOL0     C21138   1.364   3.346  10.681 -0.9070  0.1583  1.3106
  898MOL0    Cl21139   1.236   3.381  10.793 -0.2803  0.3400  0.2284
  898MOL0     C21140   2.416   3.455  10.836  0.7944 -0.3609  0.6086
  898MOL0     C21141   2.555   3.442  10.834  0.1044  0.0764 -0.0611
  898MOL0     O21142   2.746   3.233  10.849 -0.1857 -0.2094  0.0312
  898MOL0     C21143   3.017   3.158  10.903  0.0999 -0.6835 -0.5203
  898MOL0     C21144   3.156   3.146  10.907 -0.2684  0.0008  0.5084
  898MOL0     N21145   3.497   2.836  10.410  1.1393  0.0654  0.2525
  898MOL0     N21146   3.583   2.756  10.362 -0.4889 -0.5068 -0.1333
  898MOL0     C21147   4.826   2.516  10.132 -0.3827  0.3731  0.3323
  898MOL0     C21148   4.966   2.523  10.124  0.7686 -0.0432  1.0196
  898MOL0     C21149   5.357   2.786  10.140 -0.5131 -1.2393  0.0426
  898MOL0     C21150   5.427   2.781  10.020 -0.3724  0.1915 -0.6817
  898MOL0     C21151   5.563   2.811  10.017 -0.0758  0.8638 -0.5565
  898MOL0     C21152   5.627   2.852  10.130 -0.0780 -0.9711 -0.0434
  898MOL0     O21153   5.761   2.882  10.121  0.1946 -0.0002 -0.6904
  898MOL0     C21154   5.831   2.853  10.242 -0.7884  0.8403  0.6793
  898MOL0     C21155   5.977   2.879  10.214 -0.4212 -0.8194  0.6892
  898MOL0     C21156   6.076   2.824  10.315  1.1484 -0.6515 -0.6595
  898MOL0     C21157   6.217   2.867  10.285  0.8391  0.4259 -0.3342
  898MOL0     C21158   6.270   2.794  10.170 -0.6728  0.5326  0.2984
  898MOL0     C21159   6.324   2.744  10.073 -0.4246  0.0737 -0.1308
  898MOL0     C21160   5.552   2.865  10.256 -0.0769 -0.0202  0.5491
  898MOL0     C21161   5.416   2.818  10.263  0.9586 -0.0620 -0.5903
  898MOL0     C21162   5.343   2.839  10.397 -0.6695 -0.3288  0.1886
  898MOL0     H21163   5.017   2.781  10.332  0.7198 -2.0230  0.3077
  898MOL0     H21164   4.758   2.756  10.355  1.5990  0.4660  0.5753
  898MOL0     H21165   4.531   2.519  10.090  1.8789  1.1551 -0.1901
  898MOL0     H21166   4.603   2.390  10.189 -0.3138 -0.1540 -0.9557
  898MOL0     H21167   4.418   2.381  10.338 -0.3271  0.4780 -0.4263
  898MOL0     H21168   4.346   2.404  10.173  2.6844 -0.0295 -3.3417
  898MOL0     H21169   4.302   2.626  10.211 -2.3510 -1.4035  0.2228
  898MOL0     H21170   4.400   2.632  10.357 -1.6310  1.2852  0.6794
  898MOL0     H21171   4.138   2.470  10.332 -0.9206 -0.4311  0.2021
  898MOL0     H21172   4.246   2.494  10.483 -4.0034  0.5458  0.7281
  898MOL0     H21173   4.085   2.623  10.508  1.0588 -0.9729  0.1270
  898MOL0     H21174   4.189   2.739  10.430 -0.5860  0.2458  2.5670
  898MOL0     H21175   4.056   2.672  10.212  3.3765 -1.3194  1.7613
  898MOL0     H21176   3.961   2.565  10.304 -3.4828  1.7757  0.5266
  898MOL0     H21177   3.957   2.881  10.331 -1.0686  1.4702 -0.4419
  898MOL0     H21178   3.878   2.768  10.433  1.9818 -0.8611  0.1347
  898MOL0     H21179   3.802   2.839  10.143  0.7111  0.5213 -0.2704
  898MOL0     H21180   3.772   2.673  10.206 -4.3278  0.2141 -0.7988
  898MOL0     H21181   3.724   3.051  10.309 -2.0791  0.7778 -1.7743
  898MOL0     H21182   3.534   3.165  10.423 -0.3563  0.0707  2.2720
  898MOL0     H21183   3.377   3.085  10.439  0.1349 -0.8301 -1.5897
  898MOL0     H21184   3.488   2.963  10.645  1.4230  0.3786  0.5304
  898MOL0     H21185   3.613   3.087  10.637  0.1133  2.9404 -0.8394
  898MOL0     H21186   3.320   3.150  10.651  2.2551  0.6262 -3.9037
  898MOL0     H21187   3.451   3.267  10.658 -3.4536  1.0576 -0.4561
  898MOL0     H21188   3.551   3.159  10.856 -0.0439  3.0085 -0.2339
  898MOL0     H21189   3.420   3.051  10.869 -3.2890 -0.5341 -3.8389
  898MOL0     H21190   3.243   3.468  10.979 -0.5923 -0.4067 -3.3713
  898MOL0     H21191   2.997   3.497  10.952  0.0703 -0.0776 -0.5411
  898MOL0     H21192   2.611   3.496  11.166  0.5226  1.5378 -1.3323
  898MOL0     H21193   2.369   3.509  11.162 -1.9404 -0.1850 -1.5518
  898MOL0     H21194   2.167   3.467  11.167  1.7387  1.3343 -0.6183
  898MOL0     H21195   2.145   3.624  11.100  0.9392 -0.2090  1.0080
  898MOL0     H21196   1.976   3.404  11.013 -0.5703  0.4691  2.5999
  898MOL0     H21197   1.915   3.525  11.121 -1.4957  2.4498 -1.7864
  898MOL0     H21198   1.949   3.703  10.946  0.9922 -0.2361  0.0425
  898MOL0     H21199   1.994   3.580  10.827 -0.2238  0.7518  0.0406
  898MOL0     H21200   1.753   3.671  10.820 -2.6804 -0.8959  0.6161
  898MOL0     H21201   1.731   3.585  10.979  0.2208 -0.5114  0.8304
  898MOL0     H21202   1.752   3.369  10.864 -1.0509 -1.2185 -1.0285
  898MOL0     H21203   1.787   3.450  10.715  0.0525  0.9332  0.2426
  898MOL0     H21204   1.522   3.491  10.847  1.0197  1.3385 -0.4740
  898MOL0     H21205   1.561   3.520  10.669  0.9453 -2.4953 -2.0743
  898MOL0     H21206   1.510   3.268  10.824 -2.2001 -1.2682 -0.2676
  898MOL0     H21207   1.568   3.279  10.656 -2.1144 -1.7453 -1.5013
  898MOL0     H21208   1.369   3.420  10.601  1.1928 -1.6174 -0.3407
  898MOL0     H21209   1.342   3.246  10.643  2.5856  0.2329 -1.4454
  898MOL0     H21210   2.361   3.441  10.744  0.3276  0.4471  0.7502
  898MOL0     H21211   2.612   3.428  10.743 -2.5173 -0.3491 -1.7640
  898MOL0     H21212   2.944   3.078  10.897  0.6461 -1.4311  1.8121
  898MOL0     H21213   3.198   3.046  10.902 -1.1140 -0.3015 -1.2310
  898MOL0     H21214   4.765   2.450  10.071 -4.3678  3.3232  0.7235
  898MOL0     H21215   5.019   2.469  10.045  0.8085  1.3418  0.0588
  898MOL0     H21216   5.367   2.757   9.933  0.4995  1.4921 -1.6836
  898MOL0     H21217   5.610   2.797   9.920 -0.0034 -0.5865 -0.3348
  898MOL0     H21218   5.815   2.748  10.266 -1.4572  1.3159  2.4332
  898MOL0     H21219   5.810   2.922  10.325 -1.7542  2.3844 -0.7821
  898MOL0     H21220   5.986   2.987  10.197 -0.0633 -1.2686 -2.6554
  898MOL0     H21221   6.007   2.840  10.117 -0.7246  1.0595 -0.2119
  898MOL0     H21222   6.053   2.719  10.337  2.1872 -0.7909 -0.2121
  898MOL0     H21223   6.056   2.885  10.403 -1.0991  1.3751 -2.4280
  898MOL0     H21224   6.235   2.974  10.270  4.3324 -0.1452 -1.2261
  898MOL0     H21225   6.276   2.837  10.373 -0.7221  1.5276  1.1426
  898MOL0     H21226   6.372   2.693   9.992 -1.3885 -0.9555 -0.0815
  898MOL0     H21227   5.576   2.924  10.344 -2.8841  2.8129 -0.3829
  898MOL0     H21228   5.417   2.826  10.476 -1.3779 -3.3956  0.4716
  898MOL0     H21229   5.303   2.941  10.404 -0.8322 -0.3362 -0.5516
  898MOL0     H21230   5.269   2.762  10.421 -0.6845  0.5039  3.1501
  899MOL0     O21231   0.381   8.955   8.982 -0.0975  0.8864 -0.1449
  899MOL0     C21232   0.390   9.072   8.996  0.4448 -1.8295  0.0428
  899MOL0     O21233   0.510   9.137   9.009 -0.5679 -0.5460  0.6814
  899MOL0     C21234   0.632   9.087   8.959 -0.0043 -0.8755  0.0988
  899MOL0     C21235   0.666   8.957   8.939 -0.1175  0.8657  0.2944
  899MOL0     C21236   0.794   8.903   8.921  0.1246  0.1245 -0.0702
  899MOL0     C21237   0.898   8.994   8.907  0.5091 -0.4737  0.4493
  899MOL0     O21238   1.032   8.961   8.890  0.4033  0.5287 -0.3644
  899MOL0     C21239   1.060   8.824   8.844  0.5466 -1.3145  0.0624
  899MOL0     C21240   1.207   8.801   8.790  0.3136  0.5251 -0.0858
  899MOL0     C21241   1.275   8.923   8.729  0.4093 -0.5882  1.3339
  899MOL0     C21242   1.417   8.893   8.673  0.4038 -0.5490 -0.3894
  899MOL0     C21243   1.473   9.022   8.614 -0.6659  0.3675  0.4708
  899MOL0     C21244   1.416   9.051   8.472  0.9600  0.5737 -0.5723
  899MOL0     C21245   1.474   9.168   8.395 -0.4459 -0.3456 -0.3820
  899MOL0     C21246   1.406   9.300   8.432  0.0351 -1.0347  0.4435
  899MOL0     N21247   1.442   9.417   8.342 -0.7970  0.0753 -0.3729
  899MOL0     C21248   1.547   9.501   8.368  1.1512 -0.7881 -0.3356
  899MOL0     C21249   1.546   9.590   8.259  0.9122 -0.0913  0.5921
  899MOL0     C21250   1.639   9.710   8.240 -0.2545 -0.8631  0.2655
  899MOL0     C21251   1.696   9.720   8.096  0.4567  0.2674  0.2418
  899MOL0     C21252   1.807   9.829   8.090  0.6507 -0.2115  0.4176
  899MOL0     C21253   1.762   9.945   8.009  0.2020  1.0407  0.5416
  899MOL0     O21254   1.844  10.055   8.037 -0.2719  0.0761  0.0225
  899MOL0     C21255   1.969  10.065   7.979  0.5191 -0.0707 -0.9401
  899MOL0     C21256   2.047  10.163   8.035 -0.2281 -0.8830  0.0265
  899MOL0     C21257   2.179  10.190   7.988  0.1661 -0.2041  0.0570
  899MOL0     C21258   2.237  10.117   7.888  0.0571  1.6039 -0.0926
  899MOL0     C21259   2.378  10.124   7.849 -0.0523 -1.0188 -0.2505
  899MOL0     O21260   2.444  10.239   7.886  0.0375  0.2943  0.2240
  899MOL0     C21261   2.580  10.272   7.866  0.4445 -0.1958 -0.2665
  899MOL0     C21262   2.604  10.412   7.850 -0.0209 -0.1466  0.5137
  899MOL0     C21263   2.729  10.468   7.826 -0.5853 -0.4147 -0.3298
  899MOL0     C21264   2.836  10.380   7.797 -0.3658 -1.1985 -0.7166
  899MOL0     O21265   2.957  10.430   7.751  0.0728 -0.3352 -0.6502
  899MOL0     C21266   2.946  10.490   7.618 -0.8888  0.5769  0.6296
  899MOL0     C21267   3.072  10.580   7.595  0.4565 -0.1250  0.3327
  899MOL0     C21268   3.208  10.514   7.562 -0.2483 -0.6370 -0.5320
  899MOL0     C21269   3.247  10.508   7.418 -0.4460 -0.4445 -0.3209
  899MOL0     C21270   3.385  10.459   7.392  0.0807  0.4315  0.0764
  899MOL0     C21271   3.394  10.368   7.272 -0.3526 -0.0876  0.0210
  899MOL0     C21272   3.537  10.331   7.232 -0.6007 -0.2239  0.1110
  899MOL0     C21273   3.598  10.236   7.330  0.2592 -0.4884 -0.5904
  899MOL0    Cl21274   3.774  10.252   7.301  0.5747  0.3725 -0.2844
  899MOL0     C21275   2.824  10.238   7.815  0.2165  0.2248  0.5338
  899MOL0     C21276   2.692  10.185   7.840 -0.0012 -0.2722 -0.6146
  899MOL0     O21277   2.433  10.040   7.787 -0.6015  0.4815 -0.1524
  899MOL0     C21278   2.165  10.006   7.846  0.0374 -0.1402 -0.6032
  899MOL0     C21279   2.032   9.987   7.882  0.8174 -0.4583 -0.7606
  899MOL0     N21280   1.437   9.566   8.181 -0.1534 -0.2618  0.8128
  899MOL0     N21281   1.367   9.472   8.237 -0.0766  0.4573  0.0127
  899MOL0     C21282   0.871   9.133   8.909 -0.1240  0.7804  0.3212
  899MOL0     C21283   0.738   9.175   8.940 -0.6916 -0.2373  0.7823
  899MOL0     C21284   0.264   9.147   9.051 -0.1969  1.3540  0.4016
  899MOL0     C21285   0.276   9.271   9.105  0.1565 -0.2560 -0.0491
  899MOL0     C21286   0.168   9.346   9.157  0.5237  0.3133 -0.1743
  899MOL0     C21287   0.042   9.283   9.155  0.4019 -0.4789 -0.1916
  899MOL0     O21288  -0.073   9.349   9.197 -0.1992  0.1196 -0.1425
  899MOL0     C21289  -0.070   9.492   9.189 -0.4456 -0.0863  1.3313
  899MOL0     C21290  -0.214   9.538   9.241 -0.0013  0.7368  0.6925
  899MOL0     C21291  -0.214   9.694   9.249  0.3823  0.9779  0.1497
  899MOL0     C21292  -0.314   9.733   9.354 -0.2003  0.8824  0.4463
  899MOL0     C21293  -0.446   9.712   9.304 -0.5094  1.0579  0.3547
  899MOL0     C21294  -0.553   9.681   9.265  0.0913 -0.0277  0.1138
  899MOL0     C21295   0.032   9.156   9.105  0.7479 -0.5122 -0.3096
  899MOL0     C21296   0.136   9.087   9.051 -0.3632  0.4669  0.2289
  899MOL0     C21297   0.095   8.957   8.987 -0.5196 -0.5238 -0.2199
  899MOL0     H21298   0.591   8.879   8.942 -0.1714  0.9373  2.7198
  899MOL0     H21299   0.819   8.798   8.918  1.5011  0.3533  1.8465
  899MOL0     H21300   1.054   8.759   8.932  0.3686 -0.6519  0.5469
  899MOL0     H21301   0.986   8.797   8.768  0.3280 -0.6219  0.0240
  899MOL0     H21302   1.210   8.719   8.718 -2.1195  1.2527 -1.1125
  899MOL0     H21303   1.267   8.781   8.879 -3.1285 -1.3235  2.0129
  899MOL0     H21304   1.269   8.999   8.808 -3.0559  0.6732  0.0488
  899MOL0     H21305   1.209   8.962   8.651 -0.6243  0.9542  2.8958
  899MOL0     H21306   1.493   8.862   8.746  0.0360  2.4491  1.4151
  899MOL0     H21307   1.404   8.815   8.598  3.0958 -1.7954  0.3201
  899MOL0     H21308   1.440   9.106   8.675 -3.6808 -0.6208  0.3557
  899MOL0     H21309   1.583   9.014   8.614 -0.5872 -2.7425 -4.0402
  899MOL0     H21310   1.429   8.971   8.398  3.1079  1.8044 -1.6207
  899MOL0     H21311   1.312   9.081   8.481  0.7255  0.1322 -1.6343
  899MOL0     H21312   1.465   9.146   8.288  0.5904 -0.8941 -0.3695
  899MOL0     H21313   1.579   9.179   8.422  0.3424 -2.0741 -2.5011
  899MOL0     H21314   1.298   9.284   8.441 -0.1632  0.6090  1.4832
  899MOL0     H21315   1.438   9.323   8.534 -1.7944 -1.8181  1.2506
  899MOL0     H21316   1.616   9.498   8.452  1.5576  3.5734 -0.2852
  899MOL0     H21317   1.589   9.802   8.272 -1.3115 -0.7791 -1.4805
  899MOL0     H21318   1.726   9.687   8.303 -0.1204  1.6964  1.1340
  899MOL0     H21319   1.737   9.624   8.064  0.3052  0.3613 -0.2546
  899MOL0     H21320   1.607   9.756   8.043 -0.1163  2.4909  2.4738
  899MOL0     H21321   1.891   9.790   8.032  0.3194  2.2014 -1.8700
  899MOL0     H21322   1.840   9.851   8.192 -0.3605 -1.3397  1.0131
  899MOL0     H21323   1.658   9.974   8.030  0.3848  1.0954  1.4443
  899MOL0     H21324   1.755   9.917   7.904 -0.9660 -1.0214  1.1075
  899MOL0     H21325   1.991  10.221   8.108 -1.9312 -1.3688 -0.8303
  899MOL0     H21326   2.235  10.277   8.022  1.5574 -0.6303 -1.0702
  899MOL0     H21327   2.522  10.482   7.866  0.4365  0.5394 -0.0671
  899MOL0     H21328   2.733  10.576   7.825 -0.5542 -0.4177 -0.7077
  899MOL0     H21329   2.971  10.414   7.543 -1.7946  0.7227  0.1702
  899MOL0     H21330   2.854  10.547   7.602 -1.2455 -0.3334 -0.7707
  899MOL0     H21331   3.046  10.647   7.513  0.6260 -1.1372 -0.5740
  899MOL0     H21332   3.076  10.647   7.682 -2.8521  0.6525  0.0044
  899MOL0     H21333   3.285  10.572   7.614 -0.9354 -0.2179  0.0362
  899MOL0     H21334   3.198  10.417   7.612 -1.3492 -0.8480 -1.1213
  899MOL0     H21335   3.246  10.613   7.388  1.8371 -0.0320  0.8157
  899MOL0     H21336   3.170  10.449   7.367  0.0409  0.1936 -1.8834
  899MOL0     H21337   3.407  10.390   7.474  1.2718 -0.4007 -0.9093
  899MOL0     H21338   3.461  10.538   7.393  3.0489 -2.1710 -1.0390
  899MOL0     H21339   3.330  10.283   7.296 -0.0242  0.3667  2.9242
  899MOL0     H21340   3.358  10.422   7.184  1.5606 -1.0627 -1.4332
  899MOL0     H21341   3.607  10.415   7.226  2.2813 -1.9381  4.6614
  899MOL0     H21342   3.525  10.283   7.134 -2.7237  0.2197  0.0987
  899MOL0     H21343   3.574  10.268   7.432  0.5760  1.6022 -1.1232
  899MOL0     H21344   3.564  10.133   7.319 -3.0251  0.0478  2.6682
  899MOL0     H21345   2.904  10.169   7.791  0.7692 -0.3358  3.6676
  899MOL0     H21346   2.687  10.078   7.829  2.7492 -0.9355  2.8581
  899MOL0     H21347   2.210   9.929   7.783 -1.0201 -1.9060  0.7000
  899MOL0     H21348   1.976   9.901   7.845 -1.8250  1.9940 -2.9520
  899MOL0     H21349   0.949   9.207   8.903  3.0895 -2.4498 -4.7107
  899MOL0     H21350   0.709   9.276   8.966 -2.4085 -0.2533 -0.8939
  899MOL0     H21351   0.373   9.320   9.108 -0.5536  1.1919  0.8556
  899MOL0     H21352   0.191   9.439   9.208 -1.8203  0.6380  0.4032
  899MOL0     H21353  -0.047   9.525   9.087  0.5016  0.5997  1.7612
  899MOL0     H21354  -0.000   9.540   9.257  0.4669  3.1927 -1.6155
  899MOL0     H21355  -0.231   9.495   9.340 -1.5288  4.0926  2.0403
  899MOL0     H21356  -0.292   9.491   9.181  2.0849 -3.5403  0.9398
  899MOL0     H21357  -0.241   9.739   9.153 -1.9979 -3.5855 -1.6170
  899MOL0     H21358  -0.117   9.732   9.281  0.3910 -0.2522  1.7325
  899MOL0     H21359  -0.297   9.671   9.443  2.5300  0.7423 -0.0682
  899MOL0     H21360  -0.317   9.841   9.371 -1.7340  0.6931  1.5941
  899MOL0     H21361  -0.645   9.633   9.240  0.7337 -0.7596 -0.9658
  899MOL0     H21362  -0.068   9.115   9.092 -0.6471  2.4483  0.2916
  899MOL0     H21363   0.156   8.879   9.032 -0.4448  0.2830  1.1356
  899MOL0     H21364  -0.012   8.932   8.993 -0.1638 -2.1764 -0.3532
  899MOL0     H21365   0.118   8.965   8.880 -1.9082  2.1424 -0.4041
  900MOL0     O21366  10.784   1.918   1.076  0.2489 -0.0527  0.5766
  900MOL0     C21367  10.729   1.977   1.166  0.3295 -0.5578 -0.7538
  900MOL0     O21368  10.779   1.990   1.291  0.2559 -0.2828 -0.3790
  900MOL0     C21369  10.911   1.958   1.304  0.5056 -0.0359  1.0556
  900MOL0     C21370  11.010   2.047   1.249  0.4631 -0.8753 -0.4967
  900MOL0     C21371  11.146   2.022   1.260  0.0245 -0.2659 -0.5214
  900MOL0     C21372  11.179   1.898   1.328 -0.7105 -0.3160  0.3898
  900MOL0     O21373  11.310   1.848   1.341  0.1574  0.8387 -0.0792
  900MOL0     C21374  11.418   1.921   1.289  0.2863  0.5066  0.7346
  900MOL0     C21375  11.557   1.847   1.280  0.4931  0.4513  0.4398
  900MOL0     C21376  11.673   1.929   1.237  0.4587 -0.1719 -0.1613
  900MOL0     C21377  11.812   1.859   1.244 -0.0972  0.1466 -0.6958
  900MOL0     C21378  11.853   1.742   1.161 -1.3382 -0.2635  0.4596
  900MOL0     C21379  12.005   1.726   1.149  0.5876 -0.5808  0.1041
  900MOL0     C21380  12.086   1.838   1.075  0.4416  1.5110 -0.5703
  900MOL0     C21381  12.220   1.792   1.005 -0.0841  0.0830  0.1876
  900MOL0     N21382  12.298   1.719   1.108  0.4331  0.5388 -0.1033
  900MOL0     C21383  12.333   1.588   1.110  0.3350  0.4429 -0.8055
  900MOL0     C21384  12.427   1.581   1.211  0.5743  0.8732  1.5386
  900MOL0     C21385  12.496   1.462   1.265 -0.7609  0.3418 -0.3866
  900MOL0     C21386  12.628   1.501   1.327  0.3290  0.3975 -0.6714
  900MOL0     C21387  12.731   1.539   1.231  0.4602 -0.7909 -0.2553
  900MOL0     C21388  12.810   1.425   1.172  0.1117  0.4710  0.1592
  900MOL0     O21389  12.893   1.479   1.075 -0.6603  0.1451 -0.6233
  900MOL0     C21390  13.019   1.431   1.074  0.4247 -0.2693  0.3849
  900MOL0     C21391  13.104   1.381   1.177  0.8368 -0.0613  0.8126
  900MOL0     C21392  13.239   1.348   1.159  0.2831 -0.0750 -0.0956
  900MOL0     C21393  13.298   1.363   1.029  0.6455 -0.2623 -0.0296
  900MOL0     C21394  13.444   1.331   1.001 -0.2009 -0.6716 -0.6450
  900MOL0     O21395  13.484   1.331   0.866 -0.4725  0.5502  0.1698
  900MOL0     C21396  13.613   1.312   0.835  0.2776  0.4065  0.2885
  900MOL0     C21397  13.726   1.341   0.916  0.2335  0.1046 -0.0974
  900MOL0     C21398  13.844   1.327   0.867 -0.4924 -0.1475  0.6586
  900MOL0     C21399  13.867   1.270   0.739 -0.3440 -0.5067  0.2528
  900MOL0     O21400  13.996   1.255   0.689  0.8024 -0.5815  0.4925
  900MOL0     C21401  14.096   1.206   0.771  0.5127 -0.7190 -0.4648
  900MOL0     C21402  14.222   1.198   0.685  0.0438  0.2820  0.1912
  900MOL0     C21403  14.275   1.323   0.616  1.2535  0.7526  0.3457
  900MOL0     C21404  14.434   1.339   0.635 -0.4334 -0.4324 -0.3613
  900MOL0     C21405  14.508   1.286   0.510  0.4830 -0.2089 -0.1064
  900MOL0     C21406  14.502   1.138   0.482 -0.4559 -0.5610 -0.3690
  900MOL0     C21407  14.585   1.066   0.594 -0.6094  0.4298  0.2129
  900MOL0     C21408  14.594   0.919   0.560 -0.0996  0.1153 -0.1746
  900MOL0    Cl21409  14.692   0.896   0.408 -0.3919  0.1381 -0.2666
  900MOL0     C21410  13.765   1.231   0.666  0.1707  0.4891 -0.2863
  900MOL0     C21411  13.635   1.259   0.708 -0.4784  0.0139 -0.1866
  900MOL0     O21412  13.511   1.296   1.096  0.1382 -0.6348  0.4517
  900MOL0     C21413  13.218   1.414   0.925  0.6477  0.0913 -0.3891
  900MOL0     C21414  13.081   1.450   0.953 -0.2720 -0.1222  1.2517
  900MOL0     N21415  12.439   1.704   1.269  0.2810  0.2772 -0.2493
  900MOL0     N21416  12.365   1.783   1.207  0.5589 -0.1137 -0.1360
  900MOL0     C21417  11.083   1.813   1.381 -0.3751 -0.1963 -0.6305
  900MOL0     C21418  10.951   1.843   1.373  0.1865  0.0372  0.7119
  900MOL0     C21419  10.588   2.027   1.148 -0.0050  0.0378 -0.4192
  900MOL0     C21420  10.504   2.021   1.265 -0.4080 -0.6447  0.4352
  900MOL0     C21421  10.376   2.055   1.269  0.8838  0.3441  0.7267
  900MOL0     C21422  10.307   2.073   1.146 -0.2065  0.3325  0.5505
  900MOL0     O21423  10.176   2.109   1.158  0.5955 -0.7093 -0.1332
  900MOL0     C21424  10.105   2.166   1.049  0.6041  0.3292  0.1394
  900MOL0     C21425   9.965   2.194   1.094  0.4149 -0.0258 -0.3337
  900MOL0     C21426   9.854   2.188   0.992 -0.6924  0.2223 -0.1885
  900MOL0     C21427   9.716   2.239   1.047 -0.6046  0.3910  0.2005
  900MOL0     C21428   9.665   2.159   1.152 -0.4943  0.1528  0.4821
  900MOL0     C21429   9.616   2.096   1.237  0.4284 -0.6993 -1.0446
  900MOL0     C21430  10.385   2.101   1.034 -0.5767  0.2366  0.1713
  900MOL0     C21431  10.527   2.077   1.028  1.0103  1.1567 -0.1788
  900MOL0     C21432  10.600   2.096   0.901  0.8138 -0.5985  0.7800
  900MOL0     H21433  10.980   2.135   1.193  1.0714  0.3140  1.0022
  900MOL0     H21434  11.215   2.101   1.231 -0.4462  0.1868 -0.4317
  900MOL0     H21435  11.394   1.947   1.186  3.6348 -2.9176 -1.1169
  900MOL0     H21436  11.436   2.005   1.358  3.0853  1.7678 -1.3545
  900MOL0     H21437  11.551   1.762   1.211  3.7807  1.3331 -1.1401
  900MOL0     H21438  11.569   1.794   1.375 -2.2008 -0.3088  0.4347
  900MOL0     H21439  11.684   2.023   1.293  2.2762  0.8414 -2.0635
  900MOL0     H21440  11.661   1.939   1.129  1.2749 -0.3097 -0.2749
  900MOL0     H21441  11.885   1.938   1.226  1.1521 -0.9409 -0.5936
  900MOL0     H21442  11.824   1.829   1.349  1.0866 -0.0711 -0.8834
  900MOL0     H21443  11.823   1.649   1.210 -1.7297 -1.1617 -1.3823
  900MOL0     H21444  11.806   1.757   1.064 -1.0975  0.2306  0.4170
  900MOL0     H21445  12.041   1.708   1.251 -1.3608 -2.2236  0.5577
  900MOL0     H21446  12.018   1.629   1.103  0.4988 -1.5024  1.9174
  900MOL0     H21447  12.112   1.910   1.154  0.0081  1.0124  0.0373
  900MOL0     H21448  12.014   1.875   1.002 -1.6344 -3.6988 -1.5817
  900MOL0     H21449  12.199   1.732   0.916  0.4345  0.0040  0.1121
  900MOL0     H21450  12.264   1.885   0.969  1.6330 -1.8715 -3.3315
  900MOL0     H21451  12.299   1.508   1.046  1.5538  0.8264 -1.9656
  900MOL0     H21452  12.448   1.409   1.348  1.7804 -0.9567  0.3930
  900MOL0     H21453  12.511   1.385   1.189  1.9779 -0.7215  1.0798
  900MOL0     H21454  12.610   1.588   1.391 -2.7512 -1.0246  0.6061
  900MOL0     H21455  12.665   1.419   1.389  1.4642  0.7663 -0.8513
  900MOL0     H21456  12.800   1.605   1.285 -0.7182 -1.0896  1.7262
  900MOL0     H21457  12.681   1.598   1.154 -1.9977 -1.3920  0.7851
  900MOL0     H21458  12.738   1.361   1.119 -1.2213  1.8537  0.2292
  900MOL0     H21459  12.858   1.374   1.256 -0.2414 -1.0601 -0.5235
  900MOL0     H21460  13.068   1.378   1.280 -1.7261 -1.1202 -0.0269
  900MOL0     H21461  13.309   1.316   1.236 -1.0616 -1.4878  0.5973
  900MOL0     H21462  13.723   1.393   1.011  0.3758 -1.7924  1.0020
  900MOL0     H21463  13.932   1.368   0.917 -0.9799  2.0354 -0.1266
  900MOL0     H21464  14.112   1.268   0.860 -0.0890 -0.8804 -0.2425
  900MOL0     H21465  14.075   1.105   0.808  1.0171 -1.1689 -1.3719
  900MOL0     H21466  14.302   1.153   0.744 -0.1918 -0.9696 -0.4104
  900MOL0     H21467  14.192   1.120   0.614 -0.7439  2.0208 -1.4996
  900MOL0     H21468  14.248   1.308   0.511  0.3989 -2.5302  0.9293
  900MOL0     H21469  14.220   1.412   0.648 -1.4266 -0.4408 -0.6304
  900MOL0     H21470  14.464   1.285   0.726  0.9829  2.7364  1.2068
  900MOL0     H21471  14.474   1.439   0.650  0.0305 -0.6574 -0.0803
  900MOL0     H21472  14.613   1.318   0.502  0.2191  0.5857 -0.4639
  900MOL0     H21473  14.457   1.336   0.428 -0.1682  1.2541  1.1333
  900MOL0     H21474  14.397   1.110   0.468 -0.6604 -0.3849  0.7587
  900MOL0     H21475  14.546   1.112   0.384  2.6182 -3.9469  1.6368
  900MOL0     H21476  14.531   1.083   0.687  0.3444  2.9544  0.3807
  900MOL0     H21477  14.683   1.114   0.598 -1.6223  2.6075  0.5476
  900MOL0     H21478  14.647   0.868   0.641  0.2815  3.0720  1.5987
  900MOL0     H21479  14.493   0.882   0.543 -0.2986 -1.2403  3.2259
  900MOL0     H21480  13.769   1.192   0.565  1.6298  1.8413 -0.8150
  900MOL0     H21481  13.559   1.233   0.635  1.1573 -2.3253 -1.1902
  900MOL0     H21482  13.267   1.428   0.829  2.3145 -0.2925  0.3799
  900MOL0     H21483  13.019   1.496   0.877 -0.0440  0.3238  1.3332
  900MOL0     H21484  11.112   1.728   1.442 -3.1593  0.7901  2.3634
  900MOL0     H21485  10.868   1.792   1.420 -0.1213  0.9375  1.1702
  900MOL0     H21486  10.538   1.992   1.364 -2.1581 -4.2484  0.1423
  900MOL0     H21487  10.318   2.053   1.360 -0.3595 -2.6867  0.0016
  900MOL0     H21488  10.105   2.094   0.966  2.0498 -0.0540  0.4352
  900MOL0     H21489  10.150   2.258   1.011 -0.8878  1.4023  0.9055
  900MOL0     H21490   9.964   2.298   1.128 -2.0561  0.0365 -0.4469
  900MOL0     H21491   9.940   2.119   1.169 -1.0801 -0.5920 -1.3522
  900MOL0     H21492   9.857   2.087   0.949  2.0123  0.7351 -1.4051
  900MOL0     H21493   9.890   2.259   0.917  1.7299  2.0340  2.4540
  900MOL0     H21494   9.723   2.344   1.078  6.6913 -0.2943  3.0699
  900MOL0     H21495   9.648   2.236   0.961 -1.4873 -1.1334  0.9197
  900MOL0     H21496   9.565   2.058   1.324  0.1474 -1.1348 -1.3979
  900MOL0     H21497  10.338   2.130   0.941 -1.5255  1.9564  1.1457
  900MOL0     H21498  10.552   2.171   0.836  1.7944 -1.2261 -0.7262
  900MOL0     H21499  10.707   2.114   0.914  1.2297 -2.2153 -0.1246
  900MOL0     H21500  10.589   2.003   0.845  2.0945 -0.3381  0.0731
  901MOL0     O21501   8.824   8.213   7.850 -0.9448 -0.3663 -0.4231
  901MOL0     C21502   8.738   8.182   7.934  0.0391  0.3391 -0.2473
  901MOL0     O21503   8.763   8.138   8.063 -0.4939 -0.1986  0.2903
  901MOL0     C21504   8.874   8.179   8.136  0.1332 -0.4698 -0.4351
  901MOL0     C21505   8.932   8.096   8.230 -0.7862 -0.2108  0.3404
  901MOL0     C21506   9.047   8.139   8.302 -0.1360  0.4097  0.7842
  901MOL0     C21507   9.093   8.272   8.294  0.4984 -0.2225  0.2179
  901MOL0     O21508   9.196   8.316   8.376  0.6036 -0.0097  0.4651
  901MOL0     C21509   9.302   8.406   8.332 -0.7993  0.1076  1.6338
  901MOL0     C21510   9.407   8.333   8.248  0.3482  0.8251  0.2245
  901MOL0     C21511   9.522   8.419   8.207  0.4318 -1.1358 -0.2178
  901MOL0     C21512   9.492   8.564   8.155 -0.0488 -1.3879  0.3459
  901MOL0     C21513   9.612   8.610   8.066 -0.2956  0.4677  0.5745
  901MOL0     C21514   9.731   8.637   8.161  0.1326 -0.0333 -0.3183
  901MOL0     C21515   9.714   8.760   8.245  0.1671  0.3694  0.1150
  901MOL0     C21516   9.852   8.825   8.263  0.1822  0.1097  0.5933
  901MOL0     N21517   9.838   8.941   8.353 -0.7370  0.4802 -0.5627
  901MOL0     C21518   9.803   8.933   8.486 -1.1746 -0.2493 -0.2414
  901MOL0     C21519   9.799   9.058   8.539  1.0345 -0.4416 -0.7843
  901MOL0     C21520   9.770   9.109   8.680  0.9035  0.2378 -0.5122
  901MOL0     C21521   9.618   9.110   8.714  0.6642  0.5606 -0.0047
  901MOL0     C21522   9.590   9.158   8.855 -0.0456  0.9880 -0.3150
  901MOL0     C21523   9.447   9.145   8.881 -0.1988  0.9583  0.5762
  901MOL0     O21524   9.427   9.226   8.993 -0.8085 -0.5470  0.3342
  901MOL0     C21525   9.308   9.298   9.015  0.0846 -0.4926  0.0803
  901MOL0     C21526   9.232   9.342   8.907 -0.3296 -0.3999  0.5352
  901MOL0     C21527   9.122   9.437   8.917 -1.0772  0.6719  0.2386
  901MOL0     C21528   9.073   9.457   9.047  0.9220  0.0227 -0.5868
  901MOL0     C21529   8.952   9.549   9.068  0.1845  0.0951 -0.2914
  901MOL0     O21530   8.904   9.611   8.955 -0.3061 -0.1901  0.1709
  901MOL0     C21531   8.780   9.677   8.961 -0.6284 -0.7884 -0.9362
  901MOL0     C21532   8.771   9.809   8.939  0.8638 -0.3635 -0.1011
  901MOL0     C21533   8.638   9.881   8.933  0.5775  0.4743 -1.5696
  901MOL0     C21534   8.520   9.804   8.951 -0.3750  0.1744  0.2592
  901MOL0     O21535   8.394   9.856   8.970  0.2935  0.3894  0.3327
  901MOL0     C21536   8.394   9.993   9.014 -0.3294  0.7659  0.8112
  901MOL0     C21537   8.249  10.027   9.033 -0.6145 -0.8614 -0.9700
  901MOL0     C21538   8.174  10.067   8.906 -0.7617  0.0845 -0.5399
  901MOL0     C21539   8.024  10.034   8.923  1.3400 -0.3403  0.4364
  901MOL0     C21540   7.946  10.056   8.794  0.3186 -1.0087  0.0721
  901MOL0     C21541   7.795  10.044   8.831  0.1179  0.8165  0.3495
  901MOL0     C21542   7.741   9.901   8.793 -0.2846 -0.2104 -0.0966
  901MOL0     C21543   7.603   9.914   8.744  0.4301  0.1202 -0.2114
  901MOL0    Cl21544   7.497   9.990   8.870 -0.4692 -0.0623 -0.2728
  901MOL0     C21545   8.533   9.668   8.963 -0.8600  0.3927 -0.1931
  901MOL0     C21546   8.661   9.608   8.970  0.4400  0.0918  0.2806
  901MOL0     O21547   8.896   9.553   9.177  0.1111  1.0477  0.1179
  901MOL0     C21548   9.139   9.391   9.152 -1.3416 -0.7285 -0.2248
  901MOL0     C21549   9.259   9.331   9.135 -0.3675  0.4523  0.3032
  901MOL0     N21550   9.818   9.139   8.426  0.0558  0.5310 -0.1315
  901MOL0     N21551   9.841   9.069   8.318  0.2159 -0.5768 -0.5976
  901MOL0     C21552   9.032   8.354   8.211 -0.2363 -1.0944  1.2120
  901MOL0     C21553   8.922   8.308   8.130  0.5184 -0.1781  0.0924
  901MOL0     C21554   8.593   8.192   7.886  0.1664  0.1626 -0.1635
  901MOL0     C21555   8.497   8.132   7.970  1.8040  0.5573  0.2081
  901MOL0     C21556   8.361   8.115   7.939 -0.0168  0.1155 -0.1770
  901MOL0     C21557   8.317   8.161   7.812  0.1118 -0.9521 -0.3437
  901MOL0     O21558   8.200   8.129   7.740 -0.7005  0.0143 -0.3740
  901MOL0     C21559   8.094   8.070   7.809 -0.1841  1.2891  0.6518
  901MOL0     C21560   7.995   8.178   7.853 -0.4852  0.4190  1.5672
  901MOL0     C21561   7.842   8.132   7.854 -0.7110 -0.7816  0.0291
  901MOL0     C21562   7.761   8.253   7.898  1.0128  0.2466 -1.2176
  901MOL0     C21563   7.619   8.215   7.934  0.1393  0.0646  0.8546
  901MOL0     C21564   7.506   8.202   7.961 -0.1106 -0.1769  0.1493
  901MOL0     C21565   8.408   8.224   7.731 -0.5896 -0.7587 -0.0568
  901MOL0     C21566   8.544   8.233   7.757 -0.3487 -0.1226 -0.1597
  901MOL0     C21567   8.635   8.264   7.636  0.1260  0.6519  0.0757
  901MOL0     H21568   8.887   8.000   8.254  0.9129 -1.1232 -0.0029
  901MOL0     H21569   9.098   8.080   8.378 -1.4333 -1.1468  0.4987
  901MOL0     H21570   9.267   8.486   8.267  1.6190 -0.5398 -0.6313
  901MOL0     H21571   9.361   8.454   8.411  2.4765 -3.5886  1.7575
  901MOL0     H21572   9.351   8.291   8.164 -1.9870  2.5635  0.8156
  901MOL0     H21573   9.453   8.249   8.301  1.1513  0.3992 -1.0993
  901MOL0     H21574   9.567   8.356   8.130  3.0936  0.2343  0.0687
  901MOL0     H21575   9.582   8.431   8.298 -0.1745 -0.0976  0.0662
  901MOL0     H21576   9.401   8.553   8.097  0.8275 -0.1769 -1.3331
  901MOL0     H21577   9.487   8.634   8.239  1.8878 -1.1420  0.3145
  901MOL0     H21578   9.632   8.533   7.990 -1.8981 -0.2747  0.8688
  901MOL0     H21579   9.568   8.702   8.025 -0.8760  0.1770  0.5359
  901MOL0     H21580   9.754   8.548   8.219 -0.1346 -0.0632 -0.2576
  901MOL0     H21581   9.814   8.659   8.093  1.0541  3.1802  1.6009
  901MOL0     H21582   9.673   8.721   8.339 -0.1471 -1.2531 -0.6505
  901MOL0     H21583   9.645   8.825   8.191 -0.6258  1.1091  1.9598
  901MOL0     H21584   9.927   8.759   8.307  0.6938  2.2368  3.2110
  901MOL0     H21585   9.894   8.867   8.171 -0.2689 -1.0065 -0.1359
  901MOL0     H21586   9.813   8.848   8.553  0.8255  0.0689 -0.0606
  901MOL0     H21587   9.826   9.047   8.749  0.8873 -1.2391 -1.7706
  901MOL0     H21588   9.807   9.212   8.675  1.3512  0.0885 -0.2929
  901MOL0     H21589   9.560   9.170   8.644 -1.8791 -0.9756  0.6661
  901MOL0     H21590   9.592   9.004   8.722  1.9001  0.1515 -1.0370
  901MOL0     H21591   9.612   9.265   8.853  3.1050  0.4152 -0.2408
  901MOL0     H21592   9.657   9.114   8.930 -0.5788  3.4933  1.7694
  901MOL0     H21593   9.426   9.046   8.922 -0.0090  0.9065  0.5479
  901MOL0     H21594   9.391   9.163   8.789  1.0238  1.2361 -0.1353
  901MOL0     H21595   9.269   9.299   8.815 -2.2005 -0.1413 -0.3962
  901MOL0     H21596   9.075   9.475   8.827 -2.8641 -1.0724  0.3711
  901MOL0     H21597   8.869   9.857   8.939  1.4411 -1.2090  3.5337
  901MOL0     H21598   8.630   9.987   8.912 -3.4582  1.3890  2.7826
  901MOL0     H21599   8.452  10.012   9.104  1.8846 -1.2394 -0.0841
  901MOL0     H21600   8.429  10.062   8.936  0.1855 -1.7397 -1.3333
  901MOL0     H21601   8.200   9.959   9.103  0.4189  1.4685  2.2859
  901MOL0     H21602   8.246  10.120   9.090  2.9741 -0.3245 -1.3850
  901MOL0     H21603   8.191  10.170   8.875 -1.9286  0.4703  0.0445
  901MOL0     H21604   8.230  10.007   8.833  1.5654  1.3159  0.1413
  901MOL0     H21605   7.986  10.110   8.992  0.9458  0.2483 -0.4213
  901MOL0     H21606   8.007   9.929   8.952 -1.5850 -0.6788 -1.9415
  901MOL0     H21607   7.986   9.981   8.725 -0.5930 -0.4512 -1.0803
  901MOL0     H21608   7.966  10.150   8.743  2.1597 -2.1877 -1.4890
  901MOL0     H21609   7.768  10.070   8.934  1.3316  0.5117  0.7538
  901MOL0     H21610   7.752  10.122   8.766  1.1923  1.4410  0.3621
  901MOL0     H21611   7.735   9.828   8.874 -2.3923  0.0674  0.0611
  901MOL0     H21612   7.809   9.865   8.715  0.2588  2.3989 -0.9121
  901MOL0     H21613   7.592   9.971   8.652 -0.5628 -0.0271 -0.2003
  901MOL0     H21614   7.572   9.812   8.720 -0.0327 -0.4194  2.3678
  901MOL0     H21615   8.443   9.609   8.977  0.2492 -0.6385  4.1208
  901MOL0     H21616   8.657   9.501   8.987 -0.4393 -0.1567 -1.2536
  901MOL0     H21617   9.100   9.407   9.251  1.3433  4.4782  0.3764
  901MOL0     H21618   9.307   9.287   9.222 -1.5348  2.8752  2.3195
  901MOL0     H21619   9.059   8.459   8.218  1.4229 -1.2409 -1.5745
  901MOL0     H21620   8.870   8.371   8.058  1.7362 -0.6283 -1.2219
  901MOL0     H21621   8.525   8.095   8.068  1.1384  0.4533  0.3676
  901MOL0     H21622   8.288   8.069   8.005 -0.4565 -0.4615 -1.0308
  901MOL0     H21623   8.131   7.999   7.883  2.7235  0.2448 -1.5741
  901MOL0     H21624   8.063   8.008   7.724 -1.5610  0.5747  1.6358
  901MOL0     H21625   8.010   8.257   7.780 -0.9298  1.9267  3.0468
  901MOL0     H21626   8.017   8.208   7.956  0.8941  0.7605  1.1942
  901MOL0     H21627   7.826   8.048   7.922 -0.8307 -1.1135 -0.4055
  901MOL0     H21628   7.801   8.111   7.755 -3.0319  0.1577  0.7038
  901MOL0     H21629   7.793   8.290   7.996 -0.7148  0.0028 -0.5089
  901MOL0     H21630   7.756   8.338   7.829 -3.0279  0.2484 -1.1956
  901MOL0     H21631   7.405   8.175   7.987  0.0001 -0.5709  0.1732
  901MOL0     H21632   8.379   8.266   7.634  0.9303 -1.1977 -0.7280
  901MOL0     H21633   8.592   8.296   7.540  0.4712 -0.0641 -0.3301
  901MOL0     H21634   8.707   8.343   7.659  0.5965  0.1526  0.3360
  901MOL0     H21635   8.700   8.177   7.618 -0.2607  0.2129  0.7523
  902MOL0     O21636   1.667   5.577   1.539  0.2121  0.4592 -0.2619
  902MOL0     C21637   1.619   5.666   1.467  0.3455 -0.2050  0.0819
  902MOL0     O21638   1.656   5.694   1.340  0.2836 -0.5508  0.3869
  902MOL0     C21639   1.747   5.619   1.270 -0.5158  0.3405 -0.5444
  902MOL0     C21640   1.871   5.594   1.324 -0.1994  0.1518 -0.5917
  902MOL0     C21641   1.978   5.548   1.244 -0.3092  0.7785  0.2804
  902MOL0     C21642   1.959   5.535   1.110  0.3705  0.3022 -0.0293
  902MOL0     O21643   2.071   5.495   1.047  0.3374 -0.1198  0.0168
  902MOL0     C21644   2.119   5.592   0.950  0.2866 -0.3821 -0.1412
  902MOL0     C21645   2.239   5.540   0.881 -1.0150 -0.0384 -0.5799
  902MOL0     C21646   2.370   5.529   0.960  0.4275  0.3008 -0.1383
  902MOL0     C21647   2.477   5.466   0.876 -0.5616 -1.2041  0.3930
  902MOL0     C21648   2.607   5.456   0.958  0.1523  0.4767  0.6704
  902MOL0     C21649   2.708   5.375   0.880 -0.7174  0.2465  0.1902
  902MOL0     C21650   2.823   5.323   0.974 -0.3098  0.0528 -0.7725
  902MOL0     C21651   2.909   5.439   1.038 -0.4377  0.7936 -0.5389
  902MOL0     N21652   3.004   5.518   0.955  1.0391 -0.1166 -0.0725
  902MOL0     C21653   2.974   5.635   0.895 -0.9699 -0.5589  0.0693
  902MOL0     C21654   3.099   5.667   0.832  0.3889  0.1908 -0.8266
  902MOL0     C21655   3.126   5.779   0.742  0.2200  0.6349  0.3382
  902MOL0     C21656   3.145   5.735   0.595  0.0052 -0.1583  0.8532
  902MOL0     C21657   3.020   5.698   0.512 -0.0978  0.3826 -1.1318
  902MOL0     C21658   3.049   5.672   0.371  0.5775 -0.0110 -0.0162
  902MOL0     O21659   3.062   5.795   0.301  0.0175 -0.5057 -0.3779
  902MOL0     C21660   3.111   5.794   0.172 -1.2273 -0.5960  0.2375
  902MOL0     C21661   3.047   5.874   0.077  0.0596 -0.2536 -0.0947
  902MOL0     C21662   3.103   5.890  -0.044  0.1177 -0.3972  0.9752
  902MOL0     C21663   3.210   5.819  -0.090 -0.1474 -0.2489 -0.1251
  902MOL0     C21664   3.274   5.855  -0.217 -0.2980  0.9871  1.3965
  902MOL0     O21665   3.359   5.765  -0.256  0.2049 -0.6127  0.8193
  902MOL0     C21666   3.415   5.779  -0.381  0.3900  0.0457  0.0412
  902MOL0     C21667   3.541   5.822  -0.389 -0.5070 -0.1908  0.0877
  902MOL0     C21668   3.614   5.841  -0.511  0.0120  0.4450  0.6038
  902MOL0     C21669   3.544   5.813  -0.626  0.3016  0.6442  0.8235
  902MOL0     O21670   3.610   5.835  -0.743 -0.7768 -0.0128 -0.3008
  902MOL0     C21671   3.536   5.848  -0.866 -0.0047  0.5280 -0.2735
  902MOL0     C21672   3.638   5.901  -0.970  0.2142  0.7555 -0.1930
  902MOL0     C21673   3.587   5.862  -1.110  0.3371 -0.1684  0.2013
  902MOL0     C21674   3.684   5.885  -1.225 -0.5737 -0.0251  0.1171
  902MOL0     C21675   3.635   5.879  -1.368 -0.2663  0.6020 -0.4886
  902MOL0     C21676   3.503   5.950  -1.398  0.7534 -0.1688 -0.2782
  902MOL0     C21677   3.510   6.072  -1.493  0.1684 -0.5536 -0.5822
  902MOL0     C21678   3.566   6.194  -1.424 -0.5123 -0.0990  0.2220
  902MOL0    Cl21679   3.747   6.183  -1.440  0.4211  0.1957 -0.4711
  902MOL0     C21680   3.407   5.775  -0.623 -0.5385  0.2610  0.3894
  902MOL0     C21681   3.342   5.743  -0.500 -0.5984 -1.4226 -0.1887
  902MOL0     O21682   3.234   5.953  -0.277 -0.1564  0.0224 -0.3339
  902MOL0     C21683   3.265   5.726  -0.000 -0.0617  0.0412 -0.0102
  902MOL0     C21684   3.219   5.712   0.123  0.2383  0.4678  0.0042
  902MOL0     N21685   3.193   5.578   0.869 -0.1295 -0.8867 -0.5023
  902MOL0     N21686   3.136   5.488   0.943 -0.1667 -0.0435  0.2052
  902MOL0     C21687   1.835   5.553   1.052  0.1739 -0.1703 -0.0269
  902MOL0     C21688   1.729   5.597   1.136  0.4989 -0.3274  0.7103
  902MOL0     C21689   1.513   5.757   1.520  0.6431  0.6423  0.0604
  902MOL0     C21690   1.413   5.811   1.427 -0.6207 -0.2593 -0.6113
  902MOL0     C21691   1.316   5.897   1.468  0.9486  0.6418  0.1017
  902MOL0     C21692   1.300   5.934   1.603 -0.3857  0.8629  0.0761
  902MOL0     O21693   1.218   6.028   1.652  0.5611  0.1278  0.3663
  902MOL0     C21694   1.082   6.017   1.631  0.6340  0.4264 -0.4898
  902MOL0     C21695   1.016   5.931   1.744 -0.3729  0.4619  0.7559
  902MOL0     C21696   0.867   5.888   1.716 -0.2231 -0.8848  0.8205
  902MOL0     C21697   0.822   5.756   1.791 -0.2254 -1.9692 -0.2039
  902MOL0     C21698   0.739   5.688   1.694 -0.0702 -0.3764 -0.6690
  902MOL0     C21699   0.669   5.633   1.620  0.3799  0.6896  0.6198
  902MOL0     C21700   1.396   5.879   1.691  0.1523 -0.0944 -1.2216
  902MOL0     C21701   1.500   5.802   1.659  0.7923  1.0700  0.4346
  902MOL0     C21702   1.602   5.761   1.760 -0.2256 -0.2046  0.6737
  902MOL0     H21703   1.887   5.605   1.431 -3.6702  2.1384 -0.1489
  902MOL0     H21704   2.074   5.516   1.284 -0.1205 -1.9501 -2.0461
  902MOL0     H21705   2.044   5.609   0.872 -1.0489  0.1822  1.2074
  902MOL0     H21706   2.145   5.689   0.994 -1.3454  0.0701 -0.1069
  902MOL0     H21707   2.254   5.605   0.795 -2.9004  0.5721 -0.4961
  902MOL0     H21708   2.215   5.448   0.827  2.3413 -3.5677  3.2532
  902MOL0     H21709   2.355   5.476   1.054 -1.1865  0.9627  0.0219
  902MOL0     H21710   2.388   5.633   0.991  1.1073  0.8364 -2.1355
  902MOL0     H21711   2.442   5.365   0.852 -1.6816 -1.0368  1.2857
  902MOL0     H21712   2.496   5.510   0.778  0.2600  1.0206  1.4788
  902MOL0     H21713   2.648   5.555   0.981  2.6318 -0.3158 -0.0473
  902MOL0     H21714   2.575   5.411   1.052  0.2415  0.4500  0.6882
  902MOL0     H21715   2.661   5.286   0.838 -0.7986  0.9820 -1.3231
  902MOL0     H21716   2.735   5.433   0.792 -3.5454  0.9511 -0.3133
  902MOL0     H21717   2.888   5.253   0.922 -1.6860 -0.8695 -1.3183
  902MOL0     H21718   2.783   5.268   1.060  3.1036  0.3507  1.1694
  902MOL0     H21719   2.835   5.500   1.091 -1.0999  1.6721 -2.3770
  902MOL0     H21720   2.962   5.380   1.113 -0.6834 -1.4364 -2.0184
  902MOL0     H21721   2.880   5.690   0.890 -0.6484  0.3728  2.8871
  902MOL0     H21722   3.044   5.851   0.741 -1.5103 -1.1654 -2.7783
  902MOL0     H21723   3.218   5.831   0.769 -0.7625  0.9138  3.6109
  902MOL0     H21724   3.190   5.819   0.541  0.3434 -1.2741 -0.6872
  902MOL0     H21725   3.213   5.649   0.591 -0.5804 -0.5863 -0.8302
  902MOL0     H21726   2.950   5.781   0.503 -2.2450 -1.3613 -1.2648
  902MOL0     H21727   2.958   5.619   0.556  0.5656  0.5005  0.0578
  902MOL0     H21728   2.960   5.625   0.328 -1.8772  0.2781  4.2288
  902MOL0     H21729   3.143   5.617   0.362  0.7686  0.4238 -0.8403
  902MOL0     H21730   2.957   5.927   0.104  0.4524 -0.3344  1.4392
  902MOL0     H21731   3.050   5.960  -0.108  0.8572 -0.0213  0.7560
  902MOL0     H21732   3.593   5.828  -0.294  1.7836 -0.7217 -1.0672
  902MOL0     H21733   3.719   5.868  -0.519 -0.6840  3.3286  0.0486
  902MOL0     H21734   3.504   5.748  -0.898 -0.6795  0.7308 -0.2452
  902MOL0     H21735   3.447   5.911  -0.865  1.2658  2.5458 -3.0044
  902MOL0     H21736   3.668   6.005  -0.953  1.6917 -0.0889  2.9941
  902MOL0     H21737   3.727   5.839  -0.953 -0.4675  0.0900  1.0703
  902MOL0     H21738   3.567   5.754  -1.102 -3.2615  0.4333  1.0202
  902MOL0     H21739   3.492   5.911  -1.129 -0.3785 -1.3144  0.7116
  902MOL0     H21740   3.767   5.815  -1.214  1.3364  1.6994 -2.1267
  902MOL0     H21741   3.730   5.984  -1.212 -0.2901 -0.1141 -0.1832
  902MOL0     H21742   3.630   5.774  -1.398 -1.7149  0.5675 -0.2414
  902MOL0     H21743   3.714   5.911  -1.437  0.7571 -1.2784 -0.2586
  902MOL0     H21744   3.430   5.882  -1.443 -2.8493  3.1514  0.0403
  902MOL0     H21745   3.457   5.983  -1.304  1.4332 -1.0022  0.3611
  902MOL0     H21746   3.403   6.091  -1.509  0.0756 -0.2386  0.3747
  902MOL0     H21747   3.565   6.049  -1.584  1.9653  0.6019  0.1687
  902MOL0     H21748   3.524   6.280  -1.476  0.5080  1.3799  1.7511
  902MOL0     H21749   3.549   6.207  -1.317 -0.5451  2.6972 -0.0542
  902MOL0     H21750   3.355   5.758  -0.718  1.4287 -1.5523 -0.4523
  902MOL0     H21751   3.238   5.715  -0.512 -1.5097  2.1274 -1.9376
  902MOL0     H21752   3.354   5.666  -0.019 -0.1671 -0.0950 -0.0762
  902MOL0     H21753   3.268   5.655   0.201  0.3281  2.2665  1.3091
  902MOL0     H21754   1.832   5.534   0.946  3.3399 -2.9305  0.2121
  902MOL0     H21755   1.637   5.640   1.099  0.6788 -1.8760 -1.7545
  902MOL0     H21756   1.432   5.791   1.322 -0.1784 -0.5200 -0.4871
  902MOL0     H21757   1.261   5.956   1.395 -1.7114 -0.7112  0.8874
  902MOL0     H21758   1.057   5.988   1.529  0.2178 -0.2492 -0.2039
  902MOL0     H21759   1.035   6.115   1.647  1.8722  0.6443  2.4695
  902MOL0     H21760   1.027   5.983   1.839 -1.4399  1.1725  0.5082
  902MOL0     H21761   1.073   5.838   1.751  1.3416  0.9984 -3.0936
  902MOL0     H21762   0.867   5.877   1.607 -1.0763  1.2642  0.5721
  902MOL0     H21763   0.794   5.965   1.742 -1.0648 -2.0233  1.9896
  902MOL0     H21764   0.904   5.695   1.830  0.9441  0.4313  1.3194
  902MOL0     H21765   0.768   5.775   1.884  2.2589  3.2121  0.5503
  902MOL0     H21766   0.617   5.567   1.553  1.4321  1.4927 -1.0494
  902MOL0     H21767   1.389   5.899   1.798  0.1883 -3.3448 -0.5308
  902MOL0     H21768   1.700   5.806   1.741 -0.5417 -0.3921 -1.6714
  902MOL0     H21769   1.558   5.788   1.857 -0.6359  0.5147  0.2951
  902MOL0     H21770   1.615   5.653   1.771  1.9299  0.2064  3.5509
  903MOL0     O21771   8.255   2.669   6.121 -0.3628  0.2653 -0.0395
  903MOL0     C21772   8.178   2.657   6.034  0.1205 -0.2185  0.3061
  903MOL0     O21773   8.147   2.538   5.965  0.0221  0.8126 -0.3067
  903MOL0     C21774   8.227   2.432   5.992 -0.1873 -0.1068 -0.6916
  903MOL0     C21775   8.371   2.441   6.019 -0.0720  0.2368 -0.2233
  903MOL0     C21776   8.442   2.315   6.029  0.5978  0.2190  1.3103
  903MOL0     C21777   8.379   2.193   6.022 -0.3883  0.8683 -0.1579
  903MOL0     O21778   8.452   2.079   6.013 -0.4301  0.0250 -0.6400
  903MOL0     C21779   8.521   2.025   6.129 -0.0774  0.1378 -0.2671
  903MOL0     C21780   8.665   2.087   6.152 -0.2645  0.0942  0.3543
  903MOL0     C21781   8.766   2.041   6.041  0.4663  0.0315  0.4983
  903MOL0     C21782   8.897   2.122   6.049 -0.2295  0.1443  0.4015
  903MOL0     C21783   9.012   2.089   5.953  0.0699 -0.3212  0.6599
  903MOL0     C21784   9.067   1.951   5.980 -0.0676 -0.7924  0.5848
  903MOL0     C21785   9.179   1.924   5.880 -0.3860  0.9482  0.1618
  903MOL0     C21786   9.297   2.020   5.899 -0.3208  0.1722 -0.1253
  903MOL0     N21787   9.350   2.034   6.038  0.0442  0.7068 -0.0160
  903MOL0     C21788   9.400   1.931   6.109 -0.0690  0.3720 -0.5662
  903MOL0     C21789   9.425   1.989   6.230  0.5247  0.1182  0.4845
  903MOL0     C21790   9.496   1.906   6.331  0.6617 -0.2133 -0.1432
  903MOL0     C21791   9.625   1.844   6.275 -0.3477  0.5249  0.7377
  903MOL0     C21792   9.733   1.795   6.367 -0.2470  0.1144 -0.7449
  903MOL0     C21793   9.797   1.912   6.425 -0.4786  0.0841  0.1516
  903MOL0     O21794   9.884   1.886   6.530  0.0187 -0.6106 -0.7265
  903MOL0     C21795  10.019   1.890   6.507 -0.5044  0.4379  1.0258
  903MOL0     C21796  10.101   1.940   6.605 -0.2941 -0.0998 -0.8936
  903MOL0     C21797  10.239   1.938   6.594  0.7597  0.2631 -0.8425
  903MOL0     C21798  10.300   1.914   6.466 -0.4132  0.3134  0.1937
  903MOL0     C21799  10.448   1.928   6.440 -0.3596  0.0687  0.9229
  903MOL0     O21800  10.498   1.866   6.327 -0.0161  0.0705  0.0166
  903MOL0     C21801  10.630   1.884   6.285  0.2990  0.3701  0.2594
  903MOL0     C21802  10.741   1.878   6.373  0.3507 -1.1408  0.1889
  903MOL0     C21803  10.873   1.906   6.336 -0.5816  0.7704 -1.2641
  903MOL0     C21804  10.897   1.929   6.201  1.0256 -0.3767 -0.0094
  903MOL0     O21805  11.019   1.965   6.150  0.5175  0.4280  0.6817
  903MOL0     C21806  11.111   2.023   6.235  0.2349  0.5470 -0.3026
  903MOL0     C21807  11.223   2.100   6.160 -0.4972  0.2010  0.1043
  903MOL0     C21808  11.351   2.099   6.237 -0.9608 -0.3541  0.2055
  903MOL0     C21809  11.344   2.166   6.377  0.2230  0.4320 -0.0831
  903MOL0     C21810  11.322   2.308   6.381 -0.8223 -0.1132 -0.4344
  903MOL0     C21811  11.408   2.394   6.484 -0.3443  0.4140  0.3675
  903MOL0     C21812  11.430   2.538   6.454  0.5444 -0.5426  0.7865
  903MOL0     C21813  11.547   2.602   6.517  0.2317 -0.1130  0.6261
  903MOL0    Cl21814  11.692   2.534   6.436 -0.2392 -0.3684  0.0973
  903MOL0     C21815  10.794   1.904   6.103  0.4794 -0.0755 -0.4779
  903MOL0     C21816  10.660   1.893   6.143  0.3382  0.1645 -0.5642
  903MOL0     O21817  10.511   2.001   6.509 -0.7263  0.6249  0.2173
  903MOL0     C21818  10.214   1.876   6.358 -0.1420  0.1000 -0.6009
  903MOL0     C21819  10.077   1.858   6.380 -0.0990  0.4363  0.4197
  903MOL0     N21820   9.405   2.122   6.234  1.0220  1.0705 -0.3888
  903MOL0     N21821   9.357   2.146   6.114 -0.0460 -0.1194 -0.4715
  903MOL0     C21822   8.242   2.183   6.000 -0.9262 -1.2638 -0.3059
  903MOL0     C21823   8.167   2.306   5.990  0.4936  0.5308  0.1889
  903MOL0     C21824   8.086   2.766   5.989 -0.3498  0.0578 -0.0790
  903MOL0     C21825   7.958   2.728   5.948  0.1135  0.7144  0.1833
  903MOL0     C21826   7.869   2.827   5.926 -0.1036 -0.1588 -0.2035
  903MOL0     C21827   7.908   2.957   5.921  0.6149 -0.1513  0.7221
  903MOL0     O21828   7.818   3.043   5.867  0.4325 -0.2463  0.0615
  903MOL0     C21829   7.782   3.145   5.955 -0.5605  0.4320 -0.0587
  903MOL0     C21830   7.633   3.170   5.939  0.6101 -0.7644 -0.5611
  903MOL0     C21831   7.583   3.184   5.795 -0.3392 -0.0989 -0.0844
  903MOL0     C21832   7.433   3.224   5.802 -0.5283 -0.5953 -0.3546
  903MOL0     C21833   7.390   3.237   5.665  0.2170 -0.6666  1.4151
  903MOL0     C21834   7.351   3.264   5.547 -0.4583  0.1575 -0.2610
  903MOL0     C21835   8.036   2.995   5.950 -0.0864  0.8011  0.3653
  903MOL0     C21836   8.119   2.901   5.988 -0.7664  0.4785  0.2355
  903MOL0     C21837   8.265   2.942   6.024  0.1862  0.3742 -0.1969
  903MOL0     H21838   8.427   2.534   6.020  0.1280  0.1892 -2.7464
  903MOL0     H21839   8.550   2.311   6.038  1.1955  0.1900 -3.3594
  903MOL0     H21840   8.462   2.030   6.221  3.1638  0.5155  2.0015
  903MOL0     H21841   8.529   1.918   6.108 -1.6875 -0.0267 -0.1079
  903MOL0     H21842   8.697   2.048   6.249 -1.6953 -2.7766 -0.1922
  903MOL0     H21843   8.652   2.194   6.167 -2.4779 -0.0054 -0.5207
  903MOL0     H21844   8.727   2.061   5.941  2.1627 -0.9132 -0.4009
  903MOL0     H21845   8.783   1.934   6.050  2.2155  0.2535  0.2476
  903MOL0     H21846   8.867   2.225   6.030 -0.8488 -0.2399 -0.7496
  903MOL0     H21847   8.924   2.125   6.155 -2.4297  1.2726  0.9848
  903MOL0     H21848   8.977   2.095   5.850 -0.7980 -1.0588  0.8984
  903MOL0     H21849   9.090   2.165   5.969 -1.9438  2.0242 -0.0900
  903MOL0     H21850   9.101   1.945   6.083 -1.5023 -1.5240  1.0530
  903MOL0     H21851   8.980   1.885   5.964 -0.9713  0.8699 -2.0226
  903MOL0     H21852   9.147   1.921   5.775 -0.6931 -2.3752  0.2502
  903MOL0     H21853   9.200   1.820   5.906 -2.2518  0.4954  0.0402
  903MOL0     H21854   9.385   1.994   5.840 -1.4530 -2.6973 -0.7140
  903MOL0     H21855   9.267   2.118   5.861  0.6905  0.1863 -0.9161
  903MOL0     H21856   9.410   1.829   6.072 -1.5138  0.5236 -1.4039
  903MOL0     H21857   9.499   1.954   6.429 -1.8124 -1.3284  0.5566
  903MOL0     H21858   9.433   1.819   6.356  0.6947 -0.2503 -0.1877
  903MOL0     H21859   9.604   1.757   6.212  1.7257 -0.8230  1.7782
  903MOL0     H21860   9.679   1.910   6.206 -2.1103 -1.7734 -3.1750
  903MOL0     H21861   9.800   1.743   6.298 -2.0185  0.7521 -3.0973
  903MOL0     H21862   9.692   1.728   6.443 -0.1588 -1.1224 -1.7452
  903MOL0     H21863   9.719   1.973   6.472 -1.7525 -0.1012 -1.6300
  903MOL0     H21864   9.846   1.966   6.343  0.2382  1.0504  1.1892
  903MOL0     H21865  10.051   1.961   6.699  1.3091  0.2610 -0.0730
  903MOL0     H21866  10.302   1.963   6.679  1.5531 -0.8976 -1.0717
  903MOL0     H21867  10.731   1.872   6.481 -2.7298 -5.0088 -0.0544
  903MOL0     H21868  10.945   1.892   6.416  0.7588  0.4713 -2.4919
  903MOL0     H21869  11.071   2.093   6.309 -0.9638 -0.8950  0.4616
  903MOL0     H21870  11.151   1.937   6.289 -1.0338  0.8438  1.1509
  903MOL0     H21871  11.251   2.058   6.064  0.3945 -0.8926  0.8225
  903MOL0     H21872  11.192   2.203   6.137 -0.9144  0.1305  0.3363
  903MOL0     H21873  11.392   1.997   6.242  1.6398  0.5157 -1.1910
  903MOL0     H21874  11.430   2.156   6.186 -0.3828 -1.8772 -0.7035
  903MOL0     H21875  11.431   2.130   6.433 -0.6420  0.7156  1.5253
  903MOL0     H21876  11.254   2.126   6.426  2.4367 -1.8392  2.4752
  903MOL0     H21877  11.219   2.329   6.411 -0.2790 -1.0754  2.4082
  903MOL0     H21878  11.348   2.347   6.282 -0.0466 -0.5542 -0.4120
  903MOL0     H21879  11.357   2.398   6.580 -2.2055  2.0210 -0.6062
  903MOL0     H21880  11.496   2.332   6.505  0.1286  0.6735 -0.7413
  903MOL0     H21881  11.339   2.595   6.474  0.4385 -0.7264  0.8252
  903MOL0     H21882  11.459   2.538   6.348  3.6862  2.6833  1.4236
  903MOL0     H21883  11.553   2.709   6.493  1.5938 -0.5705 -1.3224
  903MOL0     H21884  11.541   2.584   6.625 -2.0841  2.1484  0.9863
  903MOL0     H21885  10.821   1.902   5.998  1.7080 -3.6996 -0.2290
  903MOL0     H21886  10.588   1.882   6.062  1.2501  0.1326 -1.3944
  903MOL0     H21887  10.251   1.865   6.256  0.7482  0.5470 -0.3333
  903MOL0     H21888  10.010   1.820   6.304  0.9957 -1.2489  0.2739
  903MOL0     H21889   8.192   2.086   6.003 -0.8512 -1.2969 -0.1101
  903MOL0     H21890   8.059   2.300   5.979  0.4619  0.1479  0.6412
  903MOL0     H21891   7.919   2.626   5.956  0.5607  0.6311  1.3715
  903MOL0     H21892   7.765   2.801   5.910 -0.9367  0.2573  3.5308
  903MOL0     H21893   7.843   3.233   5.934 -1.5873  0.9847 -0.8116
  903MOL0     H21894   7.798   3.109   6.057  0.4253 -0.3578 -0.4749
  903MOL0     H21895   7.600   3.256   5.997  0.9782  0.4297 -2.0632
  903MOL0     H21896   7.572   3.089   5.980  0.2729 -0.2648 -0.0634
  903MOL0     H21897   7.599   3.088   5.744  0.6212 -1.5107  2.6879
  903MOL0     H21898   7.637   3.260   5.737 -0.1098 -0.6338 -0.5794
  903MOL0     H21899   7.394   3.139   5.859  1.4579  0.1060  2.2933
  903MOL0     H21900   7.415   3.319   5.853 -1.5300 -0.8542 -0.2122
  903MOL0     H21901   7.332   3.278   5.443  4.6827  1.9603 -1.2495
  903MOL0     H21902   8.065   3.098   5.934 -1.9497  1.2451 -0.5201
  903MOL0     H21903   8.285   2.921   6.129  0.6692 -0.9849 -0.5369
  903MOL0     H21904   8.345   2.909   5.957 -0.9776  0.3538 -1.6306
  903MOL0     H21905   8.267   3.051   6.020  2.6326  0.3755 -1.4380
  904MOL0     O21906   9.305   0.885   2.036 -0.4127 -1.1585  0.4621
  904MOL0     C21907   9.189   0.919   2.050  0.5013 -0.6478 -0.4256
  904MOL0     O21908   9.079   0.836   2.073 -0.0914 -0.3880 -0.3301
  904MOL0     C21909   9.107   0.702   2.097  0.1632  0.2307 -0.0679
  904MOL0     C21910   9.017   0.618   2.031  0.2544  0.6045 -0.3856
  904MOL0     C21911   9.013   0.481   2.047  0.0060  0.4196  0.4501
  904MOL0     C21912   9.112   0.421   2.130  0.7784 -0.0412  0.6380
  904MOL0     O21913   9.112   0.281   2.146 -0.2958 -0.1255 -0.0025
  904MOL0     C21914   9.219   0.211   2.222  0.0329  0.7145 -0.2915
  904MOL0     C21915   9.236   0.244   2.375 -0.1934  0.2704 -0.8035
  904MOL0     C21916   9.375   0.229   2.426  1.3757  0.2643 -0.3292
  904MOL0     C21917   9.377   0.246   2.580  0.4637 -0.2754 -0.9060
  904MOL0     C21918   9.354   0.386   2.639  0.2800  0.7066 -0.1389
  904MOL0     C21919   9.330   0.376   2.793 -0.4688 -0.7552 -0.6211
  904MOL0     C21920   9.430   0.453   2.879  1.1204  0.6075  0.9995
  904MOL0     C21921   9.419   0.402   3.021 -0.1664  0.3726  0.8221
  904MOL0     N21922   9.517   0.286   3.039 -0.8568 -0.2829  0.5498
  904MOL0     C21923   9.629   0.286   3.112 -0.8255  0.1918 -0.3022
  904MOL0     C21924   9.675   0.158   3.129  0.4062 -0.8340  0.1423
  904MOL0     C21925   9.779   0.117   3.221  0.6507 -0.2439 -0.6168
  904MOL0     C21926   9.868   0.002   3.172  0.1091  0.5373 -0.1223
  904MOL0     C21927   9.983   0.047   3.074  0.4153 -0.7336 -0.5760
  904MOL0     C21928  10.120  -0.024   3.098  0.2835  0.6378 -0.3703
  904MOL0     O21929  10.216   0.057   3.028  0.2811 -0.9480 -0.7315
  904MOL0     C21930  10.348   0.057   3.066  0.5852  0.1959  0.7581
  904MOL0     C21931  10.435   0.156   3.020 -0.7492  0.2814 -0.2546
  904MOL0     C21932  10.567   0.158   3.061  0.3260 -0.9034  0.4176
  904MOL0     C21933  10.630   0.060   3.145 -0.5040 -0.4290 -0.1040
  904MOL0     C21934  10.769   0.073   3.177  0.0760  0.9718 -0.7810
  904MOL0     O21935  10.843   0.178   3.133 -0.1784  0.5340 -0.5561
  904MOL0     C21936  10.973   0.159   3.108 -0.9739  0.3477  0.8997
  904MOL0     C21937  11.029   0.042   3.042 -0.1877  0.0868  0.3338
  904MOL0     C21938  11.163   0.029   3.019  0.0943  0.7150  0.1560
  904MOL0     C21939  11.257   0.124   3.054  0.8618 -0.8234  0.0407
  904MOL0     O21940  11.392   0.105   3.047 -0.1522  0.1974  0.5862
  904MOL0     C21941  11.444  -0.004   2.975 -0.7237  0.4084 -0.1800
  904MOL0     C21942  11.609  -0.003   2.979 -0.5444 -0.0107  0.1320
  904MOL0     C21943  11.659  -0.123   2.895 -0.1637  0.4448 -0.4027
  904MOL0     C21944  11.802  -0.118   2.906  0.6126 -0.0906  0.3927
  904MOL0     C21945  11.871  -0.260   2.869  1.2975  0.4342  0.1482
  904MOL0     C21946  12.026  -0.246   2.890 -0.1610 -0.6887  0.2257
  904MOL0     C21947  12.093  -0.385   2.925  1.0244 -0.1426  0.0903
  904MOL0     C21948  12.079  -0.491   2.809  0.0605 -0.0422 -0.4581
  904MOL0    Cl21949  12.199  -0.624   2.822 -0.2326 -0.1012 -0.5112
  904MOL0     C21950  11.209   0.238   3.122 -0.1885  0.1299 -0.1815
  904MOL0     C21951  11.069   0.256   3.140  0.3247 -0.1297 -0.9647
  904MOL0     O21952  10.820  -0.021   3.239  0.3795 -0.3599  0.5442
  904MOL0     C21953  10.544  -0.038   3.192 -0.6867 -0.1741  0.1822
  904MOL0     C21954  10.407  -0.043   3.147 -0.1799 -0.6745  0.2533
  904MOL0     N21955   9.584   0.075   3.064 -0.1971  0.1750 -0.5396
  904MOL0     N21956   9.496   0.158   3.004  0.2878 -0.0900  0.5497
  904MOL0     C21957   9.215   0.496   2.180  0.3139  0.2633  0.2882
  904MOL0     C21958   9.217   0.638   2.168  0.6861  0.1581 -0.5675
  904MOL0     C21959   9.149   1.068   2.046 -1.1611  1.0533  0.4350
  904MOL0     C21960   9.013   1.099   2.018  0.9855 -0.4930 -0.6687
  904MOL0     C21961   8.968   1.231   2.018  0.3131 -0.4359  0.4739
  904MOL0     C21962   9.049   1.341   2.042 -0.2954  0.2347 -0.9503
  904MOL0     O21963   8.989   1.466   2.047  0.6988  0.7265 -0.0898
  904MOL0     C21964   9.058   1.580   2.021  0.2279 -0.4665  0.9931
  904MOL0     C21965   8.967   1.701   2.004 -0.3806  0.4454  0.1208
  904MOL0     C21966   8.860   1.668   1.897  0.2796 -0.0119 -0.3400
  904MOL0     C21967   8.787   1.803   1.869  0.5316  1.2065  0.1107
  904MOL0     C21968   8.669   1.793   1.780 -0.2161 -0.2345  0.2638
  904MOL0     C21969   8.568   1.792   1.716  0.4717 -0.2542  0.0941
  904MOL0     C21970   9.186   1.317   2.060 -0.5098  0.2928 -1.9432
  904MOL0     C21971   9.235   1.182   2.061 -0.1316  0.3186  0.3218
  904MOL0     C21972   9.386   1.163   2.084 -0.5836  0.2868 -0.2416
  904MOL0     H21973   8.940   0.659   1.965 -1.5423 -0.9776  0.6365
  904MOL0     H21974   8.940   0.427   1.988  1.5055 -1.0580 -0.1299
  904MOL0     H21975   9.219   0.104   2.200 -1.0432  0.4534  0.8834
  904MOL0     H21976   9.311   0.245   2.173  1.5749 -3.1481 -0.4029
  904MOL0     H21977   9.174   0.171   2.426 -1.4581 -0.8345 -3.6905
  904MOL0     H21978   9.191   0.341   2.399 -0.8613 -0.4091  0.8085
  904MOL0     H21979   9.443   0.299   2.376  1.5395 -0.9712 -1.9360
  904MOL0     H21980   9.410   0.129   2.396  1.1227  0.4732 -1.3654
  904MOL0     H21981   9.299   0.177   2.614  2.3885 -2.2844 -0.3470
  904MOL0     H21982   9.471   0.215   2.625 -0.0164 -0.8701 -0.2853
  904MOL0     H21983   9.431   0.452   2.599 -0.3945  1.7994  0.3167
  904MOL0     H21984   9.263   0.429   2.597 -1.5271 -2.0741  0.6338
  904MOL0     H21985   9.233   0.409   2.829  0.9984  0.3421  2.7486
  904MOL0     H21986   9.341   0.274   2.830  2.4251  0.0799  1.2286
  904MOL0     H21987   9.413   0.561   2.876 -1.5402  0.2896  2.0376
  904MOL0     H21988   9.533   0.435   2.846  1.0142  1.6137  0.0281
  904MOL0     H21989   9.462   0.485   3.078 -2.2444  3.5068 -1.8376
  904MOL0     H21990   9.316   0.385   3.055 -1.0617 -0.4778 -2.0274
  904MOL0     H21991   9.669   0.369   3.169  2.6072 -2.5970  1.8053
  904MOL0     H21992   9.839   0.204   3.251  1.2596 -0.6980 -0.5034
  904MOL0     H21993   9.735   0.073   3.311  0.6968 -1.0159 -0.9659
  904MOL0     H21994   9.912  -0.043   3.261 -3.1037 -2.7580  0.0190
  904MOL0     H21995   9.818  -0.082   3.123  0.6775  0.1893 -0.1139
  904MOL0     H21996  10.003   0.155   3.081 -0.4402 -0.4041 -2.5946
  904MOL0     H21997   9.936   0.033   2.977  0.9106  1.2294 -1.1469
  904MOL0     H21998  10.100  -0.127   3.068  0.6628  0.4737 -0.0609
  904MOL0     H21999  10.153  -0.026   3.202  1.5144 -2.3593 -0.7134
  904MOL0     H22000  10.399   0.241   2.963  1.2179  0.9328 -0.6058
  904MOL0     H22001  10.630   0.236   3.020  1.0941 -1.0889  1.2035
  904MOL0     H22002  10.956  -0.033   3.012 -1.2243  1.9049 -2.0533
  904MOL0     H22003  11.193  -0.067   2.978  2.3631  1.7657 -0.8352
  904MOL0     H22004  11.418  -0.099   3.022 -0.0480  1.1166  1.7280
  904MOL0     H22005  11.427   0.015   2.869 -2.1625  1.3342  0.1899
  904MOL0     H22006  11.649   0.096   2.952  0.1530 -0.1369  0.6733
  904MOL0     H22007  11.637  -0.017   3.084 -1.7917  0.2054  0.5183
  904MOL0     H22008  11.612  -0.210   2.942  2.2301 -0.5775  0.2079
  904MOL0     H22009  11.630  -0.111   2.790 -2.0555  3.3057  0.3080
  904MOL0     H22010  11.844  -0.086   3.002  0.8681  4.2028 -0.9318
  904MOL0     H22011  11.833  -0.035   2.841  0.2508  1.1671  1.7791
  904MOL0     H22012  11.844  -0.295   2.769  2.8041  2.1308 -0.9182
  904MOL0     H22013  11.819  -0.326   2.938  1.6451  0.2955  0.2788
  904MOL0     H22014  12.063  -0.204   2.796 -0.0755 -2.4810 -0.5839
  904MOL0     H22015  12.037  -0.175   2.972  0.6371 -0.9112  0.3236
  904MOL0     H22016  12.065  -0.433   3.019 -0.3787  2.1315  0.9251
  904MOL0     H22017  12.201  -0.370   2.932  0.9492  0.8210 -0.6092
  904MOL0     H22018  11.978  -0.532   2.818 -1.1003  2.8324  1.0510
  904MOL0     H22019  12.090  -0.441   2.713 -1.0702  2.2794  0.5186
  904MOL0     H22020  11.275   0.316   3.160  3.1212 -1.8077 -1.5122
  904MOL0     H22021  11.035   0.343   3.195  1.5929  1.3921 -2.4630
  904MOL0     H22022  10.580  -0.109   3.266 -2.2217 -0.0680  1.0754
  904MOL0     H22023  10.345  -0.127   3.179 -0.8522 -0.2707  0.0125
  904MOL0     H22024   9.300   0.450   2.229  1.8664  1.6910 -0.9327
  904MOL0     H22025   9.302   0.693   2.208  2.1975 -2.7818  0.5538
  904MOL0     H22026   8.948   1.018   1.986 -0.6564 -1.7859  4.8789
  904MOL0     H22027   8.866   1.264   2.003  0.1265 -1.0912  0.2686
  904MOL0     H22028   9.112   1.562   1.928  0.6465 -2.6692  1.5911
  904MOL0     H22029   9.132   1.603   2.099 -1.8858  0.7731  2.7412
  904MOL0     H22030   9.033   1.786   1.984  2.5767 -1.5386  0.7519
  904MOL0     H22031   8.920   1.710   2.102 -0.8868 -0.7617  0.0021
  904MOL0     H22032   8.790   1.593   1.934  0.4777  0.6159  1.3584
  904MOL0     H22033   8.917   1.645   1.806 -0.7083  0.7348 -1.1725
  904MOL0     H22034   8.751   1.840   1.966 -0.4586  1.1099 -0.2059
  904MOL0     H22035   8.863   1.875   1.839  0.7126  0.6994 -0.6735
  904MOL0     H22036   8.479   1.788   1.655  0.9863  2.2817 -0.9407
  904MOL0     H22037   9.242   1.410   2.069 -0.0210  0.0186 -2.1190
  904MOL0     H22038   9.443   1.092   2.023  2.2158  2.5458 -0.4759
  904MOL0     H22039   9.437   1.259   2.072  3.3943 -1.8369 -2.4141
  904MOL0     H22040   9.399   1.114   2.181  0.8152 -3.2954 -2.0260
  905MOL0     O22041   4.550   7.665   4.219  0.3421 -0.6610 -0.3360
  905MOL0     C22042   4.496   7.569   4.271  0.0795  0.1142  0.0322
  905MOL0     O22043   4.534   7.506   4.390  0.2628 -0.2391  0.1992
  905MOL0     C22044   4.638   7.562   4.464 -0.7410 -0.0534 -0.1073
  905MOL0     C22045   4.758   7.495   4.476 -0.5850  0.0982  1.1232
  905MOL0     C22046   4.862   7.559   4.533 -0.5465 -0.2062 -0.0465
  905MOL0     C22047   4.850   7.675   4.604 -0.7249 -0.3781 -0.9140
  905MOL0     O22048   4.967   7.724   4.664 -0.1732  0.6246  0.0167
  905MOL0     C22049   5.011   7.845   4.596 -0.4216  0.2659  0.2668
  905MOL0     C22050   5.124   7.904   4.684 -0.1430  0.9506  0.4597
  905MOL0     C22051   5.181   8.026   4.607 -0.7253 -0.0459  0.0647
  905MOL0     C22052   5.268   8.124   4.685 -0.4550  0.3064  0.2259
  905MOL0     C22053   5.397   8.062   4.748  0.7575 -0.3543  0.8332
  905MOL0     C22054   5.509   8.171   4.767  0.0799  0.2584 -0.2798
  905MOL0     C22055   5.621   8.115   4.854  0.3765 -0.3209  0.9428
  905MOL0     C22056   5.737   8.217   4.859 -0.4717 -1.0535 -1.2053
  905MOL0     N22057   5.800   8.246   4.729  0.2360 -0.1438 -0.2393
  905MOL0     C22058   5.878   8.154   4.657  0.7596  0.4562 -0.8855
  905MOL0     C22059   5.924   8.229   4.557 -0.5629 -0.3808 -0.3647
  905MOL0     C22060   5.997   8.195   4.441  0.2764  0.1225  0.0012
  905MOL0     C22061   6.157   8.197   4.457 -0.6244 -0.3436 -0.0775
  905MOL0     C22062   6.240   8.141   4.345 -0.0527 -0.1981  0.3212
  905MOL0     C22063   6.391   8.165   4.362 -0.2350  0.7797 -0.1858
  905MOL0     O22064   6.400   8.304   4.365 -0.5292  0.4383  0.5111
  905MOL0     C22065   6.523   8.356   4.406 -0.0944 -0.7234 -0.1260
  905MOL0     C22066   6.522   8.496   4.441  0.3358  0.8686  0.1301
  905MOL0     C22067   6.632   8.572   4.480  0.5537  0.6860 -0.0048
  905MOL0     C22068   6.760   8.500   4.486 -0.6982 -0.3256 -0.0882
  905MOL0     C22069   6.882   8.566   4.533 -0.0973  0.2610  0.4107
  905MOL0     O22070   6.879   8.703   4.557  0.7770  0.3671 -0.7177
  905MOL0     C22071   7.003   8.752   4.567  0.2238  0.3665  0.1838
  905MOL0     C22072   7.098   8.726   4.470 -0.3512 -0.2798  0.0413
  905MOL0     C22073   7.226   8.793   4.481  0.0397 -0.3918 -0.2366
  905MOL0     C22074   7.253   8.884   4.586 -0.7410  0.6652  0.0993
  905MOL0     O22075   7.383   8.923   4.594 -0.5177 -0.2894  0.4369
  905MOL0     C22076   7.419   9.000   4.710 -1.1663  0.2670  0.0681
  905MOL0     C22077   7.542   9.077   4.661  0.2910 -0.0546  0.1552
  905MOL0     C22078   7.587   9.180   4.769  0.8070  0.1957 -0.1419
  905MOL0     C22079   7.731   9.228   4.750 -0.3780  0.5356 -0.4627
  905MOL0     C22080   7.806   9.272   4.878 -0.8023 -0.0521  0.1426
  905MOL0     C22081   7.961   9.303   4.855 -0.0997 -0.5807  0.2844
  905MOL0     C22082   8.031   9.342   4.990 -0.4435 -0.1778 -0.3708
  905MOL0     C22083   8.169   9.284   4.986 -0.1045  0.1219  0.0787
  905MOL0    Cl22084   8.275   9.360   4.862 -0.5017  0.8640 -0.1528
  905MOL0     C22085   7.153   8.893   4.692 -0.0579  0.5890 -0.2141
  905MOL0     C22086   7.029   8.839   4.671 -0.1777 -0.1079 -0.7002
  905MOL0     O22087   6.977   8.490   4.555  0.2336  0.6023  0.1611
  905MOL0     C22088   6.764   8.360   4.450  0.4321 -1.0344 -0.6489
  905MOL0     C22089   6.650   8.287   4.417 -0.0913  0.1683 -0.4242
  905MOL0     N22090   5.895   8.364   4.574  0.4507 -0.2297  0.0728
  905MOL0     N22091   5.824   8.371   4.681  0.0962  0.3663 -0.1764
  905MOL0     C22092   4.722   7.736   4.610  0.2329  0.0649 -0.1209
  905MOL0     C22093   4.618   7.682   4.532 -0.4669  0.0669  0.2272
  905MOL0     C22094   4.377   7.513   4.208 -0.1307  0.4549  0.2181
  905MOL0     C22095   4.398   7.431   4.096 -0.1671  1.1668 -0.6274
  905MOL0     C22096   4.298   7.345   4.044  0.5204 -0.6553  0.4732
  905MOL0     C22097   4.171   7.354   4.099  0.3086  0.5475 -0.3041
  905MOL0     O22098   4.065   7.291   4.036 -1.1176  0.0684  0.2435
  905MOL0     C22099   4.040   7.325   3.897 -0.5881  0.0852  0.2875
  905MOL0     C22100   4.098   7.227   3.801 -0.0338  0.5745 -1.0826
  905MOL0     C22101   4.077   7.272   3.656  0.2179  0.2838  0.0734
  905MOL0     C22102   4.125   7.172   3.554  0.3297  0.2895  0.5223
  905MOL0     C22103   4.253   7.107   3.580 -0.2531 -0.1180 -0.8058
  905MOL0     C22104   4.360   7.065   3.615  0.3474 -0.1619 -0.4836
  905MOL0     C22105   4.148   7.438   4.206  0.1780 -0.6960  0.1436
  905MOL0     C22106   4.248   7.513   4.269  0.8105 -0.1574 -0.4542
  905MOL0     C22107   4.217   7.580   4.400 -0.4840  0.5315  0.0554
  905MOL0     H22108   4.783   7.401   4.429  1.1861 -0.1194  2.4314
  905MOL0     H22109   4.956   7.506   4.537 -0.6646 -0.3426  1.7769
  905MOL0     H22110   5.048   7.819   4.497 -2.3311 -3.2606  0.3292
  905MOL0     H22111   4.928   7.914   4.577 -1.7628 -0.6530  2.3492
  905MOL0     H22112   5.208   7.834   4.683  0.7532  1.9282 -2.4473
  905MOL0     H22113   5.072   7.917   4.779 -3.7598 -0.6280 -1.1011
  905MOL0     H22114   5.096   8.076   4.560 -0.7750 -0.4863 -0.3219
  905MOL0     H22115   5.239   7.982   4.525  1.5145  0.4032  1.3313
  905MOL0     H22116   5.301   8.197   4.610  3.3732 -0.9212  0.5267
  905MOL0     H22117   5.214   8.171   4.767  2.3930  0.6138  2.0335
  905MOL0     H22118   5.363   8.011   4.839 -0.1305 -0.4169  0.4741
  905MOL0     H22119   5.439   7.984   4.683 -0.5583 -0.9381  0.6534
  905MOL0     H22120   5.546   8.185   4.665 -1.2282  0.9234 -0.6970
  905MOL0     H22121   5.475   8.273   4.791  0.4616  0.6749 -1.4183
  905MOL0     H22122   5.672   8.029   4.811  1.8355  1.2966 -0.7554
  905MOL0     H22123   5.583   8.087   4.953 -1.9756  1.8313  0.7732
  905MOL0     H22124   5.702   8.317   4.887  3.2933  0.5765 -1.7275
  905MOL0     H22125   5.816   8.187   4.928 -1.0954 -0.3703 -0.1621
  905MOL0     H22126   5.882   8.050   4.686  1.5727  0.8141  0.3632
  905MOL0     H22127   5.968   8.093   4.414 -0.9950 -0.1459  2.0978
  905MOL0     H22128   5.982   8.267   4.360  1.1807  0.6435  0.2792
  905MOL0     H22129   6.183   8.303   4.458  1.7336 -0.8373 -0.9744
  905MOL0     H22130   6.190   8.147   4.548  2.1695 -0.0065 -0.8081
  905MOL0     H22131   6.192   8.181   4.255 -0.2358 -2.7381 -0.7955
  905MOL0     H22132   6.218   8.033   4.349 -3.0799  0.3561  2.3695
  905MOL0     H22133   6.437   8.112   4.278 -1.6220  1.3388 -1.3422
  905MOL0     H22134   6.429   8.119   4.453  1.2628  0.5821 -0.8763
  905MOL0     H22135   6.424   8.543   4.443  0.9633  2.1773  1.9292
  905MOL0     H22136   6.622   8.678   4.500  4.0795  0.5612  4.0785
  905MOL0     H22137   7.091   8.655   4.389  0.5113  1.7326 -1.9205
  905MOL0     H22138   7.304   8.784   4.406  2.4012 -2.5305  2.2695
  905MOL0     H22139   7.334   9.066   4.730 -0.3862  1.9041 -1.5783
  905MOL0     H22140   7.446   8.937   4.795  1.9903 -0.7378 -1.5005
  905MOL0     H22141   7.625   9.018   4.620  2.7426  2.2499  1.5143
  905MOL0     H22142   7.510   9.156   4.591 -0.5786  0.7747  1.4520
  905MOL0     H22143   7.521   9.267   4.774 -0.5514 -0.8201  0.1522
  905MOL0     H22144   7.587   9.125   4.864  1.9316  1.7827  0.8265
  905MOL0     H22145   7.735   9.301   4.668  0.3795  1.0990  0.0669
  905MOL0     H22146   7.792   9.146   4.713 -0.7967 -0.0083  0.0400
  905MOL0     H22147   7.801   9.184   4.943  1.2745 -0.4012 -0.1009
  905MOL0     H22148   7.767   9.352   4.941  0.0966  0.9735 -0.5748
  905MOL0     H22149   8.001   9.216   4.802 -2.5583  0.1736 -3.1197
  905MOL0     H22150   7.971   9.385   4.784  1.9355 -0.1160  1.0247
  905MOL0     H22151   7.977   9.291   5.071 -4.3667 -0.9616 -3.1903
  905MOL0     H22152   8.025   9.449   5.012 -2.2461 -0.7077  2.2214
  905MOL0     H22153   8.211   9.311   5.083 -2.1837  2.2625  0.4616
  905MOL0     H22154   8.165   9.177   4.964 -1.5565 -0.5330  3.0677
  905MOL0     H22155   7.167   8.942   4.788  0.0871 -2.1926  1.2859
  905MOL0     H22156   6.945   8.867   4.733  0.5073  1.3553 -0.3802
  905MOL0     H22157   6.854   8.300   4.444  1.9827  1.2895 -2.3489
  905MOL0     H22158   6.657   8.182   4.391  0.6326  0.3128 -0.8445
  905MOL0     H22159   4.720   7.835   4.654  2.3467 -0.0893  0.4534
  905MOL0     H22160   4.522   7.730   4.550 -2.2746 -3.2727  0.3421
  905MOL0     H22161   4.500   7.426   4.059 -0.3220 -2.1079 -0.9524
  905MOL0     H22162   4.308   7.275   3.962 -2.8644  0.3825 -1.0158
  905MOL0     H22163   4.064   7.431   3.883  1.5025 -0.4767 -0.8127
  905MOL0     H22164   3.931   7.315   3.894 -0.3852 -3.0237 -0.1308
  905MOL0     H22165   4.043   7.132   3.804 -0.0747  0.3522 -4.4240
  905MOL0     H22166   4.204   7.202   3.813 -0.6230 -0.8554  2.3858
  905MOL0     H22167   4.130   7.367   3.646 -1.2219  1.0602 -0.4202
  905MOL0     H22168   3.970   7.277   3.637  0.3892 -1.8806 -1.9870
  905MOL0     H22169   4.052   7.092   3.539  1.2219 -0.0271 -3.1571
  905MOL0     H22170   4.120   7.219   3.455 -0.6351 -1.5005 -0.3282
  905MOL0     H22171   4.455   7.023   3.643  0.3098  0.7939  1.2257
  905MOL0     H22172   4.044   7.440   4.236  0.3602  1.3871  0.7477
  905MOL0     H22173   4.291   7.660   4.415  0.3914 -0.0748 -0.8897
  905MOL0     H22174   4.121   7.632   4.405 -0.7838  0.1330 -1.2361
  905MOL0     H22175   4.235   7.494   4.466  2.7510  1.2448  0.2783
  906MOL0     O22176   1.217   5.836   7.093 -0.2272 -0.1272  0.5410
  906MOL0     C22177   1.234   5.726   7.147  0.8170  0.3414  1.4411
  906MOL0     O22178   1.153   5.680   7.250  0.2466 -0.0230  0.4240
  906MOL0     C22179   1.035   5.746   7.284  0.4349  0.7587 -0.0932
  906MOL0     C22180   1.036   5.873   7.345  0.3423  0.0280  0.0056
  906MOL0     C22181   0.921   5.933   7.397  0.5475 -0.1011 -0.4513
  906MOL0     C22182   0.800   5.859   7.375  0.4495 -0.4668  0.5853
  906MOL0     O22183   0.680   5.933   7.390  0.3471  0.5039 -0.0786
  906MOL0     C22184   0.553   5.889   7.336 -0.8731  0.7074 -0.8382
  906MOL0     C22185   0.485   5.782   7.430 -0.2333  0.4724 -0.0388
  906MOL0     C22186   0.327   5.770   7.426 -0.2453  0.4515 -0.5435
  906MOL0     C22187   0.278   5.633   7.486  0.1035  0.2714 -0.0343
  906MOL0     C22188   0.121   5.616   7.500  0.6071  0.0584  0.7356
  906MOL0     C22189   0.068   5.696   7.618 -1.0184 -0.2715 -0.5374
  906MOL0     C22190  -0.079   5.662   7.649  0.1667 -0.1358 -1.4007
  906MOL0     C22191  -0.113   5.695   7.794  0.1715 -0.9605  0.1791
  906MOL0     N22192  -0.118   5.843   7.822  0.7301 -0.3793 -0.8071
  906MOL0     C22193  -0.163   5.929   7.725  0.3608  0.2101  0.7317
  906MOL0     C22194  -0.139   6.054   7.763 -0.8453 -0.2046  0.1332
  906MOL0     C22195  -0.183   6.177   7.701 -0.3744 -0.7458  0.7156
  906MOL0     C22196  -0.082   6.232   7.587  0.1033  0.1367 -0.4742
  906MOL0     C22197  -0.052   6.138   7.475 -0.4388 -0.2859 -0.2072
  906MOL0     C22198   0.057   6.189   7.378  0.1813 -0.8738 -0.0590
  906MOL0     O22199   0.184   6.203   7.440 -0.1793 -0.0632  0.0131
  906MOL0     C22200   0.292   6.232   7.357  0.6677 -0.2995  0.5347
  906MOL0     C22201   0.282   6.287   7.229 -0.0398  0.6228  1.1511
  906MOL0     C22202   0.398   6.324   7.160  0.4259  0.3068 -0.1428
  906MOL0     C22203   0.526   6.291   7.216  0.4474  0.2490 -0.0275
  906MOL0     C22204   0.655   6.323   7.137 -0.2449 -0.1463 -0.7112
  906MOL0     O22205   0.765   6.275   7.200  0.1919 -0.5778  0.1118
  906MOL0     C22206   0.881   6.311   7.139  0.1973  0.0382 -0.5803
  906MOL0     C22207   0.960   6.207   7.088 -0.4135  1.0000 -0.4323
  906MOL0     C22208   1.087   6.233   7.044 -0.1596  0.7072 -0.3627
  906MOL0     C22209   1.147   6.358   7.056 -0.0309  0.9276  0.3519
  906MOL0     O22210   1.279   6.371   7.021 -0.5847  0.4704 -0.0112
  906MOL0     C22211   1.352   6.495   7.051 -0.2435 -0.2804 -0.0312
  906MOL0     C22212   1.351   6.590   6.931 -0.4165 -0.1796  1.2450
  906MOL0     C22213   1.438   6.709   6.960 -0.0316 -0.5159  0.2913
  906MOL0     C22214   1.378   6.806   7.065  0.7025  0.1769 -0.2202
  906MOL0     C22215   1.234   6.864   7.033 -0.8489 -0.6490  0.0876
  906MOL0     C22216   1.238   6.972   6.921 -0.0152 -0.2743  0.6223
  906MOL0     C22217   1.092   7.025   6.884 -0.2080 -0.4943 -0.1551
  906MOL0     C22218   1.099   7.167   6.822 -0.1684 -0.7113 -0.8857
  906MOL0    Cl22219   1.162   7.151   6.651  0.5297  0.4773  0.2874
  906MOL0     C22220   1.070   6.462   7.116  0.9034  1.0973 -0.6167
  906MOL0     C22221   0.940   6.439   7.158  0.2330 -0.2135  0.1694
  906MOL0     O22222   0.652   6.371   7.027 -0.1957 -0.5330  0.4199
  906MOL0     C22223   0.538   6.224   7.337  0.0291  0.4984 -0.1055
  906MOL0     C22224   0.418   6.198   7.401 -0.7330 -0.3883  0.0995
  906MOL0     N22225  -0.065   6.041   7.874 -0.2454 -0.5493  0.1453
  906MOL0     N22226  -0.055   5.922   7.915 -0.0182  0.4412 -0.1900
  906MOL0     C22227   0.798   5.726   7.326 -0.8320  0.2127 -0.6952
  906MOL0     C22228   0.923   5.669   7.285  0.1613  0.2663  0.6462
  906MOL0     C22229   1.356   5.657   7.100  0.2461 -0.0990  0.8756
  906MOL0     C22230   1.402   5.556   7.186  0.2249  0.3143 -0.0999
  906MOL0     C22231   1.509   5.483   7.164 -1.1261  0.5105  0.0014
  906MOL0     C22232   1.587   5.500   7.046 -0.2499  0.7442 -0.2807
  906MOL0     O22233   1.693   5.420   7.035 -0.4634  0.3003  0.0992
  906MOL0     C22234   1.762   5.406   6.900  1.3758 -0.1353 -1.1429
  906MOL0     C22235   1.846   5.288   6.911 -0.0290 -0.4544  0.7519
  906MOL0     C22236   1.952   5.293   7.016 -0.6675 -0.0360  0.1987
  906MOL0     C22237   2.000   5.160   7.070  0.0729 -0.5873  0.1075
  906MOL0     C22238   2.125   5.125   6.996  0.3224  1.0940  0.0329
  906MOL0     C22239   2.226   5.117   6.929 -0.2347 -0.1297  0.6634
  906MOL0     C22240   1.544   5.594   6.953 -0.0164  0.4862  0.5618
  906MOL0     C22241   1.430   5.679   6.977  0.2686  0.1221  0.4627
  906MOL0     C22242   1.411   5.782   6.877 -1.6380 -0.5573 -0.3500
  906MOL0     H22243   1.128   5.929   7.359 -0.8819  2.4035 -0.8842
  906MOL0     H22244   0.922   6.033   7.441 -0.0427 -0.5593  0.6347
  906MOL0     H22245   0.485   5.972   7.315 -2.0446  0.5476  1.9325
  906MOL0     H22246   0.565   5.836   7.241  1.2313  3.1987 -2.1015
  906MOL0     H22247   0.521   5.785   7.534  0.4523 -0.0835 -0.2562
  906MOL0     H22248   0.514   5.686   7.387 -1.1241 -0.0944  0.5763
  906MOL0     H22249   0.287   5.788   7.326 -0.0191 -0.1813 -0.7503
  906MOL0     H22250   0.293   5.856   7.485  1.4234  0.0031  1.1996
  906MOL0     H22251   0.324   5.558   7.421  3.5960 -0.3082  2.7617
  906MOL0     H22252   0.313   5.620   7.589  2.4014 -1.3269 -0.9481
  906MOL0     H22253   0.067   5.623   7.405  3.1906 -0.6849 -0.9075
  906MOL0     H22254   0.110   5.510   7.525 -0.5954 -0.0192 -0.0270
  906MOL0     H22255   0.116   5.652   7.706 -2.2851  0.5993  0.6312
  906MOL0     H22256   0.093   5.802   7.617 -2.4513  0.0861 -0.3506
  906MOL0     H22257  -0.108   5.558   7.630 -2.0341  0.0416  0.5789
  906MOL0     H22258  -0.138   5.723   7.580 -1.0772  0.4104  0.1118
  906MOL0     H22259  -0.208   5.652   7.826 -1.6527  2.1094 -0.7230
  906MOL0     H22260  -0.034   5.648   7.854 -0.5832 -0.6008  1.5077
  906MOL0     H22261  -0.222   5.899   7.639 -0.4188 -0.0782  1.3630
  906MOL0     H22262  -0.279   6.157   7.653  0.5032 -1.8956 -0.6136
  906MOL0     H22263  -0.190   6.263   7.770  1.6371 -1.2174  1.5939
  906MOL0     H22264  -0.133   6.321   7.550  0.6982  1.3404  1.4964
  906MOL0     H22265   0.012   6.239   7.643 -0.1052 -3.1724  0.5213
  906MOL0     H22266  -0.144   6.131   7.416 -1.5904  2.5335  1.0621
  906MOL0     H22267  -0.020   6.044   7.520 -1.2035  0.3233  1.7174
  906MOL0     H22268   0.011   6.278   7.333  0.4825  0.1910  1.6365
  906MOL0     H22269   0.068   6.116   7.297  2.0690 -1.3074  0.5222
  906MOL0     H22270   0.185   6.311   7.186 -0.0227 -0.1830  0.6229
  906MOL0     H22271   0.383   6.358   7.058 -0.9443  2.4717  0.6883
  906MOL0     H22272   0.925   6.105   7.090  0.3411  0.7548  1.5492
  906MOL0     H22273   1.140   6.149   6.999 -2.2465 -0.4107 -0.8616
  906MOL0     H22274   1.315   6.539   7.144  0.6924 -0.8277  0.6097
  906MOL0     H22275   1.457   6.485   7.081 -0.0296 -0.7807 -0.8952
  906MOL0     H22276   1.399   6.536   6.849 -2.1540 -0.2196  0.2031
  906MOL0     H22277   1.255   6.620   6.889  0.0884  1.2404  1.0616
  906MOL0     H22278   1.533   6.686   7.008  0.3219  1.4910  0.6346
  906MOL0     H22279   1.461   6.776   6.877  1.1574 -0.6789  0.4795
  906MOL0     H22280   1.452   6.887   7.071  0.2288  0.6058  0.0052
  906MOL0     H22281   1.364   6.750   7.158  0.5931  0.8307  0.1686
  906MOL0     H22282   1.188   6.914   7.118  0.9224  2.6623 -0.7483
  906MOL0     H22283   1.175   6.779   6.998 -1.5006  0.3938 -1.4684
  906MOL0     H22284   1.303   7.058   6.937  1.0585 -1.1197  0.8905
  906MOL0     H22285   1.270   6.914   6.833 -0.6002 -0.1698  0.3313
  906MOL0     H22286   1.046   7.034   6.982  1.2011 -1.4542  0.6211
  906MOL0     H22287   1.044   6.961   6.809 -0.6461  0.0048 -0.3121
  906MOL0     H22288   1.002   7.219   6.822  0.2724  0.1588  0.6048
  906MOL0     H22289   1.163   7.234   6.881 -1.0174 -1.7612  1.3313
  906MOL0     H22290   1.104   6.565   7.112  0.9847  1.0805 -0.3354
  906MOL0     H22291   0.879   6.509   7.214  1.3490 -0.3236  1.5885
  906MOL0     H22292   0.635   6.206   7.384 -0.7921 -0.9859  1.1054
  906MOL0     H22293   0.420   6.163   7.504 -0.5893 -1.5730 -0.2844
  906MOL0     H22294   0.712   5.661   7.329  0.6736 -1.8504  1.9442
  906MOL0     H22295   0.921   5.567   7.247 -2.9865  0.5321 -0.1503
  906MOL0     H22296   1.343   5.546   7.277  0.6492  3.0275  0.5540
  906MOL0     H22297   1.553   5.421   7.241  2.1783  1.2436 -1.1223
  906MOL0     H22298   1.829   5.490   6.876  0.2198  0.0770 -3.9818
  906MOL0     H22299   1.690   5.403   6.818  0.6177 -0.5269 -0.4746
  906MOL0     H22300   1.892   5.274   6.813 -1.0505  0.5398  0.1025
  906MOL0     H22301   1.773   5.210   6.935  0.4007 -1.2520 -0.4278
  906MOL0     H22302   1.927   5.362   7.097 -0.4463  0.1968  0.0709
  906MOL0     H22303   2.035   5.344   6.965 -0.5208 -0.6464 -0.1803
  906MOL0     H22304   2.022   5.184   7.175 -2.6655  1.6798  0.2741
  906MOL0     H22305   1.918   5.088   7.068 -1.4951  0.9694 -4.1603
  906MOL0     H22306   2.313   5.125   6.867 -1.5018  0.3082 -1.1471
  906MOL0     H22307   1.593   5.605   6.857  2.1248  1.5637  1.7158
  906MOL0     H22308   1.423   5.734   6.780  0.8015 -1.0582  0.1344
  906MOL0     H22309   1.318   5.838   6.883 -1.0972  0.2175  1.7350
  906MOL0     H22310   1.490   5.857   6.887 -1.9071 -0.5048  1.7553
  907MOL0     O22311   3.833   5.488   6.903 -0.0313  0.2661 -0.0328
  907MOL0     C22312   3.855   5.606   6.922  0.3382  0.4155  0.7738
  907MOL0     O22313   3.772   5.695   6.995  0.0470  0.5489  0.4624
  907MOL0     C22314   3.635   5.665   7.002  0.3138  0.2931 -0.7332
  907MOL0     C22315   3.543   5.744   6.931 -0.2190 -0.1075  0.1003
  907MOL0     C22316   3.400   5.723   6.948 -0.2061 -0.6466  0.9357
  907MOL0     C22317   3.360   5.613   7.032 -0.0357  0.7299 -0.2407
  907MOL0     O22318   3.226   5.596   7.048  0.3340  0.1644  0.0991
  907MOL0     C22319   3.176   5.466   7.095  0.2804 -0.3200 -0.1173
  907MOL0     C22320   3.184   5.358   6.985  0.1205  0.7699 -0.1821
  907MOL0     C22321   3.130   5.391   6.843 -0.3858 -0.5051 -0.3645
  907MOL0     C22322   3.219   5.324   6.732 -0.5745  0.1881 -0.4606
  907MOL0     C22323   3.196   5.391   6.593  0.1357 -0.3735  0.1783
  907MOL0     C22324   3.273   5.303   6.486  0.1646 -1.0226  0.2156
  907MOL0     C22325   3.255   5.349   6.341  1.0271  0.0907  0.4138
  907MOL0     C22326   3.112   5.316   6.282 -0.6046  0.0363  0.1697
  907MOL0     N22327   3.139   5.341   6.135  0.9429 -0.3858  1.2734
  907MOL0     C22328   3.098   5.451   6.062  0.5675 -0.0015  0.1072
  907MOL0     C22329   3.115   5.418   5.938  0.9146  0.2296  0.4259
  907MOL0     C22330   3.080   5.507   5.822 -0.3546 -0.4895 -1.0880
  907MOL0     C22331   2.928   5.515   5.796 -0.4565 -0.4574 -1.1379
  907MOL0     C22332   2.851   5.382   5.794  0.1521  0.6928 -0.3222
  907MOL0     C22333   2.738   5.391   5.702  0.2685 -0.2358  0.0158
  907MOL0     O22334   2.645   5.488   5.764  1.2559  0.0149 -0.2919
  907MOL0     C22335   2.543   5.436   5.832 -0.7244 -0.5894  1.1180
  907MOL0     C22336   2.454   5.541   5.861 -0.2255  0.7308 -0.1874
  907MOL0     C22337   2.333   5.512   5.937  0.6078 -0.0131  0.0007
  907MOL0     C22338   2.313   5.377   5.985  0.0048 -1.2547  0.2893
  907MOL0     C22339   2.195   5.345   6.063 -0.5037 -0.2170  0.4947
  907MOL0     O22340   2.123   5.452   6.110 -0.2178  0.0706 -0.5309
  907MOL0     C22341   2.015   5.417   6.189 -0.2378 -0.4265 -0.3971
  907MOL0     C22342   2.026   5.336   6.307 -0.5048  0.3864  0.1643
  907MOL0     C22343   1.907   5.304   6.379 -0.4209  0.1238  0.0392
  907MOL0     C22344   1.786   5.365   6.348  0.0377 -0.3564  0.6304
  907MOL0     O22345   1.683   5.314   6.415 -0.7093  0.1456 -0.8490
  907MOL0     C22346   1.568   5.389   6.435  0.1750 -0.2077  0.4380
  907MOL0     C22347   1.455   5.324   6.508  0.0166  0.9578 -0.1495
  907MOL0     C22348   1.507   5.288   6.652  0.3341  0.5001  0.6190
  907MOL0     C22349   1.412   5.182   6.715 -1.0169  0.1894  0.9764
  907MOL0     C22350   1.266   5.223   6.752  0.8974 -0.0145 -0.3515
  907MOL0     C22351   1.261   5.350   6.842 -0.0471 -1.2041  0.2249
  907MOL0     C22352   1.110   5.381   6.876  0.5928 -1.0272  0.4617
  907MOL0     C22353   1.048   5.286   6.968 -0.9372 -0.2836  0.0227
  907MOL0    Cl22354   1.029   5.367   7.127 -0.3997 -0.0224  0.1178
  907MOL0     C22355   1.788   5.454   6.240 -0.0905  0.1616  0.5578
  907MOL0     C22356   1.894   5.478   6.161  0.1281 -0.0682 -0.7168
  907MOL0     O22357   2.170   5.227   6.077 -0.7212 -0.2329 -0.4889
  907MOL0     C22358   2.415   5.274   5.952 -0.3956 -0.3120  0.5393
  907MOL0     C22359   2.522   5.306   5.872 -0.2377  0.8891 -0.0779
  907MOL0     N22360   3.157   5.285   5.931  0.0078  0.1548  0.1317
  907MOL0     N22361   3.166   5.242   6.046 -0.1295  0.9727 -0.2888
  907MOL0     C22362   3.455   5.536   7.100  0.1976  0.1821  1.0505
  907MOL0     C22363   3.593   5.562   7.086  0.0029  0.2832  0.5572
  907MOL0     C22364   3.989   5.659   6.890 -0.9286 -0.1008 -0.2510
  907MOL0     C22365   4.028   5.779   6.954  0.0549  0.0466 -0.3843
  907MOL0     C22366   4.152   5.833   6.919  0.0638 -0.6484 -0.4475
  907MOL0     C22367   4.244   5.764   6.838 -0.4978 -0.0190  0.2878
  907MOL0     O22368   4.366   5.826   6.831 -0.0398 -0.1471 -0.3831
  907MOL0     C22369   4.430   5.807   6.706 -0.7145  0.7605 -0.7753
  907MOL0     C22370   4.539   5.911   6.683  0.3026 -0.5689 -0.0796
  907MOL0     C22371   4.617   5.878   6.562 -1.1924  0.3390 -0.0082
  907MOL0     C22372   4.732   5.972   6.516 -0.7615 -0.2871 -1.0074
  907MOL0     C22373   4.829   5.991   6.623 -0.1920  0.4240  0.0212
  907MOL0     C22374   4.910   5.991   6.717 -1.3282  0.8926 -0.0152
  907MOL0     C22375   4.209   5.647   6.788  0.3035 -0.6867  0.5693
  907MOL0     C22376   4.085   5.593   6.800  0.2151  0.6750 -0.7536
  907MOL0     C22377   4.059   5.452   6.741  0.8667  0.9662  0.5114
  907MOL0     H22378   3.573   5.826   6.867  0.1533  0.1619  0.6124
  907MOL0     H22379   3.322   5.778   6.898 -0.1622  1.4266  2.9892
  907MOL0     H22380   3.218   5.426   7.188  0.6552 -1.3591 -0.7157
  907MOL0     H22381   3.069   5.472   7.118  0.2537 -1.3436  0.0903
  907MOL0     H22382   3.129   5.269   7.017 -0.1846  1.2170  0.5748
  907MOL0     H22383   3.286   5.320   6.991  0.3680  1.6414  3.8472
  907MOL0     H22384   3.139   5.500   6.841 -0.0862 -0.4768  1.1959
  907MOL0     H22385   3.024   5.365   6.828 -1.1264  1.6757  0.7379
  907MOL0     H22386   3.327   5.332   6.751 -1.0935  1.5108  2.3055
  907MOL0     H22387   3.203   5.216   6.720  1.1756 -0.3233  1.2169
  907MOL0     H22388   3.087   5.390   6.581 -0.3996  2.0298  3.3761
  907MOL0     H22389   3.222   5.497   6.581 -1.4318 -0.1681 -2.2382
  907MOL0     H22390   3.380   5.310   6.509  0.3574  2.4060 -1.0864
  907MOL0     H22391   3.237   5.200   6.492 -1.2799 -0.4621  2.9537
  907MOL0     H22392   3.320   5.289   6.276 -1.3195 -0.4202 -1.6245
  907MOL0     H22393   3.280   5.455   6.333 -2.0418  0.8930  0.3474
  907MOL0     H22394   3.082   5.212   6.301 -0.8165 -0.2393 -1.5067
  907MOL0     H22395   3.036   5.382   6.325 -1.2559 -0.9378  0.5659
  907MOL0     H22396   3.066   5.543   6.111 -2.2539 -0.7553 -0.1337
  907MOL0     H22397   3.106   5.612   5.838 -1.2692  0.0193 -2.6318
  907MOL0     H22398   3.137   5.483   5.732 -1.1824 -0.8795 -1.5203
  907MOL0     H22399   2.881   5.587   5.864  1.1581  0.0155 -0.4758
  907MOL0     H22400   2.922   5.537   5.689 -0.6571 -1.7495 -1.4058
  907MOL0     H22401   2.818   5.363   5.896  1.5365  1.8647  0.3702
  907MOL0     H22402   2.912   5.306   5.743 -1.4897 -0.3246 -0.8598
  907MOL0     H22403   2.690   5.297   5.674  2.4789 -1.3106 -0.3481
  907MOL0     H22404   2.766   5.435   5.605  4.2978  2.1253  1.9834
  907MOL0     H22405   2.455   5.645   5.831 -4.2226  1.2985  1.0722
  907MOL0     H22406   2.264   5.592   5.961  1.6657  0.2924  2.2587
  907MOL0     H22407   2.125   5.298   6.332 -1.5765 -0.9548  2.8448
  907MOL0     H22408   1.898   5.231   6.459  0.2067 -0.3917 -0.3520
  907MOL0     H22409   1.590   5.482   6.490 -2.5228  1.5649 -1.2574
  907MOL0     H22410   1.537   5.414   6.334  1.2919  0.6732  0.2872
  907MOL0     H22411   1.370   5.393   6.509 -0.4046  0.4453 -0.1891
  907MOL0     H22412   1.425   5.233   6.456 -0.1472  0.7580  0.2880
  907MOL0     H22413   1.609   5.249   6.659 -0.7879 -2.7059  0.6137
  907MOL0     H22414   1.498   5.380   6.711  0.8503  1.4398 -0.6966
  907MOL0     H22415   1.461   5.158   6.810  1.8602  0.6044 -0.3074
  907MOL0     H22416   1.408   5.097   6.646  0.8301  1.7674 -1.2469
  907MOL0     H22417   1.219   5.145   6.812  0.0534  1.4134  0.8963
  907MOL0     H22418   1.220   5.229   6.653  0.3874 -0.6149 -0.1551
  907MOL0     H22419   1.322   5.336   6.932 -1.1063 -2.2176  0.8006
  907MOL0     H22420   1.301   5.440   6.794 -0.2538 -0.9585  0.5148
  907MOL0     H22421   1.043   5.387   6.790 -0.0543  0.9069  1.0520
  907MOL0     H22422   1.112   5.477   6.928 -0.7986 -0.7654  0.0541
  907MOL0     H22423   0.950   5.250   6.937 -0.8615  0.1422 -0.7270
  907MOL0     H22424   1.112   5.197   6.983  0.3817  0.2650 -1.8923
  907MOL0     H22425   1.696   5.508   6.218 -0.1887 -0.6664 -1.1788
  907MOL0     H22426   1.898   5.546   6.076  0.8087  2.2744  1.0665
  907MOL0     H22427   2.387   5.175   5.985 -1.4529  0.0437  0.7415
  907MOL0     H22428   2.600   5.233   5.853  0.7479  0.8648  3.3615
  907MOL0     H22429   3.430   5.444   7.152  1.2514 -0.5653  0.2874
  907MOL0     H22430   3.671   5.499   7.130  0.6321  1.2727  0.8968
  907MOL0     H22431   3.968   5.839   7.021  1.7812  4.3580 -2.3280
  907MOL0     H22432   4.184   5.921   6.974 -1.2386 -1.9094  2.5462
  907MOL0     H22433   4.356   5.795   6.626  0.2742 -1.2218 -1.4577
  907MOL0     H22434   4.481   5.710   6.709 -2.6628 -0.3037  1.4973
  907MOL0     H22435   4.613   5.924   6.763 -0.2391  1.6645  0.1357
  907MOL0     H22436   4.486   6.006   6.670  2.3708  0.2839 -3.5427
  907MOL0     H22437   4.545   5.882   6.480 -0.5897  2.5755 -0.4889
  907MOL0     H22438   4.656   5.777   6.576 -1.2024 -0.0356 -2.3218
  907MOL0     H22439   4.783   5.923   6.432  2.2925 -2.4128  1.8403
  907MOL0     H22440   4.690   6.070   6.490  0.7698  1.3209  2.0373
  907MOL0     H22441   4.983   5.984   6.796 -2.2701  1.2417  0.9123
  907MOL0     H22442   4.276   5.595   6.721  0.1049 -2.2007  1.4987
  907MOL0     H22443   4.013   5.381   6.811  0.8998  0.0593 -0.3703
  907MOL0     H22444   3.998   5.470   6.653  2.6081  0.3282 -0.8792
  907MOL0     H22445   4.155   5.406   6.715  0.8296  1.8027 -1.2118
  908MOL0     O22446  11.272   9.957   5.368 -0.4184  0.4166  0.7962
  908MOL0     C22447  11.201   9.859   5.394 -0.2206  0.8780 -0.7423
  908MOL0     O22448  11.236   9.726   5.378 -0.7499 -0.0767 -0.0472
  908MOL0     C22449  11.343   9.704   5.289  0.9791  0.1650  0.1443
  908MOL0     C22450  11.469   9.711   5.342 -0.7582 -0.3688  0.6735
  908MOL0     C22451  11.574   9.700   5.248 -0.2533  0.2705 -0.6661
  908MOL0     C22452  11.553   9.677   5.116  0.1844  0.5565  1.0205
  908MOL0     O22453  11.663   9.687   5.024 -0.2090  0.0955 -0.5483
  908MOL0     C22454  11.640   9.634   4.888  0.7360  0.9205 -0.5516
  908MOL0     C22455  11.623   9.479   4.902 -0.5456  0.1208 -0.5803
  908MOL0     C22456  11.597   9.411   4.757  0.1039 -0.0712 -0.2714
  908MOL0     C22457  11.443   9.430   4.720 -0.1131 -0.0097  0.1750
  908MOL0     C22458  11.405   9.359   4.588 -0.0479 -0.3497  0.4314
  908MOL0     C22459  11.257   9.366   4.563  0.8009  0.7717 -0.2230
  908MOL0     C22460  11.170   9.275   4.658  0.1437 -1.2647  0.2699
  908MOL0     C22461  11.027   9.305   4.657 -0.1660  1.2093  0.2811
  908MOL0     N22462  10.946   9.210   4.741  0.2497 -0.1011  0.1094
  908MOL0     C22463  10.895   9.093   4.692 -0.1591 -0.1725  0.0992
  908MOL0     C22464  10.801   9.062   4.779  0.7707  0.9781  0.2117
  908MOL0     C22465  10.722   8.935   4.765 -0.0954 -0.6027  0.6839
  908MOL0     C22466  10.660   8.904   4.904 -0.5652 -0.5464  0.0869
  908MOL0     C22467  10.570   8.785   4.902  0.1548 -0.3469  0.1099
  908MOL0     C22468  10.543   8.752   5.054 -0.0495 -0.1554 -1.0711
  908MOL0     O22469  10.479   8.876   5.104 -0.2778  0.1936 -0.0723
  908MOL0     C22470  10.371   8.872   5.195  1.1264 -0.4240  0.4008
  908MOL0     C22471  10.305   8.759   5.246  0.5874 -0.6205 -0.2747
  908MOL0     C22472  10.192   8.765   5.332  0.0947 -0.1380  0.2267
  908MOL0     C22473  10.141   8.889   5.372 -0.0411 -0.5790 -0.2559
  908MOL0     C22474  10.032   8.898   5.464 -0.3511 -0.7087  0.1257
  908MOL0     O22475   9.968   9.022   5.477  0.1075  0.5516 -0.2812
  908MOL0     C22476   9.864   9.043   5.566  0.0698 -0.3081  0.1126
  908MOL0     C22477   9.869   9.166   5.638 -0.2466  0.0576 -0.5678
  908MOL0     C22478   9.772   9.205   5.730 -0.2468 -0.1776  0.0628
  908MOL0     C22479   9.661   9.120   5.741  0.6082  0.0893 -0.6963
  908MOL0     O22480   9.546   9.152   5.822 -0.7324  0.2947  0.1569
  908MOL0     C22481   9.569   9.118   5.958 -0.6211 -0.6008  0.0291
  908MOL0     C22482   9.438   9.125   6.048  0.0421  0.6197 -0.8249
  908MOL0     C22483   9.375   9.261   6.076 -0.8008 -0.3015 -0.5406
  908MOL0     C22484   9.227   9.248   6.131 -0.1168 -0.1776 -0.0392
  908MOL0     C22485   9.119   9.224   6.016  0.2905  0.3013 -0.8892
  908MOL0     C22486   8.979   9.167   6.067  0.1383  0.1146  0.2853
  908MOL0     C22487   8.884   9.111   5.961 -0.3962  0.1724  0.7129
  908MOL0     C22488   8.768   9.038   6.021  0.6071  0.6061  0.1935
  908MOL0    Cl22489   8.647   9.061   5.896 -0.5196 -0.0683 -0.0577
  908MOL0     C22490   9.650   9.005   5.667 -0.7218  0.5334 -0.0778
  908MOL0     C22491   9.752   8.960   5.591 -0.8109  0.3259  0.1322
  908MOL0     O22492   9.996   8.797   5.517 -0.3389 -0.8173  0.1979
  908MOL0     C22493  10.207   9.004   5.322  0.3258  0.0611  0.5080
  908MOL0     C22494  10.316   8.997   5.238  0.2797 -0.0184 -0.7139
  908MOL0     N22495  10.778   9.171   4.864  0.4298 -0.1862 -0.1677
  908MOL0     N22496  10.869   9.254   4.838 -0.5760  0.9212 -0.7160
  908MOL0     C22497  11.423   9.657   5.061  0.3942 -1.3187  0.0186
  908MOL0     C22498  11.319   9.672   5.149  0.5562  0.1582  0.2408
  908MOL0     C22499  11.070   9.891   5.463 -0.7677  0.0233  0.0807
  908MOL0     C22500  11.006   9.790   5.547  0.0471  0.3053  0.5622
  908MOL0     C22501  10.881   9.808   5.600  0.0029  0.7781 -0.7775
  908MOL0     C22502  10.814   9.921   5.577  0.3510 -0.0557 -0.6610
  908MOL0     O22503  10.677   9.921   5.613 -0.3704  0.1253  0.1873
  908MOL0     C22504  10.591  10.007   5.530  0.0722  0.0530 -0.4350
  908MOL0     C22505  10.447   9.985   5.547  0.1536 -0.2671  0.4884
  908MOL0     C22506  10.384   9.859   5.480 -0.3353  0.4175 -0.4450
  908MOL0     C22507  10.237   9.820   5.490  0.9935  0.6023 -0.4976
  908MOL0     C22508  10.200   9.803   5.632 -0.0792  0.6019 -0.2590
  908MOL0     C22509  10.145   9.785   5.744 -0.2363  1.6795  0.1000
  908MOL0     C22510  10.872  10.027   5.503 -0.1900  0.2964 -0.7797
  908MOL0     C22511  11.000  10.018   5.447 -0.1506 -1.0274 -0.0362
  908MOL0     C22512  11.046  10.132   5.360  0.3575  0.3562  0.3077
  908MOL0     H22513  11.474   9.743   5.445 -0.5193 -0.5708  0.7258
  908MOL0     H22514  11.675   9.729   5.277  0.5779 -2.2395 -0.8202
  908MOL0     H22515  11.554   9.677   4.836 -1.6478 -2.3952  0.3697
  908MOL0     H22516  11.735   9.659   4.839  0.7813  0.4515 -0.6989
  908MOL0     H22517  11.551   9.447   4.977  0.5300  0.3044  0.5726
  908MOL0     H22518  11.718   9.452   4.949  0.3978  3.9862  0.1511
  908MOL0     H22519  11.629   9.307   4.771  0.3291  0.1411  0.9089
  908MOL0     H22520  11.660   9.455   4.679 -0.8285 -0.1933 -1.1101
  908MOL0     H22521  11.377   9.393   4.799 -3.8600  2.0897 -1.7023
  908MOL0     H22522  11.418   9.536   4.723  0.8590  0.2420 -0.1275
  908MOL0     H22523  11.454   9.394   4.497 -0.5765  2.7197  1.2250
  908MOL0     H22524  11.457   9.264   4.604 -0.6603 -1.3856 -2.9817
  908MOL0     H22525  11.223   9.470   4.570 -1.1273  0.1190  1.4214
  908MOL0     H22526  11.238   9.333   4.461  0.5281  0.2202  0.0006
  908MOL0     H22527  11.204   9.293   4.760 -2.0515  0.1636  0.8117
  908MOL0     H22528  11.178   9.169   4.630 -1.1062 -1.6254  1.1662
  908MOL0     H22529  11.008   9.411   4.676  0.8811  1.5659 -0.5676
  908MOL0     H22530  10.997   9.272   4.557  0.1797 -0.0080  0.5598
  908MOL0     H22531  10.937   9.035   4.610  2.3404  1.0323  0.4366
  908MOL0     H22532  10.649   8.951   4.685  0.4090 -3.9987 -0.5825
  908MOL0     H22533  10.798   8.866   4.730  0.1596 -0.0976  0.2229
  908MOL0     H22534  10.732   8.901   4.987 -2.1138  1.6621  1.6441
  908MOL0     H22535  10.593   8.986   4.932 -0.7566 -0.0809 -1.6561
  908MOL0     H22536  10.626   8.706   4.850 -1.1942  0.4911 -2.8111
  908MOL0     H22537  10.476   8.796   4.848 -0.1793  3.1182  1.1537
  908MOL0     H22538  10.636   8.731   5.108 -1.1059 -0.1246  0.8338
  908MOL0     H22539  10.477   8.666   5.066 -0.4982  0.3727  0.3947
  908MOL0     H22540  10.343   8.660   5.223  1.0092 -0.4931 -0.1233
  908MOL0     H22541  10.149   8.672   5.369  0.4711 -1.5658 -2.6564
  908MOL0     H22542   9.957   9.228   5.621  1.1145 -2.2393 -2.3996
  908MOL0     H22543   9.775   9.296   5.790  0.1106 -0.3780  0.3538
  908MOL0     H22544   9.607   9.016   5.965  1.1182 -0.4000 -3.8320
  908MOL0     H22545   9.645   9.179   6.009 -1.8482  1.0364  0.0062
  908MOL0     H22546   9.367   9.055   6.004  0.1713 -0.0518 -0.0066
  908MOL0     H22547   9.463   9.079   6.145  0.4661  0.0158 -1.2101
  908MOL0     H22548   9.426   9.316   6.156 -1.5013 -0.4682  0.0238
  908MOL0     H22549   9.374   9.328   5.989 -1.8758  0.9668  0.4174
  908MOL0     H22550   9.191   9.345   6.167 -1.4640  0.0823 -1.9782
  908MOL0     H22551   9.229   9.180   6.217  1.7841 -2.4168 -1.7398
  908MOL0     H22552   9.148   9.164   5.930  0.8124  0.0138 -0.5232
  908MOL0     H22553   9.097   9.325   5.979 -1.4702  1.3141  2.4452
  908MOL0     H22554   8.997   9.091   6.144  1.3377 -3.6915 -3.3777
  908MOL0     H22555   8.920   9.247   6.112 -1.1756 -0.5619 -0.1738
  908MOL0     H22556   8.943   9.062   5.883  1.6880  2.2915  0.8252
  908MOL0     H22557   8.842   9.199   5.911 -3.4386 -1.5665  0.0060
  908MOL0     H22558   8.776   8.930   6.036  0.3553  0.7005  1.0765
  908MOL0     H22559   8.738   9.074   6.120 -1.7498 -2.4822  0.7524
  908MOL0     H22560   9.556   8.951   5.676  0.4474 -1.9270 -1.5396
  908MOL0     H22561   9.732   8.863   5.547  1.5097 -0.9712  1.7093
  908MOL0     H22562  10.189   9.103   5.362 -0.0715  1.8746 -3.5931
  908MOL0     H22563  10.354   9.091   5.200 -2.3136  1.6920  0.5662
  908MOL0     H22564  11.403   9.641   4.956 -4.0445 -1.6200  0.7387
  908MOL0     H22565  11.215   9.670   5.118  0.2613 -0.5424  1.2135
  908MOL0     H22566  11.042   9.688   5.561 -0.5631  0.2185  1.5875
  908MOL0     H22567  10.833   9.725   5.652  1.4954 -0.1192 -0.7718
  908MOL0     H22568  10.619   9.987   5.426  1.2969  0.3251 -0.1669
  908MOL0     H22569  10.607  10.112   5.557  1.2564 -0.5629  1.4539
  908MOL0     H22570  10.393  10.065   5.495 -1.6526 -1.5894  0.2311
  908MOL0     H22571  10.411   9.985   5.650 -1.4732 -2.1210 -0.0198
  908MOL0     H22572  10.447   9.784   5.529  0.7969  0.3286 -1.9732
  908MOL0     H22573  10.417   9.847   5.377 -2.7704  1.0333 -1.3701
  908MOL0     H22574  10.172   9.897   5.446 -0.8423 -1.9054 -2.4853
  908MOL0     H22575  10.226   9.723   5.441  0.4613  1.2311 -1.6564
  908MOL0     H22576  10.097   9.765   5.838 -0.3742  0.4992 -0.2075
  908MOL0     H22577  10.822  10.123   5.491 -2.0721 -0.7000 -1.2816
  908MOL0     H22578  11.112  10.192   5.423  0.6509 -1.0496  1.3895
  908MOL0     H22579  11.095  10.108   5.265  1.5324  1.1119  0.7078
  908MOL0     H22580  10.958  10.195   5.340 -0.5513 -1.6386 -2.6424
  909MOL0     O22581   8.913   8.660   8.073 -0.4038  0.2360  0.9646
  909MOL0     C22582   8.855   8.664   7.961  1.0918 -0.0464  0.0637
  909MOL0     O22583   8.900   8.607   7.848  0.7060  0.0080  0.4324
  909MOL0     C22584   9.031   8.570   7.843 -0.2413  0.3033  0.4202
  909MOL0     C22585   9.134   8.655   7.867 -0.4171 -0.2456 -1.0381
  909MOL0     C22586   9.265   8.620   7.818 -0.1507 -0.4932  0.5620
  909MOL0     C22587   9.287   8.503   7.740  0.8837  0.1305  0.1326
  909MOL0     O22588   9.414   8.480   7.697 -0.1677 -0.5217  0.9698
  909MOL0     C22589   9.439   8.388   7.586  0.8134  0.2334  0.0116
  909MOL0     C22590   9.418   8.449   7.448 -0.2421  0.2145  0.2219
  909MOL0     C22591   9.460   8.357   7.340  0.6155  0.0784  0.5435
  909MOL0     C22592   9.489   8.426   7.201  0.4885  0.1846  0.0655
  909MOL0     C22593   9.542   8.313   7.105  0.4925  1.1326 -0.0889
  909MOL0     C22594   9.582   8.374   6.972  0.0511 -0.1075  0.8371
  909MOL0     C22595   9.666   8.271   6.886  0.1597  0.2720  0.6483
  909MOL0     C22596   9.703   8.323   6.745  0.8596 -0.0087 -0.5206
  909MOL0     N22597   9.837   8.283   6.719  0.0547  0.0152  0.1661
  909MOL0     C22598   9.949   8.349   6.759 -0.8675  0.1067 -0.0650
  909MOL0     C22599  10.055   8.279   6.713  0.2423  0.0334 -0.3577
  909MOL0     C22600  10.201   8.314   6.724  0.2030 -0.8895  0.4437
  909MOL0     C22601  10.240   8.436   6.640 -0.1076 -0.6480  0.6315
  909MOL0     C22602  10.392   8.476   6.668  0.3141  0.6152 -0.0096
  909MOL0     C22603  10.490   8.389   6.593 -0.4377  0.5283 -0.1254
  909MOL0     O22604  10.629   8.427   6.626  0.1609 -0.5279  0.1745
  909MOL0     C22605  10.737   8.359   6.568 -0.3615  0.1959  0.0913
  909MOL0     C22606  10.863   8.397   6.613  0.7275 -0.4536  0.5056
  909MOL0     C22607  10.974   8.327   6.568 -0.0317  0.5905 -0.3352
  909MOL0     C22608  10.959   8.221   6.474  0.9393  0.5724  0.4933
  909MOL0     C22609  11.089   8.165   6.430 -0.6788  0.5372  0.1505
  909MOL0     O22610  11.087   8.037   6.372  0.3665  0.4473 -0.4027
  909MOL0     C22611  11.202   7.977   6.320  0.4599 -1.0882 -0.0294
  909MOL0     C22612  11.343   8.016   6.315 -0.3589  0.4002 -0.0938
  909MOL0     C22613  11.445   7.938   6.255 -0.4999 -0.5858  0.3054
  909MOL0     C22614  11.408   7.821   6.189 -0.6792 -0.5202 -0.3141
  909MOL0     O22615  11.512   7.748   6.131  0.8647 -0.7513  0.3335
  909MOL0     C22616  11.596   7.690   6.232 -0.0964 -0.3634 -0.4405
  909MOL0     C22617  11.723   7.687   6.173  0.1473 -0.1442 -0.4606
  909MOL0     C22618  11.822   7.623   6.272 -0.6776  1.0587  0.3061
  909MOL0     C22619  11.963   7.627   6.224 -0.0513 -0.4456  0.8683
  909MOL0     C22620  12.053   7.526   6.303  0.0989  0.0719 -0.0728
  909MOL0     C22621  12.197   7.541   6.238  0.0859  0.4171  0.1843
  909MOL0     C22622  12.302   7.488   6.341  0.5913  0.8131 -0.7825
  909MOL0     C22623  12.359   7.348   6.318  0.2652 -0.4695  0.5553
  909MOL0    Cl22624  12.222   7.242   6.307 -0.0723 -0.2412  0.0954
  909MOL0     C22625  11.274   7.779   6.187 -0.6117 -0.4333  0.7497
  909MOL0     C22626  11.175   7.855   6.250  0.1466  1.0741  0.1444
  909MOL0     O22627  11.195   8.227   6.442 -0.0968  0.3703 -0.8980
  909MOL0     C22628  10.832   8.175   6.442  0.7669  0.1417  0.7185
  909MOL0     C22629  10.723   8.237   6.499  0.3073 -0.3875 -0.1995
  909MOL0     N22630  10.001   8.173   6.646  0.0577  0.5461 -0.7182
  909MOL0     N22631   9.873   8.182   6.647 -0.0529  0.4298  0.0256
  909MOL0     C22632   9.183   8.418   7.718 -0.0928  0.6434 -0.2167
  909MOL0     C22633   9.059   8.446   7.779  0.8415  0.5929  0.0925
  909MOL0     C22634   8.719   8.722   7.957 -0.1578  0.6292 -0.2530
  909MOL0     C22635   8.698   8.836   8.042  1.3126  1.3303 -0.3296
  909MOL0     C22636   8.586   8.917   8.030 -0.7741  0.4777  0.0459
  909MOL0     C22637   8.490   8.886   7.936 -0.2903 -0.6045 -0.1885
  909MOL0     O22638   8.384   8.966   7.933 -0.6970 -0.1758  0.2333
  909MOL0     C22639   8.282   8.941   8.029  0.6141 -0.3653 -0.6973
  909MOL0     C22640   8.189   9.058   8.031  0.1699 -0.2007 -0.3402
  909MOL0     C22641   8.047   9.037   8.080  0.4976  0.4879 -0.7836
  909MOL0     C22642   7.967   8.945   7.982  0.1445  0.1498 -0.0477
  909MOL0     C22643   7.834   8.944   8.040  0.3173 -0.5545 -0.2781
  909MOL0     C22644   7.729   8.939   8.102 -0.5724 -0.1205 -0.6367
  909MOL0     C22645   8.510   8.773   7.849 -0.1061  0.2248 -0.2762
  909MOL0     C22646   8.628   8.688   7.864  0.3472 -0.6707  0.3678
  909MOL0     C22647   8.634   8.567   7.774  0.1041 -0.0537 -0.0802
  909MOL0     H22648   9.121   8.747   7.923  2.9846 -0.9530  1.2463
  909MOL0     H22649   9.355   8.676   7.842  0.8895 -2.5989  1.9378
  909MOL0     H22650   9.546   8.364   7.591  0.8413 -0.6173 -2.8628
  909MOL0     H22651   9.389   8.292   7.598 -1.7839  1.1180 -2.5521
  909MOL0     H22652   9.460   8.549   7.431 -1.4973  0.2922 -3.3051
  909MOL0     H22653   9.310   8.459   7.431 -0.6178 -2.1454  0.8536
  909MOL0     H22654   9.375   8.291   7.317 -0.6594  1.7211  0.3795
  909MOL0     H22655   9.547   8.296   7.367  1.0828  0.2436 -0.5348
  909MOL0     H22656   9.401   8.466   7.151 -0.1316 -0.5243  0.5675
  909MOL0     H22657   9.557   8.510   7.217  0.6528  0.2257 -0.8041
  909MOL0     H22658   9.624   8.252   7.141  0.1734  0.5899 -0.2735
  909MOL0     H22659   9.470   8.233   7.086  5.1106 -3.2110 -1.3586
  909MOL0     H22660   9.503   8.423   6.914  0.2946 -1.3938 -0.6370
  909MOL0     H22661   9.652   8.453   7.000 -0.5862  1.8348 -2.4817
  909MOL0     H22662   9.603   8.182   6.879 -1.1320  0.8622  3.3757
  909MOL0     H22663   9.757   8.231   6.930  0.2757 -0.2080 -0.0261
  909MOL0     H22664   9.636   8.265   6.681 -1.0113 -0.8167  2.0264
  909MOL0     H22665   9.672   8.427   6.737  0.7760 -0.0936 -1.5367
  909MOL0     H22666   9.964   8.446   6.804  2.7020  0.8720 -2.5002
  909MOL0     H22667  10.220   8.340   6.828 -0.1959  0.8258  0.1243
  909MOL0     H22668  10.263   8.225   6.710  1.2385  0.0401 -1.2148
  909MOL0     H22669  10.217   8.413   6.535 -3.0411 -1.3338  1.3369
  909MOL0     H22670  10.173   8.518   6.667 -0.7655 -1.1930  0.6934
  909MOL0     H22671  10.412   8.482   6.775  0.1656 -0.2368  0.0757
  909MOL0     H22672  10.397   8.579   6.631 -0.9283  0.5069 -0.5493
  909MOL0     H22673  10.461   8.389   6.487  2.5239 -0.0022 -1.0134
  909MOL0     H22674  10.480   8.284   6.622  0.9090  0.5030  0.2797
  909MOL0     H22675  10.877   8.476   6.686 -0.3848  1.2015 -0.9680
  909MOL0     H22676  11.074   8.349   6.605  1.0628 -4.3028  0.3417
  909MOL0     H22677  11.389   8.101   6.365  0.6116  1.0145 -1.9549
  909MOL0     H22678  11.548   7.967   6.271 -0.3322 -1.3020  0.5651
  909MOL0     H22679  11.589   7.743   6.327  1.4852 -3.1574  1.3865
  909MOL0     H22680  11.572   7.584   6.243  1.4746 -0.4735  3.4421
  909MOL0     H22681  11.729   7.637   6.077 -2.1778  0.2919 -0.8959
  909MOL0     H22682  11.752   7.790   6.151 -0.3963 -0.0905 -0.9641
  909MOL0     H22683  11.805   7.658   6.374 -2.7957  2.6067 -0.5083
  909MOL0     H22684  11.797   7.517   6.270  0.2636  0.8189  0.5748
  909MOL0     H22685  12.001   7.729   6.225 -0.1691 -0.4055  1.6867
  909MOL0     H22686  11.965   7.606   6.116  2.2146  1.7228  0.3979
  909MOL0     H22687  12.025   7.421   6.293  1.6232 -0.1614 -3.1767
  909MOL0     H22688  12.053   7.554   6.408  0.3621  2.1927 -0.5940
  909MOL0     H22689  12.204   7.486   6.144  0.2970  0.3812  0.2197
  909MOL0     H22690  12.223   7.646   6.220  0.9453  0.2573  0.4700
  909MOL0     H22691  12.267   7.506   6.443 -1.7234 -2.2203 -0.9213
  909MOL0     H22692  12.381   7.563   6.329 -1.2352  3.6404  2.9164
  909MOL0     H22693  12.426   7.343   6.233  1.9322  2.6002  1.5178
  909MOL0     H22694  12.428   7.318   6.397  0.6142 -3.0564 -0.6454
  909MOL0     H22695  11.232   7.687   6.147 -2.0426  1.0487 -1.3607
  909MOL0     H22696  11.078   7.808   6.242 -1.0842  3.7644 -3.6363
  909MOL0     H22697  10.829   8.096   6.368 -0.4072  1.3547 -0.6095
  909MOL0     H22698  10.623   8.201   6.473 -0.5709  1.5753  0.2720
  909MOL0     H22699   9.197   8.325   7.663 -0.0199  0.3217  0.3393
  909MOL0     H22700   8.979   8.373   7.775  2.0262 -0.9144  2.1450
  909MOL0     H22701   8.771   8.873   8.113  0.7613 -0.5983  1.3304
  909MOL0     H22702   8.573   9.013   8.078  0.3892  1.2267 -1.0654
  909MOL0     H22703   8.328   8.923   8.127 -1.7864 -0.0397  0.5489
  909MOL0     H22704   8.232   8.846   8.009 -0.1173 -0.5313  1.6324
  909MOL0     H22705   8.176   9.110   7.936 -0.3223  1.6059  0.6783
  909MOL0     H22706   8.235   9.126   8.102 -0.6882 -1.0633  1.1084
  909MOL0     H22707   7.989   9.129   8.096 -0.1379 -0.0509  0.1379
  909MOL0     H22708   8.065   8.981   8.173 -0.6556 -0.9012 -1.3543
  909MOL0     H22709   7.967   8.988   7.881 -0.8044 -0.7123 -0.4325
  909MOL0     H22710   8.007   8.844   7.973 -0.8990 -0.3698  0.9011
  909MOL0     H22711   7.641   8.929   8.162 -1.8543  0.1262 -2.4105
  909MOL0     H22712   8.430   8.751   7.780  1.2276  2.2296 -2.6436
  909MOL0     H22713   8.647   8.470   7.823  1.5665 -1.1292 -2.4054
  909MOL0     H22714   8.538   8.548   7.725 -0.2532  0.7739  0.2769
  909MOL0     H22715   8.711   8.574   7.696 -0.8136 -1.4563 -1.1662
  910MOL0     O22716  10.243   5.499   7.045 -0.2925  0.4348  0.3595
  910MOL0     C22717  10.129   5.486   6.993 -0.0444 -0.4851 -0.2874
  910MOL0     O22718  10.099   5.522   6.867  0.2928 -0.3579  0.1060
  910MOL0     C22719  10.204   5.553   6.788 -0.0992  0.2784  1.2612
  910MOL0     C22720  10.268   5.675   6.796 -0.4848 -0.3340 -0.5071
  910MOL0     C22721  10.388   5.703   6.726 -0.5980 -0.0424 -0.1889
  910MOL0     C22722  10.454   5.597   6.645 -0.2711 -0.1529 -1.1133
  910MOL0     O22723  10.569   5.614   6.571 -0.6984  0.3004  0.5217
  910MOL0     C22724  10.632   5.738   6.582 -0.6729  0.6245  0.5929
  910MOL0     C22725  10.759   5.725   6.497 -0.1032 -0.5581 -0.5518
  910MOL0     C22726  10.843   5.854   6.489 -0.5851 -0.3173  0.0105
  910MOL0     C22727  10.976   5.822   6.412  0.2749 -1.3418 -0.6693
  910MOL0     C22728  11.034   5.973   6.404 -1.0881  0.5549  0.7865
  910MOL0     C22729  11.174   5.971   6.344 -0.0892  0.2682 -0.7644
  910MOL0     C22730  11.211   6.116   6.305  0.0136  0.4214  0.4650
  910MOL0     C22731  11.312   6.098   6.188  0.6903  0.1888 -0.6921
  910MOL0     N22732  11.337   6.228   6.122  0.7631  0.3742 -0.1051
  910MOL0     C22733  11.337   6.352   6.177 -0.2401  0.6662 -0.8141
  910MOL0     C22734  11.418   6.419   6.088 -0.6022 -0.6099  0.1804
  910MOL0     C22735  11.446   6.566   6.095  0.1373 -0.3860  0.1247
  910MOL0     C22736  11.314   6.662   6.089  1.3880 -0.3497 -0.2260
  910MOL0     C22737  11.359   6.808   6.129  0.0933  0.2259  0.1686
  910MOL0     C22738  11.405   6.905   6.019  0.7868 -0.0138  0.0743
  910MOL0     O22739  11.536   6.867   5.973  0.4703 -0.5766  0.5982
  910MOL0     C22740  11.599   6.931   5.862  0.0778  0.2509 -0.4601
  910MOL0     C22741  11.700   6.853   5.801 -0.8649 -0.5451  0.5250
  910MOL0     C22742  11.770   6.906   5.693  0.2222 -0.4692  0.2757
  910MOL0     C22743  11.742   7.032   5.640 -0.4883 -0.9071 -0.4722
  910MOL0     C22744  11.818   7.086   5.522 -0.5271  0.1203  0.0534
  910MOL0     O22745  11.799   7.219   5.473  0.5574 -0.2231 -0.7244
  910MOL0     C22746  11.848   7.250   5.356 -0.4602 -0.0603 -0.5094
  910MOL0     C22747  11.984   7.285   5.346 -0.4748 -1.0586  0.3142
  910MOL0     C22748  12.039   7.307   5.217  1.1895  0.7929 -0.8638
  910MOL0     C22749  11.965   7.279   5.098  0.4263  0.3772 -0.5467
  910MOL0     O22750  12.004   7.327   4.975 -0.0633 -0.5308  0.2609
  910MOL0     C22751  12.077   7.443   4.958 -0.0650 -0.9694 -0.3191
  910MOL0     C22752  12.108   7.455   4.809 -0.5058 -0.3722  0.4333
  910MOL0     C22753  11.989   7.438   4.707  0.3777 -0.2207 -0.8291
  910MOL0     C22754  12.041   7.459   4.563  0.0517 -0.1370  0.6876
  910MOL0     C22755  11.923   7.482   4.473  0.1519 -0.7656 -0.2660
  910MOL0     C22756  11.968   7.515   4.332 -0.6483  0.2363 -0.0083
  910MOL0     C22757  11.863   7.569   4.233  0.0395 -0.1634 -0.7138
  910MOL0     C22758  11.743   7.478   4.199  0.3672 -0.0469  0.7195
  910MOL0    Cl22759  11.628   7.469   4.338  0.0057  0.0440  0.4419
  910MOL0     C22760  11.835   7.220   5.111 -0.7634 -0.7608 -0.3556
  910MOL0     C22761  11.784   7.206   5.243  0.0406 -0.1775  1.3483
  910MOL0     O22762  11.895   7.007   5.475 -0.0651 -0.7002  0.5013
  910MOL0     C22763  11.635   7.108   5.701 -0.2394 -0.0375  1.0622
  910MOL0     C22764  11.575   7.062   5.824  0.5910 -0.6753  0.4392
  910MOL0     N22765  11.463   6.335   5.992 -0.1901  0.6404  0.3884
  910MOL0     N22766  11.417   6.222   6.019 -0.2994 -0.4836 -0.2020
  910MOL0     C22767  10.385   5.477   6.648 -0.3651  0.9657 -0.7113
  910MOL0     C22768  10.265   5.446   6.724 -0.0643  0.3630 -0.1685
  910MOL0     C22769  10.018   5.451   7.077 -0.1463 -0.3887 -0.3680
  910MOL0     C22770   9.903   5.410   7.015 -0.0356 -0.9044 -0.6828
  910MOL0     C22771   9.791   5.376   7.094  0.4245 -0.0571  0.9617
  910MOL0     C22772   9.771   5.415   7.229  0.1648 -0.3950  0.5587
  910MOL0     O22773   9.651   5.406   7.280  0.5102  0.5107  0.9157
  910MOL0     C22774   9.639   5.336   7.404 -0.3651  0.1280  0.3395
  910MOL0     C22775   9.497   5.300   7.439  0.0008 -0.3842  0.4387
  910MOL0     C22776   9.398   5.405   7.388  0.0597  0.2441  0.4207
  910MOL0     C22777   9.252   5.376   7.424  0.9001 -0.1010 -0.4230
  910MOL0     C22778   9.199   5.246   7.381 -0.7863  0.5422  0.7154
  910MOL0     C22779   9.150   5.141   7.356  0.4509  0.3241 -0.1515
  910MOL0     C22780   9.883   5.462   7.288 -0.6794 -0.3545  0.3157
  910MOL0     C22781  10.009   5.474   7.218 -0.4500  0.3343  0.6794
  910MOL0     C22782  10.138   5.508   7.309 -0.3444  0.3986  1.4741
  910MOL0     H22783  10.205   5.750   6.842  0.1891 -0.7456  1.1654
  910MOL0     H22784  10.441   5.797   6.734  1.0935 -0.9738 -0.0036
  910MOL0     H22785  10.568   5.816   6.540  0.9223  1.6774  0.0082
  910MOL0     H22786  10.666   5.760   6.684  0.3806 -0.4877  0.5063
  910MOL0     H22787  10.737   5.688   6.396 -0.1965 -1.6577 -0.1389
  910MOL0     H22788  10.806   5.642   6.552  0.0537  0.2221  0.5194
  910MOL0     H22789  10.873   5.892   6.587  3.0524  0.3794 -1.1969
  910MOL0     H22790  10.784   5.929   6.435  1.1084  1.8081  0.9690
  910MOL0     H22791  11.041   5.756   6.470 -0.2056 -0.9599  0.3209
  910MOL0     H22792  10.958   5.785   6.310 -1.5333  1.4147 -1.4552
  910MOL0     H22793  10.967   6.033   6.341 -2.4432 -1.0807  0.5833
  910MOL0     H22794  11.044   6.019   6.502  0.8981 -1.4049  1.5810
  910MOL0     H22795  11.240   5.939   6.425 -1.0083  0.9747  0.2779
  910MOL0     H22796  11.176   5.909   6.253 -0.2710 -0.6450 -0.1638
  910MOL0     H22797  11.264   6.176   6.379 -0.3652  1.2440  0.0801
  910MOL0     H22798  11.127   6.170   6.259 -2.7198 -0.4622  3.9647
  910MOL0     H22799  11.401   6.052   6.231 -0.9639  0.1748  3.1334
  910MOL0     H22800  11.275   6.024   6.117  0.4489  1.1628 -1.6057
  910MOL0     H22801  11.276   6.383   6.262 -3.8545  0.4655 -3.0984
  910MOL0     H22802  11.506   6.589   6.184  2.0228  1.1171 -1.4242
  910MOL0     H22803  11.510   6.584   6.008 -0.6084  1.2623 -0.1036
  910MOL0     H22804  11.275   6.673   5.987  2.6626 -0.0048 -0.6947
  910MOL0     H22805  11.237   6.626   6.158  2.2029 -0.1030  0.8433
  910MOL0     H22806  11.442   6.798   6.200  0.8507  0.1372 -0.7057
  910MOL0     H22807  11.274   6.851   6.182  1.3528  0.1497  2.3734
  910MOL0     H22808  11.391   6.999   6.072 -1.2476 -1.0418  1.4708
  910MOL0     H22809  11.338   6.886   5.934  0.3440  1.1926  0.1461
  910MOL0     H22810  11.729   6.752   5.829  0.2997  0.4236  3.1195
  910MOL0     H22811  11.844   6.845   5.641  0.4642 -1.6028  1.8650
  910MOL0     H22812  12.031   7.302   5.443  2.1184  3.7348 -1.4445
  910MOL0     H22813  12.139   7.349   5.211  2.2189 -1.5265 -1.2554
  910MOL0     H22814  12.021   7.532   4.989  1.1017  0.3652 -1.8691
  910MOL0     H22815  12.170   7.449   5.015  0.4889  0.0015 -1.2780
  910MOL0     H22816  12.149   7.557   4.811 -2.6789  0.5571  2.2564
  910MOL0     H22817  12.179   7.379   4.775  3.1222  0.7325  4.6335
  910MOL0     H22818  11.939   7.341   4.715  0.1219 -0.3566 -3.3263
  910MOL0     H22819  11.919   7.517   4.734  0.9438 -0.4607  1.6140
  910MOL0     H22820  12.093   7.366   4.537 -0.1913 -0.7281  2.2624
  910MOL0     H22821  12.112   7.541   4.553 -0.2227 -0.0423 -0.7442
  910MOL0     H22822  11.865   7.572   4.498  0.8656  0.4124 -2.5660
  910MOL0     H22823  11.864   7.391   4.470  0.1514 -0.7701 -0.1335
  910MOL0     H22824  12.037   7.599   4.328 -0.3842  0.0052 -3.9587
  910MOL0     H22825  12.027   7.428   4.302 -1.8551 -0.8023  0.5100
  910MOL0     H22826  11.912   7.603   4.141  2.4972  2.4589  1.3778
  910MOL0     H22827  11.817   7.659   4.276  0.5143 -0.7570  1.1410
  910MOL0     H22828  11.698   7.529   4.114 -0.3494  2.1586  2.3411
  910MOL0     H22829  11.767   7.379   4.159 -4.5107 -1.0025 -0.4544
  910MOL0     H22830  11.762   7.203   5.033 -2.4533  0.6503  0.8431
  910MOL0     H22831  11.681   7.173   5.252  0.2762 -0.8758  1.5231
  910MOL0     H22832  11.613   7.204   5.655  0.0642 -0.8633 -0.9160
  910MOL0     H22833  11.500   7.123   5.873 -0.5064 -1.3446 -0.3570
  910MOL0     H22834  10.418   5.393   6.589  0.4063 -0.1710  1.2244
  910MOL0     H22835  10.223   5.346   6.723  1.7821 -0.5201 -3.7415
  910MOL0     H22836   9.897   5.382   6.910 -1.1323  0.4836 -1.0261
  910MOL0     H22837   9.709   5.343   7.031  0.5902  0.6073  0.3793
  910MOL0     H22838   9.667   5.407   7.482 -1.8702 -0.8675  1.8651
  910MOL0     H22839   9.707   5.251   7.414  1.6023  1.7330  1.2538
  910MOL0     H22840   9.487   5.301   7.548  0.7363  2.3153  0.5607
  910MOL0     H22841   9.488   5.201   7.394 -1.5469  0.8461 -2.2436
  910MOL0     H22842   9.410   5.411   7.279 -0.6624 -0.5852  0.2859
  910MOL0     H22843   9.421   5.506   7.421  0.6977  1.6628 -3.7017
  910MOL0     H22844   9.247   5.360   7.532 -2.3727 -2.1639 -0.7362
  910MOL0     H22845   9.178   5.448   7.386 -1.0802 -2.3781 -1.1509
  910MOL0     H22846   9.095   5.053   7.332 -0.3721  0.2511  1.8632
  910MOL0     H22847   9.873   5.480   7.394  0.3624  0.5116  0.2835
  910MOL0     H22848  10.191   5.592   7.263  1.8566 -3.1099 -3.2130
  910MOL0     H22849  10.108   5.522   7.414 -0.3896  1.9459  1.2753
  910MOL0     H22850  10.204   5.422   7.295  0.5862  1.5282 -1.7738
  911MOL0     O22851   5.497   5.827   1.764 -0.1737  0.2058 -0.5132
  911MOL0     C22852   5.403   5.754   1.755  0.1093 -0.3143  0.6297
  911MOL0     O22853   5.396   5.621   1.779 -0.0225 -0.2071 -0.7050
  911MOL0     C22854   5.500   5.548   1.841  0.1583  0.8838  0.7315
  911MOL0     C22855   5.481   5.407   1.851  0.0307 -0.5766 -0.3221
  911MOL0     C22856   5.586   5.312   1.896 -0.2145  0.0594  0.1053
  911MOL0     C22857   5.710   5.366   1.932 -0.6683  1.1916  0.3802
  911MOL0     O22858   5.815   5.294   1.981 -0.4582  0.3947  1.0770
  911MOL0     C22859   5.795   5.146   1.994 -0.1198 -0.9025 -0.1810
  911MOL0     C22860   5.909   5.083   2.065 -0.9412  0.8944  0.4185
  911MOL0     C22861   6.008   5.029   1.954 -0.8745  0.2936  0.5509
  911MOL0     C22862   6.115   4.939   2.016  0.0446 -0.1237 -0.4765
  911MOL0     C22863   6.249   4.964   1.942  0.4393 -0.3438 -0.1780
  911MOL0     C22864   6.365   4.866   1.975  0.1733 -0.5018  0.4505
  911MOL0     C22865   6.504   4.949   1.988  0.1201  0.1955 -0.3124
  911MOL0     C22866   6.613   4.853   2.055  0.0205 -0.3464 -0.4253
  911MOL0     N22867   6.718   4.925   2.126 -0.0385 -0.8555 -0.3626
  911MOL0     C22868   6.828   4.982   2.071 -0.8844  0.7652  0.7221
  911MOL0     C22869   6.878   5.036   2.177  0.1863 -0.6764  0.1163
  911MOL0     C22870   6.996   5.124   2.192 -0.4602  0.3510  0.7959
  911MOL0     C22871   7.055   5.178   2.060 -0.0925  0.4823 -0.1232
  911MOL0     C22872   6.996   5.311   2.013  0.7053  0.2279 -0.1310
  911MOL0     C22873   7.049   5.357   1.879  0.6761  0.7623  0.5099
  911MOL0     O22874   7.187   5.365   1.903 -1.0386 -0.0265 -0.3543
  911MOL0     C22875   7.273   5.422   1.819 -0.4464 -0.5176  0.1097
  911MOL0     C22876   7.409   5.416   1.840 -0.6639  0.0936  0.1345
  911MOL0     C22877   7.505   5.492   1.765  0.2034 -0.0035 -0.0961
  911MOL0     C22878   7.455   5.578   1.663  0.4135  0.8796 -0.7512
  911MOL0     C22879   7.551   5.671   1.595  1.2133  0.2382 -0.0331
  911MOL0     O22880   7.663   5.709   1.673 -0.0031 -0.0073  0.6731
  911MOL0     C22881   7.739   5.813   1.633 -0.6363 -0.0794 -0.4897
  911MOL0     C22882   7.790   5.905   1.724  0.1234  0.2961 -0.2426
  911MOL0     C22883   7.870   6.012   1.677  0.5599  0.0521 -0.5084
  911MOL0     C22884   7.911   6.014   1.545 -0.2831  0.5722  0.3885
  911MOL0     O22885   7.999   6.106   1.506  0.5859 -0.1135 -0.5405
  911MOL0     C22886   8.026   6.138   1.363  0.3635  0.8300  0.7649
  911MOL0     C22887   7.907   6.208   1.290  0.0009 -0.7353 -0.0030
  911MOL0     C22888   7.840   6.325   1.371  0.1123  0.3049  0.1915
  911MOL0     C22889   7.864   6.459   1.301 -0.2487 -0.3745  0.6275
  911MOL0     C22890   7.824   6.565   1.414  0.3749 -0.2803 -0.4041
  911MOL0     C22891   7.820   6.704   1.355  0.3687  0.2053  1.3062
  911MOL0     C22892   7.949   6.764   1.305  0.9720  0.6253 -0.3856
  911MOL0     C22893   7.940   6.918   1.281  1.0527 -0.2604  0.0756
  911MOL0    Cl22894   7.899   7.015   1.418 -0.0315 -0.2920  0.5839
  911MOL0     C22895   7.866   5.914   1.459  0.5464 -0.1005  0.1106
  911MOL0     C22896   7.782   5.816   1.502 -0.4163 -0.2847  0.4261
  911MOL0     O22897   7.527   5.707   1.479  0.3811  0.2039 -0.2537
  911MOL0     C22898   7.317   5.583   1.634 -1.0750  0.3898  0.0662
  911MOL0     C22899   7.228   5.503   1.709  0.0767 -0.0478 -0.5139
  911MOL0     N22900   6.805   5.013   2.295  0.0045  0.4419  0.5465
  911MOL0     N22901   6.709   4.940   2.258  0.0741 -0.2959 -0.2442
  911MOL0     C22902   5.727   5.503   1.933  0.9227 -0.4553 -0.0612
  911MOL0     C22903   5.627   5.595   1.887 -1.1846 -0.1967  0.2658
  911MOL0     C22904   5.281   5.824   1.693  0.2443 -0.0920  0.1921
  911MOL0     C22905   5.157   5.753   1.680  0.2509 -0.1785 -0.1784
  911MOL0     C22906   5.046   5.816   1.616  0.9274 -0.8821 -0.7560
  911MOL0     C22907   5.056   5.944   1.568 -0.5137  0.0300  0.3497
  911MOL0     O22908   4.943   5.991   1.508  0.0488 -0.1731  0.6572
  911MOL0     C22909   4.943   6.131   1.457  0.1383  0.9935 -0.1818
  911MOL0     C22910   5.019   6.151   1.320  0.5105 -0.2886  0.7016
  911MOL0     C22911   5.005   6.290   1.267 -0.0362  0.0762 -0.7094
  911MOL0     C22912   5.050   6.292   1.123  0.3316  0.7443 -0.1559
  911MOL0     C22913   5.044   6.422   1.063 -0.5919 -1.3209 -0.1273
  911MOL0     C22914   5.037   6.535   1.017  0.4740  0.8431 -0.4358
  911MOL0     C22915   5.176   6.011   1.586  0.3775 -0.4678  0.7984
  911MOL0     C22916   5.292   5.956   1.643 -0.2496 -0.1700  1.0149
  911MOL0     C22917   5.418   6.047   1.637 -0.1542 -0.0842  0.2571
  911MOL0     H22918   5.387   5.377   1.806 -3.0101  2.1556  3.5604
  911MOL0     H22919   5.570   5.205   1.888 -3.1335  0.5188 -1.6434
  911MOL0     H22920   5.708   5.143   2.061 -0.2509  1.5870 -0.1290
  911MOL0     H22921   5.769   5.098   1.900  1.4871 -1.9827 -0.1072
  911MOL0     H22922   5.870   4.998   2.122 -0.8759 -0.4233 -1.4365
  911MOL0     H22923   5.952   5.157   2.133  2.5365 -0.8349  0.2982
  911MOL0     H22924   6.054   5.116   1.907 -1.0407  0.1141  0.0417
  911MOL0     H22925   5.956   4.971   1.877 -0.1617  1.7126 -1.0796
  911MOL0     H22926   6.139   4.955   2.122 -1.1556  1.0031 -0.3572
  911MOL0     H22927   6.079   4.836   2.022 -0.5543  0.1385  1.3893
  911MOL0     H22928   6.235   4.975   1.834 -2.1300 -1.7613 -0.0438
  911MOL0     H22929   6.275   5.068   1.963 -0.1870 -0.0969 -0.6053
  911MOL0     H22930   6.337   4.813   2.066  0.5726 -0.6018  0.5177
  911MOL0     H22931   6.379   4.788   1.899 -2.8503  0.2467 -1.0218
  911MOL0     H22932   6.486   5.038   2.049 -1.9322 -1.1140  1.1313
  911MOL0     H22933   6.542   4.976   1.889  0.3441 -0.5288 -0.4266
  911MOL0     H22934   6.573   4.785   2.130  2.1404 -1.0995  0.1048
  911MOL0     H22935   6.660   4.795   1.975 -1.1647 -0.9177 -0.7231
  911MOL0     H22936   6.850   4.981   1.964  0.6453  0.5648  1.0096
  911MOL0     H22937   6.981   5.203   2.266  0.5947 -1.4522  3.1166
  911MOL0     H22938   7.062   5.047   2.235 -0.3020 -0.1691 -0.3434
  911MOL0     H22939   7.161   5.198   2.076  0.1176  0.8198 -1.7771
  911MOL0     H22940   7.038   5.106   1.980  0.4707  1.4708 -1.1739
  911MOL0     H22941   7.015   5.385   2.091 -0.9876 -1.1453  1.6942
  911MOL0     H22942   6.887   5.301   2.011  0.6413  0.7456  0.5202
  911MOL0     H22943   6.999   5.454   1.870 -2.9949 -0.6832  2.9761
  911MOL0     H22944   7.022   5.296   1.792 -0.6413  3.5372 -1.1532
  911MOL0     H22945   7.441   5.348   1.918 -0.4766  0.8894  0.7720
  911MOL0     H22946   7.609   5.479   1.793  0.0657  1.0317  0.9756
  911MOL0     H22947   7.760   5.897   1.828  0.9641  1.1971  0.0881
  911MOL0     H22948   7.906   6.085   1.749 -1.1656  0.2240  0.2249
  911MOL0     H22949   8.120   6.192   1.345  1.6061 -1.2550  0.6702
  911MOL0     H22950   8.035   6.040   1.317 -1.6324  0.7601  0.4521
  911MOL0     H22951   7.934   6.234   1.188 -1.2439  3.2017  0.5100
  911MOL0     H22952   7.826   6.136   1.279  1.8211 -2.7983 -0.5614
  911MOL0     H22953   7.732   6.305   1.376  0.1926 -0.1646  0.0820
  911MOL0     H22954   7.860   6.321   1.478  0.0134  1.1808  0.2500
  911MOL0     H22955   7.787   6.471   1.224  1.0067 -0.1968 -0.6439
  911MOL0     H22956   7.960   6.472   1.251 -1.8407  0.6950 -2.4080
  911MOL0     H22957   7.906   6.564   1.486  0.0757  2.1878  0.0386
  911MOL0     H22958   7.726   6.545   1.458 -1.0658  1.2934 -2.6375
  911MOL0     H22959   7.754   6.713   1.268 -0.4219  2.1014  2.0494
  911MOL0     H22960   7.778   6.775   1.428 -0.9686  1.0491 -0.2189
  911MOL0     H22961   7.975   6.722   1.208  4.3416  1.9955 -0.1979
  911MOL0     H22962   8.029   6.730   1.371 -0.9060 -3.8596 -0.0632
  911MOL0     H22963   8.035   6.954   1.240 -0.1607  0.2113 -2.5261
  911MOL0     H22964   7.863   6.937   1.205  0.5265  2.1851  1.1271
  911MOL0     H22965   7.882   5.918   1.352  3.1558 -1.0561  0.4031
  911MOL0     H22966   7.760   5.738   1.431  1.7112  0.5392 -1.2499
  911MOL0     H22967   7.275   5.631   1.546  0.7244 -0.3612 -1.2729
  911MOL0     H22968   7.124   5.516   1.679  0.5149 -0.0795 -2.1239
  911MOL0     H22969   5.820   5.548   1.968  0.7570 -0.5561  0.5119
  911MOL0     H22970   5.657   5.700   1.887  2.9055 -1.2183  0.2619
  911MOL0     H22971   5.146   5.649   1.711 -0.3305  0.3803  1.5978
  911MOL0     H22972   4.952   5.763   1.620  0.3244  0.1876 -0.5675
  911MOL0     H22973   4.965   6.200   1.539 -1.7404  0.7174  0.6079
  911MOL0     H22974   4.838   6.152   1.435  0.0660  0.2897 -0.5415
  911MOL0     H22975   4.981   6.078   1.248 -1.2194 -0.4886  1.7523
  911MOL0     H22976   5.127   6.143   1.334  1.1927  1.7342 -2.5335
  911MOL0     H22977   5.065   6.349   1.337 -0.7234 -3.6762  3.5770
  911MOL0     H22978   4.900   6.319   1.274  0.3537  1.0820  2.5542
  911MOL0     H22979   5.151   6.252   1.125  0.5810  1.3873  0.7290
  911MOL0     H22980   4.972   6.231   1.075 -2.2425  3.4026  0.3838
  911MOL0     H22981   5.044   6.640   1.000 -0.6600  0.8038 -1.2021
  911MOL0     H22982   5.173   6.115   1.554  2.4039  0.3723  2.9848
  911MOL0     H22983   5.388   6.141   1.590  0.6095  0.6224  1.1515
  911MOL0     H22984   5.455   6.071   1.737 -0.7764 -0.7143  0.6496
  911MOL0     H22985   5.494   5.995   1.578 -2.6379 -2.0835 -1.4096
  912MOL0     O22986   1.812   7.050   2.294 -0.3804 -0.5519  0.1560
  912MOL0     C22987   1.747   7.079   2.197 -0.4399 -0.2598  0.6973
  912MOL0     O22988   1.795   7.118   2.079  0.3191  0.2467  0.1729
  912MOL0     C22989   1.932   7.138   2.061  0.4212  0.4786 -0.0686
  912MOL0     C22990   2.028   7.036   2.068  0.8987 -0.6078 -0.0787
  912MOL0     C22991   2.165   7.069   2.057 -0.1067  0.5467 -0.5777
  912MOL0     C22992   2.195   7.193   2.007  0.1635  0.1581 -0.3015
  912MOL0     O22993   2.333   7.215   1.983 -0.1915  0.1206 -0.1859
  912MOL0     C22994   2.373   7.335   1.902 -0.4587  0.4928 -0.5396
  912MOL0     C22995   2.526   7.349   1.873  0.0032 -0.7293  0.0785
  912MOL0     C22996   2.572   7.209   1.842 -0.0245 -0.0473 -1.3623
  912MOL0     C22997   2.712   7.201   1.787 -0.8337  0.7000 -0.1562
  912MOL0     C22998   2.754   7.053   1.760  0.3583 -0.0993 -0.4174
  912MOL0     C22999   2.844   7.038   1.643 -0.7474 -0.6830 -0.2007
  912MOL0     C23000   2.899   6.894   1.626 -0.0911  0.1188  0.3325
  912MOL0     C23001   3.016   6.857   1.726 -0.0132 -0.7009  0.6781
  912MOL0     N23002   3.145   6.908   1.687  0.1427 -0.2109  0.7306
  912MOL0     C23003   3.252   6.840   1.655 -0.4511 -0.3255  0.1569
  912MOL0     C23004   3.357   6.922   1.646  0.0156  0.2028 -1.5627
  912MOL0     C23005   3.501   6.882   1.623  0.4772 -0.2315 -0.4567
  912MOL0     C23006   3.545   6.945   1.488  0.4480  0.3111  0.0044
  912MOL0     C23007   3.703   6.948   1.473  0.0782  0.4530  0.0567
  912MOL0     C23008   3.775   7.031   1.567  0.5013 -0.0583  0.1058
  912MOL0     O23009   3.807   6.949   1.684  0.1461 -0.0581  0.3774
  912MOL0     C23010   3.898   6.851   1.671 -0.1019  0.3843 -0.6716
  912MOL0     C23011   3.994   6.829   1.570  1.2105  1.2031  0.2985
  912MOL0     C23012   4.075   6.713   1.581  0.3050  0.2537  0.7573
  912MOL0     C23013   4.069   6.629   1.688 -0.0776 -0.3512 -0.2629
  912MOL0     C23014   4.142   6.509   1.677 -0.5918  0.8287 -0.9260
  912MOL0     O23015   4.260   6.511   1.605 -0.2548 -0.3953  0.4268
  912MOL0     C23016   4.346   6.410   1.629 -0.1755  0.6364  0.0354
  912MOL0     C23017   4.437   6.394   1.525  0.2325  1.0418  0.9469
  912MOL0     C23018   4.535   6.295   1.520  0.0608  0.1587 -0.7401
  912MOL0     C23019   4.552   6.212   1.634 -0.4612 -0.3072  0.4334
  912MOL0     O23020   4.653   6.117   1.625  0.0218 -0.2768  0.1137
  912MOL0     C23021   4.653   6.006   1.716 -1.2820 -0.0984 -0.6723
  912MOL0     C23022   4.731   6.030   1.849  0.3993  0.8685  0.1406
  912MOL0     C23023   4.715   5.907   1.936 -0.7746  0.7313 -0.4462
  912MOL0     C23024   4.847   5.862   1.998  0.5589 -0.7710 -0.2883
  912MOL0     C23025   4.830   5.720   2.073 -0.9509 -0.5273 -0.0050
  912MOL0     C23026   4.937   5.704   2.178 -0.0101 -0.1037  0.0645
  912MOL0     C23027   5.071   5.663   2.109  0.4891 -0.5354  0.3993
  912MOL0     C23028   5.193   5.704   2.180  0.1988  0.2454  0.0417
  912MOL0    Cl23029   5.190   5.863   2.264  0.0941  0.2823  0.0593
  912MOL0     C23030   4.467   6.228   1.745  0.8570  0.2244 -0.4090
  912MOL0     C23031   4.357   6.322   1.738  0.1712 -0.0387 -0.3606
  912MOL0     O23032   4.088   6.408   1.711 -0.1025 -0.1805  0.5381
  912MOL0     C23033   3.977   6.656   1.790  0.4698  0.2948  0.6891
  912MOL0     C23034   3.897   6.768   1.784  0.4190 -0.3385 -0.2236
  912MOL0     N23035   3.307   7.049   1.683  0.1636 -0.3485 -0.5458
  912MOL0     N23036   3.182   7.041   1.702 -0.1006  0.3621 -0.3212
  912MOL0     C23037   2.099   7.294   1.994 -0.5050  0.3020 -0.0236
  912MOL0     C23038   1.967   7.268   2.033 -0.3686  0.6191  0.0964
  912MOL0     C23039   1.600   7.088   2.208 -0.7663 -0.0624  0.0917
  912MOL0     C23040   1.531   7.004   2.289 -0.3204 -0.1782 -0.5236
  912MOL0     C23041   1.396   7.008   2.305  1.0533  0.7228  0.1372
  912MOL0     C23042   1.311   7.095   2.230 -0.2054 -0.8394  0.0742
  912MOL0     O23043   1.180   7.083   2.241 -0.3964 -1.0572 -0.8675
  912MOL0     C23044   1.099   7.127   2.138  0.6720 -0.1875  0.2920
  912MOL0     C23045   0.965   7.058   2.128  0.4897  0.0967  0.0241
  912MOL0     C23046   0.951   6.911   2.090 -0.2780 -0.5127 -0.4593
  912MOL0     C23047   0.812   6.863   2.121 -0.1409 -0.0655 -0.3559
  912MOL0     C23048   0.772   6.748   2.030 -0.4665 -0.6964 -0.4913
  912MOL0     C23049   0.743   6.653   1.968 -0.1235  0.3613  0.2149
  912MOL0     C23050   1.380   7.192   2.159 -0.0884  0.6754 -0.3658
  912MOL0     C23051   1.524   7.197   2.152  0.0550 -0.0721  0.7161
  912MOL0     C23052   1.575   7.318   2.071  0.2518  0.1461  0.7488
  912MOL0     H23053   1.999   6.935   2.094 -1.6318 -0.5117 -2.1055
  912MOL0     H23054   2.241   6.998   2.090 -0.7909 -0.7499 -1.6430
  912MOL0     H23055   2.329   7.330   1.802  1.0967  0.4910 -1.2376
  912MOL0     H23056   2.346   7.425   1.958  1.4270  0.9772 -0.3616
  912MOL0     H23057   2.589   7.388   1.954  1.1817  2.0058 -2.0116
  912MOL0     H23058   2.542   7.412   1.785  1.9626  2.3211  2.4049
  912MOL0     H23059   2.500   7.164   1.772 -0.5013 -2.6000  0.6204
  912MOL0     H23060   2.579   7.164   1.941 -0.4422  2.9163  0.1107
  912MOL0     H23061   2.720   7.265   1.699  0.0126  0.5148 -0.2232
  912MOL0     H23062   2.776   7.238   1.868  0.3923 -1.5187 -0.0184
  912MOL0     H23063   2.813   7.023   1.847  0.3991  4.6795  1.5423
  912MOL0     H23064   2.662   6.996   1.747 -1.4811  2.0692  2.1696
  912MOL0     H23065   2.783   7.052   1.554  0.4347  3.6138 -0.5640
  912MOL0     H23066   2.921   7.115   1.647 -2.7956  1.4734  2.2531
  912MOL0     H23067   2.934   6.894   1.522 -0.6368  0.9244  0.1409
  912MOL0     H23068   2.814   6.826   1.630  0.8963 -1.2773 -1.0880
  912MOL0     H23069   2.982   6.885   1.826 -2.5005 -1.1335  0.0329
  912MOL0     H23070   3.024   6.748   1.714  3.9574 -0.3158 -2.0365
  912MOL0     H23071   3.251   6.732   1.654 -0.9789 -0.3329 -1.5960
  912MOL0     H23072   3.558   6.917   1.710 -1.5437 -1.1959  1.3511
  912MOL0     H23073   3.514   6.775   1.610  0.0406 -0.2833 -0.5021
  912MOL0     H23074   3.500   6.883   1.409  1.3769 -0.7973  0.3242
  912MOL0     H23075   3.503   7.046   1.486  2.0741  1.0360  1.0742
  912MOL0     H23076   3.718   6.998   1.377 -2.2878  1.4518  0.1337
  912MOL0     H23077   3.740   6.845   1.472 -2.5300 -0.7200  3.4525
  912MOL0     H23078   3.720   7.123   1.587 -0.3008  0.4323 -3.6890
  912MOL0     H23079   3.871   7.068   1.530  0.7596 -2.5282 -1.9490
  912MOL0     H23080   3.992   6.901   1.488 -3.0820 -2.8141 -3.7479
  912MOL0     H23081   4.132   6.687   1.493  0.7952 -0.4100  1.2611
  912MOL0     H23082   4.417   6.455   1.438 -1.3959  0.2369  0.7245
  912MOL0     H23083   4.598   6.288   1.433 -0.2105  0.5928 -0.9748
  912MOL0     H23084   4.550   5.974   1.729 -1.7038 -0.8812 -4.7007
  912MOL0     H23085   4.682   5.914   1.664 -1.5801 -1.3277  1.2261
  912MOL0     H23086   4.837   6.042   1.823  0.4027  2.0807  0.6506
  912MOL0     H23087   4.696   6.126   1.886  1.1318  1.2347 -0.0878
  912MOL0     H23088   4.632   5.925   2.004 -0.9201 -0.9469 -0.1406
  912MOL0     H23089   4.686   5.820   1.876 -0.8271 -1.1001  2.0923
  912MOL0     H23090   4.866   5.942   2.071  1.9138 -1.4740  0.1654
  912MOL0     H23091   4.938   5.868   1.937 -0.7233  0.9041 -2.1568
  912MOL0     H23092   4.837   5.629   2.012 -0.8395 -0.7761  0.3773
  912MOL0     H23093   4.729   5.714   2.114 -1.3495 -1.7225 -1.0921
  912MOL0     H23094   4.942   5.801   2.228 -1.3067 -0.0728  0.1705
  912MOL0     H23095   4.897   5.623   2.240 -0.4546 -0.3393 -0.5220
  912MOL0     H23096   5.082   5.715   2.013 -2.1272  0.3357  0.4664
  912MOL0     H23097   5.060   5.555   2.103  1.7556 -0.7352  1.4658
  912MOL0     H23098   5.213   5.632   2.259  1.7556 -0.0382 -0.5750
  912MOL0     H23099   5.277   5.707   2.110  0.6365  1.6524  0.5797
  912MOL0     H23100   4.468   6.159   1.829 -0.2493  0.9717  0.2476
  912MOL0     H23101   4.290   6.332   1.823  1.2919  0.3978  0.4941
  912MOL0     H23102   3.972   6.573   1.860  1.2449  0.0905  0.5148
  912MOL0     H23103   3.840   6.796   1.872 -0.3095 -1.5678 -0.2910
  912MOL0     H23104   2.136   7.389   1.958  0.5460  0.0059  0.2513
  912MOL0     H23105   1.895   7.349   2.023 -1.9267 -0.9055 -1.7962
  912MOL0     H23106   1.582   6.926   2.344 -0.4807 -0.9731 -1.4742
  912MOL0     H23107   1.361   6.945   2.386 -1.7729  2.8191  0.6984
  912MOL0     H23108   1.145   7.117   2.039  1.0556  3.8234 -0.0844
  912MOL0     H23109   1.082   7.235   2.143 -0.3027 -0.3651  0.9110
  912MOL0     H23110   0.903   7.106   2.051 -1.0436 -1.2601  0.3470
  912MOL0     H23111   0.906   7.067   2.220 -2.0604 -2.0457 -1.2864
  912MOL0     H23112   1.027   6.859   2.151 -0.7661 -0.2230  0.4187
  912MOL0     H23113   0.974   6.890   1.986  0.1343 -1.7164 -0.1445
  912MOL0     H23114   0.822   6.825   2.224 -5.2031 -0.8027  0.1197
  912MOL0     H23115   0.733   6.936   2.141 -1.2739 -1.2564 -0.3730
  912MOL0     H23116   0.720   6.568   1.908  1.9802  0.9801 -1.6187
  912MOL0     H23117   1.320   7.267   2.108 -1.0224 -1.8498 -3.2775
  912MOL0     H23118   1.496   7.390   2.046  1.5075  1.0346 -0.8809
  912MOL0     H23119   1.634   7.384   2.135  0.8404  1.5294 -1.1443
  912MOL0     H23120   1.619   7.277   1.980  0.4596 -0.1314  0.9752
  913MOL0     O23121   8.533   3.917   1.226 -0.2845  0.5358  0.3019
  913MOL0     C23122   8.442   3.855   1.274 -0.0665 -0.2956 -0.3655
  913MOL0     O23123   8.446   3.764   1.371  0.0752  0.4769 -0.0685
  913MOL0     C23124   8.564   3.740   1.439  0.2407 -0.5444 -0.0904
  913MOL0     C23125   8.543   3.662   1.554  0.4135  0.6287  0.1889
  913MOL0     C23126   8.638   3.611   1.631  0.0759 -0.6222 -0.4037
  913MOL0     C23127   8.770   3.649   1.606 -0.3133 -0.6166 -0.5233
  913MOL0     O23128   8.864   3.595   1.692 -0.6709  0.0153 -0.2372
  913MOL0     C23129   8.979   3.526   1.633  0.9557  0.5716  0.0286
  913MOL0     C23130   9.085   3.498   1.746 -0.6656 -0.7308  0.6823
  913MOL0     C23131   9.225   3.467   1.687 -0.1690  1.1293 -0.0364
  913MOL0     C23132   9.335   3.445   1.796  0.2544  0.0177  0.3598
  913MOL0     C23133   9.384   3.574   1.862 -0.1365  0.9094  0.2851
  913MOL0     C23134   9.508   3.546   1.961 -0.2140 -0.0435  0.0533
  913MOL0     C23135   9.647   3.528   1.896  0.1104  0.2351 -0.3432
  913MOL0     C23136   9.694   3.641   1.807 -0.2060 -0.2417  0.9224
  913MOL0     N23137   9.824   3.635   1.747  0.6908  0.2957 -0.1542
  913MOL0     C23138   9.943   3.687   1.794 -0.1592 -0.5404  0.1496
  913MOL0     C23139  10.032   3.644   1.703 -0.0207 -0.3047 -0.0598
  913MOL0     C23140  10.186   3.659   1.718  0.4840 -0.1647  0.4091
  913MOL0     C23141  10.272   3.701   1.592 -0.0772 -0.6701 -0.4157
  913MOL0     C23142  10.237   3.848   1.559  0.7430  0.8853  0.5138
  913MOL0     C23143  10.332   3.900   1.450  0.2801  0.0538  0.4255
  913MOL0     O23144  10.437   3.959   1.530  0.4129 -0.4678 -0.2794
  913MOL0     C23145  10.571   3.922   1.498 -0.5598 -0.8020  0.2354
  913MOL0     C23146  10.615   3.824   1.408  0.0820  0.1530 -0.2108
  913MOL0     C23147  10.749   3.777   1.399  0.7250 -0.9894 -1.0065
  913MOL0     C23148  10.839   3.820   1.494 -1.0343  0.4380 -0.2291
  913MOL0     C23149  10.972   3.763   1.491  0.0058 -0.9062  0.2350
  913MOL0     O23150  11.057   3.824   1.567 -0.4351 -0.1838  0.8206
  913MOL0     C23151  11.180   3.772   1.598  0.2021  0.3401 -0.2945
  913MOL0     C23152  11.197   3.637   1.620  0.5495  0.0823  0.1376
  913MOL0     C23153  11.328   3.597   1.651 -1.7136 -0.4147 -0.2685
  913MOL0     C23154  11.432   3.689   1.665  0.1535 -0.2873  0.1333
  913MOL0     O23155  11.559   3.659   1.714 -0.1432  0.4085 -0.3071
  913MOL0     C23156  11.631   3.569   1.623 -0.0499 -1.5547  0.6147
  913MOL0     C23157  11.774   3.583   1.651 -0.1332 -0.3358  0.0785
  913MOL0     C23158  11.799   3.523   1.800  0.3025  1.2118  0.4075
  913MOL0     C23159  11.956   3.506   1.834  0.0926 -1.1419 -0.1729
  913MOL0     C23160  11.969   3.440   1.966  0.2661  0.3121 -0.4115
  913MOL0     C23161  12.114   3.448   2.023  0.1226  1.2210  0.1098
  913MOL0     C23162  12.189   3.329   1.968 -0.1047  0.1385 -0.0445
  913MOL0     C23163  12.339   3.325   2.019  0.1894  0.4613 -0.1561
  913MOL0    Cl23164  12.387   3.448   2.144 -0.2806 -0.1000 -0.2863
  913MOL0     C23165  11.405   3.821   1.639 -0.6946 -1.0319 -0.2646
  913MOL0     C23166  11.280   3.868   1.611 -0.6427  0.4398 -0.5587
  913MOL0     O23167  10.990   3.670   1.407 -0.0521  0.0427  0.1769
  913MOL0     C23168  10.798   3.929   1.579 -0.2665 -0.2695  0.2301
  913MOL0     C23169  10.668   3.980   1.579 -0.0792 -0.5273 -0.5206
  913MOL0     N23170   9.965   3.578   1.603  0.3379  0.6011  0.0905
  913MOL0     N23171   9.844   3.569   1.629  0.0732 -0.0228 -0.4190
  913MOL0     C23172   8.794   3.743   1.503 -0.6708  0.4226  0.0244
  913MOL0     C23173   8.692   3.795   1.422  0.0327 -0.0130  0.4812
  913MOL0     C23174   8.309   3.895   1.237 -0.1786  0.5002 -0.0663
  913MOL0     C23175   8.279   3.863   1.102  0.4676 -0.3589  1.0041
  913MOL0     C23176   8.153   3.896   1.053 -0.6071 -0.4227  0.9593
  913MOL0     C23177   8.050   3.943   1.132 -0.9850  0.1944  0.1000
  913MOL0     O23178   7.931   3.963   1.067 -0.1203 -0.0055  0.3492
  913MOL0     C23179   7.827   4.027   1.146 -0.7570  0.0134  0.1602
  913MOL0     C23180   7.695   4.038   1.065 -0.5346  0.2387 -0.6892
  913MOL0     C23181   7.593   3.941   1.120  0.3355  0.1514 -0.8613
  913MOL0     C23182   7.471   3.938   1.025 -0.5378  0.2145  0.6518
  913MOL0     C23183   7.479   3.857   0.902 -0.6162 -0.9880  0.0217
  913MOL0     C23184   7.488   3.787   0.809  0.1403  0.6016  0.1410
  913MOL0     C23185   8.084   3.972   1.261  0.9681  0.6733 -0.5801
  913MOL0     C23186   8.209   3.939   1.319 -1.2624 -0.5133  0.2704
  913MOL0     C23187   8.234   3.974   1.466  0.4147  0.0869 -0.0122
  913MOL0     H23188   8.443   3.637   1.586  0.6761  0.1693  0.6542
  913MOL0     H23189   8.621   3.545   1.715 -1.1271  0.0329 -0.1150
  913MOL0     H23190   8.942   3.433   1.591  1.7253  0.6264 -0.7883
  913MOL0     H23191   9.029   3.590   1.560  2.9809  0.4301  1.1998
  913MOL0     H23192   9.049   3.431   1.825  0.3648 -1.7349  0.3220
  913MOL0     H23193   9.093   3.592   1.802  3.8586 -0.2030 -0.5211
  913MOL0     H23194   9.255   3.548   1.621 -4.0465  1.3170 -1.8250
  913MOL0     H23195   9.218   3.373   1.630 -1.2878  0.6244  0.8926
  913MOL0     H23196   9.302   3.378   1.875  2.1644  1.8112  2.8346
  913MOL0     H23197   9.416   3.389   1.746  1.3873  2.1156 -0.2717
  913MOL0     H23198   9.420   3.646   1.788  0.1240 -0.4989 -0.9907
  913MOL0     H23199   9.294   3.611   1.911  0.1341 -0.8683  2.2550
  913MOL0     H23200   9.509   3.631   2.029  0.3861  0.5879 -0.7220
  913MOL0     H23201   9.492   3.460   2.026  0.6679 -2.5744 -2.8173
  913MOL0     H23202   9.643   3.433   1.843  1.7456  1.3537 -2.6559
  913MOL0     H23203   9.721   3.514   1.976 -0.0245 -0.4627 -0.3416
  913MOL0     H23204   9.628   3.658   1.722  1.5692  0.5084 -0.3647
  913MOL0     H23205   9.678   3.732   1.866 -3.4032 -0.1891  0.1399
  913MOL0     H23206   9.969   3.739   1.885  0.0196 -0.2815 -0.0487
  913MOL0     H23207  10.209   3.723   1.804 -3.4247  0.4377  1.1681
  913MOL0     H23208  10.227   3.558   1.728 -0.5725 -1.1042 -3.2984
  913MOL0     H23209  10.377   3.703   1.622 -0.6296  2.9066  1.8346
  913MOL0     H23210  10.250   3.647   1.499 -1.5822 -0.6268 -0.1173
  913MOL0     H23211  10.226   3.910   1.648 -3.8959  2.5488 -0.9491
  913MOL0     H23212  10.140   3.858   1.509  1.2025  0.8087 -0.4218
  913MOL0     H23213  10.278   3.971   1.387  1.7938  0.5825 -0.3097
  913MOL0     H23214  10.353   3.813   1.387  1.3679  0.4100  0.2750
  913MOL0     H23215  10.545   3.791   1.332 -0.6893  1.4563 -0.0942
  913MOL0     H23216  10.776   3.713   1.315  2.1736  0.5965 -1.8054
  913MOL0     H23217  11.116   3.565   1.619  0.4520  0.1948 -0.3265
  913MOL0     H23218  11.346   3.490   1.658  1.1407 -0.1111 -1.4939
  913MOL0     H23219  11.600   3.464   1.634  1.2776 -2.0952 -0.5217
  913MOL0     H23220  11.616   3.605   1.521  0.5347  0.0959  1.0800
  913MOL0     H23221  11.822   3.526   1.572  1.4988  0.6354  0.3221
  913MOL0     H23222  11.807   3.687   1.644 -0.8785 -0.1977 -1.7298
  913MOL0     H23223  11.759   3.583   1.882 -0.3217  3.0140 -1.1502
  913MOL0     H23224  11.760   3.421   1.806 -0.2949  1.4662  0.9709
  913MOL0     H23225  11.994   3.607   1.849  0.5579 -1.4191  0.5602
  913MOL0     H23226  12.012   3.459   1.752 -0.3951 -1.8131 -0.1343
  913MOL0     H23227  11.954   3.331   1.961  3.0533 -0.1845  0.1321
  913MOL0     H23228  11.903   3.488   2.039 -1.8635 -4.0496  0.9110
  913MOL0     H23229  12.168   3.538   1.993 -1.3705  1.0636 -3.6036
  913MOL0     H23230  12.110   3.444   2.132 -0.4782 -3.0683  0.1099
  913MOL0     H23231  12.177   3.324   1.860 -1.3389 -5.5285  0.0311
  913MOL0     H23232  12.137   3.241   2.007 -0.0765 -1.0993 -2.5987
  913MOL0     H23233  12.352   3.221   2.050  2.5542  1.7476  3.9721
  913MOL0     H23234  12.407   3.338   1.935 -1.3555 -0.6613 -1.6557
  913MOL0     H23235  11.479   3.898   1.655 -3.6139  2.7327 -3.0824
  913MOL0     H23236  11.258   3.973   1.595 -1.3289  0.8363  2.4452
  913MOL0     H23237  10.870   3.973   1.647  0.9873 -0.6629 -0.7933
  913MOL0     H23238  10.658   4.069   1.641  3.0760  0.0654 -0.7059
  913MOL0     H23239   8.895   3.780   1.487  0.7314 -2.8834  0.3933
  913MOL0     H23240   8.722   3.868   1.347  0.4449 -0.7867 -0.1281
  913MOL0     H23241   8.358   3.817   1.044  0.9097  0.3113  1.0681
  913MOL0     H23242   8.123   3.874   0.951 -1.0782 -0.1722  1.0420
  913MOL0     H23243   7.857   4.130   1.169  3.9142 -0.0248 -4.0295
  913MOL0     H23244   7.813   3.968   1.237  0.9154  1.2395  1.2636
  913MOL0     H23245   7.706   4.019   0.957 -1.5190 -3.2633 -0.2860
  913MOL0     H23246   7.650   4.135   1.086  1.0151  0.3935  2.5790
  913MOL0     H23247   7.548   3.986   1.209  2.6742  2.3440 -0.6760
  913MOL0     H23248   7.634   3.841   1.136 -1.0965 -0.3666 -0.2479
  913MOL0     H23249   7.397   3.882   1.084 -0.3314 -1.3037 -0.4704
  913MOL0     H23250   7.415   4.032   1.024  0.9116  1.2711  3.9182
  913MOL0     H23251   7.485   3.730   0.718  0.2164  0.6894  0.0824
  913MOL0     H23252   8.017   4.029   1.324  3.1587  2.7772 -0.0392
  913MOL0     H23253   8.267   3.884   1.519 -0.2407  0.3529  0.8798
  913MOL0     H23254   8.302   4.057   1.485  1.3716 -0.2556 -1.7449
  913MOL0     H23255   8.138   4.000   1.512 -0.0960  2.7873 -2.3576
  914MOL0     O23256   0.965   0.976   2.205  0.6515 -0.0153 -0.1781
  914MOL0     C23257   0.883   0.889   2.186 -0.6756 -0.2546  0.6071
  914MOL0     O23258   0.906   0.753   2.206 -0.5862  0.3964 -0.0618
  914MOL0     C23259   1.020   0.699   2.236 -0.1252  0.5424 -0.2638
  914MOL0     C23260   1.103   0.672   2.129  0.2674 -0.0530 -0.2356
  914MOL0     C23261   1.228   0.614   2.150 -0.0403  0.5183  0.7665
  914MOL0     C23262   1.262   0.592   2.285 -0.4999 -0.5301 -0.7998
  914MOL0     O23263   1.390   0.556   2.330 -0.0407 -0.1428  0.3828
  914MOL0     C23264   1.514   0.571   2.251  0.2075 -0.4839  0.2684
  914MOL0     C23265   1.639   0.570   2.345 -0.7016  0.3391  0.4113
  914MOL0     C23266   1.631   0.689   2.438 -0.4422 -0.0501 -0.5170
  914MOL0     C23267   1.716   0.664   2.565 -0.2360 -0.7968  0.0667
  914MOL0     C23268   1.775   0.789   2.641 -0.9640 -0.0511 -0.2204
  914MOL0     C23269   1.675   0.887   2.693  0.4926 -0.6736 -0.2188
  914MOL0     C23270   1.737   1.009   2.777 -0.7869  0.1094 -0.3365
  914MOL0     C23271   1.835   1.092   2.691 -0.0862 -0.3387  0.7326
  914MOL0     N23272   1.775   1.142   2.569  0.3369 -0.2420 -0.2895
  914MOL0     C23273   1.669   1.226   2.551  1.4287 -0.2004 -0.0489
  914MOL0     C23274   1.659   1.259   2.426 -0.2567 -0.6685  0.3787
  914MOL0     C23275   1.564   1.355   2.361 -0.6182 -1.5160 -0.0288
  914MOL0     C23276   1.571   1.493   2.421  0.6181 -0.5708 -0.3202
  914MOL0     C23277   1.508   1.603   2.333 -0.0660 -0.1726 -0.2427
  914MOL0     C23278   1.482   1.725   2.419 -0.4038  0.5529 -0.0698
  914MOL0     O23279   1.353   1.717   2.477 -0.0998  0.4711  0.6092
  914MOL0     C23280   1.245   1.770   2.404  0.8740  0.2337  0.8329
  914MOL0     C23281   1.118   1.740   2.459 -0.4258  0.1588  0.2159
  914MOL0     C23282   1.001   1.772   2.392  0.0065  0.6765 -0.1920
  914MOL0     C23283   1.002   1.826   2.264  0.3965 -0.3003  0.4534
  914MOL0     C23284   0.872   1.848   2.201  0.0081 -0.0390 -0.4959
  914MOL0     O23285   0.881   1.891   2.072 -0.2621 -0.1770 -0.1385
  914MOL0     C23286   0.761   1.949   2.026 -0.0333  0.4246 -1.2541
  914MOL0     C23287   0.698   2.066   2.074  0.5262  0.1116  0.6612
  914MOL0     C23288   0.582   2.121   2.008  0.0863 -0.1329  0.6743
  914MOL0     C23289   0.525   2.043   1.901  0.1906  0.4336 -0.1626
  914MOL0     O23290   0.413   2.086   1.839 -0.1684 -1.0182 -0.4121
  914MOL0     C23291   0.396   2.049   1.701 -1.0302 -0.1526 -0.5794
  914MOL0     C23292   0.284   2.128   1.633  0.3849  1.1763 -0.2853
  914MOL0     C23293   0.146   2.078   1.700 -0.4588  0.1001 -0.0792
  914MOL0     C23294   0.031   2.154   1.643  0.1234 -0.0902  0.8341
  914MOL0     C23295  -0.104   2.096   1.667  0.0936  0.3941 -0.1318
  914MOL0     C23296  -0.218   2.179   1.595  0.4393  0.3089 -0.3048
  914MOL0     C23297  -0.356   2.114   1.615  1.1724  0.4022  0.1299
  914MOL0     C23298  -0.440   2.198   1.705  0.1389 -1.2320  0.3474
  914MOL0    Cl23299  -0.366   2.215   1.872 -0.2634  0.3275 -0.5674
  914MOL0     C23300   0.574   1.914   1.876 -0.2706 -0.1500  0.3682
  914MOL0     C23301   0.691   1.873   1.929  0.2189 -0.1113 -0.9736
  914MOL0     O23302   0.766   1.837   2.269 -0.1435 -0.0118 -0.0743
  914MOL0     C23303   1.130   1.861   2.206 -0.3283  0.1067 -0.7287
  914MOL0     C23304   1.250   1.830   2.274  0.0014  0.2044  0.1564
  914MOL0     N23305   1.758   1.202   2.353  0.5020  0.0433  0.9688
  914MOL0     N23306   1.818   1.120   2.437 -0.3833 -0.7784 -0.1610
  914MOL0     C23307   1.182   0.620   2.395  0.6335 -0.1152 -0.2949
  914MOL0     C23308   1.054   0.668   2.368  0.3548 -0.3779  0.0141
  914MOL0     C23309   0.749   0.922   2.139  0.7499 -0.4572 -0.2108
  914MOL0     C23310   0.640   0.843   2.174 -0.6724 -0.2352 -0.2218
  914MOL0     C23311   0.509   0.883   2.163  0.3010  0.0622 -0.5026
  914MOL0     C23312   0.473   1.005   2.109  0.7596  0.5767 -0.1827
  914MOL0     O23313   0.343   1.028   2.078  0.2477 -0.8665  0.8483
  914MOL0     C23314   0.293   0.979   1.956  0.5149  0.3888  0.2044
  914MOL0     C23315   0.143   1.009   1.934 -0.4751  0.2658  0.4422
  914MOL0     C23316   0.109   1.038   1.782 -0.3792  0.2196  0.7196
  914MOL0     C23317   0.129   0.923   1.690 -0.0918  0.0539  0.2941
  914MOL0     C23318   0.060   0.799   1.735 -0.1954  0.3924  0.3037
  914MOL0     C23319   0.007   0.695   1.761  0.5350  0.5853  0.9483
  914MOL0     C23320   0.574   1.101   2.081  1.2316  0.6001 -0.4859
  914MOL0     C23321   0.711   1.055   2.093 -0.4682 -0.2326  0.1201
  914MOL0     C23322   0.807   1.154   2.039  0.0645 -0.2720  0.4539
  914MOL0     H23323   1.071   0.714   2.034 -1.5554  0.2285  0.4513
  914MOL0     H23324   1.300   0.594   2.071  2.2201  2.3595  2.2132
  914MOL0     H23325   1.523   0.488   2.181  1.0078  1.4011 -2.0131
  914MOL0     H23326   1.516   0.661   2.189 -2.6461  2.0336  3.4351
  914MOL0     H23327   1.731   0.582   2.286 -0.1170  0.0258  1.2310
  914MOL0     H23328   1.630   0.479   2.405  2.3074  0.4443  1.1852
  914MOL0     H23329   1.530   0.708   2.476  0.0485  0.6447  0.4771
  914MOL0     H23330   1.662   0.777   2.381 -0.1724  0.3052  0.1698
  914MOL0     H23331   1.652   0.609   2.635  1.3465 -1.3736  1.1405
  914MOL0     H23332   1.795   0.591   2.544  1.6633  0.5859  1.9019
  914MOL0     H23333   1.853   0.765   2.715 -0.5889 -1.8381 -1.1449
  914MOL0     H23334   1.828   0.854   2.571  0.6976 -0.8699  0.2227
  914MOL0     H23335   1.618   0.914   2.603  1.0700 -0.2574 -0.4616
  914MOL0     H23336   1.605   0.833   2.758 -1.5006 -1.4981 -2.8543
  914MOL0     H23337   1.799   0.978   2.862  1.3838  2.3984 -0.9683
  914MOL0     H23338   1.652   1.067   2.814 -0.9901  0.7871 -1.8110
  914MOL0     H23339   1.873   1.180   2.743  3.1179 -0.0766 -1.7074
  914MOL0     H23340   1.920   1.033   2.654  0.9437  0.7369  1.3320
  914MOL0     H23341   1.608   1.268   2.630 -1.9431 -1.4725 -1.7639
  914MOL0     H23342   1.586   1.351   2.254 -1.0675 -1.3577 -0.1273
  914MOL0     H23343   1.463   1.319   2.383 -0.7395 -1.8438 -1.0706
  914MOL0     H23344   1.512   1.487   2.513 -2.2594  5.1975 -1.3174
  914MOL0     H23345   1.670   1.532   2.446  0.4675  0.0280 -0.6399
  914MOL0     H23346   1.413   1.567   2.290 -0.9888  1.1610  0.6096
  914MOL0     H23347   1.586   1.619   2.259 -0.1436  2.6840  0.2053
  914MOL0     H23348   1.500   1.819   2.364  3.2492  0.8620  1.3458
  914MOL0     H23349   1.554   1.735   2.501  1.3782 -1.9994 -1.1959
  914MOL0     H23350   1.128   1.695   2.557  1.9582  1.7384  0.7887
  914MOL0     H23351   0.911   1.736   2.441  1.0691 -0.9446  0.6569
  914MOL0     H23352   0.748   2.123   2.152  0.9208 -0.3087  0.7203
  914MOL0     H23353   0.542   2.218   2.037 -2.8531 -1.2101  0.5346
  914MOL0     H23354   0.493   2.072   1.656 -0.0362 -0.4406  1.3519
  914MOL0     H23355   0.383   1.941   1.705 -0.5053 -0.2057  3.1294
  914MOL0     H23356   0.288   2.237   1.634  1.7585  1.1551 -0.7718
  914MOL0     H23357   0.281   2.099   1.527  0.6263  1.9663 -0.5200
  914MOL0     H23358   0.116   1.974   1.691 -0.9875  0.2481 -0.0420
  914MOL0     H23359   0.146   2.110   1.805 -0.0464 -0.8879  0.2309
  914MOL0     H23360   0.041   2.173   1.535 -1.6095  1.1671  0.8514
  914MOL0     H23361   0.018   2.259   1.673 -3.6618 -0.9396  2.8368
  914MOL0     H23362  -0.126   2.082   1.774  0.0746  0.5287 -0.1174
  914MOL0     H23363  -0.109   1.998   1.620 -3.0612  1.1721 -1.6905
  914MOL0     H23364  -0.217   2.278   1.643  0.9401  0.7084 -1.1231
  914MOL0     H23365  -0.201   2.188   1.488  0.5809  0.8737 -0.2410
  914MOL0     H23366  -0.354   2.014   1.660  1.1856 -0.5312 -1.8290
  914MOL0     H23367  -0.416   2.091   1.527 -1.2526  0.7343  1.6157
  914MOL0     H23368  -0.462   2.290   1.651 -0.5335 -3.1622 -2.9639
  914MOL0     H23369  -0.538   2.151   1.717 -0.7576  0.8343  1.5352
  914MOL0     H23370   0.539   1.849   1.797 -3.1677 -0.3202  1.6725
  914MOL0     H23371   0.734   1.775   1.910 -1.0666 -1.5141  2.6003
  914MOL0     H23372   1.143   1.906   2.109  0.3400 -0.5888 -0.9758
  914MOL0     H23373   1.350   1.860   2.242  1.2176 -1.1333  2.4411
  914MOL0     H23374   1.224   0.610   2.495  2.6334  0.6281 -1.0012
  914MOL0     H23375   0.982   0.696   2.445 -0.8111  0.0797 -1.2105
  914MOL0     H23376   0.669   0.751   2.223  1.7109  1.6651  2.2525
  914MOL0     H23377   0.428   0.820   2.198 -0.6402  1.7157  0.4234
  914MOL0     H23378   0.317   0.873   1.944 -1.3619  0.2145 -2.9037
  914MOL0     H23379   0.351   1.020   1.873 -0.7736  2.3305  0.2045
  914MOL0     H23380   0.112   1.094   1.995 -0.8072  2.5454 -2.7252
  914MOL0     H23381   0.090   0.919   1.969  0.4459  0.1516  1.6221
  914MOL0     H23382   0.185   1.113   1.758  1.2803 -1.7334 -0.3329
  914MOL0     H23383   0.008   1.075   1.761  0.5124  3.2885  1.3116
  914MOL0     H23384   0.101   0.951   1.588  0.0487  1.6104  0.6670
  914MOL0     H23385   0.236   0.902   1.684 -0.0488  0.3468 -0.0158
  914MOL0     H23386  -0.057   0.613   1.787 -0.7194  1.3098  0.2151
  914MOL0     H23387   0.542   1.192   2.031 -0.6348  0.2733  0.0095
  914MOL0     H23388   0.745   1.234   1.998  0.8501 -0.4656 -1.1906
  914MOL0     H23389   0.879   1.180   2.118  1.4791 -2.3149 -0.0894
  914MOL0     H23390   0.857   1.126   1.946 -0.0015  1.8417 -0.2858
  915MOL0     O23391  11.192   6.680   3.273 -0.6041  0.4680  0.6599
  915MOL0     C23392  11.083   6.690   3.223  0.2280 -0.8530 -0.6685
  915MOL0     O23393  11.044   6.664   3.100  0.5361 -0.1577  0.0663
  915MOL0     C23394  11.134   6.598   3.021 -0.0033 -0.1832  0.0483
  915MOL0     C23395  11.075   6.510   2.935  0.4054  0.0852 -0.8703
  915MOL0     C23396  11.150   6.455   2.824  0.0323 -0.0822  0.1439
  915MOL0     C23397  11.283   6.485   2.808 -0.0402 -0.4977  0.3689
  915MOL0     O23398  11.360   6.441   2.705  0.5290 -0.9856  0.0035
  915MOL0     C23399  11.319   6.338   2.620  0.1275 -0.9040 -0.4430
  915MOL0     C23400  11.435   6.281   2.538  0.0039  0.3296 -0.0978
  915MOL0     C23401  11.475   6.376   2.413  0.2684  0.5503 -0.3359
  915MOL0     C23402  11.565   6.294   2.319  0.0582 -0.4154  0.6922
  915MOL0     C23403  11.712   6.285   2.362 -0.0112  0.1242  0.6496
  915MOL0     C23404  11.808   6.181   2.290 -0.5051 -2.0145 -0.2671
  915MOL0     C23405  11.793   6.169   2.142  0.0438  0.7734  0.0248
  915MOL0     C23406  11.880   6.277   2.082  0.3003  0.2354 -0.0174
  915MOL0     N23407  12.019   6.234   2.061  0.2193 -0.4128  0.7980
  915MOL0     C23408  12.124   6.291   2.115  0.0283 -0.3280  0.3972
  915MOL0     C23409  12.237   6.255   2.038  0.6866  0.6881  0.2106
  915MOL0     C23410  12.382   6.293   2.064 -0.9170  1.4413 -0.8353
  915MOL0     C23411  12.466   6.338   1.949 -0.0456  0.4921 -0.1797
  915MOL0     C23412  12.581   6.429   2.000  0.0750 -0.3408 -0.3249
  915MOL0     C23413  12.697   6.454   1.898 -0.4249  0.2498  0.4332
  915MOL0     O23414  12.742   6.333   1.834 -0.2837 -0.4617  0.0899
  915MOL0     C23415  12.844   6.347   1.750 -0.3334 -0.2026  0.3940
  915MOL0     C23416  12.929   6.460   1.724 -0.6397  0.1160  0.1273
  915MOL0     C23417  13.043   6.447   1.642 -0.4068  0.2296  0.1277
  915MOL0     C23418  13.062   6.331   1.565  0.0380  0.3521  0.1385
  915MOL0     C23419  13.172   6.335   1.465 -0.0894  0.0952  0.6440
  915MOL0     O23420  13.279   6.418   1.492 -0.7362 -0.2483  0.2185
  915MOL0     C23421  13.367   6.437   1.386 -0.1220 -0.5087 -0.7158
  915MOL0     C23422  13.371   6.560   1.317 -0.0054 -1.0452 -0.0177
  915MOL0     C23423  13.483   6.587   1.228 -0.3157  0.9117 -1.5151
  915MOL0     C23424  13.581   6.499   1.204  0.6409 -0.8245  0.5097
  915MOL0     O23425  13.683   6.536   1.115  0.8833  0.0046 -1.0966
  915MOL0     C23426  13.762   6.436   1.053 -0.2312  0.1705 -0.6418
  915MOL0     C23427  13.890   6.497   0.996 -0.5764  0.0313  0.2704
  915MOL0     C23428  13.964   6.380   0.937  0.9492  0.6296 -0.0141
  915MOL0     C23429  14.090   6.433   0.872 -0.7269  0.5666 -0.9632
  915MOL0     C23430  14.138   6.327   0.779  0.1111  0.0025 -0.2284
  915MOL0     C23431  14.276   6.370   0.712 -1.2682 -0.6259  0.7363
  915MOL0     C23432  14.311   6.308   0.582 -0.1627 -0.3641  0.8177
  915MOL0     C23433  14.352   6.161   0.588  0.3896  0.5481  0.4420
  915MOL0    Cl23434  14.407   6.092   0.430  0.3171 -0.4450 -0.2563
  915MOL0     C23435  13.567   6.378   1.263 -0.0820  0.3387 -0.0696
  915MOL0     C23436  13.463   6.351   1.351 -0.6867  0.2808  0.0056
  915MOL0     O23437  13.152   6.272   1.356  0.2684  0.5715 -0.0114
  915MOL0     C23438  12.976   6.228   1.588 -0.0501 -0.8237  0.3253
  915MOL0     C23439  12.876   6.233   1.679 -0.9159  0.4406 -0.9430
  915MOL0     N23440  12.182   6.164   1.941 -0.0621 -0.9038 -0.2784
  915MOL0     N23441  12.053   6.160   1.957  0.0027  0.1499  0.2689
  915MOL0     C23442  11.345   6.564   2.906  0.2609 -0.7429  0.0165
  915MOL0     C23443  11.270   6.625   2.999 -0.5674 -0.2302 -0.7601
  915MOL0     C23444  10.987   6.764   3.307  0.4703 -0.6689 -0.2324
  915MOL0     C23445  11.038   6.816   3.429  0.6009 -0.1066 -0.7956
  915MOL0     C23446  10.955   6.885   3.517  0.1673 -0.1881 -0.7258
  915MOL0     C23447  10.829   6.918   3.487  0.7099 -0.5365 -0.6291
  915MOL0     O23448  10.762   6.986   3.588 -0.7624 -0.5109  0.7124
  915MOL0     C23449  10.619   7.014   3.575 -0.5001  0.2803  0.5012
  915MOL0     C23450  10.555   7.091   3.693  0.1199 -0.2180  0.4637
  915MOL0     C23451  10.589   7.032   3.830  0.6131  0.8181  0.4382
  915MOL0     C23452  10.585   6.877   3.831 -0.8382 -0.4753  0.1555
  915MOL0     C23453  10.454   6.840   3.784  0.6222 -0.1560 -0.2969
  915MOL0     C23454  10.353   6.804   3.725 -0.2785  0.4751  0.1670
  915MOL0     C23455  10.777   6.886   3.362 -0.2191  0.3078 -0.1967
  915MOL0     C23456  10.856   6.814   3.270  0.9284  0.2563  0.2898
  915MOL0     C23457  10.789   6.783   3.135 -0.7718  0.2651 -0.5585
  915MOL0     H23458  10.971   6.483   2.947  0.7222 -0.6733  0.3762
  915MOL0     H23459  11.097   6.393   2.752 -0.1453 -1.7954  1.6719
  915MOL0     H23460  11.289   6.259   2.690 -3.5596  2.3512  2.0749
  915MOL0     H23461  11.239   6.372   2.554  2.1440 -1.5504 -3.3900
  915MOL0     H23462  11.417   6.178   2.503 -3.2672 -0.1679  2.5318
  915MOL0     H23463  11.524   6.280   2.602 -1.7040  1.4539  2.4615
  915MOL0     H23464  11.524   6.465   2.454  0.7315  1.4665 -2.6852
  915MOL0     H23465  11.382   6.409   2.366  1.5327  2.1149 -1.9069
  915MOL0     H23466  11.524   6.193   2.310  2.0355 -1.3095  1.2026
  915MOL0     H23467  11.544   6.350   2.227 -0.8841  0.7054  1.5591
  915MOL0     H23468  11.756   6.384   2.349  2.1822 -1.1709 -4.2942
  915MOL0     H23469  11.711   6.258   2.468 -0.4652 -0.0073  0.6105
  915MOL0     H23470  11.909   6.216   2.310 -1.2901  2.0629 -2.3824
  915MOL0     H23471  11.793   6.078   2.324  4.3789 -2.0458  2.7243
  915MOL0     H23472  11.687   6.185   2.119 -1.4211 -2.0378  3.6725
  915MOL0     H23473  11.833   6.071   2.116 -0.7683  0.2139  0.8072
  915MOL0     H23474  11.838   6.296   1.983 -1.4475  0.9838  0.8079
  915MOL0     H23475  11.864   6.369   2.140  0.2870 -0.5511  1.2758
  915MOL0     H23476  12.136   6.356   2.201  0.1243 -0.3237  0.3806
  915MOL0     H23477  12.380   6.377   2.134  0.5010 -0.5656  1.8160
  915MOL0     H23478  12.417   6.205   2.118  2.0880  1.7581 -2.0779
  915MOL0     H23479  12.499   6.253   1.889 -2.5736 -1.2172  0.6631
  915MOL0     H23480  12.405   6.396   1.880  0.4453 -0.0375 -1.0757
  915MOL0     H23481  12.631   6.380   2.084  0.5560  0.9583  0.1879
  915MOL0     H23482  12.533   6.517   2.045 -0.6991 -1.7466  1.7496
  915MOL0     H23483  12.775   6.509   1.951  0.8405 -1.3520  0.3026
  915MOL0     H23484  12.656   6.519   1.820 -2.1418  0.3421  1.3533
  915MOL0     H23485  12.909   6.551   1.780 -1.2200  0.6869 -0.9909
  915MOL0     H23486  13.104   6.536   1.635  1.3580 -0.6694  2.5084
  915MOL0     H23487  13.290   6.633   1.321  0.6830 -0.0924 -2.1042
  915MOL0     H23488  13.494   6.688   1.188  0.1425  0.3640 -2.8330
  915MOL0     H23489  13.789   6.367   1.133 -4.3353 -1.6100 -0.5314
  915MOL0     H23490  13.702   6.376   0.984 -0.1734 -1.2297  0.4753
  915MOL0     H23491  13.855   6.570   0.922 -0.7587  1.2979  1.5641
  915MOL0     H23492  13.956   6.546   1.067 -0.7599  1.6258 -0.6069
  915MOL0     H23493  13.991   6.299   1.005  1.5928 -1.0680 -2.1884
  915MOL0     H23494  13.901   6.346   0.854  0.5723  2.9660 -0.7771
  915MOL0     H23495  14.169   6.458   0.943 -2.9307  2.2801  1.0532
  915MOL0     H23496  14.070   6.518   0.806  0.6304  0.1637 -1.9407
  915MOL0     H23497  14.063   6.319   0.699 -1.1204  0.7326  0.8046
  915MOL0     H23498  14.150   6.227   0.823 -0.8373  0.3826  0.9693
  915MOL0     H23499  14.277   6.478   0.694 -0.0509 -1.1991 -3.5940
  915MOL0     H23500  14.358   6.345   0.780 -0.0075 -2.4050 -1.3383
  915MOL0     H23501  14.391   6.370   0.540  1.8147 -3.4149 -0.2409
  915MOL0     H23502  14.219   6.319   0.523 -0.1606  0.6652  0.9946
  915MOL0     H23503  14.435   6.156   0.659 -0.7419 -2.5352  1.7223
  915MOL0     H23504  14.281   6.090   0.631 -0.2769  0.2256 -1.1460
  915MOL0     H23505  13.642   6.305   1.234 -0.0689 -0.7108  2.3479
  915MOL0     H23506  13.469   6.246   1.378 -2.0123  0.1511 -0.1447
  915MOL0     H23507  12.984   6.137   1.530  1.2116 -0.6343  0.1855
  915MOL0     H23508  12.813   6.149   1.707 -2.7807  2.8694  2.9822
  915MOL0     H23509  11.453   6.575   2.898  0.2010 -1.3681 -3.2939
  915MOL0     H23510  11.322   6.691   3.067 -0.8275 -0.5814 -0.2126
  915MOL0     H23511  11.139   6.803   3.464  1.6002  3.4619 -1.9395
  915MOL0     H23512  11.000   6.898   3.615  0.0345 -4.4803  0.0794
  915MOL0     H23513  10.571   6.918   3.555  1.8496 -0.6638 -1.1101
  915MOL0     H23514  10.606   7.075   3.484  2.2205  1.0986  0.5796
  915MOL0     H23515  10.448   7.110   3.680  0.0401 -0.4367  0.7975
  915MOL0     H23516  10.599   7.192   3.689  2.6309 -1.1709  1.8879
  915MOL0     H23517  10.530   7.073   3.912  0.9949  2.6477 -0.1669
  915MOL0     H23518  10.691   7.053   3.862 -0.5603  1.6645  4.0788
  915MOL0     H23519  10.653   6.821   3.766 -1.7388  0.2562 -1.4558
  915MOL0     H23520  10.603   6.837   3.931  2.5755  1.4604  0.4653
  915MOL0     H23521  10.260   6.783   3.678 -0.0264 -0.2463 -0.0143
  915MOL0     H23522  10.684   6.938   3.337  0.1149  2.0454  1.8767
  915MOL0     H23523  10.844   6.813   3.046  0.0186 -0.2741 -0.2623
  915MOL0     H23524  10.774   6.675   3.133  0.5680  0.0505 -0.1207
  915MOL0     H23525  10.686   6.820   3.128 -0.5991  0.9702  0.4721
  916MOL0     O23526   1.586   8.525   7.744 -0.0945 -0.3634 -0.1693
  916MOL0     C23527   1.500   8.536   7.650 -0.7714 -0.0519 -0.4480
  916MOL0     O23528   1.479   8.432   7.562 -0.0844 -0.0294  0.2734
  916MOL0     C23529   1.523   8.305   7.571 -0.0233 -0.3539 -0.5269
  916MOL0     C23530   1.549   8.253   7.446 -0.5708  0.1735  0.0800
  916MOL0     C23531   1.605   8.133   7.420  0.2243 -0.4094 -0.4766
  916MOL0     C23532   1.648   8.064   7.539 -0.3284  0.1841 -0.7635
  916MOL0     O23533   1.719   7.943   7.537  0.8068  0.0312 -0.0987
  916MOL0     C23534   1.768   7.892   7.415 -0.3344 -0.2571 -0.1162
  916MOL0     C23535   1.663   7.813   7.339  1.4474 -0.7372  0.3737
  916MOL0     C23536   1.729   7.771   7.211 -0.0451 -0.8519  1.0219
  916MOL0     C23537   1.625   7.721   7.109 -0.2824 -0.9888  0.2194
  916MOL0     C23538   1.574   7.827   7.000 -0.6094  0.1104 -0.3452
  916MOL0     C23539   1.438   7.884   7.038 -0.6813 -1.7055 -0.4405
  916MOL0     C23540   1.316   7.784   7.033  0.2038 -0.6253 -0.2526
  916MOL0     C23541   1.179   7.843   7.109  0.2349  0.7573 -0.8486
  916MOL0     N23542   1.136   7.966   7.053 -0.3101 -0.1662 -0.5824
  916MOL0     C23543   1.032   7.967   6.958 -0.1902  0.7718 -0.1112
  916MOL0     C23544   1.003   8.095   6.937  0.6557  0.7515  0.6174
  916MOL0     C23545   0.886   8.161   6.862  0.0171  0.7991  0.2202
  916MOL0     C23546   0.776   8.203   6.951  0.9056  0.1693  0.0265
  916MOL0     C23547   0.704   8.080   7.013 -0.3807 -0.4890  0.8969
  916MOL0     C23548   0.593   8.124   7.111 -0.8381 -0.1775 -0.0915
  916MOL0     O23549   0.574   8.012   7.192  0.6458 -0.3578  0.1217
  916MOL0     C23550   0.476   7.918   7.163  0.6042 -0.7910  0.4819
  916MOL0     C23551   0.425   7.836   7.264 -0.3864 -0.5491  0.6438
  916MOL0     C23552   0.331   7.738   7.243  0.5619  0.4979 -0.0113
  916MOL0     C23553   0.266   7.727   7.122  0.2213 -0.3472  0.0140
  916MOL0     C23554   0.171   7.622   7.098  0.3449 -0.4411  0.0847
  916MOL0     O23555   0.129   7.564   7.205 -0.1763 -0.2204 -0.4228
  916MOL0     C23556   0.010   7.489   7.207 -0.2120 -0.0017 -0.9357
  916MOL0     C23557  -0.044   7.403   7.104 -0.5703 -0.1876  0.4768
  916MOL0     C23558  -0.161   7.329   7.113 -0.4323  0.0943  0.8145
  916MOL0     C23559  -0.235   7.329   7.227 -0.2895  0.4642 -0.1153
  916MOL0     O23560  -0.347   7.251   7.257 -0.1775 -0.0767  0.4839
  916MOL0     C23561  -0.370   7.132   7.174  0.3349  1.4113 -0.8729
  916MOL0     C23562  -0.452   7.152   7.051 -0.2490  0.8722  0.0482
  916MOL0     C23563  -0.478   7.017   6.971 -0.2071 -0.5545  0.1726
  916MOL0     C23564  -0.369   6.967   6.874  0.0347 -0.6643 -0.8568
  916MOL0     C23565  -0.373   7.022   6.733 -0.4305  1.2315 -0.2244
  916MOL0     C23566  -0.380   7.171   6.714  0.5266 -0.3310  0.7271
  916MOL0     C23567  -0.324   7.197   6.580 -0.9798 -0.2181  0.5379
  916MOL0     C23568  -0.321   7.345   6.552  0.0505 -0.5560  0.1660
  916MOL0    Cl23569  -0.241   7.387   6.394 -0.1308  0.0882 -0.1219
  916MOL0     C23570  -0.189   7.412   7.330  0.5529 -0.1798 -0.0103
  916MOL0     C23571  -0.071   7.501   7.321 -0.1738  0.3327  0.1512
  916MOL0     O23572   0.135   7.601   6.988 -0.4897  0.6441 -0.6552
  916MOL0     C23573   0.326   7.804   7.019  1.5797 -0.4295  0.1291
  916MOL0     C23574   0.424   7.902   7.040  0.8544  0.4110  0.0487
  916MOL0     N23575   1.101   8.168   7.011  0.1907  0.4660  0.2766
  916MOL0     N23576   1.171   8.092   7.081 -1.1817 -0.0861  0.0594
  916MOL0     C23577   1.633   8.118   7.665 -0.4680  0.1344  0.9884
  916MOL0     C23578   1.566   8.239   7.683 -0.5060 -0.2298  0.0369
  916MOL0     C23579   1.420   8.653   7.642  0.2855 -0.3435 -0.1717
  916MOL0     C23580   1.319   8.663   7.533  0.0537 -0.0105 -0.5832
  916MOL0     C23581   1.236   8.766   7.516  0.0902  0.0599  0.5533
  916MOL0     C23582   1.253   8.890   7.588 -0.5836  0.8770 -0.4971
  916MOL0     O23583   1.180   8.990   7.550 -0.2896 -0.0036  0.9673
  916MOL0     C23584   1.183   9.117   7.626  0.0895 -0.6332 -0.1866
  916MOL0     C23585   1.137   9.232   7.537  0.6854  0.1143 -0.2315
  916MOL0     C23586   1.111   9.361   7.616  1.1339 -0.1760 -0.8124
  916MOL0     C23587   1.203   9.478   7.569 -0.9800  0.5582  0.0324
  916MOL0     C23588   1.314   9.492   7.678  0.0919  0.3798 -0.2940
  916MOL0     C23589   1.395   9.523   7.756 -0.0271  0.1531  0.0688
  916MOL0     C23590   1.359   8.895   7.683 -0.0720  0.0161  0.3262
  916MOL0     C23591   1.437   8.778   7.715 -0.0959 -0.1182  1.2563
  916MOL0     C23592   1.534   8.784   7.831  0.6520  0.0050  0.3420
  916MOL0     H23593   1.530   8.309   7.355  0.2739  0.4511  0.0610
  916MOL0     H23594   1.612   8.094   7.319  3.1367  0.5446 -0.7499
  916MOL0     H23595   1.815   7.970   7.355 -0.7433  1.2423  1.4507
  916MOL0     H23596   1.851   7.823   7.430  0.7338  1.0502  0.1431
  916MOL0     H23597   1.572   7.873   7.323  2.6563  1.6698  1.8748
  916MOL0     H23598   1.628   7.728   7.398  2.3124  0.2348  2.3928
  916MOL0     H23599   1.798   7.690   7.236  0.7264 -1.9015 -3.5438
  916MOL0     H23600   1.785   7.854   7.168 -0.9997 -0.1303  1.1374
  916MOL0     H23601   1.679   7.650   7.046 -0.7245 -0.6154 -0.5878
  916MOL0     H23602   1.540   7.674   7.159 -1.1567 -1.3368 -1.5242
  916MOL0     H23603   1.640   7.911   6.980 -1.0282  0.1657 -1.5846
  916MOL0     H23604   1.570   7.769   6.908  1.2128  1.5987 -1.4244
  916MOL0     H23605   1.449   7.942   7.130  2.4562 -1.8521 -0.6170
  916MOL0     H23606   1.416   7.962   6.966 -2.8150 -0.8829  1.0122
  916MOL0     H23607   1.336   7.692   7.090 -1.1099 -0.2322  0.8926
  916MOL0     H23608   1.304   7.758   6.927  0.2790 -0.7339 -0.2342
  916MOL0     H23609   1.093   7.782   7.080 -0.6740  0.8863  1.3951
  916MOL0     H23610   1.198   7.855   7.216  3.3711  0.0452 -1.2441
  916MOL0     H23611   0.977   7.879   6.924 -0.7709 -0.0171  2.6613
  916MOL0     H23612   0.915   8.250   6.806  0.3435  1.2035  1.0086
  916MOL0     H23613   0.853   8.097   6.780 -0.2683  2.1751 -0.7617
  916MOL0     H23614   0.807   8.268   7.033 -3.4909  0.2903  1.8363
  916MOL0     H23615   0.708   8.265   6.892 -0.2598 -0.4913  0.6404
  916MOL0     H23616   0.781   8.017   7.058 -0.8889 -1.2685  0.6990
  916MOL0     H23617   0.656   8.023   6.933 -0.5246 -0.3458  0.8807
  916MOL0     H23618   0.502   8.161   7.063  1.5731  5.5611 -1.1045
  916MOL0     H23619   0.636   8.203   7.173 -0.3948 -0.0230 -0.5850
  916MOL0     H23620   0.464   7.843   7.364 -2.1179 -3.6560  1.6680
  916MOL0     H23621   0.307   7.685   7.334  0.7628  1.7070  0.7682
  916MOL0     H23622   0.029   7.401   7.023 -0.4497  1.8341  0.4783
  916MOL0     H23623  -0.191   7.266   7.030 -1.8243  1.8436 -0.0580
  916MOL0     H23624  -0.275   7.084   7.149 -1.5190 -1.5237 -2.9931
  916MOL0     H23625  -0.426   7.059   7.233  0.0508  0.9652 -1.6728
  916MOL0     H23626  -0.547   7.188   7.092 -1.0277 -3.2638  2.4503
  916MOL0     H23627  -0.414   7.231   6.986 -0.5859  0.2713 -0.9041
  916MOL0     H23628  -0.491   6.938   7.045  1.5576 -0.4359  0.6338
  916MOL0     H23629  -0.571   7.036   6.916 -1.4768 -1.1695  2.0323
  916MOL0     H23630  -0.388   6.860   6.866  1.4316 -1.0677  0.6461
  916MOL0     H23631  -0.275   6.999   6.919 -0.1159 -0.8539 -0.3911
  916MOL0     H23632  -0.453   6.969   6.680 -0.8901  2.3958 -0.7103
  916MOL0     H23633  -0.282   6.986   6.684 -0.0757 -1.5915  2.1990
  916MOL0     H23634  -0.484   7.204   6.721  0.2614 -0.5897 -1.3094
  916MOL0     H23635  -0.320   7.218   6.792  0.3972 -0.2948  0.8055
  916MOL0     H23636  -0.372   7.162   6.488  0.6339 -0.4372 -0.2657
  916MOL0     H23637  -0.223   7.158   6.597 -0.7678  1.0695  2.6344
  916MOL0     H23638  -0.424   7.381   6.553 -0.2225 -1.3117 -0.0494
  916MOL0     H23639  -0.272   7.389   6.640 -0.8137  1.7894 -0.4615
  916MOL0     H23640  -0.260   7.412   7.412 -0.0673  1.4231 -0.4966
  916MOL0     H23641  -0.043   7.569   7.401 -0.8571 -2.8244  3.3354
  916MOL0     H23642   0.279   7.797   6.922  2.2557  0.3708 -0.2692
  916MOL0     H23643   0.452   7.964   6.955 -1.4472 -0.0219 -1.1275
  916MOL0     H23644   1.679   8.074   7.753  0.8464  0.3231  0.4102
  916MOL0     H23645   1.544   8.291   7.776 -2.5641  0.3458 -0.7378
  916MOL0     H23646   1.303   8.573   7.475  0.8431  0.6766 -1.9268
  916MOL0     H23647   1.154   8.754   7.445 -0.7490 -0.3774  1.5844
  916MOL0     H23648   1.284   9.157   7.635 -1.1535  2.9597 -0.5637
  916MOL0     H23649   1.113   9.116   7.710 -2.9443 -1.7351 -2.5476
  916MOL0     H23650   1.053   9.200   7.475 -0.6588  3.0328 -0.1046
  916MOL0     H23651   1.212   9.252   7.460  0.2633 -2.5629 -1.4356
  916MOL0     H23652   1.117   9.346   7.725  0.4380  1.9542 -0.4270
  916MOL0     H23653   1.007   9.390   7.596  0.4585 -1.4174  0.6030
  916MOL0     H23654   1.243   9.461   7.469 -0.3510  1.3464  0.1364
  916MOL0     H23655   1.151   9.574   7.572  0.9432  1.6212  1.2514
  916MOL0     H23656   1.474   9.552   7.822 -0.6857  1.4937  0.3022
  916MOL0     H23657   1.385   8.987   7.734 -0.6595  0.8188 -0.7772
  916MOL0     H23658   1.527   8.692   7.890  0.1931 -1.2250 -1.5295
  916MOL0     H23659   1.640   8.796   7.804  0.8191 -1.8154  0.0400
  916MOL0     H23660   1.500   8.875   7.880  0.2770  0.1015 -0.0887
  917MOL0     O23661   1.356   4.253   4.827 -0.0484 -0.4853 -0.3191
  917MOL0     C23662   1.408   4.261   4.931 -0.2388 -0.0852  0.3638
  917MOL0     O23663   1.385   4.358   5.025  0.0805 -0.5073  0.3205
  917MOL0     C23664   1.280   4.440   5.006  1.1070  0.2502  1.0056
  917MOL0     C23665   1.146   4.410   5.047 -0.1240  0.9429  0.3680
  917MOL0     C23666   1.043   4.507   5.032  0.1961  0.3643 -0.3777
  917MOL0     C23667   1.070   4.628   4.987  0.7392 -0.4063  0.9794
  917MOL0     O23668   0.958   4.709   4.966  0.1281 -0.0191  0.2128
  917MOL0     C23669   0.939   4.827   5.053 -0.5175  0.4484 -1.0505
  917MOL0     C23670   0.833   4.916   4.992 -0.4015 -0.5884 -0.5178
  917MOL0     C23671   0.720   4.959   5.098  0.6440 -0.9063  0.5053
  917MOL0     C23672   0.635   5.058   5.023  0.4931  0.4094  0.4058
  917MOL0     C23673   0.481   5.052   5.068 -0.4169 -0.1288 -0.4209
  917MOL0     C23674   0.399   5.119   4.958 -0.0014 -0.8336  0.7123
  917MOL0     C23675   0.251   5.111   5.000  0.2699 -0.7521  0.2164
  917MOL0     C23676   0.155   5.215   4.926 -0.6989  0.1900 -0.4790
  917MOL0     N23677   0.015   5.195   4.961 -0.2859 -0.2067 -0.1832
  917MOL0     C23678  -0.041   5.186   5.087 -0.1263 -0.0688  0.5609
  917MOL0     C23679  -0.173   5.171   5.064 -1.2444 -0.1045 -0.3982
  917MOL0     C23680  -0.277   5.165   5.167 -0.4078 -0.3242  0.0241
  917MOL0     C23681  -0.408   5.094   5.110 -0.9040 -0.2882  0.2838
  917MOL0     C23682  -0.512   5.076   5.206  0.3743  1.0035 -0.7841
  917MOL0     C23683  -0.491   4.937   5.277 -0.0890 -0.4546  1.4916
  917MOL0     O23684  -0.532   4.826   5.191 -0.1642 -0.0008 -1.2287
  917MOL0     C23685  -0.669   4.788   5.195 -0.2547  0.1289  0.4118
  917MOL0     C23686  -0.767   4.852   5.275 -0.8657  0.8918 -0.8143
  917MOL0     C23687  -0.903   4.823   5.249  0.1920  0.2457 -0.4707
  917MOL0     C23688  -0.941   4.714   5.161  0.1159 -0.3532 -0.9168
  917MOL0     C23689  -1.083   4.666   5.160 -0.2078 -0.3526  0.6088
  917MOL0     O23690  -1.120   4.591   5.053 -0.7626 -0.0340 -0.1934
  917MOL0     C23691  -1.254   4.558   5.052 -0.6245  0.5581 -0.7844
  917MOL0     C23692  -1.337   4.609   4.950 -0.3779 -0.7874 -0.3504
  917MOL0     C23693  -1.478   4.595   4.971  0.6313 -0.6187  0.6617
  917MOL0     C23694  -1.524   4.526   5.076  0.6041 -0.1033 -0.3172
  917MOL0     O23695  -1.657   4.517   5.117  0.4258  0.0031 -0.7528
  917MOL0     C23696  -1.760   4.561   5.034  0.0310 -0.3818  0.7968
  917MOL0     C23697  -1.889   4.507   5.091  0.3994  0.7458  0.0305
  917MOL0     C23698  -1.966   4.419   4.990 -0.1444 -0.6517  0.0983
  917MOL0     C23699  -2.042   4.491   4.878 -0.5331 -0.5114 -0.0154
  917MOL0     C23700  -2.125   4.390   4.805 -1.0302 -0.4602  0.3070
  917MOL0     C23701  -2.171   4.462   4.681  0.2747  0.5947  0.4903
  917MOL0     C23702  -2.286   4.397   4.599  0.4919 -0.1612  0.0736
  917MOL0     C23703  -2.422   4.347   4.661 -0.3595 -0.7139 -0.1707
  917MOL0    Cl23704  -2.386   4.197   4.754 -0.1801 -0.2110 -0.1036
  917MOL0     C23705  -1.441   4.462   5.163 -0.0453 -0.3710 -0.3872
  917MOL0     C23706  -1.303   4.476   5.154  0.2038  0.4375  1.1894
  917MOL0     O23707  -1.155   4.717   5.246 -0.2509 -0.2465  0.0597
  917MOL0     C23708  -0.833   4.653   5.086  0.5047 -0.0791 -0.1305
  917MOL0     C23709  -0.702   4.695   5.105 -0.4086 -0.0107  0.2520
  917MOL0     N23710  -0.198   5.159   4.929 -0.3809 -0.1145 -0.2065
  917MOL0     N23711  -0.081   5.160   4.873  0.1497  0.4048  1.1473
  917MOL0     C23712   1.203   4.665   4.948  0.0454 -0.8264  0.4087
  917MOL0     C23713   1.300   4.562   4.946 -0.4027 -0.2304 -0.4183
  917MOL0     C23714   1.513   4.160   4.963  0.6419 -0.8406 -0.2182
  917MOL0     C23715   1.568   4.087   4.853 -0.5914 -0.0602  0.3738
  917MOL0     C23716   1.655   3.982   4.883 -0.1697  0.3272 -0.0250
  917MOL0     C23717   1.701   3.969   5.014 -0.5902 -0.1673  0.4361
  917MOL0     O23718   1.810   3.889   5.026 -0.5869  0.3285 -0.0645
  917MOL0     C23719   1.925   3.956   5.074 -0.6747  0.2412 -0.6962
  917MOL0     C23720   2.035   3.849   5.115  0.7756 -0.2402  0.7263
  917MOL0     C23721   2.182   3.899   5.071 -0.1119  0.3220  0.4345
  917MOL0     C23722   2.278   3.798   5.131 -0.0917 -0.2587 -0.4383
  917MOL0     C23723   2.415   3.843   5.113 -0.8697  0.3432 -0.9420
  917MOL0     C23724   2.526   3.889   5.078  0.0252  0.1325  0.2658
  917MOL0     C23725   1.647   4.040   5.122  0.1650 -0.4157  0.4753
  917MOL0     C23726   1.549   4.132   5.094 -0.4367  0.0051 -0.2022
  917MOL0     C23727   1.481   4.185   5.227 -0.0042 -0.8125 -0.3651
  917MOL0     H23728   1.119   4.315   5.093  1.2761  1.2293  1.8888
  917MOL0     H23729   0.946   4.467   5.062  1.0597 -2.7042 -1.3665
  917MOL0     H23730   0.911   4.795   5.153  3.0484 -0.3415 -0.1780
  917MOL0     H23731   1.035   4.875   5.075  1.4062 -3.0108 -1.2717
  917MOL0     H23732   0.789   4.877   4.900  2.3762 -2.8013 -1.0283
  917MOL0     H23733   0.881   5.008   4.958 -2.7148  0.4362 -1.2077
  917MOL0     H23734   0.748   5.010   5.190 -3.3309 -2.7746  3.0277
  917MOL0     H23735   0.655   4.879   5.132 -3.0067  1.8507  0.5922
  917MOL0     H23736   0.680   5.158   5.020  0.5150  0.3908  0.0337
  917MOL0     H23737   0.635   5.037   4.916  0.6594 -1.3666  0.7169
  917MOL0     H23738   0.452   4.948   5.080 -2.1612  0.5969  2.6675
  917MOL0     H23739   0.465   5.101   5.164  0.4631 -0.8564  0.1127
  917MOL0     H23740   0.425   5.223   4.937 -1.8209 -0.9972 -3.3324
  917MOL0     H23741   0.409   5.074   4.859 -1.7094  0.0030  0.1149
  917MOL0     H23742   0.240   5.125   5.108 -1.6666 -0.9392  0.0829
  917MOL0     H23743   0.208   5.013   4.976  2.5880 -1.7498 -0.1575
  917MOL0     H23744   0.184   5.313   4.965 -0.3427 -0.6234  1.3720
  917MOL0     H23745   0.175   5.202   4.819 -0.0255 -1.2772 -0.1956
  917MOL0     H23746   0.007   5.205   5.183  1.3413 -0.4064 -0.0816
  917MOL0     H23747  -0.238   5.107   5.251  0.1924 -0.9077 -0.6467
  917MOL0     H23748  -0.295   5.269   5.199 -1.0192 -0.9912  2.0217
  917MOL0     H23749  -0.453   5.154   5.029 -0.8135  1.0373  1.1821
  917MOL0     H23750  -0.382   4.995   5.074  2.4875 -0.0382  1.6856
  917MOL0     H23751  -0.608   5.089   5.155 -0.6493 -0.3691  0.6669
  917MOL0     H23752  -0.506   5.153   5.283 -2.6906 -0.6798  1.3895
  917MOL0     H23753  -0.544   4.931   5.373  0.3353 -0.3957  1.7381
  917MOL0     H23754  -0.386   4.923   5.306  0.4858 -0.5606 -0.5094
  917MOL0     H23755  -0.759   4.926   5.354  1.2957  0.9101 -1.0025
  917MOL0     H23756  -0.978   4.862   5.317 -0.2155 -1.9985  0.4570
  917MOL0     H23757  -1.296   4.667   4.868 -0.4600 -1.5481 -0.9458
  917MOL0     H23758  -1.543   4.653   4.906  1.6184 -2.4289 -2.1175
  917MOL0     H23759  -1.768   4.670   5.035 -3.6479 -0.5395  0.9423
  917MOL0     H23760  -1.750   4.531   4.929 -2.3406 -0.2453  0.4775
  917MOL0     H23761  -1.875   4.446   5.180  0.2945  0.1929 -0.3274
  917MOL0     H23762  -1.944   4.596   5.124 -0.6602 -0.3574  1.3099
  917MOL0     H23763  -1.910   4.331   4.958 -2.2245 -1.5992 -1.1728
  917MOL0     H23764  -2.048   4.383   5.052 -0.3406 -2.1535 -0.9774
  917MOL0     H23765  -1.954   4.519   4.819 -0.6504 -0.0727  0.0176
  917MOL0     H23766  -2.092   4.583   4.910  0.4280  0.5064 -1.3114
  917MOL0     H23767  -2.202   4.344   4.867  0.0595 -0.5380  1.6638
  917MOL0     H23768  -2.051   4.315   4.772 -1.6549 -0.8673 -0.2014
  917MOL0     H23769  -2.209   4.558   4.716 -4.8130  0.5252 -3.6500
  917MOL0     H23770  -2.087   4.472   4.612  1.3452 -0.9049  1.4962
  917MOL0     H23771  -2.251   4.309   4.544 -0.7949 -0.1641 -0.7925
  917MOL0     H23772  -2.307   4.474   4.524  2.3010  0.9255  0.6363
  917MOL0     H23773  -2.469   4.430   4.715  1.1341  0.3691 -0.4780
  917MOL0     H23774  -2.485   4.334   4.572 -0.2481  0.7550 -0.4870
  917MOL0     H23775  -1.488   4.429   5.255  0.8175  0.1280  0.2563
  917MOL0     H23776  -1.234   4.458   5.236 -1.0542  2.7874  2.8504
  917MOL0     H23777  -0.856   4.574   5.016  1.6076  1.3722 -2.2363
  917MOL0     H23778  -0.622   4.653   5.046 -0.3559  0.9090 -0.3472
  917MOL0     H23779   1.228   4.763   4.909  2.5316 -0.9617  1.4506
  917MOL0     H23780   1.398   4.581   4.904 -0.2243  1.1541  0.5823
  917MOL0     H23781   1.558   4.112   4.748  3.5541 -2.3975 -0.8055
  917MOL0     H23782   1.705   3.931   4.801  0.1099 -0.3829  0.5824
  917MOL0     H23783   1.914   4.019   5.162  4.0334  1.2280 -0.5526
  917MOL0     H23784   1.958   4.025   4.996  1.7071  0.2692  0.2480
  917MOL0     H23785   2.001   3.762   5.058  0.9847 -0.6618  1.2405
  917MOL0     H23786   2.042   3.829   5.222  0.9414  1.9741  1.1704
  917MOL0     H23787   2.197   3.995   5.121 -0.5349  1.0626 -0.8177
  917MOL0     H23788   2.190   3.910   4.963  0.1610 -2.7025  0.0441
  917MOL0     H23789   2.273   3.773   5.237 -0.4113 -3.8879 -1.1801
  917MOL0     H23790   2.267   3.705   5.074 -1.8285  0.2605 -1.0034
  917MOL0     H23791   2.614   3.931   5.035 -1.7046  1.7974 -1.9105
  917MOL0     H23792   1.675   4.023   5.226  0.9239 -1.1460  0.1658
  917MOL0     H23793   1.499   4.291   5.242  1.1504 -1.1638  0.7972
  917MOL0     H23794   1.373   4.190   5.207 -0.2409 -1.2567  0.7407
  917MOL0     H23795   1.491   4.126   5.318 -4.6441  1.0812  1.7012
  918MOL0     O23796   2.476   1.412   5.345 -0.6270 -0.0291  0.1145
  918MOL0     C23797   2.496   1.469   5.237  0.4437  0.0255 -0.1495
  918MOL0     O23798   2.599   1.441   5.145 -0.6929  0.0104  0.3146
  918MOL0     C23799   2.705   1.364   5.191  0.1895 -1.1365 -0.4146
  918MOL0     C23800   2.689   1.231   5.227  0.3397 -0.0915 -0.1951
  918MOL0     C23801   2.796   1.166   5.281 -0.5034  0.6006 -0.3998
  918MOL0     C23802   2.926   1.226   5.294 -0.6402  0.2399 -0.7736
  918MOL0     O23803   3.029   1.158   5.349  0.2101 -0.3206 -0.7253
  918MOL0     C23804   3.114   1.236   5.432 -0.5253  0.7361 -0.0704
  918MOL0     C23805   3.230   1.140   5.481  0.0340 -0.3874 -0.0997
  918MOL0     C23806   3.302   1.079   5.361  0.3393  0.4908  0.1510
  918MOL0     C23807   3.437   1.011   5.403 -0.0623 -0.4559 -0.8791
  918MOL0     C23808   3.496   0.945   5.280  0.1927  0.5902  0.1944
  918MOL0     C23809   3.626   0.860   5.302 -0.1505  0.0311 -0.1176
  918MOL0     C23810   3.675   0.808   5.164 -0.1390 -0.5967  0.2298
  918MOL0     C23811   3.776   0.693   5.173 -1.0182  0.5978 -0.1847
  918MOL0     N23812   3.905   0.736   5.226 -1.2738 -0.5863 -0.0980
  918MOL0     C23813   3.937   0.734   5.362 -0.8911 -0.2128 -0.2933
  918MOL0     C23814   4.060   0.770   5.360 -0.9980 -1.4183  0.1503
  918MOL0     C23815   4.147   0.745   5.485 -0.0570  1.0433 -0.3478
  918MOL0     C23816   4.296   0.766   5.451 -0.1234 -0.0253 -0.0007
  918MOL0     C23817   4.355   0.910   5.471  0.6534 -0.9031  0.4383
  918MOL0     C23818   4.495   0.938   5.431  0.3213  0.4573 -0.5881
  918MOL0     O23819   4.532   1.069   5.469 -0.2788  0.0113 -0.2894
  918MOL0     C23820   4.668   1.087   5.485  1.0288  0.4713  0.6457
  918MOL0     C23821   4.716   1.164   5.586 -0.0292  0.0916 -0.1041
  918MOL0     C23822   4.848   1.177   5.609 -1.5902  0.6193  0.2912
  918MOL0     C23823   4.940   1.134   5.514 -0.4897  0.3642 -0.3250
  918MOL0     C23824   5.089   1.143   5.533 -0.0191 -0.4210 -0.4395
  918MOL0     O23825   5.167   1.121   5.424  0.6301 -0.0643 -0.2352
  918MOL0     C23826   5.305   1.117   5.455  0.5385  0.9848  0.4937
  918MOL0     C23827   5.389   1.207   5.394 -0.0077 -0.3657 -0.7742
  918MOL0     C23828   5.522   1.215   5.431  0.1214  0.0187 -0.7002
  918MOL0     C23829   5.584   1.102   5.500 -0.4940 -0.0445  0.3954
  918MOL0     O23830   5.719   1.094   5.516 -0.4470 -0.0783 -0.6911
  918MOL0     C23831   5.797   1.185   5.449 -0.5129 -0.2902  0.0948
  918MOL0     C23832   5.942   1.155   5.467 -0.9738  0.1064  0.6452
  918MOL0     C23833   6.010   1.246   5.355 -0.1163 -0.1948  0.4193
  918MOL0     C23834   6.157   1.221   5.335 -1.2965  0.5578 -0.1920
  918MOL0     C23835   6.196   1.291   5.206  0.3740  0.2023  0.1173
  918MOL0     C23836   6.224   1.439   5.243  0.8721  0.4539 -1.1735
  918MOL0     C23837   6.218   1.518   5.109  0.7042 -0.1835 -1.3067
  918MOL0     C23838   6.361   1.540   5.066  0.4651  0.0210  0.1367
  918MOL0    Cl23839   6.440   1.378   5.022  0.1891  0.2951  0.0146
  918MOL0     C23840   5.497   1.002   5.554  0.1235 -0.0671  0.9914
  918MOL0     C23841   5.360   1.017   5.538 -0.0571 -0.1264  0.8044
  918MOL0     O23842   5.128   1.167   5.645  0.5236  0.4953  0.6526
  918MOL0     C23843   4.889   1.071   5.402 -0.2214 -0.0707  0.0987
  918MOL0     C23844   4.753   1.040   5.395  0.5970  0.2107 -0.3188
  918MOL0     N23845   4.089   0.826   5.236 -0.2178 -0.1134  0.6185
  918MOL0     N23846   4.004   0.788   5.145  0.5178 -0.5669 -0.6773
  918MOL0     C23847   2.936   1.358   5.253 -0.4647 -0.3716 -0.0381
  918MOL0     C23848   2.827   1.426   5.198  0.1510  0.3077 -0.6189
  918MOL0     C23849   2.398   1.582   5.198  0.0256  1.4781 -0.7138
  918MOL0     C23850   2.270   1.570   5.253 -0.4850  0.6458 -0.0240
  918MOL0     C23851   2.181   1.669   5.220 -0.4115  0.5151  0.3437
  918MOL0     C23852   2.211   1.775   5.136  0.7229  1.0417  0.0426
  918MOL0     O23853   2.105   1.849   5.105 -0.2485  0.5490  0.0864
  918MOL0     C23854   2.050   1.827   4.972  0.4701  0.6038 -1.8125
  918MOL0     C23855   1.899   1.822   4.994 -0.0949 -0.0631 -0.0569
  918MOL0     C23856   1.825   1.845   4.865 -0.4427 -0.1805 -0.1310
  918MOL0     C23857   1.706   1.926   4.896  0.1090 -0.7763 -0.7432
  918MOL0     C23858   1.584   1.896   4.815  0.2072  0.4010 -0.1156
  918MOL0     C23859   1.491   1.867   4.742 -0.2877  0.7829 -0.4131
  918MOL0     C23860   2.336   1.790   5.087 -0.0156 -0.2483  0.6395
  918MOL0     C23861   2.438   1.693   5.117  0.0129 -0.7372  0.4067
  918MOL0     C23862   2.574   1.720   5.062  0.4705 -0.1124  0.4929
  918MOL0     H23863   2.604   1.164   5.226  0.7163 -0.6220  1.1527
  918MOL0     H23864   2.790   1.058   5.296  0.3782  0.1625 -2.8016
  918MOL0     H23865   3.162   1.315   5.372  1.5802 -0.0197  0.5355
  918MOL0     H23866   3.063   1.283   5.516  2.1036  1.4865  1.2371
  918MOL0     H23867   3.172   1.060   5.528 -1.5280 -0.2650 -1.6922
  918MOL0     H23868   3.305   1.179   5.550  1.9797 -0.0772 -2.2569
  918MOL0     H23869   3.334   1.163   5.298  1.8722 -0.4480 -0.3933
  918MOL0     H23870   3.238   1.012   5.302  1.0442  1.3864 -1.7216
  918MOL0     H23871   3.507   1.088   5.435 -0.8320 -0.1365  0.0844
  918MOL0     H23872   3.420   0.939   5.484 -0.4381 -1.4991 -1.8598
  918MOL0     H23873   3.421   0.875   5.241 -0.7843  0.4327  2.2227
  918MOL0     H23874   3.533   1.010   5.200  3.5173 -0.1962  0.9506
  918MOL0     H23875   3.697   0.921   5.360  0.4034  0.4795 -1.2368
  918MOL0     H23876   3.607   0.777   5.371 -1.0552  0.5196  0.2363
  918MOL0     H23877   3.723   0.886   5.103  0.5488 -0.1495  1.3106
  918MOL0     H23878   3.588   0.773   5.108 -1.1195  3.4067 -1.0801
  918MOL0     H23879   3.741   0.616   5.243  2.5064 -0.3515  0.7151
  918MOL0     H23880   3.780   0.642   5.076  3.0676 -2.2656  1.2236
  918MOL0     H23881   3.887   0.687   5.446  0.3256  1.1436  1.2455
  918MOL0     H23882   4.111   0.810   5.566  1.4512 -0.4519  1.6051
  918MOL0     H23883   4.141   0.642   5.520 -1.2210  1.5766  1.1442
  918MOL0     H23884   4.355   0.700   5.516 -1.0087  0.9487  1.8619
  918MOL0     H23885   4.320   0.751   5.345 -0.2982  2.2114 -0.3941
  918MOL0     H23886   4.350   0.933   5.578  0.2910 -1.7324  0.6124
  918MOL0     H23887   4.293   0.977   5.411  1.9276 -0.3048 -0.2508
  918MOL0     H23888   4.506   0.917   5.324  3.4079 -0.6414 -0.1437
  918MOL0     H23889   4.559   0.860   5.473  4.0587  1.2793 -4.0574
  918MOL0     H23890   4.639   1.211   5.647 -1.6571  0.5440 -2.3835
  918MOL0     H23891   4.885   1.222   5.700  1.3668 -2.1192  0.6081
  918MOL0     H23892   5.344   1.283   5.331 -2.1010 -3.6251 -3.6412
  918MOL0     H23893   5.583   1.302   5.410  0.2728  0.1275  0.1478
  918MOL0     H23894   5.780   1.183   5.341 -0.7028 -2.8084  0.0984
  918MOL0     H23895   5.776   1.283   5.493  0.3514 -0.2753  0.5016
  918MOL0     H23896   5.958   1.186   5.570 -1.4570 -0.6509  0.9560
  918MOL0     H23897   5.958   1.049   5.449  5.1611  1.1135 -2.2989
  918MOL0     H23898   5.957   1.228   5.261 -3.1566 -3.3860  2.5085
  918MOL0     H23899   5.988   1.351   5.379 -1.2152  0.8547 -4.2370
  918MOL0     H23900   6.173   1.113   5.332  1.2128  0.8827 -2.7077
  918MOL0     H23901   6.210   1.261   5.422  0.1663  1.3502 -1.3987
  918MOL0     H23902   6.110   1.291   5.138  1.0848  2.4131 -0.8959
  918MOL0     H23903   6.280   1.242   5.157  0.2229 -0.8921  0.9252
  918MOL0     H23904   6.137   1.475   5.298 -0.3176 -2.1489 -1.2070
  918MOL0     H23905   6.320   1.453   5.295  0.4440  3.2478 -0.9992
  918MOL0     H23906   6.164   1.610   5.134 -1.0319 -2.0048  2.5101
  918MOL0     H23907   6.168   1.463   5.029  0.8536 -1.4691 -0.5439
  918MOL0     H23908   6.360   1.603   4.976  0.3984  1.4467  1.1011
  918MOL0     H23909   6.417   1.592   5.144 -0.3775 -1.8256  2.0567
  918MOL0     H23910   5.546   0.926   5.613 -0.3518 -0.1927  1.2314
  918MOL0     H23911   5.293   0.948   5.589  0.8042 -1.2688  0.4279
  918MOL0     H23912   4.954   1.041   5.321  0.2269  0.0891  0.3969
  918MOL0     H23913   4.711   0.998   5.304  1.4216  0.9112 -1.0418
  918MOL0     H23914   3.030   1.412   5.250 -0.8716  0.3116 -1.7811
  918MOL0     H23915   2.852   1.527   5.165  0.6963 -0.0264 -1.2335
  918MOL0     H23916   2.231   1.489   5.314 -0.5013  0.9521  0.3795
  918MOL0     H23917   2.079   1.659   5.258 -1.0466 -1.1998 -1.6449
  918MOL0     H23918   2.088   1.734   4.927 -1.4528 -2.0700  1.5371
  918MOL0     H23919   2.079   1.908   4.906 -0.3349  2.4151 -0.0466
  918MOL0     H23920   1.870   1.889   5.076 -2.3731 -1.7955  0.6269
  918MOL0     H23921   1.883   1.723   5.036 -0.0523 -0.4695 -0.9779
  918MOL0     H23922   1.807   1.750   4.814 -1.5645 -0.4461  0.7166
  918MOL0     H23923   1.880   1.904   4.791  0.2885  1.8958  1.9759
  918MOL0     H23924   1.671   1.928   5.000 -0.9901 -0.0847 -1.1042
  918MOL0     H23925   1.733   2.028   4.869 -0.5602 -1.1022 -2.8830
  918MOL0     H23926   1.406   1.852   4.679 -0.0600  1.3812 -0.8663
  918MOL0     H23927   2.342   1.878   5.024  0.1668 -1.7858 -1.5834
  918MOL0     H23928   2.609   1.645   4.992  1.1771  0.3022  0.3916
  918MOL0     H23929   2.584   1.814   5.007  2.2152 -2.1045 -2.8810
  918MOL0     H23930   2.635   1.720   5.153  2.3309  2.4120 -0.6453
  919MOL0     O23931   0.207   9.906   8.502 -0.4181 -0.1822 -0.1679
  919MOL0     C23932   0.196   9.801   8.435  0.2893 -0.6359  0.2688
  919MOL0     O23933   0.078   9.757   8.381  0.5211 -0.2753  0.7795
  919MOL0     C23934  -0.042   9.794   8.420 -0.1299  0.1177  0.4028
  919MOL0     C23935  -0.073   9.842   8.550  0.0413 -0.0549  0.1619
  919MOL0     C23936  -0.203   9.890   8.587  0.6366 -0.6159  0.1503
  919MOL0     C23937  -0.302   9.891   8.492  0.2286 -0.2818 -0.6183
  919MOL0     O23938  -0.426   9.917   8.540 -0.9136 -0.4292  0.0162
  919MOL0     C23939  -0.530   9.911   8.444  0.7825 -0.1965  0.1940
  919MOL0     C23940  -0.579   9.763   8.431 -0.0320  0.0275  0.3809
  919MOL0     C23941  -0.691   9.734   8.321 -0.3307 -0.0414  0.9435
  919MOL0     C23942  -0.836   9.759   8.362  0.1502 -0.6830 -0.3060
  919MOL0     C23943  -0.931   9.766   8.235 -0.5695 -0.2210  0.6917
  919MOL0     C23944  -1.067   9.811   8.267  0.7659  0.6273 -0.5275
  919MOL0     C23945  -1.145   9.826   8.139  0.4357 -0.0276  0.9120
  919MOL0     C23946  -1.291   9.874   8.148  0.7539 -0.0690 -0.0174
  919MOL0     N23947  -1.367   9.800   8.251 -0.8203 -0.2373 -0.9492
  919MOL0     C23948  -1.421   9.671   8.221  0.5019 -0.4093 -0.1642
  919MOL0     C23949  -1.514   9.653   8.318 -0.5848  0.3179  0.5459
  919MOL0     C23950  -1.589   9.526   8.325  0.2454  0.6270  0.8460
  919MOL0     C23951  -1.740   9.542   8.302 -0.9830  0.1776 -0.5004
  919MOL0     C23952  -1.768   9.594   8.161  0.3267 -0.0631  0.6498
  919MOL0     C23953  -1.915   9.552   8.117 -0.2828  0.1860 -0.1434
  919MOL0     O23954  -1.928   9.574   7.978  0.4096 -0.0329  0.7319
  919MOL0     C23955  -2.052   9.551   7.919  0.3846 -0.6928 -0.5319
  919MOL0     C23956  -2.048   9.551   7.779  0.1786 -0.8278  0.3637
  919MOL0     C23957  -2.164   9.526   7.705 -0.5932 -0.2910  1.2498
  919MOL0     C23958  -2.291   9.510   7.763  1.1787  0.0274  0.3615
  919MOL0     C23959  -2.417   9.495   7.678  0.0001  0.5745  0.4221
  919MOL0     O23960  -2.399   9.481   7.540  0.1243 -0.2607 -0.3191
  919MOL0     C23961  -2.511   9.475   7.462 -0.7988  0.4615  0.3967
  919MOL0     C23962  -2.601   9.586   7.454  0.4281  0.1517 -0.1127
  919MOL0     C23963  -2.713   9.578   7.371  0.1494 -0.1258 -0.4226
  919MOL0     C23964  -2.740   9.459   7.305  0.1056  1.3960  0.4822
  919MOL0     O23965  -2.849   9.456   7.218  0.2865 -0.0687  0.3424
  919MOL0     C23966  -2.825   9.405   7.087  0.1494 -0.5523 -0.5764
  919MOL0     C23967  -2.961   9.378   7.026  0.2781  0.4467 -0.3858
  919MOL0     C23968  -2.957   9.366   6.869  0.3486  0.2042  0.5436
  919MOL0     C23969  -2.976   9.503   6.806  0.7865 -0.6780  0.2118
  919MOL0     C23970  -2.972   9.502   6.649 -0.3730  0.0387 -0.3681
  919MOL0     C23971  -3.067   9.613   6.592 -0.6434  0.1866  0.5762
  919MOL0     C23972  -3.073   9.620   6.446  0.3705 -0.9229 -0.3350
  919MOL0     C23973  -3.162   9.735   6.413  0.4533 -0.1487  1.9394
  919MOL0    Cl23974  -3.188   9.738   6.238  0.0209  0.1761  0.2262
  919MOL0     C23975  -2.652   9.354   7.312 -1.3301  0.3595 -0.2646
  919MOL0     C23976  -2.535   9.362   7.394 -1.1632 -0.3282  0.4111
  919MOL0     O23977  -2.522   9.490   7.740  0.4237  0.3461  0.0115
  919MOL0     C23978  -2.291   9.508   7.904  0.2575 -0.3617 -0.8127
  919MOL0     C23979  -2.179   9.527   7.985 -1.1022 -0.8423 -0.1200
  919MOL0     N23980  -1.514   9.757   8.404 -0.5679  0.0638 -0.3065
  919MOL0     N23981  -1.427   9.841   8.364  0.3547  0.1194  0.1744
  919MOL0     C23982  -0.266   9.843   8.366 -0.4291 -0.5519  0.3050
  919MOL0     C23983  -0.143   9.797   8.326 -0.6482 -1.1517  1.0387
  919MOL0     C23984   0.315   9.726   8.381 -0.2549 -0.3536 -1.3659
  919MOL0     C23985   0.298   9.638   8.282  0.8084 -0.4793  0.1526
  919MOL0     C23986   0.403   9.564   8.229 -0.0201 -0.4354 -0.2547
  919MOL0     C23987   0.528   9.560   8.285 -0.3154 -1.0343  0.4268
  919MOL0     O23988   0.615   9.477   8.223 -0.3327 -0.4927 -0.4529
  919MOL0     C23989   0.734   9.415   8.288  0.4156 -0.0377  0.5092
  919MOL0     C23990   0.696   9.325   8.410  0.4626 -0.2982  0.3215
  919MOL0     C23991   0.809   9.224   8.452 -0.3299  0.1481  0.8553
  919MOL0     C23992   0.915   9.271   8.547  0.3000  0.1907 -0.5120
  919MOL0     C23993   1.008   9.365   8.477 -1.1513  0.9432 -0.7841
  919MOL0     C23994   1.085   9.436   8.409  0.5535 -0.1384  0.0097
  919MOL0     C23995   0.550   9.648   8.394  0.2942  0.2180 -0.7454
  919MOL0     C23996   0.446   9.730   8.449 -0.5738 -0.2746  0.0177
  919MOL0     C23997   0.480   9.810   8.576  0.0772 -0.1686  0.3479
  919MOL0     H23998   0.008   9.870   8.615 -0.4719  1.2948  0.2490
  919MOL0     H23999  -0.216   9.928   8.688  1.5222 -1.2433  0.5148
  919MOL0     H24000  -0.617   9.965   8.484  0.2322 -1.5470  0.8667
  919MOL0     H24001  -0.505   9.954   8.346 -0.4850  2.7856  1.0524
  919MOL0     H24002  -0.625   9.751   8.530  1.3630  3.9292  1.7007
  919MOL0     H24003  -0.494   9.696   8.419  0.5561  0.8650 -0.3209
  919MOL0     H24004  -0.682   9.632   8.284 -0.6800  0.1330  0.3672
  919MOL0     H24005  -0.669   9.800   8.237  0.9518 -1.9945 -0.3378
  919MOL0     H24006  -0.852   9.677   8.433  2.0049  0.0941  1.1025
  919MOL0     H24007  -0.842   9.859   8.405  1.0494 -0.3083 -1.0246
  919MOL0     H24008  -0.875   9.832   8.169  0.7436 -1.1765  0.8009
  919MOL0     H24009  -0.933   9.667   8.188 -3.3664  0.2935 -0.4391
  919MOL0     H24010  -1.110   9.731   8.328  3.6298 -2.1693 -1.8620
  919MOL0     H24011  -1.072   9.900   8.329  0.5537 -1.2427  2.3134
  919MOL0     H24012  -1.142   9.729   8.088 -0.9027 -0.0657  0.8498
  919MOL0     H24013  -1.104   9.895   8.065 -0.9439 -1.1158 -0.9593
  919MOL0     H24014  -1.276   9.976   8.183  0.6190 -0.3278  0.8234
  919MOL0     H24015  -1.339   9.871   8.050  2.2512 -3.1932 -0.7770
  919MOL0     H24016  -1.408   9.605   8.136 -0.3667 -0.7197 -0.0674
  919MOL0     H24017  -1.556   9.445   8.260  0.1049 -1.0199  2.7417
  919MOL0     H24018  -1.584   9.489   8.428 -0.5858 -0.2402  0.5903
  919MOL0     H24019  -1.779   9.442   8.323  0.4951 -0.3512 -0.1226
  919MOL0     H24020  -1.774   9.613   8.378 -0.2531  2.7174 -2.4107
  919MOL0     H24021  -1.704   9.549   8.085 -1.6926  1.0317 -1.8199
  919MOL0     H24022  -1.755   9.702   8.153 -1.0276 -0.0252 -3.9710
  919MOL0     H24023  -1.989   9.606   8.177  1.6203  1.0429  1.5331
  919MOL0     H24024  -1.932   9.447   8.141  0.7310 -0.5336 -2.2977
  919MOL0     H24025  -1.961   9.587   7.725 -0.6228  0.8964  0.1529
  919MOL0     H24026  -2.156   9.527   7.597 -0.9657 -1.4195  1.1930
  919MOL0     H24027  -2.568   9.672   7.511 -1.1204  0.4301  0.4264
  919MOL0     H24028  -2.786   9.658   7.367 -0.9924 -1.1337 -0.3802
  919MOL0     H24029  -2.767   9.478   7.031 -0.9906  0.8989  0.0622
  919MOL0     H24030  -2.771   9.310   7.082 -0.6879 -0.9773 -2.1946
  919MOL0     H24031  -2.985   9.279   7.065  0.4256  0.4214 -0.3606
  919MOL0     H24032  -3.040   9.437   7.075 -1.1791 -2.2369  0.6839
  919MOL0     H24033  -2.863   9.330   6.827 -0.3777 -1.1618  0.0091
  919MOL0     H24034  -3.033   9.299   6.827  1.8876  1.0034 -4.0422
  919MOL0     H24035  -2.904   9.575   6.846 -0.5842 -0.1863  1.9301
  919MOL0     H24036  -3.073   9.551   6.825  1.2253 -0.0658  0.9454
  919MOL0     H24037  -3.008   9.411   6.601 -0.5044  0.5725 -1.3049
  919MOL0     H24038  -2.867   9.505   6.619 -0.5836 -1.8664 -1.4534
  919MOL0     H24039  -3.163   9.579   6.629 -0.4712  0.0226  0.8771
  919MOL0     H24040  -3.060   9.716   6.628  0.1236  1.8908 -3.7691
  919MOL0     H24041  -3.109   9.526   6.404 -3.1048  0.6714 -1.2665
  919MOL0     H24042  -2.975   9.644   6.403  0.8405  0.4764  1.3528
  919MOL0     H24043  -3.252   9.728   6.476 -1.7961  1.2597 -0.8801
  919MOL0     H24044  -3.123   9.832   6.447 -1.7895  0.5688  2.6606
  919MOL0     H24045  -2.674   9.263   7.256 -0.2326 -0.8948  1.2673
  919MOL0     H24046  -2.471   9.275   7.402 -1.4955 -1.1299 -3.6617
  919MOL0     H24047  -2.386   9.510   7.956 -0.1494  3.3887 -1.4173
  919MOL0     H24048  -2.178   9.526   8.093 -2.0127  0.0647 -0.0834
  919MOL0     H24049  -0.337   9.835   8.284  2.1943 -0.6718 -2.1000
  919MOL0     H24050  -0.121   9.762   8.226  1.9765  3.9024 -0.4943
  919MOL0     H24051   0.197   9.624   8.243  0.4342  2.3340 -0.0843
  919MOL0     H24052   0.371   9.508   8.141 -0.4916 -1.4894  0.5690
  919MOL0     H24053   0.802   9.493   8.322  3.1719 -1.8402 -0.5628
  919MOL0     H24054   0.791   9.351   8.220 -0.8325 -0.6502 -0.0054
  919MOL0     H24055   0.608   9.262   8.392  0.4204 -0.4422  1.0133
  919MOL0     H24056   0.673   9.386   8.498 -2.6715 -2.0783  0.8817
  919MOL0     H24057   0.863   9.188   8.364 -2.9713  0.2972 -0.9256
  919MOL0     H24058   0.760   9.139   8.501 -0.8799 -0.0883 -0.0856
  919MOL0     H24059   0.863   9.331   8.622  0.8020  0.5539 -0.4470
  919MOL0     H24060   0.967   9.188   8.596 -0.8838  1.0628  2.4828
  919MOL0     H24061   1.152   9.508   8.367  0.6760 -0.5418 -0.4954
  919MOL0     H24062   0.652   9.664   8.427  0.3103  0.2851 -0.8281
  919MOL0     H24063   0.390   9.834   8.633 -0.6341  1.7586 -1.4891
  919MOL0     H24064   0.549   9.746   8.632  0.3068 -1.8705 -1.7203
  919MOL0     H24065   0.536   9.900   8.552  2.2363 -1.1973  1.2338
  920MOL0     O24066   3.583   9.808   1.787 -0.5324 -0.2278  0.1110
  920MOL0     C24067   3.562   9.725   1.697 -0.1903 -0.5246  0.2618
  920MOL0     O24068   3.664   9.667   1.621 -0.9277 -0.0539 -0.7855
  920MOL0     C24069   3.784   9.650   1.687 -0.3109 -0.3983  0.4248
  920MOL0     C24070   3.895   9.718   1.632 -0.1649 -0.0687  0.2987
  920MOL0     C24071   4.027   9.687   1.690  0.9563  0.2493  0.7045
  920MOL0     C24072   4.042   9.582   1.786 -0.1879  0.1135  0.4156
  920MOL0     O24073   4.155   9.543   1.848 -0.2232  0.7487  0.3063
  920MOL0     C24074   4.292   9.587   1.804  0.3308  0.6393  0.1612
  920MOL0     C24075   4.383   9.538   1.915 -0.6362  0.5680  0.7434
  920MOL0     C24076   4.527   9.565   1.882 -0.5456 -0.3334  0.4927
  920MOL0     C24077   4.621   9.503   1.987 -0.3871  1.9400 -0.5746
  920MOL0     C24078   4.771   9.560   1.992 -0.5352 -1.0157  0.2894
  920MOL0     C24079   4.838   9.542   1.857  0.1449  0.0779  0.6291
  920MOL0     C24080   4.986   9.575   1.853 -0.2133  0.5846 -0.4339
  920MOL0     C24081   5.072   9.448   1.866  0.8030  0.5318 -0.4332
  920MOL0     N24082   5.212   9.467   1.816 -0.4786 -0.0579 -0.0303
  920MOL0     C24083   5.318   9.530   1.874 -0.6684 -0.7180  0.1409
  920MOL0     C24084   5.411   9.551   1.787  0.1824 -0.1417  0.7574
  920MOL0     C24085   5.540   9.612   1.800  0.4276 -0.1443  0.0579
  920MOL0     C24086   5.542   9.730   1.894 -0.8886  0.4591 -0.5124
  920MOL0     C24087   5.455   9.849   1.856 -0.0029  0.0394  0.2332
  920MOL0     C24088   5.512   9.917   1.730  0.4273  0.2979  0.5989
  920MOL0     O24089   5.643   9.972   1.761 -0.1373 -0.0405 -0.6628
  920MOL0     C24090   5.688  10.091   1.705 -0.4967  0.3355  0.2418
  920MOL0     C24091   5.795  10.141   1.770 -0.5855 -0.2619 -0.2230
  920MOL0     C24092   5.844  10.261   1.734 -0.0625 -1.4803  0.5394
  920MOL0     C24093   5.795  10.331   1.624  0.1161 -1.1538  0.2092
  920MOL0     C24094   5.851  10.461   1.581  0.9227 -0.3867  0.6373
  920MOL0     O24095   5.778  10.513   1.471 -0.5765 -0.2739  0.4055
  920MOL0     C24096   5.790  10.647   1.426  0.8272 -1.2035 -0.1389
  920MOL0     C24097   5.681  10.680   1.348 -0.1665  0.8089  0.4323
  920MOL0     C24098   5.671  10.809   1.291 -0.5573  0.1568  0.0717
  920MOL0     C24099   5.771  10.906   1.324 -0.1911  0.3404  0.3929
  920MOL0     O24100   5.786  11.027   1.266 -0.0358 -0.3251 -0.5660
  920MOL0     C24101   5.685  11.074   1.177  0.0146 -0.5357  1.1358
  920MOL0     C24102   5.697  11.226   1.182 -0.2883 -0.2944  0.6054
  920MOL0     C24103   5.606  11.300   1.085 -1.0738 -0.6183  0.4733
  920MOL0     C24104   5.653  11.447   1.061  0.3158  0.2114 -0.0753
  920MOL0     C24105   5.542  11.544   1.012  0.2949 -0.0882  0.1977
  920MOL0     C24106   5.590  11.678   0.974 -0.6107  0.0493  0.3174
  920MOL0     C24107   5.681  11.688   0.851 -0.4395  0.2242  0.1469
  920MOL0     C24108   5.725  11.829   0.834 -0.1739  0.6821  0.4219
  920MOL0    Cl24109   5.810  11.832   0.680  0.1256  0.3964  0.1544
  920MOL0     C24110   5.883  10.859   1.398  0.5958  0.3036 -0.3076
  920MOL0     C24111   5.895  10.735   1.446 -0.0434  0.4074 -0.8579
  920MOL0     O24112   5.946  10.513   1.636  0.1605 -0.3125 -0.4677
  920MOL0     C24113   5.690  10.281   1.554  0.0995  0.3713 -0.6755
  920MOL0     C24114   5.633  10.164   1.595  0.5870  0.3917 -0.7999
  920MOL0     N24115   5.365   9.498   1.667 -0.5618  0.0398  0.5410
  920MOL0     N24116   5.246   9.462   1.682  0.5946  0.0849  0.2155
  920MOL0     C24117   3.927   9.510   1.823 -0.2922 -0.5738  0.2666
  920MOL0     C24118   3.799   9.548   1.777 -0.0560 -0.1657 -0.8697
  920MOL0     C24119   3.428   9.722   1.636  0.6098 -0.0457  0.3783
  920MOL0     C24120   3.404   9.665   1.508  0.3042  0.1820  0.1162
  920MOL0     C24121   3.282   9.678   1.435 -0.0411  0.6245  0.3307
  920MOL0     C24122   3.173   9.741   1.491 -0.2035 -0.0164 -0.0344
  920MOL0     O24123   3.062   9.778   1.419 -0.9663  0.5795  0.2850
  920MOL0     C24124   3.078   9.810   1.287  0.3095  0.2502 -0.8179
  920MOL0     C24125   2.982   9.918   1.246 -1.0031 -0.0855  0.1743
  920MOL0     C24126   2.847   9.864   1.185 -0.2826 -0.3548 -1.0704
  920MOL0     C24127   2.780   9.971   1.098  0.8456 -0.2624 -0.0602
  920MOL0     C24128   2.751  10.093   1.168 -0.4006 -0.0295  0.0228
  920MOL0     C24129   2.733  10.187   1.236  0.7722 -0.9078  0.2492
  920MOL0     C24130   3.193   9.794   1.622 -0.5836  0.3891 -0.3546
  920MOL0     C24131   3.314   9.780   1.692 -0.6382  0.0669 -0.2855
  920MOL0     C24132   3.320   9.837   1.833 -0.6147  0.0710  0.0249
  920MOL0     H24133   3.891   9.787   1.549  1.7016 -0.4970 -0.1999
  920MOL0     H24134   4.117   9.733   1.649  1.5605 -1.4860 -0.0251
  920MOL0     H24135   4.310   9.542   1.706  0.9442 -0.1194  0.6096
  920MOL0     H24136   4.302   9.695   1.790  0.6260  0.3335 -2.6402
  920MOL0     H24137   4.367   9.430   1.918 -0.2323  0.5385  2.2666
  920MOL0     H24138   4.342   9.585   2.004 -0.2844  0.8901  0.7343
  920MOL0     H24139   4.538   9.673   1.872  1.8999 -0.6971 -2.2016
  920MOL0     H24140   4.559   9.525   1.785  2.5462 -0.2731  1.3996
  920MOL0     H24141   4.571   9.529   2.081 -2.7161 -3.2975  0.0152
  920MOL0     H24142   4.622   9.394   1.985  0.6473  1.8684  1.3487
  920MOL0     H24143   4.777   9.669   2.005 -0.0668 -0.8038 -1.4372
  920MOL0     H24144   4.828   9.506   2.068  1.9812 -0.7618 -1.2987
  920MOL0     H24145   4.830   9.436   1.833 -1.5419  0.4898 -0.7837
  920MOL0     H24146   4.786   9.597   1.778  1.5032  0.3972 -0.0806
  920MOL0     H24147   5.014   9.651   1.927  0.8992 -2.0862  2.0991
  920MOL0     H24148   5.012   9.626   1.761 -1.6167 -1.6650 -2.2014
  920MOL0     H24149   5.071   9.423   1.972  2.5841 -0.4976 -0.6063
  920MOL0     H24150   5.019   9.367   1.813 -1.4542  0.7343  1.3721
  920MOL0     H24151   5.325   9.558   1.979 -3.8422 -0.8921  0.4851
  920MOL0     H24152   5.597   9.534   1.852  0.0039 -1.5492 -1.5231
  920MOL0     H24153   5.590   9.634   1.705 -1.8953 -0.8321 -1.3741
  920MOL0     H24154   5.516   9.697   1.995  0.3061 -1.3582 -0.7377
  920MOL0     H24155   5.647   9.758   1.902 -0.9035 -0.0458  2.1860
  920MOL0     H24156   5.453   9.921   1.938  0.5347  1.1278 -0.6723
  920MOL0     H24157   5.352   9.821   1.834 -0.6715  3.3758 -1.6354
  920MOL0     H24158   5.440   9.995   1.704 -0.9594 -0.3953  2.1519
  920MOL0     H24159   5.516   9.834   1.659  0.2191  0.6082  0.2192
  920MOL0     H24160   5.838  10.075   1.844  0.5306 -2.6359 -2.7852
  920MOL0     H24161   5.921  10.308   1.794  0.7227 -3.6090  1.2937
  920MOL0     H24162   5.609  10.604   1.320 -0.1384 -0.6539  3.7724
  920MOL0     H24163   5.600  10.841   1.216 -0.2641  3.8921  1.1839
  920MOL0     H24164   5.702  11.024   1.081 -0.6076 -1.2197  1.3709
  920MOL0     H24165   5.585  11.049   1.215 -0.7429  1.9555  0.9460
  920MOL0     H24166   5.685  11.260   1.285 -2.8969 -1.5622  0.8074
  920MOL0     H24167   5.799  11.244   1.146 -0.2615 -4.1669 -1.8899
  920MOL0     H24168   5.599  11.240   0.994 -2.6493 -2.8407  1.9493
  920MOL0     H24169   5.504  11.299   1.126  0.5076 -3.5021  5.0226
  920MOL0     H24170   5.725  11.435   0.979 -1.4556 -4.0756 -1.2491
  920MOL0     H24171   5.711  11.493   1.141  1.2427  2.3666 -1.8607
  920MOL0     H24172   5.463  11.555   1.087 -2.6365  0.6515 -2.7646
  920MOL0     H24173   5.489  11.483   0.939 -2.2416  0.1175  1.7364
  920MOL0     H24174   5.503  11.743   0.963 -2.2038 -1.5783  2.5544
  920MOL0     H24175   5.649  11.706   1.062  1.1648 -0.3698 -0.6939
  920MOL0     H24176   5.626  11.650   0.764 -1.4368 -0.5356  1.0882
  920MOL0     H24177   5.769  11.623   0.847  0.2770  1.2168 -1.1427
  920MOL0     H24178   5.641  11.898   0.831  0.2830  1.2465  0.3801
  920MOL0     H24179   5.788  11.862   0.917  0.3072  0.7576  0.0319
  920MOL0     H24180   5.971  10.923   1.398  0.1126  1.0008  0.9486
  920MOL0     H24181   5.988  10.693   1.485 -1.2841 -1.2913  0.4146
  920MOL0     H24182   5.645  10.325   1.465  1.8574  2.4109 -0.6432
  920MOL0     H24183   5.551  10.112   1.547  0.0134 -0.2035  0.7603
  920MOL0     H24184   3.953   9.432   1.895  4.4546 -0.0520 -0.5708
  920MOL0     H24185   3.717   9.491   1.818  0.7144 -1.1261 -0.6295
  920MOL0     H24186   3.483   9.614   1.454 -0.1534  1.3734 -1.7800
  920MOL0     H24187   3.273   9.651   1.330  0.8263 -0.4440  0.5145
  920MOL0     H24188   3.066   9.726   1.217 -2.1633  0.3932 -0.6479
  920MOL0     H24189   3.179   9.850   1.273  0.0167  1.3767  0.2011
  920MOL0     H24190   3.037   9.966   1.165 -1.1965 -1.2976 -0.7009
  920MOL0     H24191   2.976   9.993   1.327 -0.9710  0.6365 -0.4779
  920MOL0     H24192   2.794   9.845   1.278 -0.6271  0.4901 -1.0860
  920MOL0     H24193   2.856   9.776   1.121  0.3599 -0.9139 -0.2357
  920MOL0     H24194   2.841   9.999   1.012  1.4315  0.6351  0.6348
  920MOL0     H24195   2.679   9.934   1.075  1.0085 -0.8043  0.0911
  920MOL0     H24196   2.729  10.275   1.296  0.3599  0.6829 -1.9988
  920MOL0     H24197   3.118   9.846   1.681 -0.4932  2.3779 -1.8847
  920MOL0     H24198   3.217   9.843   1.871  0.6767  0.6810  3.7564
  920MOL0     H24199   3.365   9.772   1.907  1.6138  2.0371  0.5006
  920MOL0     H24200   3.381   9.928   1.833  1.4224 -1.2514 -0.3486
  921MOL0     O24201   1.990   9.994   9.042  0.1824  0.3889  1.0458
  921MOL0     C24202   1.918   9.914   8.979  0.3585  0.6662 -0.2401
  921MOL0     O24203   1.953   9.847   8.861 -0.4034  1.1738  0.6882
  921MOL0     C24204   2.068   9.872   8.800 -0.1509 -1.4093 -0.4013
  921MOL0     C24205   2.149   9.993   8.795 -0.3232 -1.0841  0.1880
  921MOL0     C24206   2.266   9.990   8.715 -0.9948 -0.0827  0.7899
  921MOL0     C24207   2.308   9.870   8.648 -0.1812 -1.2928  0.6762
  921MOL0     O24208   2.429   9.857   8.580  0.9044  0.0048  0.1481
  921MOL0     C24209   2.414   9.866   8.433  0.3914  0.0453 -1.0047
  921MOL0     C24210   2.538   9.832   8.362 -0.3654 -0.3782 -0.4696
  921MOL0     C24211   2.571   9.680   8.378 -0.5231  0.2026  1.7968
  921MOL0     C24212   2.690   9.643   8.284 -0.0589  0.1923  0.0448
  921MOL0     C24213   2.745   9.490   8.312  1.0072 -0.8991  1.1048
  921MOL0     C24214   2.837   9.497   8.445  0.5063 -0.9841  0.8365
  921MOL0     C24215   2.902   9.363   8.479 -0.3027 -0.0721  1.0729
  921MOL0     C24216   2.996   9.388   8.594 -0.1249 -0.6704  0.2060
  921MOL0     N24217   3.053   9.258   8.634 -0.1883  0.4029 -0.0375
  921MOL0     C24218   3.015   9.160   8.725  0.3487 -0.1567  0.5747
  921MOL0     C24219   3.117   9.072   8.721  0.5130  0.2232  0.3736
  921MOL0     C24220   3.117   8.960   8.817 -0.5135 -0.4853  0.8440
  921MOL0     C24221   3.047   8.835   8.764  0.5717 -0.6937  0.0767
  921MOL0     C24222   3.045   8.716   8.861  0.6335  1.2385  0.6017
  921MOL0     C24223   2.919   8.705   8.946 -0.1105  0.0626  0.0177
  921MOL0     O24224   2.916   8.587   9.024  0.9417 -0.0808 -0.0438
  921MOL0     C24225   2.800   8.545   9.086  1.0465 -0.0162 -0.7310
  921MOL0     C24226   2.673   8.605   9.089  0.0951  0.1460  0.5427
  921MOL0     C24227   2.564   8.560   9.174 -0.2138  1.1103  0.4540
  921MOL0     C24228   2.577   8.450   9.257 -0.3930  0.7453  0.1901
  921MOL0     C24229   2.470   8.422   9.356 -1.0006  0.4400 -0.2705
  921MOL0     O24230   2.493   8.322   9.443  0.9296  0.7322 -0.1516
  921MOL0     C24231   2.385   8.292   9.528  0.1221 -1.0372  0.9954
  921MOL0     C24232   2.265   8.230   9.491  0.1911  1.0502 -0.4931
  921MOL0     C24233   2.162   8.220   9.580  0.6315  0.7013 -0.5394
  921MOL0     C24234   2.173   8.266   9.711 -0.2955 -0.5595 -0.0760
  921MOL0     O24235   2.071   8.263   9.800  0.4534 -0.4070  0.6165
  921MOL0     C24236   1.931   8.241   9.763  0.1210  0.0670 -0.3472
  921MOL0     C24237   1.843   8.255   9.895  0.0640 -0.4894  0.5291
  921MOL0     C24238   1.717   8.165   9.878 -0.4016  0.3410  0.4723
  921MOL0     C24239   1.621   8.165   9.753 -0.1314  0.1775  1.0246
  921MOL0     C24240   1.494   8.072   9.770 -0.5344 -0.0403  0.6083
  921MOL0     C24241   1.392   8.092   9.659  0.0273  0.4767 -0.9248
  921MOL0     C24242   1.251   8.027   9.703  0.7338  0.8693  1.2342
  921MOL0     C24243   1.161   8.129   9.774  0.3393 -0.4758 -0.2098
  921MOL0    Cl24244   1.123   8.276   9.669  0.1508 -0.3154 -0.1421
  921MOL0     C24245   2.295   8.310   9.747  0.2109 -0.2334  0.5786
  921MOL0     C24246   2.402   8.334   9.657  0.5430  0.3512 -0.0002
  921MOL0     O24247   2.373   8.498   9.353 -0.5363  0.3748 -0.0479
  921MOL0     C24248   2.703   8.383   9.248  0.0278 -0.1755  0.7169
  921MOL0     C24249   2.812   8.436   9.169  0.5863 -0.0564  0.1980
  921MOL0     N24250   3.211   9.099   8.620  0.7608  0.1775 -0.5652
  921MOL0     N24251   3.169   9.216   8.580 -0.9872 -0.0091 -0.0974
  921MOL0     C24252   2.225   9.762   8.658  0.2814 -0.3617 -0.0197
  921MOL0     C24253   2.108   9.765   8.728  0.2900 -0.7019  0.3175
  921MOL0     C24254   1.791   9.863   9.040 -0.4858 -0.3864 -0.1568
  921MOL0     C24255   1.742   9.729   9.015 -1.1967  0.0199 -0.0553
  921MOL0     C24256   1.624   9.679   9.068 -0.2402 -0.2211 -0.3973
  921MOL0     C24257   1.551   9.767   9.158  0.9351  0.9705  0.1232
  921MOL0     O24258   1.429   9.728   9.209  0.0629  0.9477 -0.1275
  921MOL0     C24259   1.385   9.591   9.195 -0.3724  0.7501 -0.5158
  921MOL0     C24260   1.252   9.598   9.257 -0.3249  0.0158 -0.0315
  921MOL0     C24261   1.198   9.471   9.306  0.3210 -0.2544 -0.0505
  921MOL0     C24262   1.103   9.409   9.201 -0.2734  0.5819 -0.0069
  921MOL0     C24263   1.043   9.288   9.261  0.1040  0.2015  0.1916
  921MOL0     C24264   0.984   9.199   9.321 -0.0772  0.5449  0.3250
  921MOL0     C24265   1.604   9.887   9.200 -0.1716 -0.7768 -0.0256
  921MOL0     C24266   1.726   9.936   9.147  0.4003  0.6124 -1.3599
  921MOL0     C24267   1.773  10.072   9.215 -0.9536 -0.7687  0.3451
  921MOL0     H24268   2.133  10.080   8.857  1.3705 -1.0400  0.6185
  921MOL0     H24269   2.338  10.072   8.709 -1.2232  0.1823  1.6652
  921MOL0     H24270   2.331   9.800   8.407  0.0756  1.1824 -3.1338
  921MOL0     H24271   2.382   9.970   8.419  1.9630  0.5977 -0.6959
  921MOL0     H24272   2.619   9.889   8.410 -1.2823  0.7072 -0.1602
  921MOL0     H24273   2.539   9.867   8.258  1.1130 -1.3735 -0.8193
  921MOL0     H24274   2.487   9.622   8.339  0.4841 -1.3201  1.8155
  921MOL0     H24275   2.590   9.642   8.478  2.3157 -1.3202  0.8072
  921MOL0     H24276   2.651   9.644   8.182  0.8126 -1.9697 -0.3675
  921MOL0     H24277   2.774   9.712   8.297  0.2270 -0.4682  2.0641
  921MOL0     H24278   2.661   9.422   8.325 -1.9533  2.4439  0.8297
  921MOL0     H24279   2.819   9.461   8.237  2.4322  0.2480  1.9884
  921MOL0     H24280   2.910   9.577   8.429 -2.2853  1.6706  0.4155
  921MOL0     H24281   2.767   9.527   8.523  0.1764 -1.1990  0.6234
  921MOL0     H24282   2.947   9.320   8.390 -2.0389 -1.8498  1.0032
  921MOL0     H24283   2.825   9.291   8.510  0.6206 -1.4287  0.2937
  921MOL0     H24284   3.082   9.451   8.567  1.8519 -3.2230  0.1439
  921MOL0     H24285   2.951   9.430   8.684  1.0624 -2.0957  1.5230
  921MOL0     H24286   2.929   9.168   8.790  1.0627 -0.6340  1.6317
  921MOL0     H24287   3.222   8.933   8.832 -1.0411 -1.1633  4.0019
  921MOL0     H24288   3.077   8.990   8.914 -1.8360 -0.0281  0.1750
  921MOL0     H24289   2.948   8.856   8.723  1.2296 -0.2012 -1.3317
  921MOL0     H24290   3.108   8.804   8.679  2.1387  0.9131  0.5601
  921MOL0     H24291   3.135   8.716   8.922 -0.1779  0.4106  1.8291
  921MOL0     H24292   3.060   8.627   8.799 -0.9864  0.2419  1.5678
  921MOL0     H24293   2.835   8.704   8.877 -0.4916  1.4060  0.4273
  921MOL0     H24294   2.913   8.789   9.016  1.6120  0.0407  0.2363
  921MOL0     H24295   2.656   8.689   9.023 -1.5104 -0.3600  0.2498
  921MOL0     H24296   2.468   8.608   9.161 -1.3761 -0.8233  1.4551
  921MOL0     H24297   2.270   8.187   9.392 -0.3136 -3.1433  1.1251
  921MOL0     H24298   2.073   8.160   9.561  0.6676  1.0677 -1.9843
  921MOL0     H24299   1.897   8.311   9.686  2.7518  0.3532 -1.3396
  921MOL0     H24300   1.922   8.138   9.728 -1.6487  0.0030  0.2206
  921MOL0     H24301   1.903   8.233   9.984  1.1574  3.8530  1.0771
  921MOL0     H24302   1.813   8.359   9.904 -2.9060 -1.1460 -0.7931
  921MOL0     H24303   1.758   8.063   9.881  1.2218  0.9516  0.1074
  921MOL0     H24304   1.664   8.177   9.973 -0.2184  0.4554  0.5604
  921MOL0     H24305   1.670   8.135   9.659 -0.8341 -2.7263  1.5004
  921MOL0     H24306   1.587   8.269   9.752 -0.7005  0.0604 -1.8378
  921MOL0     H24307   1.447   8.105   9.863 -0.5305 -0.2600  0.6868
  921MOL0     H24308   1.522   7.967   9.777  3.2882  0.4763 -2.9404
  921MOL0     H24309   1.378   8.200   9.643 -2.0079  0.2372 -1.0714
  921MOL0     H24310   1.432   8.059   9.562  1.7478 -1.5445  0.3933
  921MOL0     H24311   1.272   7.938   9.763  1.2810 -1.4069 -2.0841
  921MOL0     H24312   1.206   7.984   9.614  1.2318  0.4474  1.1846
  921MOL0     H24313   1.069   8.086   9.815 -1.0530  0.6228 -2.0553
  921MOL0     H24314   1.215   8.172   9.859  0.5153 -1.7326  0.3403
  921MOL0     H24315   2.298   8.346   9.849 -1.0073 -1.4773  1.0895
  921MOL0     H24316   2.492   8.387   9.684  1.1319  0.4304 -1.9813
  921MOL0     H24317   2.724   8.290   9.300  4.1269 -0.9873 -1.9039
  921MOL0     H24318   2.907   8.385   9.158  0.3494 -0.9982  2.2336
  921MOL0     H24319   2.252   9.670   8.607  0.1986 -0.0986 -0.5468
  921MOL0     H24320   2.058   9.671   8.750 -0.9445  0.0240  0.7356
  921MOL0     H24321   1.790   9.652   8.955 -2.0720 -0.9733  0.4740
  921MOL0     H24322   1.579   9.584   9.041 -0.4086  0.2536 -1.8519
  921MOL0     H24323   1.445   9.529   9.262 -1.6332  0.2304  0.1640
  921MOL0     H24324   1.372   9.555   9.092  0.8628  0.5111 -0.6020
  921MOL0     H24325   1.184   9.651   9.190  1.3386  2.6950  0.2691
  921MOL0     H24326   1.252   9.660   9.347 -1.0340 -0.8616  0.5915
  921MOL0     H24327   1.144   9.477   9.401  0.0587 -4.7855  0.2889
  921MOL0     H24328   1.289   9.415   9.330  1.4612  1.2892 -0.6131
  921MOL0     H24329   1.029   9.475   9.153 -1.3473  0.4109  1.3523
  921MOL0     H24330   1.159   9.359   9.121 -0.8522 -0.1366  0.0292
  921MOL0     H24331   0.945   9.124   9.387  0.2244  0.8999  0.9137
  921MOL0     H24332   1.557   9.946   9.278  0.7007  0.1991 -0.2223
  921MOL0     H24333   1.690  10.114   9.273  1.6937  3.3964  1.5844
  921MOL0     H24334   1.861  10.078   9.279 -0.4581  0.5544 -0.4237
  921MOL0     H24335   1.787  10.137   9.128 -0.2510  0.5878  1.4244
  922MOL0     O24336  10.081   0.626   9.502  0.0150  0.3886 -0.1064
  922MOL0     C24337  10.020   0.629   9.398 -0.0287  0.6856  0.3903
  922MOL0     O24338  10.071   0.653   9.276  0.2943 -0.0860  0.2162
  922MOL0     C24339  10.201   0.677   9.269 -0.1175 -0.9945 -0.2388
  922MOL0     C24340  10.295   0.574   9.238 -0.5433  0.0796  0.6193
  922MOL0     C24341  10.435   0.593   9.235 -0.3971 -0.6813  0.5519
  922MOL0     C24342  10.475   0.724   9.262 -0.1278 -0.2755 -0.2559
  922MOL0     O24343  10.614   0.732   9.269  0.0930  0.3566  0.0735
  922MOL0     C24344  10.687   0.861   9.292 -0.2781 -0.4617 -0.5223
  922MOL0     C24345  10.839   0.825   9.303 -0.5813 -0.1124 -0.2378
  922MOL0     C24346  10.893   0.827   9.448 -0.1096  0.4675  0.3339
  922MOL0     C24347  11.028   0.763   9.469  0.2514  0.4444  0.1746
  922MOL0     C24348  11.059   0.776   9.619  0.1786 -0.2394  0.2529
  922MOL0     C24349  11.200   0.723   9.662 -1.1277  0.3116 -0.2222
  922MOL0     C24350  11.197   0.564   9.692 -0.2938 -0.0193 -0.3313
  922MOL0     C24351  11.227   0.543   9.844 -0.2693  0.5181  0.2309
  922MOL0     N24352  11.131   0.597   9.935  0.4614 -0.3140  0.9405
  922MOL0     C24353  10.995   0.562   9.931 -0.2798 -0.6271  0.0473
  922MOL0     C24354  10.939   0.620  10.040  0.6972  0.5922 -0.5862
  922MOL0     C24355  10.794   0.605  10.074  0.5045 -0.0845 -1.1650
  922MOL0     C24356  10.738   0.475  10.139 -0.4095 -0.2503  0.2001
  922MOL0     C24357  10.832   0.412  10.242  0.1661 -0.5081 -0.4401
  922MOL0     C24358  10.839   0.497  10.371  0.0586  0.6308  0.0570
  922MOL0     O24359  10.904   0.416  10.474 -0.3713 -1.3419 -0.1966
  922MOL0     C24360  11.045   0.413  10.469  0.0596  0.3753 -0.6268
  922MOL0     C24361  11.108   0.309  10.541  0.2943 -0.2594 -0.0968
  922MOL0     C24362  11.245   0.303  10.545 -0.5993  0.0575  0.4553
  922MOL0     C24363  11.337   0.392  10.480  0.7173  0.7081  0.5237
  922MOL0     C24364  11.481   0.375  10.479 -0.6727  0.4421  0.2168
  922MOL0     O24365  11.529   0.263  10.553 -0.3213  0.8591  0.7751
  922MOL0     C24366  11.658   0.211  10.537  0.3804 -0.0663 -0.4018
  922MOL0     C24367  11.728   0.228  10.420 -0.6097  0.8710 -0.0068
  922MOL0     C24368  11.853   0.166  10.406 -0.8016  0.9105 -0.0146
  922MOL0     C24369  11.916   0.107  10.514  0.1365 -0.2130  0.3207
  922MOL0     O24370  12.032   0.040  10.506 -0.6399 -0.4169  0.8479
  922MOL0     C24371  12.060  -0.027  10.380 -0.2064  0.0423  0.3936
  922MOL0     C24372  12.193  -0.108  10.387 -0.1779 -1.3650  0.3721
  922MOL0     C24373  12.309  -0.029  10.329  0.5210 -0.1082  0.3543
  922MOL0     C24374  12.441  -0.097  10.362 -0.7832 -0.7009 -0.3333
  922MOL0     C24375  12.553  -0.043  10.279  0.6494 -0.4908 -0.9219
  922MOL0     C24376  12.675  -0.113  10.318 -0.7276 -0.5315  0.5140
  922MOL0     C24377  12.800  -0.043  10.255  0.2710 -0.9742  0.7943
  922MOL0     C24378  12.824  -0.072  10.104  0.0579  0.1423  0.2025
  922MOL0    Cl24379  12.864  -0.243  10.084  0.3005 -0.0577 -0.5462
  922MOL0     C24380  11.850   0.113  10.637  0.2504  0.9149 -0.0150
  922MOL0     C24381  11.715   0.156  10.658 -0.2893 -0.2802 -0.3859
  922MOL0     O24382  11.554   0.459  10.431 -0.9658  0.1304  0.1800
  922MOL0     C24383  11.277   0.497  10.410 -1.1653 -0.7900 -0.2359
  922MOL0     C24384  11.133   0.509  10.410  0.1043 -0.0953  0.0710
  922MOL0     N24385  11.041   0.698  10.097  0.3813 -0.4391  0.7599
  922MOL0     N24386  11.152   0.686  10.030 -0.1331  0.9536 -0.0773
  922MOL0     C24387  10.393   0.825   9.291  0.3147  0.6509 -0.6053
  922MOL0     C24388  10.258   0.800   9.289  0.5661 -0.2046 -0.7628
  922MOL0     C24389   9.876   0.611   9.411 -0.8742  0.3568  0.3196
  922MOL0     C24390   9.827   0.491   9.476  0.6719  0.5087  0.2993
  922MOL0     C24391   9.688   0.460   9.465  0.0525  0.4052 -0.0393
  922MOL0     C24392   9.604   0.544   9.387 -0.2200 -0.9323 -1.1279
  922MOL0     O24393   9.472   0.523   9.372 -0.4906 -1.1495  0.5969
  922MOL0     C24394   9.408   0.409   9.406 -0.3661  0.0556  0.6475
  922MOL0     C24395   9.265   0.397   9.362 -0.2150  1.2586  0.1487
  922MOL0     C24396   9.250   0.414   9.210 -0.1747  0.0035 -0.4360
  922MOL0     C24397   9.109   0.390   9.152 -0.2255  0.0373  0.7177
  922MOL0     C24398   9.009   0.468   9.226 -0.4475  0.6007  0.7493
  922MOL0     C24399   8.925   0.541   9.275  0.3150  0.1817 -0.5360
  922MOL0     C24400   9.652   0.665   9.344  0.2264 -0.1962  0.1242
  922MOL0     C24401   9.791   0.695   9.354 -0.4090 -0.1797  0.5746
  922MOL0     C24402   9.833   0.831   9.297 -0.2230  0.2229  0.3643
  922MOL0     H24403  10.249   0.478   9.216 -2.4600  1.5092 -2.1246
  922MOL0     H24404  10.506   0.512   9.218 -0.8520 -1.2285  1.2309
  922MOL0     H24405  10.679   0.936   9.213  1.8448 -1.3519 -1.6665
  922MOL0     H24406  10.661   0.913   9.385  1.7269 -0.7125  0.2253
  922MOL0     H24407  10.901   0.896   9.247  0.5648 -1.0040 -0.1506
  922MOL0     H24408  10.862   0.730   9.254  2.1639  0.8442 -0.9899
  922MOL0     H24409  10.814   0.788   9.513  1.9397 -1.6452  1.7021
  922MOL0     H24410  10.900   0.930   9.483  2.5682  1.1728 -1.9328
  922MOL0     H24411  11.030   0.656   9.443  4.0932  0.6400 -1.0439
  922MOL0     H24412  11.105   0.813   9.410 -0.3621  1.6672  0.3887
  922MOL0     H24413  11.062   0.880   9.653  2.5170 -0.9980  2.7420
  922MOL0     H24414  10.991   0.717   9.681 -2.3032  4.9358  3.0469
  922MOL0     H24415  11.281   0.744   9.591 -2.4224 -0.8614 -2.1364
  922MOL0     H24416  11.216   0.781   9.753 -1.6829  2.3794 -1.3580
  922MOL0     H24417  11.287   0.524   9.644  2.9283  1.0846  4.1737
  922MOL0     H24418  11.103   0.517   9.664 -1.9121  2.6079  0.3446
  922MOL0     H24419  11.222   0.436   9.866  1.8286  0.5895  1.3582
  922MOL0     H24420  11.327   0.579   9.871 -0.7468 -0.8496  4.7403
  922MOL0     H24421  10.944   0.494   9.864 -0.6238 -1.2581  0.9201
  922MOL0     H24422  10.770   0.692  10.136  2.8427  1.3679 -2.1539
  922MOL0     H24423  10.743   0.623   9.979  1.8755  2.9395 -1.4489
  922MOL0     H24424  10.640   0.488  10.186 -0.8030  0.7312 -0.8518
  922MOL0     H24425  10.727   0.400  10.060  1.4302 -0.2690 -0.0790
  922MOL0     H24426  10.931   0.410  10.196 -0.1437  0.0157 -1.1599
  922MOL0     H24427  10.797   0.318  10.287 -1.1018  0.7586  1.3987
  922MOL0     H24428  10.737   0.510  10.409 -0.0801  0.1189 -0.1424
  922MOL0     H24429  10.891   0.590  10.347  1.2511 -0.3775 -1.4583
  922MOL0     H24430  11.040   0.254  10.606 -1.8047  1.0788 -1.0482
  922MOL0     H24431  11.280   0.217  10.602 -0.2210 -0.3834 -0.4214
  922MOL0     H24432  11.680   0.284  10.341 -1.2506  1.3281  0.7007
  922MOL0     H24433  11.899   0.167  10.308  3.9539 -2.6516  1.7735
  922MOL0     H24434  11.983  -0.104  10.383  0.1285 -0.4084  5.5650
  922MOL0     H24435  12.061   0.038  10.291 -0.6281 -0.5826 -0.0761
  922MOL0     H24436  12.216  -0.137  10.490  0.2769  0.8224  0.9559
  922MOL0     H24437  12.188  -0.199  10.328 -3.1086  0.2065 -2.0842
  922MOL0     H24438  12.307  -0.015  10.220  1.3221  0.1592  0.3653
  922MOL0     H24439  12.300   0.074  10.364  1.4050  0.8829 -2.1198
  922MOL0     H24440  12.432  -0.205  10.343  1.2758 -0.8571 -0.5669
  922MOL0     H24441  12.479  -0.081  10.463  1.0968  1.5151 -1.3048
  922MOL0     H24442  12.555   0.066  10.283 -1.3615 -0.3674 -2.3474
  922MOL0     H24443  12.529  -0.057  10.174 -0.3971  2.3197 -1.1192
  922MOL0     H24444  12.689  -0.120  10.426  2.6083 -0.6324  0.1769
  922MOL0     H24445  12.658  -0.212  10.274 -4.7847  0.0002  0.5692
  922MOL0     H24446  12.887  -0.087  10.306  1.3051 -1.3131 -1.1866
  922MOL0     H24447  12.804   0.062  10.286  1.3535 -0.6008 -0.5392
  922MOL0     H24448  12.733  -0.058  10.045 -1.5702  3.5157  3.1135
  922MOL0     H24449  12.905  -0.006  10.072  0.6876 -0.8795 -0.3398
  922MOL0     H24450  11.906   0.067  10.718 -2.1045  0.5307  1.4893
  922MOL0     H24451  11.648   0.155  10.744 -1.0127 -0.6228 -0.9467
  922MOL0     H24452  11.336   0.560  10.344  1.7554 -1.2904  1.7007
  922MOL0     H24453  11.110   0.603  10.360  0.7592  0.1152  0.1505
  922MOL0     H24454  10.420   0.926   9.321 -1.7089  1.4037 -1.1136
  922MOL0     H24455  10.190   0.880   9.319  1.8226  1.1715 -1.4628
  922MOL0     H24456   9.898   0.424   9.524  2.8066  1.6508 -1.0960
  922MOL0     H24457   9.653   0.371   9.516  2.4695 -1.3890 -1.3330
  922MOL0     H24458   9.411   0.384   9.513 -4.0216 -0.9936  0.6575
  922MOL0     H24459   9.464   0.329   9.356  0.3601  1.6742 -1.2254
  922MOL0     H24460   9.203   0.474   9.408  0.2030  1.7047 -0.0300
  922MOL0     H24461   9.213   0.309   9.400 -0.4199  1.2709 -0.1057
  922MOL0     H24462   9.313   0.335   9.169  3.6019  2.0491  0.9214
  922MOL0     H24463   9.289   0.512   9.181  2.2343 -0.6416  0.3265
  922MOL0     H24464   9.106   0.416   9.046  0.2314 -1.3729  0.3430
  922MOL0     H24465   9.087   0.283   9.158  1.2968 -0.4607 -1.4636
  922MOL0     H24466   8.863   0.615   9.321 -0.6468 -0.4039 -0.8563
  922MOL0     H24467   9.590   0.730   9.283  2.6261  0.0043 -2.3263
  922MOL0     H24468   9.887   0.874   9.382 -0.0737  2.8985 -0.9717
  922MOL0     H24469   9.899   0.838   9.210  1.3470  2.2599  1.6187
  922MOL0     H24470   9.751   0.900   9.273  1.8226  2.6043 -0.3062
  923MOL0     O24471   0.519   5.182   7.057  0.3945 -0.0679  0.9821
  923MOL0     C24472   0.438   5.271   7.083 -0.2681  0.0568 -0.3575
  923MOL0     O24473   0.459   5.408   7.085  0.3627  0.0251  0.3270
  923MOL0     C24474   0.565   5.473   7.028  0.8349 -0.4132  0.2139
  923MOL0     C24475   0.649   5.420   6.922  0.6262 -0.5005 -0.0884
  923MOL0     C24476   0.752   5.499   6.861  1.1142 -1.0116  0.8837
  923MOL0     C24477   0.777   5.630   6.901 -0.3574 -0.0637  0.1841
  923MOL0     O24478   0.876   5.698   6.828  0.3198  0.8090 -0.4507
  923MOL0     C24479   0.942   5.792   6.903 -0.0978  0.2800 -0.3027
  923MOL0     C24480   0.944   5.935   6.843 -0.0802 -0.7291  0.0949
  923MOL0     C24481   0.807   5.992   6.857 -0.4033 -0.3964 -0.3735
  923MOL0     C24482   0.729   5.969   6.730  0.0465  0.2882 -0.4121
  923MOL0     C24483   0.602   6.058   6.730  0.9257  0.1183  0.4677
  923MOL0     C24484   0.514   6.022   6.844  0.3402 -0.3683 -0.2731
  923MOL0     C24485   0.376   6.080   6.816  0.6764 -0.3719  0.7259
  923MOL0     C24486   0.271   6.045   6.931 -0.4317  0.0277  0.0397
  923MOL0     N24487   0.269   5.900   6.971 -0.0405 -0.1551  0.0227
  923MOL0     C24488   0.214   5.805   6.884  0.3310  0.7899 -0.1079
  923MOL0     C24489   0.253   5.686   6.937 -0.4052 -0.2307 -0.2114
  923MOL0     C24490   0.230   5.560   6.865  0.0978 -0.2579  0.4007
  923MOL0     C24491   0.090   5.505   6.893  0.1822 -0.1391  0.4406
  923MOL0     C24492   0.061   5.379   6.812  0.0550 -0.4328 -0.3046
  923MOL0     C24493   0.018   5.262   6.888  0.6548  0.8433  0.0479
  923MOL0     O24494   0.019   5.143   6.812 -1.4798 -0.6918 -0.1158
  923MOL0     C24495  -0.070   5.047   6.845  0.3665  0.0303  0.0668
  923MOL0     C24496  -0.166   5.022   6.747  0.9847  0.9359  0.1351
  923MOL0     C24497  -0.259   4.922   6.768  0.0225 -0.4946  0.6047
  923MOL0     C24498  -0.252   4.840   6.889 -0.3983 -0.5790 -0.5071
  923MOL0     C24499  -0.336   4.728   6.919  0.5173 -0.7584  0.3258
  923MOL0     O24500  -0.440   4.713   6.832  0.2794  0.1461 -0.2975
  923MOL0     C24501  -0.547   4.636   6.876 -0.0079  0.4432  0.1676
  923MOL0     C24502  -0.538   4.497   6.914  0.2194  0.8927  0.0026
  923MOL0     C24503  -0.641   4.416   6.957  0.1247 -0.3370 -0.6651
  923MOL0     C24504  -0.766   4.475   6.961  0.3836  0.1544 -0.1768
  923MOL0     O24505  -0.889   4.416   6.992 -0.2349 -0.9568  0.0961
  923MOL0     C24506  -0.880   4.300   7.070 -0.7103 -0.2411 -0.0207
  923MOL0     C24507  -1.011   4.264   7.125  0.5243 -0.0728  0.3014
  923MOL0     C24508  -1.055   4.355   7.242  0.9009 -0.2022 -0.5327
  923MOL0     C24509  -1.186   4.309   7.297  0.2638  0.4347  0.2103
  923MOL0     C24510  -1.227   4.384   7.417 -0.6728  0.3723 -0.3754
  923MOL0     C24511  -1.382   4.398   7.434  0.7609 -0.6349 -0.4414
  923MOL0     C24512  -1.408   4.508   7.537 -1.3161  0.0533  0.1659
  923MOL0     C24513  -1.554   4.533   7.580 -0.7229  0.6559 -0.0109
  923MOL0    Cl24514  -1.572   4.645   7.718 -0.0568 -0.2168 -0.0401
  923MOL0     C24515  -0.779   4.613   6.923 -0.5958 -0.1380  0.0643
  923MOL0     C24516  -0.680   4.690   6.878 -0.3855  0.5488  0.3578
  923MOL0     O24517  -0.306   4.651   7.009 -0.2640 -1.0544 -0.5217
  923MOL0     C24518  -0.151   4.864   6.985  0.0176 -0.1197 -0.4630
  923MOL0     C24519  -0.057   4.971   6.957  0.3873  0.5100  0.2598
  923MOL0     N24520   0.323   5.708   7.052  0.2589 -0.4482 -0.0764
  923MOL0     N24521   0.328   5.833   7.073 -0.0788  1.2762  1.1121
  923MOL0     C24522   0.689   5.689   6.991  0.7497  0.4875 -0.3284
  923MOL0     C24523   0.589   5.605   7.062 -0.8238  0.0089 -0.1639
  923MOL0     C24524   0.311   5.224   7.149  0.5352 -0.5743 -1.2036
  923MOL0     C24525   0.222   5.329   7.201  0.4325  0.1363 -0.1045
  923MOL0     C24526   0.113   5.298   7.285  0.8929  0.2893  1.0200
  923MOL0     C24527   0.074   5.165   7.306  0.2168 -0.3957  0.0912
  923MOL0     O24528  -0.020   5.147   7.400  0.4398  0.2392  0.2730
  923MOL0     C24529  -0.156   5.126   7.357 -0.2249 -1.2545  0.4223
  923MOL0     C24530  -0.266   5.172   7.450  0.6317 -0.4976 -0.4245
  923MOL0     C24531  -0.254   5.310   7.509  0.0792 -0.7630 -0.4795
  923MOL0     C24532  -0.293   5.428   7.421  0.6379  0.1216 -0.2230
  923MOL0     C24533  -0.217   5.440   7.293  0.7885 -0.3527 -0.2567
  923MOL0     C24534  -0.178   5.455   7.178  0.6327 -0.2024 -0.2624
  923MOL0     C24535   0.157   5.063   7.261  0.3948 -0.4473  0.8123
  923MOL0     C24536   0.270   5.089   7.179 -1.0744 -0.4166  0.8259
  923MOL0     C24537   0.355   4.969   7.133 -0.0777 -0.4623 -0.3708
  923MOL0     H24538   0.630   5.326   6.873  0.7246  0.0730 -1.2500
  923MOL0     H24539   0.804   5.447   6.781  1.3079  0.8411 -0.2646
  923MOL0     H24540   0.905   5.806   7.005  3.3520  0.9340  1.0160
  923MOL0     H24541   1.046   5.759   6.914 -0.9660 -2.4759  0.6154
  923MOL0     H24542   0.994   5.928   6.746  0.0927 -3.9005  0.3030
  923MOL0     H24543   1.011   5.998   6.901  1.2808  0.4431 -2.5995
  923MOL0     H24544   0.808   6.101   6.855 -2.7888 -0.3385 -1.6444
  923MOL0     H24545   0.754   5.983   6.952 -0.1339  1.7639  0.0349
  923MOL0     H24546   0.790   5.992   6.643  2.2538 -1.1437  0.6608
  923MOL0     H24547   0.699   5.864   6.721 -2.8375  0.8350  1.2535
  923MOL0     H24548   0.634   6.162   6.719 -1.4978  0.9060  0.2053
  923MOL0     H24549   0.552   6.043   6.634  1.7166  2.3522 -0.3609
  923MOL0     H24550   0.506   5.914   6.858  2.4799 -0.5107  0.1598
  923MOL0     H24551   0.548   6.060   6.941 -1.7038  2.8974 -0.6410
  923MOL0     H24552   0.335   6.053   6.718  2.7248  0.2119 -0.3428
  923MOL0     H24553   0.374   6.189   6.805  0.7442 -0.5942 -2.3328
  923MOL0     H24554   0.302   6.113   7.011  0.5489 -0.2172 -0.1227
  923MOL0     H24555   0.167   6.072   6.910 -0.9836 -1.3985  0.8004
  923MOL0     H24556   0.160   5.827   6.792  2.0129 -2.3161 -2.0396
  923MOL0     H24557   0.239   5.578   6.758 -0.1816  0.8406  0.5498
  923MOL0     H24558   0.307   5.488   6.893  0.1284 -0.0435  0.8790
  923MOL0     H24559   0.076   5.496   7.001  2.3155 -0.9453  0.6875
  923MOL0     H24560   0.023   5.583   6.856  2.3313  0.8170 -1.7247
  923MOL0     H24561   0.157   5.366   6.761 -0.1987  4.1966 -2.5380
  923MOL0     H24562  -0.016   5.403   6.737 -1.7387 -0.1915  1.5226
  923MOL0     H24563  -0.081   5.290   6.928  0.7256  1.9086 -0.4717
  923MOL0     H24564   0.084   5.253   6.974 -0.5076 -0.4868  0.8477
  923MOL0     H24565  -0.164   5.074   6.652 -4.4942  0.2528 -0.6729
  923MOL0     H24566  -0.342   4.909   6.700  0.7786 -1.1584 -0.2161
  923MOL0     H24567  -0.438   4.454   6.924 -1.2439 -2.2168  3.9653
  923MOL0     H24568  -0.607   4.316   6.981  3.2067  0.1862 -2.3693
  923MOL0     H24569  -0.838   4.217   7.012 -2.2462 -1.4682  0.5679
  923MOL0     H24570  -0.806   4.325   7.147 -1.6095 -1.7305  1.3861
  923MOL0     H24571  -1.093   4.246   7.055 -0.6183  2.6221  0.8253
  923MOL0     H24572  -0.994   4.164   7.165 -0.1331 -0.8752 -1.3650
  923MOL0     H24573  -0.982   4.351   7.324  1.8110  0.9308 -1.2427
  923MOL0     H24574  -1.065   4.461   7.216 -1.3515  0.1851  1.5649
  923MOL0     H24575  -1.191   4.202   7.320 -5.5121  0.1256 -0.8961
  923MOL0     H24576  -1.259   4.327   7.218  2.3120 -0.9782 -2.1659
  923MOL0     H24577  -1.184   4.485   7.413  1.2661 -0.4319 -1.1233
  923MOL0     H24578  -1.176   4.335   7.501 -0.7571 -1.4780 -1.3597
  923MOL0     H24579  -1.438   4.429   7.345 -0.9220 -2.1473  0.0149
  923MOL0     H24580  -1.424   4.302   7.467 -0.7337 -0.1497 -0.8652
  923MOL0     H24581  -1.384   4.602   7.487  1.9121 -1.5222 -1.5854
  923MOL0     H24582  -1.346   4.504   7.626 -0.7917  1.3854 -0.1198
  923MOL0     H24583  -1.596   4.566   7.485 -0.6555 -1.9918 -1.0427
  923MOL0     H24584  -1.598   4.435   7.601  0.4337  0.0133 -0.5261
  923MOL0     H24585  -0.871   4.670   6.932 -2.5967 -2.8851 -1.3053
  923MOL0     H24586  -0.686   4.797   6.859  2.8594  0.6201 -0.8419
  923MOL0     H24587  -0.145   4.808   7.078 -0.9501  1.4697  0.6125
  923MOL0     H24588   0.029   4.982   7.022  0.4450 -1.6812  0.6132
  923MOL0     H24589   0.691   5.790   7.030 -1.0675  0.2677  0.4544
  923MOL0     H24590   0.528   5.650   7.139 -0.9331 -1.2200  0.4847
  923MOL0     H24591   0.239   5.435   7.186  0.2338  0.0965 -0.6436
  923MOL0     H24592   0.044   5.376   7.318 -0.1303 -0.3233  0.3813
  923MOL0     H24593  -0.165   5.022   7.325  2.1147 -1.4411  0.1707
  923MOL0     H24594  -0.172   5.190   7.269  0.5905 -1.6078  0.0023
  923MOL0     H24595  -0.274   5.108   7.538 -2.7468  1.2045  0.6873
  923MOL0     H24596  -0.361   5.161   7.396 -0.6431 -2.0437  1.9744
  923MOL0     H24597  -0.158   5.325   7.559 -0.7810  1.3400  0.6971
  923MOL0     H24598  -0.328   5.303   7.590  0.1769  1.1707 -0.1675
  923MOL0     H24599  -0.401   5.421   7.406  1.1162 -2.7244 -3.8076
  923MOL0     H24600  -0.271   5.517   7.480 -1.6016 -0.4796  1.6859
  923MOL0     H24601  -0.157   5.477   7.076  1.0767 -1.8839 -0.5723
  923MOL0     H24602   0.133   4.962   7.293 -1.1933 -0.7944 -1.2344
  923MOL0     H24603   0.305   4.873   7.148  1.2424 -1.3269 -1.3311
  923MOL0     H24604   0.376   4.979   7.026  2.9529 -2.6074 -0.1106
  923MOL0     H24605   0.449   4.969   7.189 -0.3801  0.0060  0.1550
  924MOL0     O24606   3.642   9.776   8.601  0.1334 -0.0157 -0.3992
  924MOL0     C24607   3.594   9.773   8.487 -0.0915  0.6239  0.0561
  924MOL0     O24608   3.671   9.756   8.369 -0.2800  0.0374  0.3318
  924MOL0     C24609   3.808   9.736   8.390 -0.0498 -0.3748  0.2733
  924MOL0     C24610   3.860   9.607   8.383 -0.5204  0.5621  0.1069
  924MOL0     C24611   3.997   9.591   8.400  0.2381  0.3571  0.8309
  924MOL0     C24612   4.087   9.695   8.415 -0.4310 -0.1330  0.0020
  924MOL0     O24613   4.223   9.668   8.413  0.2319 -0.0953 -0.2493
  924MOL0     C24614   4.307   9.772   8.450 -0.6136 -0.4063 -0.1917
  924MOL0     C24615   4.449   9.722   8.473  0.4168 -0.7436 -0.7111
  924MOL0     C24616   4.461   9.606   8.575 -0.0523  0.4164 -0.9065
  924MOL0     C24617   4.417   9.463   8.519  0.3291  0.0928 -0.0388
  924MOL0     C24618   4.389   9.383   8.646  0.1873 -1.2147 -0.6058
  924MOL0     C24619   4.330   9.247   8.635  0.3058 -0.7420 -1.0060
  924MOL0     C24620   4.181   9.257   8.595 -0.3999 -0.2155 -1.1432
  924MOL0     C24621   4.136   9.122   8.558  0.5741 -0.2841  0.8669
  924MOL0     N24622   3.986   9.129   8.537  0.1337 -0.0725  0.1233
  924MOL0     C24623   3.898   9.201   8.616 -0.3092 -0.2279  0.3057
  924MOL0     C24624   3.795   9.230   8.539 -0.0385 -0.4640 -0.1847
  924MOL0     C24625   3.689   9.323   8.576  1.0967 -1.0739  0.2162
  924MOL0     C24626   3.616   9.297   8.707  0.1843 -0.2140  0.7168
  924MOL0     C24627   3.571   9.151   8.718  0.3128  0.2641  0.1384
  924MOL0     C24628   3.529   9.134   8.863 -0.0776  0.2819  0.8246
  924MOL0     O24629   3.612   9.199   8.953 -0.3323  0.7939  0.1378
  924MOL0     C24630   3.742   9.156   8.995 -0.2056  0.1573  0.3685
  924MOL0     C24631   3.812   9.047   8.937 -0.3613  0.1415  0.9503
  924MOL0     C24632   3.939   9.021   8.967  0.4498  0.8988 -0.6978
  924MOL0     C24633   4.003   9.086   9.072 -0.3284 -0.7609  0.5689
  924MOL0     C24634   4.145   9.054   9.123 -0.0746 -0.1997  0.2498
  924MOL0     O24635   4.185   8.928   9.093  0.5044  0.0022  0.1937
  924MOL0     C24636   4.316   8.902   9.123 -0.3844  0.1008  0.1429
  924MOL0     C24637   4.413   8.973   9.054  1.4728 -0.4301  0.4560
  924MOL0     C24638   4.553   8.941   9.065 -0.5873 -0.1846  0.2980
  924MOL0     C24639   4.584   8.837   9.155 -0.4014 -0.6677 -0.4349
  924MOL0     O24640   4.707   8.788   9.169  0.0516  0.2438 -0.7306
  924MOL0     C24641   4.779   8.781   9.054 -0.8678 -0.1000  0.0734
  924MOL0     C24642   4.913   8.725   9.091  0.6108 -1.2724 -1.0901
  924MOL0     C24643   5.015   8.729   8.969 -0.1170 -0.2008 -0.0091
  924MOL0     C24644   5.151   8.667   9.016 -0.4126  0.9676 -1.5075
  924MOL0     C24645   5.257   8.676   8.903 -0.0402 -0.1995 -0.4535
  924MOL0     C24646   5.386   8.597   8.928  1.1193 -0.7502  0.3593
  924MOL0     C24647   5.491   8.621   8.824 -0.1101  1.0289  1.0436
  924MOL0     C24648   5.638   8.648   8.868  0.5981  0.4339  0.1988
  924MOL0    Cl24649   5.638   8.817   8.931 -0.1684  0.0831  0.2996
  924MOL0     C24650   4.489   8.777   9.232  0.1406  0.6558  0.2176
  924MOL0     C24651   4.354   8.808   9.214 -0.4338  0.6241 -0.8510
  924MOL0     O24652   4.210   9.145   9.181  0.4296  0.3945  0.0807
  924MOL0     C24653   3.932   9.194   9.134  0.0449  0.7548  0.7116
  924MOL0     C24654   3.805   9.228   9.099  0.5896  0.0888  0.2501
  924MOL0     N24655   3.810   9.173   8.421  0.7770  0.7045  0.6824
  924MOL0     N24656   3.922   9.105   8.421  0.6513  0.7261 -0.6047
  924MOL0     C24657   4.032   9.826   8.407  0.4812 -0.4156 -0.8416
  924MOL0     C24658   3.891   9.851   8.397  0.7757 -0.5086  0.2825
  924MOL0     C24659   3.453   9.806   8.475 -0.4145  0.4524 -0.0272
  924MOL0     C24660   3.405   9.931   8.524 -0.2983 -0.1030 -0.5383
  924MOL0     C24661   3.276   9.978   8.512 -0.6741  0.7467 -0.1570
  924MOL0     C24662   3.179   9.890   8.461 -0.0776  0.0890 -0.3404
  924MOL0     O24663   3.043   9.922   8.471 -0.3738  0.0001 -0.4946
  924MOL0     C24664   2.997  10.059   8.440 -0.0809 -0.0503 -0.0654
  924MOL0     C24665   2.916  10.047   8.315  0.3094 -0.0854 -1.2291
  924MOL0     C24666   2.832  10.180   8.303 -0.4498  0.2189 -0.2964
  924MOL0     C24667   2.745  10.192   8.186  0.0876  0.2591  0.8958
  924MOL0     C24668   2.605  10.156   8.199 -0.8933 -0.0938 -0.3002
  924MOL0     C24669   2.484  10.147   8.220  0.6123  0.2828 -0.1048
  924MOL0     C24670   3.222   9.765   8.413  0.4204 -0.6474 -0.1121
  924MOL0     C24671   3.357   9.731   8.413  0.5330 -0.2849  0.1759
  924MOL0     C24672   3.394   9.588   8.382  0.1768  0.1077 -0.5438
  924MOL0     H24673   3.800   9.518   8.366 -1.4577  0.7592  2.0980
  924MOL0     H24674   4.025   9.489   8.374 -1.2705 -0.1626  1.1184
  924MOL0     H24675   4.307   9.850   8.374  2.5604  0.6631  0.7591
  924MOL0     H24676   4.281   9.808   8.550 -1.0105  0.4304 -0.5864
  924MOL0     H24677   4.508   9.802   8.520 -0.0499 -0.5748 -0.4037
  924MOL0     H24678   4.500   9.703   8.378  3.8069 -0.4639  0.9126
  924MOL0     H24679   4.399   9.632   8.661 -1.2870 -2.1052 -0.9451
  924MOL0     H24680   4.565   9.603   8.609 -0.8464 -3.8915  1.8217
  924MOL0     H24681   4.327   9.472   8.457 -0.8168 -2.2849  1.1106
  924MOL0     H24682   4.490   9.403   8.464 -3.0152 -4.7234  0.0211
  924MOL0     H24683   4.480   9.378   8.706  0.2160 -1.5739 -0.6763
  924MOL0     H24684   4.320   9.442   8.706  1.0312 -0.2154 -0.5926
  924MOL0     H24685   4.391   9.187   8.565  3.8911 -0.8724  1.9219
  924MOL0     H24686   4.325   9.207   8.736  3.5465 -1.4938 -1.0189
  924MOL0     H24687   4.173   9.331   8.515  0.1317  2.3021  0.9892
  924MOL0     H24688   4.132   9.283   8.690  2.5500 -0.4963  0.6115
  924MOL0     H24689   4.188   9.077   8.472 -1.7390 -1.9820  0.2465
  924MOL0     H24690   4.150   9.056   8.644 -2.3203 -1.9453  0.2014
  924MOL0     H24691   3.919   9.232   8.718  1.7851  0.4702 -0.2898
  924MOL0     H24692   3.732   9.424   8.586 -0.1944 -0.4252 -0.5562
  924MOL0     H24693   3.619   9.329   8.493  1.7108  0.1472 -0.2391
  924MOL0     H24694   3.694   9.328   8.777 -0.7980  4.4970  0.0356
  924MOL0     H24695   3.530   9.363   8.716 -0.1323  0.0951 -3.1216
  924MOL0     H24696   3.657   9.087   8.697 -0.6972 -0.7079 -1.2096
  924MOL0     H24697   3.495   9.123   8.645  0.6356 -0.5921  0.1159
  924MOL0     H24698   3.516   9.031   8.898 -0.8856  0.6549  1.6714
  924MOL0     H24699   3.434   9.187   8.877 -0.0884  0.9934 -1.5366
  924MOL0     H24700   3.759   8.996   8.857 -0.4124  1.4937  0.0733
  924MOL0     H24701   3.995   8.935   8.929 -0.8138  1.1397 -3.3161
  924MOL0     H24702   4.378   9.053   8.990  0.2289 -0.9202  0.5055
  924MOL0     H24703   4.613   8.999   8.996 -1.4308  0.0652 -0.2467
  924MOL0     H24704   4.719   8.723   8.983 -1.9228 -1.0005  1.6360
  924MOL0     H24705   4.804   8.881   9.019 -2.4849 -0.3146 -1.8254
  924MOL0     H24706   4.962   8.786   9.167  0.3905 -1.9326 -0.4060
  924MOL0     H24707   4.903   8.623   9.130  0.8684 -1.1445 -0.6778
  924MOL0     H24708   4.979   8.669   8.885  1.1108  0.0885 -0.7628
  924MOL0     H24709   5.040   8.829   8.932  0.3984 -1.2204 -2.6187
  924MOL0     H24710   5.132   8.564   9.048  2.3583  1.3966  2.1963
  924MOL0     H24711   5.187   8.712   9.109  0.1350  0.8503 -1.6597
  924MOL0     H24712   5.286   8.782   8.902  0.1164 -0.1449  2.0239
  924MOL0     H24713   5.215   8.646   8.807  1.0905  1.8174 -1.6358
  924MOL0     H24714   5.423   8.622   9.027 -0.9178 -2.6922  1.7134
  924MOL0     H24715   5.361   8.490   8.930  1.3533 -0.7926  1.3412
  924MOL0     H24716   5.458   8.708   8.767  1.3527 -0.6054 -2.5629
  924MOL0     H24717   5.496   8.542   8.749  0.7376  1.3328  0.7684
  924MOL0     H24718   5.673   8.573   8.941 -1.2371 -0.2681  0.4274
  924MOL0     H24719   5.700   8.638   8.779  0.8061  1.5247  0.2101
  924MOL0     H24720   4.524   8.713   9.313  0.0146 -0.1402 -0.3414
  924MOL0     H24721   4.271   8.760   9.263  0.8432 -1.3066 -0.4621
  924MOL0     H24722   3.978   9.240   9.221  1.2823 -2.0984  1.6898
  924MOL0     H24723   3.750   9.311   9.143 -0.4177 -0.6236  0.3792
  924MOL0     H24724   4.085   9.918   8.388 -0.1964 -0.2050 -1.7475
  924MOL0     H24725   3.848   9.949   8.382  0.1652 -0.8839 -0.5186
  924MOL0     H24726   3.483   9.995   8.565  2.4503 -3.0398 -0.8310
  924MOL0     H24727   3.249  10.075   8.552 -4.1350 -0.7014  1.5304
  924MOL0     H24728   3.081  10.128   8.425  0.7809 -1.2821 -1.1644
  924MOL0     H24729   2.925  10.086   8.518 -0.8465 -1.9850 -0.0437
  924MOL0     H24730   2.848   9.965   8.342 -0.0189  0.4294 -0.4543
  924MOL0     H24731   2.964  10.028   8.219 -0.2711 -0.0784 -1.5240
  924MOL0     H24732   2.904  10.261   8.289  1.2270 -1.4546 -1.8903
  924MOL0     H24733   2.772  10.204   8.392  2.1762  3.1726  0.8454
  924MOL0     H24734   2.754  10.297   8.159  0.2015  0.5452  1.9921
  924MOL0     H24735   2.793  10.128   8.111  3.6226  1.6347  1.7736
  924MOL0     H24736   2.380  10.150   8.246  0.8049 -0.1594  0.7503
  924MOL0     H24737   3.140   9.700   8.382 -0.2177 -0.4295  1.0408
  924MOL0     H24738   3.462   9.581   8.296  0.4792  2.5088 -0.5905
  924MOL0     H24739   3.438   9.552   8.475 -0.8597  0.2030 -0.0077
  924MOL0     H24740   3.303   9.529   8.376 -2.4216  3.9330 -2.7879
  925MOL0     O24741   4.385   7.535   5.328 -0.4584 -0.5232 -0.2650
  925MOL0     C24742   4.302   7.611   5.374 -0.3576 -0.1349  0.6469
  925MOL0     O24743   4.317   7.685   5.489  0.0860  0.7922  0.5990
  925MOL0     C24744   4.441   7.705   5.557 -0.1481 -0.5459  0.1676
  925MOL0     C24745   4.427   7.787   5.672 -0.1841 -0.8806  0.2446
  925MOL0     C24746   4.542   7.819   5.745  0.2167 -0.4791 -0.6433
  925MOL0     C24747   4.668   7.774   5.715  0.2297 -0.5151 -0.3593
  925MOL0     O24748   4.772   7.829   5.795 -1.0797  0.7881  0.3208
  925MOL0     C24749   4.894   7.749   5.789  0.2580 -0.1915 -0.2346
  925MOL0     C24750   4.979   7.764   5.913  1.0147 -0.8379  0.2849
  925MOL0     C24751   5.120   7.704   5.894  0.6737 -0.5220  0.3754
  925MOL0     C24752   5.212   7.706   6.018  0.4241 -0.2970 -0.3050
  925MOL0     C24753   5.357   7.664   6.000  0.2794 -0.5560 -0.6905
  925MOL0     C24754   5.447   7.736   5.892 -1.5369  0.6616 -0.4656
  925MOL0     C24755   5.464   7.889   5.923  0.0761 -0.4414 -0.9373
  925MOL0     C24756   5.581   7.957   5.841  0.0696 -0.4413 -0.0478
  925MOL0     N24757   5.712   7.902   5.861 -0.5325 -0.6652 -0.2886
  925MOL0     C24758   5.785   7.923   5.970 -0.7782  0.0220  0.7663
  925MOL0     C24759   5.909   7.882   5.932 -0.6782 -0.1563  0.1229
  925MOL0     C24760   6.019   7.887   6.033  0.1459  0.9352 -0.4262
  925MOL0     C24761   6.035   7.751   6.112 -0.3863 -0.1016 -0.0008
  925MOL0     C24762   6.170   7.742   6.172 -0.4779 -0.4531 -0.3056
  925MOL0     C24763   6.182   7.814   6.312 -0.3374 -0.2598 -0.0693
  925MOL0     O24764   6.307   7.778   6.386 -0.1474 -1.0504  0.3865
  925MOL0     C24765   6.421   7.827   6.326 -0.7031  0.6194 -1.3560
  925MOL0     C24766   6.491   7.758   6.223  0.4271 -0.4604 -0.5556
  925MOL0     C24767   6.609   7.810   6.170 -0.1280 -0.0228  0.9350
  925MOL0     C24768   6.654   7.938   6.208 -0.1472  0.1784  0.7635
  925MOL0     C24769   6.771   8.010   6.140  0.3364 -0.3773  0.9334
  925MOL0     O24770   6.781   8.145   6.155  0.0073 -0.7206  0.1998
  925MOL0     C24771   6.880   8.209   6.082 -0.1747 -0.1733 -0.5228
  925MOL0     C24772   6.847   8.282   5.971  0.0429 -0.6177  0.4350
  925MOL0     C24773   6.948   8.331   5.893  0.2691  0.8140 -1.0653
  925MOL0     C24774   7.080   8.293   5.928 -0.2819 -0.1894  0.5836
  925MOL0     O24775   7.179   8.356   5.853  0.2683 -0.1160  0.3673
  925MOL0     C24776   7.313   8.363   5.891 -0.5579  0.5818 -0.9335
  925MOL0     C24777   7.336   8.474   5.996  0.1030  0.9773  0.5632
  925MOL0     C24778   7.271   8.602   5.955 -0.1890 -0.8759  0.6518
  925MOL0     C24779   7.245   8.686   6.081  0.1712  0.4916  0.3232
  925MOL0     C24780   7.120   8.651   6.165 -0.0797  0.3354  1.0387
  925MOL0     C24781   6.989   8.635   6.090 -0.1762  0.1590  0.3200
  925MOL0     C24782   6.860   8.647   6.163  0.0952 -0.3372 -0.0025
  925MOL0     C24783   6.830   8.540   6.271  0.1295 -0.8893 -0.2552
  925MOL0    Cl24784   6.686   8.599   6.367  0.3338 -0.1990 -0.3576
  925MOL0     C24785   7.107   8.203   6.030  1.0447  1.1366 -0.5074
  925MOL0     C24786   7.005   8.175   6.125 -0.5866 -0.6589 -0.5761
  925MOL0     O24787   6.834   7.939   6.057  0.8632  0.0680  0.8201
  925MOL0     C24788   6.577   8.007   6.299 -0.2840  0.2752 -0.4971
  925MOL0     C24789   6.464   7.961   6.362 -0.4135  0.0585 -0.3214
  925MOL0     N24790   5.910   7.855   5.794  0.1446  0.7668 -1.1034
  925MOL0     N24791   5.795   7.875   5.752 -0.1172 -0.1279 -0.5645
  925MOL0     C24792   4.681   7.691   5.601 -0.9447 -0.4580 -0.0690
  925MOL0     C24793   4.575   7.662   5.522  0.2606  0.8186 -0.0722
  925MOL0     C24794   4.172   7.637   5.299  0.6438  0.1461 -1.7603
  925MOL0     C24795   4.096   7.748   5.331  0.1428  0.5729 -0.1720
  925MOL0     C24796   3.976   7.780   5.259  0.1702  0.1879  0.5061
  925MOL0     C24797   3.924   7.700   5.160  0.2912  0.4385  0.6735
  925MOL0     O24798   3.807   7.732   5.097 -0.0686  0.8374  0.0220
  925MOL0     C24799   3.820   7.848   5.010  0.0115  0.7956 -0.1874
  925MOL0     C24800   3.716   7.866   4.889 -0.8465  0.3240  0.8105
  925MOL0     C24801   3.581   7.912   4.934  0.5182  0.1222 -0.2241
  925MOL0     C24802   3.473   7.909   4.831 -0.3451  1.0040  0.3207
  925MOL0     C24803   3.502   8.010   4.730  0.5306  0.8031 -0.4833
  925MOL0     C24804   3.522   8.088   4.639 -0.3505 -0.7821  0.4564
  925MOL0     C24805   3.993   7.577   5.135  0.1736 -1.0120  0.7777
  925MOL0     C24806   4.122   7.556   5.190 -0.2638  0.0072 -0.5030
  925MOL0     C24807   4.200   7.426   5.153 -0.0785 -0.4052 -1.1372
  925MOL0     H24808   4.334   7.834   5.705  0.3103  0.3937 -0.0925
  925MOL0     H24809   4.534   7.879   5.835 -0.6341 -1.5747  0.0400
  925MOL0     H24810   4.869   7.643   5.775 -0.4470  0.0215 -0.6193
  925MOL0     H24811   4.947   7.794   5.704 -1.5638  2.1128 -0.2288
  925MOL0     H24812   4.934   7.703   5.992  2.2094  0.2931  1.8756
  925MOL0     H24813   4.977   7.866   5.950  1.2004 -0.1089 -1.5844
  925MOL0     H24814   5.157   7.768   5.813 -0.3248 -1.3316 -0.7583
  925MOL0     H24815   5.123   7.600   5.861  0.2734 -1.1618  2.2851
  925MOL0     H24816   5.219   7.806   6.062  0.5642 -0.3204 -0.2732
  925MOL0     H24817   5.166   7.646   6.097 -1.7152  2.0107  0.3357
  925MOL0     H24818   5.409   7.678   6.095 -0.5815 -1.1842 -0.1154
  925MOL0     H24819   5.359   7.556   5.984  0.0015 -0.5818 -0.5574
  925MOL0     H24820   5.542   7.682   5.902 -1.1563  1.4287  0.1392
  925MOL0     H24821   5.417   7.714   5.789 -0.3269 -2.7823 -0.2187
  925MOL0     H24822   5.496   7.910   6.026  1.1008  0.5104 -1.4302
  925MOL0     H24823   5.378   7.946   5.886  0.8112  0.9144 -0.6176
  925MOL0     H24824   5.545   7.934   5.740 -2.5809 -1.8108  1.1220
  925MOL0     H24825   5.588   8.066   5.848 -0.2298 -0.4546  0.4579
  925MOL0     H24826   5.751   7.959   6.066  1.0641  1.8771  0.7820
  925MOL0     H24827   6.113   7.913   5.983  0.9996  0.5689  0.9219
  925MOL0     H24828   5.998   7.964   6.108  1.2667  0.8915 -0.0524
  925MOL0     H24829   5.956   7.747   6.188 -1.5922  0.1633 -1.1939
  925MOL0     H24830   6.019   7.662   6.050 -3.2116 -0.4056  0.9915
  925MOL0     H24831   6.244   7.790   6.107 -0.8606  0.7602  0.1126
  925MOL0     H24832   6.196   7.637   6.183  0.8180 -0.0189  1.1470
  925MOL0     H24833   6.098   7.779   6.373 -1.4672  1.5363 -0.5270
  925MOL0     H24834   6.172   7.923   6.304 -1.0172 -0.0334  2.6997
  925MOL0     H24835   6.453   7.665   6.181 -0.8094 -0.8225  1.2524
  925MOL0     H24836   6.665   7.761   6.091 -2.3453 -0.4303 -0.4884
  925MOL0     H24837   6.743   8.309   5.954  1.1649  4.3091  0.1543
  925MOL0     H24838   6.924   8.402   5.815 -1.3806  3.3320  1.5445
  925MOL0     H24839   7.349   8.267   5.930  1.2570  0.9554 -1.5969
  925MOL0     H24840   7.370   8.396   5.804  0.7020  2.5862  0.5740
  925MOL0     H24841   7.315   8.438   6.098 -0.7016  1.4951  0.5919
  925MOL0     H24842   7.445   8.487   5.993  0.5850 -2.2845  0.5438
  925MOL0     H24843   7.348   8.663   5.906 -1.2986  3.0653  3.3152
  925MOL0     H24844   7.177   8.592   5.901 -2.1808  1.4530  3.3801
  925MOL0     H24845   7.230   8.789   6.049  2.5605  1.3843  1.7953
  925MOL0     H24846   7.328   8.680   6.152 -0.7953 -1.5390  1.3772
  925MOL0     H24847   7.107   8.737   6.232 -0.2396  1.4705 -0.3829
  925MOL0     H24848   7.140   8.562   6.225  2.0327  0.6968  0.9403
  925MOL0     H24849   6.979   8.709   6.010  1.2386  1.8008  1.6165
  925MOL0     H24850   6.986   8.532   6.051  1.9377  0.2456 -0.2236
  925MOL0     H24851   6.771   8.642   6.099  1.1724 -1.0310 -1.4782
  925MOL0     H24852   6.858   8.749   6.202  0.2444 -0.7354  1.0948
  925MOL0     H24853   6.817   8.438   6.233  1.0956 -1.5253  1.0171
  925MOL0     H24854   6.920   8.534   6.333  2.3615  0.1862 -3.1555
  925MOL0     H24855   7.208   8.164   6.048  0.9801 -0.9265 -3.8412
  925MOL0     H24856   7.023   8.113   6.212 -2.1512  2.6664  2.3722
  925MOL0     H24857   6.595   8.108   6.335 -4.9566  0.4276  2.2948
  925MOL0     H24858   6.414   8.012   6.444 -2.2329 -3.7672  1.1746
  925MOL0     H24859   4.778   7.659   5.565 -1.0819  3.3007 -4.6821
  925MOL0     H24860   4.593   7.598   5.437 -0.9297 -1.4437  1.2606
  925MOL0     H24861   4.125   7.811   5.414  1.3551 -0.9604  0.6280
  925MOL0     H24862   3.922   7.872   5.279  0.2749  0.5183 -0.6423
  925MOL0     H24863   3.921   7.831   4.969  0.8907 -4.6650  3.2886
  925MOL0     H24864   3.841   7.940   5.065 -1.1889  0.5766  0.6588
  925MOL0     H24865   3.694   7.773   4.834 -3.2113  0.5104  1.3492
  925MOL0     H24866   3.749   7.952   4.831  0.2162 -0.9095 -0.5067
  925MOL0     H24867   3.593   8.012   4.977 -1.2969  0.1513  0.2725
  925MOL0     H24868   3.539   7.854   5.016 -2.3115  2.7128  0.3543
  925MOL0     H24869   3.479   7.812   4.780  0.2778  1.4325 -0.4502
  925MOL0     H24870   3.372   7.914   4.871 -2.6643 -2.0950 -4.2555
  925MOL0     H24871   3.529   8.163   4.562 -0.9917  0.2677  1.4030
  925MOL0     H24872   3.960   7.506   5.060  1.8233 -1.3219  0.2984
  925MOL0     H24873   4.284   7.440   5.085  1.2948  0.7591  0.7003
  925MOL0     H24874   4.233   7.374   5.244 -2.4883  1.1562  0.7500
  925MOL0     H24875   4.136   7.365   5.088  0.6680  0.0621 -2.3349
  926MOL0     O24876  10.438   2.937   3.996  0.2323  0.0457  0.1243
  926MOL0     C24877  10.340   3.006   3.956  0.1122 -0.2790 -0.9682
  926MOL0     O24878  10.337   3.141   3.969  0.3311 -0.3029 -0.4124
  926MOL0     C24879  10.455   3.197   4.020  0.3285 -0.7714  0.3159
  926MOL0     C24880  10.572   3.194   3.950  0.0983 -0.1793 -0.1347
  926MOL0     C24881  10.680   3.270   3.985 -0.0532 -0.6124 -0.0818
  926MOL0     C24882  10.677   3.355   4.106  0.5140 -0.0471  0.4432
  926MOL0     O24883  10.777   3.437   4.138  0.4862  0.5861  0.3486
  926MOL0     C24884  10.916   3.424   4.103 -0.1141 -0.2097  0.8564
  926MOL0     C24885  10.971   3.559   4.158 -0.1614  0.1911  0.4518
  926MOL0     C24886  11.120   3.584   4.132 -0.4647 -0.0441  0.2506
  926MOL0     C24887  11.181   3.680   4.246  0.1779 -0.5293 -0.8023
  926MOL0     C24888  11.337   3.705   4.207 -0.1462 -0.3752 -1.7198
  926MOL0     C24889  11.391   3.828   4.283 -0.3682 -0.5463  0.4276
  926MOL0     C24890  11.527   3.867   4.233  0.2180 -0.0476  0.9435
  926MOL0     C24891  11.633   3.758   4.238 -0.8138  0.1611  0.1643
  926MOL0     N24892  11.768   3.809   4.210 -0.7083 -0.0612  0.7964
  926MOL0     C24893  11.868   3.832   4.301  0.0369 -0.9734 -0.1714
  926MOL0     C24894  11.980   3.852   4.227 -0.7694  0.2699 -0.0711
  926MOL0     C24895  12.119   3.882   4.292  0.4661 -0.1145  0.2478
  926MOL0     C24896  12.199   3.751   4.299 -0.0543 -0.3710  0.0505
  926MOL0     C24897  12.292   3.751   4.420  0.1605  1.2078  0.1100
  926MOL0     C24898  12.386   3.638   4.400 -0.3610  0.3561  0.4800
  926MOL0     O24899  12.326   3.507   4.405  0.3878 -0.9202 -0.0648
  926MOL0     C24900  12.422   3.409   4.410  0.1801 -0.3127  0.1086
  926MOL0     C24901  12.557   3.422   4.371 -0.7000 -0.7932  0.8654
  926MOL0     C24902  12.648   3.319   4.382  0.9272  0.1505 -0.2593
  926MOL0     C24903  12.603   3.200   4.433 -0.7756 -0.3737  0.2635
  926MOL0     C24904  12.694   3.091   4.455 -0.9534  0.1159  0.2012
  926MOL0     O24905  12.831   3.103   4.423 -0.0127  0.0934  0.2760
  926MOL0     C24906  12.917   2.996   4.441 -0.4015 -0.3500 -0.2580
  926MOL0     C24907  13.051   3.026   4.481  0.4142 -0.2320  0.6900
  926MOL0     C24908  13.150   2.932   4.489  0.7644 -0.0077 -0.9235
  926MOL0     C24909  13.125   2.800   4.461  0.0161 -0.4634 -0.2690
  926MOL0     O24910  13.220   2.712   4.501 -0.0188 -0.2986  0.2330
  926MOL0     C24911  13.264   2.628   4.396 -0.5436  0.1952  0.4405
  926MOL0     C24912  13.361   2.514   4.434 -0.3314  0.3040 -0.6236
  926MOL0     C24913  13.450   2.569   4.541 -0.2441 -0.3893 -0.0191
  926MOL0     C24914  13.556   2.458   4.571  0.6247  0.2868 -0.9007
  926MOL0     C24915  13.682   2.488   4.499  0.2420 -0.3004 -0.1829
  926MOL0     C24916  13.798   2.405   4.545  0.5394  0.4245 -0.4124
  926MOL0     C24917  13.924   2.450   4.474  0.2963  0.3078  1.1134
  926MOL0     C24918  14.051   2.397   4.540  0.4987 -1.2800 -0.6434
  926MOL0    Cl24919  14.178   2.516   4.549 -0.2339  0.2140  0.3655
  926MOL0     C24920  12.992   2.760   4.438 -0.3189  0.2821 -0.1805
  926MOL0     C24921  12.893   2.857   4.423  0.0254  0.9477  0.0685
  926MOL0     O24922  12.640   2.984   4.496  0.1580 -0.0294  0.0191
  926MOL0     C24923  12.467   3.180   4.457  0.2909 -0.2487 -0.3246
  926MOL0     C24924  12.379   3.286   4.452  0.0737  0.6574  0.0200
  926MOL0     N24925  11.948   3.837   4.095 -0.2731  0.9591  0.4087
  926MOL0     N24926  11.822   3.812   4.084  0.8740 -0.2871  0.4378
  926MOL0     C24927  10.561   3.338   4.181  0.8143 -0.1195  0.1788
  926MOL0     C24928  10.443   3.267   4.134  1.0747 -0.3453  0.9414
  926MOL0     C24929  10.219   2.947   3.894 -0.9731 -0.6004 -0.2065
  926MOL0     C24930  10.149   3.028   3.805  0.6025  0.2581 -0.8455
  926MOL0     C24931  10.037   2.989   3.737 -0.9809 -1.0575  0.0771
  926MOL0     C24932   9.993   2.855   3.755 -0.1535 -0.2988 -0.1951
  926MOL0     O24933   9.884   2.796   3.688  0.2247 -0.1091 -0.1365
  926MOL0     C24934   9.823   2.880   3.576 -0.0240 -0.1586  0.5713
  926MOL0     C24935   9.911   2.885   3.443  0.0658 -0.4508 -0.8928
  926MOL0     C24936   9.957   2.749   3.402 -0.4880  0.6356 -0.4036
  926MOL0     C24937  10.025   2.752   3.272 -0.4133  0.6361  0.3977
  926MOL0     C24938  10.161   2.801   3.296 -0.6097  0.9896  0.3230
  926MOL0     C24939  10.274   2.839   3.319 -0.6143  0.1318 -0.1444
  926MOL0     C24940  10.055   2.774   3.854  0.0573  0.1738 -0.2191
  926MOL0     C24941  10.172   2.817   3.919  0.2364  0.2923 -0.0942
  926MOL0     C24942  10.242   2.732   4.018 -0.0562  0.5813  0.5757
  926MOL0     H24943  10.583   3.131   3.862 -4.2493 -0.8557 -0.4167
  926MOL0     H24944  10.770   3.276   3.925 -0.5724 -0.8737 -0.9074
  926MOL0     H24945  10.966   3.340   4.153  0.0454 -0.6250  0.0236
  926MOL0     H24946  10.925   3.428   3.994 -1.9017 -0.4462  0.6783
  926MOL0     H24947  10.952   3.562   4.266 -1.1061 -3.1279  0.4904
  926MOL0     H24948  10.909   3.641   4.120 -0.0432 -0.1256 -0.4532
  926MOL0     H24949  11.128   3.623   4.031 -0.4063  0.4722  0.4485
  926MOL0     H24950  11.179   3.492   4.138  1.8135  1.3706  1.0389
  926MOL0     H24951  11.117   3.768   4.249  1.5336  0.4621  1.8817
  926MOL0     H24952  11.176   3.632   4.344  2.2347  0.4655 -0.1519
  926MOL0     H24953  11.387   3.610   4.230 -1.2361 -0.3422  1.3610
  926MOL0     H24954  11.342   3.714   4.098 -0.6073  1.9738 -1.5865
  926MOL0     H24955  11.320   3.911   4.270 -0.9913 -1.1360  0.0264
  926MOL0     H24956  11.399   3.797   4.388  0.8149  1.4820  1.0015
  926MOL0     H24957  11.566   3.947   4.296  1.6967 -1.3305  1.6961
  926MOL0     H24958  11.518   3.907   4.131 -1.5794 -0.4238  0.9090
  926MOL0     H24959  11.631   3.717   4.339  1.7054 -0.6512 -0.0477
  926MOL0     H24960  11.610   3.671   4.175 -1.6897  2.0919 -2.3338
  926MOL0     H24961  11.858   3.828   4.409 -1.9229 -4.1237 -0.3468
  926MOL0     H24962  12.159   3.964   4.231 -3.3106 -0.1617 -2.6000
  926MOL0     H24963  12.094   3.910   4.395 -0.1815  3.2372 -0.6843
  926MOL0     H24964  12.124   3.673   4.315  0.3559 -0.3949  2.0095
  926MOL0     H24965  12.253   3.736   4.204 -1.4593 -0.3657 -0.7773
  926MOL0     H24966  12.241   3.745   4.516  2.6185  0.7356  1.4914
  926MOL0     H24967  12.348   3.844   4.407  0.9502  0.5522 -1.3749
  926MOL0     H24968  12.477   3.646   4.459 -0.1148 -0.6166  0.2476
  926MOL0     H24969  12.414   3.649   4.295 -0.9788 -2.3613 -0.0489
  926MOL0     H24970  12.598   3.515   4.333 -1.3679 -0.4613  0.9504
  926MOL0     H24971  12.755   3.321   4.364  0.9957 -0.6207  0.0115
  926MOL0     H24972  13.084   3.127   4.503  0.2387 -0.0246  0.0288
  926MOL0     H24973  13.246   2.951   4.536 -0.0120  0.0634  0.6869
  926MOL0     H24974  13.178   2.582   4.346  0.1450 -0.0277 -0.5741
  926MOL0     H24975  13.298   2.685   4.309 -2.5086  1.6855  0.5801
  926MOL0     H24976  13.305   2.427   4.468 -0.3591 -0.8409 -3.3481
  926MOL0     H24977  13.425   2.494   4.348 -0.0911  2.7361 -1.1016
  926MOL0     H24978  13.487   2.667   4.510 -0.8992  0.0019  0.4106
  926MOL0     H24979  13.397   2.577   4.637  1.2664  1.5110  0.7390
  926MOL0     H24980  13.525   2.359   4.536 -0.9085  1.7777 -4.1480
  926MOL0     H24981  13.573   2.466   4.679 -1.4401  3.1839 -0.6821
  926MOL0     H24982  13.707   2.594   4.509 -1.5568 -0.0505  2.7514
  926MOL0     H24983  13.668   2.461   4.394 -0.8119 -0.5053  0.0021
  926MOL0     H24984  13.809   2.411   4.654  3.7223  2.8913 -0.7226
  926MOL0     H24985  13.785   2.300   4.517  1.2734 -0.8152  3.2916
  926MOL0     H24986  13.929   2.559   4.480 -0.4592  0.4465 -0.2546
  926MOL0     H24987  13.922   2.426   4.367  0.4393  1.2011  0.9035
  926MOL0     H24988  14.029   2.368   4.643 -0.9103  0.2787 -0.4524
  926MOL0     H24989  14.070   2.309   4.478 -2.8362 -1.1661 -2.0833
  926MOL0     H24990  12.980   2.652   4.438  0.0792  0.2002  1.7381
  926MOL0     H24991  12.797   2.809   4.403 -0.1069  1.5869 -0.8972
  926MOL0     H24992  12.433   3.081   4.487  2.1194 -1.3511 -1.6073
  926MOL0     H24993  12.271   3.276   4.447  0.1949 -0.3246 -3.3710
  926MOL0     H24994  10.543   3.393   4.273  3.3023 -0.8593  1.1917
  926MOL0     H24995  10.351   3.287   4.187  0.0626 -1.1358 -0.4647
  926MOL0     H24996  10.172   3.130   3.777 -0.6069  0.9646  0.5595
  926MOL0     H24997   9.982   3.056   3.672 -1.5050 -1.4635  0.0984
  926MOL0     H24998   9.806   2.985   3.600  1.5779  0.7717 -1.9031
  926MOL0     H24999   9.728   2.832   3.550  0.7705 -1.3800 -0.1450
  926MOL0     H25000  10.003   2.942   3.463  0.1838 -0.4089 -1.5480
  926MOL0     H25001   9.848   2.934   3.369  0.5683  1.6091 -0.0361
  926MOL0     H25002   9.873   2.679   3.397 -0.4866  0.4669  1.2894
  926MOL0     H25003  10.028   2.710   3.475 -1.1184 -1.9139 -1.0451
  926MOL0     H25004  10.029   2.651   3.230 -0.7005  0.0034  1.8202
  926MOL0     H25005   9.975   2.822   3.204  0.1800  0.6999  0.0112
  926MOL0     H25006  10.374   2.877   3.321  0.0052 -1.2539 -1.9471
  926MOL0     H25007  10.014   2.676   3.875 -1.3587  0.7824 -0.0549
  926MOL0     H25008  10.193   2.635   4.026  1.6734 -0.2777  1.2982
  926MOL0     H25009  10.343   2.698   3.994 -0.3991  0.6978 -1.1258
  926MOL0     H25010  10.242   2.788   4.112 -1.6990  1.7212 -0.0668
  927MOL0     O25011   6.123   1.101   9.303  0.7719 -0.1259 -1.1566
  927MOL0     C25012   6.036   1.041   9.244 -0.4982  0.3993  1.0527
  927MOL0     O25013   6.057   0.948   9.141  0.1272  0.5948 -0.0478
  927MOL0     C25014   6.181   0.908   9.096  0.2115 -0.5798 -0.7545
  927MOL0     C25015   6.200   0.856   8.967  0.9083  0.5060 -0.0563
  927MOL0     C25016   6.324   0.822   8.910  0.7982 -0.8104 -0.2720
  927MOL0     C25017   6.442   0.844   8.975 -0.0287 -1.2950  0.3058
  927MOL0     O25018   6.558   0.822   8.903 -0.3131  0.0625 -0.6559
  927MOL0     C25019   6.654   0.752   8.997 -0.2684  0.0034  0.6237
  927MOL0     C25020   6.752   0.657   8.921 -0.0524 -0.4867  0.6769
  927MOL0     C25021   6.848   0.572   8.999 -1.0003  0.5817 -0.3979
  927MOL0     C25022   6.965   0.517   8.912 -0.4419  0.1163 -0.9411
  927MOL0     C25023   7.080   0.458   8.990  0.3759 -0.2660 -0.5995
  927MOL0     C25024   7.191   0.558   8.990  0.1799  0.5780 -0.7530
  927MOL0     C25025   7.311   0.495   9.063 -0.1613 -0.6188  0.1299
  927MOL0     C25026   7.408   0.615   9.096 -0.4578 -0.3401 -0.0087
  927MOL0     N25027   7.470   0.672   8.975  0.2311  0.3275  0.0580
  927MOL0     C25028   7.561   0.599   8.897  0.1033 -0.4512 -0.0741
  927MOL0     C25029   7.625   0.694   8.832 -0.7403 -0.6185  0.9613
  927MOL0     C25030   7.744   0.683   8.740 -0.7100  0.1537  0.7934
  927MOL0     C25031   7.727   0.550   8.654 -0.5963  0.2936  0.8224
  927MOL0     C25032   7.798   0.430   8.722  0.7572 -0.2096 -0.4342
  927MOL0     C25033   7.952   0.434   8.697  0.3109 -0.8369  0.8594
  927MOL0     O25034   7.987   0.393   8.568  0.4605  0.0365  0.3688
  927MOL0     C25035   8.113   0.336   8.542  1.0618 -0.7511  1.3003
  927MOL0     C25036   8.219   0.346   8.628  0.9367  0.3399  0.4045
  927MOL0     C25037   8.345   0.304   8.587 -0.0400  0.7149 -0.0644
  927MOL0     C25038   8.357   0.236   8.464 -0.3802  0.1377 -1.2175
  927MOL0     C25039   8.489   0.175   8.431 -0.5246  0.1493  0.8562
  927MOL0     O25040   8.590   0.199   8.514  0.8550  0.3741 -0.2557
  927MOL0     C25041   8.708   0.139   8.488 -0.0225  0.3958 -0.6592
  927MOL0     C25042   8.731   0.001   8.472 -0.4914 -0.3536 -0.7758
  927MOL0     C25043   8.861  -0.046   8.456  0.4596  0.0844  0.6521
  927MOL0     C25044   8.975   0.038   8.482 -0.3218  0.8183  0.2626
  927MOL0     O25045   9.104  -0.008   8.470 -0.6349 -0.4891 -0.0535
  927MOL0     C25046   9.129  -0.146   8.470 -0.1486 -0.7109 -1.1415
  927MOL0     C25047   9.287  -0.169   8.471  0.8305  0.2417  0.2995
  927MOL0     C25048   9.326  -0.320   8.468  0.0069 -0.8271  0.3035
  927MOL0     C25049   9.467  -0.327   8.429  0.2988  0.2018  0.3695
  927MOL0     C25050   9.508  -0.477   8.418 -0.3757  1.1704 -0.1901
  927MOL0     C25051   9.663  -0.498   8.389  0.5258  0.3430 -0.4677
  927MOL0     C25052   9.728  -0.455   8.521  0.3680  0.4319 -0.7399
  927MOL0     C25053   9.847  -0.543   8.558 -0.2197 -0.6112  0.9157
  927MOL0    Cl25054   9.771  -0.696   8.598  0.0574  0.0504  0.1437
  927MOL0     C25055   8.957   0.170   8.501 -0.4961  0.2555  0.7256
  927MOL0     C25056   8.827   0.213   8.504  0.6536  0.9995  0.7085
  927MOL0     O25057   8.507   0.120   8.318 -0.1352 -0.1682  0.7787
  927MOL0     C25058   8.251   0.201   8.391  0.1528  0.0192  0.1189
  927MOL0     C25059   8.125   0.259   8.421 -0.3213  0.0816 -0.1139
  927MOL0     N25060   7.577   0.823   8.862  0.2742  0.5682 -0.4987
  927MOL0     N25061   7.485   0.807   8.951  0.2251  0.3256  0.1404
  927MOL0     C25062   6.428   0.890   9.105 -0.2103  0.4669  1.0709
  927MOL0     C25063   6.306   0.923   9.171 -0.0376 -0.4431 -0.1040
  927MOL0     C25064   5.896   1.065   9.296  0.0940  0.4452  0.3048
  927MOL0     C25065   5.879   1.144   9.414 -0.0361  0.1398  0.1553
  927MOL0     C25066   5.751   1.151   9.469 -0.1037  0.9815 -0.3412
  927MOL0     C25067   5.639   1.110   9.411 -0.1376 -0.3724  0.3587
  927MOL0     O25068   5.512   1.129   9.461 -0.2979 -1.1408 -0.0253
  927MOL0     C25069   5.457   1.007   9.521  0.1497  0.0022 -0.3143
  927MOL0     C25070   5.502   0.998   9.669 -0.0551  0.4155  0.6458
  927MOL0     C25071   5.404   0.921   9.750 -0.5432 -0.0436  1.4409
  927MOL0     C25072   5.479   0.898   9.883  0.2588 -0.2900 -0.1224
  927MOL0     C25073   5.373   0.862   9.985 -1.0446 -0.4849 -0.4930
  927MOL0     C25074   5.296   0.835  10.075  0.4334  0.2643  0.0764
  927MOL0     C25075   5.648   1.042   9.290  0.2202  0.5459  0.1750
  927MOL0     C25076   5.777   1.012   9.235 -0.4200 -0.1310 -0.0561
  927MOL0     C25077   5.771   0.943   9.093 -0.4096 -0.2378 -0.2843
  927MOL0     H25078   6.111   0.829   8.910 -0.0656  2.4344  0.4767
  927MOL0     H25079   6.311   0.775   8.813 -0.2882  0.6198 -0.8568
  927MOL0     H25080   6.714   0.824   9.053  1.1008 -1.0770  0.6138
  927MOL0     H25081   6.602   0.685   9.066  1.2739 -2.3976 -0.4094
  927MOL0     H25082   6.814   0.728   8.866 -0.8137 -0.4450 -0.1477
  927MOL0     H25083   6.688   0.596   8.857 -1.0501 -1.5526  2.5931
  927MOL0     H25084   6.797   0.496   9.058 -1.3602  1.4746  0.4647
  927MOL0     H25085   6.891   0.634   9.078 -0.4982  1.0899 -1.0551
  927MOL0     H25086   6.916   0.435   8.858  1.6888 -1.6573 -0.3165
  927MOL0     H25087   6.996   0.594   8.840  0.6919  1.2043  0.6512
  927MOL0     H25088   7.039   0.447   9.091 -2.5057  3.4416 -1.1640
  927MOL0     H25089   7.127   0.365   8.957  1.3824  0.0842 -0.2025
  927MOL0     H25090   7.225   0.596   8.893  0.3279 -0.5728 -1.1611
  927MOL0     H25091   7.154   0.648   9.042 -0.2218  0.9408 -1.6551
  927MOL0     H25092   7.358   0.421   8.997 -0.3762 -1.1465  0.5579
  927MOL0     H25093   7.269   0.451   9.154 -2.4975  0.3170 -0.4118
  927MOL0     H25094   7.350   0.685   9.156 -1.4014 -0.3238 -0.8938
  927MOL0     H25095   7.494   0.599   9.161 -1.4546  0.5632  1.5922
  927MOL0     H25096   7.569   0.491   8.900 -0.8894 -0.5691 -0.9403
  927MOL0     H25097   7.741   0.782   8.692 -0.4306 -0.5601 -0.7613
  927MOL0     H25098   7.843   0.683   8.786  0.6143  4.1594 -1.5317
  927MOL0     H25099   7.619   0.532   8.646 -1.6116  4.0998  3.3496
  927MOL0     H25100   7.754   0.563   8.549  1.6403 -1.8581  1.0389
  927MOL0     H25101   7.769   0.332   8.684 -1.6243  0.6143 -0.9808
  927MOL0     H25102   7.787   0.424   8.830 -0.1553 -0.2121 -0.5124
  927MOL0     H25103   8.006   0.369   8.766  2.8279 -2.2560 -2.2014
  927MOL0     H25104   7.997   0.534   8.702 -0.5106 -0.2109 -2.0155
  927MOL0     H25105   8.219   0.397   8.724 -1.2370  3.8685 -1.2750
  927MOL0     H25106   8.437   0.313   8.643  0.1279 -0.7795 -0.0765
  927MOL0     H25107   8.645  -0.066   8.470 -1.4177  0.7682 -0.1707
  927MOL0     H25108   8.884  -0.151   8.439  5.8215  0.8459  1.3402
  927MOL0     H25109   9.086  -0.203   8.553 -2.5663  0.6143 -1.4139
  927MOL0     H25110   9.087  -0.187   8.378  1.2204 -1.3959 -1.5030
  927MOL0     H25111   9.324  -0.122   8.380 -1.6507  2.9305  0.5267
  927MOL0     H25112   9.333  -0.114   8.553  1.0566  2.3161 -1.1530
  927MOL0     H25113   9.314  -0.378   8.561  3.7600 -2.8808 -0.3021
  927MOL0     H25114   9.262  -0.379   8.402  0.2778 -2.4330  1.4052
  927MOL0     H25115   9.524  -0.269   8.502 -1.2009  1.3593  0.6698
  927MOL0     H25116   9.487  -0.278   8.334  1.7070  0.8966  0.9787
  927MOL0     H25117   9.449  -0.522   8.338  1.3224 -0.9847 -0.3503
  927MOL0     H25118   9.484  -0.536   8.508  0.9816  1.7941  0.6076
  927MOL0     H25119   9.689  -0.597   8.353  0.5469 -0.1589  0.8961
  927MOL0     H25120   9.695  -0.426   8.313 -1.5261  0.0530 -1.7038
  927MOL0     H25121   9.660  -0.465   8.606  1.2821  1.7494  0.1888
  927MOL0     H25122   9.758  -0.350   8.521 -1.6235  1.0557 -2.0100
  927MOL0     H25123   9.923  -0.554   8.480  1.8551 -1.6448  2.9766
  927MOL0     H25124   9.896  -0.499   8.645  1.6990 -1.4829  0.3258
  927MOL0     H25125   9.037   0.239   8.523 -0.0763 -0.3652  1.1839
  927MOL0     H25126   8.796   0.313   8.533 -1.1818  0.2271  1.5892
  927MOL0     H25127   8.264   0.132   8.308  0.2621 -0.9340  0.9091
  927MOL0     H25128   8.061   0.245   8.334  1.6829  0.4144 -1.7052
  927MOL0     H25129   6.519   0.928   9.150  1.0129  2.5782 -2.7306
  927MOL0     H25130   6.326   0.953   9.273  1.3913  0.0773 -0.5130
  927MOL0     H25131   5.964   1.182   9.469 -0.5746  1.7683 -0.0815
  927MOL0     H25132   5.755   1.206   9.562  0.6021  0.1315  0.1525
  927MOL0     H25133   5.503   0.921   9.472  2.9425 -0.5600  2.8978
  927MOL0     H25134   5.349   1.013   9.507  0.3545 -1.1891 -3.0809
  927MOL0     H25135   5.520   1.097   9.711  1.0238  0.5116 -0.0175
  927MOL0     H25136   5.594   0.940   9.672 -1.8891 -2.9492 -1.1671
  927MOL0     H25137   5.390   0.826   9.697 -1.4221  1.1625 -0.6011
  927MOL0     H25138   5.309   0.974   9.751 -0.8718 -0.6323  1.8045
  927MOL0     H25139   5.553   0.818   9.875  0.9225  0.3081 -0.0528
  927MOL0     H25140   5.538   0.984   9.915  1.6545 -1.7812  1.5378
  927MOL0     H25141   5.237   0.814  10.162 -3.5255  3.3395 -1.5711
  927MOL0     H25142   5.562   1.027   9.226  1.3120 -0.6910 -1.0752
  927MOL0     H25143   5.667   0.919   9.065 -0.7724 -0.0956  0.8760
  927MOL0     H25144   5.817   1.019   9.030  0.2067  0.3780  0.8835
  927MOL0     H25145   5.827   0.849   9.084 -0.2821 -0.6197  3.1673
  928MOL0     O25146   9.649   3.151   2.988 -0.2312  0.5250 -0.0723
  928MOL0     C25147   9.558   3.210   2.931  0.7218  0.7731  0.1347
  928MOL0     O25148   9.476   3.157   2.829  0.2702  0.3619  0.0208
  928MOL0     C25149   9.505   3.033   2.778  0.7847  0.8031 -0.9443
  928MOL0     C25150   9.614   3.010   2.703 -1.0151  0.0554 -0.0121
  928MOL0     C25151   9.638   2.876   2.672  0.5365  0.0694  0.5274
  928MOL0     C25152   9.555   2.769   2.707 -0.5007  0.2045 -0.1744
  928MOL0     O25153   9.605   2.644   2.672 -0.0759  0.7827  0.6036
  928MOL0     C25154   9.523   2.525   2.688 -0.5206 -0.2406  0.3534
  928MOL0     C25155   9.567   2.415   2.585  0.9013 -0.1799  0.2230
  928MOL0     C25156   9.709   2.363   2.609  0.3921 -0.7936 -0.7299
  928MOL0     C25157   9.751   2.233   2.534  0.4664 -0.2706 -0.6335
  928MOL0     C25158   9.900   2.227   2.494  0.1266  0.5836  0.4806
  928MOL0     C25159   9.906   2.311   2.363  0.0113  0.3957 -0.5461
  928MOL0     C25160  10.049   2.295   2.302  1.0231  0.7481  0.4533
  928MOL0     C25161  10.064   2.316   2.147 -0.4934 -0.4619 -0.2578
  928MOL0     N25162   9.996   2.202   2.086  0.5267 -0.0456  0.5278
  928MOL0     C25163   9.873   2.202   2.020  1.0228  0.6889 -0.1627
  928MOL0     C25164   9.867   2.072   1.971 -0.4138 -0.0559 -0.6807
  928MOL0     C25165   9.744   2.011   1.896 -1.0157  0.0027  0.4310
  928MOL0     C25166   9.677   1.884   1.954 -0.9210  0.8790  0.0803
  928MOL0     C25167   9.725   1.748   1.899  0.1618 -0.3473  0.5326
  928MOL0     C25168   9.729   1.735   1.746 -0.3155  1.0267 -0.1954
  928MOL0     O25169   9.790   1.604   1.729  0.1116 -0.0166  0.3164
  928MOL0     C25170   9.920   1.604   1.679  0.1795 -0.1871 -0.3018
  928MOL0     C25171  10.022   1.672   1.743 -0.1440 -0.3189 -1.0224
  928MOL0     C25172  10.158   1.666   1.682  1.1367  0.8755 -0.1889
  928MOL0     C25173  10.176   1.580   1.571 -0.6525 -0.5276  0.5550
  928MOL0     C25174  10.314   1.571   1.509  0.6826 -0.1411 -0.6278
  928MOL0     O25175  10.316   1.496   1.389  0.0833 -0.1845 -0.7643
  928MOL0     C25176  10.439   1.494   1.328 -0.0379 -0.0321 -0.0633
  928MOL0     C25177  10.476   1.371   1.268 -0.8761 -0.4908 -0.0112
  928MOL0     C25178  10.594   1.359   1.195 -0.1533 -0.7397  0.3634
  928MOL0     C25179  10.661   1.477   1.157 -0.5744 -0.0910 -0.1282
  928MOL0     O25180  10.784   1.460   1.091 -0.3380  0.3119  0.2153
  928MOL0     C25181  10.843   1.581   1.042 -0.1166 -0.8843  0.1123
  928MOL0     C25182  10.968   1.540   0.978  0.6030 -1.3236  1.0397
  928MOL0     C25183  11.051   1.658   0.928  0.5337 -0.5978  0.6064
  928MOL0     C25184  11.198   1.640   0.944  0.4279 -0.0371  0.2915
  928MOL0     C25185  11.284   1.761   0.922  0.0939 -0.5472 -0.3904
  928MOL0     C25186  11.311   1.810   0.781 -0.5665 -0.4743  0.1863
  928MOL0     C25187  11.385   1.942   0.776  0.0058  0.3125 -0.5476
  928MOL0     C25188  11.406   1.989   0.636 -0.5540 -0.6237  0.3509
  928MOL0    Cl25189  11.456   1.849   0.519 -0.3187 -0.0212  0.0453
  928MOL0     C25190  10.617   1.604   1.206 -0.3707  0.5774  0.2906
  928MOL0     C25191  10.506   1.610   1.289 -0.4708  0.5580 -0.1073
  928MOL0     O25192  10.408   1.625   1.570 -0.1427 -0.6547 -0.5834
  928MOL0     C25193  10.069   1.509   1.513  0.1222 -0.4944 -0.3394
  928MOL0     C25194   9.940   1.530   1.562 -0.5929 -0.3147 -0.8755
  928MOL0     N25195   9.985   2.003   2.009 -1.0718 -1.0102  0.4840
  928MOL0     N25196  10.063   2.082   2.069 -0.0418  0.0509  0.6892
  928MOL0     C25197   9.435   2.798   2.772 -0.0392 -0.3308 -0.0121
  928MOL0     C25198   9.415   2.933   2.812 -0.6737  0.1193 -0.2169
  928MOL0     C25199   9.534   3.350   2.963  0.2572 -0.4485  1.0319
  928MOL0     C25200   9.471   3.433   2.865 -0.7754 -0.0621 -0.4008
  928MOL0     C25201   9.449   3.570   2.889  0.3798  0.2917  0.1604
  928MOL0     C25202   9.504   3.629   3.007 -0.0691  0.0840  0.6175
  928MOL0     O25203   9.485   3.766   3.015 -1.1522 -0.2840  0.0827
  928MOL0     C25204   9.509   3.827   3.146  0.0202 -0.5558  0.5077
  928MOL0     C25205   9.389   3.824   3.238 -0.2931 -0.2561  0.2987
  928MOL0     C25206   9.263   3.866   3.162 -0.3722 -0.9278 -0.0099
  928MOL0     C25207   9.159   3.913   3.263 -0.5710  0.6753  0.3707
  928MOL0     C25208   9.032   3.926   3.196  0.0901  0.3666  0.0901
  928MOL0     C25209   8.930   3.963   3.148  0.3273 -0.5842  0.9287
  928MOL0     C25210   9.561   3.542   3.106 -0.4242  0.0355 -0.6070
  928MOL0     C25211   9.573   3.412   3.079 -0.0008 -0.2079 -0.4463
  928MOL0     C25212   9.630   3.337   3.201 -0.0401 -0.0100  0.2067
  928MOL0     H25213   9.689   3.085   2.679 -0.0112 -1.4619 -1.8535
  928MOL0     H25214   9.723   2.846   2.611 -0.2600  0.1183 -0.6168
  928MOL0     H25215   9.531   2.489   2.791  2.2994  0.9007  0.6267
  928MOL0     H25216   9.418   2.551   2.671 -0.8764 -2.2155 -0.7865
  928MOL0     H25217   9.539   2.453   2.486  1.1172 -1.5560 -0.4028
  928MOL0     H25218   9.499   2.331   2.604  1.0416 -0.5230 -0.7011
  928MOL0     H25219   9.706   2.341   2.716  1.7135 -1.8653 -0.8848
  928MOL0     H25220   9.779   2.443   2.583 -0.6292 -0.3349 -2.2207
  928MOL0     H25221   9.736   2.149   2.602  0.8040  0.5784  0.5151
  928MOL0     H25222   9.682   2.218   2.451  2.7567 -3.9661 -2.1067
  928MOL0     H25223   9.975   2.253   2.569  0.7370 -0.4410  0.2360
  928MOL0     H25224   9.926   2.125   2.466 -2.3380  0.1232 -0.3395
  928MOL0     H25225   9.831   2.272   2.294  0.9773 -0.9778 -0.8730
  928MOL0     H25226   9.881   2.413   2.392 -4.6556 -0.1921 -1.8056
  928MOL0     H25227  10.078   2.191   2.323 -0.8319  0.6228  2.8404
  928MOL0     H25228  10.126   2.348   2.359 -0.8962  1.2188  2.7956
  928MOL0     H25229  10.026   2.415   2.122  1.6193 -0.2679 -3.3064
  928MOL0     H25230  10.167   2.320   2.108 -1.3859  3.2862 -2.7055
  928MOL0     H25231   9.802   2.283   2.014 -0.1892 -0.2691  0.5545
  928MOL0     H25232   9.671   2.091   1.879 -0.3777  0.4706 -0.1897
  928MOL0     H25233   9.778   1.993   1.793  0.0397  3.4303  0.0568
  928MOL0     H25234   9.692   1.880   2.062  2.4916 -1.0851 -0.3357
  928MOL0     H25235   9.568   1.890   1.944 -0.7485  1.0989 -2.3445
  928MOL0     H25236   9.648   1.678   1.930  1.9711 -2.3072  0.8243
  928MOL0     H25237   9.819   1.722   1.948  0.2174 -0.3415  0.4296
  928MOL0     H25238   9.772   1.811   1.680  0.8105 -0.4748 -1.2910
  928MOL0     H25239   9.633   1.729   1.694  0.6358  2.2765 -2.2258
  928MOL0     H25240  10.003   1.731   1.832  0.2528 -0.0746 -1.0945
  928MOL0     H25241  10.239   1.713   1.737  0.8941 -0.6554  1.5670
  928MOL0     H25242  10.408   1.286   1.269  1.7509 -2.7593 -0.6773
  928MOL0     H25243  10.628   1.262   1.160 -2.2156 -1.4537  0.2163
  928MOL0     H25244  10.767   1.626   0.978  0.8240  1.5528  0.5833
  928MOL0     H25245  10.871   1.649   1.124  0.9098  2.0527 -2.4761
  928MOL0     H25246  11.028   1.492   1.056  1.9625 -0.6373  0.4335
  928MOL0     H25247  10.954   1.480   0.888  1.6498 -1.5227  1.0011
  928MOL0     H25248  11.022   1.675   0.824 -2.6949 -1.2793  1.2884
  928MOL0     H25249  11.013   1.751   0.972  0.1946  0.8419 -2.5105
  928MOL0     H25250  11.243   1.552   0.897  0.3860 -1.1917  2.2883
  928MOL0     H25251  11.200   1.618   1.051  0.5021  1.1540  0.5499
  928MOL0     H25252  11.384   1.750   0.963 -0.2345  2.5558  1.5669
  928MOL0     H25253  11.239   1.844   0.978  0.9680  0.0532 -0.5515
  928MOL0     H25254  11.383   1.732   0.753  2.2216  2.7083 -2.4807
  928MOL0     H25255  11.224   1.809   0.716  1.5216  1.0819 -2.8754
  928MOL0     H25256  11.480   1.943   0.829  0.0824 -1.7324 -0.5735
  928MOL0     H25257  11.318   2.013   0.826 -2.0338 -3.3247  2.3986
  928MOL0     H25258  11.312   2.036   0.606 -0.8727  0.1844  2.4651
  928MOL0     H25259  11.487   2.058   0.612 -1.7800 -0.0853 -2.6314
  928MOL0     H25260  10.689   1.685   1.209  1.5990 -1.0385 -0.8655
  928MOL0     H25261  10.468   1.708   1.314 -1.0230 -0.1099  1.9567
  928MOL0     H25262  10.089   1.449   1.425  1.8703 -0.3757 -0.0648
  928MOL0     H25263   9.853   1.482   1.517 -2.1267  0.6011  0.9542
  928MOL0     H25264   9.369   2.719   2.805 -0.5132 -0.1041 -0.4020
  928MOL0     H25265   9.329   2.967   2.868 -0.7554  2.0595 -1.4189
  928MOL0     H25266   9.442   3.395   2.768 -1.0118 -1.1174  0.0724
  928MOL0     H25267   9.401   3.627   2.810 -3.9476 -6.3112 -2.8665
  928MOL0     H25268   9.537   3.931   3.126  1.9440 -1.4361 -1.9073
  928MOL0     H25269   9.602   3.790   3.189  0.7012  0.7045  0.1448
  928MOL0     H25270   9.408   3.888   3.325 -0.6456  1.4547 -0.8413
  928MOL0     H25271   9.371   3.727   3.284 -1.8197 -0.0750  0.1420
  928MOL0     H25272   9.221   3.779   3.112 -3.1405 -0.3338  1.1157
  928MOL0     H25273   9.284   3.944   3.089  0.0756 -0.3766  0.7024
  928MOL0     H25274   9.159   3.838   3.342 -2.4672 -0.5495 -0.7211
  928MOL0     H25275   9.173   4.013   3.306 -0.0592  2.1396 -2.8600
  928MOL0     H25276   8.845   4.003   3.096  1.7233  0.4940 -0.6538
  928MOL0     H25277   9.619   3.579   3.189 -1.7611 -1.5267  1.1130
  928MOL0     H25278   9.573   3.251   3.236  0.2984  1.1343  4.0458
  928MOL0     H25279   9.726   3.297   3.170 -1.2350 -3.3052  0.4199
  928MOL0     H25280   9.653   3.400   3.288  3.8928 -0.5921 -0.2424
  929MOL0     O25281   6.486   3.878   7.936 -0.5684 -0.1297  0.2569
  929MOL0     C25282   6.500   3.940   8.040  0.6481  0.5000 -0.4479
  929MOL0     O25283   6.615   3.938   8.105  0.5284 -0.4376 -0.4694
  929MOL0     C25284   6.731   3.905   8.044  0.0845  0.3533 -0.8817
  929MOL0     C25285   6.829   3.859   8.128 -0.2081  0.4479 -0.5749
  929MOL0     C25286   6.948   3.810   8.080  0.0414 -0.0199  0.3670
  929MOL0     C25287   6.984   3.828   7.944 -0.1201  0.5094 -0.6448
  929MOL0     O25288   7.113   3.784   7.904 -0.6315 -0.3326  0.2361
  929MOL0     C25289   7.158   3.805   7.766 -0.4159  0.7264  0.4674
  929MOL0     C25290   7.301   3.769   7.767  0.1839 -0.1234  0.9574
  929MOL0     C25291   7.349   3.759   7.622 -0.9388  0.1095  0.1277
  929MOL0     C25292   7.362   3.896   7.550 -0.3468 -0.4407  0.7462
  929MOL0     C25293   7.399   3.877   7.397  0.1683 -0.3307 -0.3999
  929MOL0     C25294   7.414   4.006   7.309  0.5034 -0.0799 -0.3684
  929MOL0     C25295   7.507   4.113   7.390 -0.2847 -0.2752 -0.3049
  929MOL0     C25296   7.649   4.058   7.426  0.0295  0.0525  0.1022
  929MOL0     N25297   7.748   4.161   7.443  0.3404  0.0779  0.2524
  929MOL0     C25298   7.728   4.284   7.510  0.5272  0.7178 -0.1951
  929MOL0     C25299   7.844   4.353   7.481  0.0655  0.5395 -1.2426
  929MOL0     C25300   7.858   4.503   7.505  0.3961  0.5205 -0.0025
  929MOL0     C25301   7.869   4.574   7.370 -0.6637  0.5765 -0.3381
  929MOL0     C25302   7.839   4.725   7.388  0.0916  0.3638 -0.7704
  929MOL0     C25303   7.840   4.806   7.264  0.3572  0.6373  0.8417
  929MOL0     O25304   7.964   4.773   7.194 -0.4917  0.3904  0.2806
  929MOL0     C25305   8.086   4.799   7.255  0.1084  0.1125  0.0691
  929MOL0     C25306   8.119   4.917   7.320  0.2934  0.9043 -0.2557
  929MOL0     C25307   8.252   4.931   7.373 -0.1292  0.9367  0.4112
  929MOL0     C25308   8.341   4.826   7.370  0.3676  0.1802 -0.2223
  929MOL0     C25309   8.481   4.848   7.436  0.4483  0.6602  0.6358
  929MOL0     O25310   8.559   4.735   7.429  0.3379 -0.2083 -0.1393
  929MOL0     C25311   8.688   4.737   7.478 -0.9463  0.3011 -0.3087
  929MOL0     C25312   8.737   4.619   7.535  0.0628  0.9774  0.1458
  929MOL0     C25313   8.876   4.610   7.573 -0.1497  0.5524 -0.1139
  929MOL0     C25314   8.957   4.723   7.576 -0.1865  0.2253  0.3931
  929MOL0     O25315   9.083   4.703   7.624  0.3635  1.1858  0.3941
  929MOL0     C25316   9.194   4.768   7.557 -0.8054  0.3232 -0.3900
  929MOL0     C25317   9.314   4.666   7.564  0.1399  0.2106 -1.2747
  929MOL0     C25318   9.303   4.565   7.456  0.4016  0.6314  0.2945
  929MOL0     C25319   9.374   4.434   7.482  0.0088 -0.4775  0.6367
  929MOL0     C25320   9.345   4.335   7.363  0.0276 -0.3337 -0.3841
  929MOL0     C25321   9.458   4.240   7.338 -1.1873 -0.1850 -0.6528
  929MOL0     C25322   9.462   4.138   7.446 -0.2536 -0.0188  0.4264
  929MOL0     C25323   9.571   4.030   7.431  0.2463 -0.2734  0.0496
  929MOL0    Cl25324   9.575   3.939   7.584  0.0864 -0.1000  0.1412
  929MOL0     C25325   8.912   4.840   7.523  0.4269  0.7194 -0.3878
  929MOL0     C25326   8.779   4.844   7.478 -0.1273  0.3525  0.0810
  929MOL0     O25327   8.507   4.958   7.483  0.0985  0.1615  0.0994
  929MOL0     C25328   8.303   4.707   7.318  0.7017  0.5292 -0.4937
  929MOL0     C25329   8.176   4.692   7.263  0.0205 -0.9769  0.8738
  929MOL0     N25330   7.934   4.267   7.421  1.0468  0.0841  0.1669
  929MOL0     N25331   7.873   4.157   7.387  0.3510 -0.6425  0.1878
  929MOL0     C25332   6.897   3.892   7.860 -0.8076  1.0382 -0.5282
  929MOL0     C25333   6.772   3.940   7.908 -0.0388 -0.8114 -0.4063
  929MOL0     C25334   6.378   3.985   8.109 -0.2131 -0.4055  0.2696
  929MOL0     C25335   6.290   4.066   8.036 -0.7835  0.0385  0.0879
  929MOL0     C25336   6.181   4.124   8.080  0.6123  0.7375  0.1712
  929MOL0     C25337   6.144   4.105   8.207  0.7184  0.3794 -0.7048
  929MOL0     O25338   6.029   4.157   8.264  0.4652 -0.0080 -0.3747
  929MOL0     C25339   5.933   4.223   8.182 -0.9434 -0.8922  0.6816
  929MOL0     C25340   5.840   4.305   8.270 -0.8881  0.2988  0.0103
  929MOL0     C25341   5.713   4.361   8.201 -0.2224 -0.3032 -0.6370
  929MOL0     C25342   5.742   4.469   8.103  0.1471  0.4116 -0.6053
  929MOL0     C25343   5.616   4.545   8.090  0.5790  0.6381 -1.0164
  929MOL0     C25344   5.528   4.622   8.070  0.6230 -0.3436 -0.6280
  929MOL0     C25345   6.226   4.024   8.289 -0.5424 -0.5721  0.0882
  929MOL0     C25346   6.346   3.964   8.244 -0.7237  0.5644 -0.1377
  929MOL0     C25347   6.434   3.887   8.337  0.5148  0.2697  0.6967
  929MOL0     H25348   6.793   3.829   8.226 -2.9143 -1.6295 -2.0836
  929MOL0     H25349   7.022   3.769   8.148  1.1242 -0.2463 -0.9272
  929MOL0     H25350   7.091   3.754   7.696 -1.6504  1.3940  1.1437
  929MOL0     H25351   7.153   3.910   7.735  1.9150  0.6655 -0.3070
  929MOL0     H25352   7.312   3.673   7.820  0.7894  0.6522  2.3000
  929MOL0     H25353   7.369   3.840   7.815  0.8836  0.8562 -1.3410
  929MOL0     H25354   7.275   3.699   7.567 -0.0459 -1.7153  0.8313
  929MOL0     H25355   7.445   3.705   7.619 -0.6573  0.6352 -0.5591
  929MOL0     H25356   7.267   3.950   7.555 -0.6580 -1.0012  0.9674
  929MOL0     H25357   7.423   3.967   7.606 -3.5917  3.7515 -0.5172
  929MOL0     H25358   7.483   3.808   7.386 -0.8898 -1.4890 -1.5898
  929MOL0     H25359   7.315   3.815   7.365 -0.5359  0.5275 -0.2633
  929MOL0     H25360   7.459   3.980   7.213  0.7818  0.1321 -0.2961
  929MOL0     H25361   7.318   4.056   7.295  0.8551 -0.0067 -2.8298
  929MOL0     H25362   7.455   4.143   7.481  0.1318  0.9747 -0.4630
  929MOL0     H25363   7.506   4.204   7.329 -1.2710  0.1553  0.3315
  929MOL0     H25364   7.643   4.002   7.520 -2.9145 -1.4224 -0.8224
  929MOL0     H25365   7.683   3.990   7.347  0.0364 -0.6526  0.7081
  929MOL0     H25366   7.630   4.300   7.554 -0.3676 -2.4190 -0.7988
  929MOL0     H25367   7.769   4.541   7.556 -0.0773  2.0374 -1.8302
  929MOL0     H25368   7.944   4.541   7.560  2.2418 -2.1718 -0.8041
  929MOL0     H25369   7.966   4.547   7.326 -1.6599 -2.8610 -0.7002
  929MOL0     H25370   7.794   4.531   7.304 -0.2364  0.4130 -0.7192
  929MOL0     H25371   7.911   4.771   7.456  0.8989 -0.8458 -0.7922
  929MOL0     H25372   7.743   4.741   7.440  1.4063  2.2491  1.2818
  929MOL0     H25373   7.845   4.914   7.282  1.9123  0.5549  0.9661
  929MOL0     H25374   7.759   4.775   7.196 -0.6917  0.0606  2.3152
  929MOL0     H25375   8.048   4.997   7.342  0.2715  0.4622  1.3946
  929MOL0     H25376   8.280   5.022   7.424  0.5541  1.4422 -0.8357
  929MOL0     H25377   8.676   4.529   7.536  0.3915  0.7127  2.5302
  929MOL0     H25378   8.914   4.522   7.625  0.9242 -0.0053 -1.7686
  929MOL0     H25379   9.185   4.801   7.453 -1.2128 -1.8494 -1.1177
  929MOL0     H25380   9.224   4.849   7.623 -1.2394  0.1343  0.0526
  929MOL0     H25381   9.395   4.738   7.545 -0.1799  1.0567  0.4211
  929MOL0     H25382   9.328   4.628   7.665  2.6911  0.3309 -1.5063
  929MOL0     H25383   9.195   4.548   7.455 -0.8662  5.3476  5.3803
  929MOL0     H25384   9.337   4.614   7.364 -1.6278  3.4853  0.9266
  929MOL0     H25385   9.338   4.392   7.576 -1.8155  1.0198  0.6664
  929MOL0     H25386   9.481   4.445   7.502 -0.5515  0.4239  3.6750
  929MOL0     H25387   9.329   4.400   7.277 -3.0514 -3.1803 -2.2100
  929MOL0     H25388   9.249   4.284   7.372  0.2281 -1.8773 -4.7505
  929MOL0     H25389   9.439   4.187   7.244 -1.5717 -1.6028  0.2022
  929MOL0     H25390   9.553   4.294   7.338 -1.5358  0.8516  3.8075
  929MOL0     H25391   9.369   4.081   7.447 -0.5298  0.4131 -0.1686
  929MOL0     H25392   9.461   4.191   7.542  2.5388 -1.1908  1.1946
  929MOL0     H25393   9.566   3.956   7.351  0.3116 -0.3752  0.1396
  929MOL0     H25394   9.665   4.082   7.412  0.5229 -0.6776  0.3184
  929MOL0     H25395   8.971   4.931   7.515 -1.6258  2.0455 -1.6653
  929MOL0     H25396   8.747   4.938   7.435 -1.6254  0.7846  2.0224
  929MOL0     H25397   8.374   4.625   7.321  0.2532  0.0330 -2.1590
  929MOL0     H25398   8.149   4.599   7.215 -0.1872 -1.8931  2.7047
  929MOL0     H25399   6.908   3.905   7.753 -1.0658  0.2399 -0.6565
  929MOL0     H25400   6.712   4.007   7.848  0.3858 -0.3208 -0.2867
  929MOL0     H25401   6.313   4.074   7.930 -0.5798 -0.3813  0.0981
  929MOL0     H25402   6.129   4.181   8.004  0.4569  0.9536  0.4329
  929MOL0     H25403   5.881   4.142   8.129  0.0957 -0.4211 -1.1048
  929MOL0     H25404   5.974   4.292   8.108  0.0852 -1.8126  0.3635
  929MOL0     H25405   5.906   4.382   8.311  0.6733 -0.4275 -1.0469
  929MOL0     H25406   5.795   4.235   8.341 -1.5488  1.6647  0.9931
  929MOL0     H25407   5.665   4.405   8.289 -0.6217 -0.4468 -0.7806
  929MOL0     H25408   5.649   4.280   8.165 -0.2147 -0.0029 -1.3597
  929MOL0     H25409   5.813   4.543   8.141  1.1841 -1.5142  1.4455
  929MOL0     H25410   5.795   4.429   8.016 -1.1398 -1.7926 -0.4557
  929MOL0     H25411   5.456   4.697   8.042  0.6706  0.5834  1.5028
  929MOL0     H25412   6.209   4.022   8.396 -1.0174  0.9241  0.0679
  929MOL0     H25413   6.374   3.847   8.419 -2.2474  3.8331  0.6773
  929MOL0     H25414   6.500   3.812   8.294  1.4576  0.8951  1.0152
  929MOL0     H25415   6.498   3.958   8.391 -1.1706  0.9936  1.8255
  930MOL0     O25416   0.157   4.390   0.936 -0.0609  0.2643  0.0433
  930MOL0     C25417   0.118   4.500   0.907 -0.2190 -0.4817  0.5245
  930MOL0     O25418   0.205   4.599   0.876  0.0375  0.3077  0.2043
  930MOL0     C25419   0.328   4.557   0.827  0.3353  0.1040  0.5362
  930MOL0     C25420   0.425   4.491   0.903  0.0903 -0.1699  1.5180
  930MOL0     C25421   0.548   4.461   0.854  0.1652  0.7570 -0.1664
  930MOL0     C25422   0.576   4.476   0.715  0.9011 -0.1325 -0.2605
  930MOL0     O25423   0.707   4.441   0.676 -0.2113  0.1685  0.5533
  930MOL0     C25424   0.776   4.543   0.588 -0.2883 -0.2369  0.9717
  930MOL0     C25425   0.931   4.520   0.596  0.7507  0.0323  0.0197
  930MOL0     C25426   0.979   4.426   0.482  0.2393  0.0029 -1.0068
  930MOL0     C25427   1.134   4.406   0.504 -0.3608 -0.1308  0.6219
  930MOL0     C25428   1.191   4.296   0.407  0.2867 -0.0196 -0.1841
  930MOL0     C25429   1.341   4.282   0.442 -0.4491 -0.0430  1.1127
  930MOL0     C25430   1.405   4.210   0.329 -0.0678  0.9176  0.1422
  930MOL0     C25431   1.559   4.184   0.348  0.0615 -0.0913  0.3337
  930MOL0     N25432   1.594   4.079   0.438 -0.6729  0.1390 -0.4930
  930MOL0     C25433   1.585   3.941   0.421 -0.1212  0.4460  0.2866
  930MOL0     C25434   1.616   3.894   0.546 -0.2729  1.2207 -0.0502
  930MOL0     C25435   1.621   3.740   0.569  0.1225 -1.0992  0.6496
  930MOL0     C25436   1.767   3.703   0.608 -0.5709 -0.2653  0.1604
  930MOL0     C25437   1.782   3.638   0.743  0.1366  0.1514  0.3223
  930MOL0     C25438   1.934   3.635   0.778  0.0384  0.6985  0.0598
  930MOL0     O25439   2.007   3.586   0.664  0.0580  0.3693 -0.1376
  930MOL0     C25440   2.145   3.601   0.648 -0.0369  0.0261 -0.6226
  930MOL0     C25441   2.192   3.573   0.523 -0.4697  0.2638 -0.6592
  930MOL0     C25442   2.324   3.592   0.488 -0.2502  0.5192 -0.6139
  930MOL0     C25443   2.414   3.646   0.582  0.5617 -0.0389  0.9318
  930MOL0     C25444   2.554   3.645   0.556  0.0838 -0.9206 -0.5808
  930MOL0     O25445   2.591   3.611   0.422  0.7071  0.1531  0.6440
  930MOL0     C25446   2.730   3.614   0.397  1.0225  0.4909  0.2911
  930MOL0     C25447   2.797   3.722   0.340 -0.6652 -0.6927 -0.0985
  930MOL0     C25448   2.933   3.731   0.350  0.2142  0.4826  0.0817
  930MOL0     C25449   3.007   3.620   0.406  0.7508 -0.0853  0.4814
  930MOL0     O25450   3.144   3.618   0.417 -0.2204 -0.0829  0.0845
  930MOL0     C25451   3.219   3.733   0.385 -0.4356  0.0775 -0.1539
  930MOL0     C25452   3.265   3.726   0.239 -0.2402 -0.0900 -0.9514
  930MOL0     C25453   3.356   3.606   0.208  0.8652  0.6220  0.0645
  930MOL0     C25454   3.476   3.611   0.308 -0.4011 -0.3411 -0.4137
  930MOL0     C25455   3.579   3.535   0.236 -0.3496 -0.2275 -0.5770
  930MOL0     C25456   3.708   3.543   0.297 -0.4765 -0.2100 -1.0232
  930MOL0     C25457   3.814   3.462   0.225 -0.0715 -0.9933  0.0549
  930MOL0     C25458   3.919   3.415   0.328  0.0244  0.4801 -0.1885
  930MOL0    Cl25459   3.976   3.564   0.423 -0.3817  0.4296 -0.0824
  930MOL0     C25460   2.938   3.520   0.472  0.3329  0.4819 -0.5691
  930MOL0     C25461   2.799   3.511   0.451 -0.6977  0.5469 -0.7880
  930MOL0     O25462   2.632   3.684   0.647 -0.2171  0.6310 -0.1731
  930MOL0     C25463   2.372   3.663   0.716  1.0337 -0.8711  0.0766
  930MOL0     C25464   2.234   3.646   0.746 -0.4443  0.1108 -0.1558
  930MOL0     N25465   1.650   4.000   0.635  0.0655  0.0478 -0.4800
  930MOL0     N25466   1.637   4.105   0.568 -0.0069 -0.1064 -0.6508
  930MOL0     C25467   0.478   4.552   0.635 -0.6069  0.8766 -0.6710
  930MOL0     C25468   0.354   4.587   0.695 -0.4468  0.0058  0.1769
  930MOL0     C25469  -0.028   4.524   0.915  0.4449 -0.5375 -0.4984
  930MOL0     C25470  -0.103   4.412   0.958 -0.3686  0.5780  0.1612
  930MOL0     C25471  -0.244   4.418   0.979 -0.5397 -0.0608 -0.5141
  930MOL0     C25472  -0.314   4.534   0.966 -0.6698  0.9478 -0.4364
  930MOL0     O25473  -0.453   4.532   0.976  0.2408  0.9521 -0.2281
  930MOL0     C25474  -0.538   4.651   0.967 -0.8487 -0.5505 -0.1253
  930MOL0     C25475  -0.517   4.761   1.072  0.1234  1.5381 -0.2768
  930MOL0     C25476  -0.640   4.855   1.096  0.4216  0.0684  0.0854
  930MOL0     C25477  -0.682   4.936   0.972  0.5058  0.3668  0.9615
  930MOL0     C25478  -0.813   5.010   0.975  0.3600  1.0778  0.5702
  930MOL0     C25479  -0.918   5.072   0.983  0.3190  1.0131  0.5343
  930MOL0     C25480  -0.244   4.651   0.915  0.1357 -0.9654  0.0528
  930MOL0     C25481  -0.102   4.642   0.884 -0.1889 -0.4488 -0.0654
  930MOL0     C25482  -0.032   4.766   0.823 -0.0915  0.8964 -0.3415
  930MOL0     H25483   0.394   4.461   1.003 -3.3488 -1.8583  0.1205
  930MOL0     H25484   0.628   4.425   0.918  1.9396  1.2921 -1.9752
  930MOL0     H25485   0.750   4.527   0.483 -0.0217  0.3015  0.8245
  930MOL0     H25486   0.743   4.644   0.614  1.3651 -0.0487  2.5534
  930MOL0     H25487   0.955   4.480   0.695 -0.1460  2.5672  1.3591
  930MOL0     H25488   0.977   4.619   0.587  2.2480 -0.6378  0.0254
  930MOL0     H25489   0.960   4.480   0.388  0.5934  0.3129 -0.9073
  930MOL0     H25490   0.928   4.330   0.484  1.2539 -0.5326 -0.2756
  930MOL0     H25491   1.186   4.499   0.481  4.0411 -3.3757 -5.2943
  930MOL0     H25492   1.146   4.370   0.606 -1.3166  0.3693  0.9267
  930MOL0     H25493   1.139   4.204   0.436  1.7904 -0.4077  1.4572
  930MOL0     H25494   1.172   4.324   0.303 -1.3691  1.0448  0.3730
  930MOL0     H25495   1.396   4.376   0.438 -0.0674 -0.3132 -0.7702
  930MOL0     H25496   1.358   4.230   0.537 -1.0965 -1.4760  0.4774
  930MOL0     H25497   1.406   4.275   0.241 -1.6969 -1.9884 -2.2120
  930MOL0     H25498   1.347   4.121   0.303  0.3451  0.2858  1.2989
  930MOL0     H25499   1.605   4.158   0.252  2.8285  2.7869  0.7072
  930MOL0     H25500   1.605   4.279   0.375 -0.7635 -0.2985  2.6962
  930MOL0     H25501   1.555   3.892   0.329 -2.3527  0.2010  1.0780
  930MOL0     H25502   1.550   3.713   0.648  0.9231 -2.8187  0.8116
  930MOL0     H25503   1.589   3.674   0.489 -0.4068 -4.0160  3.0817
  930MOL0     H25504   1.797   3.630   0.533 -0.6967  0.2593 -0.4102
  930MOL0     H25505   1.840   3.784   0.595  1.5778 -1.8482  1.5308
  930MOL0     H25506   1.742   3.537   0.753  0.4376  0.1993  2.2224
  930MOL0     H25507   1.746   3.699   0.826 -0.0530  1.9022 -0.9951
  930MOL0     H25508   1.964   3.585   0.871  3.9129 -2.2259 -2.4877
  930MOL0     H25509   1.971   3.737   0.792 -2.3515  1.5787  0.5420
  930MOL0     H25510   2.111   3.530   0.465  0.9198  0.4779 -2.8452
  930MOL0     H25511   2.363   3.567   0.389 -0.9804  1.1273 -1.0712
  930MOL0     H25512   2.741   3.801   0.290 -1.4600 -1.0742  0.1700
  930MOL0     H25513   2.984   3.802   0.286  0.5972 -1.4666 -1.9025
  930MOL0     H25514   3.158   3.820   0.414 -1.5897 -0.7853  0.0974
  930MOL0     H25515   3.312   3.745   0.441  0.7198 -2.6225 -1.3191
  930MOL0     H25516   3.188   3.722   0.161 -2.7679  2.1458  1.2097
  930MOL0     H25517   3.314   3.823   0.224 -1.6806  1.2830  2.2650
  930MOL0     H25518   3.307   3.511   0.234  2.4227  0.3668  2.4054
  930MOL0     H25519   3.385   3.595   0.104 -1.4686 -0.7805 -0.5040
  930MOL0     H25520   3.437   3.558   0.395 -1.1697  0.6232 -0.1610
  930MOL0     H25521   3.516   3.708   0.338  0.6840 -1.2322  1.1611
  930MOL0     H25522   3.588   3.570   0.133 -1.4688  1.8434 -0.0299
  930MOL0     H25523   3.551   3.429   0.241 -1.1415  0.0176  0.3815
  930MOL0     H25524   3.742   3.646   0.312  1.5559 -1.2396  2.2597
  930MOL0     H25525   3.695   3.502   0.397  1.9722  0.1271 -0.5005
  930MOL0     H25526   3.862   3.532   0.155  2.6870 -1.3910  1.4145
  930MOL0     H25527   3.772   3.377   0.171 -1.1635  0.0087 -0.7410
  930MOL0     H25528   3.865   3.346   0.393  0.7128  1.6209  1.6500
  930MOL0     H25529   4.003   3.355   0.291  0.1697 -1.7256  3.3124
  930MOL0     H25530   2.986   3.442   0.530 -1.7706 -0.7674 -0.4146
  930MOL0     H25531   2.747   3.423   0.486  0.0074  0.9560  1.5345
  930MOL0     H25532   2.435   3.713   0.789  0.2444  1.1291 -0.5534
  930MOL0     H25533   2.209   3.668   0.850  1.2401  0.3573  0.2251
  930MOL0     H25534   0.493   4.593   0.536 -2.6457 -1.1448 -1.9171
  930MOL0     H25535   0.276   4.634   0.636  1.7929  3.9293  0.0030
  930MOL0     H25536  -0.069   4.317   0.998 -0.4078  0.4323 -0.1486
  930MOL0     H25537  -0.285   4.331   1.029  0.3442 -0.0889  0.1938
  930MOL0     H25538  -0.644   4.624   0.973 -0.9160 -0.0137  1.6188
  930MOL0     H25539  -0.520   4.700   0.871 -1.3385  1.5563  0.7982
  930MOL0     H25540  -0.427   4.816   1.043  0.9738 -0.0450 -0.7421
  930MOL0     H25541  -0.487   4.734   1.174  1.1376 -2.0485 -1.3822
  930MOL0     H25542  -0.620   4.919   1.183  1.0627  1.8700 -1.3144
  930MOL0     H25543  -0.721   4.788   1.125  2.4381 -2.5195  0.1120
  930MOL0     H25544  -0.595   4.999   0.951  0.8352  0.1567  1.6607
  930MOL0     H25545  -0.694   4.870   0.886  3.4970 -0.5481  1.1576
  930MOL0     H25546  -1.002   5.136   0.997  0.5097  1.2817  0.4550
  930MOL0     H25547  -0.304   4.738   0.891 -0.3215 -1.6114 -1.2465
  930MOL0     H25548  -0.002   4.758   0.718 -1.6263  2.5926 -0.9483
  930MOL0     H25549  -0.106   4.845   0.811 -2.8514 -1.6579 -1.4886
  930MOL0     H25550   0.041   4.809   0.892  0.6382  0.1945 -0.6597
  931MOL0     O25551   4.682   3.924   0.619  1.1974 -0.1068  0.1269
  931MOL0     C25552   4.702   4.011   0.536 -0.2845  0.3817  0.8466
  931MOL0     O25553   4.601   4.098   0.492 -0.3322 -0.4475  0.1272
  931MOL0     C25554   4.468   4.069   0.510 -0.1175  0.3669  0.3982
  931MOL0     C25555   4.396   4.050   0.392  0.1476 -0.4566 -0.6070
  931MOL0     C25556   4.258   4.022   0.402  0.0189 -0.1580 -0.0627
  931MOL0     C25557   4.193   4.006   0.521  0.2393 -0.2469  0.5478
  931MOL0     O25558   4.057   3.993   0.520 -0.0506  0.2778  0.3853
  931MOL0     C25559   3.999   3.918   0.628  1.0082  0.4185  1.6077
  931MOL0     C25560   3.844   3.911   0.622  1.2803  0.5710  0.0153
  931MOL0     C25561   3.772   3.875   0.754 -0.0087  0.0429  0.3910
  931MOL0     C25562   3.759   3.986   0.858  0.0419  0.5224  0.6487
  931MOL0     C25563   3.646   4.085   0.831 -0.8146 -0.1754  0.0887
  931MOL0     C25564   3.592   4.149   0.964  0.6498  0.2155 -0.4453
  931MOL0     C25565   3.488   4.252   0.941  0.7600 -0.9480  0.3179
  931MOL0     C25566   3.357   4.192   0.872  0.2153  0.1615  0.1264
  931MOL0     N25567   3.232   4.278   0.875 -1.1359 -0.4830  0.7561
  931MOL0     C25568   3.123   4.248   0.803 -0.1123 -0.1962 -0.0126
  931MOL0     C25569   3.041   4.358   0.810  0.3496  1.5378  0.7956
  931MOL0     C25570   2.895   4.360   0.763 -0.3797  0.3333  1.1173
  931MOL0     C25571   2.822   4.472   0.831 -0.7888  1.0084  0.0886
  931MOL0     C25572   2.672   4.447   0.820  0.0818  0.2171 -0.7129
  931MOL0     C25573   2.590   4.559   0.894  0.1787  0.5340  0.1109
  931MOL0     O25574   2.454   4.527   0.884 -0.0736  0.2223  0.5495
  931MOL0     C25575   2.364   4.625   0.850  0.8421  0.3295  0.8044
  931MOL0     C25576   2.262   4.664   0.940  0.4335 -0.1441 -0.6363
  931MOL0     C25577   2.158   4.747   0.896 -0.1719 -1.1413 -0.3512
  931MOL0     C25578   2.160   4.801   0.767 -0.4120  0.5107  0.4799
  931MOL0     C25579   2.058   4.903   0.734 -1.2072  0.5844 -0.2481
  931MOL0     O25580   1.959   4.926   0.831 -0.3659 -0.0896 -0.0839
  931MOL0     C25581   1.860   5.020   0.800 -0.3093  0.9196  0.9452
  931MOL0     C25582   1.759   4.989   0.700  0.5424 -0.4999  0.0771
  931MOL0     C25583   1.648   5.079   0.675 -0.0296 -0.1122  0.2178
  931MOL0     C25584   1.632   5.188   0.760 -0.3313  0.4455  0.0688
  931MOL0     O25585   1.530   5.279   0.749 -0.0233 -0.1702 -0.4894
  931MOL0     C25586   1.402   5.229   0.720  0.3920 -0.0182  1.0129
  931MOL0     C25587   1.288   5.342   0.735  0.5128 -0.0230  0.1305
  931MOL0     C25588   1.201   5.348   0.867  0.5623 -0.3561 -0.5779
  931MOL0     C25589   1.124   5.221   0.893 -0.2989  0.8149 -0.2168
  931MOL0     C25590   1.009   5.237   1.000  0.4565 -0.1326  0.3616
  931MOL0     C25591   0.937   5.112   1.048  0.3794  0.5880  0.0927
  931MOL0     C25592   0.797   5.130   1.106 -0.7028 -0.6250  0.9101
  931MOL0     C25593   0.705   5.146   0.985  0.6394  0.2064  0.1651
  931MOL0    Cl25594   0.552   5.170   1.051 -0.1958  0.1296  0.8875
  931MOL0     C25595   1.720   5.206   0.864 -0.2384 -0.2029 -0.3205
  931MOL0     C25596   1.841   5.134   0.886  1.0453  0.3092  0.2664
  931MOL0     O25597   2.070   4.962   0.626  0.5344 -0.1637  0.1664
  931MOL0     C25598   2.267   4.764   0.676  0.3746 -0.3862 -0.2359
  931MOL0     C25599   2.368   4.671   0.722  0.6719  0.3764  0.3379
  931MOL0     N25600   3.110   4.454   0.874 -0.4206  0.8649 -0.2375
  931MOL0     N25601   3.217   4.397   0.926  0.2172 -0.7504 -0.2665
  931MOL0     C25602   4.272   4.012   0.632 -0.7595  0.6206 -0.7365
  931MOL0     C25603   4.404   4.038   0.631  0.4674 -0.6802  0.4265
  931MOL0     C25604   4.847   4.035   0.508  0.4934 -0.0721 -0.1954
  931MOL0     C25605   4.938   3.940   0.560  0.1435 -0.2408  0.8207
  931MOL0     C25606   5.075   3.956   0.535 -0.1736  0.5482 -0.1118
  931MOL0     C25607   5.123   4.049   0.442  0.4223  0.4133  0.5072
  931MOL0     O25608   5.254   4.070   0.418  0.1009  0.3347  0.1505
  931MOL0     C25609   5.346   3.959   0.422 -0.4929  0.2615  0.5186
  931MOL0     C25610   5.477   4.004   0.353 -0.4106 -0.0353 -0.8045
  931MOL0     C25611   5.541   4.114   0.438 -0.4418  0.6149 -0.1959
  931MOL0     C25612   5.641   4.199   0.353  0.1131  0.6977 -0.7783
  931MOL0     C25613   5.617   4.342   0.389 -0.5134  0.1658  0.1304
  931MOL0     C25614   5.596   4.460   0.428  0.1621 -0.5334  0.4480
  931MOL0     C25615   5.022   4.131   0.385 -0.6424  1.0216  0.9562
  931MOL0     C25616   4.884   4.122   0.404 -0.3696  0.0926 -0.3224
  931MOL0     C25617   4.798   4.213   0.319 -0.2262 -0.7772  0.2988
  931MOL0     H25618   4.450   4.051   0.298 -0.1465  0.0922 -0.7780
  931MOL0     H25619   4.201   3.997   0.313  0.8717 -2.8823  0.0835
  931MOL0     H25620   4.027   3.813   0.625 -2.0998 -0.5085 -0.8387
  931MOL0     H25621   4.019   3.976   0.719 -0.0779  0.4517  1.8366
  931MOL0     H25622   3.808   3.831   0.556 -1.5809  0.7134  1.2394
  931MOL0     H25623   3.793   3.996   0.575 -1.4051 -1.5062 -1.1309
  931MOL0     H25624   3.826   3.789   0.795 -0.8095  0.0732  1.5373
  931MOL0     H25625   3.668   3.850   0.732  0.6535 -0.5350 -2.5486
  931MOL0     H25626   3.730   3.928   0.947  3.2088 -3.3886 -0.5578
  931MOL0     H25627   3.863   4.014   0.875 -0.2178  0.6275  2.2678
  931MOL0     H25628   3.688   4.162   0.767 -0.2130 -0.4903  0.0979
  931MOL0     H25629   3.556   4.039   0.788 -0.8255 -1.6242  1.5397
  931MOL0     H25630   3.557   4.069   1.030  0.0937 -0.5060 -1.5823
  931MOL0     H25631   3.676   4.199   1.013 -0.1047 -1.1636  2.4726
  931MOL0     H25632   3.532   4.317   0.865  0.4928  0.2261  1.1518
  931MOL0     H25633   3.455   4.308   1.029  3.7826  3.8770 -1.2629
  931MOL0     H25634   3.371   4.152   0.771  2.2181 -2.1148  1.2021
  931MOL0     H25635   3.337   4.097   0.921 -3.0014  1.3300  1.3041
  931MOL0     H25636   3.101   4.149   0.766  0.5742 -1.1178  1.9448
  931MOL0     H25637   2.901   4.377   0.655 -0.7980  1.6744  1.2970
  931MOL0     H25638   2.859   4.262   0.797 -0.0998  0.9339  3.3126
  931MOL0     H25639   2.849   4.485   0.936  0.8423  1.5421 -0.3618
  931MOL0     H25640   2.851   4.565   0.781 -0.9562 -0.0534 -2.0923
  931MOL0     H25641   2.643   4.347   0.854 -1.6897  1.2111  0.8855
  931MOL0     H25642   2.638   4.451   0.716 -1.6737 -0.8370 -0.2225
  931MOL0     H25643   2.614   4.654   0.844 -0.6847  0.8113  0.2127
  931MOL0     H25644   2.628   4.547   0.996 -0.9218  0.3081  0.4989
  931MOL0     H25645   2.267   4.630   1.043 -0.6727  1.7395  0.0883
  931MOL0     H25646   2.077   4.781   0.960 -0.4336  2.2624 -2.2803
  931MOL0     H25647   1.770   4.899   0.640  3.0118  0.5600 -1.1979
  931MOL0     H25648   1.581   5.056   0.592  2.1315 -0.6503 -1.4828
  931MOL0     H25649   1.414   5.209   0.613 -0.7150 -1.8504  1.1795
  931MOL0     H25650   1.379   5.134   0.769 -1.3082 -1.0110 -1.5001
  931MOL0     H25651   1.343   5.436   0.726 -0.1131  0.3665  0.2695
  931MOL0     H25652   1.226   5.342   0.645  2.8729  1.4560 -1.6088
  931MOL0     H25653   1.267   5.368   0.952 -0.8357  1.0937  0.2368
  931MOL0     H25654   1.133   5.433   0.857 -0.3913 -1.0892 -0.4736
  931MOL0     H25655   1.202   5.148   0.916  1.1058  2.0893 -0.7342
  931MOL0     H25656   1.081   5.187   0.798 -1.7157  1.2934  0.2310
  931MOL0     H25657   0.941   5.302   0.943 -0.6141 -0.6362  1.0280
  931MOL0     H25658   1.046   5.283   1.092  2.2360 -2.9150  1.1704
  931MOL0     H25659   0.931   5.053   0.956 -1.6548  0.1155  0.4850
  931MOL0     H25660   1.008   5.058   1.111  0.4572  0.9205  0.2913
  931MOL0     H25661   0.798   5.224   1.161  1.5869  0.3571 -0.6706
  931MOL0     H25662   0.771   5.040   1.162 -1.0128 -1.5526 -0.6443
  931MOL0     H25663   0.738   5.225   0.918  1.6134 -2.2313 -2.4230
  931MOL0     H25664   0.695   5.054   0.926 -0.8198  0.1433  0.4673
  931MOL0     H25665   1.706   5.291   0.930 -0.6626  0.6088 -1.4315
  931MOL0     H25666   1.908   5.157   0.968 -0.7434  0.9373  1.6095
  931MOL0     H25667   2.254   4.803   0.576  1.3476  4.1991  1.1635
  931MOL0     H25668   2.432   4.621   0.651  0.5664  0.9177 -0.1432
  931MOL0     H25669   4.225   4.001   0.730  0.5014  1.0363 -0.0687
  931MOL0     H25670   4.463   4.037   0.723  0.5640 -3.0636  0.4020
  931MOL0     H25671   4.910   3.849   0.613  2.0910 -2.6342 -1.8667
  931MOL0     H25672   5.132   3.887   0.596  3.7540  0.8068 -3.0445
  931MOL0     H25673   5.311   3.869   0.371 -1.4255  0.7257  0.3270
  931MOL0     H25674   5.371   3.923   0.522 -0.6465  2.8491  1.5676
  931MOL0     H25675   5.452   4.049   0.257 -4.9243  0.7793  0.5176
  931MOL0     H25676   5.551   3.924   0.357  0.9879  1.2314  0.1174
  931MOL0     H25677   5.583   4.093   0.536  3.1886  0.1771 -1.6803
  931MOL0     H25678   5.458   4.178   0.470 -3.4551 -2.8703 -0.2934
  931MOL0     H25679   5.737   4.164   0.393  0.1695  1.8359  0.1083
  931MOL0     H25680   5.647   4.181   0.245  1.8879  2.1792 -0.9673
  931MOL0     H25681   5.554   4.556   0.450 -5.3852 -2.3684 -0.5498
  931MOL0     H25682   5.057   4.216   0.327 -2.4536  2.5147  1.9608
  931MOL0     H25683   4.763   4.293   0.384  1.6995 -0.2086  0.6794
  931MOL0     H25684   4.851   4.263   0.237 -0.0510  0.7308  1.2806
  931MOL0     H25685   4.712   4.156   0.281 -0.1729 -2.1138  2.0826
  932MOL0     O25686   3.268   1.314   8.792  0.6644  0.0208 -0.5401
  932MOL0     C25687   3.389   1.280   8.792 -0.3745 -0.3504  0.5875
  932MOL0     O25688   3.443   1.163   8.755 -0.1238  0.4494 -0.2210
  932MOL0     C25689   3.356   1.081   8.686 -0.5963 -0.1895 -0.0264
  932MOL0     C25690   3.247   1.019   8.755 -0.5000 -0.6768  0.1328
  932MOL0     C25691   3.164   0.935   8.685 -0.0244 -0.3617  0.7232
  932MOL0     C25692   3.173   0.915   8.546 -0.3831  0.3562  0.4457
  932MOL0     O25693   3.080   0.850   8.470  0.0168  0.4899  0.4653
  932MOL0     C25694   2.980   0.786   8.544 -0.5165  0.3397 -0.4335
  932MOL0     C25695   2.885   0.712   8.443  0.1545  0.2684 -0.8430
  932MOL0     C25696   2.957   0.595   8.371 -0.1415 -0.6139  0.3713
  932MOL0     C25697   2.877   0.514   8.276  1.0409  1.4315  0.2655
  932MOL0     C25698   2.956   0.388   8.214 -0.6948 -0.8331  0.2467
  932MOL0     C25699   2.860   0.293   8.132 -0.3984 -0.9086 -0.3758
  932MOL0     C25700   2.948   0.197   8.065  0.0107 -0.0012  0.3209
  932MOL0     C25701   2.860   0.096   8.016 -0.3364 -0.1280  0.3608
  932MOL0     N25702   2.807   0.132   7.885  0.1852  0.2673  0.5063
  932MOL0     C25703   2.889   0.149   7.771  0.4933  0.0708 -0.2357
  932MOL0     C25704   2.823   0.213   7.672 -0.2192 -0.4972 -0.5870
  932MOL0     C25705   2.888   0.274   7.555  0.0209 -1.0811 -1.5250
  932MOL0     C25706   2.945   0.172   7.464 -0.8974 -0.1859  0.3677
  932MOL0     C25707   3.013   0.231   7.341  0.2629  0.5644  0.5416
  932MOL0     C25708   3.065   0.121   7.245  0.1333  0.6154  0.3704
  932MOL0     O25709   3.175   0.048   7.302 -0.0028 -0.0278  0.5315
  932MOL0     C25710   3.304   0.090   7.290  0.4692  0.2096 -0.0584
  932MOL0     C25711   3.344   0.205   7.226  0.1455 -0.5498 -0.5372
  932MOL0     C25712   3.482   0.232   7.224  0.3319  0.3306  0.0753
  932MOL0     C25713   3.578   0.137   7.260 -0.3923  0.6679  0.2472
  932MOL0     C25714   3.729   0.162   7.236 -0.1823  0.0777 -0.3705
  932MOL0     O25715   3.814   0.057   7.264 -0.0123  0.6513  0.4394
  932MOL0     C25716   3.948   0.079   7.237  0.7426  1.1543 -0.0207
  932MOL0     C25717   4.025  -0.012   7.163  0.4399  0.3310  0.1292
  932MOL0     C25718   4.163  -0.009   7.164 -0.2206 -0.1149 -0.5213
  932MOL0     C25719   4.225   0.093   7.239 -0.1108 -0.4991 -0.0196
  932MOL0     O25720   4.358   0.085   7.249 -0.5254 -0.5228 -0.2675
  932MOL0     C25721   4.418   0.144   7.363  0.0957 -0.3751 -0.8083
  932MOL0     C25722   4.562   0.088   7.374 -0.7655 -0.6598 -0.6822
  932MOL0     C25723   4.580  -0.041   7.447 -0.0329 -0.4607 -0.3520
  932MOL0     C25724   4.729  -0.065   7.472 -0.0936 -0.4317  0.5942
  932MOL0     C25725   4.760  -0.186   7.559  1.0878  0.6499  0.2592
  932MOL0     C25726   4.907  -0.176   7.609 -0.2830  0.3168  1.5705
  932MOL0     C25727   5.005  -0.221   7.493 -0.5560  0.1806 -0.6311
  932MOL0     C25728   4.992  -0.350   7.415  0.4539  0.7486 -0.6053
  932MOL0    Cl25729   4.992  -0.495   7.529 -0.1790 -0.0807 -0.4807
  932MOL0     C25730   4.145   0.193   7.295  0.3980  0.0070  1.6782
  932MOL0     C25731   4.008   0.182   7.298 -0.7958 -0.1366 -0.4570
  932MOL0     O25732   3.764   0.276   7.210 -0.2138 -0.2035 -1.3329
  932MOL0     C25733   3.540   0.024   7.319  0.1299 -0.4408 -0.2126
  932MOL0     C25734   3.406  -0.000   7.340  0.6306 -1.4298 -0.2926
  932MOL0     N25735   2.691   0.229   7.725  0.1314  1.0150 -0.1275
  932MOL0     N25736   2.685   0.188   7.846  0.4497  0.4715 -0.0398
  932MOL0     C25737   3.284   0.964   8.479 -0.1355 -0.2272 -0.9877
  932MOL0     C25738   3.373   1.048   8.544 -0.5273 -0.1477  0.0146
  932MOL0     C25739   3.483   1.382   8.853  0.0666  0.5231  0.5756
  932MOL0     C25740   3.619   1.347   8.865  0.5586  0.6981  0.1165
  932MOL0     C25741   3.715   1.441   8.925  0.2834  0.1523  0.6925
  932MOL0     C25742   3.681   1.573   8.934  1.3399  0.0331  1.8307
  932MOL0     O25743   3.781   1.660   8.970 -0.1656  0.0475  0.1047
  932MOL0     C25744   3.769   1.792   8.931 -0.6708 -0.1075  0.8351
  932MOL0     C25745   3.884   1.862   8.998  0.1225  0.3865  0.0823
  932MOL0     C25746   3.934   1.981   8.916 -0.0203  0.3997  0.3235
  932MOL0     C25747   4.040   1.929   8.819 -0.8981  1.0439 -0.8954
  932MOL0     C25748   4.062   2.022   8.706  0.3729  0.5558 -0.4209
  932MOL0     C25749   4.080   2.099   8.620  0.8495  0.3184  0.7007
  932MOL0     C25750   3.549   1.606   8.913 -0.3746  0.8214 -0.9807
  932MOL0     C25751   3.448   1.512   8.882 -0.8663  0.6648 -0.1397
  932MOL0     C25752   3.309   1.574   8.890  0.4847  0.9161 -1.0544
  932MOL0     H25753   3.218   1.044   8.856 -1.6283  1.0810 -0.5836
  932MOL0     H25754   3.075   0.905   8.740 -0.4662  1.8049  1.2773
  932MOL0     H25755   3.017   0.706   8.609 -0.6235  1.0087  0.4691
  932MOL0     H25756   2.920   0.856   8.603 -2.7264 -1.2997 -0.5791
  932MOL0     H25757   2.845   0.790   8.377 -1.6239 -1.1399 -1.5178
  932MOL0     H25758   2.790   0.678   8.484  1.1704 -4.0467 -1.5749
  932MOL0     H25759   3.007   0.542   8.452  0.8904  0.9686  0.8149
  932MOL0     H25760   3.039   0.640   8.314  1.4157 -2.6131  0.8879
  932MOL0     H25761   2.793   0.475   8.334  1.2298 -0.8199 -0.8672
  932MOL0     H25762   2.848   0.579   8.192  3.2678  1.9556 -0.1673
  932MOL0     H25763   3.036   0.428   8.152 -1.4792  2.6561  1.2905
  932MOL0     H25764   3.005   0.336   8.297 -0.8039 -1.7222 -0.2329
  932MOL0     H25765   2.781   0.256   8.198 -0.5543  2.5312  1.5747
  932MOL0     H25766   2.810   0.339   8.046 -2.3054 -2.7187 -0.3123
  932MOL0     H25767   3.023   0.153   8.131  1.7087  3.0521  0.6170
  932MOL0     H25768   3.007   0.239   7.983 -3.2685 -0.9266 -2.7598
  932MOL0     H25769   2.922   0.006   8.007 -0.7439 -0.2579 -1.6732
  932MOL0     H25770   2.782   0.072   8.088 -1.0864 -1.1056 -0.7458
  932MOL0     H25771   2.990   0.109   7.778 -0.7192 -2.9706  2.4677
  932MOL0     H25772   2.813   0.342   7.513  1.0739  0.1595 -1.4648
  932MOL0     H25773   2.975   0.336   7.581 -0.6025 -1.7246  2.8900
  932MOL0     H25774   3.019   0.111   7.517  0.4508  1.7849  0.8657
  932MOL0     H25775   2.864   0.111   7.421 -1.2114  0.8265 -0.5148
  932MOL0     H25776   3.099   0.287   7.378 -0.9834  2.8549  0.1627
  932MOL0     H25777   2.946   0.292   7.280 -2.6045 -1.4036  1.5077
  932MOL0     H25778   3.097   0.175   7.155  0.7138  0.9671  0.7775
  932MOL0     H25779   2.988   0.048   7.217  1.8393 -0.8855 -0.6264
  932MOL0     H25780   3.275   0.273   7.177  2.9760  1.7022 -1.7264
  932MOL0     H25781   3.509   0.324   7.172  0.8056  0.2763  0.2155
  932MOL0     H25782   3.970  -0.090   7.111  0.3142  1.8143 -2.1108
  932MOL0     H25783   4.227  -0.053   7.088 -0.0129  3.0255 -2.2956
  932MOL0     H25784   4.420   0.253   7.362  1.2744 -0.3609 -3.2215
  932MOL0     H25785   4.357   0.107   7.446  0.4622 -1.6598 -1.0896
  932MOL0     H25786   4.594   0.072   7.271  2.2564 -1.3708  0.2845
  932MOL0     H25787   4.629   0.170   7.403 -2.7438  1.0746 -0.7809
  932MOL0     H25788   4.518  -0.028   7.536  1.9880 -2.2958  1.4369
  932MOL0     H25789   4.550  -0.128   7.387  1.4239 -0.1482 -1.5847
  932MOL0     H25790   4.758   0.022   7.532 -0.7072 -1.7665  2.9125
  932MOL0     H25791   4.776  -0.067   7.373  1.2234  3.2315  0.9698
  932MOL0     H25792   4.741  -0.276   7.499 -1.4055  0.3203  1.4339
  932MOL0     H25793   4.692  -0.196   7.644  3.8989  0.5939  2.6696
  932MOL0     H25794   4.930  -0.071   7.625 -0.5257  0.1935  2.8930
  932MOL0     H25795   4.929  -0.226   7.705  3.3117  1.2514  1.4073
  932MOL0     H25796   5.102  -0.223   7.544 -0.2926 -2.2018 -1.1427
  932MOL0     H25797   5.001  -0.147   7.412 -1.7028  0.8160 -0.0235
  932MOL0     H25798   4.902  -0.348   7.354 -0.2857  0.7194  0.4665
  932MOL0     H25799   5.078  -0.359   7.348  1.0270  2.5943 -0.1642
  932MOL0     H25800   4.193   0.276   7.346 -0.2161  1.3868  0.1031
  932MOL0     H25801   3.948   0.260   7.344  1.4261  1.4814 -0.1287
  932MOL0     H25802   3.611  -0.056   7.335 -0.4856 -1.8732 -3.7562
  932MOL0     H25803   3.360  -0.089   7.382 -2.8543 -0.8575 -2.4827
  932MOL0     H25804   3.295   0.945   8.372 -1.7184 -4.2411 -0.5907
  932MOL0     H25805   3.459   1.088   8.492  1.8273 -0.7702  3.1768
  932MOL0     H25806   3.654   1.246   8.844  1.1421  1.0425 -0.5636
  932MOL0     H25807   3.819   1.412   8.932  1.6685  3.4973 -2.5519
  932MOL0     H25808   3.677   1.838   8.968  0.4298  1.1444  2.1699
  932MOL0     H25809   3.769   1.801   8.822 -2.1413 -4.9897  0.1780
  932MOL0     H25810   3.960   1.785   9.012 -2.0346 -1.7773  0.8147
  932MOL0     H25811   3.840   1.900   9.091 -3.7472  0.2866 -1.4892
  932MOL0     H25812   3.973   2.049   8.993 -1.4115 -0.5882  1.9830
  932MOL0     H25813   3.854   2.032   8.862 -1.0133 -1.4071  0.0122
  932MOL0     H25814   4.143   1.921   8.855 -0.8816  1.8406 -0.7513
  932MOL0     H25815   4.024   1.825   8.787 -0.0622  0.5349  0.2888
  932MOL0     H25816   4.078   2.158   8.531  1.8911  1.7932  1.6156
  932MOL0     H25817   3.526   1.712   8.922  1.0269  0.9454  2.8701
  932MOL0     H25818   3.248   1.503   8.947  0.2649  2.6596  1.0338
  932MOL0     H25819   3.310   1.674   8.935  0.5176 -0.6811  2.8296
  932MOL0     H25820   3.261   1.574   8.792  0.7638  1.0102 -1.1921
  933MOL0     O25821   1.217   8.529   9.315 -0.2643  0.1765  0.9619
  933MOL0     C25822   1.137   8.614   9.356 -0.2682  0.4511  0.6894
  933MOL0     O25823   1.156   8.705   9.461 -0.4344 -0.2594  0.3379
  933MOL0     C25824   1.271   8.682   9.537 -0.2773  0.4649  1.0069
  933MOL0     C25825   1.302   8.563   9.606  0.6628 -0.8585 -0.1166
  933MOL0     C25826   1.408   8.564   9.693 -0.3516 -0.0124  0.7244
  933MOL0     C25827   1.490   8.677   9.710 -0.1669 -0.0945  0.1995
  933MOL0     O25828   1.585   8.670   9.803 -0.2713  0.0127 -0.5745
  933MOL0     C25829   1.639   8.803   9.844  0.2659 -0.7100 -0.3946
  933MOL0     C25830   1.757   8.780   9.938 -0.0915  0.0995 -1.1605
  933MOL0     C25831   1.866   8.693   9.869  0.0129 -0.0015 -0.9284
  933MOL0     C25832   2.006   8.716   9.928 -0.0065  0.4717 -0.0038
  933MOL0     C25833   2.113   8.620   9.878 -0.2336  1.0542 -0.2601
  933MOL0     C25834   2.264   8.666   9.882  0.5690  0.7920  0.5516
  933MOL0     C25835   2.293   8.763   9.770  0.3269 -0.6838  0.3094
  933MOL0     C25836   2.317   8.710   9.628 -0.2563  0.0443 -0.7651
  933MOL0     N25837   2.454   8.726   9.583  0.0690  0.5574  0.3583
  933MOL0     C25838   2.561   8.674   9.651 -0.1928 -0.1566  0.2618
  933MOL0     C25839   2.672   8.696   9.566 -0.1843 -0.1687 -0.6876
  933MOL0     C25840   2.823   8.672   9.583  0.6062  0.2323 -1.4221
  933MOL0     C25841   2.879   8.550   9.505 -0.2818 -0.0407 -0.0316
  933MOL0     C25842   3.036   8.569   9.478  0.0757  0.0522 -1.0539
  933MOL0     C25843   3.113   8.457   9.420  0.1331  0.1417 -0.5316
  933MOL0     O25844   3.228   8.508   9.342  0.1775  0.7443  0.0155
  933MOL0     C25845   3.354   8.492   9.389  0.0078  0.1331 -0.4400
  933MOL0     C25846   3.460   8.453   9.306 -0.4240  0.7080  0.3342
  933MOL0     C25847   3.584   8.439   9.348  0.0574 -0.0412 -0.2074
  933MOL0     C25848   3.624   8.467   9.476  0.3547 -0.3190 -0.2823
  933MOL0     C25849   3.769   8.465   9.516 -0.5824 -0.1866 -0.6461
  933MOL0     O25850   3.859   8.475   9.408  0.3154  0.5381  0.3426
  933MOL0     C25851   3.993   8.444   9.423 -0.6545 -0.0257  0.1343
  933MOL0     C25852   4.093   8.539   9.425 -0.0759 -0.4966  0.3622
  933MOL0     C25853   4.226   8.504   9.440 -0.3241  0.4537 -0.8956
  933MOL0     C25854   4.270   8.378   9.453  0.7792  0.3541  0.3391
  933MOL0     O25855   4.402   8.340   9.469 -0.4399 -0.6675 -0.7938
  933MOL0     C25856   4.504   8.443   9.459  0.7977  0.3520 -0.3798
  933MOL0     C25857   4.642   8.370   9.448 -0.2879 -0.6055  0.3308
  933MOL0     C25858   4.753   8.447   9.527  0.2749  0.1966  0.4111
  933MOL0     C25859   4.895   8.414   9.482 -0.3150  0.1704 -0.7210
  933MOL0     C25860   4.993   8.534   9.501 -0.7981 -0.1710  0.7372
  933MOL0     C25861   5.117   8.481   9.420  0.3165 -0.1650 -0.3654
  933MOL0     C25862   5.229   8.590   9.421  0.6216  0.8561 -0.2290
  933MOL0     C25863   5.340   8.555   9.333 -0.3408 -0.0098  0.0119
  933MOL0    Cl25864   5.443   8.429   9.392  0.2908  0.6002  0.0995
  933MOL0     C25865   4.173   8.278   9.430 -0.3780 -0.1147 -1.1457
  933MOL0     C25866   4.036   8.310   9.414 -0.1374  0.0393 -0.6687
  933MOL0     O25867   3.800   8.434   9.630  0.6140 -0.2486  0.3692
  933MOL0     C25868   3.521   8.501   9.566  1.1332  0.2042  0.6958
  933MOL0     C25869   3.388   8.512   9.522  0.6642  0.0328  0.6699
  933MOL0     N25870   2.619   8.752   9.454  0.7682  0.5447  0.2823
  933MOL0     N25871   2.490   8.763   9.455 -0.4320  0.5254  0.4726
  933MOL0     C25872   1.449   8.793   9.639  0.4818  0.1899 -0.1122
  933MOL0     C25873   1.336   8.800   9.565 -0.2959 -0.0859  0.6296
  933MOL0     C25874   1.002   8.593   9.297 -0.0857 -0.1702 -0.6338
  933MOL0     C25875   0.938   8.470   9.320 -0.4095  0.3152  0.0198
  933MOL0     C25876   0.808   8.454   9.278  0.1378 -0.3307  0.5514
  933MOL0     C25877   0.731   8.556   9.217 -0.0961  0.7071  0.2781
  933MOL0     O25878   0.611   8.524   9.170  0.6223  0.2307 -1.1633
  933MOL0     C25879   0.505   8.619   9.131  0.3826  0.7653  0.5492
  933MOL0     C25880   0.484   8.726   9.242 -0.0303 -0.2750 -0.4616
  933MOL0     C25881   0.457   8.661   9.378 -0.1351  0.2489  0.0226
  933MOL0     C25882   0.333   8.576   9.395  1.0002 -0.7969 -0.6147
  933MOL0     C25883   0.209   8.630   9.335  0.0803 -1.0975  0.2777
  933MOL0     C25884   0.112   8.686   9.291  0.2111  0.5909  0.5690
  933MOL0     C25885   0.797   8.684   9.205 -0.5750 -0.6500  0.5739
  933MOL0     C25886   0.928   8.703   9.249  0.2851  0.3711  0.3042
  933MOL0     C25887   0.978   8.853   9.244 -0.2825  0.2963 -0.2438
  933MOL0     H25888   1.237   8.477   9.593  0.5456 -0.7583 -0.1981
  933MOL0     H25889   1.421   8.469   9.744  1.5004  0.3509  1.0001
  933MOL0     H25890   1.682   8.876   9.774 -1.0373 -0.0338 -0.5236
  933MOL0     H25891   1.565   8.856   9.905 -2.5337 -1.4626 -2.9294
  933MOL0     H25892   1.708   8.719  10.014  1.9354 -1.6714 -1.1872
  933MOL0     H25893   1.801   8.860   9.998  0.2349 -0.3214 -0.8359
  933MOL0     H25894   1.867   8.709   9.761 -1.1860  0.6250 -0.8619
  933MOL0     H25895   1.845   8.586   9.882  0.5498 -0.1448 -1.1819
  933MOL0     H25896   2.034   8.818   9.900  2.0473 -0.5310 -1.9672
  933MOL0     H25897   1.994   8.720  10.037 -2.9413  2.6983 -0.2995
  933MOL0     H25898   2.102   8.525   9.931 -1.9513  0.1476 -2.1513
  933MOL0     H25899   2.087   8.603   9.773  1.4212  0.2160 -0.5711
  933MOL0     H25900   2.276   8.719   9.977  0.4293  0.7991  0.5648
  933MOL0     H25901   2.321   8.573   9.875 -0.1122  0.4134 -0.0694
  933MOL0     H25902   2.382   8.819   9.800  1.2135 -1.2266 -1.1924
  933MOL0     H25903   2.222   8.846   9.758  1.5831  0.5798  1.3449
  933MOL0     H25904   2.276   8.610   9.612  1.4577 -0.7367 -0.4359
  933MOL0     H25905   2.257   8.765   9.554 -0.3609  1.9720  0.6878
  933MOL0     H25906   2.579   8.615   9.740  0.9022 -1.4752 -0.7848
  933MOL0     H25907   2.868   8.765   9.546  0.0831  0.2815 -1.9488
  933MOL0     H25908   2.853   8.680   9.688  2.0329 -0.4182 -1.7549
  933MOL0     H25909   2.869   8.453   9.555  0.1166  0.4029  0.9276
  933MOL0     H25910   2.828   8.543   9.408 -1.3964  0.5872  0.4944
  933MOL0     H25911   3.072   8.596   9.578 -0.5626 -0.5431 -0.6518
  933MOL0     H25912   3.060   8.653   9.412  3.6279 -0.2182 -0.3203
  933MOL0     H25913   3.041   8.409   9.354 -1.7729 -0.3141  1.7625
  933MOL0     H25914   3.148   8.376   9.485 -0.4631 -0.0918 -0.4990
  933MOL0     H25915   3.437   8.446   9.200 -2.4314 -1.2951  0.8154
  933MOL0     H25916   3.665   8.429   9.276 -1.8062 -0.7205 -2.3184
  933MOL0     H25917   4.079   8.646   9.421 -0.6177 -0.4332  2.7233
  933MOL0     H25918   4.300   8.584   9.447  1.4911 -1.2912  0.7758
  933MOL0     H25919   4.493   8.513   9.376 -3.2586  0.9444  0.4233
  933MOL0     H25920   4.497   8.507   9.548 -0.8804  2.0680 -1.6489
  933MOL0     H25921   4.641   8.272   9.497  2.0397 -1.3829 -1.0004
  933MOL0     H25922   4.672   8.349   9.345 -2.3258 -0.2720 -0.3749
  933MOL0     H25923   4.730   8.551   9.499 -1.9065 -0.4397 -0.3438
  933MOL0     H25924   4.750   8.446   9.636 -0.1798 -2.0756  0.4150
  933MOL0     H25925   4.887   8.391   9.376 -1.7245 -1.7201 -0.2479
  933MOL0     H25926   4.940   8.327   9.531  2.0147  0.9091 -1.4296
  933MOL0     H25927   5.010   8.558   9.606 -0.2034 -2.0176  1.0952
  933MOL0     H25928   4.953   8.624   9.452  1.1265  0.4675  0.2568
  933MOL0     H25929   5.143   8.385   9.464  5.0942  1.9234  2.2075
  933MOL0     H25930   5.094   8.454   9.317  2.5853 -5.0254  0.1469
  933MOL0     H25931   5.269   8.593   9.523 -0.3354 -4.1124  0.5536
  933MOL0     H25932   5.186   8.686   9.389 -0.0796  0.2020 -1.3215
  933MOL0     H25933   5.306   8.521   9.235 -1.4177 -0.9112  0.6771
  933MOL0     H25934   5.403   8.642   9.313 -0.0278 -0.6656 -2.0355
  933MOL0     H25935   4.185   8.171   9.414 -1.3420 -0.7776  1.9992
  933MOL0     H25936   3.962   8.234   9.391 -0.8380  0.2394  0.7705
  933MOL0     H25937   3.540   8.543   9.664  1.0277 -1.3477  1.4228
  933MOL0     H25938   3.313   8.558   9.585  0.7438 -0.3792  1.0668
  933MOL0     H25939   1.502   8.886   9.655  0.7792  0.0198 -0.1128
  933MOL0     H25940   1.313   8.895   9.516  1.5779 -0.0747 -0.3057
  933MOL0     H25941   0.996   8.397   9.375  0.4663  0.6151 -0.4810
  933MOL0     H25942   0.763   8.359   9.304  0.8227 -0.6801  0.4797
  933MOL0     H25943   0.411   8.565   9.127  2.0470 -2.6853  3.2438
  933MOL0     H25944   0.538   8.665   9.037  2.3537  0.5926  1.1070
  933MOL0     H25945   0.404   8.794   9.211  0.9810  1.4627  0.5722
  933MOL0     H25946   0.570   8.790   9.263 -0.2627 -0.0618 -0.1532
  933MOL0     H25947   0.456   8.751   9.439  0.5655 -1.1078  2.1547
  933MOL0     H25948   0.545   8.610   9.419 -0.6704  0.1399  1.0763
  933MOL0     H25949   0.340   8.475   9.353 -1.5465  0.4931 -4.7141
  933MOL0     H25950   0.320   8.578   9.503 -2.9551 -1.6095 -0.9319
  933MOL0     H25951   0.021   8.735   9.264  0.5257  2.6559  2.8833
  933MOL0     H25952   0.740   8.756   9.147 -0.6783 -2.0327 -1.1036
  933MOL0     H25953   0.895   8.914   9.206 -1.1343 -0.4049  0.4418
  933MOL0     H25954   0.996   8.893   9.344  2.2644 -0.5370 -0.2925
  933MOL0     H25955   1.069   8.863   9.184  0.6178 -0.9063  0.8580
  934MOL0     O25956  10.584   6.913   8.005  0.7652 -0.5498  0.0934
  934MOL0     C25957  10.567   6.868   8.122  1.1639  0.1682 -0.0684
  934MOL0     O25958  10.658   6.852   8.218 -0.8038  0.3324  0.1444
  934MOL0     C25959  10.773   6.918   8.202  0.5769 -0.7620 -0.3596
  934MOL0     C25960  10.804   7.008   8.308  0.5879 -0.3915 -0.0890
  934MOL0     C25961  10.922   7.087   8.308 -0.3871 -0.8555  0.1503
  934MOL0     C25962  11.013   7.075   8.207 -0.9512  0.6273 -0.3601
  934MOL0     O25963  11.132   7.144   8.209 -0.2061 -0.7289  0.1596
  934MOL0     C25964  11.118   7.284   8.200  0.1487  0.4314 -0.4245
  934MOL0     C25965  11.158   7.329   8.062 -0.5094  0.5831  0.1636
  934MOL0     C25966  11.185   7.478   8.055  0.1080  1.0827  0.5399
  934MOL0     C25967  11.221   7.511   7.905  0.8060 -0.2292 -0.7278
  934MOL0     C25968  11.207   7.670   7.903  0.1699  0.2586  0.1034
  934MOL0     C25969  11.223   7.728   7.758 -0.6314  0.5790 -0.6224
  934MOL0     C25970  11.361   7.692   7.701 -0.3917  0.3675  0.2405
  934MOL0     C25971  11.475   7.777   7.755 -0.5662 -0.1084 -0.2173
  934MOL0     N25972  11.600   7.737   7.687  0.3889 -0.4914  0.3544
  934MOL0     C25973  11.665   7.619   7.737  0.3204  0.3488  0.8677
  934MOL0     C25974  11.782   7.617   7.662 -0.3086  0.2729 -0.1837
  934MOL0     C25975  11.906   7.524   7.669  1.3798  0.4501 -0.6026
  934MOL0     C25976  11.920   7.455   7.538 -0.4996  0.0950  0.4005
  934MOL0     C25977  12.016   7.323   7.542 -0.5901  0.4938 -0.8561
  934MOL0     C25978  12.165   7.357   7.575  0.4971 -0.0385  0.0194
  934MOL0     O25979  12.254   7.271   7.501 -0.7901  0.1102  0.3158
  934MOL0     C25980  12.375   7.251   7.562  0.0417  0.6443 -0.0354
  934MOL0     C25981  12.458   7.159   7.508  0.2452  0.0591  0.7152
  934MOL0     C25982  12.582   7.115   7.572  0.1723 -0.3580  0.0929
  934MOL0     C25983  12.625   7.179   7.687 -0.0035  0.3787  0.3359
  934MOL0     C25984  12.756   7.133   7.745 -0.1964  0.9171  0.1755
  934MOL0     O25985  12.813   7.018   7.687  0.4476 -0.4737  0.9164
  934MOL0     C25986  12.932   6.984   7.739 -0.2283  0.3213 -0.0942
  934MOL0     C25987  13.027   6.963   7.641  0.2323 -0.1278  0.2753
  934MOL0     C25988  13.162   6.943   7.674 -0.4914 -0.4563  0.0302
  934MOL0     C25989  13.198   6.904   7.804 -0.8908  0.1695 -0.1941
  934MOL0     O25990  13.319   6.853   7.845  0.1466 -0.0117 -0.7482
  934MOL0     C25991  13.438   6.924   7.810  0.6858 -1.2185  0.3232
  934MOL0     C25992  13.511   6.850   7.695 -0.1310  0.3822 -0.1430
  934MOL0     C25993  13.541   6.707   7.731 -0.5770  0.7585  0.7158
  934MOL0     C25994  13.604   6.636   7.611 -0.2187  1.0776  0.0890
  934MOL0     C25995  13.651   6.494   7.664 -0.0229  0.8589  0.1507
  934MOL0     C25996  13.770   6.486   7.763 -0.0536 -0.0363  0.4732
  934MOL0     C25997  13.802   6.345   7.808 -0.5929 -0.6075  0.0008
  934MOL0     C25998  13.851   6.340   7.961  0.1085 -1.2005  0.9620
  934MOL0    Cl25999  13.991   6.452   7.971 -0.1836 -0.6429  0.0009
  934MOL0     C26000  13.105   6.907   7.904 -0.3924 -0.4143  0.2353
  934MOL0     C26001  12.979   6.958   7.870  0.0593 -0.4791 -0.8280
  934MOL0     O26002  12.801   7.190   7.847  0.0751 -0.3489 -0.9422
  934MOL0     C26003  12.545   7.281   7.744 -0.0520 -0.1409  0.3200
  934MOL0     C26004  12.425   7.319   7.680  0.1105  0.6502  0.9842
  934MOL0     N26005  11.787   7.736   7.593 -0.4479 -0.5998 -0.1804
  934MOL0     N26006  11.683   7.806   7.608  0.1895  0.0003  0.6021
  934MOL0     C26007  10.988   6.985   8.100  0.5591  0.1204 -0.4493
  934MOL0     C26008  10.866   6.907   8.098 -0.6052 -0.0744 -0.7085
  934MOL0     C26009  10.426   6.823   8.143 -0.0610 -0.3772  0.1244
  934MOL0     C26010  10.406   6.706   8.223 -0.6510 -0.3492  0.4132
  934MOL0     C26011  10.283   6.647   8.256 -0.5931 -0.2400 -0.2074
  934MOL0     C26012  10.170   6.710   8.191 -0.1524  0.2557 -0.4363
  934MOL0     O26013  10.047   6.658   8.186 -0.0002 -0.4177  0.6488
  934MOL0     C26014  10.011   6.533   8.239 -0.2661  0.3115 -0.2221
  934MOL0     C26015   9.857   6.528   8.217  0.6931 -1.0807  0.1311
  934MOL0     C26016   9.780   6.650   8.274 -0.5933  0.2839 -0.6965
  934MOL0     C26017   9.634   6.620   8.284 -0.1658  0.3859  0.6944
  934MOL0     C26018   9.582   6.567   8.155 -0.5450  1.1083  0.3157
  934MOL0     C26019   9.546   6.540   8.043 -1.2592  0.0461  0.7022
  934MOL0     C26020  10.191   6.813   8.100 -0.2368 -0.6964  0.1229
  934MOL0     C26021  10.318   6.874   8.074  1.4586 -0.1322  0.4494
  934MOL0     C26022  10.310   6.999   7.994  0.1477 -0.3722  0.1423
  934MOL0     H26023  10.744   7.003   8.398 -0.8834  0.7122 -0.9811
  934MOL0     H26024  10.941   7.156   8.390 -4.5074  0.2866  0.3763
  934MOL0     H26025  11.020   7.321   8.229 -0.4140 -0.2389 -1.3940
  934MOL0     H26026  11.194   7.324   8.267 -0.1963  1.5220 -0.6571
  934MOL0     H26027  11.076   7.302   7.994  0.0272  0.6291 -0.5084
  934MOL0     H26028  11.249   7.275   8.034 -1.0197 -0.2477  0.0611
  934MOL0     H26029  11.273   7.499   8.116  1.2868 -1.4735 -0.1376
  934MOL0     H26030  11.092   7.527   8.085 -0.0198  1.3071 -0.1805
  934MOL0     H26031  11.314   7.465   7.869  1.3659 -0.5052  0.9594
  934MOL0     H26032  11.146   7.468   7.837  1.1046 -4.1994  1.1471
  934MOL0     H26033  11.115   7.708   7.948  0.6900  0.6434  0.8858
  934MOL0     H26034  11.279   7.722   7.968  0.9905  0.2261 -0.7637
  934MOL0     H26035  11.145   7.676   7.701 -0.0247 -1.3731  0.2242
  934MOL0     H26036  11.203   7.834   7.742  1.9760  1.1695 -0.4246
  934MOL0     H26037  11.356   7.714   7.594  1.1008  3.8698  0.7378
  934MOL0     H26038  11.387   7.586   7.708  0.6961  0.4711 -1.6589
  934MOL0     H26039  11.448   7.882   7.738 -0.5053  0.7618  3.9866
  934MOL0     H26040  11.481   7.766   7.864 -0.1429  1.9801  0.0227
  934MOL0     H26041  11.623   7.543   7.802 -2.3742  1.3555  0.4007
  934MOL0     H26042  11.996   7.583   7.693  1.1686  1.4541 -2.1569
  934MOL0     H26043  11.885   7.450   7.747  0.4012 -1.4052 -2.5555
  934MOL0     H26044  11.824   7.407   7.522  1.2005 -2.4542 -3.6924
  934MOL0     H26045  11.925   7.523   7.453  1.2445  0.2856  0.6061
  934MOL0     H26046  12.016   7.279   7.442  3.0698 -0.5837 -0.5087
  934MOL0     H26047  11.975   7.262   7.623 -1.5394  0.6390 -1.2085
  934MOL0     H26048  12.178   7.347   7.683  0.5604 -1.4398 -0.1030
  934MOL0     H26049  12.189   7.462   7.558 -0.5330  0.2564  0.2816
  934MOL0     H26050  12.422   7.104   7.422 -0.8899  2.2429 -0.2960
  934MOL0     H26051  12.642   7.035   7.528  2.1919  0.9892  0.2663
  934MOL0     H26052  13.001   6.984   7.538  0.1284 -0.6494  0.1913
  934MOL0     H26053  13.235   6.941   7.593 -1.7660  0.4530 -1.2079
  934MOL0     H26054  13.418   7.023   7.767 -1.8104 -1.4694  0.7398
  934MOL0     H26055  13.497   6.936   7.901  1.3111 -1.3397 -0.0570
  934MOL0     H26056  13.457   6.847   7.600  0.6408 -1.3195 -0.5663
  934MOL0     H26057  13.606   6.904   7.693  0.1248  0.5075  4.2557
  934MOL0     H26058  13.611   6.693   7.814 -0.9372 -1.1156  0.7483
  934MOL0     H26059  13.449   6.665   7.770  0.2522 -1.0910  0.7731
  934MOL0     H26060  13.693   6.692   7.581 -0.5803  0.5524 -2.0923
  934MOL0     H26061  13.535   6.627   7.528 -0.2851  0.6204  0.1931
  934MOL0     H26062  13.675   6.436   7.574  0.4862  0.2365  0.6765
  934MOL0     H26063  13.566   6.447   7.715  0.2896  2.3010  2.0774
  934MOL0     H26064  13.859   6.528   7.714 -0.1611  0.9655  1.1178
  934MOL0     H26065  13.756   6.544   7.855  2.4587  0.5644  0.5590
  934MOL0     H26066  13.887   6.311   7.748 -1.6450 -0.4505 -1.6193
  934MOL0     H26067  13.728   6.266   7.791 -0.0507 -1.3689  1.0277
  934MOL0     H26068  13.774   6.370   8.032 -0.6967 -1.1048  0.0779
  934MOL0     H26069  13.883   6.239   7.987 -1.1009 -1.6715  0.6778
  934MOL0     H26070  13.134   6.874   8.003 -0.0799  0.7686  0.5489
  934MOL0     H26071  12.904   6.970   7.947  0.7156 -1.0762 -0.0755
  934MOL0     H26072  12.562   7.342   7.832 -3.6964  0.8245  0.5487
  934MOL0     H26073  12.370   7.403   7.721  0.0428  1.5059 -0.7430
  934MOL0     H26074  11.066   6.969   8.027  0.1053 -2.4044 -0.4764
  934MOL0     H26075  10.846   6.834   8.021 -0.4741  1.9814 -2.8122
  934MOL0     H26076  10.500   6.670   8.262  0.2687  2.4050  0.9823
  934MOL0     H26077  10.264   6.567   8.327 -2.3763  0.9344  0.7019
  934MOL0     H26078  10.032   6.537   8.346 -0.9675 -2.2202  0.0794
  934MOL0     H26079  10.052   6.440   8.199 -1.9658 -0.7514  0.3551
  934MOL0     H26080   9.821   6.437   8.266 -0.8734 -0.8005 -0.4184
  934MOL0     H26081   9.832   6.506   8.112 -2.5542  0.6699  0.4075
  934MOL0     H26082   9.789   6.735   8.206 -2.9875 -0.3250 -1.8896
  934MOL0     H26083   9.819   6.672   8.374 -1.6200 -0.6944 -0.0599
  934MOL0     H26084   9.621   6.545   8.362  4.1255 -1.0583  0.2924
  934MOL0     H26085   9.578   6.705   8.322 -1.0747  0.3008 -0.4060
  934MOL0     H26086   9.497   6.528   7.949 -2.0606  0.8529  1.0016
  934MOL0     H26087  10.105   6.853   8.049 -0.5601 -0.5889  0.7466
  934MOL0     H26088  10.206   7.025   7.970 -0.4280 -2.8136 -0.3233
  934MOL0     H26089  10.366   7.083   8.035  0.2100  1.2888 -3.0245
  934MOL0     H26090  10.372   6.975   7.907  1.7375 -0.3464  1.2185
  935MOL0     O26091   4.260   2.919   7.009 -0.2436  0.2671 -0.7581
  935MOL0     C26092   4.219   2.801   7.010  0.4289  0.2335 -0.4362
  935MOL0     O26093   4.298   2.691   6.973 -0.5156  0.4046 -0.4724
  935MOL0     C26094   4.422   2.705   6.918  0.0564  0.1868  0.5004
  935MOL0     C26095   4.518   2.814   6.948  0.2062  0.0861  0.0669
  935MOL0     C26096   4.649   2.798   6.906  0.0126  0.4855 -0.2179
  935MOL0     C26097   4.698   2.684   6.840 -0.6628  0.0042 -0.5717
  935MOL0     O26098   4.826   2.671   6.789 -0.3380  0.3481 -0.1172
  935MOL0     C26099   4.924   2.763   6.833 -0.3046 -0.3128  0.5599
  935MOL0     C26100   5.062   2.720   6.773 -0.4219 -0.5313  0.2956
  935MOL0     C26101   5.101   2.579   6.800  0.4046  0.4474 -0.8776
  935MOL0     C26102   5.220   2.546   6.709  0.9171 -1.0555 -0.0229
  935MOL0     C26103   5.298   2.417   6.743  0.3554  0.3437 -0.5769
  935MOL0     C26104   5.278   2.311   6.638  0.5722  0.4605  0.4726
  935MOL0     C26105   5.340   2.173   6.668  0.0446  0.0432 -0.8522
  935MOL0     C26106   5.465   2.159   6.762 -1.1548 -0.4983 -0.0469
  935MOL0     N26107   5.596   2.200   6.706  0.1898 -0.0774  0.3942
  935MOL0     C26108   5.651   2.167   6.581 -0.6486  0.4532 -0.1762
  935MOL0     C26109   5.782   2.212   6.590  0.3762 -0.6414 -0.8704
  935MOL0     C26110   5.892   2.200   6.495 -0.2117  0.6495  0.1647
  935MOL0     C26111   6.026   2.182   6.568 -0.1651 -0.0458 -0.8708
  935MOL0     C26112   6.152   2.187   6.480  0.0192  0.1075  1.0847
  935MOL0     C26113   6.283   2.142   6.548  0.1542  0.2396 -0.2827
  935MOL0     O26114   6.294   2.204   6.683  0.1394 -0.6367  0.2127
  935MOL0     C26115   6.410   2.181   6.757 -0.0930  0.4687 -1.0264
  935MOL0     C26116   6.419   2.225   6.890  0.0412 -0.5261  0.6267
  935MOL0     C26117   6.538   2.213   6.959 -0.3494  0.2599  0.0271
  935MOL0     C26118   6.659   2.176   6.897 -0.0815  0.1511  0.2819
  935MOL0     C26119   6.787   2.197   6.968 -1.0601 -0.0230  0.2225
  935MOL0     O26120   6.777   2.249   7.100  0.6322 -0.3447 -0.4677
  935MOL0     C26121   6.871   2.263   7.191 -0.6167 -0.5173  0.3949
  935MOL0     C26122   6.984   2.177   7.206 -0.0716  0.4845 -0.0395
  935MOL0     C26123   7.067   2.198   7.314 -0.0351  0.3181  0.2886
  935MOL0     C26124   7.044   2.304   7.399 -0.5832  0.2513  0.3741
  935MOL0     O26125   7.148   2.310   7.489  0.2817 -0.4839  0.1149
  935MOL0     C26126   7.184   2.422   7.572  0.5695 -0.1842  1.0300
  935MOL0     C26127   7.329   2.450   7.599  0.0679 -0.8760  0.4429
  935MOL0     C26128   7.343   2.586   7.675  0.3372 -1.0628  0.5491
  935MOL0     C26129   7.494   2.635   7.695  0.2031 -0.7482  0.0557
  935MOL0     C26130   7.500   2.789   7.716 -0.0090  0.5140  0.6088
  935MOL0     C26131   7.453   2.834   7.852  0.7028 -0.5366 -0.4540
  935MOL0     C26132   7.442   2.988   7.860 -0.3475  0.3370 -0.1993
  935MOL0     C26133   7.582   3.044   7.900  1.5797  1.2395  0.6610
  935MOL0    Cl26134   7.595   3.216   7.921  0.5566  0.5237  0.0691
  935MOL0     C26135   6.933   2.385   7.400  0.0397  0.2299  0.2861
  935MOL0     C26136   6.843   2.355   7.298  0.4948 -0.1132 -0.0878
  935MOL0     O26137   6.896   2.181   6.906  0.5511  0.7463  0.2257
  935MOL0     C26138   6.659   2.137   6.762 -0.2737 -0.0186  0.2552
  935MOL0     C26139   6.537   2.130   6.693  0.2106  0.5372  0.0207
  935MOL0     N26140   5.803   2.276   6.716  0.0650 -0.2867  0.1622
  935MOL0     N26141   5.692   2.271   6.780  0.3454  0.6976 -0.1353
  935MOL0     C26142   4.604   2.585   6.806 -0.6305 -0.0422 -0.5225
  935MOL0     C26143   4.474   2.592   6.855 -0.0753  0.2201  0.5512
  935MOL0     C26144   4.092   2.768   7.070 -0.2579  0.3706 -0.2295
  935MOL0     C26145   4.072   2.653   7.148  0.6712  1.0726  0.1098
  935MOL0     C26146   3.944   2.609   7.176 -0.7502  0.4401 -0.3002
  935MOL0     C26147   3.831   2.683   7.145 -0.2928 -0.4233 -0.1728
  935MOL0     O26148   3.696   2.650   7.171 -0.6965  0.7101  0.3054
  935MOL0     C26149   3.659   2.552   7.272  0.4553  0.6286  0.7886
  935MOL0     C26150   3.666   2.406   7.228  0.3245 -0.0633  0.3488
  935MOL0     C26151   3.547   2.369   7.133 -0.1201  0.5607 -0.4881
  935MOL0     C26152   3.417   2.350   7.208 -0.0504  0.2019  0.3298
  935MOL0     C26153   3.307   2.289   7.136  0.0374 -0.0633  0.9776
  935MOL0     C26154   3.206   2.245   7.091 -0.0377  0.1589  0.2338
  935MOL0     C26155   3.849   2.801   7.066 -0.2241  0.2106  0.7465
  935MOL0     C26156   3.980   2.838   7.026 -0.8441  0.2134 -0.0027
  935MOL0     C26157   3.981   2.951   6.920  0.3166  0.3900 -0.4205
  935MOL0     H26158   4.483   2.910   6.985  0.2044  0.9364 -2.0060
  935MOL0     H26159   4.715   2.882   6.928 -0.2863  0.2476  1.7940
  935MOL0     H26160   4.901   2.863   6.795  1.1501 -0.3606 -0.5432
  935MOL0     H26161   4.927   2.759   6.942 -0.3524  0.1151  0.5767
  935MOL0     H26162   5.137   2.784   6.819 -1.7313  1.0590  0.2989
  935MOL0     H26163   5.052   2.732   6.665 -1.2514  0.0767  0.4314
  935MOL0     H26164   5.017   2.512   6.776 -1.4662  1.4214  2.2832
  935MOL0     H26165   5.132   2.561   6.904  0.6099  2.9116 -0.4710
  935MOL0     H26166   5.177   2.538   6.609 -1.0486 -4.7721  0.9446
  935MOL0     H26167   5.293   2.627   6.712  0.8729 -1.0516  2.0602
  935MOL0     H26168   5.407   2.429   6.749  0.6032 -2.0127  3.2115
  935MOL0     H26169   5.282   2.375   6.843  2.3996 -0.8634 -0.7007
  935MOL0     H26170   5.171   2.301   6.616  0.8297  0.7292 -0.9607
  935MOL0     H26171   5.320   2.351   6.546  0.2434  2.2150  1.0546
  935MOL0     H26172   5.362   2.128   6.571  1.9493  1.9719 -1.3868
  935MOL0     H26173   5.267   2.101   6.706 -1.0041  0.2620 -2.3520
  935MOL0     H26174   5.454   2.206   6.860 -2.9134 -1.8681  0.4570
  935MOL0     H26175   5.483   2.052   6.774  1.2195 -0.1562  0.0053
  935MOL0     H26176   5.612   2.127   6.488  1.4449  2.2442 -1.9422
  935MOL0     H26177   5.889   2.104   6.444  0.0547  2.4305 -3.5120
  935MOL0     H26178   5.899   2.283   6.424  0.1928 -0.5289 -1.2328
  935MOL0     H26179   6.040   2.259   6.645 -2.5372  0.1099 -0.4883
  935MOL0     H26180   6.025   2.090   6.628 -0.2534  0.2692 -0.3811
  935MOL0     H26181   6.166   2.290   6.444  0.2397 -0.5528 -0.8133
  935MOL0     H26182   6.141   2.121   6.394 -0.5132 -0.2029  1.3884
  935MOL0     H26183   6.364   2.176   6.483 -0.3203  4.6128  1.0747
  935MOL0     H26184   6.282   2.033   6.560  0.1542  0.3261  0.6364
  935MOL0     H26185   6.328   2.268   6.931  1.0717  0.3557  2.0729
  935MOL0     H26186   6.544   2.249   7.061  0.8337  1.7658 -0.5464
  935MOL0     H26187   7.018   2.106   7.131  0.2098  1.1003 -0.5057
  935MOL0     H26188   7.162   2.147   7.321  0.4281  1.0406 -0.5827
  935MOL0     H26189   7.127   2.507   7.534  0.3799 -0.4104  0.7997
  935MOL0     H26190   7.135   2.409   7.669  0.2199  2.9388  1.3642
  935MOL0     H26191   7.376   2.375   7.663 -2.2296 -1.9542  0.9511
  935MOL0     H26192   7.377   2.451   7.500 -2.2414  2.4933 -0.8222
  935MOL0     H26193   7.295   2.661   7.612  0.2324 -2.2069 -0.7660
  935MOL0     H26194   7.294   2.579   7.773  1.9079  0.4163  1.5083
  935MOL0     H26195   7.535   2.609   7.597 -2.6028 -0.6183 -1.2707
  935MOL0     H26196   7.540   2.573   7.772  0.4825 -2.8779 -1.7280
  935MOL0     H26197   7.433   2.843   7.648  0.7124  2.9136  1.6669
  935MOL0     H26198   7.602   2.826   7.700  0.1726  0.5561  1.7459
  935MOL0     H26199   7.355   2.794   7.883  1.1099  0.2194  2.0895
  935MOL0     H26200   7.524   2.791   7.923 -1.1681 -2.4300  0.4040
  935MOL0     H26201   7.372   3.004   7.943  0.4977 -2.7692  1.2384
  935MOL0     H26202   7.399   3.026   7.767 -3.2223 -3.7227 -0.7864
  935MOL0     H26203   7.610   2.991   7.992  0.3259  0.0024  0.3767
  935MOL0     H26204   7.651   3.018   7.819 -0.8022 -2.1925 -0.5061
  935MOL0     H26205   6.914   2.455   7.482 -0.3607 -0.5055  0.8306
  935MOL0     H26206   6.751   2.412   7.295 -0.2768 -1.2941 -3.4529
  935MOL0     H26207   6.756   2.131   6.714  0.2036  0.2940  1.1460
  935MOL0     H26208   6.554   2.097   6.591 -0.3280  2.0789 -0.5970
  935MOL0     H26209   4.644   2.512   6.737  4.7496  1.8254  0.1775
  935MOL0     H26210   4.418   2.501   6.835 -0.7418  0.1885  2.3675
  935MOL0     H26211   4.160   2.596   7.176 -0.3723 -0.6340  0.0645
  935MOL0     H26212   3.939   2.511   7.224  0.4629  1.5037  2.1974
  935MOL0     H26213   3.564   2.577   7.320 -0.1759 -0.4950  0.1658
  935MOL0     H26214   3.730   2.569   7.354  1.4707 -0.1160  0.0918
  935MOL0     H26215   3.652   2.350   7.321 -3.0289 -2.1608 -1.2311
  935MOL0     H26216   3.759   2.383   7.174  0.9007  4.2385 -0.8294
  935MOL0     H26217   3.572   2.267   7.102  0.6908  0.7597 -0.5219
  935MOL0     H26218   3.532   2.438   7.049 -3.4413  2.2438  1.3204
  935MOL0     H26219   3.448   2.290   7.294 -1.6610  2.1761  2.4028
  935MOL0     H26220   3.376   2.440   7.255 -1.4839 -0.9692  1.4185
  935MOL0     H26221   3.109   2.214   7.058 -0.1604 -0.2574  0.9729
  935MOL0     H26222   3.765   2.861   7.032  0.2988 -0.2073 -1.3954
  935MOL0     H26223   3.879   2.974   6.887  0.6307 -0.6294 -2.2382
  935MOL0     H26224   4.040   3.034   6.958  0.3092  1.3415 -2.3539
  935MOL0     H26225   4.033   2.927   6.827  0.4986  0.8979 -0.4523
  936MOL0     O26226   8.601   0.778   5.556  0.0197 -0.4522  0.0999
  936MOL0     C26227   8.636   0.865   5.634 -0.2780  0.3138  0.5567
  936MOL0     O26228   8.741   0.842   5.724  0.3155  0.1166  0.6492
  936MOL0     C26229   8.838   0.754   5.681 -0.5154 -0.1608  0.7128
  936MOL0     C26230   8.966   0.797   5.678  0.4631  0.4397  0.3186
  936MOL0     C26231   9.067   0.709   5.633 -0.7361  0.6918  0.4123
  936MOL0     C26232   9.041   0.573   5.625  0.1883  0.4221  1.6164
  936MOL0     O26233   9.123   0.482   5.567 -0.2389  0.1214 -0.2380
  936MOL0     C26234   9.202   0.515   5.460 -0.1797 -0.6754  1.0689
  936MOL0     C26235   9.309   0.410   5.466  0.2174  0.8130  1.0390
  936MOL0     C26236   9.403   0.405   5.343 -0.9757  0.8447 -0.0515
  936MOL0     C26237   9.535   0.328   5.363  0.2611 -0.2679 -0.1104
  936MOL0     C26238   9.655   0.363   5.281 -0.5131 -0.4302 -0.1177
  936MOL0     C26239   9.774   0.274   5.310 -1.2005  0.3208 -0.7649
  936MOL0     C26240   9.881   0.303   5.199  0.4502  0.3401  1.3830
  936MOL0     C26241   9.950   0.437   5.217 -0.3683  0.4549  0.0601
  936MOL0     N26242  10.075   0.417   5.300 -0.0674 -0.5144 -0.1711
  936MOL0     C26243  10.075   0.367   5.436 -0.4496  0.6910 -0.3486
  936MOL0     C26244  10.207   0.325   5.450  0.0790 -0.1888  0.0322
  936MOL0     C26245  10.265   0.285   5.582  0.2620  1.2120 -0.7259
  936MOL0     C26246  10.403   0.346   5.620 -0.9377 -0.3997 -0.6917
  936MOL0     C26247  10.430   0.320   5.767 -0.6226 -0.0532 -0.8191
  936MOL0     C26248  10.558   0.381   5.815 -0.4279 -0.3052  1.2149
  936MOL0     O26249  10.667   0.363   5.731  0.0304 -0.3588 -0.7675
  936MOL0     C26250  10.781   0.416   5.776  0.0197 -0.1240 -0.6325
  936MOL0     C26251  10.789   0.518   5.873 -0.1217  0.6882  0.7772
  936MOL0     C26252  10.909   0.577   5.910 -0.4613  0.1221  0.7470
  936MOL0     C26253  11.030   0.531   5.850 -0.2559 -0.3999 -0.8544
  936MOL0     C26254  11.153   0.594   5.880 -0.8222 -0.1125  0.3395
  936MOL0     O26255  11.266   0.527   5.851 -0.1688  0.6571  0.9399
  936MOL0     C26256  11.395   0.587   5.863  0.6488  0.0486 -0.2528
  936MOL0     C26257  11.436   0.702   5.801  0.1751  0.2601  0.3484
  936MOL0     C26258  11.554   0.766   5.824 -0.0699  0.4692  0.7304
  936MOL0     C26259  11.640   0.711   5.913 -0.3299 -0.5399  0.0845
  936MOL0     O26260  11.756   0.789   5.932 -0.3970  0.5711  0.3414
  936MOL0     C26261  11.814   0.764   6.056 -0.4872 -0.0821  0.3046
  936MOL0     C26262  11.909   0.870   6.105 -0.1524  0.2617  0.2188
  936MOL0     C26263  12.006   0.930   5.987  0.0341  0.0197 -0.4388
  936MOL0     C26264  12.144   0.860   6.005  0.5517  0.4177  0.7905
  936MOL0     C26265  12.254   0.945   5.948  0.8241  0.3109  0.1747
  936MOL0     C26266  12.398   0.903   5.995  1.0920 -0.3764  0.9681
  936MOL0     C26267  12.422   0.755   5.956 -0.7963 -0.6676 -0.2897
  936MOL0     C26268  12.568   0.728   5.924 -0.1949 -0.2121 -1.0169
  936MOL0    Cl26269  12.674   0.780   6.068 -0.0856 -0.2680  0.0221
  936MOL0     C26270  11.601   0.593   5.979  1.1705  0.3468  0.5629
  936MOL0     C26271  11.476   0.532   5.963 -0.7236 -0.3082  0.6973
  936MOL0     O26272  11.149   0.709   5.939  0.3229  0.1566 -0.0602
  936MOL0     C26273  11.026   0.422   5.758 -0.2923  0.0208  0.1470
  936MOL0     C26274  10.901   0.388   5.707 -0.1880  0.2746  0.2518
  936MOL0     N26275  10.285   0.357   5.340  0.0526 -0.4809 -0.0327
  936MOL0     N26276  10.206   0.420   5.251  0.5608 -0.2261 -1.0687
  936MOL0     C26277   8.903   0.522   5.642  0.8107  0.0353 -1.2022
  936MOL0     C26278   8.807   0.615   5.677  1.5803  0.4675  0.5190
  936MOL0     C26279   8.577   0.999   5.617  0.3273  0.1033 -0.0347
  936MOL0     C26280   8.454   1.002   5.534 -0.2285  0.3034 -0.2592
  936MOL0     C26281   8.373   1.113   5.525 -0.2870 -0.0007  0.4382
  936MOL0     C26282   8.413   1.225   5.599  0.3083 -0.3853  0.3325
  936MOL0     O26283   8.332   1.335   5.621 -0.0313  0.0583 -0.2894
  936MOL0     C26284   8.184   1.329   5.622  0.4282 -0.4102 -0.5031
  936MOL0     C26285   8.140   1.432   5.723 -1.2202  0.7094  0.5349
  936MOL0     C26286   7.996   1.451   5.755 -0.2791  0.0797 -0.3222
  936MOL0     C26287   7.922   1.507   5.631 -0.4669  0.3868  0.3650
  936MOL0     C26288   7.784   1.549   5.659 -0.3439 -0.9501 -0.3605
  936MOL0     C26289   7.666   1.586   5.660 -0.2718 -0.2725  1.2116
  936MOL0     C26290   8.534   1.229   5.664  0.2507  0.5973 -0.6572
  936MOL0     C26291   8.614   1.116   5.681  0.0586 -0.0782 -0.0726
  936MOL0     C26292   8.726   1.127   5.785  0.2331  0.2480 -0.7116
  936MOL0     H26293   8.995   0.899   5.701  1.5161  0.2327 -0.0079
  936MOL0     H26294   9.164   0.753   5.614 -0.3582 -0.3743 -0.2634
  936MOL0     H26295   9.137   0.502   5.372  0.1012  0.1013  0.7397
  936MOL0     H26296   9.248   0.614   5.457  3.8769 -2.3888  0.1530
  936MOL0     H26297   9.262   0.312   5.480 -0.6049  1.3760  2.3891
  936MOL0     H26298   9.371   0.440   5.551 -0.6760 -0.2744  2.1078
  936MOL0     H26299   9.432   0.510   5.335  0.4689  0.6097  1.5532
  936MOL0     H26300   9.365   0.385   5.243 -0.0012  4.7123 -1.3726
  936MOL0     H26301   9.564   0.339   5.468 -0.6754 -1.8359  0.3463
  936MOL0     H26302   9.532   0.220   5.344  3.4513 -0.4259 -0.1940
  936MOL0     H26303   9.639   0.364   5.173  1.9357 -1.8893 -0.5686
  936MOL0     H26304   9.679   0.463   5.320 -1.4278 -1.2956  2.9793
  936MOL0     H26305   9.808   0.290   5.413 -3.1573  0.1302 -0.0408
  936MOL0     H26306   9.748   0.168   5.304 -3.0643  0.4224  2.6927
  936MOL0     H26307   9.839   0.303   5.098 -0.8562 -0.8581  1.9001
  936MOL0     H26308   9.949   0.217   5.208 -2.4267 -2.0467  1.6702
  936MOL0     H26309   9.974   0.478   5.118  2.8169 -0.8471  0.1747
  936MOL0     H26310   9.871   0.494   5.267 -0.2176  0.7953 -0.0824
  936MOL0     H26311   9.993   0.353   5.505 -0.9320  0.2666 -0.9978
  936MOL0     H26312  10.193   0.304   5.662  1.2075 -0.0417  0.4814
  936MOL0     H26313  10.283   0.177   5.570 -3.4965  0.6242 -2.3946
  936MOL0     H26314  10.483   0.312   5.554 -0.7219  2.5640 -2.1470
  936MOL0     H26315  10.395   0.455   5.614  2.3547 -0.0734 -0.9688
  936MOL0     H26316  10.433   0.211   5.783  3.1474  0.1301  0.8390
  936MOL0     H26317  10.348   0.357   5.829  0.9086 -0.2650  1.4614
  936MOL0     H26318  10.576   0.337   5.913  1.8495  0.4494  1.1974
  936MOL0     H26319  10.545   0.490   5.817 -1.5333 -0.3190 -1.4820
  936MOL0     H26320  10.705   0.563   5.926 -1.7184  1.8278 -2.4231
  936MOL0     H26321  10.910   0.662   5.978  0.6371  0.7147  0.0207
  936MOL0     H26322  11.379   0.742   5.718 -0.9143  0.1151  1.0145
  936MOL0     H26323  11.582   0.860   5.778 -0.0059  0.3694  0.5628
  936MOL0     H26324  11.739   0.751   6.133  0.2850 -0.7051  0.9708
  936MOL0     H26325  11.872   0.671   6.056  1.1717  0.8887 -0.5690
  936MOL0     H26326  11.849   0.945   6.156 -0.9625 -0.9308  1.0792
  936MOL0     H26327  11.966   0.822   6.185  0.0906  2.3659  1.3587
  936MOL0     H26328  11.969   0.916   5.886 -1.8333  2.0307 -0.1155
  936MOL0     H26329  12.017   1.039   5.992  0.6823 -0.0640  0.1388
  936MOL0     H26330  12.132   0.768   5.947 -2.7718  1.2186 -0.0295
  936MOL0     H26331  12.163   0.844   6.111  0.6446 -0.9745  0.5773
  936MOL0     H26332  12.243   1.052   5.967  2.0098  0.4387  0.1928
  936MOL0     H26333  12.253   0.930   5.839  1.3593 -1.5192  0.3799
  936MOL0     H26334  12.458   0.965   5.929 -1.7460 -3.5483 -5.4198
  936MOL0     H26335  12.413   0.928   6.101 -0.2264  2.6887  0.5334
  936MOL0     H26336  12.367   0.717   5.870  2.3991 -3.2553 -1.4264
  936MOL0     H26337  12.396   0.698   6.046  1.4798 -0.6788  0.4330
  936MOL0     H26338  12.581   0.622   5.900 -0.6651 -0.6018  0.3920
  936MOL0     H26339  12.597   0.781   5.832 -0.1644 -3.7569 -3.2360
  936MOL0     H26340  11.673   0.556   6.051 -0.5988 -0.8507  1.7985
  936MOL0     H26341  11.448   0.443   6.018  1.1672 -2.3827 -1.4671
  936MOL0     H26342  11.107   0.381   5.699  0.8876  2.1311  0.1877
  936MOL0     H26343  10.895   0.315   5.626 -1.9652  0.9515 -0.2792
  936MOL0     H26344   8.878   0.418   5.625  1.3634 -0.1283 -1.0616
  936MOL0     H26345   8.710   0.572   5.698  1.3625  1.3967  1.4981
  936MOL0     H26346   8.429   0.915   5.475  1.2382  0.5740 -1.3401
  936MOL0     H26347   8.288   1.131   5.460  0.7613 -0.7479 -1.2094
  936MOL0     H26348   8.149   1.227   5.639  1.4123 -0.9990 -1.8119
  936MOL0     H26349   8.137   1.354   5.527 -2.2402  0.4804  0.9614
  936MOL0     H26350   8.192   1.526   5.700  0.4518 -0.8032 -2.4489
  936MOL0     H26351   8.166   1.394   5.823 -1.6829  2.7522  1.4938
  936MOL0     H26352   7.996   1.518   5.842  0.6805  1.0119 -1.0138
  936MOL0     H26353   7.957   1.356   5.792  0.3231  0.1113  0.4098
  936MOL0     H26354   7.981   1.584   5.580  3.8049 -1.1661  2.4710
  936MOL0     H26355   7.901   1.425   5.561 -0.3436 -1.0912  1.9769
  936MOL0     H26356   7.560   1.600   5.659 -0.3009 -0.1942  3.0855
  936MOL0     H26357   8.563   1.322   5.712  1.3740  0.2879 -0.7129
  936MOL0     H26358   8.803   1.053   5.764 -2.0833 -2.4451 -0.3988
  936MOL0     H26359   8.762   1.230   5.786 -0.1754  0.4078  1.1730
  936MOL0     H26360   8.694   1.108   5.888  0.4268 -1.9513 -1.0079
  937MOL0     O26361   4.559   6.028   2.847  0.0748 -0.2239  0.1113
  937MOL0     C26362   4.527   5.910   2.861 -0.2006  1.1896  0.3961
  937MOL0     O26363   4.464   5.861   2.966  0.0014 -0.2552  0.1516
  937MOL0     C26364   4.412   5.925   3.077 -0.5406 -0.8781 -0.3048
  937MOL0     C26365   4.365   5.845   3.182  0.3093 -0.0148  0.2430
  937MOL0     C26366   4.330   5.885   3.308 -0.4794  0.1751  0.0921
  937MOL0     C26367   4.341   6.026   3.331 -0.8643  0.0199 -0.7910
  937MOL0     O26368   4.331   6.078   3.460  0.4906 -0.6228  0.1397
  937MOL0     C26369   4.317   5.993   3.571  0.4899 -0.3332  0.0694
  937MOL0     C26370   4.310   6.074   3.703 -0.1030  0.6840 -0.1899
  937MOL0     C26371   4.447   6.114   3.750  0.2938 -0.0855 -0.1851
  937MOL0     C26372   4.429   6.199   3.878  0.1911 -0.0169 -0.4952
  937MOL0     C26373   4.567   6.224   3.949  0.4696 -0.4470  0.2547
  937MOL0     C26374   4.558   6.267   4.097 -0.6482  0.2600 -0.7366
  937MOL0     C26375   4.483   6.399   4.120 -0.2311 -0.8769 -0.8819
  937MOL0     C26376   4.571   6.525   4.092 -0.7218 -0.1441  0.2175
  937MOL0     N26377   4.676   6.550   4.195 -0.3416 -0.1562  0.2727
  937MOL0     C26378   4.819   6.538   4.170  0.7466  0.7142  0.2658
  937MOL0     C26379   4.878   6.589   4.284  0.3142  0.6640  0.9754
  937MOL0     C26380   5.024   6.612   4.294  1.0270  0.8680  0.2584
  937MOL0     C26381   5.066   6.642   4.445 -0.3592 -0.2149 -0.5316
  937MOL0     C26382   5.041   6.529   4.541 -0.1873  0.5741  0.3505
  937MOL0     C26383   5.106   6.562   4.675  0.0833  1.2958 -0.2852
  937MOL0     O26384   5.247   6.534   4.672  0.4559  0.3205 -0.4902
  937MOL0     C26385   5.320   6.600   4.767 -0.9484  0.7371 -0.1000
  937MOL0     C26386   5.352   6.733   4.761  0.0625  0.8347 -0.1996
  937MOL0     C26387   5.444   6.786   4.857  0.9461  0.1280  0.4889
  937MOL0     C26388   5.499   6.709   4.960  0.4242 -0.1927  0.3120
  937MOL0     C26389   5.589   6.759   5.059  0.6124  0.1083  0.9345
  937MOL0     O26390   5.589   6.893   5.053 -0.0179 -0.5479  0.2194
  937MOL0     C26391   5.639   6.966   5.154  0.2535 -0.1806  0.9984
  937MOL0     C26392   5.576   6.965   5.278 -0.5865 -0.4692 -0.6942
  937MOL0     C26393   5.638   7.046   5.372 -0.4851  0.4595 -0.0288
  937MOL0     C26394   5.747   7.133   5.349  0.2684  0.9361  0.0353
  937MOL0     O26395   5.792   7.221   5.444  0.6775  0.5100  0.0602
  937MOL0     C26396   5.849   7.162   5.563 -0.3871 -0.0264 -0.3542
  937MOL0     C26397   5.967   7.060   5.534  0.1373  0.0137  1.6231
  937MOL0     C26398   6.018   6.998   5.658 -0.3248 -0.2915  0.0792
  937MOL0     C26399   5.932   6.895   5.742 -0.4087  0.1018  0.7995
  937MOL0     C26400   6.010   6.836   5.859  0.3633 -0.0813  0.2484
  937MOL0     C26401   6.129   6.750   5.821 -0.2704  0.8624 -0.4521
  937MOL0     C26402   6.098   6.634   5.737  1.2847  1.1153  0.4969
  937MOL0     C26403   6.209   6.533   5.745  0.5288 -0.0356 -0.5449
  937MOL0    Cl26404   6.222   6.456   5.904  0.1453  0.4190 -0.1966
  937MOL0     C26405   5.807   7.142   5.223 -0.0223  1.1842  0.3051
  937MOL0     C26406   5.748   7.051   5.123 -0.3510 -1.2342 -0.1572
  937MOL0     O26407   5.650   6.687   5.133  0.2661  0.3180  0.1270
  937MOL0     C26408   5.444   6.578   4.974 -0.4540  0.1418 -0.6387
  937MOL0     C26409   5.372   6.520   4.873  0.0792 -0.7289 -0.3986
  937MOL0     N26410   4.777   6.615   4.379 -0.2279  0.3492 -0.1440
  937MOL0     N26411   4.660   6.593   4.323  1.3447  0.1506  0.1349
  937MOL0     C26412   4.381   6.113   3.229  0.0083 -0.6417 -0.5574
  937MOL0     C26413   4.412   6.063   3.103 -0.3046  0.0709  1.4217
  937MOL0     C26414   4.574   5.811   2.751  1.3698  0.1358  0.7839
  937MOL0     C26415   4.617   5.863   2.627  0.3145  0.0390  0.4675
  937MOL0     C26416   4.647   5.780   2.517 -1.6239  0.8678  0.9615
  937MOL0     C26417   4.625   5.638   2.527 -0.4174 -0.0940  0.7177
  937MOL0     O26418   4.652   5.570   2.408  0.1205 -0.2440 -0.5818
  937MOL0     C26419   4.615   5.435   2.401  0.0258  0.5308 -0.2729
  937MOL0     C26420   4.697   5.361   2.294 -0.3086 -0.0892 -0.0873
  937MOL0     C26421   4.658   5.211   2.262 -1.3086  0.5366  0.1501
  937MOL0     C26422   4.712   5.143   2.127  0.4735  0.7384  0.0456
  937MOL0     C26423   4.859   5.147   2.117  0.8054  0.1750 -0.9410
  937MOL0     C26424   4.974   5.145   2.095 -0.1064  0.3357  0.9924
  937MOL0     C26425   4.567   5.594   2.641  0.0510  0.9417 -0.4709
  937MOL0     C26426   4.543   5.670   2.751  0.4703 -0.7800 -0.5321
  937MOL0     C26427   4.474   5.601   2.869  0.1832 -0.4664  0.1502
  937MOL0     H26428   4.359   5.738   3.169 -0.5898  0.1355 -0.7486
  937MOL0     H26429   4.290   5.812   3.378  1.1726 -1.6961 -0.8009
  937MOL0     H26430   4.224   5.939   3.555 -1.8408  3.6792 -1.3929
  937MOL0     H26431   4.401   5.923   3.569  2.4025  1.7539 -3.5365
  937MOL0     H26432   4.251   6.013   3.773 -2.3015  2.1926 -0.6492
  937MOL0     H26433   4.244   6.160   3.695  0.2757  0.8764 -1.3417
  937MOL0     H26434   4.504   6.173   3.677  2.0746 -0.1848  1.0654
  937MOL0     H26435   4.496   6.020   3.778 -2.7114 -1.2046  1.8843
  937MOL0     H26436   4.374   6.293   3.863 -0.6958 -0.3547  0.5009
  937MOL0     H26437   4.367   6.146   3.951 -1.2610  0.8166 -1.0711
  937MOL0     H26438   4.630   6.135   3.937 -1.4809 -1.8331 -0.1366
  937MOL0     H26439   4.612   6.304   3.889 -0.8655  2.1079  2.4787
  937MOL0     H26440   4.512   6.183   4.151 -0.7117 -0.3876 -1.7759
  937MOL0     H26441   4.655   6.275   4.146 -1.4653 -1.4899  1.3436
  937MOL0     H26442   4.448   6.404   4.223 -1.3139  0.5362 -1.2998
  937MOL0     H26443   4.394   6.399   4.057 -0.4121 -2.1868 -0.6615
  937MOL0     H26444   4.615   6.530   3.992 -1.3306 -0.7444 -0.0892
  937MOL0     H26445   4.491   6.599   4.099  0.2307  1.2704 -2.4062
  937MOL0     H26446   4.852   6.493   4.077 -2.3468 -1.3220  0.0162
  937MOL0     H26447   5.077   6.520   4.267  1.3349  0.5149  1.9164
  937MOL0     H26448   5.051   6.693   4.227  0.6761  0.8074  0.0463
  937MOL0     H26449   5.175   6.655   4.447 -0.3217 -0.1424  2.8485
  937MOL0     H26450   5.014   6.731   4.482 -1.4858 -1.6872  1.6237
  937MOL0     H26451   5.069   6.435   4.493 -2.9597  0.4717 -1.3043
  937MOL0     H26452   4.932   6.527   4.557 -0.1672 -0.8202  0.4138
  937MOL0     H26453   5.053   6.507   4.754  0.7246 -1.0527 -1.4000
  937MOL0     H26454   5.086   6.667   4.700  0.8688  1.4571 -0.3222
  937MOL0     H26455   5.323   6.786   4.671 -1.2719  0.1265 -0.2153
  937MOL0     H26456   5.480   6.888   4.854  0.8018  0.2802  2.6100
  937MOL0     H26457   5.487   6.912   5.309 -1.0876  1.0823  0.6648
  937MOL0     H26458   5.594   7.058   5.471 -0.9776  1.0002 -0.3074
  937MOL0     H26459   5.893   7.245   5.620 -1.4336  0.4633 -0.2165
  937MOL0     H26460   5.778   7.110   5.628 -0.1530  0.2732  0.1533
  937MOL0     H26461   5.938   6.987   5.458  0.2967  3.1532 -1.7251
  937MOL0     H26462   6.045   7.117   5.482 -1.0197  0.8925  0.7951
  937MOL0     H26463   6.116   6.957   5.633  0.6838  1.9783  0.0380
  937MOL0     H26464   6.049   7.071   5.734 -0.3685 -2.0316  1.8257
  937MOL0     H26465   5.898   6.816   5.674 -2.0048  0.8488  0.6744
  937MOL0     H26466   5.843   6.944   5.783 -0.5302  2.0454 -1.5374
  937MOL0     H26467   5.940   6.776   5.919 -1.7024  1.0219 -0.9553
  937MOL0     H26468   6.040   6.926   5.914  1.7025  0.4417 -1.2463
  937MOL0     H26469   6.196   6.806   5.755  2.4387 -3.2412 -1.5987
  937MOL0     H26470   6.188   6.725   5.909 -0.0363  0.0017 -0.8431
  937MOL0     H26471   6.073   6.655   5.633  0.3034 -2.9701 -0.2628
  937MOL0     H26472   6.008   6.584   5.773  2.5214 -1.6150  0.0515
  937MOL0     H26473   6.166   6.447   5.692 -2.3460  2.1049 -1.9213
  937MOL0     H26474   6.311   6.555   5.711  0.3537 -0.5177 -1.4143
  937MOL0     H26475   5.905   7.187   5.214  2.3161 -2.9315  2.0664
  937MOL0     H26476   5.796   7.046   5.026  0.4286  0.1394  0.1363
  937MOL0     H26477   5.468   6.505   5.051  1.1467  0.4349 -0.8409
  937MOL0     H26478   5.353   6.414   4.888 -0.1448 -0.3048  2.8813
  937MOL0     H26479   4.366   6.216   3.260 -0.1745 -1.0398  0.7182
  937MOL0     H26480   4.431   6.135   3.024  0.4090 -0.2716  1.2813
  937MOL0     H26481   4.632   5.969   2.610 -1.5981  0.4532  1.1410
  937MOL0     H26482   4.682   5.815   2.421  0.0277 -2.0093  0.3889
  937MOL0     H26483   4.507   5.418   2.392  0.1125 -1.0604  1.0992
  937MOL0     H26484   4.631   5.380   2.494  0.9992 -0.4783 -1.0127
  937MOL0     H26485   4.800   5.362   2.330 -1.7927  1.4160  4.7882
  937MOL0     H26486   4.691   5.429   2.208  3.9635  0.2970 -0.3045
  937MOL0     H26487   4.549   5.208   2.256 -1.3028 -1.8396  0.3640
  937MOL0     H26488   4.689   5.136   2.335  1.1952  0.0735 -1.2726
  937MOL0     H26489   4.674   5.040   2.127  1.5293  0.3054 -1.4750
  937MOL0     H26490   4.678   5.199   2.040 -1.5881 -0.4452  0.0179
  937MOL0     H26491   5.077   5.144   2.068 -1.0255 -2.8563 -3.4289
  937MOL0     H26492   4.551   5.488   2.657 -1.8991  1.3200  0.3306
  937MOL0     H26493   4.542   5.609   2.955 -0.7132  1.1737  0.7572
  937MOL0     H26494   4.378   5.643   2.899  0.1241  0.3648 -1.1236
  937MOL0     H26495   4.455   5.494   2.860  0.1847 -0.7944  2.9509
  938MOL0     O26496   8.994  10.354   4.381  0.4646  0.5088 -0.1650
  938MOL0     C26497   9.054  10.395   4.481 -0.4015  1.3437 -0.0570
  938MOL0     O26498   9.060  10.327   4.596 -0.7579  0.0481  0.0949
  938MOL0     C26499   8.983  10.216   4.615 -0.0378  0.4528 -0.0719
  938MOL0     C26500   9.037  10.104   4.682  1.4288  0.4117 -0.0275
  938MOL0     C26501   8.953  10.000   4.736  0.2885 -0.0842  0.4949
  938MOL0     C26502   8.807  10.016   4.713 -0.3379 -0.9506  0.5109
  938MOL0     O26503   8.707   9.941   4.765  0.0382  0.1255 -0.5218
  938MOL0     C26504   8.736   9.820   4.840 -0.0117  0.1526 -0.6447
  938MOL0     C26505   8.611   9.738   4.848 -0.5315  0.6433 -0.3646
  938MOL0     C26506   8.506   9.801   4.930 -0.0266 -0.5811 -0.4958
  938MOL0     C26507   8.410   9.699   4.986 -0.3747 -0.5937 -0.1721
  938MOL0     C26508   8.313   9.753   5.089  0.2688  0.4091  0.4731
  938MOL0     C26509   8.208   9.644   5.127 -0.7534  0.2487 -0.2712
  938MOL0     C26510   8.130   9.678   5.254 -0.5835 -0.9768  0.2374
  938MOL0     C26511   8.041   9.799   5.257 -0.9026  0.0693  0.3136
  938MOL0     N26512   7.982   9.813   5.389  0.1638  0.8871  0.1049
  938MOL0     C26513   8.046   9.856   5.498 -0.3297  0.8521  0.2769
  938MOL0     C26514   7.965   9.827   5.607 -1.0035  0.2134 -0.2682
  938MOL0     C26515   7.998   9.862   5.751 -0.2597 -0.0173  0.4189
  938MOL0     C26516   8.059   9.740   5.820  0.2676  0.1061 -0.0249
  938MOL0     C26517   8.172   9.670   5.748  0.2668  0.0374  0.4347
  938MOL0     C26518   8.228   9.555   5.828  0.3603  0.6798 -0.0230
  938MOL0     O26519   8.358   9.516   5.772 -0.1450  0.7810 -0.9581
  938MOL0     C26520   8.468   9.582   5.807  0.1079  0.1202 -0.0169
  938MOL0     C26521   8.585   9.521   5.756  0.0750  0.9253 -0.6887
  938MOL0     C26522   8.702   9.581   5.801 -0.2351  0.3390  0.3624
  938MOL0     C26523   8.699   9.698   5.877 -0.4205  0.1178 -0.7161
  938MOL0     C26524   8.830   9.761   5.914 -0.0813  0.1210 -0.3087
  938MOL0     O26525   8.941   9.709   5.856 -0.1758  0.2875 -0.0636
  938MOL0     C26526   9.062   9.746   5.911  0.1587  0.1938 -0.1870
  938MOL0     C26527   9.099   9.695   6.037  0.4631 -0.3836  0.8832
  938MOL0     C26528   9.218   9.719   6.092 -0.1964  0.5353 -0.2119
  938MOL0     C26529   9.316   9.795   6.016  0.3475 -0.3839  0.0632
  938MOL0     O26530   9.444   9.821   6.053 -0.5940  0.9272  0.1535
  938MOL0     C26531   9.528   9.704   6.064 -0.4142  0.1603 -0.2002
  938MOL0     C26532   9.571   9.642   5.933 -0.4720 -0.2838  0.6303
  938MOL0     C26533   9.700   9.556   5.947  0.1546 -0.0839 -0.4054
  938MOL0     C26534   9.833   9.633   5.948  0.1228  0.0379 -0.2155
  938MOL0     C26535   9.928   9.581   6.062  0.1765 -0.8909  0.2466
  938MOL0     C26536   9.900   9.650   6.197  0.4391  0.3018 -0.2458
  938MOL0     C26537   9.976   9.591   6.318  0.1223 -0.8716 -0.5772
  938MOL0     C26538   9.902   9.599   6.450 -0.4433 -0.1418  1.0731
  938MOL0    Cl26539   9.877   9.766   6.514  0.2461  0.2939 -0.2743
  938MOL0     C26540   9.281   9.831   5.887 -0.3342  0.4735  0.8248
  938MOL0     C26541   9.152   9.810   5.832 -0.4647  0.6171  0.3245
  938MOL0     O26542   8.831   9.852   5.997 -0.5878 -0.5867  0.5123
  938MOL0     C26543   8.577   9.756   5.926 -0.3359  0.0317 -0.8387
  938MOL0     C26544   8.463   9.693   5.891 -0.3641  0.0755  0.3352
  938MOL0     N26545   7.842   9.785   5.555 -0.0455  0.4573  0.0899
  938MOL0     N26546   7.853   9.769   5.427 -0.6675  0.2563  0.2051
  938MOL0     C26547   8.762  10.122   4.635  0.2760  0.6063  0.0938
  938MOL0     C26548   8.842  10.229   4.594 -0.2636  1.0110  0.0208
  938MOL0     C26549   9.119  10.527   4.465 -0.3174 -0.6242 -0.1079
  938MOL0     C26550   9.187  10.579   4.573  0.1911 -0.2740 -0.1483
  938MOL0     C26551   9.224  10.720   4.571 -0.1335  0.0991  0.5493
  938MOL0     C26552   9.201  10.804   4.469  0.0196 -0.0588  0.4334
  938MOL0     O26553   9.257  10.936   4.481 -0.3081  0.4906 -0.4513
  938MOL0     C26554   9.187  11.031   4.394  0.6730 -0.1426 -0.6457
  938MOL0     C26555   9.238  11.057   4.254  0.8757 -0.3464  0.5012
  938MOL0     C26556   9.389  11.114   4.251 -0.3138  0.0422 -0.6312
  938MOL0     C26557   9.470  11.100   4.128  0.1049  0.1472 -0.3686
  938MOL0     C26558   9.395  11.155   4.019  0.1428  0.1342 -0.1740
  938MOL0     C26559   9.354  11.215   3.921  0.7112 -0.2391 -0.3880
  938MOL0     C26560   9.135  10.753   4.352 -0.2947 -0.3670 -0.8092
  938MOL0     C26561   9.095  10.615   4.350 -0.5688 -0.0855  0.6768
  938MOL0     C26562   9.026  10.578   4.219  0.1485 -0.4672  0.2750
  938MOL0     H26563   9.143  10.096   4.704  1.1683 -4.4558  0.5539
  938MOL0     H26564   8.983   9.904   4.776  0.2482  0.7453  2.6202
  938MOL0     H26565   8.812   9.758   4.792  0.4155 -0.8215  1.1763
  938MOL0     H26566   8.777   9.858   4.934 -0.5294  1.4558 -0.9331
  938MOL0     H26567   8.643   9.638   4.881  0.9868  1.1496 -0.2020
  938MOL0     H26568   8.566   9.731   4.749 -3.2720  2.3375  0.6485
  938MOL0     H26569   8.443   9.872   4.875 -0.8842 -0.3650  0.7420
  938MOL0     H26570   8.558   9.853   5.011 -1.3543 -1.3973  0.9227
  938MOL0     H26571   8.348   9.649   4.911  0.8817 -3.5898  0.6395
  938MOL0     H26572   8.466   9.620   5.037  1.1805 -0.2959 -1.3398
  938MOL0     H26573   8.364   9.784   5.181  0.9203 -0.3797  0.3949
  938MOL0     H26574   8.261   9.835   5.040 -2.5071 -0.9671  0.9161
  938MOL0     H26575   8.137   9.625   5.047 -0.7204 -0.2186 -0.1909
  938MOL0     H26576   8.268   9.554   5.142  1.1245  1.2052 -1.5247
  938MOL0     H26577   8.212   9.691   5.326 -2.8025  1.4841  2.5163
  938MOL0     H26578   8.071   9.588   5.270 -3.0981  0.0905 -2.2667
  938MOL0     H26579   8.106   9.884   5.238  1.1451 -1.3383  0.7076
  938MOL0     H26580   7.960   9.791   5.184 -2.2351 -0.6964  1.8093
  938MOL0     H26581   8.152   9.881   5.501  0.2231 -1.0170 -1.4460
  938MOL0     H26582   8.064   9.949   5.757 -0.6604  0.2027  2.1160
  938MOL0     H26583   7.903   9.890   5.796  0.6229  1.1474  1.6121
  938MOL0     H26584   8.086   9.774   5.921  2.4280 -0.3016 -0.4055
  938MOL0     H26585   7.984   9.663   5.838  1.2104 -0.5166  1.4213
  938MOL0     H26586   8.242   9.751   5.727  0.5064  0.1499  1.6065
  938MOL0     H26587   8.128   9.630   5.655 -2.2269  2.6228  0.3600
  938MOL0     H26588   8.162   9.469   5.821 -1.7380  2.3301 -2.4355
  938MOL0     H26589   8.247   9.579   5.933 -0.7338  2.0103 -0.0880
  938MOL0     H26590   8.565   9.433   5.695 -2.8477  1.1697 -0.2682
  938MOL0     H26591   8.801   9.544   5.774 -0.1314  0.0333  1.1526
  938MOL0     H26592   9.018   9.651   6.095 -2.3226  0.6470 -1.9190
  938MOL0     H26593   9.242   9.693   6.195  0.9525 -0.6773 -0.7515
  938MOL0     H26594   9.616   9.745   6.115 -0.6590  0.0412  0.3137
  938MOL0     H26595   9.478   9.621   6.114  0.9429 -2.3285 -2.6461
  938MOL0     H26596   9.498   9.579   5.882  2.3393  0.9175 -5.9440
  938MOL0     H26597   9.586   9.728   5.868  2.8274 -1.7065 -0.7135
  938MOL0     H26598   9.687   9.485   6.029  0.5600 -1.5225 -1.5488
  938MOL0     H26599   9.695   9.499   5.854  0.3542  2.6063 -2.1858
  938MOL0     H26600   9.821   9.739   5.973 -3.1330 -0.5220  1.1985
  938MOL0     H26601   9.871   9.628   5.845 -3.3665 -1.9196 -1.5834
  938MOL0     H26602  10.034   9.598   6.041 -0.1014  0.6712  0.0064
  938MOL0     H26603   9.916   9.473   6.078 -4.8610 -0.5092  0.5935
  938MOL0     H26604   9.915   9.758   6.192 -2.8479  0.9034  0.6793
  938MOL0     H26605   9.793   9.649   6.217 -0.1949  1.1692 -3.1807
  938MOL0     H26606  10.071   9.646   6.318  0.5088 -1.4038  2.1248
  938MOL0     H26607   9.988   9.483   6.303 -0.4650 -1.0637  0.2803
  938MOL0     H26608   9.805   9.551   6.438  1.1030 -3.0103 -1.5449
  938MOL0     H26609   9.963   9.546   6.524  3.2821  0.7498 -1.0794
  938MOL0     H26610   9.355   9.872   5.819 -0.2373 -1.1563 -0.1026
  938MOL0     H26611   9.118   9.855   5.739  1.3021 -2.2560 -1.8489
  938MOL0     H26612   8.566   9.838   5.995  0.0456 -0.5405 -0.0703
  938MOL0     H26613   8.372   9.742   5.922 -0.5608  0.2265 -0.4627
  938MOL0     H26614   8.655  10.125   4.614  0.4419 -0.5894 -1.0626
  938MOL0     H26615   8.806  10.319   4.545  1.9022  2.0059  0.1443
  938MOL0     H26616   9.215  10.521   4.660  0.5306 -2.3106 -1.5371
  938MOL0     H26617   9.273  10.760   4.659 -1.9313  1.8390  0.8189
  938MOL0     H26618   9.184  11.129   4.444  1.4405 -1.5416  2.4039
  938MOL0     H26619   9.082  11.003   4.382  0.4869 -0.4957  1.3472
  938MOL0     H26620   9.176  11.122   4.191 -1.7459 -1.8300  1.3924
  938MOL0     H26621   9.237  10.962   4.201  2.6008  0.3387 -0.8700
  938MOL0     H26622   9.445  11.062   4.330  1.5174 -0.9197 -2.4869
  938MOL0     H26623   9.390  11.221   4.273 -1.1786  0.1397 -1.0222
  938MOL0     H26624   9.566  11.151   4.142  1.3236 -2.7695  3.9204
  938MOL0     H26625   9.495  10.994   4.120 -2.0449 -0.4553  0.2671
  938MOL0     H26626   9.327  11.261   3.828  0.5788  0.1696 -0.1484
  938MOL0     H26627   9.105  10.804   4.261 -2.1896 -0.3026 -0.1819
  938MOL0     H26628   9.050  10.653   4.143 -1.1394  2.3931  2.4579
  938MOL0     H26629   9.058  10.479   4.185  2.8933  0.8395 -1.3333
  938MOL0     H26630   8.919  10.582   4.240  0.2326 -1.3513  0.9135
  939MOL0     O26631   1.913   5.519   5.397 -0.1958  0.3779  0.2400
  939MOL0     C26632   1.944   5.557   5.509 -0.6643  0.0462 -0.2555
  939MOL0     O26633   2.068   5.592   5.545 -0.0577 -0.1251  0.2050
  939MOL0     C26634   2.179   5.553   5.486  0.2606  0.9060  0.2557
  939MOL0     C26635   2.297   5.595   5.547 -0.2943  0.9053 -0.0629
  939MOL0     C26636   2.419   5.561   5.501 -0.2960  0.4926 -0.0924
  939MOL0     C26637   2.430   5.477   5.400  0.5204  0.0075  1.0730
  939MOL0     O26638   2.560   5.454   5.359 -0.2128  0.0763  0.5192
  939MOL0     C26639   2.593   5.343   5.275 -1.2502  0.3386  0.6184
  939MOL0     C26640   2.746   5.316   5.261 -0.0641  0.6905 -0.2068
  939MOL0     C26641   2.793   5.253   5.389  0.5581 -0.4676 -0.7371
  939MOL0     C26642   2.898   5.139   5.364 -0.5777  0.0509 -0.1559
  939MOL0     C26643   2.946   5.070   5.495  0.0309  0.6450 -0.4495
  939MOL0     C26644   3.032   4.945   5.455  0.3021  0.1999  0.7850
  939MOL0     C26645   3.118   4.879   5.563 -0.6352  0.3113 -0.5759
  939MOL0     C26646   3.257   4.932   5.561 -0.1565  0.0828 -0.0772
  939MOL0     N26647   3.312   4.897   5.692 -0.7690 -0.5685  0.7980
  939MOL0     C26648   3.323   4.987   5.799  1.0437  0.3309 -0.1041
  939MOL0     C26649   3.412   4.931   5.884  0.8258  0.2465  0.4423
  939MOL0     C26650   3.453   4.991   6.017  0.0067 -0.9211 -0.0717
  939MOL0     C26651   3.360   4.939   6.131 -0.9634  0.1970  0.5787
  939MOL0     C26652   3.390   4.987   6.275  0.0997  0.6200  0.6300
  939MOL0     C26653   3.332   4.894   6.386 -0.4880  0.2106  0.6835
  939MOL0     O26654   3.192   4.918   6.406 -0.3687 -0.6931  0.1135
  939MOL0     C26655   3.145   4.933   6.539  0.0581  0.4722  0.2030
  939MOL0     C26656   3.206   4.897   6.656  0.2566 -0.3211  0.6819
  939MOL0     C26657   3.149   4.923   6.775 -0.1636  0.5545  0.7466
  939MOL0     C26658   3.030   4.999   6.789 -0.2155  0.8337 -0.2453
  939MOL0     C26659   2.957   5.037   6.915 -0.7138 -0.5525 -0.7945
  939MOL0     O26660   2.843   5.117   6.912 -1.2210  1.0424  0.1557
  939MOL0     C26661   2.769   5.134   7.031  0.3708 -0.7637 -0.1039
  939MOL0     C26662   2.828   5.175   7.154  0.6327 -0.3026  0.4183
  939MOL0     C26663   2.752   5.197   7.266  0.0669 -0.2798 -0.4976
  939MOL0     C26664   2.607   5.187   7.266 -0.4537 -0.5328  0.3111
  939MOL0     O26665   2.541   5.207   7.388 -0.0591 -0.7507  0.2893
  939MOL0     C26666   2.401   5.237   7.371 -0.8784 -0.0049 -0.1397
  939MOL0     C26667   2.346   5.299   7.498 -0.2518  0.4931  0.2572
  939MOL0     C26668   2.189   5.295   7.521  0.5805  0.6690  0.2130
  939MOL0     C26669   2.108   5.418   7.477  0.4180 -0.4559 -0.6887
  939MOL0     C26670   1.960   5.399   7.496 -0.2962  0.3122  0.3270
  939MOL0     C26671   1.877   5.535   7.528  0.2156  0.7748 -0.1848
  939MOL0     C26672   1.727   5.501   7.509  1.3375  0.4027  0.0333
  939MOL0     C26673   1.630   5.610   7.566  0.0637 -0.4962 -0.3764
  939MOL0    Cl26674   1.684   5.773   7.514 -0.0626  0.3743 -0.7296
  939MOL0     C26675   2.552   5.171   7.134 -0.0578 -0.0212 -0.0734
  939MOL0     C26676   2.632   5.141   7.023  0.7678  0.4648 -0.9538
  939MOL0     O26677   2.994   4.975   7.017 -0.8000  0.0831 -0.2812
  939MOL0     C26678   2.970   5.037   6.667  1.2018 -0.1417 -0.4297
  939MOL0     C26679   3.026   4.995   6.548  0.1278  0.7310  0.2783
  939MOL0     N26680   3.463   4.823   5.826 -0.3805 -0.7009 -0.8358
  939MOL0     N26681   3.402   4.798   5.717  0.4333 -0.9894  1.1305
  939MOL0     C26682   2.317   5.428   5.332  0.5341  0.1074 -1.0918
  939MOL0     C26683   2.189   5.471   5.371  0.4002  0.7020 -0.7233
  939MOL0     C26684   1.846   5.602   5.602  0.1904  0.8280 -0.3442
  939MOL0     C26685   1.709   5.623   5.559  0.2135  1.4881 -0.2547
  939MOL0     C26686   1.610   5.656   5.646  0.0545 -0.7658  0.3110
  939MOL0     C26687   1.638   5.694   5.776 -0.9821 -0.0394 -0.0353
  939MOL0     O26688   1.537   5.745   5.848 -0.4964  0.2963 -0.2454
  939MOL0     C26689   1.556   5.773   5.986 -0.9743  0.0666  0.9194
  939MOL0     C26690   1.428   5.812   6.062 -0.5376  0.1539 -0.6510
  939MOL0     C26691   1.368   5.931   5.999  0.4272 -0.2267  0.4133
  939MOL0     C26692   1.247   5.976   6.082  0.6913 -0.5338 -0.0710
  939MOL0     C26693   1.118   5.962   6.007  0.3082 -0.5719 -0.1235
  939MOL0     C26694   1.004   5.941   5.967  0.7982 -0.7397  0.0213
  939MOL0     C26695   1.772   5.687   5.816  1.1840  0.6130 -0.2828
  939MOL0     C26696   1.878   5.636   5.739  1.7215 -0.0895  1.1304
  939MOL0     C26697   2.006   5.627   5.813  0.6244  0.5288 -0.3202
  939MOL0     H26698   2.295   5.676   5.619 -0.2463 -0.9145  2.1014
  939MOL0     H26699   2.505   5.616   5.537  1.0217 -0.7674 -1.1728
  939MOL0     H26700   2.544   5.251   5.310 -1.6357  1.2653  2.6277
  939MOL0     H26701   2.552   5.356   5.174 -1.9271  0.5599  0.9122
  939MOL0     H26702   2.797   5.409   5.233  2.0474 -0.3302  0.1082
  939MOL0     H26703   2.771   5.249   5.179 -2.2467 -0.5219  0.0435
  939MOL0     H26704   2.711   5.234   5.459  0.2140  1.3582 -0.6131
  939MOL0     H26705   2.848   5.334   5.437 -1.1310  0.1743  0.1843
  939MOL0     H26706   2.855   5.077   5.284 -0.8001  0.4676 -0.3659
  939MOL0     H26707   2.981   5.191   5.316 -2.0518  1.7000 -1.0204
  939MOL0     H26708   3.008   5.140   5.551 -2.6859  2.4523  0.5020
  939MOL0     H26709   2.860   5.037   5.554 -0.3993  0.7402 -1.0098
  939MOL0     H26710   2.966   4.865   5.420  0.3101  0.4753  0.1126
  939MOL0     H26711   3.096   4.958   5.367  0.0034 -4.3858 -0.3321
  939MOL0     H26712   3.126   4.774   5.534  1.0390  0.9218 -2.5854
  939MOL0     H26713   3.065   4.865   5.658 -1.1969 -0.4261 -0.9885
  939MOL0     H26714   3.317   4.883   5.483  0.0836 -3.6336  2.2132
  939MOL0     H26715   3.257   5.040   5.542 -2.9514 -0.0674 -1.3195
  939MOL0     H26716   3.264   5.078   5.805  0.6516  0.0444  0.4769
  939MOL0     H26717   3.556   4.959   6.037 -0.8611 -3.9173  0.0627
  939MOL0     H26718   3.462   5.099   5.998 -1.6838 -1.0304 -1.8360
  939MOL0     H26719   3.258   4.974   6.110 -0.9050  1.7595  2.6208
  939MOL0     H26720   3.376   4.831   6.132  2.2912  0.5858 -0.0488
  939MOL0     H26721   3.355   5.091   6.272  1.4001  1.1610  2.3682
  939MOL0     H26722   3.497   4.999   6.295  0.1574  2.5445 -0.5879
  939MOL0     H26723   3.396   4.913   6.473  1.5909 -2.4515 -0.1299
  939MOL0     H26724   3.341   4.787   6.366 -0.4447 -0.4215  3.6265
  939MOL0     H26725   3.304   4.852   6.653  1.3363  1.8434  1.3037
  939MOL0     H26726   3.189   4.870   6.860  0.6927  2.1622  1.3863
  939MOL0     H26727   2.936   5.172   7.164  0.7895 -3.0085 -1.0588
  939MOL0     H26728   2.803   5.209   7.361 -0.0899 -1.8474 -0.1881
  939MOL0     H26729   2.391   5.324   7.305  2.2951  1.5506  1.2209
  939MOL0     H26730   2.357   5.147   7.326  1.2600 -0.1887 -2.0559
  939MOL0     H26731   2.381   5.238   7.582  2.2994 -1.9106 -2.2914
  939MOL0     H26732   2.385   5.399   7.516 -0.2115  0.3291  1.1134
  939MOL0     H26733   2.161   5.190   7.511  2.1541  0.1909  0.5072
  939MOL0     H26734   2.167   5.308   7.628 -1.6583  2.3792 -0.3737
  939MOL0     H26735   2.108   5.428   7.368 -2.0854  2.0926 -0.5805
  939MOL0     H26736   2.148   5.512   7.517  2.4265 -1.2980 -0.6141
  939MOL0     H26737   1.951   5.331   7.581  1.9798 -2.4963 -1.5246
  939MOL0     H26738   1.918   5.354   7.406 -0.3224  0.1846  0.4023
  939MOL0     H26739   1.902   5.572   7.628 -1.3281 -1.2901  1.0273
  939MOL0     H26740   1.904   5.610   7.453  0.2419 -0.7893 -1.8119
  939MOL0     H26741   1.696   5.406   7.552  0.3190  0.5627 -0.2933
  939MOL0     H26742   1.705   5.501   7.401  0.6381  1.5942  0.1523
  939MOL0     H26743   1.527   5.587   7.535 -0.4747  0.1483  0.8703
  939MOL0     H26744   1.639   5.608   7.675 -1.6022 -0.3524 -0.2006
  939MOL0     H26745   2.444   5.176   7.119  0.0160 -3.0208 -2.2590
  939MOL0     H26746   2.585   5.111   6.930 -2.0291 -0.1269  0.5376
  939MOL0     H26747   2.872   5.081   6.657  1.9482  1.5059 -0.7650
  939MOL0     H26748   2.972   5.005   6.454  1.0039  1.0523 -0.1994
  939MOL0     H26749   2.319   5.359   5.248  1.0348 -0.9627 -0.2370
  939MOL0     H26750   2.101   5.427   5.327  1.3184 -1.2152 -0.7409
  939MOL0     H26751   1.677   5.612   5.456 -2.5387  3.1456  0.3112
  939MOL0     H26752   1.503   5.672   5.635  0.3675  1.7968  0.2885
  939MOL0     H26753   1.628   5.854   5.994  0.8269 -1.5380  1.7842
  939MOL0     H26754   1.595   5.687   6.042  1.6228  0.1442 -0.6149
  939MOL0     H26755   1.453   5.829   6.167 -3.0154  1.2332 -0.1692
  939MOL0     H26756   1.353   5.732   6.057  2.0281 -2.4931 -0.0965
  939MOL0     H26757   1.343   5.906   5.896 -2.5493  2.0989  0.4537
  939MOL0     H26758   1.442   6.012   5.999  0.6966 -0.4692  0.7397
  939MOL0     H26759   1.246   5.937   6.184  2.7621 -0.3170  0.0761
  939MOL0     H26760   1.270   6.082   6.098 -0.5859  0.1550 -2.3053
  939MOL0     H26761   0.910   5.925   5.920  1.7085  0.0178 -2.1548
  939MOL0     H26762   1.794   5.721   5.917  0.7000 -3.6340  1.4747
  939MOL0     H26763   2.085   5.682   5.761  1.8857 -0.5143  0.4359
  939MOL0     H26764   2.000   5.666   5.915  1.5166 -0.8411  0.2855
  939MOL0     H26765   2.028   5.523   5.838 -2.3233  0.0983  0.8517
  940MOL0     O26766   6.986   6.616   2.368  0.3816  0.2447  0.9285
  940MOL0     C26767   6.876   6.644   2.319  0.5595 -0.8102  0.9547
  940MOL0     O26768   6.770   6.562   2.306  0.2034  1.5096 -0.5468
  940MOL0     C26769   6.789   6.432   2.354 -0.2783 -0.1086  0.1473
  940MOL0     C26770   6.823   6.400   2.483  0.2348 -0.4266 -0.1644
  940MOL0     C26771   6.829   6.274   2.536  0.2454 -0.1842  0.1794
  940MOL0     C26772   6.798   6.170   2.451  0.8194 -0.4293 -0.7544
  940MOL0     O26773   6.809   6.049   2.507  0.4306 -0.7098  0.9217
  940MOL0     C26774   6.798   5.926   2.438  0.3851  0.6728 -0.5797
  940MOL0     C26775   6.805   5.805   2.539 -0.5329 -0.5400 -0.8915
  940MOL0     C26776   6.940   5.790   2.596  0.2372  0.1378 -0.4703
  940MOL0     C26777   6.982   5.644   2.598  0.4119 -0.2014  0.8568
  940MOL0     C26778   7.105   5.620   2.679  1.2759 -0.8320 -0.0501
  940MOL0     C26779   7.159   5.479   2.678 -0.1847 -0.2102 -0.2416
  940MOL0     C26780   7.051   5.363   2.686  0.2769  0.2638 -0.0990
  940MOL0     C26781   7.111   5.234   2.748  0.2006 -0.1509 -0.3936
  940MOL0     N26782   7.180   5.165   2.638 -0.5837  0.3756 -0.5972
  940MOL0     C26783   7.294   5.196   2.572  0.3339 -0.0691 -0.7688
  940MOL0     C26784   7.325   5.083   2.497  0.3775 -0.1924 -0.1369
  940MOL0     C26785   7.436   5.072   2.401 -0.6873 -0.2787 -0.0771
  940MOL0     C26786   7.472   5.199   2.317 -0.1916 -1.1679  0.7855
  940MOL0     C26787   7.608   5.178   2.239 -0.2555 -0.7015  0.9998
  940MOL0     C26788   7.619   5.048   2.157  0.0375 -0.0973  0.1585
  940MOL0     O26789   7.741   5.034   2.082  0.1977 -0.4530  0.2114
  940MOL0     C26790   7.848   4.969   2.128 -0.2937  0.3552 -0.5221
  940MOL0     C26791   7.849   4.838   2.192 -0.1081  0.6482  0.3708
  940MOL0     C26792   7.969   4.785   2.244  0.3883  0.1634 -0.3580
  940MOL0     C26793   8.097   4.850   2.214 -0.1628  0.6875  0.1167
  940MOL0     C26794   8.223   4.792   2.257  0.4363  0.2322  0.1766
  940MOL0     O26795   8.348   4.836   2.212 -0.2988 -0.5392 -0.2198
  940MOL0     C26796   8.454   4.780   2.276 -1.0035 -0.0059 -0.2051
  940MOL0     C26797   8.567   4.770   2.190  0.3548 -0.5522 -0.7486
  940MOL0     C26798   8.697   4.733   2.248  0.2097  0.0558 -0.8442
  940MOL0     C26799   8.700   4.703   2.385  0.1887  0.2478  0.2727
  940MOL0     O26800   8.834   4.677   2.420 -0.4000 -0.2488  0.8005
  940MOL0     C26801   8.864   4.626   2.551 -0.4266  0.2888 -1.0625
  940MOL0     C26802   9.019   4.601   2.559  0.0199 -0.0865 -0.3750
  940MOL0     C26803   9.064   4.559   2.697  0.1932  0.6920  0.4149
  940MOL0     C26804   9.211   4.506   2.723  0.2925  0.4353 -0.4073
  940MOL0     C26805   9.224   4.479   2.873  0.3338  0.3975  0.3393
  940MOL0     C26806   9.367   4.439   2.899  1.3660 -0.1719 -0.1908
  940MOL0     C26807   9.398   4.389   3.044 -0.6497 -0.8630  0.2563
  940MOL0     C26808   9.329   4.260   3.091  0.3304  0.1169 -0.2176
  940MOL0    Cl26809   9.381   4.137   2.980  0.0343  0.0483 -0.0831
  940MOL0     C26810   8.583   4.699   2.468  0.8387 -0.9429  0.7284
  940MOL0     C26811   8.465   4.748   2.410 -0.8946  0.2821 -0.6779
  940MOL0     O26812   8.209   4.684   2.305 -0.1672  0.4498  0.0714
  940MOL0     C26813   8.088   4.963   2.125 -0.2217  0.5306  0.1723
  940MOL0     C26814   7.974   5.024   2.086  0.1580  0.4573  0.3869
  940MOL0     N26815   7.223   4.990   2.526  0.0243 -0.3269  0.1049
  940MOL0     N26816   7.136   5.042   2.611 -0.1662  0.2890 -0.1799
  940MOL0     C26817   6.772   6.192   2.314  0.3700  0.4196  0.2688
  940MOL0     C26818   6.770   6.326   2.271  0.0453 -0.1327  0.3588
  940MOL0     C26819   6.846   6.781   2.264  0.0519 -0.3328 -0.6975
  940MOL0     C26820   6.715   6.812   2.234 -0.1448  0.3468  0.2978
  940MOL0     C26821   6.677   6.927   2.160 -0.6487 -0.1864 -0.6844
  940MOL0     C26822   6.763   7.038   2.149 -0.5648  0.3072 -0.5302
  940MOL0     O26823   6.710   7.153   2.087 -0.0299  0.3484  0.3689
  940MOL0     C26824   6.768   7.277   2.132  0.1475  0.4850 -0.3015
  940MOL0     C26825   6.712   7.394   2.050 -0.0009  0.5691 -0.2462
  940MOL0     C26826   6.581   7.446   2.106 -1.2604 -0.5315 -0.7117
  940MOL0     C26827   6.464   7.341   2.104 -0.4807  0.1319  0.3274
  940MOL0     C26828   6.333   7.406   2.105  0.2167 -0.6591 -0.3580
  940MOL0     C26829   6.225   7.458   2.109  0.2561 -0.0314  0.4751
  940MOL0     C26830   6.900   7.004   2.179 -0.7680  0.3534 -0.2025
  940MOL0     C26831   6.943   6.879   2.233  0.1220 -0.2626 -0.1509
  940MOL0     C26832   7.085   6.866   2.256  0.9316  0.6029 -0.2896
  940MOL0     H26833   6.821   6.488   2.546 -0.2386 -1.1164  0.8247
  940MOL0     H26834   6.846   6.260   2.642  3.2036 -0.3046 -0.2026
  940MOL0     H26835   6.706   5.916   2.379  0.3681 -0.9758 -0.3179
  940MOL0     H26836   6.872   5.926   2.357 -2.9332 -2.5042 -4.0170
  940MOL0     H26837   6.780   5.714   2.484 -1.9881  0.1308 -1.3989
  940MOL0     H26838   6.722   5.819   2.609 -1.4009  1.1868 -2.1818
  940MOL0     H26839   6.937   5.832   2.697 -2.7438 -1.4462  0.2141
  940MOL0     H26840   7.017   5.842   2.537 -0.0264  1.2162  0.0927
  940MOL0     H26841   6.894   5.585   2.626 -0.2597  0.9314  1.1944
  940MOL0     H26842   7.012   5.615   2.497  0.0375  0.3034  0.5952
  940MOL0     H26843   7.181   5.692   2.648 -0.4503  1.6425  1.1059
  940MOL0     H26844   7.066   5.631   2.781  0.8856  0.5098 -0.3360
  940MOL0     H26845   7.221   5.470   2.589  2.2817  2.8452  0.9974
  940MOL0     H26846   7.233   5.477   2.758 -0.0986 -3.2955 -0.2543
  940MOL0     H26847   6.996   5.340   2.593 -0.9663 -0.4015  0.7655
  940MOL0     H26848   6.965   5.388   2.749 -0.6577 -1.1371 -0.7431
  940MOL0     H26849   7.178   5.248   2.833  0.1750 -1.1668 -0.1891
  940MOL0     H26850   7.022   5.182   2.783  1.4578 -1.1699  1.4180
  940MOL0     H26851   7.348   5.290   2.568 -2.4934  1.7137  0.3574
  940MOL0     H26852   7.511   5.029   2.468 -2.2483 -2.8214  0.1666
  940MOL0     H26853   7.405   4.991   2.334 -1.2070 -0.1591  0.0140
  940MOL0     H26854   7.402   5.222   2.236  1.7294 -2.2798 -1.3100
  940MOL0     H26855   7.464   5.294   2.370 -0.6690 -0.7375 -0.0376
  940MOL0     H26856   7.693   5.179   2.308 -0.4024 -0.7280  1.1823
  940MOL0     H26857   7.626   5.259   2.168  1.1918 -0.3289  1.7531
  940MOL0     H26858   7.534   5.051   2.089 -0.5867  0.1492  0.9444
  940MOL0     H26859   7.603   4.970   2.232  1.7175 -1.6543 -1.0072
  940MOL0     H26860   7.757   4.781   2.198  0.9715 -1.9043 -3.5047
  940MOL0     H26861   7.962   4.689   2.296 -1.2742  0.7946  0.6767
  940MOL0     H26862   8.567   4.804   2.087  0.5337  0.9849 -0.2810
  940MOL0     H26863   8.785   4.731   2.186  2.3850  2.0211  1.9180
  940MOL0     H26864   8.825   4.688   2.632  0.9770  0.4669 -0.5029
  940MOL0     H26865   8.813   4.529   2.562 -0.7808  0.4104 -1.5837
  940MOL0     H26866   9.041   4.529   2.480 -0.7465 -0.6164 -0.1241
  940MOL0     H26867   9.075   4.689   2.528  0.8026 -0.2158  0.6126
  940MOL0     H26868   9.045   4.641   2.767 -1.1620  0.8589 -0.1146
  940MOL0     H26869   9.002   4.477   2.734 -0.3912  1.3806  1.0099
  940MOL0     H26870   9.284   4.579   2.687  0.2328  0.1268 -1.1746
  940MOL0     H26871   9.224   4.413   2.667 -1.4571 -0.0233 -0.1152
  940MOL0     H26872   9.152   4.403   2.903 -0.8590  1.6928  0.8992
  940MOL0     H26873   9.200   4.573   2.924 -1.2667 -0.4813  1.2745
  940MOL0     H26874   9.398   4.367   2.823  0.0251  0.6009 -1.5243
  940MOL0     H26875   9.431   4.527   2.887  1.4794 -0.1742  0.3824
  940MOL0     H26876   9.394   4.467   3.121 -0.0643 -2.0690  1.5780
  940MOL0     H26877   9.506   4.368   3.039 -0.0566  1.2531  2.3200
  940MOL0     H26878   9.363   4.211   3.183  2.8670 -2.7299 -2.4792
  940MOL0     H26879   9.221   4.276   3.085  0.5206  1.4949 -0.3764
  940MOL0     H26880   8.586   4.671   2.572 -3.4394  1.0017  1.6027
  940MOL0     H26881   8.385   4.740   2.483 -1.0965 -2.3158 -1.0620
  940MOL0     H26882   8.184   5.008   2.106  0.3060 -0.7044 -0.2064
  940MOL0     H26883   7.975   5.110   2.019 -0.8013  0.9735  1.0006
  940MOL0     H26884   6.752   6.113   2.242  0.1930  0.9126 -0.2326
  940MOL0     H26885   6.753   6.337   2.165 -0.2747 -1.0876  0.3003
  940MOL0     H26886   6.638   6.738   2.256  0.4234 -0.5297 -0.5646
  940MOL0     H26887   6.572   6.943   2.138 -0.2611  2.3802 -0.9276
  940MOL0     H26888   6.877   7.274   2.127  0.0797 -1.4847 -1.0748
  940MOL0     H26889   6.746   7.289   2.239  0.0224 -0.3781 -0.2222
  940MOL0     H26890   6.701   7.361   1.946  1.6726  1.3503 -0.7043
  940MOL0     H26891   6.780   7.480   2.051  1.4827 -0.5510  1.9838
  940MOL0     H26892   6.550   7.539   2.058 -0.3011  1.7617  2.7514
  940MOL0     H26893   6.594   7.480   2.209 -0.2631 -0.5583 -0.8168
  940MOL0     H26894   6.470   7.282   2.012  0.8695  1.5465 -0.5362
  940MOL0     H26895   6.476   7.267   2.184  0.2031 -3.1794 -2.6140
  940MOL0     H26896   6.134   7.515   2.108 -0.7357 -1.5685 -0.2823
  940MOL0     H26897   6.972   7.075   2.138  0.3190 -1.3504 -1.3997
  940MOL0     H26898   7.139   6.952   2.216 -0.1068 -0.3317 -4.1280
  940MOL0     H26899   7.120   6.852   2.359  1.9562 -3.4160 -0.9972
  940MOL0     H26900   7.117   6.788   2.187 -0.9178 -0.9806  0.5459
  941MOL0     O26901   2.614   9.290   0.890  0.7110 -0.5043  0.0007
  941MOL0     C26902   2.559   9.375   0.971  0.4588  0.6622  0.3185
  941MOL0     O26903   2.602   9.509   0.978 -0.6075 -0.3654 -0.4269
  941MOL0     C26904   2.704   9.559   0.903  0.7838  0.4088  0.2237
  941MOL0     C26905   2.684   9.686   0.841  0.3090 -0.4440  0.3356
  941MOL0     C26906   2.788   9.752   0.770  0.7467 -0.2466  0.0578
  941MOL0     C26907   2.911   9.678   0.761 -0.3900  0.1029  0.4291
  941MOL0     O26908   3.010   9.732   0.690  0.0256 -0.0576  0.5574
  941MOL0     C26909   3.047   9.868   0.721 -0.1044 -0.5987  0.1363
  941MOL0     C26910   3.198   9.886   0.741 -0.6363 -0.6591  0.3376
  941MOL0     C26911   3.273   9.864   0.605  0.0441 -0.1451 -0.1593
  941MOL0     C26912   3.383   9.765   0.636  0.8521 -0.3842 -0.7196
  941MOL0     C26913   3.471   9.719   0.523  0.0130  0.3864  0.3262
  941MOL0     C26914   3.594   9.651   0.588  0.8640  0.3328  0.0497
  941MOL0     C26915   3.716   9.649   0.489 -0.5182 -1.1917 -0.2203
  941MOL0     C26916   3.823   9.548   0.528 -0.3210  0.2870 -0.2041
  941MOL0     N26917   3.887   9.583   0.661  0.4109 -0.2630  0.7993
  941MOL0     C26918   3.986   9.673   0.675  0.0966  0.3401 -0.4166
  941MOL0     C26919   4.007   9.669   0.811 -1.1791  0.1661 -0.0814
  941MOL0     C26920   4.113   9.738   0.894  0.4987  0.2273 -0.5420
  941MOL0     C26921   4.244   9.757   0.806 -0.3625 -0.8963 -0.6388
  941MOL0     C26922   4.363   9.818   0.879  0.5472 -0.3426 -0.0248
  941MOL0     C26923   4.477   9.727   0.921 -0.2366  0.2044  0.1304
  941MOL0     O26924   4.549   9.698   0.795  0.0006 -0.5290 -0.7391
  941MOL0     C26925   4.676   9.724   0.797 -0.1834  0.0984  0.0926
  941MOL0     C26926   4.738   9.798   0.694  0.0291 -0.6507  0.3763
  941MOL0     C26927   4.879   9.806   0.693  0.1613  0.2570  0.1967
  941MOL0     C26928   4.961   9.729   0.772  0.2706 -0.4493  0.3240
  941MOL0     C26929   5.108   9.735   0.775 -0.2313 -0.7331  0.0000
  941MOL0     O26930   5.182   9.620   0.793  0.3655 -0.6829  0.1453
  941MOL0     C26931   5.315   9.627   0.761  0.4177  0.3411 -0.4574
  941MOL0     C26932   5.409   9.570   0.853  0.6295 -0.4036  0.6735
  941MOL0     C26933   5.547   9.578   0.828  0.6409 -0.1665  0.0685
  941MOL0     C26934   5.601   9.645   0.714  0.3632 -0.2912 -0.9335
  941MOL0     O26935   5.738   9.648   0.711  0.2217  0.2716 -0.1302
  941MOL0     C26936   5.786   9.637   0.578 -0.2396  1.2528 -0.4484
  941MOL0     C26937   5.752   9.519   0.502  0.0313  0.0057  0.3347
  941MOL0     C26938   5.796   9.383   0.568  0.1654 -0.1292 -0.1259
  941MOL0     C26939   5.766   9.259   0.483  0.1981 -0.3616  0.1379
  941MOL0     C26940   5.735   9.123   0.542  0.2549 -0.0140  0.7669
  941MOL0     C26941   5.611   9.148   0.626  0.1543 -0.0763 -0.6064
  941MOL0     C26942   5.484   9.223   0.579  0.2161 -1.0840 -0.3382
  941MOL0     C26943   5.355   9.187   0.650 -0.4082 -0.0303  0.2023
  941MOL0    Cl26944   5.229   9.186   0.530  0.0968  0.1920  0.3849
  941MOL0     C26945   5.508   9.696   0.623  0.3779  0.8665 -0.1138
  941MOL0     C26946   5.367   9.684   0.645 -0.3788 -0.0163  0.4836
  941MOL0     O26947   5.142   9.852   0.758 -0.1344  0.6868 -0.9421
  941MOL0     C26948   4.894   9.641   0.863 -0.4920 -0.2992  0.6817
  941MOL0     C26949   4.755   9.638   0.868  0.0879 -0.5113  0.1433
  941MOL0     N26950   3.921   9.584   0.873  0.3046  0.1784 -0.1348
  941MOL0     N26951   3.857   9.527   0.779  0.4562  0.2120 -0.7132
  941MOL0     C26952   2.930   9.562   0.831 -0.5408  0.4233 -0.4396
  941MOL0     C26953   2.832   9.499   0.893  0.4817 -0.3231  0.4108
  941MOL0     C26954   2.437   9.329   1.027  0.1014  0.0027  0.0679
  941MOL0     C26955   2.323   9.398   1.001  0.0639 -1.1702 -0.0322
  941MOL0     C26956   2.203   9.372   1.072  0.1978  0.0886  0.2572
  941MOL0     C26957   2.194   9.275   1.170 -0.5144  0.1693 -0.8137
  941MOL0     O26958   2.083   9.271   1.255 -0.2930  0.3316  0.4505
  941MOL0     C26959   2.077   9.165   1.347  0.2857  0.0320  1.4011
  941MOL0     C26960   2.016   9.031   1.288  0.3326 -0.2466  0.4635
  941MOL0     C26961   1.874   9.048   1.220  0.2644 -0.4697  0.3366
  941MOL0     C26962   1.823   8.917   1.150 -0.6052 -0.1992 -0.2321
  941MOL0     C26963   1.905   8.868   1.037  0.2255  0.0692  0.1204
  941MOL0     C26964   1.959   8.829   0.931  0.3967 -0.2213 -0.4557
  941MOL0     C26965   2.308   9.201   1.186  0.3892 -1.0293 -0.6548
  941MOL0     C26966   2.425   9.230   1.124 -0.4794  0.2195 -0.6970
  941MOL0     C26967   2.538   9.137   1.148 -0.4897  0.6308 -0.1161
  941MOL0     H26968   2.591   9.741   0.845  0.7813  1.3200 -4.7965
  941MOL0     H26969   2.772   9.842   0.710  0.3890 -0.3364  0.0143
  941MOL0     H26970   3.016   9.947   0.652  0.4557  2.2567  2.9416
  941MOL0     H26971   3.001   9.894   0.816 -1.3823  1.6484 -1.0082
  941MOL0     H26972   3.230   9.811   0.814  2.7534  0.5815  0.3126
  941MOL0     H26973   3.228   9.985   0.775 -0.4175 -1.9903  4.6026
  941MOL0     H26974   3.310   9.962   0.570  0.4181 -0.2756 -0.1358
  941MOL0     H26975   3.212   9.823   0.524  0.1811  0.9640 -0.8496
  941MOL0     H26976   3.452   9.820   0.701  2.2013 -2.5604 -0.1825
  941MOL0     H26977   3.342   9.679   0.690  2.7291 -0.9306 -0.0787
  941MOL0     H26978   3.425   9.650   0.453  1.0717  1.8541 -1.9199
  941MOL0     H26979   3.501   9.815   0.481  0.9917 -0.3486 -0.7108
  941MOL0     H26980   3.618   9.693   0.686 -0.5602  0.4112  0.3815
  941MOL0     H26981   3.569   9.546   0.604  2.9554 -0.6182 -2.2273
  941MOL0     H26982   3.763   9.748   0.492  0.0542 -1.4886  1.3597
  941MOL0     H26983   3.690   9.619   0.387  3.1299  0.4824 -1.8087
  941MOL0     H26984   3.774   9.451   0.544 -0.0890  0.5418  2.6540
  941MOL0     H26985   3.898   9.542   0.449  0.0175 -0.9212  0.1875
  941MOL0     H26986   4.049   9.715   0.597  3.1238 -2.0853  0.5104
  941MOL0     H26987   4.082   9.832   0.941  1.5277 -0.3542  1.4261
  941MOL0     H26988   4.147   9.662   0.966 -0.7500  1.4926  1.4978
  941MOL0     H26989   4.281   9.673   0.747  0.0155 -1.3113  0.1658
  941MOL0     H26990   4.222   9.824   0.723 -0.7658 -2.2498 -1.6622
  941MOL0     H26991   4.324   9.877   0.963  1.1561 -1.4241  1.0389
  941MOL0     H26992   4.411   9.887   0.808  1.6649 -2.6020 -1.5953
  941MOL0     H26993   4.439   9.641   0.976 -0.1689  0.3247  0.3707
  941MOL0     H26994   4.548   9.772   0.992  0.6679  1.3824 -1.4552
  941MOL0     H26995   4.678   9.860   0.628  0.6857  0.6225  0.9286
  941MOL0     H26996   4.935   9.879   0.635  1.2290 -0.9934 -0.3978
  941MOL0     H26997   5.372   9.516   0.940 -0.0312 -2.0984 -0.6079
  941MOL0     H26998   5.617   9.528   0.895 -0.6959 -2.5825 -0.2387
  941MOL0     H26999   5.744   9.723   0.524 -1.1676 -0.4662 -2.6453
  941MOL0     H27000   5.895   9.645   0.577  0.0096 -1.2347  0.4549
  941MOL0     H27001   5.645   9.519   0.478 -0.0398 -1.3155  0.5784
  941MOL0     H27002   5.805   9.533   0.408  1.1423  1.1788  1.0918
  941MOL0     H27003   5.904   9.394   0.582  0.6705 -0.8885 -2.8146
  941MOL0     H27004   5.754   9.371   0.668  0.1391  1.6214  0.1034
  941MOL0     H27005   5.865   9.248   0.437  0.2978 -0.8229  0.4551
  941MOL0     H27006   5.690   9.283   0.408 -0.4814 -2.7335  0.0004
  941MOL0     H27007   5.820   9.087   0.601  0.4528 -0.5177  0.1797
  941MOL0     H27008   5.708   9.051   0.464  0.1464  0.7130  0.1272
  941MOL0     H27009   5.576   9.051   0.663  0.7252  0.5205  1.6345
  941MOL0     H27010   5.641   9.200   0.717 -2.9888 -2.6338  2.1799
  941MOL0     H27011   5.487   9.188   0.476 -1.9865  0.4508 -0.9796
  941MOL0     H27012   5.495   9.331   0.577 -0.6763 -0.8839  1.9826
  941MOL0     H27013   5.351   9.085   0.691  2.0587  0.4385  1.8264
  941MOL0     H27014   5.328   9.256   0.730 -0.0082 -1.0182  1.2189
  941MOL0     H27015   5.543   9.748   0.535 -2.8576  1.0289 -1.4478
  941MOL0     H27016   5.309   9.733   0.568  1.4449  0.5033 -0.6312
  941MOL0     H27017   4.944   9.567   0.925  0.5103 -1.4157 -1.3523
  941MOL0     H27018   4.713   9.572   0.943 -0.4532  2.5851  2.7428
  941MOL0     H27019   3.022   9.504   0.830 -0.0092  1.2239  0.1592
  941MOL0     H27020   2.846   9.398   0.930 -0.2662 -0.2988  0.7791
  941MOL0     H27021   2.330   9.481   0.932 -3.3547  1.6029  2.5360
  941MOL0     H27022   2.113   9.433   1.060 -0.5816 -1.0427  0.2383
  941MOL0     H27023   2.006   9.205   1.419 -0.4728  3.7743 -1.1215
  941MOL0     H27024   2.171   9.150   1.401 -0.7274  2.0774  3.9378
  941MOL0     H27025   2.009   8.953   1.365 -2.9118 -1.2671 -0.6999
  941MOL0     H27026   2.076   8.996   1.203  0.6944 -1.6518  1.2627
  941MOL0     H27027   1.875   9.129   1.147 -0.5080 -0.9982 -0.2779
  941MOL0     H27028   1.814   9.076   1.307  1.2472 -0.0849  0.9081
  941MOL0     H27029   1.832   8.835   1.222 -1.3989 -0.5627 -0.5395
  941MOL0     H27030   1.716   8.910   1.127 -0.9957 -0.0768  1.3719
  941MOL0     H27031   2.012   8.787   0.849  0.9644  0.3699 -0.3943
  941MOL0     H27032   2.311   9.113   1.250 -3.6762 -1.9467 -1.4267
  941MOL0     H27033   2.539   9.044   1.091 -0.1310  0.2093  0.5572
  941MOL0     H27034   2.636   9.181   1.127  0.7275 -2.3457 -1.1754
  941MOL0     H27035   2.547   9.106   1.253  0.7239  1.3154  0.0055
  942MOL0     O27036   7.677  10.275  11.052  0.4568 -0.8973 -0.5730
  942MOL0     C27037   7.600  10.180  11.046  0.3742  0.2228  0.2863
  942MOL0     O27038   7.598  10.097  10.938  0.6111  0.7316  0.8708
  942MOL0     C27039   7.647  10.141  10.821  0.2969  1.4402  0.1734
  942MOL0     C27040   7.753  10.075  10.762  0.8317  0.9804 -0.0067
  942MOL0     C27041   7.805  10.100  10.632  0.5160  0.0195  0.4228
  942MOL0     C27042   7.738  10.200  10.555 -0.8186  0.0981  0.6871
  942MOL0     O27043   7.780  10.223  10.426 -0.3655  0.3128  0.2105
  942MOL0     C27044   7.820  10.111  10.354 -0.1186  0.2035  0.5214
  942MOL0     C27045   7.799  10.135  10.200  0.1208 -0.8100 -0.1622
  942MOL0     C27046   7.932  10.193  10.145 -0.0249  0.3334  0.5203
  942MOL0     C27047   7.905  10.231  10.001 -0.6168  0.0123 -0.4809
  942MOL0     C27048   8.032  10.297   9.949 -0.2997 -0.3311 -0.4096
  942MOL0     C27049   8.002  10.347   9.807 -0.8067  0.2914 -0.6860
  942MOL0     C27050   8.138  10.372   9.731 -0.4254  0.4966 -0.3698
  942MOL0     C27051   8.121  10.476   9.617  0.4970  0.7564 -0.8933
  942MOL0     N27052   8.246  10.548   9.576 -0.1474 -0.0217  0.1905
  942MOL0     C27053   8.372  10.509   9.588  0.2211 -0.7388 -0.6876
  942MOL0     C27054   8.449  10.610   9.547 -0.9429 -0.5678 -0.3758
  942MOL0     C27055   8.592  10.605   9.533  0.1666 -0.0669  0.2092
  942MOL0     C27056   8.622  10.570   9.388  0.0315 -0.4052  0.0239
  942MOL0     C27057   8.658  10.699   9.305 -0.1336  0.3516  0.0598
  942MOL0     C27058   8.676  10.677   9.151 -0.0481 -0.7577 -0.0848
  942MOL0     O27059   8.786  10.591   9.122  0.1787 -0.9611  0.0930
  942MOL0     C27060   8.901  10.658   9.095  0.3386 -0.5018 -0.3673
  942MOL0     C27061   8.944  10.686   8.964 -0.1618  0.6709 -0.1921
  942MOL0     C27062   9.069  10.754   8.952  0.6479 -0.4915  0.0307
  942MOL0     C27063   9.161  10.771   9.068  0.4231 -0.5876 -0.2078
  942MOL0     C27064   9.289  10.840   9.040  0.3614  0.4160  0.6547
  942MOL0     O27065   9.329  10.870   8.903 -0.6101  0.5726  0.0717
  942MOL0     C27066   9.454  10.924   8.894 -0.9588 -0.2662  0.3335
  942MOL0     C27067   9.569  10.850   8.912 -0.1881  0.1666 -0.1547
  942MOL0     C27068   9.702  10.905   8.903 -0.6289 -0.7307 -0.0496
  942MOL0     C27069   9.712  11.040   8.870  0.1876 -0.8139  0.1600
  942MOL0     O27070   9.841  11.088   8.864  0.2068 -1.1907 -0.3181
  942MOL0     C27071   9.876  11.216   8.920 -0.1690 -0.5062  0.5382
  942MOL0     C27072  10.029  11.216   8.932  0.1750 -0.5707 -0.2966
  942MOL0     C27073  10.106  11.182   8.801 -0.3353  0.9974  0.1605
  942MOL0     C27074  10.259  11.167   8.837  0.4221 -0.3752 -0.2168
  942MOL0     C27075  10.348  11.125   8.711  0.1632  1.4610 -0.0156
  942MOL0     C27076  10.468  11.201   8.669  0.6775 -0.2632 -0.2023
  942MOL0     C27077  10.577  11.216   8.774  0.1889  0.2485 -0.6874
  942MOL0     C27078  10.640  11.074   8.820  0.1864 -0.1409 -0.9815
  942MOL0    Cl27079  10.707  11.004   8.670 -0.5949 -0.0339 -0.1804
  942MOL0     C27080   9.597  11.112   8.842  0.9973  0.5515  0.1479
  942MOL0     C27081   9.467  11.062   8.847 -0.2131 -0.6306  0.4367
  942MOL0     O27082   9.342  10.882   9.141 -0.4464 -0.2374  1.0657
  942MOL0     C27083   9.118  10.725   9.190  0.0303 -0.3342 -0.1444
  942MOL0     C27084   8.983  10.678   9.207 -0.3564  0.5029 -1.1043
  942MOL0     N27085   8.365  10.719   9.513 -0.2407 -1.1382 -0.5912
  942MOL0     N27086   8.245  10.678   9.531 -0.6628 -0.5861 -0.5705
  942MOL0     C27087   7.634  10.279  10.615  0.3705 -1.1658 -0.2758
  942MOL0     C27088   7.589  10.250  10.741 -0.5157  0.3477 -0.0803
  942MOL0     C27089   7.523  10.140  11.171 -0.6698 -0.7357  0.1323
  942MOL0     C27090   7.548  10.199  11.297  0.1362 -0.3768 -1.0403
  942MOL0     C27091   7.494  10.148  11.418  0.1602 -0.1940  0.6367
  942MOL0     C27092   7.414  10.030  11.414 -0.0212 -0.0730  0.6957
  942MOL0     O27093   7.366   9.950  11.515 -0.4470  0.7772 -0.0943
  942MOL0     C27094   7.288  10.012  11.623  0.4192  0.1446 -0.0255
  942MOL0     C27095   7.137   9.988  11.596 -1.4077  0.3184  0.3492
  942MOL0     C27096   7.058   9.966  11.718 -0.0495  0.0791  0.1241
  942MOL0     C27097   7.046  10.097  11.800  0.8067  0.7976  0.5526
  942MOL0     C27098   6.951  10.070  11.908 -0.0795 -0.4007  0.1333
  942MOL0     C27099   6.900  10.040  12.016 -0.1181  0.1575 -0.2620
  942MOL0     C27100   7.378   9.986  11.286 -0.0708 -0.0736  0.6611
  942MOL0     C27101   7.430  10.040  11.167  1.1560 -0.4083 -0.1904
  942MOL0     C27102   7.371   9.975  11.044  0.8606 -0.1890  0.2507
  942MOL0     H27103   7.790   9.996  10.827 -0.1266  1.5945  1.3304
  942MOL0     H27104   7.887  10.038  10.598 -0.5804 -0.9112 -0.5686
  942MOL0     H27105   7.923  10.078  10.370 -0.2138 -0.9433 -1.0348
  942MOL0     H27106   7.764  10.018  10.364 -0.5728 -0.2486 -4.0245
  942MOL0     H27107   7.714  10.203  10.193 -0.4104 -1.1374  2.0966
  942MOL0     H27108   7.775  10.042  10.148  0.0041 -0.7993 -0.1277
  942MOL0     H27109   8.015  10.122  10.151  0.0762  0.2549 -1.2226
  942MOL0     H27110   7.962  10.282  10.200  0.6747  0.6640 -0.3704
  942MOL0     H27111   7.886  10.149   9.931  1.2123  1.2848 -2.6203
  942MOL0     H27112   7.817  10.296   9.993 -1.8190 -1.6494 -1.4660
  942MOL0     H27113   8.080  10.374  10.009  2.5858 -0.2427 -2.6023
  942MOL0     H27114   8.113  10.224   9.945  0.9488  0.8345  1.8750
  942MOL0     H27115   7.937  10.277   9.754 -1.6705  0.3805  0.2187
  942MOL0     H27116   7.941  10.438   9.798 -0.5509  0.4261 -1.0781
  942MOL0     H27117   8.180  10.282   9.684  1.7399  1.3664 -0.2106
  942MOL0     H27118   8.216  10.402   9.801 -1.1703  2.2188 -0.2372
  942MOL0     H27119   8.067  10.416   9.543 -0.7459 -3.9593  3.3417
  942MOL0     H27120   8.052  10.552   9.652  0.0919 -0.9336  2.2806
  942MOL0     H27121   8.395  10.405   9.612 -1.3394 -1.1251 -0.7165
  942MOL0     H27122   8.617  10.705   9.569 -1.8323 -0.1016  1.8833
  942MOL0     H27123   8.635  10.526   9.595 -1.1516 -1.0402 -0.0790
  942MOL0     H27124   8.706  10.502   9.370 -0.4953 -0.3441 -3.4857
  942MOL0     H27125   8.543  10.508   9.343  0.1606 -2.2606  2.1821
  942MOL0     H27126   8.739  10.753   9.354 -0.5214  1.1559 -0.1526
  942MOL0     H27127   8.572  10.768   9.309  1.2117  2.1209 -0.3130
  942MOL0     H27128   8.674  10.777   9.106 -1.8122 -0.8095 -0.1905
  942MOL0     H27129   8.595  10.623   9.102  0.3615 -0.5040 -1.0868
  942MOL0     H27130   8.889  10.671   8.871  1.5707  1.6949 -1.4374
  942MOL0     H27131   9.097  10.781   8.850 -3.0536  0.7550 -0.7953
  942MOL0     H27132   9.552  10.745   8.933  0.1515 -0.2316 -1.7080
  942MOL0     H27133   9.791  10.854   8.939 -0.1242  0.4303  0.3609
  942MOL0     H27134   9.842  11.296   8.854 -0.2762  0.9322  2.2547
  942MOL0     H27135   9.834  11.224   9.021  0.9988 -1.9042  1.1767
  942MOL0     H27136  10.050  11.317   8.968 -0.1257 -1.0410  1.3023
  942MOL0     H27137  10.053  11.142   9.008  0.2978  0.1319  0.3586
  942MOL0     H27138  10.064  11.096   8.749  1.3271  2.1490 -3.3807
  942MOL0     H27139  10.085  11.258   8.725 -0.3518  0.6589 -0.1763
  942MOL0     H27140  10.271  11.090   8.915 -0.7953  1.4682  1.9225
  942MOL0     H27141  10.294  11.255   8.891 -0.4393  1.2042 -2.1175
  942MOL0     H27142  10.283  11.126   8.623 -0.2817  1.3559  0.3110
  942MOL0     H27143  10.380  11.022   8.725 -3.5458  0.3193  1.1601
  942MOL0     H27144  10.500  11.160   8.572 -1.0718  2.2961 -2.0123
  942MOL0     H27145  10.433  11.300   8.640 -2.2379 -0.9524  0.7203
  942MOL0     H27146  10.540  11.268   8.864  0.8723 -0.6822  0.1537
  942MOL0     H27147  10.654  11.273   8.721  1.7649 -1.3587 -0.1894
  942MOL0     H27148  10.721  11.085   8.893  0.3843 -1.0048 -1.0577
  942MOL0     H27149  10.562  11.012   8.865  1.1325 -2.1670 -1.9929
  942MOL0     H27150   9.599  11.212   8.800 -4.5397  0.3319 -1.4055
  942MOL0     H27151   9.380  11.123   8.824  1.2868  0.9730 -1.2123
  942MOL0     H27152   9.184  10.754   9.271  1.5570 -0.5124 -1.2839
  942MOL0     H27153   8.943  10.644   9.302  0.3475  1.2476 -0.5284
  942MOL0     H27154   7.588  10.355  10.552  0.5106  0.2233  1.2421
  942MOL0     H27155   7.512  10.317  10.777 -1.4415 -1.4219  1.3944
  942MOL0     H27156   7.631  10.262  11.327 -1.0432 -0.1601  2.1933
  942MOL0     H27157   7.525  10.177  11.518 -0.8930 -1.2720  1.3103
  942MOL0     H27158   7.311  10.118  11.636  0.0568  0.2565 -0.2797
  942MOL0     H27159   7.320   9.966  11.716 -0.4039  2.7171  1.6278
  942MOL0     H27160   7.138   9.897  11.534  0.4839  1.4837 -1.4640
  942MOL0     H27161   7.106  10.072  11.533  1.8941  0.7088 -0.9702
  942MOL0     H27162   7.114   9.895  11.780 -0.0017  0.5055  0.5800
  942MOL0     H27163   6.968   9.927  11.671  0.2015  2.7173 -2.9202
  942MOL0     H27164   7.144  10.138  11.826  0.6275  1.6429 -0.0430
  942MOL0     H27165   6.998  10.178  11.744 -0.9711 -0.5276  0.0652
  942MOL0     H27166   6.853   9.995  12.101  0.2090 -1.5704 -0.9567
  942MOL0     H27167   7.317   9.897  11.276 -0.4727  0.2458  0.2686
  942MOL0     H27168   7.429   9.893  11.002 -0.2616 -1.3512  0.8902
  942MOL0     H27169   7.271   9.946  11.077  0.2454 -0.0618 -1.4485
  942MOL0     H27170   7.352  10.038  10.957 -0.1032  0.1415  0.6811
  943MOL0     O27171  10.097   1.216   5.518  0.3238 -0.2509 -0.0263
  943MOL0     C27172  10.090   1.230   5.640 -0.0508  0.2799  0.3938
  943MOL0     O27173  10.193   1.242   5.726 -0.2142 -0.9777  0.2412
  943MOL0     C27174  10.313   1.239   5.661  0.2877  0.1913 -0.0959
  943MOL0     C27175  10.362   1.343   5.585 -0.5314  0.0572 -0.5245
  943MOL0     C27176  10.484   1.338   5.533 -0.9688 -0.9877 -0.1814
  943MOL0     C27177  10.567   1.224   5.547 -0.1105 -0.1603  0.4226
  943MOL0     O27178  10.697   1.240   5.499  0.1865  0.2614 -0.6771
  943MOL0     C27179  10.769   1.119   5.479 -0.0471  0.0226  0.6776
  943MOL0     C27180  10.916   1.140   5.429  0.4793 -0.7266 -0.1866
  943MOL0     C27181  10.999   1.220   5.514  0.5843 -0.2324 -0.2211
  943MOL0     C27182  11.150   1.223   5.473  0.5256  0.1234 -0.4362
  943MOL0     C27183  11.230   1.329   5.557  0.1662  0.2772  0.3097
  943MOL0     C27184  11.370   1.311   5.503  0.1830 -0.9348 -1.0808
  943MOL0     C27185  11.427   1.169   5.515 -0.7350 -0.2129  1.0793
  943MOL0     C27186  11.584   1.170   5.493  0.7846 -0.5827 -1.0819
  943MOL0     N27187  11.634   1.032   5.488  0.0349  0.0387 -0.1133
  943MOL0     C27188  11.622   0.949   5.377  0.6314 -0.3654 -0.6699
  943MOL0     C27189  11.695   0.838   5.403  0.5208  0.1490 -0.3316
  943MOL0     C27190  11.731   0.721   5.326 -0.1227 -0.5560  0.2200
  943MOL0     C27191  11.873   0.747   5.259  0.3077  0.1248  0.5368
  943MOL0     C27192  11.920   0.632   5.179 -0.0890 -0.0248  0.5323
  943MOL0     C27193  12.044   0.671   5.104  0.6713 -0.2840 -0.1428
  943MOL0     O27194  12.159   0.681   5.181  0.3952  0.0432  0.1387
  943MOL0     C27195  12.230   0.572   5.221 -0.0439 -0.3550 -0.0271
  943MOL0     C27196  12.351   0.552   5.147  0.0913  0.3227  0.0893
  943MOL0     C27197  12.444   0.447   5.173 -0.6224 -0.6206  0.1670
  943MOL0     C27198  12.420   0.359   5.281  0.8928  0.0323  0.5239
  943MOL0     C27199  12.509   0.251   5.317 -0.5239 -0.0210 -0.2346
  943MOL0     O27200  12.632   0.265   5.268  0.5434 -0.0741 -0.1269
  943MOL0     C27201  12.719   0.154   5.291  0.4547  0.0555 -0.5688
  943MOL0     C27202  12.748   0.063   5.192 -0.9899 -0.4263  0.0167
  943MOL0     C27203  12.822  -0.050   5.217 -0.2263  0.4948 -0.4148
  943MOL0     C27204  12.873  -0.088   5.340 -0.2528 -0.3255 -0.7037
  943MOL0     O27205  12.940  -0.210   5.336 -0.1932 -0.0616 -0.2435
  943MOL0     C27206  13.016  -0.236   5.456 -1.4198  0.0863 -0.8199
  943MOL0     C27207  13.053  -0.385   5.444  0.7461  0.6595  0.5681
  943MOL0     C27208  13.150  -0.409   5.338 -0.3798 -0.2741 -0.3835
  943MOL0     C27209  13.282  -0.338   5.366 -0.6799  1.0356 -0.2673
  943MOL0     C27210  13.350  -0.379   5.492  0.3086  0.2999 -0.4114
  943MOL0     C27211  13.497  -0.338   5.500 -0.0884  0.3291  0.3562
  943MOL0     C27212  13.595  -0.451   5.499 -0.0547 -0.2911  0.0752
  943MOL0     C27213  13.613  -0.542   5.374 -0.2025  0.2880  0.8895
  943MOL0    Cl27214  13.644  -0.446   5.234  0.2541  0.3790  0.1313
  943MOL0     C27215  12.845   0.012   5.448 -0.7975  0.4092 -0.0365
  943MOL0     C27216  12.772   0.131   5.427  0.0065  0.1074  0.0706
  943MOL0     O27217  12.473   0.148   5.375 -0.0766 -0.3206  0.6682
  943MOL0     C27218  12.291   0.379   5.346  0.7419  0.0135 -0.3288
  943MOL0     C27219  12.201   0.480   5.316 -0.2101 -0.2736 -0.2994
  943MOL0     N27220  11.752   0.845   5.521 -0.2667  0.1142  0.4909
  943MOL0     N27221  11.714   0.962   5.575  0.3070 -0.4560 -0.1424
  943MOL0     C27222  10.518   1.118   5.625 -0.3345  0.2817  0.1550
  943MOL0     C27223  10.393   1.126   5.675 -0.0219  0.2127 -0.1495
  943MOL0     C27224   9.961   1.243   5.712  0.0908  0.1935 -0.4464
  943MOL0     C27225   9.957   1.249   5.856  0.3490  0.4194  0.6754
  943MOL0     C27226   9.842   1.258   5.929  0.9950  0.7366  0.2154
  943MOL0     C27227   9.714   1.255   5.867 -0.8001 -0.7311 -0.3056
  943MOL0     O27228   9.599   1.273   5.946 -0.6796  0.1425 -0.0609
  943MOL0     C27229   9.598   1.272   6.090  0.3191 -0.1610 -0.1198
  943MOL0     C27230   9.620   1.127   6.148 -0.4738 -0.3726  0.8544
  943MOL0     C27231   9.566   1.108   6.288  0.9928  0.1362  0.3351
  943MOL0     C27232   9.561   0.962   6.327 -0.2677  0.2165  0.3004
  943MOL0     C27233   9.454   0.881   6.253  0.7740 -0.7314  0.7956
  943MOL0     C27234   9.365   0.818   6.193  0.0285 -0.6909 -0.0077
  943MOL0     C27235   9.710   1.242   5.732  0.0084 -0.9670 -0.0607
  943MOL0     C27236   9.826   1.240   5.652 -0.4368 -0.0385  0.4384
  943MOL0     C27237   9.812   1.225   5.510  0.8738 -0.3786  0.4661
  943MOL0     H27238  10.303   1.433   5.573 -0.5083  0.3198  1.1116
  943MOL0     H27239  10.516   1.426   5.479 -2.4390  0.1193  0.6549
  943MOL0     H27240  10.764   1.063   5.573  1.6250 -1.4865 -0.0808
  943MOL0     H27241  10.717   1.053   5.409 -0.8191 -0.5715  1.7785
  943MOL0     H27242  10.919   1.184   5.329  0.6381 -0.4722 -0.0700
  943MOL0     H27243  10.956   1.038   5.421 -2.2811 -1.9357  0.0820
  943MOL0     H27244  10.998   1.175   5.614  0.3042  0.2073 -0.0217
  943MOL0     H27245  10.962   1.323   5.525 -0.2097 -0.5762  0.3890
  943MOL0     H27246  11.174   1.117   5.481 -2.5452 -0.6701 -0.5003
  943MOL0     H27247  11.167   1.247   5.368  1.5062  0.5795 -0.1837
  943MOL0     H27248  11.190   1.428   5.532 -2.6349 -0.4305  1.5786
  943MOL0     H27249  11.213   1.322   5.665 -0.6943  0.2106  0.1809
  943MOL0     H27250  11.374   1.340   5.397  0.0673 -0.8688 -1.0659
  943MOL0     H27251  11.431   1.386   5.554 -2.0134  0.3004 -0.1747
  943MOL0     H27252  11.378   1.107   5.439  0.2670  1.3983 -0.9599
  943MOL0     H27253  11.414   1.131   5.617 -1.5630 -2.8689  0.0922
  943MOL0     H27254  11.611   1.213   5.396  4.1463 -2.1851 -1.0032
  943MOL0     H27255  11.628   1.230   5.573  2.3894 -1.7208 -1.0664
  943MOL0     H27256  11.554   0.936   5.294  1.4786 -2.9662 -1.0595
  943MOL0     H27257  11.742   0.638   5.395  0.0062  0.3840  1.3504
  943MOL0     H27258  11.648   0.697   5.259 -0.1789 -1.8276  0.7208
  943MOL0     H27259  11.869   0.837   5.197  1.0765  2.6359  3.8881
  943MOL0     H27260  11.953   0.767   5.331 -0.4584  0.2118  1.3829
  943MOL0     H27261  11.856   0.605   5.094  1.7083  0.5646 -1.0876
  943MOL0     H27262  11.939   0.548   5.246 -0.9120 -0.2157  0.5386
  943MOL0     H27263  12.028   0.762   5.046  1.4116 -0.6151 -0.8881
  943MOL0     H27264  12.057   0.610   5.014  0.6473  1.7284 -1.5717
  943MOL0     H27265  12.372   0.612   5.059  0.0700  1.0111  0.5526
  943MOL0     H27266  12.534   0.441   5.114 -1.2336 -1.1019 -0.7345
  943MOL0     H27267  12.706   0.078   5.093  3.1784 -1.1423 -2.0858
  943MOL0     H27268  12.847  -0.116   5.135 -2.8943 -0.0740 -0.8742
  943MOL0     H27269  13.108  -0.179   5.472 -2.1172  0.8586  0.7460
  943MOL0     H27270  12.947  -0.217   5.539 -1.6945  0.0150 -1.0306
  943MOL0     H27271  13.083  -0.423   5.542 -2.5887 -0.3196  1.3462
  943MOL0     H27272  12.960  -0.440   5.425  0.2340  0.9508  2.0632
  943MOL0     H27273  13.175  -0.513   5.316  1.8036  0.0896  0.1396
  943MOL0     H27274  13.116  -0.367   5.243  1.3575  1.7017 -0.2012
  943MOL0     H27275  13.263  -0.233   5.342  2.6307  1.0600 -3.6372
  943MOL0     H27276  13.350  -0.363   5.284 -0.3758  0.0013  0.2792
  943MOL0     H27277  13.349  -0.488   5.499  1.0770  0.1274 -2.3895
  943MOL0     H27278  13.285  -0.339   5.571 -1.0088  0.6442 -1.6333
  943MOL0     H27279  13.526  -0.279   5.412 -0.5290 -1.8490 -1.3358
  943MOL0     H27280  13.525  -0.278   5.587  2.8287  1.7043 -1.3669
  943MOL0     H27281  13.577  -0.525   5.577  2.4155 -1.2902 -0.2255
  943MOL0     H27282  13.686  -0.400   5.531 -0.3572 -0.1950  0.7939
  943MOL0     H27283  13.704  -0.599   5.396  0.9640 -0.0906 -3.7187
  943MOL0     H27284  13.520  -0.598   5.361 -1.6717  2.8485 -0.4871
  943MOL0     H27285  12.893  -0.005   5.545 -1.3594  0.4711  0.2545
  943MOL0     H27286  12.734   0.191   5.509  0.8629  2.1130 -0.9177
  943MOL0     H27287  12.247   0.306   5.412  1.9729  1.7239  2.5396
  943MOL0     H27288  12.108   0.487   5.372 -0.7784  0.1934 -1.2841
  943MOL0     H27289  10.582   1.034   5.653  0.1568  0.7656  0.4911
  943MOL0     H27290  10.353   1.040   5.728 -1.8574 -0.0820 -1.9306
  943MOL0     H27291  10.047   1.236   5.915 -1.2339 -0.9044  2.9315
  943MOL0     H27292   9.865   1.249   6.035  2.0342 -1.1342 -0.1257
  943MOL0     H27293   9.498   1.304   6.122  0.0108 -0.1900 -1.0282
  943MOL0     H27294   9.676   1.335   6.134  0.9541  0.3453 -1.8880
  943MOL0     H27295   9.722   1.094   6.130  0.4305  2.8107 -0.4715
  943MOL0     H27296   9.564   1.065   6.077  1.5683  2.0804 -3.2704
  943MOL0     H27297   9.469   1.157   6.293  0.4341 -1.0224  1.3349
  943MOL0     H27298   9.628   1.165   6.358  2.8866 -1.5124  0.0825
  943MOL0     H27299   9.661   0.918   6.325 -0.0168  0.4069  3.5000
  943MOL0     H27300   9.545   0.960   6.435 -2.0943  2.0056  0.1294
  943MOL0     H27301   9.270   0.793   6.151 -0.6425  1.1654  0.3105
  943MOL0     H27302   9.610   1.249   5.690 -0.1760  0.8379  0.5798
  943MOL0     H27303   9.896   1.268   5.454 -0.6210 -0.5029 -2.0219
  943MOL0     H27304   9.809   1.120   5.478 -0.6740 -1.2933  3.3279
  943MOL0     H27305   9.721   1.269   5.469  0.6841  1.0596  2.3085
  944MOL0     O27306   7.818  10.108   0.347  1.0818 -0.2689 -0.4199
  944MOL0     C27307   7.784  10.017   0.411  0.2979  0.7215 -0.2273
  944MOL0     O27308   7.850   9.891   0.410 -0.4060 -0.2163 -0.2183
  944MOL0     C27309   7.940   9.868   0.302  0.5560 -0.0621  0.1744
  944MOL0     C27310   8.030   9.959   0.240  0.1069  0.0296  0.5501
  944MOL0     C27311   8.128   9.916   0.149  0.3300 -0.0397 -0.2540
  944MOL0     C27312   8.130   9.789   0.103 -0.7660 -0.5588  1.0175
  944MOL0     O27313   8.211   9.741  -0.001  0.8647  0.0496  0.9781
  944MOL0     C27314   8.284   9.824  -0.091  0.2413  0.3231 -0.3820
  944MOL0     C27315   8.344   9.744  -0.214 -0.1170 -0.5142 -0.8438
  944MOL0     C27316   8.440   9.837  -0.287 -1.0926 -0.5136 -0.5537
  944MOL0     C27317   8.439   9.816  -0.432 -0.5414  0.5356  0.4446
  944MOL0     C27318   8.539   9.884  -0.518 -0.5510 -0.5005 -0.1468
  944MOL0     C27319   8.685   9.833  -0.486 -0.3339 -0.2006  0.9969
  944MOL0     C27320   8.805   9.905  -0.570  0.6262 -0.3733  0.3788
  944MOL0     C27321   8.782   9.875  -0.718  0.0012 -1.0454 -0.4647
  944MOL0     N27322   8.908   9.872  -0.801  0.3695 -0.0318 -0.3667
  944MOL0     C27323   8.955   9.763  -0.861  0.6874  0.3240  0.4121
  944MOL0     C27324   9.072   9.804  -0.911 -0.7641  0.6106  0.3183
  944MOL0     C27325   9.176   9.728  -0.989 -0.1260 -1.0126  0.0445
  944MOL0     C27326   9.317   9.770  -0.946  0.1957 -0.4872  0.1864
  944MOL0     C27327   9.428   9.698  -1.030  0.6743  0.5459 -0.3387
  944MOL0     C27328   9.561   9.723  -0.963  0.8957 -0.3082  0.2299
  944MOL0     O27329   9.670   9.698  -1.048 -0.9345  0.4408 -0.0303
  944MOL0     C27330   9.755   9.604  -0.991 -0.1336 -0.0376  0.6357
  944MOL0     C27331   9.862   9.646  -0.902  0.5521  0.6321 -0.1125
  944MOL0     C27332   9.933   9.549  -0.829  0.1988  0.2401  0.3974
  944MOL0     C27333   9.919   9.412  -0.860  0.6307 -0.4860 -0.1729
  944MOL0     C27334  10.007   9.309  -0.790 -0.2955  0.0706 -1.0486
  944MOL0     O27335  10.127   9.351  -0.729 -0.0637  0.1034  0.1945
  944MOL0     C27336  10.189   9.275  -0.631 -0.1786 -0.2155  0.2060
  944MOL0     C27337  10.324   9.274  -0.626  0.7566 -0.0816 -0.9737
  944MOL0     C27338  10.382   9.222  -0.511  0.6988  0.6604  0.5495
  944MOL0     C27339  10.326   9.161  -0.404  0.2512 -0.9839  0.2510
  944MOL0     O27340  10.393   9.139  -0.285 -0.5607  0.2329  0.0109
  944MOL0     C27341  10.536   9.147  -0.280  0.1063  0.1414  0.2280
  944MOL0     C27342  10.591   9.286  -0.250  0.0772 -0.0320  1.2165
  944MOL0     C27343  10.545   9.343  -0.110  0.1995 -0.0277 -0.2742
  944MOL0     C27344  10.578   9.488  -0.077 -0.0779  0.2992  0.2101
  944MOL0     C27345  10.735   9.518  -0.067 -0.2584  0.8180 -0.0127
  944MOL0     C27346  10.797   9.431   0.044  0.4648 -0.3330  1.5158
  944MOL0     C27347  10.947   9.461   0.052  0.3747 -0.3450  0.9044
  944MOL0     C27348  10.979   9.439   0.208  0.5386  0.7620  0.0605
  944MOL0    Cl27349  10.975   9.257   0.246  0.1856  0.1826 -0.1027
  944MOL0     C27350  10.180   9.155  -0.416 -0.1918  0.1667  0.0967
  944MOL0     C27351  10.119   9.217  -0.527  0.5319 -0.6740 -0.1289
  944MOL0     O27352   9.975   9.194  -0.794 -0.0755 -0.2839 -0.0172
  944MOL0     C27353   9.819   9.371  -0.947 -0.0499 -0.0445 -0.9282
  944MOL0     C27354   9.748   9.467  -1.019 -0.6769  0.1903  0.6044
  944MOL0     N27355   9.098   9.934  -0.872 -0.3697  0.6111  0.1615
  944MOL0     N27356   8.992   9.971  -0.810  0.4827  0.0406 -0.0406
  944MOL0     C27357   8.041   9.702   0.163  0.5217 -0.3248  0.7821
  944MOL0     C27358   7.950   9.740   0.255  0.0154 -0.4411 -0.5203
  944MOL0     C27359   7.683  10.043   0.520  0.6363 -0.1280  0.0755
  944MOL0     C27360   7.645   9.942   0.610 -0.1278  0.5825 -1.2088
  944MOL0     C27361   7.531   9.944   0.700 -1.0212  0.3433  0.0131
  944MOL0     C27362   7.475  10.066   0.713  0.1523 -0.3257 -0.0894
  944MOL0     O27363   7.379  10.090   0.815  0.0023  0.2018  1.2814
  944MOL0     C27364   7.307   9.992   0.881  0.4314  0.3067  0.6101
  944MOL0     C27365   7.373   9.935   1.002 -0.3686  0.4074  0.2578
  944MOL0     C27366   7.273   9.872   1.089  0.6610  0.4849  0.4962
  944MOL0     C27367   7.334   9.822   1.226 -0.5823 -0.6492 -0.5679
  944MOL0     C27368   7.236   9.736   1.304 -0.0550  0.1401  0.0686
  944MOL0     C27369   7.154   9.665   1.356  0.4235  0.2433 -0.1134
  944MOL0     C27370   7.504  10.172   0.638 -0.4823  0.0189 -0.4434
  944MOL0     C27371   7.608  10.166   0.541  0.0930  0.0114 -0.8703
  944MOL0     C27372   7.637  10.285   0.457 -0.0938 -0.8801  0.1571
  944MOL0     H27373   8.038  10.056   0.287 -4.0896  0.6997  0.2296
  944MOL0     H27374   8.209   9.978   0.113 -2.3146  2.0608 -3.1011
  944MOL0     H27375   8.209   9.887  -0.139 -2.5186 -2.1937  0.3174
  944MOL0     H27376   8.364   9.881  -0.044  0.8467  2.3645 -3.5919
  944MOL0     H27377   8.260   9.711  -0.276 -3.8165  2.5375  2.0411
  944MOL0     H27378   8.393   9.653  -0.179  0.0175 -0.3028 -0.4692
  944MOL0     H27379   8.539   9.825  -0.242 -1.2483  0.5625  0.1141
  944MOL0     H27380   8.408   9.940  -0.268 -0.0706 -0.4435  0.9356
  944MOL0     H27381   8.445   9.707  -0.436 -1.9046  0.4075  1.1992
  944MOL0     H27382   8.337   9.829  -0.470  0.1980  3.9078 -0.6383
  944MOL0     H27383   8.505   9.878  -0.622 -1.8337  0.4659  0.1977
  944MOL0     H27384   8.533   9.993  -0.506  0.8104 -0.6021  1.8467
  944MOL0     H27385   8.704   9.846  -0.379 -0.1285  1.3616  0.7962
  944MOL0     H27386   8.680   9.727  -0.514 -1.7895  0.4339 -1.4366
  944MOL0     H27387   8.899   9.860  -0.536 -0.6180 -1.6558  2.3054
  944MOL0     H27388   8.818  10.013  -0.554  0.0350 -0.3939  1.0790
  944MOL0     H27389   8.740   9.774  -0.714  0.8583 -1.4692 -1.6285
  944MOL0     H27390   8.704   9.944  -0.752  1.5669  1.2071  0.2758
  944MOL0     H27391   8.902   9.668  -0.866  0.3645  0.5695 -2.6583
  944MOL0     H27392   9.165   9.622  -0.964  0.9324 -0.7821  1.6638
  944MOL0     H27393   9.170   9.756  -1.094  2.4428 -1.0173 -0.1538
  944MOL0     H27394   9.336   9.878  -0.952 -2.7750  0.2375  1.7857
  944MOL0     H27395   9.329   9.742  -0.840 -1.1052  1.5061  0.9152
  944MOL0     H27396   9.424   9.730  -1.134  1.3440  1.9172  0.0325
  944MOL0     H27397   9.406   9.591  -1.031  0.8778  0.4574  1.3025
  944MOL0     H27398   9.571   9.676  -0.865 -0.8754 -0.4479  0.3791
  944MOL0     H27399   9.567   9.831  -0.944 -0.5509  0.1035 -1.3481
  944MOL0     H27400   9.884   9.751  -0.887  0.9705  0.3942  1.0885
  944MOL0     H27401  10.010   9.578  -0.757 -0.7498 -1.4169  2.1883
  944MOL0     H27402  10.386   9.319  -0.702 -0.9538  1.4302 -1.5276
  944MOL0     H27403  10.489   9.234  -0.499  1.2943 -4.6257  4.6098
  944MOL0     H27404  10.567   9.077  -0.202  0.3401 -1.1740 -1.0128
  944MOL0     H27405  10.576   9.109  -0.374 -0.3509 -1.0065  0.4774
  944MOL0     H27406  10.700   9.285  -0.254  0.0480  0.2439 -0.8575
  944MOL0     H27407  10.556   9.347  -0.334 -0.5029  0.3171  1.7066
  944MOL0     H27408  10.436   9.349  -0.114  0.1099  0.1064 -5.7557
  944MOL0     H27409  10.576   9.282  -0.025 -0.1316 -0.3242 -0.3629
  944MOL0     H27410  10.518   9.524   0.008 -0.7584 -0.0323 -0.1294
  944MOL0     H27411  10.528   9.534  -0.162 -1.5522 -0.9081  0.3809
  944MOL0     H27412  10.751   9.626  -0.057 -1.3764  0.8064  2.7424
  944MOL0     H27413  10.775   9.487  -0.164  0.1580  0.6874  0.1985
  944MOL0     H27414  10.739   9.466   0.130 -1.3632  2.2153 -0.6066
  944MOL0     H27415  10.779   9.323   0.035  0.0392 -0.1202 -1.0327
  944MOL0     H27416  10.966   9.567   0.032 -0.9428 -0.3056 -0.3650
  944MOL0     H27417  10.994   9.395  -0.021 -2.0905  0.7372 -1.8559
  944MOL0     H27418  11.077   9.483   0.232  0.6903  0.9798 -0.9081
  944MOL0     H27419  10.911   9.487   0.278 -0.0996 -0.8017  0.5464
  944MOL0     H27420  10.112   9.127  -0.336 -0.5736  0.2494 -0.1948
  944MOL0     H27421  10.011   9.222  -0.528  0.5136  0.3104 -3.2287
  944MOL0     H27422   9.807   9.266  -0.972 -0.9187 -0.7927  2.2696
  944MOL0     H27423   9.672   9.430  -1.086 -1.2159  3.0920 -0.5176
  944MOL0     H27424   8.058   9.597   0.141 -0.4159 -0.7559  2.0106
  944MOL0     H27425   7.880   9.674   0.305  0.0944 -0.1390 -0.0081
  944MOL0     H27426   7.703   9.850   0.602 -1.5043 -0.3750 -0.5992
  944MOL0     H27427   7.508   9.859   0.763  2.8466 -3.6583 -3.3149
  944MOL0     H27428   7.269   9.918   0.810 -0.1723  0.5337  0.6908
  944MOL0     H27429   7.233  10.063   0.919  0.7481  0.3508  1.1574
  944MOL0     H27430   7.419  10.016   1.059 -0.9944  1.3917 -0.6005
  944MOL0     H27431   7.457   9.869   0.978  1.1579  2.3378  0.0019
  944MOL0     H27432   7.221   9.791   1.036 -0.3754  0.9930  0.6984
  944MOL0     H27433   7.189   9.940   1.110  0.8599  0.8590  0.0791
  944MOL0     H27434   7.424   9.761   1.215 -1.5200 -2.1295 -0.3014
  944MOL0     H27435   7.356   9.904   1.295 -0.3326 -1.0822 -0.1243
  944MOL0     H27436   7.076   9.597   1.385  0.0314 -0.1528 -1.9730
  944MOL0     H27437   7.453  10.266   0.656 -1.3267 -0.5688  0.3071
  944MOL0     H27438   7.631  10.257   0.351  0.3369 -0.2950 -0.0266
  944MOL0     H27439   7.579  10.374   0.484  3.2396  1.8893 -0.9668
  944MOL0     H27440   7.739  10.316   0.483  1.3460 -2.4723 -2.9735
  945MOL0     O27441   9.971   8.639   0.535  0.5741  0.1645 -0.1792
  945MOL0     C27442   9.864   8.602   0.485 -0.7148  0.1776  0.3718
  945MOL0     O27443   9.855   8.498   0.407  0.7626 -0.0742  0.2900
  945MOL0     C27444   9.958   8.410   0.393  0.6827 -0.1392  0.8130
  945MOL0     C27445   9.986   8.313   0.483  0.3990 -0.2868  0.0419
  945MOL0     C27446  10.083   8.215   0.451 -0.1320  0.3459  0.7338
  945MOL0     C27447  10.153   8.201   0.327 -0.0806 -0.4355 -0.0947
  945MOL0     O27448  10.243   8.103   0.291  0.2487  0.0464  0.2427
  945MOL0     C27449  10.374   8.150   0.242  0.1923 -0.6701 -0.4395
  945MOL0     C27450  10.446   8.020   0.208 -0.0964 -1.4309 -0.0331
  945MOL0     C27451  10.595   8.046   0.173  0.6813 -0.3136  0.1814
  945MOL0     C27452  10.628   7.954   0.062  1.4961 -0.4255  0.1394
  945MOL0     C27453  10.773   7.960   0.035 -0.9858  0.1914  0.2198
  945MOL0     C27454  10.816   7.878  -0.098 -0.2318 -0.5447 -0.2184
  945MOL0     C27455  10.786   7.725  -0.106  0.4481  0.6106  0.2455
  945MOL0     C27456  10.800   7.661  -0.252  0.6549  0.2782 -1.1975
  945MOL0     N27457  10.944   7.635  -0.255 -0.3978  0.1894  0.6787
  945MOL0     C27458  11.001   7.509  -0.246 -0.4407  0.6132 -0.3323
  945MOL0     C27459  11.140   7.532  -0.257  0.1175  0.4260  0.0021
  945MOL0     C27460  11.256   7.432  -0.236  0.1514 -0.6277  0.2901
  945MOL0     C27461  11.381   7.501  -0.193  0.2067  0.0391 -0.4557
  945MOL0     C27462  11.493   7.414  -0.134 -0.0498 -1.1715  0.0840
  945MOL0     C27463  11.631   7.489  -0.130  0.4128  0.4655  0.3671
  945MOL0     O27464  11.724   7.396  -0.083 -0.1605 -0.2787  0.2617
  945MOL0     C27465  11.840   7.439  -0.017 -0.4925 -0.8499  0.2207
  945MOL0     C27466  11.895   7.347   0.071  0.2482 -0.9041 -0.5180
  945MOL0     C27467  11.994   7.386   0.161  0.0898 -0.8456 -0.0155
  945MOL0     C27468  12.039   7.517   0.159 -0.9561  0.2117 -0.0069
  945MOL0     C27469  12.149   7.554   0.252  0.5355  0.8406  0.3874
  945MOL0     O27470  12.159   7.686   0.290 -0.7778  1.0623  0.5661
  945MOL0     C27471  12.288   7.709   0.331  0.7849 -0.5596  1.0245
  945MOL0     C27472  12.402   7.710   0.248  0.1799  0.5938 -0.4018
  945MOL0     C27473  12.529   7.732   0.295 -0.3154 -0.2521  0.2550
  945MOL0     C27474  12.549   7.764   0.428  0.0684  0.7500 -0.4793
  945MOL0     O27475  12.663   7.792   0.492 -0.9371 -0.0942 -0.0957
  945MOL0     C27476  12.785   7.797   0.423  0.5394  0.0109 -0.2999
  945MOL0     C27477  12.905   7.837   0.515  0.8746  0.2694  0.1792
  945MOL0     C27478  13.016   7.892   0.431 -0.7632 -0.3529 -0.1265
  945MOL0     C27479  13.142   7.898   0.525  0.0204 -0.3704  0.9186
  945MOL0     C27480  13.286   7.953   0.466  0.2185 -0.1810 -0.1828
  945MOL0     C27481  13.372   7.993   0.583  0.5165 -0.7125  0.6332
  945MOL0     C27482  13.520   8.004   0.549  0.3722  0.0919  0.4584
  945MOL0     C27483  13.604   8.094   0.645 -0.0827  0.8957 -0.5217
  945MOL0    Cl27484  13.570   8.267   0.642  0.2424  0.3768  0.4053
  945MOL0     C27485  12.442   7.772   0.512  0.5156  0.8285  0.1425
  945MOL0     C27486  12.314   7.744   0.458  0.1602  0.1724 -0.1470
  945MOL0     O27487  12.234   7.470   0.283  0.4521 -0.6752 -0.5433
  945MOL0     C27488  11.988   7.614   0.071  0.2153 -0.1522 -0.0267
  945MOL0     C27489  11.881   7.575  -0.023 -0.2711  0.1868  0.3995
  945MOL0     N27490  11.156   7.661  -0.291 -0.7975 -0.2583 -0.6517
  945MOL0     N27491  11.042   7.719  -0.303  0.8034  0.5482 -1.1363
  945MOL0     C27492  10.114   8.293   0.231 -0.3736 -0.3908 -0.1271
  945MOL0     C27493  10.014   8.385   0.259 -0.1461  0.7188  0.4763
  945MOL0     C27494   9.731   8.678   0.502 -0.3110 -0.1312  0.3212
  945MOL0     C27495   9.624   8.647   0.417  0.2084 -0.0402 -0.5790
  945MOL0     C27496   9.503   8.715   0.422 -0.2746 -0.5850 -0.8159
  945MOL0     C27497   9.483   8.824   0.507 -0.0248 -0.2662 -0.2661
  945MOL0     O27498   9.375   8.908   0.490  0.4756  0.1851 -0.0516
  945MOL0     C27499   9.403   9.044   0.496 -0.1547 -0.0285 -0.3345
  945MOL0     C27500   9.279   9.121   0.470  0.0182 -0.6078  0.0607
  945MOL0     C27501   9.297   9.268   0.504  0.4396 -0.4369  0.6563
  945MOL0     C27502   9.178   9.347   0.433 -0.5093 -0.0095 -0.6346
  945MOL0     C27503   9.130   9.451   0.525  0.5014 -0.2379 -0.1154
  945MOL0     C27504   9.082   9.534   0.599 -0.0936 -0.0249 -0.2153
  945MOL0     C27505   9.588   8.843   0.600  0.3183  0.4977 -0.3887
  945MOL0     C27506   9.719   8.785   0.599 -0.4029 -0.4194 -0.0629
  945MOL0     C27507   9.827   8.843   0.685 -0.4849 -0.3219 -0.5916
  945MOL0     H27508   9.946   8.329   0.583 -0.5469  1.9988 -0.6266
  945MOL0     H27509  10.084   8.130   0.518  0.1317  1.4944  2.2336
  945MOL0     H27510  10.373   8.214   0.153  1.0525  1.1965  0.8079
  945MOL0     H27511  10.425   8.212   0.317 -1.0094  0.2360 -0.3390
  945MOL0     H27512  10.388   7.978   0.126  0.4776 -1.7154 -0.2987
  945MOL0     H27513  10.442   7.956   0.297  0.6137  0.7119  1.6480
  945MOL0     H27514  10.656   8.024   0.261  1.4524  0.4282 -0.1554
  945MOL0     H27515  10.615   8.147   0.137  2.2892 -1.0417 -1.1203
  945MOL0     H27516  10.601   7.852   0.091  1.5817 -0.9718 -1.5736
  945MOL0     H27517  10.568   7.989  -0.023  0.2202  0.4680  1.3561
  945MOL0     H27518  10.802   8.063   0.013 -1.7301  0.2080 -0.7169
  945MOL0     H27519  10.829   7.919   0.119  2.2132  1.4487 -1.1471
  945MOL0     H27520  10.780   7.926  -0.190  2.7684 -1.8011 -2.2124
  945MOL0     H27521  10.925   7.890  -0.107  0.1302 -0.5904  2.9803
  945MOL0     H27522  10.685   7.709  -0.066  0.5406 -0.9585 -0.0841
  945MOL0     H27523  10.847   7.666  -0.037 -0.5222  0.0008  0.5969
  945MOL0     H27524  10.748   7.565  -0.255 -0.4871  0.7542  1.0193
  945MOL0     H27525  10.762   7.734  -0.324 -0.0792  2.9520  1.6505
  945MOL0     H27526  10.954   7.416  -0.214 -3.0850  2.0913  0.3450
  945MOL0     H27527  11.227   7.367  -0.153 -0.5385 -0.9609 -0.2031
  945MOL0     H27528  11.282   7.380  -0.329 -0.8588 -0.5235 -0.0623
  945MOL0     H27529  11.418   7.542  -0.288  3.9210 -1.7233  0.0909
  945MOL0     H27530  11.361   7.583  -0.124  1.9255 -0.5372  0.7609
  945MOL0     H27531  11.516   7.322  -0.190 -1.4994 -2.6344  1.7635
  945MOL0     H27532  11.463   7.383  -0.033  0.2499 -3.0822 -0.3560
  945MOL0     H27533  11.619   7.579  -0.069  1.1907  1.4739 -0.9095
  945MOL0     H27534  11.664   7.520  -0.229  1.2026 -2.7400 -0.4934
  945MOL0     H27535  11.854   7.247   0.069 -1.6071 -0.3278  2.5193
  945MOL0     H27536  12.033   7.307   0.224  0.5984  1.0745  2.1998
  945MOL0     H27537  12.389   7.686   0.143 -0.0860  1.5670 -0.6024
  945MOL0     H27538  12.606   7.743   0.220  0.5704  1.7483  1.3791
  945MOL0     H27539  12.784   7.699   0.375 -3.4110 -0.9036  1.2373
  945MOL0     H27540  12.774   7.871   0.343 -2.7100  1.5901  1.3885
  945MOL0     H27541  12.883   7.903   0.599  0.6558 -2.2790  2.2692
  945MOL0     H27542  12.924   7.742   0.566 -1.7090 -0.4559 -0.0568
  945MOL0     H27543  13.040   7.825   0.348  1.4020  0.9205 -0.6293
  945MOL0     H27544  13.000   7.993   0.393  3.5145  0.7374  0.4235
  945MOL0     H27545  13.153   7.805   0.581  3.1730 -1.6988 -1.5223
  945MOL0     H27546  13.116   7.977   0.595  1.9035  2.2799 -1.1884
  945MOL0     H27547  13.258   8.039   0.406 -0.3347  0.0530  0.3895
  945MOL0     H27548  13.338   7.874   0.412  1.6836 -0.6405  1.7909
  945MOL0     H27549  13.339   8.091   0.619  2.7084 -1.1269  4.2482
  945MOL0     H27550  13.355   7.921   0.663 -1.8071 -0.1094  0.7524
  945MOL0     H27551  13.538   8.043   0.449  6.0475 -2.1561  0.2005
  945MOL0     H27552  13.558   7.902   0.562  1.2973  0.5026  1.1318
  945MOL0     H27553  13.590   8.069   0.750 -2.2940  2.8725 -0.2678
  945MOL0     H27554  13.709   8.073   0.622 -0.4746 -0.3359 -1.2572
  945MOL0     H27555  12.462   7.797   0.615  0.2738  1.8576 -0.0446
  945MOL0     H27556  12.225   7.756   0.518 -1.0257  3.1913 -2.2290
  945MOL0     H27557  12.026   7.715   0.075  1.6311 -0.7086  1.6239
  945MOL0     H27558  11.835   7.642  -0.094 -2.2158 -0.1678  1.2696
  945MOL0     H27559  10.148   8.298   0.128 -0.3239  0.4819 -0.0759
  945MOL0     H27560   9.985   8.455   0.181 -0.5440 -1.0730 -1.0535
  945MOL0     H27561   9.639   8.565   0.347 -1.4386  0.5813 -1.7019
  945MOL0     H27562   9.434   8.702   0.339 -0.2756 -0.6675 -0.8027
  945MOL0     H27563   9.469   9.071   0.413 -0.3765 -2.3673 -1.3597
  945MOL0     H27564   9.442   9.076   0.593 -2.2136  0.7193  0.3162
  945MOL0     H27565   9.199   9.081   0.534 -0.4681  0.5989  0.2261
  945MOL0     H27566   9.236   9.102   0.371 -0.8214  1.9389 -0.1362
  945MOL0     H27567   9.397   9.305   0.478 -0.1081  0.9879  0.4586
  945MOL0     H27568   9.304   9.288   0.612  3.0752 -2.1032  0.8842
  945MOL0     H27569   9.228   9.398   0.350  1.4079 -1.8039 -0.6571
  945MOL0     H27570   9.092   9.293   0.392 -1.7523  0.6045  1.0662
  945MOL0     H27571   9.032   9.606   0.660  1.3891 -0.1831  1.2769
  945MOL0     H27572   9.566   8.925   0.668 -0.2868 -1.0189  1.3336
  945MOL0     H27573   9.864   8.771   0.758 -0.5662  0.9851  0.7864
  945MOL0     H27574   9.911   8.878   0.623 -0.3279  3.0076  1.2830
  945MOL0     H27575   9.793   8.932   0.739  2.5324  0.3340  0.4686
  946MOL0     O27576   9.923   1.577   3.691  0.6384 -0.6061 -0.1889
  946MOL0     C27577   9.914   1.622   3.576 -0.3766 -0.4568  0.3534
  946MOL0     O27578   9.802   1.646   3.505 -0.0024  0.1635 -0.0817
  946MOL0     C27579   9.683   1.657   3.570 -1.2334 -0.1542 -0.2039
  946MOL0     C27580   9.633   1.562   3.649 -0.0880 -0.1390 -0.5114
  946MOL0     C27581   9.507   1.574   3.707 -0.1967 -0.2032  0.2906
  946MOL0     C27582   9.424   1.681   3.674 -0.5807 -0.5908 -0.9403
  946MOL0     O27583   9.288   1.668   3.711 -0.5704  0.3201 -0.4249
  946MOL0     C27584   9.206   1.790   3.712 -0.3963 -0.0763 -0.2611
  946MOL0     C27585   9.079   1.768   3.784 -0.7550  0.4358 -0.2130
  946MOL0     C27586   8.986   1.691   3.694  0.7834  0.3781  0.6228
  946MOL0     C27587   8.852   1.660   3.764 -0.5779  0.6140 -0.1508
  946MOL0     C27588   8.762   1.565   3.678 -0.1083  0.3191 -0.3655
  946MOL0     C27589   8.633   1.539   3.751 -0.2865  0.4794  0.5215
  946MOL0     C27590   8.536   1.453   3.671  0.5423  0.9913  0.4920
  946MOL0     C27591   8.399   1.438   3.743 -0.4314  1.3200 -0.3174
  946MOL0     N27592   8.398   1.336   3.850 -0.5095 -0.3741  0.1658
  946MOL0     C27593   8.405   1.362   3.986 -0.8796 -0.8672 -0.3052
  946MOL0     C27594   8.392   1.244   4.050  0.2609 -0.6096  0.2815
  946MOL0     C27595   8.407   1.232   4.200 -0.3302 -0.3517  0.2752
  946MOL0     C27596   8.470   1.093   4.230 -0.5191 -0.5365 -0.0900
  946MOL0     C27597   8.478   1.062   4.380 -0.4686 -1.0635 -0.2094
  946MOL0     C27598   8.587   1.138   4.460  0.1272  0.9057  0.0261
  946MOL0     O27599   8.718   1.097   4.402  0.5885 -0.3486 -0.3333
  946MOL0     C27600   8.821   1.183   4.407  0.7805 -0.2983  0.7893
  946MOL0     C27601   8.844   1.295   4.493 -0.8992  1.0503  1.0058
  946MOL0     C27602   8.966   1.357   4.483 -0.0843 -0.5792  0.3233
  946MOL0     C27603   9.071   1.326   4.392  0.0317  0.7974 -0.9134
  946MOL0     C27604   9.205   1.392   4.389 -0.2655  0.2222 -0.2456
  946MOL0     O27605   9.293   1.366   4.292 -0.3056 -1.0689  0.1192
  946MOL0     C27606   9.428   1.383   4.318  0.9256 -0.6680 -0.5080
  946MOL0     C27607   9.481   1.510   4.352  0.6053 -0.2239  0.2649
  946MOL0     C27608   9.615   1.530   4.346 -0.7014  0.4838 -0.2702
  946MOL0     C27609   9.704   1.422   4.305 -0.2299 -0.1960 -0.3186
  946MOL0     O27610   9.843   1.429   4.271  0.7576  0.6198 -0.0749
  946MOL0     C27611   9.920   1.539   4.321 -0.2045  0.5450  0.1997
  946MOL0     C27612  10.049   1.536   4.252  0.4942  0.0410 -1.0724
  946MOL0     C27613  10.027   1.581   4.112 -0.4436 -0.4607  0.7494
  946MOL0     C27614  10.160   1.653   4.056  0.1259 -0.6787  0.1869
  946MOL0     C27615  10.275   1.563   4.038 -0.4501 -0.2824 -0.6100
  946MOL0     C27616  10.425   1.619   4.012  1.1768  0.6140 -1.1174
  946MOL0     C27617  10.448   1.705   3.882  0.3825  0.0580 -0.0416
  946MOL0     C27618  10.442   1.623   3.759  0.1253  0.5748 -0.1354
  946MOL0    Cl27619  10.598   1.580   3.685 -0.3781 -0.4027 -0.2597
  946MOL0     C27620   9.645   1.301   4.270  0.2196 -0.3408  0.3750
  946MOL0     C27621   9.507   1.283   4.271  0.8702  0.0275  0.8332
  946MOL0     O27622   9.231   1.449   4.495  0.2774  1.2083 -0.3350
  946MOL0     C27623   9.040   1.220   4.301  0.6934 -0.4247 -0.9589
  946MOL0     C27624   8.918   1.149   4.314 -0.3906 -0.0874 -0.0118
  946MOL0     N27625   8.386   1.151   3.944 -0.3395 -0.3256  0.2291
  946MOL0     N27626   8.391   1.202   3.827 -0.6146  0.5155 -0.1958
  946MOL0     C27627   9.476   1.780   3.591  0.2596  0.6050 -0.3195
  946MOL0     C27628   9.605   1.766   3.545  0.0233 -0.3621 -0.2978
  946MOL0     C27629  10.045   1.645   3.503 -0.4821  0.5344  0.1232
  946MOL0     C27630  10.038   1.734   3.396 -0.4102 -0.2417  0.3334
  946MOL0     C27631  10.159   1.776   3.329 -0.6473  0.5431  0.1511
  946MOL0     C27632  10.278   1.717   3.368  0.0601  0.9921 -0.2051
  946MOL0     O27633  10.398   1.739   3.309  0.4771 -0.1402  0.1180
  946MOL0     C27634  10.421   1.821   3.190  0.0653 -0.2116  0.1783
  946MOL0     C27635  10.379   1.747   3.060 -0.7869  0.6074 -0.6271
  946MOL0     C27636  10.413   1.599   3.074 -1.0815  0.7355  1.0022
  946MOL0     C27637  10.384   1.534   2.936 -0.6871  1.2164 -0.2707
  946MOL0     C27638  10.464   1.408   2.918 -0.5041 -0.3018 -0.5332
  946MOL0     C27639  10.521   1.307   2.894  0.7201  0.7580  0.0129
  946MOL0     C27640  10.280   1.616   3.465 -0.4037  0.4540  0.3719
  946MOL0     C27641  10.168   1.567   3.522  0.7955 -0.0671 -1.0090
  946MOL0     C27642  10.172   1.455   3.628  0.0572  0.5473  0.6771
  946MOL0     H27643   9.690   1.472   3.671  1.5474  1.1579  0.7914
  946MOL0     H27644   9.485   1.492   3.774 -0.3512 -1.4113 -1.1806
  946MOL0     H27645   9.260   1.866   3.769 -2.1487  0.3840  0.8925
  946MOL0     H27646   9.184   1.833   3.614 -0.6434  0.3494 -0.0222
  946MOL0     H27647   9.037   1.865   3.808 -2.2099  0.0694 -1.1572
  946MOL0     H27648   9.090   1.701   3.870 -0.8748 -1.1018 -1.3483
  946MOL0     H27649   9.032   1.599   3.657 -0.9988 -0.4193  0.3031
  946MOL0     H27650   8.964   1.759   3.610  1.6537 -1.4274 -1.1633
  946MOL0     H27651   8.887   1.606   3.853 -0.9490  0.3515 -0.1648
  946MOL0     H27652   8.796   1.749   3.792 -0.3164  0.6342  0.3108
  946MOL0     H27653   8.732   1.611   3.584 -2.9847  1.9509  1.2193
  946MOL0     H27654   8.815   1.471   3.657  0.9330  1.6485 -4.9329
  946MOL0     H27655   8.658   1.479   3.838 -1.4584  0.2942  0.7480
  946MOL0     H27656   8.590   1.635   3.782 -0.8889 -0.1335  1.6318
  946MOL0     H27657   8.569   1.352   3.646 -1.3000 -0.3316  2.9525
  946MOL0     H27658   8.518   1.499   3.573 -1.1863  1.0392  0.8153
  946MOL0     H27659   8.381   1.540   3.777  2.3002  1.8814 -0.3323
  946MOL0     H27660   8.324   1.412   3.667  0.0615 -0.0143 -0.3669
  946MOL0     H27661   8.434   1.458   4.028 -1.3230 -1.3523  1.1756
  946MOL0     H27662   8.483   1.306   4.227 -1.0277  2.0405 -3.5611
  946MOL0     H27663   8.313   1.259   4.249 -0.7882  0.3907 -0.9714
  946MOL0     H27664   8.405   1.019   4.182  0.3763 -0.3537 -1.6470
  946MOL0     H27665   8.572   1.084   4.191  0.3822 -1.3304  2.2336
  946MOL0     H27666   8.496   0.955   4.393  0.6832 -0.6391  2.3651
  946MOL0     H27667   8.386   1.077   4.437  0.4308  1.5230  0.6934
  946MOL0     H27668   8.592   1.101   4.563  1.8451  2.1470  0.4360
  946MOL0     H27669   8.564   1.245   4.454  1.5518  1.2526  0.4656
  946MOL0     H27670   8.780   1.332   4.572  3.1311  4.2382  3.1852
  946MOL0     H27671   9.000   1.442   4.542  0.7266  0.6989 -1.8550
  946MOL0     H27672   9.414   1.593   4.369  1.5979  0.1693  2.6881
  946MOL0     H27673   9.670   1.609   4.396  5.1227 -0.8309 -3.6960
  946MOL0     H27674   9.866   1.632   4.300 -1.6274 -0.5423 -1.2293
  946MOL0     H27675   9.923   1.523   4.429 -5.7230 -0.1860  0.4992
  946MOL0     H27676  10.123   1.588   4.313 -1.0649 -0.3487  1.2594
  946MOL0     H27677  10.077   1.430   4.247 -1.8228 -0.6783  0.0501
  946MOL0     H27678   9.999   1.505   4.038  0.7418  1.4855 -1.8848
  946MOL0     H27679   9.950   1.659   4.112 -1.7336 -1.6908  2.2603
  946MOL0     H27680  10.190   1.730   4.128 -0.4530 -1.4312  1.2666
  946MOL0     H27681  10.124   1.691   3.960 -0.9987 -3.1712 -0.4470
  946MOL0     H27682  10.252   1.490   3.960  1.9757 -1.8370  0.0221
  946MOL0     H27683  10.274   1.516   4.137 -1.1028  3.8695  1.5766
  946MOL0     H27684  10.453   1.679   4.099  1.3455  2.1908 -2.2106
  946MOL0     H27685  10.486   1.529   4.006 -1.4631 -1.4350  0.4378
  946MOL0     H27686  10.547   1.749   3.893  0.3558  0.5290 -1.4549
  946MOL0     H27687  10.377   1.788   3.876 -0.0693 -0.3739 -0.9376
  946MOL0     H27688  10.407   1.521   3.775  1.8742  0.1604  1.6044
  946MOL0     H27689  10.384   1.671   3.680  1.1572  0.9140 -0.7180
  946MOL0     H27690   9.714   1.227   4.230 -0.3950  0.0843 -1.5675
  946MOL0     H27691   9.476   1.182   4.246 -0.8861  0.1626  2.2772
  946MOL0     H27692   9.110   1.194   4.222 -0.7708 -0.2676 -2.3521
  946MOL0     H27693   8.897   1.077   4.235  0.6681  0.2409 -0.6130
  946MOL0     H27694   9.414   1.866   3.566 -2.2244 -0.1695  2.5504
  946MOL0     H27695   9.653   1.845   3.488 -3.7318 -0.0684 -3.5147
  946MOL0     H27696   9.949   1.784   3.360 -0.9636 -0.9545  0.6731
  946MOL0     H27697  10.161   1.863   3.265 -1.1056  0.6009  0.2093
  946MOL0     H27698  10.528   1.846   3.191 -0.0822  0.4197  0.2521
  946MOL0     H27699  10.360   1.911   3.181 -0.8454 -0.8817 -0.4891
  946MOL0     H27700  10.428   1.793   2.973 -2.3464  0.0427 -1.8348
  946MOL0     H27701  10.272   1.761   3.047 -1.2414  0.8647  2.6747
  946MOL0     H27702  10.353   1.544   3.146 -0.4147 -0.7020  0.5029
  946MOL0     H27703  10.515   1.586   3.112 -1.2164 -2.8101  0.4342
  946MOL0     H27704  10.278   1.515   2.917 -0.1693  1.9604 -5.3027
  946MOL0     H27705  10.417   1.601   2.855 -0.3163 -0.9220 -1.9783
  946MOL0     H27706  10.549   1.206   2.874 -0.6253  0.2727  0.4699
  946MOL0     H27707  10.376   1.568   3.483  0.8950  2.8650  0.2877
  946MOL0     H27708  10.174   1.488   3.732 -0.7804  0.0232  0.8756
  946MOL0     H27709  10.078   1.400   3.615  1.2127 -1.4890  0.5540
  946MOL0     H27710  10.257   1.389   3.607 -0.1849  0.0348  1.2993
  947MOL0     O27711   4.116   2.581   1.062  0.1290  0.6506 -0.5875
  947MOL0     C27712   4.229   2.546   1.076 -0.3055 -0.2509 -0.2300
  947MOL0     O27713   4.272   2.412   1.098  0.3791 -0.4683  0.4802
  947MOL0     C27714   4.168   2.325   1.130 -0.6735  0.4355  1.0939
  947MOL0     C27715   4.134   2.300   1.267  0.3077 -0.2288 -0.2119
  947MOL0     C27716   4.036   2.206   1.299  0.3805  0.4224  0.0637
  947MOL0     C27717   3.959   2.137   1.204 -0.0094  0.6939  0.4657
  947MOL0     O27718   3.869   2.043   1.244 -0.1726  0.7177 -0.0756
  947MOL0     C27719   3.811   1.946   1.152  0.5496  0.4681 -0.3684
  947MOL0     C27720   3.730   1.831   1.218 -0.2111 -0.2974  0.2592
  947MOL0     C27721   3.596   1.878   1.273  0.6437 -0.7843  0.0684
  947MOL0     C27722   3.489   1.889   1.161  0.6074  0.2476 -0.0384
  947MOL0     C27723   3.341   1.894   1.206 -0.2206  0.1783 -0.5715
  947MOL0     C27724   3.304   1.761   1.273  0.4502 -0.2406 -0.3231
  947MOL0     C27725   3.165   1.786   1.319 -0.7889 -0.5779 -0.1805
  947MOL0     C27726   3.072   1.653   1.322  0.5379 -0.2766  0.2333
  947MOL0     N27727   3.013   1.641   1.454  0.0941  0.0296 -0.5446
  947MOL0     C27728   2.898   1.711   1.496  0.0896 -0.1244 -0.3652
  947MOL0     C27729   2.869   1.651   1.618  0.7947  0.0268 -0.0597
  947MOL0     C27730   2.745   1.687   1.705 -0.4373  0.1149 -0.2896
  947MOL0     C27731   2.746   1.814   1.784  0.0560  0.0167 -0.6333
  947MOL0     C27732   2.867   1.843   1.871 -0.7253  0.3348 -0.9283
  947MOL0     C27733   2.993   1.898   1.806 -0.1564  0.3768 -0.1627
  947MOL0     O27734   2.955   1.991   1.711  0.0581 -0.8298 -0.3097
  947MOL0     C27735   3.058   2.077   1.670 -0.2891 -0.1009  0.2634
  947MOL0     C27736   3.031   2.205   1.617  0.0247 -0.0384 -0.1896
  947MOL0     C27737   3.129   2.293   1.574 -0.3763  0.0185  0.2743
  947MOL0     C27738   3.263   2.260   1.572  0.7672  0.4181  0.6223
  947MOL0     C27739   3.361   2.352   1.508 -0.4617 -0.7661  0.1833
  947MOL0     O27740   3.494   2.299   1.491  0.7064 -0.3908 -0.7750
  947MOL0     C27741   3.592   2.385   1.458 -0.1570 -0.4253 -0.0274
  947MOL0     C27742   3.692   2.341   1.365  1.1439 -1.2279  0.5175
  947MOL0     C27743   3.792   2.427   1.329  0.2445 -0.7055 -0.5415
  947MOL0     C27744   3.820   2.548   1.405 -0.6141  0.4956  1.1268
  947MOL0     O27745   3.936   2.610   1.372  0.0904 -0.0746  0.7235
  947MOL0     C27746   3.979   2.730   1.434 -0.2560 -0.0450  0.8160
  947MOL0     C27747   4.125   2.762   1.396  0.0653  0.9151 -0.1553
  947MOL0     C27748   4.179   2.876   1.475 -1.1679  0.0004 -0.3292
  947MOL0     C27749   4.285   2.962   1.400  0.7976 -0.8662 -0.4307
  947MOL0     C27750   4.342   3.063   1.495  0.6921 -0.0190 -0.2761
  947MOL0     C27751   4.470   3.120   1.462  0.7846 -0.2479  0.3457
  947MOL0     C27752   4.508   3.238   1.565  0.5332 -1.2342 -0.4263
  947MOL0     C27753   4.663   3.257   1.564  0.1841  0.5904 -0.0555
  947MOL0    Cl27754   4.715   3.309   1.407 -0.4978 -0.0666 -0.3352
  947MOL0     C27755   3.726   2.584   1.505 -0.8452  0.2634  0.6557
  947MOL0     C27756   3.615   2.504   1.525  0.2474  0.5683 -0.3675
  947MOL0     O27757   3.320   2.467   1.491  0.0441 -0.0317 -0.6965
  947MOL0     C27758   3.300   2.130   1.615 -0.4183 -0.9780 -0.4764
  947MOL0     C27759   3.197   2.041   1.660 -0.0382  0.4316 -0.4233
  947MOL0     N27760   2.957   1.554   1.646 -0.0889  1.0084  0.0967
  947MOL0     N27761   3.045   1.549   1.549  0.6315 -0.2158 -1.0631
  947MOL0     C27762   3.996   2.151   1.073 -0.0022  0.3625 -0.0775
  947MOL0     C27763   4.093   2.253   1.038 -0.0238  0.4606  0.0987
  947MOL0     C27764   4.336   2.652   1.086 -0.3418  0.5488 -0.0738
  947MOL0     C27765   4.456   2.618   1.144  1.2041  0.0006 -0.5498
  947MOL0     C27766   4.554   2.704   1.179  1.3650  0.7933  0.1675
  947MOL0     C27767   4.546   2.839   1.134 -0.8996  1.6487 -0.9617
  947MOL0     O27768   4.649   2.927   1.152 -0.3511 -0.4227  0.7483
  947MOL0     C27769   4.708   2.971   1.032 -0.4276 -1.0692  0.0430
  947MOL0     C27770   4.859   2.999   1.041 -0.1464  0.3207 -0.2526
  947MOL0     C27771   4.878   3.118   1.131 -0.8011  0.5850 -0.4186
  947MOL0     C27772   4.825   3.257   1.085 -0.3082  0.3682  0.0013
  947MOL0     C27773   4.830   3.273   0.940 -0.0828 -0.2834  0.0730
  947MOL0     C27774   4.833   3.318   0.823  0.6786  0.1426 -0.1472
  947MOL0     C27775   4.431   2.872   1.075  0.2159 -0.1240 -0.0157
  947MOL0     C27776   4.327   2.787   1.041 -0.3603  0.1304  0.1155
  947MOL0     C27777   4.214   2.857   0.969 -0.2580 -0.3902 -0.2062
  947MOL0     H27778   4.197   2.344   1.345 -1.9884  0.4578  1.3574
  947MOL0     H27779   4.020   2.182   1.403  0.2105 -0.4272 -0.1507
  947MOL0     H27780   3.754   1.994   1.072 -0.4664 -0.9148 -0.5083
  947MOL0     H27781   3.896   1.897   1.103  1.1889 -2.0206  2.9142
  947MOL0     H27782   3.794   1.792   1.298  0.9085  0.2529 -0.3350
  947MOL0     H27783   3.711   1.754   1.143  1.1527 -1.4014  1.0113
  947MOL0     H27784   3.599   1.981   1.312  2.5603  0.8974 -3.9704
  947MOL0     H27785   3.565   1.800   1.344 -0.3677  0.2876  0.8376
  947MOL0     H27786   3.503   1.985   1.110 -1.1004  1.0996  0.9784
  947MOL0     H27787   3.503   1.803   1.096 -0.9920 -1.2163  1.4502
  947MOL0     H27788   3.327   1.985   1.266  2.8572  2.4903 -2.9624
  947MOL0     H27789   3.276   1.904   1.119  1.7332 -1.7152 -2.3650
  947MOL0     H27790   3.318   1.690   1.192  1.6120  0.0403 -0.3872
  947MOL0     H27791   3.360   1.729   1.361  1.1166 -0.6347 -0.8886
  947MOL0     H27792   3.113   1.846   1.244 -3.2450 -1.9946  0.2791
  947MOL0     H27793   3.152   1.827   1.420  0.1740  1.4916 -0.8427
  947MOL0     H27794   2.995   1.667   1.245  1.6213  2.0829 -0.5208
  947MOL0     H27795   3.133   1.567   1.292 -0.2506 -1.3988  1.7441
  947MOL0     H27796   2.851   1.804   1.466  1.2948 -0.0080 -2.0353
  947MOL0     H27797   2.659   1.709   1.641 -1.5164 -2.8787 -0.0052
  947MOL0     H27798   2.723   1.607   1.776  0.2488 -0.7962 -1.0804
  947MOL0     H27799   2.725   1.899   1.719 -0.9518 -0.5578 -1.0956
  947MOL0     H27800   2.663   1.807   1.856  0.1363  2.9441 -0.1500
  947MOL0     H27801   2.887   1.761   1.941  0.0962  2.0338  0.9288
  947MOL0     H27802   2.820   1.925   1.926 -3.0179 -0.0628 -2.2074
  947MOL0     H27803   3.050   1.813   1.766 -1.6047 -0.9513  0.4895
  947MOL0     H27804   3.056   1.946   1.881  0.9927  0.6282 -1.2534
  947MOL0     H27805   2.929   2.240   1.633  0.9072  1.4494  2.9194
  947MOL0     H27806   3.095   2.387   1.533 -1.3064 -0.4842 -0.1426
  947MOL0     H27807   3.694   2.246   1.311  1.1424  0.0790 -1.9112
  947MOL0     H27808   3.869   2.401   1.257  1.2597  2.3192 -0.6715
  947MOL0     H27809   3.913   2.809   1.396 -0.3665 -1.1283 -1.4373
  947MOL0     H27810   3.956   2.719   1.540 -0.0551 -0.7853  0.7909
  947MOL0     H27811   4.180   2.671   1.424 -2.2983 -0.2708  0.9128
  947MOL0     H27812   4.123   2.773   1.287 -1.5052  0.2733 -0.2263
  947MOL0     H27813   4.095   2.937   1.508  0.2595  2.0931 -0.3506
  947MOL0     H27814   4.230   2.843   1.566 -0.3835 -0.2522 -0.8479
  947MOL0     H27815   4.232   3.012   1.318 -0.1166 -2.1603 -0.6596
  947MOL0     H27816   4.354   2.890   1.355 -1.0805 -2.1192 -1.4494
  947MOL0     H27817   4.352   3.009   1.590 -3.1650 -2.0350 -0.8114
  947MOL0     H27818   4.272   3.147   1.495  1.9082  1.0397  0.6153
  947MOL0     H27819   4.543   3.039   1.457  0.3110 -0.7271  0.9831
  947MOL0     H27820   4.464   3.160   1.360 -0.6992  1.6296  1.1043
  947MOL0     H27821   4.472   3.219   1.666  0.2271  0.0938 -0.2720
  947MOL0     H27822   4.453   3.330   1.544 -0.1767 -2.3513 -4.5672
  947MOL0     H27823   4.697   3.334   1.635 -1.6405  1.3784  0.0068
  947MOL0     H27824   4.704   3.163   1.602 -1.0000 -1.0036 -2.4662
  947MOL0     H27825   3.724   2.685   1.543 -1.6471  0.2230  0.7232
  947MOL0     H27826   3.540   2.535   1.597  0.7227 -0.1802  0.4637
  947MOL0     H27827   3.406   2.110   1.607 -0.4791 -0.6956 -2.3355
  947MOL0     H27828   3.228   1.946   1.702 -1.5141 -0.6616 -1.7141
  947MOL0     H27829   3.956   2.088   0.995  0.7144 -0.5103  0.2437
  947MOL0     H27830   4.120   2.279   0.936  0.0257 -0.6962 -0.1983
  947MOL0     H27831   4.473   2.517   1.180  0.0819  0.5433  1.7041
  947MOL0     H27832   4.644   2.670   1.230  1.2872 -0.2689 -0.3782
  947MOL0     H27833   4.658   3.065   1.004 -0.2897 -1.5495 -1.9910
  947MOL0     H27834   4.686   2.904   0.948  3.4498 -1.2629 -1.0222
  947MOL0     H27835   4.888   3.017   0.937  0.6885  0.3344 -0.0209
  947MOL0     H27836   4.911   2.913   1.085  3.2751  3.0854  1.5265
  947MOL0     H27837   4.987   3.128   1.137 -0.7222 -0.9057  2.0304
  947MOL0     H27838   4.851   3.097   1.235  1.3548  1.3572  0.3638
  947MOL0     H27839   4.720   3.269   1.114 -0.6499 -2.2571  0.0934
  947MOL0     H27840   4.896   3.325   1.132 -0.5885  0.9638 -0.4200
  947MOL0     H27841   4.833   3.370   0.729  0.0580  1.0170  0.3222
  947MOL0     H27842   4.414   2.977   1.052 -0.1599  0.2259  1.7348
  947MOL0     H27843   4.126   2.795   0.947 -0.2861 -0.4022 -0.0633
  947MOL0     H27844   4.185   2.941   1.032  1.4241  0.0385  0.0346
  947MOL0     H27845   4.261   2.888   0.875  2.6015 -0.6969  1.0437
  948MOL0     O27846   8.506  11.126   2.920 -0.0293  0.5180 -0.0780
  948MOL0     C27847   8.536  11.017   2.882 -0.3637 -0.4101  0.3574
  948MOL0     O27848   8.654  10.955   2.899  0.0854 -0.9941 -1.0547
  948MOL0     C27849   8.765  11.014   2.966 -0.1977  0.4420 -0.9654
  948MOL0     C27850   8.786  11.150   2.986 -0.1676 -0.6463  0.0860
  948MOL0     C27851   8.911  11.216   3.024 -1.0295  0.3813  0.5406
  948MOL0     C27852   9.011  11.126   3.066  1.0014  0.4144 -0.0689
  948MOL0     O27853   9.140  11.174   3.105 -0.6262  0.1026 -0.1041
  948MOL0     C27854   9.256  11.090   3.102  1.3204  0.4550  0.3220
  948MOL0     C27855   9.380  11.169   3.147 -0.0730 -0.7299  0.9351
  948MOL0     C27856   9.510  11.112   3.088  0.6541 -0.3867  0.1202
  948MOL0     C27857   9.569  10.997   3.170 -0.3718 -0.2002 -0.3017
  948MOL0     C27858   9.719  10.997   3.150  0.3757  0.7567  0.5259
  948MOL0     C27859   9.783  10.885   3.238  0.4491 -0.2428  0.0306
  948MOL0     C27860   9.936  10.888   3.215 -1.5369 -0.8103  0.3166
  948MOL0     C27861  10.019  10.993   3.296  0.1484 -0.6765 -0.6012
  948MOL0     N27862  10.162  10.981   3.297 -1.5477 -0.5580  0.2971
  948MOL0     C27863  10.259  10.927   3.389  0.5689 -0.4587 -0.5373
  948MOL0     C27864  10.375  10.946   3.324  0.3275  0.7030 -0.4330
  948MOL0     C27865  10.509  10.887   3.378 -0.2211 -0.0163  0.3371
  948MOL0     C27866  10.634  10.967   3.343 -0.2518 -1.4546  0.1734
  948MOL0     C27867  10.745  10.932   3.427 -0.1423 -0.0429 -0.1790
  948MOL0     C27868  10.870  11.006   3.377  0.9512  0.0535  0.0927
  948MOL0     O27869  10.983  10.952   3.445  0.6887  0.7665 -0.9277
  948MOL0     C27870  11.113  10.996   3.424  0.5748 -0.1226  0.3180
  948MOL0     C27871  11.142  11.109   3.343 -0.2193  1.0758  0.0758
  948MOL0     C27872  11.276  11.159   3.334  0.2495 -0.4191 -0.4281
  948MOL0     C27873  11.372  11.084   3.402 -0.2917  0.3439  0.3388
  948MOL0     C27874  11.507  11.145   3.393 -0.7894  0.1710 -0.3361
  948MOL0     O27875  11.611  11.060   3.441  0.1848 -0.0109  0.1595
  948MOL0     C27876  11.736  11.096   3.423 -0.5597 -0.3009 -0.0672
  948MOL0     C27877  11.829  11.056   3.525  0.3997  0.3353  0.5128
  948MOL0     C27878  11.962  11.106   3.524  0.5187 -0.2205  0.7173
  948MOL0     C27879  12.015  11.158   3.407  0.5457 -0.1248  0.2114
  948MOL0     O27880  12.144  11.181   3.407 -0.7766  0.4506 -0.5431
  948MOL0     C27881  12.228  11.194   3.296 -0.1517 -0.2609 -0.1307
  948MOL0     C27882  12.283  11.055   3.246  0.6328  0.2720  0.5495
  948MOL0     C27883  12.358  10.991   3.360 -1.4034  0.6745 -0.4401
  948MOL0     C27884  12.484  11.060   3.419 -0.3562 -0.8183 -0.8021
  948MOL0     C27885  12.574  11.122   3.313 -0.7814  0.1907  0.7409
  948MOL0     C27886  12.647  11.031   3.214  0.4114 -0.2308 -0.6072
  948MOL0     C27887  12.742  10.938   3.274  1.1214 -0.3526  0.5573
  948MOL0     C27888  12.814  10.868   3.165  0.0577  0.5104  0.0269
  948MOL0    Cl27889  12.921  10.984   3.071 -0.0348  0.0508  0.4065
  948MOL0     C27890  11.935  11.187   3.299  0.7123 -0.1741 -0.2645
  948MOL0     C27891  11.799  11.158   3.307  0.0851  0.3750 -0.6532
  948MOL0     O27892  11.528  11.253   3.340  1.1561 -0.0913  0.1666
  948MOL0     C27893  11.341  10.975   3.485 -0.8015  0.5129  0.8803
  948MOL0     C27894  11.211  10.926   3.492  0.2492 -0.1681 -0.3964
  948MOL0     N27895  10.354  11.008   3.203  0.8932 -0.4914 -0.0011
  948MOL0     N27896  10.233  11.045   3.192 -0.2911  0.0882 -0.1934
  948MOL0     C27897   8.993  10.982   3.061 -0.2291 -0.0454  0.5442
  948MOL0     C27898   8.868  10.932   3.010 -0.5544 -0.4774  0.2266
  948MOL0     C27899   8.432  10.932   2.823  0.1947 -0.7235 -0.3575
  948MOL0     C27900   8.406  10.812   2.884  0.6553  0.2447 -0.5357
  948MOL0     C27901   8.300  10.728   2.832  0.0205 -0.4988  0.1770
  948MOL0     C27902   8.213  10.773   2.728 -0.1603  0.0689  0.1891
  948MOL0     O27903   8.105  10.695   2.682 -0.5620  0.6771 -0.4534
  948MOL0     C27904   8.060  10.608   2.782 -0.5630  0.1354 -0.2847
  948MOL0     C27905   7.938  10.542   2.718 -0.4104 -0.4185 -0.1158
  948MOL0     C27906   7.830  10.651   2.685  0.7697 -0.7310 -0.2203
  948MOL0     C27907   7.718  10.606   2.596  0.6815 -0.4230  0.8814
  948MOL0     C27908   7.631  10.710   2.547 -0.3898  0.0645 -0.5208
  948MOL0     C27909   7.560  10.789   2.493  0.3703  0.2276 -0.0689
  948MOL0     C27910   8.241  10.898   2.678  0.4707 -0.4786  0.7562
  948MOL0     C27911   8.347  10.983   2.720 -0.0746 -0.8891 -0.0809
  948MOL0     C27912   8.370  11.120   2.649  0.0962 -0.1814  0.8264
  948MOL0     H27913   8.706  11.217   2.956 -0.4514 -0.7067  0.6805
  948MOL0     H27914   8.930  11.323   3.022 -1.3282  0.4259  0.1194
  948MOL0     H27915   9.247  10.994   3.154  2.5972 -0.8850 -1.7906
  948MOL0     H27916   9.270  11.062   2.997  2.2926  0.2797  0.4892
  948MOL0     H27917   9.384  11.163   3.257 -0.4046 -1.0078  0.9317
  948MOL0     H27918   9.382  11.275   3.120  2.0559 -1.6455 -3.2270
  948MOL0     H27919   9.575  11.198   3.106 -0.2850  0.2042  0.7738
  948MOL0     H27920   9.501  11.101   2.980 -1.6563  2.8721 -0.1540
  948MOL0     H27921   9.543  11.002   3.276  0.5000  1.1170 -0.1277
  948MOL0     H27922   9.531  10.899   3.140  3.5317 -1.3147 -2.1732
  948MOL0     H27923   9.756  10.978   3.049 -0.8624  3.3607 -0.4974
  948MOL0     H27924   9.754  11.098   3.174 -0.7277  1.4385 -0.6085
  948MOL0     H27925   9.762  10.888   3.345  3.1166 -1.0720  0.6618
  948MOL0     H27926   9.741  10.789   3.206 -1.5311  0.6892 -0.2412
  948MOL0     H27927   9.961  10.907   3.110 -3.6871  0.1276 -0.0727
  948MOL0     H27928   9.976  10.788   3.236 -0.7669  0.1855  4.3785
  948MOL0     H27929   9.984  11.092   3.266 -1.2172  0.2805  3.6032
  948MOL0     H27930   9.999  10.970   3.401  3.1073 -0.0351  0.1920
  948MOL0     H27931  10.239  10.864   3.475 -1.6786  1.0597  0.1222
  948MOL0     H27932  10.502  10.890   3.487  0.2373  3.4394  0.3738
  948MOL0     H27933  10.504  10.780   3.354 -3.6155 -0.0559  0.6943
  948MOL0     H27934  10.656  10.957   3.236  0.4397 -1.9418  0.3551
  948MOL0     H27935  10.611  11.072   3.363  0.9295 -1.2452  0.4966
  948MOL0     H27936  10.752  10.824   3.438 -3.1959 -0.4664 -1.2296
  948MOL0     H27937  10.715  10.964   3.527 -1.8550 -2.7236  0.2623
  948MOL0     H27938  10.849  11.112   3.395  2.3223  0.6758 -1.6465
  948MOL0     H27939  10.871  10.976   3.272 -0.8291 -3.5241  0.9365
  948MOL0     H27940  11.060  11.167   3.304 -1.7610 -0.0129  1.5305
  948MOL0     H27941  11.300  11.246   3.274 -2.1886  1.2820  0.8874
  948MOL0     H27942  11.805  11.000   3.615 -2.0004  2.1747  1.1290
  948MOL0     H27943  12.029  11.090   3.608  3.8471 -2.6654 -2.0732
  948MOL0     H27944  12.171  11.233   3.211 -0.1255 -2.2415 -1.1184
  948MOL0     H27945  12.314  11.259   3.312 -0.1697 -0.5125  1.0604
  948MOL0     H27946  12.200  10.985   3.242  2.3890 -1.8712 -0.6489
  948MOL0     H27947  12.333  11.055   3.149  1.2712 -0.0839  0.8654
  948MOL0     H27948  12.295  10.959   3.443  0.4614 -2.5981 -0.1303
  948MOL0     H27949  12.393  10.895   3.322 -0.1683  1.8364 -2.4367
  948MOL0     H27950  12.536  10.990   3.485 -1.3157 -0.3492  0.4999
  948MOL0     H27951  12.443  11.144   3.475  0.0244 -0.6512 -0.7724
  948MOL0     H27952  12.650  11.185   3.360  2.0653 -0.8048 -2.1943
  948MOL0     H27953  12.511  11.186   3.251  0.1323  0.3177 -0.0748
  948MOL0     H27954  12.568  10.983   3.155 -1.6896  2.4335 -0.1656
  948MOL0     H27955  12.703  11.100   3.150 -1.0591  0.7908 -0.8343
  948MOL0     H27956  12.689  10.879   3.349 -2.0998  1.0391 -0.4542
  948MOL0     H27957  12.811  10.994   3.338  1.3223 -0.7728  0.7121
  948MOL0     H27958  12.876  10.785   3.202  0.3702 -0.1563 -1.9099
  948MOL0     H27959  12.744  10.822   3.096  0.3180 -2.4394  1.5691
  948MOL0     H27960  11.983  11.233   3.213  2.0565 -0.5492  0.2550
  948MOL0     H27961  11.739  11.180   3.219 -0.6092  1.3218  0.0369
  948MOL0     H27962  11.426  10.933   3.539  0.1758  0.9912 -0.2454
  948MOL0     H27963  11.175  10.840   3.547 -1.3348  0.8627  0.2240
  948MOL0     H27964   9.074  10.915   3.088 -0.3078 -1.6906 -2.7655
  948MOL0     H27965   8.853  10.825   3.002  1.9980 -0.8974  0.3417
  948MOL0     H27966   8.467  10.785   2.970  0.6493  3.2728  0.5347
  948MOL0     H27967   8.315  10.625   2.865  1.0644 -1.4434 -2.8847
  948MOL0     H27968   8.026  10.663   2.870 -0.9802  1.3051 -1.1518
  948MOL0     H27969   8.127  10.525   2.808 -2.6477 -1.4890  0.2280
  948MOL0     H27970   7.890  10.467   2.781 -1.3808 -2.4428 -3.0994
  948MOL0     H27971   7.962  10.493   2.624 -2.2869 -1.4494 -0.1090
  948MOL0     H27972   7.884  10.733   2.636  1.4051  2.4001  4.9814
  948MOL0     H27973   7.787  10.693   2.776 -0.9288 -1.4709 -0.6388
  948MOL0     H27974   7.764  10.555   2.510  0.3929  0.1317  0.3977
  948MOL0     H27975   7.654  10.538   2.653 -1.6960  1.6424  0.7930
  948MOL0     H27976   7.494  10.855   2.441 -0.0652  1.3640  1.8320
  948MOL0     H27977   8.180  10.936   2.597 -0.5012  1.7064  2.4220
  948MOL0     H27978   8.473  11.145   2.623 -0.7970  1.1990 -1.7254
  948MOL0     H27979   8.301  11.136   2.565 -0.4164 -1.5276  0.9612
  948MOL0     H27980   8.343  11.194   2.725 -0.1066  0.8424 -0.2114
  949MOL0     O27981   2.961   1.881   9.157 -0.3889  0.0952 -0.2490
  949MOL0     C27982   3.052   1.885   9.238 -0.0990  0.4043  0.6760
  949MOL0     O27983   3.078   1.992   9.323  0.4089  0.2330  0.3967
  949MOL0     C27984   3.031   2.118   9.307 -0.0218  0.2248  0.1075
  949MOL0     C27985   3.076   2.211   9.405  0.2371  0.6202 -0.4973
  949MOL0     C27986   3.029   2.343   9.402  0.3670 -0.0631 -0.8786
  949MOL0     C27987   2.949   2.384   9.293  0.4618 -0.2410 -0.1593
  949MOL0     O27988   2.893   2.511   9.289 -0.0034  0.5157  0.7802
  949MOL0     C27989   2.916   2.607   9.392 -0.1684  0.3555 -0.5722
  949MOL0     C27990   3.044   2.680   9.387 -0.3941 -0.8126  0.0934
  949MOL0     C27991   3.049   2.770   9.261  0.4417 -0.2178 -0.0540
  949MOL0     C27992   3.178   2.846   9.251 -0.3038 -0.0164  0.4202
  949MOL0     C27993   3.178   2.904   9.104 -0.1390 -0.1135  0.7822
  949MOL0     C27994   3.302   2.993   9.054 -0.5647  0.5070 -0.0845
  949MOL0     C27995   3.334   3.089   9.168  0.8771 -0.4346 -0.5670
  949MOL0     C27996   3.227   3.201   9.188 -0.2983 -0.3292  0.0864
  949MOL0     N27997   3.273   3.279   9.305  0.5556  0.1070  0.2785
  949MOL0     C27998   3.270   3.417   9.314 -0.2144 -0.5175 -0.3144
  949MOL0     C27999   3.290   3.440   9.446 -1.3376 -0.6873  0.3100
  949MOL0     C28000   3.266   3.575   9.507 -0.0473  0.2845 -0.0287
  949MOL0     C28001   3.361   3.608   9.624  0.1787  0.0248 -0.4373
  949MOL0     C28002   3.503   3.618   9.580 -0.1369  0.0364 -1.1865
  949MOL0     C28003   3.598   3.687   9.677  0.0466  0.8549 -0.0690
  949MOL0     O28004   3.669   3.585   9.758  0.6238 -0.5856 -0.2578
  949MOL0     C28005   3.783   3.608   9.827 -0.7104  0.6724 -0.2178
  949MOL0     C28006   3.841   3.516   9.903  0.0912  0.3118 -1.1299
  949MOL0     C28007   3.958   3.543   9.967  0.1262 -1.1402 -0.6311
  949MOL0     C28008   4.014   3.673   9.958 -0.0144  0.1729 -0.2341
  949MOL0     C28009   4.132   3.704  10.046 -0.1770  0.2861  1.3040
  949MOL0     O28010   4.223   3.786   9.987  0.2227  0.3143 -0.2418
  949MOL0     C28011   4.313   3.844  10.071 -0.2314  0.2532  1.0432
  949MOL0     C28012   4.413   3.765  10.128 -0.0626 -0.3655 -0.2136
  949MOL0     C28013   4.524   3.819  10.194  0.1120 -0.0916 -0.3107
  949MOL0     C28014   4.551   3.959  10.179 -0.1869 -0.7547 -0.2932
  949MOL0     O28015   4.652   4.020  10.253  0.3841 -0.5521  0.8728
  949MOL0     C28016   4.788   3.989  10.221  0.5859  1.0990  0.7196
  949MOL0     C28017   4.892   4.077  10.295  0.2175  0.0878 -0.1646
  949MOL0     C28018   4.912   4.012  10.435 -0.2463  0.1748 -0.1340
  949MOL0     C28019   4.797   4.027  10.537  0.9380 -0.3643 -1.0457
  949MOL0     C28020   4.834   3.983  10.679  0.8808 -0.5376 -0.3338
  949MOL0     C28021   4.881   3.841  10.685  0.0736  0.4797 -0.2310
  949MOL0     C28022   4.874   3.799  10.831 -0.1499  0.8310 -0.0016
  949MOL0     C28023   4.873   3.655  10.863  0.6038 -1.0638 -0.1024
  949MOL0    Cl28024   4.857   3.642  11.045  0.0815  0.1794 -0.0093
  949MOL0     C28025   4.447   4.041  10.129  0.0997  0.9462  1.6017
  949MOL0     C28026   4.336   3.981  10.060  0.3016 -0.0762  0.0734
  949MOL0     O28027   4.145   3.637  10.152 -0.0092  0.2543 -0.5014
  949MOL0     C28028   3.974   3.769   9.869  1.0909  0.6889  0.2749
  949MOL0     C28029   3.846   3.735   9.809 -0.4956 -0.1419  0.4773
  949MOL0     N28030   3.316   3.315   9.509  0.6679 -0.4732 -0.3881
  949MOL0     N28031   3.306   3.214   9.423  0.0120  0.2010 -0.1396
  949MOL0     C28032   2.923   2.302   9.193 -0.2982  0.3731 -0.3477
  949MOL0     C28033   2.953   2.168   9.200 -0.0104  0.6737  0.8736
  949MOL0     C28034   3.151   1.767   9.242 -0.2828  0.2563 -0.3099
  949MOL0     C28035   3.110   1.632   9.221  0.2017 -0.6018 -0.9393
  949MOL0     C28036   3.198   1.524   9.243 -0.8230  0.3284 -0.3429
  949MOL0     C28037   3.333   1.546   9.274 -0.3206  0.2725  0.4623
  949MOL0     O28038   3.437   1.453   9.285 -0.2240 -0.6825  0.3106
  949MOL0     C28039   3.427   1.323   9.227 -0.1624 -0.2006  0.5924
  949MOL0     C28040   3.539   1.236   9.287 -0.2025  1.3206  0.7740
  949MOL0     C28041   3.517   1.214   9.437 -0.6393 -1.3444 -1.0407
  949MOL0     C28042   3.450   1.083   9.475  0.5623  0.5131  0.2954
  949MOL0     C28043   3.331   1.042   9.387  0.0705  0.2339 -0.2650
  949MOL0     C28044   3.235   0.996   9.325 -0.5820 -0.3937  0.2173
  949MOL0     C28045   3.372   1.681   9.286 -0.5087 -0.3973  0.6032
  949MOL0     C28046   3.286   1.790   9.280  0.2622  1.2163 -0.3144
  949MOL0     C28047   3.361   1.929   9.282 -0.1226 -0.1363  0.2387
  949MOL0     H28048   3.140   2.177   9.487 -1.8848  0.6743  1.2766
  949MOL0     H28049   3.059   2.406   9.486  4.1309 -1.3677 -1.0448
  949MOL0     H28050   2.836   2.681   9.394 -0.3935  0.1016  1.1021
  949MOL0     H28051   2.910   2.554   9.487 -0.6313  2.7733  0.8377
  949MOL0     H28052   3.128   2.610   9.397  0.7469  0.7317  2.1256
  949MOL0     H28053   3.043   2.744   9.476 -2.0660 -3.6178  2.2615
  949MOL0     H28054   2.973   2.848   9.257  3.6854  3.1502 -2.5244
  949MOL0     H28055   3.059   2.703   9.175 -0.2343  0.9391 -1.0536
  949MOL0     H28056   3.170   2.921   9.330 -3.1690  1.8350 -1.4505
  949MOL0     H28057   3.267   2.783   9.260  1.1887  1.7242 -1.3306
  949MOL0     H28058   3.174   2.820   9.035 -2.6663  1.3542 -1.0145
  949MOL0     H28059   3.086   2.962   9.095  0.3084  0.4372 -0.5030
  949MOL0     H28060   3.384   2.935   9.011  1.4668  3.8927 -1.1520
  949MOL0     H28061   3.275   3.052   8.966  2.3028  0.2194 -1.2435
  949MOL0     H28062   3.423   3.144   9.136  0.1616 -0.2247 -2.3528
  949MOL0     H28063   3.363   3.030   9.255 -0.9022 -1.1695 -0.4321
  949MOL0     H28064   3.219   3.263   9.098  0.8379 -1.8995 -1.1723
  949MOL0     H28065   3.127   3.160   9.206  0.4422 -1.5696  1.5337
  949MOL0     H28066   3.253   3.475   9.224 -1.0989 -1.4183 -0.7537
  949MOL0     H28067   3.270   3.650   9.427  0.3509 -0.1290 -0.3971
  949MOL0     H28068   3.160   3.570   9.536 -0.2706  0.3239 -0.7941
  949MOL0     H28069   3.328   3.700   9.673  0.3296 -0.9428  1.5764
  949MOL0     H28070   3.347   3.521   9.687  1.0058 -0.1838 -0.5275
  949MOL0     H28071   3.506   3.662   9.480  1.0098 -0.1615 -1.2564
  949MOL0     H28072   3.548   3.519   9.573  2.6492  1.2220 -1.5982
  949MOL0     H28073   3.561   3.776   9.730  3.3655  1.6001  1.2345
  949MOL0     H28074   3.674   3.729   9.611 -1.4569  0.4923 -2.1140
  949MOL0     H28075   3.803   3.419   9.936 -2.3483  1.9900  1.4270
  949MOL0     H28076   4.004   3.470  10.033  1.0134  1.5840  2.0168
  949MOL0     H28077   4.403   3.657  10.129  2.2773 -0.6331 -0.2228
  949MOL0     H28078   4.583   3.751  10.256  1.0185 -0.3270 -1.4091
  949MOL0     H28079   4.806   3.883  10.240 -0.6315  0.9577  1.2016
  949MOL0     H28080   4.798   4.020  10.116 -1.4405  2.0013  0.7440
  949MOL0     H28081   4.989   4.077  10.246  0.3573  2.0238  0.0545
  949MOL0     H28082   4.860   4.182  10.293 -1.8386 -0.4392  1.2769
  949MOL0     H28083   4.939   3.908  10.417 -3.7989 -1.2398  1.9248
  949MOL0     H28084   5.003   4.059  10.476 -0.6067  1.1274 -0.3913
  949MOL0     H28085   4.714   3.963  10.506  1.3686 -3.1209  2.7207
  949MOL0     H28086   4.766   4.131  10.525 -0.1424 -0.8272 -2.6208
  949MOL0     H28087   4.743   4.002  10.736  1.0351  1.4046 -0.6794
  949MOL0     H28088   4.912   4.044  10.726 -2.4063 -0.1415  5.4430
  949MOL0     H28089   4.816   3.765  10.639 -0.3200  0.5143  0.2571
  949MOL0     H28090   4.976   3.813  10.639  0.1718  0.4642 -0.0228
  949MOL0     H28091   4.790   3.853  10.877 -1.6724 -0.7491 -0.7823
  949MOL0     H28092   4.967   3.834  10.875  0.5216 -0.0139 -0.7114
  949MOL0     H28093   4.790   3.605  10.814 -2.3051  1.4564  1.8838
  949MOL0     H28094   4.967   3.603  10.840  0.4730 -0.7208 -1.4896
  949MOL0     H28095   4.465   4.147  10.136 -1.2830  1.4427 -1.1685
  949MOL0     H28096   4.270   4.044  10.002  2.3357  0.0384 -2.2835
  949MOL0     H28097   4.016   3.869   9.860 -0.0595  1.4138  2.1414
  949MOL0     H28098   3.804   3.810   9.743  1.0130 -0.1990 -0.5908
  949MOL0     H28099   2.854   2.327   9.113 -0.8103  2.6374  0.7191
  949MOL0     H28100   2.914   2.110   9.117  3.7466 -1.0483  0.0794
  949MOL0     H28101   3.004   1.631   9.198 -0.1509  0.6091  0.3979
  949MOL0     H28102   3.162   1.426   9.215 -0.1628 -0.2013  0.6066
  949MOL0     H28103   3.450   1.329   9.120  1.3611  1.7732  0.9641
  949MOL0     H28104   3.328   1.279   9.238  0.5621 -2.2609 -0.5590
  949MOL0     H28105   3.641   1.273   9.270  1.2197 -2.4720 -0.2142
  949MOL0     H28106   3.541   1.136   9.241  0.6620  1.5402  0.3098
  949MOL0     H28107   3.459   1.297   9.478  0.7991 -1.0161  0.4404
  949MOL0     H28108   3.616   1.209   9.484 -1.7392 -3.1622  1.2983
  949MOL0     H28109   3.516   0.996   9.480 -0.2607 -0.4047 -2.4836
  949MOL0     H28110   3.419   1.078   9.579  1.6087 -4.4499  0.6064
  949MOL0     H28111   3.158   0.965   9.258 -3.9965  4.4223  1.4535
  949MOL0     H28112   3.473   1.710   9.315 -0.4456  0.1292 -0.1182
  949MOL0     H28113   3.461   1.931   9.237 -0.7468 -1.1110 -1.3003
  949MOL0     H28114   3.303   2.006   9.230 -1.4103 -0.8461  0.5853
  949MOL0     H28115   3.379   1.956   9.386  0.3757  0.0563  0.1045
  950MOL0     O28116  10.994   5.648   0.064 -0.2558  0.0711 -0.5411
  950MOL0     C28117  10.957   5.653  -0.053  1.1677  0.0076  1.0466
  950MOL0     O28118  11.023   5.602  -0.163  0.1946  0.2380  0.1954
  950MOL0     C28119  11.126   5.511  -0.140 -0.6410 -0.2911 -0.1197
  950MOL0     C28120  11.244   5.523  -0.212 -0.5798  0.2105  0.2395
  950MOL0     C28121  11.338   5.422  -0.205  0.7437  0.3908  0.3359
  950MOL0     C28122  11.314   5.309  -0.128 -0.1737  0.4607  0.3688
  950MOL0     O28123  11.401   5.204  -0.115 -0.2781 -1.0427 -0.0941
  950MOL0     C28124  11.449   5.168  -0.244 -0.6059 -0.3401 -0.8461
  950MOL0     C28125  11.480   5.019  -0.260  1.0486  0.3347  0.0700
  950MOL0     C28126  11.589   4.970  -0.174 -0.2793 -0.1227  1.0707
  950MOL0     C28127  11.668   4.853  -0.226  0.3696 -0.7583  0.1911
  950MOL0     C28128  11.789   4.819  -0.131  0.3041 -0.1216  0.5296
  950MOL0     C28129  11.857   4.702  -0.194 -0.9554  1.0222 -0.1784
  950MOL0     C28130  11.974   4.644  -0.114  0.2615 -1.2852  0.9347
  950MOL0     C28131  12.040   4.524  -0.177 -0.4854 -0.1751  0.7010
  950MOL0     N28132  12.097   4.557  -0.311 -0.4977  0.5092 -0.2099
  950MOL0     C28133  12.215   4.622  -0.327  0.1331 -0.6705  0.1750
  950MOL0     C28134  12.253   4.602  -0.452  0.8276 -0.6626  0.1085
  950MOL0     C28135  12.374   4.666  -0.514 -0.5488  0.2249  0.0039
  950MOL0     C28136  12.490   4.568  -0.552 -0.0148  0.1853  0.4330
  950MOL0     C28137  12.601   4.627  -0.628  0.0341 -1.0158 -0.6874
  950MOL0     C28138  12.728   4.538  -0.634 -0.3058 -0.1897  0.8124
  950MOL0     O28139  12.707   4.444  -0.740  0.7275  0.1775 -0.0389
  950MOL0     C28140  12.807   4.360  -0.781 -0.0093 -0.0062 -0.3550
  950MOL0     C28141  12.934   4.363  -0.717 -0.2088 -0.2174  0.2005
  950MOL0     C28142  13.037   4.277  -0.743 -0.1168  0.0264 -0.3772
  950MOL0     C28143  13.008   4.182  -0.844 -0.7297 -0.1708  0.2964
  950MOL0     C28144  13.114   4.080  -0.890 -0.6574 -0.2172 -0.1148
  950MOL0     O28145  13.173   4.002  -0.801  0.6452  0.5504 -0.2352
  950MOL0     C28146  13.261   3.901  -0.844  0.3435  0.5774 -0.4324
  950MOL0     C28147  13.236   3.761  -0.830  1.1361  0.3762 -0.0597
  950MOL0     C28148  13.320   3.669  -0.866  0.1732  1.1350  0.1754
  950MOL0     C28149  13.450   3.702  -0.924  0.2601  0.1374  0.4293
  950MOL0     O28150  13.533   3.600  -0.956  0.3980  0.4098 -0.2042
  950MOL0     C28151  13.472   3.486  -1.020 -0.0230  0.0312 -0.2969
  950MOL0     C28152  13.581   3.396  -1.069 -0.5566  0.2761 -0.3955
  950MOL0     C28153  13.677   3.352  -0.948  0.6173  0.0318 -0.4233
  950MOL0     C28154  13.801   3.291  -1.009  0.0531 -0.6303 -1.0966
  950MOL0     C28155  13.914   3.282  -0.898  0.6167 -0.2106  0.9085
  950MOL0     C28156  14.029   3.200  -0.957  0.4086 -0.1193  0.1637
  950MOL0     C28157  14.155   3.215  -0.870 -0.2047 -0.5969 -0.2479
  950MOL0     C28158  14.296   3.220  -0.948 -0.3114  0.2005 -0.2359
  950MOL0    Cl28159  14.421   3.244  -0.830  0.4296  0.4109  0.2085
  950MOL0     C28160  13.486   3.838  -0.922 -0.7351 -0.6148  0.2630
  950MOL0     C28161  13.393   3.935  -0.884 -0.2200 -0.2228 -0.5625
  950MOL0     O28162  13.125   4.057  -1.007 -0.3438 -0.2938 -0.1948
  950MOL0     C28163  12.885   4.176  -0.911  0.0442  0.4077 -0.4572
  950MOL0     C28164  12.781   4.268  -0.882 -0.1908 -0.3002 -0.1997
  950MOL0     N28165  12.152   4.530  -0.518  0.6024  0.0073  0.2264
  950MOL0     N28166  12.054   4.518  -0.431  0.9164 -0.4548 -0.3195
  950MOL0     C28167  11.188   5.294  -0.063 -0.4789  0.1128  0.5297
  950MOL0     C28168  11.097   5.397  -0.064  0.7677  0.2070 -0.6279
  950MOL0     C28169  10.840   5.741  -0.073 -0.0067 -0.0722 -0.0736
  950MOL0     C28170  10.820   5.795  -0.201  0.6648  0.2939  0.4893
  950MOL0     C28171  10.708   5.869  -0.234 -0.6056 -0.8855 -0.1396
  950MOL0     C28172  10.618   5.895  -0.135  1.2127  0.1766 -0.6069
  950MOL0     O28173  10.485   5.938  -0.156 -0.1655  0.4430 -0.8804
  950MOL0     C28174  10.423   5.914  -0.281  0.5763  0.0435  0.7640
  950MOL0     C28175  10.420   5.757  -0.315  0.7515 -0.3166  0.0693
  950MOL0     C28176  10.369   5.680  -0.192  0.0359 -0.1952  0.4146
  950MOL0     C28177  10.402   5.533  -0.202 -0.6665  0.1289  0.4402
  950MOL0     C28178  10.551   5.504  -0.210  0.5785  0.0883  0.1653
  950MOL0     C28179  10.666   5.469  -0.223 -1.0109 -0.9191  0.3433
  950MOL0     C28180  10.640   5.866  -0.007  0.0769  0.7838  0.0261
  950MOL0     C28181  10.745   5.779   0.028 -0.0091 -0.0436  1.3142
  950MOL0     C28182  10.757   5.756   0.174 -0.3717 -0.2021  0.7560
  950MOL0     H28183  11.270   5.611  -0.271 -0.4982  0.7256  1.0337
  950MOL0     H28184  11.433   5.440  -0.254  0.2747  0.2964 -0.6296
  950MOL0     H28185  11.386   5.197  -0.329  4.0529  3.5705 -3.4756
  950MOL0     H28186  11.546   5.215  -0.264  0.2369 -0.2801  2.7387
  950MOL0     H28187  11.497   5.012  -0.367 -1.8835 -0.3824 -0.4310
  950MOL0     H28188  11.392   4.954  -0.251  1.8829 -0.7920  0.3949
  950MOL0     H28189  11.562   4.943  -0.072  3.4854 -0.3348  2.1706
  950MOL0     H28190  11.671   5.043  -0.167 -1.4218  1.8051 -2.9241
  950MOL0     H28191  11.596   4.772  -0.238 -0.5094  0.2332 -1.6512
  950MOL0     H28192  11.705   4.868  -0.327 -0.8004  1.6182  0.0388
  950MOL0     H28193  11.842   4.915  -0.122  1.2831 -0.1213 -3.3555
  950MOL0     H28194  11.744   4.791  -0.035 -0.5838 -3.5889 -0.7560
  950MOL0     H28195  11.787   4.619  -0.206 -4.6970  4.0816 -1.7329
  950MOL0     H28196  11.892   4.733  -0.293 -0.7774  3.1177  0.5001
  950MOL0     H28197  11.942   4.616  -0.013  1.1440  0.3709  1.7174
  950MOL0     H28198  12.048   4.725  -0.111  0.9544 -1.8053 -0.8896
  950MOL0     H28199  12.118   4.484  -0.112 -1.1118 -1.4707  0.6651
  950MOL0     H28200  11.959   4.451  -0.182 -0.5642 -0.0591  0.2140
  950MOL0     H28201  12.260   4.677  -0.244 -2.6577 -1.7218  2.5725
  950MOL0     H28202  12.333   4.709  -0.606 -0.1420 -0.4494 -0.4964
  950MOL0     H28203  12.408   4.743  -0.443  1.2407 -0.1423 -0.3897
  950MOL0     H28204  12.530   4.527  -0.459  1.9476 -1.2403 -0.9390
  950MOL0     H28205  12.467   4.478  -0.610  1.8990 -0.4655  0.5992
  950MOL0     H28206  12.626   4.728  -0.594  3.6535 -1.5590 -1.3580
  950MOL0     H28207  12.567   4.652  -0.730 -1.0591  1.5905  0.2204
  950MOL0     H28208  12.735   4.488  -0.537  1.8602  0.8361  1.2344
  950MOL0     H28209  12.819   4.597  -0.645 -1.1101  1.0183  0.3757
  950MOL0     H28210  12.946   4.443  -0.644 -1.4004 -0.2375  0.4477
  950MOL0     H28211  13.133   4.298  -0.697 -0.2805  1.1929 -0.5310
  950MOL0     H28212  13.134   3.734  -0.804 -0.0654  3.0342 -1.5185
  950MOL0     H28213  13.287   3.567  -0.848 -3.2574  2.1346  0.3720
  950MOL0     H28214  13.406   3.427  -0.956  0.3696 -2.1403 -1.7776
  950MOL0     H28215  13.417   3.522  -1.108 -2.6403 -1.6633  0.5409
  950MOL0     H28216  13.544   3.306  -1.119  3.0263 -1.4031 -0.3384
  950MOL0     H28217  13.649   3.447  -1.137  1.6375  1.3466  2.3976
  950MOL0     H28218  13.705   3.442  -0.891 -4.1774  0.5361  1.5552
  950MOL0     H28219  13.629   3.286  -0.876 -2.5614  1.7363 -0.8190
  950MOL0     H28220  13.843   3.345  -1.095  1.2338 -0.9624 -0.7354
  950MOL0     H28221  13.773   3.188  -1.029 -2.8823 -0.3594  0.9783
  950MOL0     H28222  13.877   3.236  -0.806 -1.1354 -0.8177 -0.0431
  950MOL0     H28223  13.945   3.385  -0.881 -0.1923  0.2477 -0.3103
  950MOL0     H28224  13.989   3.098  -0.957  1.5782 -0.6034 -0.7182
  950MOL0     H28225  14.062   3.225  -1.058 -0.3750  0.3306  0.0129
  950MOL0     H28226  14.150   3.132  -0.799  1.2702 -0.0466  0.5501
  950MOL0     H28227  14.146   3.307  -0.811  2.0618 -0.0469 -0.6477
  950MOL0     H28228  14.290   3.123  -0.998 -3.4187 -0.1924  0.7204
  950MOL0     H28229  14.301   3.295  -1.027  1.1933 -1.8591 -2.2291
  950MOL0     H28230  13.585   3.872  -0.951 -1.9093  3.3927  0.3712
  950MOL0     H28231  13.425   4.039  -0.883  0.7993 -0.4936  2.4039
  950MOL0     H28232  12.862   4.097  -0.982 -1.8785  0.7774 -0.3155
  950MOL0     H28233  12.687   4.281  -0.934 -0.4317  2.2737  0.7683
  950MOL0     H28234  11.170   5.198  -0.017  3.3121 -0.3826  1.3475
  950MOL0     H28235  10.996   5.383  -0.027  0.6149 -0.7178 -1.3713
  950MOL0     H28236  10.888   5.768  -0.281 -0.2993  0.2189 -0.3204
  950MOL0     H28237  10.702   5.906  -0.335 -0.8180  1.8592  0.7892
  950MOL0     H28238  10.489   5.953  -0.359  0.9900 -0.8415  0.6637
  950MOL0     H28239  10.333   5.975  -0.288  0.9494  0.5425  0.1158
  950MOL0     H28240  10.515   5.715  -0.350 -0.2376  0.2989 -3.8393
  950MOL0     H28241  10.361   5.735  -0.404  1.6318 -1.1786 -0.3238
  950MOL0     H28242  10.261   5.679  -0.207  0.1863 -1.4200 -0.6969
  950MOL0     H28243  10.401   5.725  -0.097  4.2814  0.1756 -0.9791
  950MOL0     H28244  10.357   5.481  -0.117 -1.3779  0.5057  0.2984
  950MOL0     H28245  10.353   5.499  -0.293 -1.8508  0.3186  0.9848
  950MOL0     H28246  10.768   5.441  -0.213 -0.6699  0.3707  0.7582
  950MOL0     H28247  10.561   5.895   0.062 -0.8243 -6.3543  2.8287
  950MOL0     H28248  10.668   5.799   0.222  0.7437  4.8899 -1.0371
  950MOL0     H28249  10.760   5.649   0.196  3.6380 -0.4903 -0.3861
  950MOL0     H28250  10.842   5.806   0.222 -0.5607  3.0970 -1.9428
  951MOL0     O28251   7.685   0.373   1.705  0.5124  0.0799  0.2256
  951MOL0     C28252   7.622   0.474   1.752  0.0712 -0.6489  0.1676
  951MOL0     O28253   7.690   0.583   1.809  0.1810  0.0201 -0.2579
  951MOL0     C28254   7.829   0.577   1.819 -0.2423  0.6979 -0.1620
  951MOL0     C28255   7.902   0.640   1.716 -0.0087  0.9999 -0.7740
  951MOL0     C28256   8.040   0.645   1.722 -0.3189  0.3347 -0.1488
  951MOL0     C28257   8.105   0.565   1.822 -0.1106 -0.1487 -0.6804
  951MOL0     O28258   8.241   0.556   1.831  0.8159 -0.4092 -0.4267
  951MOL0     C28259   8.320   0.650   1.756  0.6848 -0.1581 -0.3100
  951MOL0     C28260   8.468   0.599   1.766  0.6526  0.0748 -0.9013
  951MOL0     C28261   8.531   0.614   1.904  0.4888 -0.3596  0.1179
  951MOL0     C28262   8.532   0.488   1.987 -0.4818 -0.2093 -0.6648
  951MOL0     C28263   8.556   0.515   2.134  1.1683  0.7017 -0.2797
  951MOL0     C28264   8.638   0.400   2.196  0.8382  0.0405  0.3345
  951MOL0     C28265   8.674   0.454   2.340 -0.8816 -0.0486 -0.0081
  951MOL0     C28266   8.817   0.409   2.369  1.1490 -0.9550  0.1734
  951MOL0     N28267   8.851   0.425   2.508  0.3852 -0.2327  1.1416
  951MOL0     C28268   8.798   0.345   2.619 -0.3441  0.5870  0.3806
  951MOL0     C28269   8.875   0.388   2.721 -0.2900  0.0822 -0.5070
  951MOL0     C28270   8.872   0.354   2.865 -0.2141  0.3530 -0.2494
  951MOL0     C28271   8.824   0.469   2.943  1.6049 -1.0500  0.1013
  951MOL0     C28272   8.775   0.438   3.086 -0.1304 -0.7153  0.1810
  951MOL0     C28273   8.883   0.435   3.198  0.4534  0.3460  0.1847
  951MOL0     O28274   8.978   0.332   3.173 -0.4566 -0.1877 -0.1253
  951MOL0     C28275   9.101   0.322   3.233  0.1205 -0.7322  0.3433
  951MOL0     C28276   9.167   0.200   3.230 -0.1768  0.9999 -0.5490
  951MOL0     C28277   9.286   0.178   3.293  0.2672 -0.6065 -0.0427
  951MOL0     C28278   9.352   0.290   3.356  0.2669  0.7284  0.0612
  951MOL0     C28279   9.484   0.273   3.431  0.5729  0.0302 -0.1194
  951MOL0     O28280   9.541   0.375   3.497  0.3471  0.1358 -1.2585
  951MOL0     C28281   9.647   0.367   3.577 -0.4197  0.4500  0.6897
  951MOL0     C28282   9.771   0.340   3.511  1.5049 -0.8889 -0.6877
  951MOL0     C28283   9.884   0.327   3.589 -1.1875 -0.8461 -0.0737
  951MOL0     C28284   9.879   0.350   3.725 -0.7879 -0.5182 -0.1074
  951MOL0     O28285   9.984   0.335   3.814  0.5711  0.2427 -0.0803
  951MOL0     C28286  10.122   0.335   3.778  0.3327 -0.1953 -0.8652
  951MOL0     C28287  10.170   0.203   3.822  0.2863 -0.4057 -0.0982
  951MOL0     C28288  10.322   0.211   3.856  0.9114 -1.0937  0.1730
  951MOL0     C28289  10.426   0.237   3.747 -0.3425  0.3442  0.1190
  951MOL0     C28290  10.556   0.209   3.796  0.3899  0.5902  0.1801
  951MOL0     C28291  10.606   0.280   3.922  0.3128  0.4517 -0.6819
  951MOL0     C28292  10.747   0.251   3.963 -0.4732 -0.1945 -0.1888
  951MOL0     C28293  10.786   0.114   4.014 -1.4131 -0.5405  0.0507
  951MOL0    Cl28294  10.696   0.059   4.152  0.1887  0.2943  0.2515
  951MOL0     C28295   9.755   0.370   3.790 -0.2316 -0.3607  0.4024
  951MOL0     C28296   9.635   0.381   3.714  0.4294 -0.1556 -0.3471
  951MOL0     O28297   9.528   0.158   3.425  0.1729  0.4179  0.4142
  951MOL0     C28298   9.279   0.408   3.369  0.9826 -0.4155 -0.2595
  951MOL0     C28299   9.148   0.422   3.317 -0.4671 -0.2504 -0.0326
  951MOL0     N28300   8.965   0.485   2.675 -0.1413  0.1360 -0.1666
  951MOL0     N28301   8.954   0.505   2.547 -0.4990  0.4394 -0.0705
  951MOL0     C28302   8.030   0.490   1.909  0.4123 -0.0072 -0.1165
  951MOL0     C28303   7.894   0.500   1.917 -0.3498  0.5385 -0.0004
  951MOL0     C28304   7.475   0.488   1.743 -0.5075  0.0469 -0.2257
  951MOL0     C28305   7.419   0.607   1.785 -0.6897 -0.1246 -0.1780
  951MOL0     C28306   7.284   0.617   1.809  1.0212 -0.9376 -0.7078
  951MOL0     C28307   7.198   0.511   1.785  0.0469  0.6360  0.3642
  951MOL0     O28308   7.068   0.513   1.833 -0.7566  0.2977  0.5295
  951MOL0     C28309   7.045   0.547   1.973 -0.1557  0.3122 -0.0230
  951MOL0     C28310   6.927   0.645   1.984  0.4577  1.2831  0.5757
  951MOL0     C28311   6.955   0.786   1.960 -0.4840 -0.4666  0.2671
  951MOL0     C28312   7.037   0.840   2.070 -0.0484 -0.4641 -1.0371
  951MOL0     C28313   6.944   0.885   2.178 -1.3965 -0.7435  0.3950
  951MOL0     C28314   6.868   0.928   2.263  0.2546  0.3182 -0.3250
  951MOL0     C28315   7.247   0.394   1.732  0.2141 -0.2037  1.0119
  951MOL0     C28316   7.387   0.381   1.711 -0.0831  0.2112  0.7672
  951MOL0     C28317   7.434   0.253   1.652  0.2063  0.2940  0.4855
  951MOL0     H28318   7.835   0.691   1.647 -1.7728  2.1309  1.6207
  951MOL0     H28319   8.110   0.708   1.669  2.8144 -2.7873 -0.1076
  951MOL0     H28320   8.298   0.642   1.649  1.9075  0.0754 -0.5992
  951MOL0     H28321   8.306   0.754   1.788 -0.0465  0.4400 -2.4304
  951MOL0     H28322   8.517   0.672   1.701 -0.5348  1.1185 -0.6474
  951MOL0     H28323   8.472   0.495   1.731 -3.5428 -0.0632 -1.5082
  951MOL0     H28324   8.483   0.691   1.965  2.8786  0.4611  1.0618
  951MOL0     H28325   8.633   0.649   1.888  0.6908 -0.1495  1.7152
  951MOL0     H28326   8.439   0.432   1.977 -0.9424  0.7589 -2.5056
  951MOL0     H28327   8.617   0.427   1.956  0.0534  0.0796  0.2071
  951MOL0     H28328   8.616   0.605   2.147  0.7265  0.9303  0.2009
  951MOL0     H28329   8.467   0.531   2.196  1.1794 -0.5620  0.0949
  951MOL0     H28330   8.582   0.307   2.200  1.6832 -0.6341 -1.9225
  951MOL0     H28331   8.732   0.385   2.142  0.7666  0.1185  0.1857
  951MOL0     H28332   8.602   0.415   2.412 -1.3933 -1.3653 -1.1794
  951MOL0     H28333   8.676   0.561   2.358 -1.9583 -0.4280  2.7644
  951MOL0     H28334   8.817   0.302   2.345  1.2484 -0.9758  0.2651
  951MOL0     H28335   8.884   0.460   2.299  2.6482 -0.9684  1.5565
  951MOL0     H28336   8.715   0.276   2.611 -1.3333  1.8591 -0.7528
  951MOL0     H28337   8.801   0.276   2.892  0.6655  0.2289  1.9391
  951MOL0     H28338   8.967   0.320   2.907 -0.1439  2.4898  1.5076
  951MOL0     H28339   8.903   0.543   2.960  0.7585  0.1525 -0.9787
  951MOL0     H28340   8.742   0.520   2.891  0.0437 -0.5702  2.8275
  951MOL0     H28341   8.728   0.340   3.092  0.0651 -0.7172  3.2975
  951MOL0     H28342   8.697   0.512   3.110 -0.0060  0.3023 -2.2967
  951MOL0     H28343   8.833   0.433   3.295 -0.8417  3.6030 -0.3025
  951MOL0     H28344   8.935   0.531   3.193  0.8906  0.1563  0.8932
  951MOL0     H28345   9.137   0.115   3.170  3.2734 -0.8691  0.1630
  951MOL0     H28346   9.342   0.086   3.277  0.0593 -0.8857  0.7843
  951MOL0     H28347   9.777   0.340   3.402 -1.7768 -0.5077 -0.9721
  951MOL0     H28348   9.976   0.304   3.536 -0.1304  0.2953  1.1764
  951MOL0     H28349  10.134   0.348   3.670 -0.3614 -0.8819 -1.0395
  951MOL0     H28350  10.175   0.414   3.832 -4.5476  2.7674  0.3400
  951MOL0     H28351  10.124   0.182   3.920  1.1127 -1.7730  0.0177
  951MOL0     H28352  10.150   0.122   3.752  1.8872  0.4941 -1.6606
  951MOL0     H28353  10.330   0.284   3.937  2.5778  1.1105 -1.8498
  951MOL0     H28354  10.354   0.114   3.896  3.3235 -0.0711  0.8848
  951MOL0     H28355  10.414   0.343   3.726  2.5475  0.4854 -1.4285
  951MOL0     H28356  10.404   0.176   3.659 -1.1445  1.5549 -0.5341
  951MOL0     H28357  10.627   0.229   3.716  0.4100  0.3467  0.1381
  951MOL0     H28358  10.553   0.104   3.827 -0.8618  0.9946  1.6141
  951MOL0     H28359  10.608   0.388   3.905  0.9157  0.8814  1.7490
  951MOL0     H28360  10.544   0.261   4.010  1.6757 -0.1466  0.1771
  951MOL0     H28361  10.765   0.315   4.050  0.9491 -1.6057  0.6217
  951MOL0     H28362  10.801   0.281   3.873 -0.7388  0.5529 -0.1035
  951MOL0     H28363  10.779   0.048   3.927 -3.0434 -0.3542  0.0012
  951MOL0     H28364  10.891   0.118   4.043 -1.5289  0.2080  0.3954
  951MOL0     H28365   9.764   0.393   3.895  0.7100 -1.3983  0.5682
  951MOL0     H28366   9.536   0.393   3.756 -0.1652 -0.0056 -1.7366
  951MOL0     H28367   9.320   0.488   3.430  0.5862 -1.8270  1.9707
  951MOL0     H28368   9.097   0.514   3.344  1.0398  0.0923  1.8807
  951MOL0     H28369   8.082   0.430   1.982 -1.7143  1.3368  2.6997
  951MOL0     H28370   7.842   0.448   1.996  1.8244  0.0111  1.1467
  951MOL0     H28371   7.466   0.704   1.800 -0.7753 -0.1850  0.5075
  951MOL0     H28372   7.249   0.706   1.860 -0.6808 -1.1854 -1.3646
  951MOL0     H28373   7.132   0.591   2.022  1.4338 -1.9678 -0.6886
  951MOL0     H28374   7.007   0.465   2.034 -0.3634  1.4217  1.3925
  951MOL0     H28375   6.898   0.653   2.089  2.6127 -1.0479  1.4791
  951MOL0     H28376   6.850   0.609   1.915 -2.0099  2.8981  2.3159
  951MOL0     H28377   6.866   0.848   1.944 -0.7285 -0.9662 -0.3382
  951MOL0     H28378   7.000   0.795   1.861  0.3445  5.4755  0.8401
  951MOL0     H28379   7.102   0.760   2.104 -0.7993 -1.0899 -1.0449
  951MOL0     H28380   7.102   0.926   2.049 -1.6912  0.9847 -0.4500
  951MOL0     H28381   6.802   0.964   2.339  1.8169  0.4171  1.0428
  951MOL0     H28382   7.179   0.320   1.692  0.9576 -1.1014  1.3668
  951MOL0     H28383   7.348   0.191   1.625 -1.3991  2.2775  0.8017
  951MOL0     H28384   7.488   0.262   1.557  0.2946  1.0287  0.5988
  951MOL0     H28385   7.498   0.193   1.717 -0.7510 -2.4609 -0.9637
  952MOL0     O28386   2.801   5.112   0.506  0.1396 -0.7646 -0.0009
  952MOL0     C28387   2.756   5.231   0.507  0.0880 -0.0691  0.7633
  952MOL0     O28388   2.839   5.336   0.473  1.4261 -1.1581 -0.8589
  952MOL0     C28389   2.972   5.316   0.485 -0.5655  0.6540 -0.8911
  952MOL0     C28390   3.026   5.314   0.618  0.8551  0.0158  1.1798
  952MOL0     C28391   3.170   5.322   0.631  1.3871  0.2307 -0.1006
  952MOL0     C28392   3.253   5.341   0.523 -0.0899  0.3307  0.2461
  952MOL0     O28393   3.384   5.384   0.535  0.3944  0.8852  0.4024
  952MOL0     C28394   3.463   5.291   0.603  0.1133 -0.4844  0.0633
  952MOL0     C28395   3.588   5.365   0.663 -0.0053 -0.5093 -0.0169
  952MOL0     C28396   3.669   5.449   0.564  0.1742 -0.2606  0.4731
  952MOL0     C28397   3.809   5.479   0.635  0.7780  0.0094 -0.5372
  952MOL0     C28398   3.905   5.544   0.531 -0.5406  0.4595 -0.1130
  952MOL0     C28399   4.044   5.560   0.603 -0.2046  0.0653  0.8348
  952MOL0     C28400   4.166   5.576   0.503 -0.1109  0.9433 -0.0821
  952MOL0     C28401   4.141   5.686   0.399 -0.1078 -0.3583 -0.1309
  952MOL0     N28402   4.268   5.720   0.338 -0.3187 -0.5174  0.3576
  952MOL0     C28403   4.363   5.814   0.387  0.0496  1.3157 -0.6899
  952MOL0     C28404   4.464   5.784   0.308 -0.7543 -0.1552  1.0868
  952MOL0     C28405   4.589   5.868   0.305  0.6289  0.1462  0.4722
  952MOL0     C28406   4.697   5.820   0.201  0.4959 -0.1907  0.2018
  952MOL0     C28407   4.821   5.915   0.183 -0.6025  0.1030 -0.6791
  952MOL0     C28408   4.892   5.973   0.309 -0.2880 -0.0390 -0.2888
  952MOL0     O28409   4.974   5.862   0.350  0.4487 -0.0085 -0.3667
  952MOL0     C28410   5.091   5.840   0.295 -0.4353  0.3946 -0.4290
  952MOL0     C28411   5.115   5.707   0.277 -0.1869  0.1411  0.3825
  952MOL0     C28412   5.244   5.668   0.239 -0.3501  0.5524  0.7926
  952MOL0     C28413   5.350   5.765   0.206 -0.1129  0.1840 -0.4531
  952MOL0     C28414   5.494   5.735   0.161  0.3878 -0.5692  0.2442
  952MOL0     O28415   5.531   5.609   0.191  0.0974  0.6549 -0.1493
  952MOL0     C28416   5.664   5.570   0.181  0.0459 -0.4964  0.5338
  952MOL0     C28417   5.718   5.473   0.261 -0.2198 -0.6345  0.7799
  952MOL0     C28418   5.847   5.428   0.246  0.3600  0.1945 -0.7186
  952MOL0     C28419   5.918   5.460   0.134 -0.0658 -0.3865  0.3692
  952MOL0     O28420   6.048   5.428   0.114  0.2413  0.3568 -0.2999
  952MOL0     C28421   6.123   5.402   0.234 -0.0562 -0.9241 -0.3508
  952MOL0     C28422   6.263   5.468   0.225 -0.4820  0.5922  0.7791
  952MOL0     C28423   6.242   5.620   0.233  0.2162 -0.0284 -0.2470
  952MOL0     C28424   6.372   5.693   0.237 -0.2290 -0.0521 -0.4537
  952MOL0     C28425   6.366   5.841   0.288  0.6092  0.1721  0.6037
  952MOL0     C28426   6.508   5.907   0.322 -0.4351 -0.4181 -0.5277
  952MOL0     C28427   6.504   6.039   0.395 -0.0228 -0.2052 -0.1471
  952MOL0     C28428   6.642   6.105   0.408 -0.8067 -0.2045  0.0011
  952MOL0    Cl28429   6.630   6.258   0.503 -0.1210 -0.3279 -0.1417
  952MOL0     C28430   5.861   5.536   0.036 -0.2974 -0.1736  0.2790
  952MOL0     C28431   5.736   5.602   0.066 -0.5179  0.0384 -0.0893
  952MOL0     O28432   5.570   5.828   0.124  0.6956 -0.2727  0.2621
  952MOL0     C28433   5.317   5.898   0.236  0.2688  0.3756  0.5247
  952MOL0     C28434   5.196   5.931   0.285  0.0158 -0.7849  0.2597
  952MOL0     N28435   4.438   5.687   0.211  0.0978 -0.6660 -0.1458
  952MOL0     N28436   4.323   5.645   0.239 -0.1058  0.1025 -0.7391
  952MOL0     C28437   3.195   5.339   0.394 -0.0358  0.5067  0.3812
  952MOL0     C28438   3.057   5.319   0.370  0.2499 -0.8676  0.7605
  952MOL0     C28439   2.616   5.260   0.529  0.3591 -0.4816  0.5413
  952MOL0     C28440   2.572   5.393   0.519 -0.3796  0.1912  0.4788
  952MOL0     C28441   2.443   5.433   0.531 -0.1968 -0.7718  0.1463
  952MOL0     C28442   2.345   5.340   0.564 -0.5475 -0.4731  0.9957
  952MOL0     O28443   2.212   5.379   0.571 -0.1161 -0.4832 -0.1802
  952MOL0     C28444   2.110   5.281   0.561  0.2150  0.5262  0.2320
  952MOL0     C28445   1.980   5.336   0.504  0.2928 -0.4501 -0.3534
  952MOL0     C28446   1.928   5.447   0.602 -0.6109 -0.3378  0.8691
  952MOL0     C28447   1.798   5.514   0.560 -0.0869 -0.5704 -0.3705
  952MOL0     C28448   1.790   5.644   0.633 -0.4883  0.2179  0.8893
  952MOL0     C28449   1.797   5.740   0.700  1.1388 -0.5491 -0.0476
  952MOL0     C28450   2.383   5.206   0.580 -0.1509 -0.6238  0.5153
  952MOL0     C28451   2.523   5.163   0.570 -0.6905 -0.2929  0.7748
  952MOL0     C28452   2.528   5.009   0.602  0.0149 -0.2117 -0.1637
  952MOL0     H28453   2.967   5.323   0.709 -0.5043  0.2211  0.3152
  952MOL0     H28454   3.224   5.330   0.725  1.6180 -0.0229 -0.2106
  952MOL0     H28455   3.420   5.261   0.699 -1.7417  0.7684 -0.3189
  952MOL0     H28456   3.489   5.202   0.544  2.7963 -0.2990  0.8503
  952MOL0     H28457   3.649   5.289   0.713 -0.9621 -2.6127 -1.8832
  952MOL0     H28458   3.554   5.427   0.748 -0.1911  0.5487 -0.8395
  952MOL0     H28459   3.614   5.540   0.539  1.3043  0.3581  0.1412
  952MOL0     H28460   3.689   5.407   0.465  0.9780  2.6851 -0.7444
  952MOL0     H28461   3.787   5.548   0.716  0.6641 -0.2151 -0.3743
  952MOL0     H28462   3.842   5.387   0.684 -1.2928  0.5666  2.1482
  952MOL0     H28463   3.922   5.478   0.446 -0.0651  2.3933 -1.5868
  952MOL0     H28464   3.857   5.635   0.495 -0.9003  1.1239  1.9222
  952MOL0     H28465   4.036   5.642   0.675  1.3195  1.3682 -0.4043
  952MOL0     H28466   4.071   5.479   0.672 -1.1545 -1.3225 -0.3656
  952MOL0     H28467   4.184   5.482   0.451 -0.5147  1.0207 -0.3691
  952MOL0     H28468   4.252   5.597   0.567 -0.5875  0.6444  0.6655
  952MOL0     H28469   4.069   5.653   0.324 -2.1043  3.0465  0.1077
  952MOL0     H28470   4.107   5.775   0.452 -0.1045 -0.1811 -0.4267
  952MOL0     H28471   4.353   5.888   0.466 -1.5204  2.1754 -1.6422
  952MOL0     H28472   4.561   5.971   0.279  1.8513  0.2116 -0.6728
  952MOL0     H28473   4.636   5.863   0.403 -2.4316  0.1055  2.0389
  952MOL0     H28474   4.735   5.722   0.232 -0.5614 -0.5859  0.2883
  952MOL0     H28475   4.653   5.825   0.101  4.0382 -0.9021 -1.5196
  952MOL0     H28476   4.790   6.004   0.127 -0.9256 -0.0329 -0.7225
  952MOL0     H28477   4.885   5.854   0.118  0.1714 -1.6469  1.5900
  952MOL0     H28478   4.822   6.011   0.385  2.8409  0.8571  2.4083
  952MOL0     H28479   4.945   6.065   0.282  1.4284 -0.2233  2.1290
  952MOL0     H28480   5.041   5.629   0.296  0.1196  0.1530  1.7326
  952MOL0     H28481   5.265   5.561   0.235 -1.1591  0.3735  1.1170
  952MOL0     H28482   5.664   5.420   0.339  1.2898 -0.4605  1.9873
  952MOL0     H28483   5.891   5.364   0.322  0.5001  3.2796  2.0525
  952MOL0     H28484   6.079   5.434   0.330  1.0320 -0.4214  0.0043
  952MOL0     H28485   6.146   5.296   0.248  2.5464 -0.1703  2.0917
  952MOL0     H28486   6.323   5.433   0.310  1.1689  1.4044  0.0011
  952MOL0     H28487   6.314   5.438   0.134  0.5065  0.4040  1.3832
  952MOL0     H28488   6.189   5.653   0.143 -2.2335 -1.9630  0.3604
  952MOL0     H28489   6.182   5.640   0.322  0.7128 -2.8338  0.8393
  952MOL0     H28490   6.427   5.682   0.143 -1.7484 -2.0162 -1.1851
  952MOL0     H28491   6.439   5.645   0.309 -1.0593  0.5682  0.7577
  952MOL0     H28492   6.297   5.850   0.372  1.5048  0.8115  1.2968
  952MOL0     H28493   6.325   5.903   0.208  0.8756 -0.5827 -0.1350
  952MOL0     H28494   6.575   5.848   0.386  0.6446  1.0524 -0.2507
  952MOL0     H28495   6.569   5.911   0.231  1.5137 -0.2325  0.7314
  952MOL0     H28496   6.447   6.035   0.488 -0.3953  1.0068 -0.3056
  952MOL0     H28497   6.447   6.101   0.324  3.1930  0.2841 -2.5582
  952MOL0     H28498   6.704   6.030   0.457 -1.4201 -0.2777  0.6869
  952MOL0     H28499   6.682   6.124   0.308  1.4375  0.6946  1.0151
  952MOL0     H28500   5.917   5.540  -0.056 -3.2841 -0.5824 -1.6924
  952MOL0     H28501   5.691   5.665  -0.010 -0.5492  0.3844  0.2080
  952MOL0     H28502   5.401   5.966   0.228  1.8372 -1.5266  0.2126
  952MOL0     H28503   5.172   6.035   0.305  1.4194 -0.7755  2.1589
  952MOL0     H28504   3.267   5.366   0.317  0.3285  0.3129  0.6491
  952MOL0     H28505   3.018   5.323   0.269 -2.0846 -2.9904  1.4903
  952MOL0     H28506   2.642   5.473   0.497 -2.6753  2.0573 -0.4089
  952MOL0     H28507   2.405   5.534   0.514 -1.1173 -1.1861 -0.3158
  952MOL0     H28508   2.090   5.250   0.664 -0.3457 -1.5023 -0.4331
  952MOL0     H28509   2.147   5.202   0.494 -1.8218  1.4750 -2.1973
  952MOL0     H28510   1.898   5.264   0.504 -0.2559  0.1543 -0.9787
  952MOL0     H28511   1.993   5.375   0.403 -0.2013  0.1300 -0.2000
  952MOL0     H28512   2.015   5.513   0.599 -0.6348 -0.3330  0.1421
  952MOL0     H28513   1.917   5.413   0.705  3.1923  1.0469  1.9088
  952MOL0     H28514   1.785   5.524   0.452 -1.0229 -2.6105 -0.4978
  952MOL0     H28515   1.711   5.461   0.601  0.7481 -1.3541  0.4577
  952MOL0     H28516   1.814   5.828   0.759 -3.1107  0.6865 -0.2995
  952MOL0     H28517   2.316   5.121   0.584  0.0042 -0.9152 -1.5499
  952MOL0     H28518   2.495   4.988   0.704 -0.6453 -0.3028 -0.3942
  952MOL0     H28519   2.466   4.950   0.534  1.3005 -0.9900 -0.7060
  952MOL0     H28520   2.633   4.977   0.602  0.1857  0.1785 -2.4696
  953MOL0     O28521   0.912   6.207   3.610  0.0298 -0.1083 -0.0251
  953MOL0     C28522   0.978   6.127   3.678 -0.8770 -0.8335 -0.5231
  953MOL0     O28523   0.931   6.081   3.803  0.3616  0.3376  0.5688
  953MOL0     C28524   0.789   6.066   3.815 -1.3355 -0.2214  0.5937
  953MOL0     C28525   0.714   6.130   3.906 -0.1001  0.8605 -0.2864
  953MOL0     C28526   0.582   6.082   3.932 -0.7599 -0.3996 -0.6824
  953MOL0     C28527   0.520   5.982   3.856 -0.3985 -0.3997  0.8311
  953MOL0     O28528   0.399   5.937   3.884  0.5689  0.1701 -0.2151
  953MOL0     C28529   0.396   5.853   3.997 -0.4299  0.5436  0.5526
  953MOL0     C28530   0.270   5.854   4.083  1.4020  0.4649 -0.2675
  953MOL0     C28531   0.191   5.983   4.083  0.4736 -0.6976  0.9761
  953MOL0     C28532   0.067   5.979   4.180 -0.7705 -0.4574  0.6405
  953MOL0     C28533  -0.053   6.065   4.128 -0.1175 -0.3138  0.6335
  953MOL0     C28534  -0.162   6.091   4.228  0.1145 -0.2421 -0.2310
  953MOL0     C28535  -0.125   6.182   4.353 -0.4563  1.0488 -0.1949
  953MOL0     C28536  -0.230   6.183   4.462  0.8829  0.2390 -0.1623
  953MOL0     N28537  -0.360   6.208   4.399 -0.1775 -0.0900 -0.3086
  953MOL0     C28538  -0.454   6.110   4.362 -0.6101 -0.8881 -0.1928
  953MOL0     C28539  -0.558   6.188   4.320 -0.1179 -0.5392  0.5426
  953MOL0     C28540  -0.697   6.137   4.292  0.2705  0.1151  0.1311
  953MOL0     C28541  -0.767   6.134   4.429 -0.8633  0.2355  0.5639
  953MOL0     C28542  -0.922   6.125   4.416 -0.0378  0.1814  0.2046
  953MOL0     C28543  -0.996   6.075   4.545 -0.1694  0.0583  0.5508
  953MOL0     O28544  -0.967   6.155   4.658  0.0239  0.0523 -0.6213
  953MOL0     C28545  -1.025   6.136   4.784 -0.8095 -0.3819 -0.1946
  953MOL0     C28546  -0.978   6.217   4.884 -0.2291  0.1440 -0.6933
  953MOL0     C28547  -1.043   6.212   5.007 -0.1496 -0.4486 -0.1582
  953MOL0     C28548  -1.143   6.108   5.037 -0.7377  0.2360  0.3300
  953MOL0     C28549  -1.201   6.092   5.175 -0.4511 -0.3858 -0.2407
  953MOL0     O28550  -1.176   6.193   5.266  0.1072  0.9582  0.5640
  953MOL0     C28551  -1.247   6.182   5.382  0.6613  0.0834 -0.3920
  953MOL0     C28552  -1.376   6.226   5.402 -0.1670  0.7237 -0.7297
  953MOL0     C28553  -1.418   6.240   5.538 -0.3999 -0.4313 -0.1616
  953MOL0     C28554  -1.348   6.186   5.645  0.2379 -0.0025  0.3348
  953MOL0     O28555  -1.392   6.173   5.780  0.2869 -0.3629  0.1241
  953MOL0     C28556  -1.493   6.274   5.819 -0.1077  0.0042 -0.9091
  953MOL0     C28557  -1.553   6.251   5.965 -1.1203 -0.4656  1.0690
  953MOL0     C28558  -1.445   6.256   6.067  0.0404 -0.2258  0.4489
  953MOL0     C28559  -1.500   6.266   6.212 -0.4825 -0.5105 -0.0887
  953MOL0     C28560  -1.386   6.279   6.313 -0.1490  0.2542 -0.6086
  953MOL0     C28561  -1.340   6.423   6.334 -0.3743  0.3514 -0.5566
  953MOL0     C28562  -1.216   6.414   6.426 -0.4271 -0.3600 -0.3259
  953MOL0     C28563  -1.147   6.545   6.439  0.3127 -0.3043  0.5454
  953MOL0    Cl28564  -1.264   6.649   6.530  0.1116  0.1345 -0.0057
  953MOL0     C28565  -1.221   6.147   5.620 -0.0707  0.7794  0.4744
  953MOL0     C28566  -1.172   6.140   5.492  0.4035  0.5344 -0.5160
  953MOL0     O28567  -1.286   6.000   5.189 -0.0532 -0.3378  0.2018
  953MOL0     C28568  -1.178   6.022   4.936 -0.3521 -0.6695 -0.4804
  953MOL0     C28569  -1.123   6.038   4.808  0.7464  0.4321  0.3312
  953MOL0     N28570  -0.528   6.325   4.327 -0.2472  1.0174 -0.0867
  953MOL0     N28571  -0.409   6.336   4.373 -0.3355 -0.1768 -0.1655
  953MOL0     C28572   0.591   5.936   3.751 -1.0683  0.2753  0.3260
  953MOL0     C28573   0.726   5.977   3.735 -0.6506  0.5877 -0.6661
  953MOL0     C28574   1.106   6.063   3.635  0.5111  0.1325  0.7846
  953MOL0     C28575   1.164   5.977   3.721 -0.3131 -0.1846 -0.0992
  953MOL0     C28576   1.277   5.915   3.693 -0.1083  0.1091 -0.7335
  953MOL0     C28577   1.340   5.938   3.566  0.5188 -0.3898 -0.3437
  953MOL0     O28578   1.463   5.884   3.532  0.4700  0.1983 -0.1668
  953MOL0     C28579   1.540   5.801   3.623 -0.3004 -1.1135  0.0934
  953MOL0     C28580   1.655   5.751   3.543  0.1115 -0.6557 -0.1433
  953MOL0     C28581   1.739   5.863   3.466  0.5708 -0.3099  0.4317
  953MOL0     C28582   1.858   5.799   3.397 -0.2655  0.4862  0.8478
  953MOL0     C28583   1.953   5.896   3.347 -0.1221  0.6659 -1.3181
  953MOL0     C28584   2.032   5.984   3.314 -0.8211 -0.0937 -0.6161
  953MOL0     C28585   1.289   6.020   3.480 -0.1131  0.9278  0.3355
  953MOL0     C28586   1.173   6.093   3.513 -0.1502  0.5505  0.0859
  953MOL0     C28587   1.121   6.194   3.411  0.2112  0.7280  0.0976
  953MOL0     H28588   0.753   6.211   3.968 -0.6401  0.3578  0.7389
  953MOL0     H28589   0.520   6.133   4.005  0.8584 -1.3495  1.4571
  953MOL0     H28590   0.405   5.746   3.977 -0.4504  0.0624  2.9015
  953MOL0     H28591   0.476   5.889   4.062 -1.2465  2.4360  0.5558
  953MOL0     H28592   0.284   5.827   4.188 -1.8164  4.6521  1.5117
  953MOL0     H28593   0.210   5.781   4.027  0.9108  0.4434  0.2880
  953MOL0     H28594   0.148   6.007   3.986 -0.0247  2.0883  1.7846
  953MOL0     H28595   0.256   6.068   4.108 -0.2662 -0.6440  2.8500
  953MOL0     H28596   0.036   5.875   4.189  1.7738 -1.5682 -1.7922
  953MOL0     H28597   0.100   6.011   4.279 -0.2963  0.0499  0.3250
  953MOL0     H28598  -0.029   6.165   4.090  0.1195 -0.9250 -0.8638
  953MOL0     H28599  -0.091   6.015   4.039 -2.1953  0.0566  1.2304
  953MOL0     H28600  -0.246   6.137   4.174  0.4396  2.3050  1.3097
  953MOL0     H28601  -0.190   5.995   4.274 -1.0826 -1.3225 -2.9781
  953MOL0     H28602  -0.105   6.288   4.332  1.7264  1.4440  3.1166
  953MOL0     H28603  -0.039   6.143   4.408 -2.2390  0.5891  2.4489
  953MOL0     H28604  -0.245   6.087   4.512 -0.2897  0.6284  0.2745
  953MOL0     H28605  -0.189   6.255   4.533  3.2749 -1.8535  0.7461
  953MOL0     H28606  -0.467   6.003   4.366  0.0787 -0.9513  1.4482
  953MOL0     H28607  -0.759   6.193   4.221  4.0332  0.5728 -3.0657
  953MOL0     H28608  -0.692   6.037   4.249 -0.2544 -0.0757  0.4980
  953MOL0     H28609  -0.725   6.044   4.475  0.2022 -1.9856 -4.1343
  953MOL0     H28610  -0.741   6.223   4.487  1.4110 -1.1883  1.8998
  953MOL0     H28611  -0.942   6.056   4.333  2.4399 -0.6042  0.1969
  953MOL0     H28612  -0.965   6.224   4.399  0.7465  0.3192 -1.1290
  953MOL0     H28613  -0.975   5.969   4.561 -1.6155 -0.1260  1.4407
  953MOL0     H28614  -1.103   6.094   4.531  0.1263  1.6407  0.3124
  953MOL0     H28615  -0.912   6.302   4.868  1.6648 -1.5319 -2.2379
  953MOL0     H28616  -1.024   6.284   5.086 -3.2424  1.1889 -0.7570
  953MOL0     H28617  -1.435   6.245   5.313 -1.3878 -1.1774 -0.3947
  953MOL0     H28618  -1.515   6.280   5.566  0.6875 -0.5770  4.4699
  953MOL0     H28619  -1.448   6.373   5.804  1.0836 -0.3996 -0.0702
  953MOL0     H28620  -1.581   6.272   5.753 -0.7726  3.8834 -0.4043
  953MOL0     H28621  -1.623   6.334   5.981  0.3383  0.8671  0.7642
  953MOL0     H28622  -1.600   6.154   5.981  0.1690 -0.9966  1.7885
  953MOL0     H28623  -1.386   6.164   6.062 -1.5352 -1.3619  1.6501
  953MOL0     H28624  -1.375   6.337   6.046  0.0885 -0.2937  0.3407
  953MOL0     H28625  -1.550   6.170   6.223  1.2948 -1.9513 -3.2403
  953MOL0     H28626  -1.567   6.352   6.217 -0.5297 -0.4900 -0.9818
  953MOL0     H28627  -1.305   6.221   6.269  1.0674  1.6089 -0.2268
  953MOL0     H28628  -1.413   6.229   6.406  1.8015  0.8031  0.3186
  953MOL0     H28629  -1.312   6.468   6.238 -0.5751  0.9526 -0.3411
  953MOL0     H28630  -1.428   6.477   6.370 -1.6020 -0.8009 -1.7207
  953MOL0     H28631  -1.139   6.341   6.401  0.8439  1.1102 -0.8859
  953MOL0     H28632  -1.244   6.394   6.530  0.4579  2.7788  0.6222
  953MOL0     H28633  -1.045   6.533   6.478  1.5092  0.4264 -2.1208
  953MOL0     H28634  -1.136   6.586   6.338 -3.0644  1.8696  0.9179
  953MOL0     H28635  -1.174   6.109   5.710  1.7904  0.8843 -0.4046
  953MOL0     H28636  -1.075   6.099   5.464  1.1075  1.7990 -0.0015
  953MOL0     H28637  -1.261   5.951   4.942  1.5832 -3.1524 -1.4162
  953MOL0     H28638  -1.146   5.963   4.733 -0.1898  1.7868 -0.7964
  953MOL0     H28639   0.538   5.884   3.671 -1.5032  2.8969 -1.1806
  953MOL0     H28640   0.784   5.943   3.650 -1.4818 -0.8800 -0.6883
  953MOL0     H28641   1.129   5.956   3.822  0.4752 -1.7494 -0.1246
  953MOL0     H28642   1.317   5.848   3.769  1.9383  1.3600 -0.6378
  953MOL0     H28643   1.478   5.716   3.654 -0.0084 -0.9562  1.1523
  953MOL0     H28644   1.574   5.858   3.710 -0.8963 -4.2765  2.5647
  953MOL0     H28645   1.620   5.685   3.463  1.4517 -1.0112 -0.4684
  953MOL0     H28646   1.728   5.694   3.602  3.4276  3.1497 -0.1677
  953MOL0     H28647   1.758   5.948   3.532 -0.8540 -0.6254  1.2904
  953MOL0     H28648   1.671   5.903   3.390  0.7038 -0.4208  0.2542
  953MOL0     H28649   1.913   5.729   3.462  0.5422 -1.5637 -1.8598
  953MOL0     H28650   1.811   5.736   3.321  1.0801 -0.7462  0.9998
  953MOL0     H28651   2.109   6.052   3.283  3.3211 -4.0006  0.0516
  953MOL0     H28652   1.347   6.032   3.389  0.3637 -0.3513  0.4530
  953MOL0     H28653   1.023   6.167   3.372  0.3430  1.4770 -0.7871
  953MOL0     H28654   1.120   6.293   3.456 -0.5314  0.3056  1.0238
  953MOL0     H28655   1.179   6.181   3.319 -1.1846  1.4466 -0.9247
  954MOL0     O28656   5.710   7.521   0.351 -0.1308 -0.4861 -0.1784
  954MOL0     C28657   5.622   7.606   0.326 -0.6603 -0.0425 -0.7580
  954MOL0     O28658   5.644   7.744   0.308 -0.3174 -0.1478  0.8835
  954MOL0     C28659   5.780   7.773   0.312 -0.4205  0.4704 -0.3928
  954MOL0     C28660   5.841   7.826   0.426  0.4442  0.3315  0.1789
  954MOL0     C28661   5.980   7.848   0.433 -0.2869  0.0518 -0.6148
  954MOL0     C28662   6.058   7.813   0.319 -0.3939  0.5025 -0.7500
  954MOL0     O28663   6.197   7.825   0.321 -0.0289  0.2151  0.6603
  954MOL0     C28664   6.266   7.854   0.439  0.0984 -0.0871  0.7026
  954MOL0     C28665   6.414   7.892   0.411  0.0697 -0.3698 -0.0178
  954MOL0     C28666   6.488   7.763   0.362 -0.3534  0.7217  0.0148
  954MOL0     C28667   6.623   7.797   0.297 -0.5901  0.1745  0.1495
  954MOL0     C28668   6.704   7.682   0.241  0.9194  0.1428  0.0566
  954MOL0     C28669   6.823   7.720   0.158  0.4703  0.3324  0.0594
  954MOL0     C28670   6.919   7.817   0.233 -0.1240 -0.2280 -0.6143
  954MOL0     C28671   6.990   7.754   0.363  0.5263 -0.1410  0.4521
  954MOL0     N28672   7.083   7.841   0.426 -0.3925  0.4291 -0.2521
  954MOL0     C28673   7.051   7.970   0.460  0.1185 -0.3398  0.5003
  954MOL0     C28674   7.155   8.025   0.524 -0.0648 -0.0880  0.5893
  954MOL0     C28675   7.190   8.154   0.593 -0.6777 -0.7546  0.6207
  954MOL0     C28676   7.290   8.241   0.507  1.2377  1.0993  1.3604
  954MOL0     C28677   7.336   8.375   0.563 -0.4602  0.0844 -0.2846
  954MOL0     C28678   7.223   8.483   0.543 -0.0100  0.2210 -0.0242
  954MOL0     O28679   7.213   8.514   0.408  0.5281 -0.4707 -0.5887
  954MOL0     C28680   7.161   8.636   0.377 -0.2405  1.2182  0.2457
  954MOL0     C28681   7.238   8.724   0.308 -0.3897 -0.0467  0.9868
  954MOL0     C28682   7.188   8.832   0.241  0.1357 -0.1708 -0.2572
  954MOL0     C28683   7.050   8.860   0.254 -0.6400 -0.5249 -0.3339
  954MOL0     C28684   6.990   8.971   0.171 -1.3585 -0.0638 -0.5111
  954MOL0     O28685   6.865   9.015   0.210  0.4819 -0.7083  0.2275
  954MOL0     C28686   6.790   9.104   0.136 -0.6557  0.1603  0.2946
  954MOL0     C28687   6.834   9.185   0.029  0.3985 -0.1781 -0.0929
  954MOL0     C28688   6.747   9.288  -0.023 -0.4588 -0.8664  0.3052
  954MOL0     C28689   6.612   9.298   0.028 -0.4287 -0.3990  0.1233
  954MOL0     O28690   6.521   9.390  -0.019 -0.6662  0.0153 -0.0942
  954MOL0     C28691   6.569   9.464  -0.133 -0.2066 -0.2011 -0.2064
  954MOL0     C28692   6.464   9.560  -0.197 -0.1539 -0.3337 -0.1492
  954MOL0     C28693   6.422   9.675  -0.102  0.1133  0.9246 -0.3386
  954MOL0     C28694   6.296   9.736  -0.160 -0.0579  0.3530 -0.5500
  954MOL0     C28695   6.225   9.827  -0.062  0.4876 -0.4684  0.2056
  954MOL0     C28696   6.279   9.961  -0.041 -1.1595 -0.2759 -0.2504
  954MOL0     C28697   6.290  10.054  -0.172 -0.1416  0.4765 -0.0631
  954MOL0     C28698   6.332  10.199  -0.155 -0.2373  0.3772  0.7839
  954MOL0    Cl28699   6.490  10.217  -0.077  0.0855  0.3467  0.3202
  954MOL0     C28700   6.572   9.206   0.124 -0.1011 -0.5863 -0.2514
  954MOL0     C28701   6.662   9.118   0.184  0.4240 -0.0010 -0.1717
  954MOL0     O28702   7.045   9.006   0.070 -0.7027 -0.5585  0.4872
  954MOL0     C28703   6.969   8.781   0.337  0.9267 -1.0899 -0.5722
  954MOL0     C28704   7.022   8.669   0.395  0.0818  1.5255 -0.7275
  954MOL0     N28705   7.239   7.921   0.548 -0.0440  0.2236  0.2937
  954MOL0     N28706   7.194   7.814   0.495 -0.0009  0.7825  0.0181
  954MOL0     C28707   5.995   7.760   0.212 -0.3585  0.3742 -0.5218
  954MOL0     C28708   5.863   7.739   0.206  0.5717  0.7147 -0.1094
  954MOL0     C28709   5.488   7.553   0.323  0.0136 -0.0582 -0.2378
  954MOL0     C28710   5.450   7.456   0.406 -0.2672  0.5208 -0.8034
  954MOL0     C28711   5.322   7.408   0.410  0.4322  0.0552 -0.4243
  954MOL0     C28712   5.215   7.472   0.338  0.1585  0.7153 -0.8950
  954MOL0     O28713   5.088   7.427   0.371 -0.0255 -0.1976 -0.0311
  954MOL0     C28714   4.994   7.537   0.358 -0.6167  0.4088 -0.0779
  954MOL0     C28715   4.872   7.503   0.435  0.9445 -0.3680  0.0360
  954MOL0     C28716   4.748   7.582   0.387 -0.2937 -0.8161  0.2999
  954MOL0     C28717   4.786   7.737   0.402  0.4513  0.5869  0.2699
  954MOL0     C28718   4.661   7.820   0.396  0.5319  0.7651  0.3094
  954MOL0     C28719   4.554   7.874   0.357 -0.8103 -1.0080  0.1697
  954MOL0     C28720   5.256   7.579   0.257  0.1040  0.4575  0.9969
  954MOL0     C28721   5.389   7.611   0.237  0.0458 -0.3916  0.3672
  954MOL0     C28722   5.435   7.715   0.133  0.7865  0.2882 -0.2924
  954MOL0     H28723   5.772   7.832   0.509  1.0298  0.0654  0.6948
  954MOL0     H28724   6.021   7.881   0.527  1.2175  0.0833 -1.2579
  954MOL0     H28725   6.220   7.935   0.496  0.9054  0.7822  0.1584
  954MOL0     H28726   6.266   7.761   0.496  0.2329  0.9445  2.4700
  954MOL0     H28727   6.466   7.935   0.497  0.0377  0.5519 -0.4430
  954MOL0     H28728   6.411   7.967   0.331 -1.1163 -1.1642 -0.7621
  954MOL0     H28729   6.425   7.715   0.286 -1.9593 -0.6065  2.0796
  954MOL0     H28730   6.505   7.694   0.445  1.0571  1.6389  0.5247
  954MOL0     H28731   6.612   7.879   0.226 -1.3467 -0.1412 -0.1083
  954MOL0     H28732   6.688   7.838   0.375 -1.7315  2.5658 -0.0728
  954MOL0     H28733   6.728   7.622   0.330  0.1807  0.7059  0.6534
  954MOL0     H28734   6.646   7.627   0.167  2.5491 -1.5564 -0.0387
  954MOL0     H28735   6.866   7.628   0.120 -0.5894  0.6208 -2.0002
  954MOL0     H28736   6.776   7.772   0.074 -2.8873 -1.7951  0.4055
  954MOL0     H28737   6.864   7.908   0.261  2.3675  0.7872  1.4772
  954MOL0     H28738   6.997   7.857   0.168 -0.8140  1.0305 -0.7072
  954MOL0     H28739   6.912   7.724   0.434 -1.4113 -0.4912 -1.7136
  954MOL0     H28740   7.044   7.663   0.336  3.8391  2.0762 -1.0803
  954MOL0     H28741   6.973   8.036   0.423  1.1295  0.1994 -0.7503
  954MOL0     H28742   7.097   8.211   0.600 -0.6447 -0.1511 -2.4594
  954MOL0     H28743   7.250   8.131   0.681  3.8227 -1.4234 -2.3081
  954MOL0     H28744   7.379   8.181   0.485  1.3940  2.5354 -2.7122
  954MOL0     H28745   7.241   8.263   0.412 -1.0325 -0.2727  2.1261
  954MOL0     H28746   7.436   8.411   0.539 -1.6877  3.8771 -0.3204
  954MOL0     H28747   7.344   8.356   0.670 -0.3222 -1.7022 -0.5695
  954MOL0     H28748   7.246   8.576   0.596 -0.8120  0.6523 -0.4060
  954MOL0     H28749   7.124   8.450   0.576 -0.1503  2.0269  1.5282
  954MOL0     H28750   7.343   8.705   0.292 -0.6792 -0.8199 -0.1609
  954MOL0     H28751   7.259   8.895   0.189  0.0993 -0.3628 -0.5404
  954MOL0     H28752   6.935   9.194  -0.010  0.2404 -0.5991 -0.6099
  954MOL0     H28753   6.795   9.360  -0.088 -2.0356 -0.8069 -0.8565
  954MOL0     H28754   6.656   9.520  -0.097 -0.0297 -0.1035 -0.7807
  954MOL0     H28755   6.607   9.396  -0.209 -0.4750 -3.1617  2.1134
  954MOL0     H28756   6.504   9.606  -0.288 -0.3015  4.0099  1.7114
  954MOL0     H28757   6.376   9.507  -0.234  0.8520 -1.7806 -0.5387
  954MOL0     H28758   6.398   9.636  -0.002 -4.6112 -0.9975 -1.9469
  954MOL0     H28759   6.499   9.754  -0.104  0.2766  0.8120  0.8222
  954MOL0     H28760   6.229   9.652  -0.182 -1.7823  0.5670  3.1232
  954MOL0     H28761   6.320   9.779  -0.257 -1.9434  0.0908 -1.1630
  954MOL0     H28762   6.214   9.769   0.030  1.8109 -1.8594 -0.4624
  954MOL0     H28763   6.131   9.856  -0.111  0.6065 -1.9622 -0.9840
  954MOL0     H28764   6.211  10.008   0.031 -1.0863 -1.3856  0.5640
  954MOL0     H28765   6.370   9.956   0.020 -1.1752  1.2708 -0.0363
  954MOL0     H28766   6.195  10.040  -0.224  1.3808  2.0996 -3.6270
  954MOL0     H28767   6.363  10.007  -0.238  0.7879 -0.2018  1.3882
  954MOL0     H28768   6.351  10.240  -0.254  0.5925  0.5800  1.0189
  954MOL0     H28769   6.256  10.257  -0.101  1.4151  1.9461  1.5070
  954MOL0     H28770   6.470   9.219   0.159  0.0676  1.3121 -0.3814
  954MOL0     H28771   6.634   9.062   0.273 -1.1810  0.1886 -0.5331
  954MOL0     H28772   6.863   8.806   0.333  0.1005 -3.7270  1.7213
  954MOL0     H28773   6.958   8.599   0.447 -0.4975  0.9041 -2.2262
  954MOL0     H28774   6.058   7.753   0.124 -3.1940  3.4390 -3.1006
  954MOL0     H28775   5.823   7.687   0.119 -0.9023  2.5026 -0.5534
  954MOL0     H28776   5.528   7.418   0.472 -0.9261  0.4788 -0.0339
  954MOL0     H28777   5.285   7.336   0.482  4.3054 -0.4479  1.3454
  954MOL0     H28778   4.977   7.547   0.251 -2.7442  1.0768  0.2692
  954MOL0     H28779   5.039   7.628   0.399  1.0050 -1.8465  3.7089
  954MOL0     H28780   4.880   7.511   0.544  1.1641  0.1947 -0.0170
  954MOL0     H28781   4.845   7.401   0.408  1.2339  0.4277 -3.8080
  954MOL0     H28782   4.671   7.561   0.462 -0.3287 -0.9712  0.2203
  954MOL0     H28783   4.705   7.556   0.290 -0.8200 -0.8351  0.5349
  954MOL0     H28784   4.845   7.761   0.491  0.1643  0.2675  0.5523
  954MOL0     H28785   4.850   7.755   0.315  1.5263  0.4460  1.0112
  954MOL0     H28786   4.477   7.925   0.302  0.5532  1.5346  0.4911
  954MOL0     H28787   5.193   7.640   0.193  1.7052  1.1306 -0.0132
  954MOL0     H28788   5.419   7.818   0.167  0.6683  0.1553  0.0610
  954MOL0     H28789   5.539   7.691   0.109  2.2969  2.0640  3.6348
  954MOL0     H28790   5.372   7.705   0.045  0.0858  0.5333  0.1690
  955MOL0     O28791  10.867   1.279   3.272 -0.6720 -0.9048 -0.6561
  955MOL0     C28792  10.893   1.354   3.371 -0.9822  0.0010 -0.3363
  955MOL0     O28793  10.925   1.319   3.499  0.4665  0.0896  0.6572
  955MOL0     C28794  10.967   1.192   3.519  0.3951  0.4274 -0.4249
  955MOL0     C28795  11.106   1.173   3.554  0.5050  0.3948  0.2343
  955MOL0     C28796  11.149   1.047   3.562  0.1002 -0.3957  0.9295
  955MOL0     C28797  11.069   0.936   3.533 -0.8678 -0.1681  0.5859
  955MOL0     O28798  11.109   0.810   3.541 -0.2892  0.5670  0.1754
  955MOL0     C28799  11.238   0.769   3.498 -0.3588 -0.0235  0.0024
  955MOL0     C28800  11.324   0.781   3.623  0.6424 -0.2361  0.3387
  955MOL0     C28801  11.463   0.721   3.607  0.8308  0.3137  0.7626
  955MOL0     C28802  11.554   0.736   3.726  0.2521  0.3549 -0.0143
  955MOL0     C28803  11.694   0.674   3.693 -0.1532 -0.4601 -0.3617
  955MOL0     C28804  11.772   0.760   3.587 -0.7409  0.7520  0.2080
  955MOL0     C28805  11.780   0.678   3.457  0.0304 -0.1517  0.1702
  955MOL0     C28806  11.856   0.547   3.463  0.0714  0.2843 -0.2920
  955MOL0     N28807  11.993   0.568   3.510 -0.7934 -0.0389 -0.3113
  955MOL0     C28808  12.034   0.553   3.640  0.6817 -0.2282 -0.1915
  955MOL0     C28809  12.169   0.570   3.649 -0.0547 -0.6792 -0.8660
  955MOL0     C28810  12.227   0.577   3.784  0.0298  0.7808  0.0125
  955MOL0     C28811  12.374   0.533   3.783  0.1982 -0.0072 -0.7164
  955MOL0     C28812  12.454   0.650   3.724 -0.2492 -0.0982  0.0714
  955MOL0     C28813  12.577   0.679   3.806 -0.3905 -0.2093  0.3439
  955MOL0     O28814  12.675   0.741   3.729  0.2583  0.0469  0.3942
  955MOL0     C28815  12.800   0.744   3.766  0.3640 -0.5068  0.7836
  955MOL0     C28816  12.857   0.679   3.877 -0.0898 -0.0573 -0.1637
  955MOL0     C28817  12.995   0.687   3.900  0.4016 -0.2632 -0.1002
  955MOL0     C28818  13.083   0.762   3.809 -0.3756  0.2562 -0.3934
  955MOL0     C28819  13.229   0.776   3.829 -0.3104 -0.0696 -0.4395
  955MOL0     O28820  13.296   0.847   3.740  0.1632  0.3921 -0.1885
  955MOL0     C28821  13.422   0.873   3.776 -1.2745  0.0127  0.2358
  955MOL0     C28822  13.456   0.998   3.839  0.8409  0.5611  0.0579
  955MOL0     C28823  13.590   1.025   3.873  0.8780 -0.9929  0.4353
  955MOL0     C28824  13.687   0.931   3.870 -0.1406 -0.8714  0.3690
  955MOL0     O28825  13.805   0.962   3.930 -0.4453  0.9835  0.0904
  955MOL0     C28826  13.914   0.868   3.922  0.7910 -1.1174  0.9810
  955MOL0     C28827  14.017   0.909   4.033  0.1383  0.1704 -0.2704
  955MOL0     C28828  14.155   0.868   3.979  0.2958 -0.0299 -0.6237
  955MOL0     C28829  14.249   0.871   4.091  0.0263  0.1695 -0.3823
  955MOL0     C28830  14.389   0.832   4.047  0.3879 -0.6411  0.3478
  955MOL0     C28831  14.460   0.935   3.950 -0.4724  0.0130  0.1607
  955MOL0     C28832  14.608   0.912   3.937  0.0792  0.1449  0.8059
  955MOL0     C28833  14.641   0.755   3.900 -0.2964 -0.0901  0.3471
  955MOL0    Cl28834  14.812   0.760   3.907 -0.0789  0.0271 -0.1727
  955MOL0     C28835  13.655   0.814   3.806 -0.1379  0.2286 -0.1139
  955MOL0     C28836  13.525   0.781   3.754 -0.4285 -0.7496  0.8011
  955MOL0     O28837  13.274   0.731   3.937 -0.5321 -0.9448 -0.2347
  955MOL0     C28838  13.021   0.817   3.698  0.7605  0.0757 -0.2320
  955MOL0     C28839  12.885   0.805   3.674  0.4835 -0.3316  0.5788
  955MOL0     N28840  12.211   0.593   3.522 -0.1147 -0.0010  0.1179
  955MOL0     N28841  12.108   0.590   3.442  0.2442 -0.2466 -0.0515
  955MOL0     C28842  10.932   0.956   3.494 -0.2764 -0.1746 -0.0181
  955MOL0     C28843  10.882   1.082   3.489  0.0006 -1.2560  0.5846
  955MOL0     C28844  10.864   1.501   3.356  0.0667  0.5973  1.0895
  955MOL0     C28845  10.845   1.579   3.478 -0.7116 -0.4040  0.4771
  955MOL0     C28846  10.815   1.712   3.473  0.4050 -0.0944  0.2836
  955MOL0     C28847  10.787   1.773   3.347 -0.1160 -0.3589  0.4967
  955MOL0     O28848  10.719   1.888   3.340 -0.5047  0.2970  0.0811
  955MOL0     C28849  10.808   2.009   3.325  0.2259  0.3667 -0.1593
  955MOL0     C28850  10.861   2.055   3.457  0.4265 -0.0913 -0.3804
  955MOL0     C28851  10.926   2.184   3.446 -0.1448 -0.1174 -0.6880
  955MOL0     C28852  10.945   2.245   3.586  0.2144  0.6302 -0.3527
  955MOL0     C28853  10.974   2.389   3.578  0.4281  0.2877  0.1839
  955MOL0     C28854  10.988   2.508   3.572  0.0476  0.5114 -0.7093
  955MOL0     C28855  10.793   1.700   3.220 -0.2916  0.4363 -0.9725
  955MOL0     C28856  10.837   1.568   3.228 -0.4058  0.5066  0.4191
  955MOL0     C28857  10.848   1.496   3.096  0.7032  0.4493  0.3728
  955MOL0     H28858  11.171   1.252   3.588 -0.1035 -0.4002  3.5304
  955MOL0     H28859  11.256   1.039   3.578  1.0377  2.3782 -2.4645
  955MOL0     H28860  11.242   0.665   3.465 -0.9228 -1.3246  3.6201
  955MOL0     H28861  11.274   0.834   3.418  2.3183 -0.1751  0.9959
  955MOL0     H28862  11.271   0.745   3.712 -0.2396 -0.2880 -0.1960
  955MOL0     H28863  11.352   0.885   3.643  0.3966 -0.2908  0.9935
  955MOL0     H28864  11.507   0.759   3.514 -1.3204  3.0931  0.7618
  955MOL0     H28865  11.448   0.614   3.593  1.3446  0.3338 -0.0098
  955MOL0     H28866  11.559   0.843   3.746 -2.8699  0.2158  2.4216
  955MOL0     H28867  11.499   0.692   3.810 -0.4424 -0.5092 -0.8992
  955MOL0     H28868  11.752   0.674   3.785 -0.6999  1.2417  0.0190
  955MOL0     H28869  11.673   0.570   3.667 -0.0020 -1.4113  2.8832
  955MOL0     H28870  11.712   0.849   3.569 -0.2543  0.9985 -0.2128
  955MOL0     H28871  11.877   0.782   3.611 -1.2567  1.3396  2.0450
  955MOL0     H28872  11.835   0.732   3.380  1.2068 -3.1245 -1.2047
  955MOL0     H28873  11.675   0.656   3.435 -0.0560 -0.3809  0.7862
  955MOL0     H28874  11.793   0.493   3.534 -1.0394  1.6250 -0.2277
  955MOL0     H28875  11.856   0.501   3.364  1.1656  3.3610 -1.8592
  955MOL0     H28876  11.971   0.543   3.728  4.3762  1.6553  2.9821
  955MOL0     H28877  12.208   0.668   3.843  0.7057  2.6665 -2.4793
  955MOL0     H28878  12.176   0.492   3.829 -2.7922  0.7672 -2.8721
  955MOL0     H28879  12.415   0.514   3.882 -3.2703 -0.8916  0.6896
  955MOL0     H28880  12.394   0.440   3.731  1.7220 -0.1062 -0.0131
  955MOL0     H28881  12.384   0.734   3.731 -1.9096 -1.4549  0.6352
  955MOL0     H28882  12.470   0.631   3.617  0.3162  1.7321 -0.1992
  955MOL0     H28883  12.618   0.587   3.848  0.8174  1.3842  2.9048
  955MOL0     H28884  12.565   0.733   3.900 -0.5172  0.4013 -0.0174
  955MOL0     H28885  12.790   0.619   3.938 -1.2777 -1.3739 -2.5818
  955MOL0     H28886  13.033   0.634   3.986  1.0000 -0.4165 -0.4523
  955MOL0     H28887  13.372   1.066   3.844  2.1170  2.2172  0.0266
  955MOL0     H28888  13.605   1.116   3.930 -1.5566  0.2972 -0.8261
  955MOL0     H28889  13.897   0.762   3.941 -1.3223 -0.8023  1.0429
  955MOL0     H28890  13.956   0.876   3.821  1.4661  2.9682  1.4329
  955MOL0     H28891  14.013   1.018   4.045 -0.3034  0.1044  0.2142
  955MOL0     H28892  13.979   0.852   4.119  1.3991 -0.7104 -0.2768
  955MOL0     H28893  14.144   0.764   3.948  0.5847 -0.0978 -0.5005
  955MOL0     H28894  14.176   0.931   3.892  0.7169 -2.8028 -2.6471
  955MOL0     H28895  14.215   0.803   4.170 -1.1234  1.2672  0.0973
  955MOL0     H28896  14.261   0.970   4.135  0.3151  0.1035 -0.3100
  955MOL0     H28897  14.392   0.739   3.990 -4.0800  0.5835 -2.3821
  955MOL0     H28898  14.445   0.820   4.140 -0.3492 -0.0254  0.8871
  955MOL0     H28899  14.418   0.935   3.849 -0.5040  3.8695  0.0296
  955MOL0     H28900  14.434   1.034   3.988  0.5455  0.7933 -1.0943
  955MOL0     H28901  14.663   0.947   4.026  3.4236 -0.8129 -0.7263
  955MOL0     H28902  14.649   0.975   3.858 -0.8015  0.0501  0.2672
  955MOL0     H28903  14.608   0.680   3.972  0.5958 -1.4752 -0.6462
  955MOL0     H28904  14.608   0.734   3.798  0.5841 -4.8619  0.8381
  955MOL0     H28905  13.728   0.734   3.799 -1.0469 -0.7930  1.3794
  955MOL0     H28906  13.501   0.691   3.699  2.2088 -1.0268 -0.0162
  955MOL0     H28907  13.078   0.860   3.617 -1.7686  0.9976 -1.6322
  955MOL0     H28908  12.851   0.864   3.590  3.0348  1.0372  0.4144
  955MOL0     H28909  10.863   0.873   3.484 -2.0351  1.4024 -2.0101
  955MOL0     H28910  10.778   1.098   3.462 -0.2152 -2.5016  0.6227
  955MOL0     H28911  10.852   1.528   3.574 -1.6673 -0.2660  0.6239
  955MOL0     H28912  10.794   1.757   3.570 -3.0571  0.1313 -0.4198
  955MOL0     H28913  10.752   2.093   3.284 -1.3722  0.3143  1.7718
  955MOL0     H28914  10.891   1.990   3.256 -0.5620  0.8970 -1.2860
  955MOL0     H28915  10.930   1.984   3.502  0.1212 -0.2784 -0.2014
  955MOL0     H28916  10.779   2.051   3.530 -0.6116  1.1574 -1.4401
  955MOL0     H28917  10.854   2.254   3.402 -0.9662 -0.0017  0.7813
  955MOL0     H28918  11.018   2.182   3.387  1.8490 -0.2564  2.2173
  955MOL0     H28919  10.855   2.252   3.648  0.9328  1.1655  0.6610
  955MOL0     H28920  11.023   2.197   3.645 -0.7752 -0.1217  0.3752
  955MOL0     H28921  10.991   2.615   3.585  1.8277  0.2515  1.7110
  955MOL0     H28922  10.741   1.740   3.134 -0.2534  1.7335 -0.4129
  955MOL0     H28923  10.916   1.412   3.105 -0.9852 -0.7707  3.0854
  955MOL0     H28924  10.750   1.455   3.070  0.8230 -0.0775  0.7433
  955MOL0     H28925  10.877   1.573   3.024  2.7176  0.6116  1.2777
  956MOL0     O28926   5.417  10.245   5.738  1.0491 -0.4041 -0.1790
  956MOL0     C28927   5.497  10.336   5.745 -0.2960  0.2200 -0.6586
  956MOL0     O28928   5.529  10.410   5.858 -0.0264 -0.4833 -0.5665
  956MOL0     C28929   5.510  10.347   5.980 -0.0631  0.3236  1.2513
  956MOL0     C28930   5.388  10.371   6.046 -0.3220 -0.7791 -0.1334
  956MOL0     C28931   5.366  10.305   6.169  0.4753 -1.0268  0.0357
  956MOL0     C28932   5.461  10.218   6.226 -0.4967 -0.0797  0.1448
  956MOL0     O28933   5.448  10.156   6.351  0.4863  0.4202  0.4948
  956MOL0     C28934   5.311  10.144   6.410  0.0008 -0.4159 -0.2954
  956MOL0     C28935   5.284  10.239   6.528  0.6508 -0.3321 -0.0380
  956MOL0     C28936   5.133  10.244   6.566  0.3417  0.0568  0.2857
  956MOL0     C28937   5.104  10.098   6.636 -0.8994 -0.4863 -0.0216
  956MOL0     C28938   4.952  10.068   6.628 -0.4122 -0.4291 -0.0955
  956MOL0     C28939   4.909  10.022   6.487  0.6137 -0.2923 -0.8730
  956MOL0     C28940   4.761  10.028   6.456 -0.5916  0.1168  0.2766
  956MOL0     C28941   4.745   9.999   6.309  0.2538 -0.3264 -0.0556
  956MOL0     N28942   4.601   9.962   6.296  0.2413 -0.1520 -0.2061
  956MOL0     C28943   4.502  10.009   6.217  0.7736 -0.0353 -0.7716
  956MOL0     C28944   4.388   9.944   6.250 -0.6495 -0.1129  0.3945
  956MOL0     C28945   4.259   9.972   6.190  0.2211  0.1362 -0.2285
  956MOL0     C28946   4.240   9.885   6.061 -0.3277  0.8017  0.1899
  956MOL0     C28947   4.176   9.747   6.100 -0.2003  0.9237  0.2952
  956MOL0     C28948   4.158   9.655   5.982 -0.1272 -0.1709 -0.3737
  956MOL0     O28949   4.135   9.526   6.038  1.1615  0.5611 -0.4570
  956MOL0     C28950   4.003   9.491   6.073 -0.4289 -0.4412  0.5128
  956MOL0     C28951   3.990   9.427   6.190  0.1880 -0.2071  0.2254
  956MOL0     C28952   3.862   9.394   6.239  0.9181 -0.2307 -0.1714
  956MOL0     C28953   3.745   9.421   6.162  0.2483 -0.0132  0.2049
  956MOL0     C28954   3.612   9.387   6.214 -0.3208 -0.2551 -0.0420
  956MOL0     O28955   3.597   9.327   6.334  0.3439  0.0919 -0.5362
  956MOL0     C28956   3.481   9.262   6.368  0.2085  0.1922 -0.9139
  956MOL0     C28957   3.403   9.189   6.273 -0.7989  0.0557 -0.3044
  956MOL0     C28958   3.293   9.109   6.311  0.0176 -0.6090 -0.2219
  956MOL0     C28959   3.260   9.105   6.445  0.2126 -0.8297  1.1351
  956MOL0     O28960   3.154   9.030   6.486 -0.2868 -0.3964 -0.5472
  956MOL0     C28961   3.025   9.060   6.456  0.5198 -0.4697 -0.0737
  956MOL0     C28962   2.961   8.922   6.487  0.8306  0.5266  0.0908
  956MOL0     C28963   2.813   8.922   6.445  0.5715 -0.5665  0.8382
  956MOL0     C28964   2.752   8.790   6.491 -0.5225 -0.1396  0.6883
  956MOL0     C28965   2.612   8.763   6.439  0.1511 -0.5057 -0.1162
  956MOL0     C28966   2.534   8.644   6.488  0.5368 -0.5425  0.2546
  956MOL0     C28967   2.484   8.672   6.632  0.1098 -0.4382  0.5603
  956MOL0     C28968   2.358   8.590   6.657 -0.3070 -0.6014 -0.4973
  956MOL0    Cl28969   2.226   8.671   6.575  0.0706 -0.4352 -0.0660
  956MOL0     C28970   3.335   9.172   6.543 -0.8115  0.6034  0.5049
  956MOL0     C28971   3.452   9.245   6.506  0.6467  0.1035 -0.1879
  956MOL0     O28972   3.523   9.420   6.137 -0.2172  1.2355 -0.1067
  956MOL0     C28973   3.766   9.472   6.032  0.3255 -0.3102 -0.0818
  956MOL0     C28974   3.896   9.505   5.988  0.2238 -0.1660  0.0572
  956MOL0     N28975   4.414   9.848   6.351  0.3485  0.7874 -0.1221
  956MOL0     N28976   4.541   9.857   6.374  0.0418 -0.1231  0.2409
  956MOL0     C28977   5.579  10.198   6.155 -0.0832  0.0698 -0.1824
  956MOL0     C28978   5.604  10.264   6.038  0.7975 -0.5637 -0.3690
  956MOL0     C28979   5.580  10.355   5.620  0.2245 -1.1158  0.0789
  956MOL0     C28980   5.585  10.254   5.524 -0.1032 -0.2291  1.1811
  956MOL0     C28981   5.662  10.260   5.407  0.1343 -0.0707  0.2877
  956MOL0     C28982   5.735  10.372   5.381  0.1730  0.2134  0.7867
  956MOL0     O28983   5.792  10.380   5.256 -0.0415  0.8018  0.3114
  956MOL0     C28984   5.859  10.501   5.210 -0.7607  0.7486 -0.2780
  956MOL0     C28985   5.956  10.471   5.094  0.3611 -0.4325 -0.2424
  956MOL0     C28986   6.038  10.344   5.108  0.1879  0.5537  0.1295
  956MOL0     C28987   6.137  10.348   5.227 -0.2081  0.4221  0.3996
  956MOL0     C28988   6.237  10.453   5.211  1.0184  0.0073  0.0489
  956MOL0     C28989   6.332  10.533   5.193 -0.5447 -0.0530 -0.7934
  956MOL0     C28990   5.728  10.476   5.471 -0.3801 -0.2810 -0.5122
  956MOL0     C28991   5.660  10.474   5.594  0.4790  0.0956 -0.1048
  956MOL0     C28992   5.661  10.596   5.684 -0.1768 -0.3210 -0.4903
  956MOL0     H28993   5.317  10.446   6.013 -0.8642 -0.8420  0.8355
  956MOL0     H28994   5.282  10.340   6.228  0.5540 -1.4148  0.3878
  956MOL0     H28995   5.238  10.173   6.334 -0.9157 -0.9947  0.3496
  956MOL0     H28996   5.295  10.041   6.441 -1.0250  0.8580  4.0095
  956MOL0     H28997   5.314  10.339   6.495  0.5420 -1.0565 -2.5219
  956MOL0     H28998   5.343  10.205   6.613 -0.8159  0.9172  1.5782
  956MOL0     H28999   5.065  10.270   6.485 -1.7020  1.7564  2.3959
  956MOL0     H29000   5.119  10.324   6.640 -0.4395 -0.0757  0.2883
  956MOL0     H29001   5.147  10.015   6.580 -0.1090 -0.8922  1.1382
  956MOL0     H29002   5.136  10.096   6.741 -0.5314  1.7589 -0.0298
  956MOL0     H29003   4.933   9.991   6.703  0.5203 -0.8540 -0.2780
  956MOL0     H29004   4.895  10.157   6.655 -2.3567 -1.2445 -1.3413
  956MOL0     H29005   4.956  10.082   6.408 -0.8465  3.5032  0.8933
  956MOL0     H29006   4.951   9.921   6.482  1.5975 -0.0701  1.4233
  956MOL0     H29007   4.712  10.123   6.477  1.5405  1.3323  0.1117
  956MOL0     H29008   4.714   9.946   6.510  0.8426 -0.9958 -0.0981
  956MOL0     H29009   4.772  10.080   6.241 -3.0295 -1.7929 -3.4512
  956MOL0     H29010   4.816   9.921   6.280 -0.7322 -1.0668 -0.5409
  956MOL0     H29011   4.512  10.080   6.135 -1.5673 -0.3700 -1.4257
  956MOL0     H29012   4.169   9.955   6.250 -0.3939 -2.7611 -1.7856
  956MOL0     H29013   4.249  10.078   6.163 -0.3810  0.2439  0.4052
  956MOL0     H29014   4.176   9.933   5.986  0.0723  2.1425  0.6674
  956MOL0     H29015   4.334   9.867   6.008 -1.0591  1.4541 -1.4092
  956MOL0     H29016   4.073   9.760   6.136 -1.9038 -4.7178 -1.4843
  956MOL0     H29017   4.238   9.701   6.177 -2.8459 -2.1447  0.8182
  956MOL0     H29018   4.245   9.640   5.918  2.2540  1.8447  2.1591
  956MOL0     H29019   4.080   9.695   5.917 -0.9655 -1.0542  0.0487
  956MOL0     H29020   4.076   9.406   6.252  0.1094 -0.6287  0.1958
  956MOL0     H29021   3.859   9.353   6.340 -2.3930 -1.4375 -0.6245
  956MOL0     H29022   3.433   9.184   6.168  2.5324  1.8999  0.4181
  956MOL0     H29023   3.227   9.048   6.249 -0.6973 -1.5131  1.3819
  956MOL0     H29024   2.981   9.142   6.514  0.2739  0.5179 -1.6009
  956MOL0     H29025   3.014   9.088   6.351  2.1287 -1.1360 -0.4462
  956MOL0     H29026   3.001   8.842   6.424 -3.4065 -2.2047  0.4134
  956MOL0     H29027   2.966   8.888   6.591  0.0033 -1.4118 -0.4517
  956MOL0     H29028   2.770   8.999   6.509  2.2052 -2.7766  5.0090
  956MOL0     H29029   2.805   8.933   6.336  3.6138 -0.7705  0.4831
  956MOL0     H29030   2.759   8.790   6.600  0.1794  1.6530  0.6760
  956MOL0     H29031   2.811   8.707   6.453 -0.0699  0.6633 -0.4134
  956MOL0     H29032   2.612   8.743   6.331  0.2347 -0.3613 -0.1425
  956MOL0     H29033   2.550   8.852   6.450 -0.6489 -0.8217 -1.7330
  956MOL0     H29034   2.452   8.645   6.415  2.3109  2.3918 -1.8939
  956MOL0     H29035   2.584   8.547   6.480 -0.1614 -1.1290  2.4080
  956MOL0     H29036   2.468   8.777   6.660 -2.5427 -0.6093 -0.0680
  956MOL0     H29037   2.566   8.633   6.694 -0.2524  0.5054  1.6897
  956MOL0     H29038   2.365   8.491   6.609  1.3968 -1.1073  0.7079
  956MOL0     H29039   2.347   8.568   6.763 -0.0543  2.8282  0.3495
  956MOL0     H29040   3.324   9.155   6.649 -2.2933 -0.2387  0.2390
  956MOL0     H29041   3.518   9.276   6.587  0.6743 -1.2129  0.3193
  956MOL0     H29042   3.681   9.481   5.966 -1.6685  1.9425  2.5564
  956MOL0     H29043   3.898   9.542   5.886 -0.7970 -0.0369  0.0815
  956MOL0     H29044   5.659  10.135   6.192  1.3077  1.3942 -0.8194
  956MOL0     H29045   5.705  10.255   5.999  0.3904  1.1531 -1.9915
  956MOL0     H29046   5.518  10.169   5.533  0.5608 -0.7786  0.9463
  956MOL0     H29047   5.648  10.190   5.326 -2.0133 -1.6126  1.8585
  956MOL0     H29048   5.918  10.538   5.294 -1.8190  0.1213  0.7790
  956MOL0     H29049   5.783  10.569   5.171 -0.9871  0.2198 -0.7845
  956MOL0     H29050   6.024  10.555   5.082  2.0288 -1.2321  2.5265
  956MOL0     H29051   5.896  10.464   5.003 -0.0017 -0.1795 -0.0247
  956MOL0     H29052   6.095  10.311   5.020  1.5200  1.4505  0.6199
  956MOL0     H29053   5.972  10.258   5.121  1.0734 -0.0176  1.0155
  956MOL0     H29054   6.078  10.360   5.318 -0.7174  1.1146 -0.0064
  956MOL0     H29055   6.185  10.250   5.221 -0.1432  0.5440 -2.8015
  956MOL0     H29056   6.389  10.623   5.180 -1.0886  0.2903 -0.8182
  956MOL0     H29057   5.768  10.574   5.449 -1.6833  0.6807  1.1935
  956MOL0     H29058   5.683  10.573   5.788 -1.6044  1.5770  0.2884
  956MOL0     H29059   5.735  10.668   5.648  1.2024 -1.6973 -0.4933
  956MOL0     H29060   5.560  10.638   5.687  0.0790  0.8575 -3.9777
  957MOL0     O29061   1.547   3.930   5.704  0.2178 -0.2274 -0.1996
  957MOL0     C29062   1.578   4.009   5.615  0.0818 -0.4406  0.3678
  957MOL0     O29063   1.666   3.988   5.515 -0.0268  0.1875 -0.2107
  957MOL0     C29064   1.688   3.858   5.482 -1.0470 -0.7150 -0.2167
  957MOL0     C29065   1.824   3.820   5.453  1.3140 -0.3344 -0.7041
  957MOL0     C29066   1.851   3.694   5.403 -0.0956  0.7690 -0.6609
  957MOL0     C29067   1.751   3.595   5.401 -0.6006  1.1111  0.2556
  957MOL0     O29068   1.770   3.470   5.351  0.1409  0.7780 -0.6354
  957MOL0     C29069   1.900   3.412   5.357  0.4460  0.0954  0.7654
  957MOL0     C29070   1.911   3.262   5.313 -0.8558 -0.7274  0.3372
  957MOL0     C29071   2.057   3.225   5.265  0.3577  0.3031  0.0609
  957MOL0     C29072   2.155   3.218   5.381  0.1213 -0.1041  0.4022
  957MOL0     C29073   2.297   3.202   5.331 -0.1546  0.6074  0.1398
  957MOL0     C29074   2.394   3.192   5.448  0.1410 -0.1763 -0.0652
  957MOL0     C29075   2.539   3.164   5.406  0.3476 -0.3295  0.2166
  957MOL0     C29076   2.617   3.155   5.532 -0.8079  0.5624 -0.1462
  957MOL0     N29077   2.755   3.132   5.490  0.3426  0.4518  0.9286
  957MOL0     C29078   2.854   3.219   5.515 -0.3079  0.2625  0.0115
  957MOL0     C29079   2.963   3.139   5.488 -0.5445 -0.1403 -0.5545
  957MOL0     C29080   3.100   3.195   5.502  0.0119  0.4437  0.5873
  957MOL0     C29081   3.190   3.140   5.396  0.2129 -0.0484 -0.7846
  957MOL0     C29082   3.325   3.213   5.384  0.7678 -0.6837  1.0847
  957MOL0     C29083   3.414   3.146   5.281  0.3403 -0.1036  0.5639
  957MOL0     O29084   3.538   3.210   5.296 -0.5601 -0.7223 -0.7871
  957MOL0     C29085   3.652   3.159   5.233 -0.3369  0.3812  0.3462
  957MOL0     C29086   3.776   3.190   5.278 -0.0352 -0.7462  0.4412
  957MOL0     C29087   3.890   3.118   5.235 -0.0136  0.4830  0.7169
  957MOL0     C29088   3.882   3.027   5.136 -0.0791  0.1517 -0.1666
  957MOL0     C29089   4.007   2.961   5.093  0.9687 -0.1258 -0.3222
  957MOL0     O29090   4.124   3.018   5.130  0.1777  0.0901 -0.2711
  957MOL0     C29091   4.236   2.946   5.116  0.1901  0.1728  0.0908
  957MOL0     C29092   4.305   2.923   5.238 -0.7763 -0.6358 -0.4873
  957MOL0     C29093   4.437   2.863   5.245  0.6138 -0.4369 -0.3081
  957MOL0     C29094   4.501   2.831   5.122 -0.9531 -0.5808 -1.6062
  957MOL0     O29095   4.638   2.793   5.123 -0.1558  0.1415  0.7234
  957MOL0     C29096   4.689   2.699   5.229 -0.7744  0.0807 -0.5597
  957MOL0     C29097   4.797   2.619   5.168  0.5759 -0.5934 -0.2085
  957MOL0     C29098   4.903   2.583   5.272 -0.6692 -0.7923 -0.6495
  957MOL0     C29099   5.005   2.487   5.220  0.7180 -0.5375 -0.2518
  957MOL0     C29100   5.120   2.457   5.314 -1.0007  0.1386 -0.0538
  957MOL0     C29101   5.231   2.562   5.333  1.0471 -0.7051  1.4043
  957MOL0     C29102   5.318   2.522   5.456 -1.1965 -0.0044  0.2140
  957MOL0     C29103   5.439   2.616   5.480 -0.3991 -0.0632 -0.9072
  957MOL0    Cl29104   5.564   2.574   5.363 -0.0356 -0.5602 -0.0125
  957MOL0     C29105   4.432   2.852   5.010 -0.0792 -0.2920  0.0338
  957MOL0     C29106   4.309   2.922   5.003 -0.3954 -0.1855 -0.9143
  957MOL0     O29107   3.994   2.853   5.031  0.0777  0.8437 -0.6650
  957MOL0     C29108   3.757   2.996   5.083  0.3050  0.0296  0.5428
  957MOL0     C29109   3.635   3.069   5.123 -0.4168  1.2243  0.1078
  957MOL0     N29110   2.926   3.017   5.450 -1.1610 -0.1547 -0.3705
  957MOL0     N29111   2.799   3.008   5.459 -0.0660  0.3326  1.0348
  957MOL0     C29112   1.623   3.629   5.442  0.7870 -0.4650  0.5672
  957MOL0     C29113   1.588   3.762   5.482 -0.7950  0.6285 -0.7149
  957MOL0     C29114   1.524   4.148   5.629 -0.4086  0.4753  0.7967
  957MOL0     C29115   1.603   4.251   5.592 -0.2601 -0.1625  0.0178
  957MOL0     C29116   1.544   4.381   5.607  1.0600  0.1864 -0.4539
  957MOL0     C29117   1.418   4.408   5.646 -0.2811 -0.7483 -0.7013
  957MOL0     O29118   1.375   4.537   5.650  0.2203  0.1058  0.1214
  957MOL0     C29119   1.248   4.567   5.710 -0.3650  0.0807  0.2217
  957MOL0     C29120   1.267   4.577   5.860  0.8109 -0.2884 -0.6033
  957MOL0     C29121   1.146   4.617   5.956 -0.0628  0.5971  0.6029
  957MOL0     C29122   1.030   4.521   5.945  0.5803 -0.8447  1.1348
  957MOL0     C29123   1.059   4.382   5.986 -0.1151  0.3462  0.3000
  957MOL0     C29124   1.071   4.261   5.992  0.8280 -0.1433 -1.0325
  957MOL0     C29125   1.342   4.295   5.684 -0.4147 -1.4009 -0.7457
  957MOL0     C29126   1.397   4.169   5.679  0.2361  0.0431 -0.3752
  957MOL0     C29127   1.306   4.052   5.721  0.1005  0.0074 -0.2385
  957MOL0     H29128   1.904   3.892   5.468 -0.3677  1.2726  1.0736
  957MOL0     H29129   1.952   3.680   5.367 -0.6568  1.6029 -2.7485
  957MOL0     H29130   1.959   3.467   5.282  0.8456  0.9297  1.6795
  957MOL0     H29131   1.943   3.423   5.457  1.1812 -0.0030  0.4673
  957MOL0     H29132   1.847   3.265   5.225 -0.5667  0.5303  0.1598
  957MOL0     H29133   1.864   3.190   5.381 -5.0558  0.7643 -0.6593
  957MOL0     H29134   2.085   3.296   5.186 -0.9672 -0.6540 -1.3258
  957MOL0     H29135   2.054   3.132   5.207  2.1184  1.1332 -1.4870
  957MOL0     H29136   2.156   3.317   5.428  3.5624 -0.0490  0.4554
  957MOL0     H29137   2.137   3.140   5.455 -1.2433 -1.6044 -1.3957
  957MOL0     H29138   2.294   3.102   5.287  0.6723  0.7614 -0.2855
  957MOL0     H29139   2.328   3.286   5.268 -0.9818 -0.0499 -1.1847
  957MOL0     H29140   2.396   3.290   5.497 -2.1464  1.9173 -3.7316
  957MOL0     H29141   2.357   3.116   5.517  1.9219  0.6368  1.9121
  957MOL0     H29142   2.577   3.239   5.336 -0.5188 -1.4099 -1.4683
  957MOL0     H29143   2.536   3.068   5.354 -1.6229 -0.4481  0.4663
  957MOL0     H29144   2.623   3.245   5.594  0.5431  0.5755 -0.2466
  957MOL0     H29145   2.581   3.073   5.596 -1.5358  0.2516 -0.9382
  957MOL0     H29146   2.836   3.324   5.539  1.7428  0.5018  0.7111
  957MOL0     H29147   3.092   3.301   5.479  0.0285  0.5961  1.2647
  957MOL0     H29148   3.152   3.180   5.598  2.4359  0.9143 -0.5756
  957MOL0     H29149   3.205   3.033   5.412  1.2202  0.3496  1.3521
  957MOL0     H29150   3.138   3.146   5.300 -1.6693  2.7893  0.3098
  957MOL0     H29151   3.380   3.209   5.478 -1.0990 -0.1141  2.2589
  957MOL0     H29152   3.308   3.317   5.352 -1.1276 -1.0424  0.8188
  957MOL0     H29153   3.371   3.168   5.183  1.7784  2.7107  0.4715
  957MOL0     H29154   3.411   3.037   5.290  0.4337 -0.1089  0.5307
  957MOL0     H29155   3.791   3.279   5.337  2.9273  0.2354 -1.5711
  957MOL0     H29156   3.986   3.138   5.281 -0.3095  4.5831 -0.0619
  957MOL0     H29157   4.253   2.957   5.327 -1.5271  0.9626 -1.4967
  957MOL0     H29158   4.477   2.846   5.344  3.1234 -0.0058 -1.1949
  957MOL0     H29159   4.730   2.757   5.312  0.5369  0.8542 -1.7115
  957MOL0     H29160   4.605   2.645   5.273 -1.5045  2.6767  1.5435
  957MOL0     H29161   4.759   2.529   5.117  1.3550 -0.6305 -0.7311
  957MOL0     H29162   4.847   2.681   5.094  2.5954 -0.9330  0.8161
  957MOL0     H29163   4.946   2.678   5.304  2.3432 -2.4327  0.5561
  957MOL0     H29164   4.858   2.532   5.358 -1.4488 -0.2601 -0.7285
  957MOL0     H29165   5.060   2.523   5.133  0.6801  1.1267  0.3655
  957MOL0     H29166   4.950   2.400   5.183 -1.4559  0.1607  1.1330
  957MOL0     H29167   5.172   2.372   5.270  0.8452  1.4039 -0.4167
  957MOL0     H29168   5.067   2.446   5.409 -3.4071  2.3482 -1.0203
  957MOL0     H29169   5.284   2.558   5.238 -1.3916  0.2340 -0.0926
  957MOL0     H29170   5.182   2.658   5.352 -0.6836 -1.2386 -0.1076
  957MOL0     H29171   5.355   2.420   5.439  0.8979  0.5897  0.9284
  957MOL0     H29172   5.259   2.518   5.548  0.8107 -2.4376  1.5192
  957MOL0     H29173   5.406   2.721   5.480 -1.5884 -0.4015  0.7571
  957MOL0     H29174   5.472   2.603   5.584 -2.3419  1.6738  0.0012
  957MOL0     H29175   4.490   2.822   4.923  0.3689 -1.7651  0.8140
  957MOL0     H29176   4.272   2.940   4.902  0.0527  2.5731 -0.6510
  957MOL0     H29177   3.754   2.922   5.003  0.2437 -0.5465  1.0741
  957MOL0     H29178   3.545   3.044   5.067 -0.2393 -0.2899  0.4453
  957MOL0     H29179   1.546   3.553   5.434 -0.5036  0.4648  3.0136
  957MOL0     H29180   1.489   3.774   5.525 -0.1978 -1.0247  1.3056
  957MOL0     H29181   1.704   4.245   5.554  0.7387  3.3719  1.7220
  957MOL0     H29182   1.601   4.471   5.586 -1.9792  2.2035 -0.6682
  957MOL0     H29183   1.164   4.502   5.686 -1.3971 -0.5684  4.6287
  957MOL0     H29184   1.231   4.673   5.686 -0.6050  0.1060  0.4937
  957MOL0     H29185   1.362   4.624   5.886  0.7837 -0.8920  0.6298
  957MOL0     H29186   1.279   4.473   5.892  1.8374  0.3680  1.2592
  957MOL0     H29187   1.121   4.716   5.918 -1.5814 -0.3886 -1.1126
  957MOL0     H29188   1.185   4.641   6.056  1.8149  0.7277 -0.1100
  957MOL0     H29189   0.953   4.560   6.013 -2.0117 -0.4169 -1.8305
  957MOL0     H29190   0.990   4.532   5.844 -2.2925 -0.0024  2.2343
  957MOL0     H29191   1.077   4.155   5.994  0.2364 -0.1734 -0.4741
  957MOL0     H29192   1.236   4.307   5.704 -0.6108  0.2847 -2.4382
  957MOL0     H29193   1.341   3.993   5.807 -0.2867 -1.1887 -0.8774
  957MOL0     H29194   1.203   4.083   5.740  0.3032  0.0053  0.9843
  957MOL0     H29195   1.288   3.990   5.633 -2.8672  1.9009 -1.1142
  958MOL0     O29196   6.923   4.797  11.084 -0.1420  0.5415  0.4192
  958MOL0     C29197   6.898   4.821  10.968 -0.1885 -0.0730 -0.2158
  958MOL0     O29198   6.974   4.766  10.862 -0.3043  0.1212 -0.1912
  958MOL0     C29199   7.086   4.695  10.891  0.0357  1.6965  0.4773
  958MOL0     C29200   7.081   4.553  10.885  0.2275 -0.5856  0.2860
  958MOL0     C29201   7.200   4.486  10.855  0.1600  0.0968 -0.0466
  958MOL0     C29202   7.323   4.538  10.889  0.1887 -0.4313 -0.5855
  958MOL0     O29203   7.445   4.475  10.889  1.0158 -0.4502  0.0400
  958MOL0     C29204   7.428   4.334  10.916 -0.3934  0.0065  0.6217
  958MOL0     C29205   7.557   4.273  10.953 -0.0904  0.2081 -0.4902
  958MOL0     C29206   7.659   4.342  11.043  0.6827 -0.8730 -0.5102
  958MOL0     C29207   7.721   4.248  11.145  0.0937 -0.2718 -1.0295
  958MOL0     C29208   7.822   4.156  11.096 -0.7867  0.2246  0.4356
  958MOL0     C29209   7.926   4.240  11.009 -0.3493 -0.0802  0.5085
  958MOL0     C29210   8.000   4.358  11.079 -0.1489  0.0194 -0.2510
  958MOL0     C29211   8.069   4.451  10.975  0.1200  1.2347 -0.0092
  958MOL0     N29212   8.111   4.576  11.047 -0.0698 -0.6849 -0.4641
  958MOL0     C29213   8.233   4.593  11.117 -0.0016  0.8160  0.4630
  958MOL0     C29214   8.221   4.701  11.188  0.6030  1.3198  0.1560
  958MOL0     C29215   8.325   4.767  11.267 -0.4709  0.0274 -0.6019
  958MOL0     C29216   8.464   4.752  11.199  0.2492  0.3305  0.3778
  958MOL0     C29217   8.576   4.818  11.273 -0.2027 -0.4268 -0.3533
  958MOL0     C29218   8.703   4.820  11.188  0.3179  0.8730  0.3361
  958MOL0     O29219   8.806   4.886  11.258  0.0287  0.8231 -0.3640
  958MOL0     C29220   8.931   4.890  11.200 -0.1611 -0.3419 -0.8053
  958MOL0     C29221   9.034   4.962  11.252 -0.0730 -0.3353 -0.5431
  958MOL0     C29222   9.167   4.944  11.212 -0.2392 -0.4458 -0.3244
  958MOL0     C29223   9.204   4.862  11.107  0.4176  0.5806 -0.2496
  958MOL0     C29224   9.338   4.849  11.056  0.3829 -0.4036  0.3982
  958MOL0     O29225   9.343   4.780  10.939 -0.1997 -0.1096 -0.6474
  958MOL0     C29226   9.473   4.758  10.893  0.4919  0.4265 -0.1988
  958MOL0     C29227   9.539   4.850  10.810 -0.3767 -0.1408 -0.1097
  958MOL0     C29228   9.664   4.828  10.759 -0.4272 -0.2136 -0.7855
  958MOL0     C29229   9.739   4.706  10.796  0.3376  0.3350 -0.0033
  958MOL0     O29230   9.871   4.678  10.782  0.0357 -0.5799 -0.7744
  958MOL0     C29231   9.954   4.774  10.716 -0.5079 -0.4068 -0.7242
  958MOL0     C29232  10.099   4.729  10.708  0.8890 -0.3057  0.3106
  958MOL0     C29233  10.207   4.844  10.703  0.6913  0.4008 -0.1770
  958MOL0     C29234  10.345   4.777  10.671 -0.5094 -0.8579 -0.7800
  958MOL0     C29235  10.453   4.874  10.713  0.2514 -0.9922 -0.7165
  958MOL0     C29236  10.596   4.821  10.714 -0.0792 -0.0752  0.7039
  958MOL0     C29237  10.646   4.836  10.576 -1.4883  0.5397  0.9774
  958MOL0     C29238  10.791   4.783  10.567 -0.5278  0.1055  0.3715
  958MOL0    Cl29239  10.859   4.781  10.394  0.4121  0.5497  0.1170
  958MOL0     C29240   9.669   4.615  10.877  0.0249 -0.6424 -0.8458
  958MOL0     C29241   9.533   4.635  10.912 -0.6665 -0.5295 -0.5942
  958MOL0     O29242   9.431   4.897  11.112 -0.4396  0.0337 -0.2681
  958MOL0     C29243   9.089   4.798  11.041 -0.0786  0.3620 -0.0875
  958MOL0     C29244   8.964   4.817  11.088 -0.0887 -0.3590  0.5427
  958MOL0     N29245   8.097   4.749  11.165  0.1445 -0.4593 -0.4771
  958MOL0     N29246   8.030   4.679  11.080  0.3671  0.1575 -0.0832
  958MOL0     C29247   7.333   4.675  10.915  0.5266  0.3164 -0.1051
  958MOL0     C29248   7.216   4.753  10.902  0.3485  0.4902 -0.0700
  958MOL0     C29249   6.802   4.927  10.934  0.0795  0.6941  0.9775
  958MOL0     C29250   6.817   4.982  10.803  0.1945 -0.2508 -0.7413
  958MOL0     C29251   6.744   5.085  10.752 -0.1114 -0.2989  0.0361
  958MOL0     C29252   6.666   5.156  10.840 -0.6826  0.4672  0.3072
  958MOL0     O29253   6.615   5.268  10.781  0.3503 -0.4366 -0.0673
  958MOL0     C29254   6.510   5.350  10.833 -0.1082 -0.8412 -0.4758
  958MOL0     C29255   6.490   5.485  10.758 -0.2628 -0.5418  0.5193
  958MOL0     C29256   6.393   5.477  10.650 -0.4213 -0.1486  0.6595
  958MOL0     C29257   6.247   5.470  10.708  0.3961  0.3165  0.0332
  958MOL0     C29258   6.143   5.438  10.608  0.8284 -0.5148  0.2884
  958MOL0     C29259   6.057   5.420  10.523 -0.2114 -0.3868  0.2157
  958MOL0     C29260   6.643   5.108  10.974  0.4546 -1.1613 -0.2782
  958MOL0     C29261   6.701   4.986  11.016  0.1612 -0.4500 -0.7718
  958MOL0     C29262   6.662   4.934  11.149 -0.1271 -0.4601  0.3684
  958MOL0     H29263   6.985   4.503  10.877 -0.2278  0.2209  0.5908
  958MOL0     H29264   7.176   4.386  10.821  0.3007 -0.1559  0.5820
  958MOL0     H29265   7.357   4.293  10.989  0.5399 -1.5962  0.6815
  958MOL0     H29266   7.406   4.283  10.822 -0.5510  0.0022  0.6589
  958MOL0     H29267   7.618   4.260  10.863  1.0373 -2.0447  0.5206
  958MOL0     H29268   7.535   4.173  10.991  1.8726 -0.6508 -1.4338
  958MOL0     H29269   7.605   4.428  11.086 -2.6956 -3.1072  0.0855
  958MOL0     H29270   7.742   4.394  10.994 -1.0151  1.7824 -0.8008
  958MOL0     H29271   7.756   4.309  11.229 -0.6892 -0.4013 -0.5974
  958MOL0     H29272   7.640   4.186  11.185 -1.6345  1.9511 -0.8278
  958MOL0     H29273   7.877   4.105  11.175 -0.4204  0.1387  0.1260
  958MOL0     H29274   7.774   4.080  11.034 -0.8964 -0.1068  0.9314
  958MOL0     H29275   8.008   4.177  10.973  0.7759  1.4282  0.3427
  958MOL0     H29276   7.884   4.274  10.914  0.7146  1.5429  0.5816
  958MOL0     H29277   8.081   4.317  11.140  1.4711  1.2307 -1.4819
  958MOL0     H29278   7.936   4.412  11.149  0.7289  0.0143  0.5739
  958MOL0     H29279   8.148   4.393  10.928 -0.7310 -1.3986  1.5884
  958MOL0     H29280   7.990   4.478  10.904  0.4371 -0.5969 -1.1210
  958MOL0     H29281   8.318   4.527  11.108 -1.6853 -1.7900  2.0428
  958MOL0     H29282   8.297   4.871  11.287  0.0997  0.1631 -0.4844
  958MOL0     H29283   8.341   4.722  11.365 -0.1442  2.2562  0.4415
  958MOL0     H29284   8.487   4.646  11.184 -2.2377 -0.4771  1.7326
  958MOL0     H29285   8.452   4.795  11.099 -5.4188 -0.2351  0.4498
  958MOL0     H29286   8.581   4.767  11.369  0.0511 -1.6370 -0.9958
  958MOL0     H29287   8.547   4.920  11.300  3.3136  1.4791 -3.0067
  958MOL0     H29288   8.682   4.861  11.089  0.2401  2.3072  0.9320
  958MOL0     H29289   8.733   4.721  11.151 -1.3231  0.5250 -0.1604
  958MOL0     H29290   9.035   5.026  11.340  2.2202  1.4678 -1.7728
  958MOL0     H29291   9.243   4.999  11.267  0.2089 -1.0000 -0.3812
  958MOL0     H29292   9.501   4.952  10.814 -0.8631 -0.0654 -3.6726
  958MOL0     H29293   9.717   4.911  10.714  0.3832  0.1769  0.7823
  958MOL0     H29294   9.915   4.792  10.616 -5.4152 -1.4980  0.7328
  958MOL0     H29295   9.941   4.862  10.780  1.7941 -0.0059 -0.7010
  958MOL0     H29296  10.122   4.670  10.797 -1.2022  0.3018  1.3184
  958MOL0     H29297  10.108   4.661  10.623 -3.1118 -1.7142  0.7793
  958MOL0     H29298  10.181   4.913  10.622  1.8857  3.8240  2.1404
  958MOL0     H29299  10.202   4.898  10.798  0.0942  1.5236 -0.8297
  958MOL0     H29300  10.346   4.753  10.565 -0.1391  0.2991 -1.0526
  958MOL0     H29301  10.359   4.680  10.721  2.6598 -0.9543 -1.6653
  958MOL0     H29302  10.430   4.891  10.819  0.9836 -2.5956 -0.2607
  958MOL0     H29303  10.450   4.966  10.654  0.0641  0.9444  2.1051
  958MOL0     H29304  10.663   4.890  10.768  0.2725  0.5984 -0.5579
  958MOL0     H29305  10.609   4.723  10.760  1.6777  0.4131  1.3417
  958MOL0     H29306  10.637   4.938  10.540 -2.1802 -0.2152 -1.1255
  958MOL0     H29307  10.581   4.779  10.509  1.2626 -0.4964 -0.9766
  958MOL0     H29308  10.856   4.850  10.624 -0.1086  0.4638 -0.5083
  958MOL0     H29309  10.783   4.679  10.602 -1.4125 -0.2444 -0.8130
  958MOL0     H29310   9.710   4.518  10.905  0.1594  0.1460  1.9788
  958MOL0     H29311   9.477   4.560  10.966  0.8246  0.9943  3.5053
  958MOL0     H29312   9.100   4.733  10.955 -1.1559  0.8820 -0.6418
  958MOL0     H29313   8.887   4.772  11.027  1.5083  0.4663 -2.2522
  958MOL0     H29314   7.431   4.713  10.944  0.9115 -2.2701  2.4608
  958MOL0     H29315   7.228   4.861  10.911  0.3985  0.3928  1.2776
  958MOL0     H29316   6.883   4.923  10.740 -0.3219 -1.1427 -0.4767
  958MOL0     H29317   6.738   5.120  10.649 -2.0548  0.7356  0.4392
  958MOL0     H29318   6.543   5.375  10.934 -0.0774  0.8608 -0.8705
  958MOL0     H29319   6.415   5.295  10.838 -0.3455 -0.4344 -0.4093
  958MOL0     H29320   6.585   5.508  10.709 -1.0504  0.7605 -0.4498
  958MOL0     H29321   6.460   5.565  10.825 -0.9472 -0.5125  0.1821
  958MOL0     H29322   6.420   5.381  10.604  1.2508 -0.3668  2.0133
  958MOL0     H29323   6.415   5.564  10.588  0.8690 -1.5155 -0.9165
  958MOL0     H29324   6.235   5.390  10.782 -0.9427  0.0085 -0.4897
  958MOL0     H29325   6.237   5.568  10.756  3.1767  2.4640 -3.2588
  958MOL0     H29326   5.988   5.395  10.445  0.7652 -1.3303 -0.3775
  958MOL0     H29327   6.577   5.153  11.046  1.2564 -2.8699  1.6399
  958MOL0     H29328   6.716   4.984  11.230  0.3572  3.1252 -1.9052
  958MOL0     H29329   6.553   4.943  11.151 -0.1682 -1.0339  0.8750
  958MOL0     H29330   6.696   4.830  11.149  0.4181 -0.3397 -1.7874
  959MOL0     O29331   8.206   7.309   5.046  0.9107 -0.6745  0.3394
  959MOL0     C29332   8.316   7.315   5.106 -0.7544 -0.5839  0.3465
  959MOL0     O29333   8.403   7.416   5.088 -0.3303 -0.0363 -0.2480
  959MOL0     C29334   8.368   7.530   5.019 -0.3393 -0.2572 -0.0188
  959MOL0     C29335   8.475   7.596   4.959 -0.5066 -0.3128  0.7124
  959MOL0     C29336   8.459   7.723   4.899 -0.2511  0.2090  0.0884
  959MOL0     C29337   8.338   7.789   4.910 -0.1751  0.3370  0.1226
  959MOL0     O29338   8.318   7.910   4.844  0.5239  0.5757  0.4828
  959MOL0     C29339   8.424   8.004   4.833 -0.3855  0.0619  0.1180
  959MOL0     C29340   8.383   8.151   4.821 -0.6277  0.2867  0.3236
  959MOL0     C29341   8.264   8.177   4.917  0.4773  0.6150 -0.6344
  959MOL0     C29342   8.235   8.328   4.920  0.0635 -0.4812  0.0186
  959MOL0     C29343   8.085   8.371   4.905 -0.4640 -0.1146 -0.1189
  959MOL0     C29344   7.996   8.314   5.025  0.4499  0.0119  0.6129
  959MOL0     C29345   7.848   8.360   5.005 -0.7781  0.7940  0.0939
  959MOL0     C29346   7.755   8.333   5.127  0.4573  0.4299  0.0382
  959MOL0     N29347   7.790   8.424   5.239  0.7659  0.0380  0.0495
  959MOL0     C29348   7.777   8.561   5.232 -0.5910 -0.5043 -0.2914
  959MOL0     C29349   7.815   8.602   5.359  1.0490 -0.0546  0.7058
  959MOL0     C29350   7.820   8.751   5.386 -0.1290 -0.5327  0.1224
  959MOL0     C29351   7.960   8.808   5.394  0.9743 -0.5929  0.6852
  959MOL0     C29352   7.953   8.950   5.460 -0.5068 -0.0329 -1.0614
  959MOL0     C29353   8.074   9.035   5.418  0.1893  0.0149 -0.6821
  959MOL0     O29354   8.094   9.166   5.480 -0.6706  0.3941  0.4169
  959MOL0     C29355   8.199   9.250   5.432  0.3544  0.8514  0.2035
  959MOL0     C29356   8.210   9.372   5.488 -0.5787  0.7631  1.2862
  959MOL0     C29357   8.322   9.452   5.456  0.4831  0.3699 -0.1768
  959MOL0     C29358   8.419   9.405   5.367 -0.6701 -0.8540  0.0754
  959MOL0     C29359   8.535   9.482   5.333  1.4773  0.3120  0.4821
  959MOL0     O29360   8.616   9.430   5.232 -0.7090 -0.0564  0.6641
  959MOL0     C29361   8.727   9.498   5.209 -0.1213  0.1447 -1.0666
  959MOL0     C29362   8.851   9.426   5.204  1.0643 -0.5251 -0.2598
  959MOL0     C29363   8.970   9.491   5.170 -0.2392  0.3858  0.3792
  959MOL0     C29364   8.978   9.623   5.139 -0.1024 -0.5480 -1.1245
  959MOL0     O29365   9.095   9.679   5.107 -0.8351 -0.2164 -0.3633
  959MOL0     C29366   9.112   9.795   5.024  0.4952  0.1894  0.6590
  959MOL0     C29367   9.258   9.835   5.020 -0.0397 -0.0021 -0.1425
  959MOL0     C29368   9.273   9.982   4.990 -0.3704 -0.2843  0.0562
  959MOL0     C29369   9.419  10.041   4.971  0.0739 -0.5813 -0.0596
  959MOL0     C29370   9.399  10.190   4.942 -0.1637  0.5099  0.0986
  959MOL0     C29371   9.535  10.255   4.928 -0.2361 -0.8675 -0.2115
  959MOL0     C29372   9.583  10.343   5.042  0.0732 -0.2650 -0.9476
  959MOL0     C29373   9.740  10.347   5.057 -0.5131 -0.5017 -0.6995
  959MOL0    Cl29374   9.796  10.490   5.157 -0.1457 -0.7240  0.0796
  959MOL0     C29375   8.860   9.695   5.147 -0.6448 -0.4445  0.0285
  959MOL0     C29376   8.737   9.636   5.181  0.3571  0.3214  0.2903
  959MOL0     O29377   8.558   9.590   5.395 -0.6988  0.5180  0.0578
  959MOL0     C29378   8.413   9.279   5.328  1.1469  0.1391  0.4035
  959MOL0     C29379   8.302   9.199   5.349  1.1132 -0.0829  0.1468
  959MOL0     N29380   7.869   8.501   5.428 -0.0391 -0.0366 -0.1868
  959MOL0     N29381   7.856   8.390   5.353  0.0135  0.1701 -1.0107
  959MOL0     C29382   8.231   7.713   4.962  0.5155 -0.3322  0.2849
  959MOL0     C29383   8.242   7.587   5.016  0.2069  0.1818 -0.2480
  959MOL0     C29384   8.359   7.196   5.176  0.5524 -0.4315 -0.6648
  959MOL0     C29385   8.502   7.165   5.179  0.2058  0.6038 -0.0731
  959MOL0     C29386   8.544   7.041   5.240 -0.5591 -0.7000 -0.7511
  959MOL0     C29387   8.456   6.955   5.295 -0.6665  0.4595 -0.5691
  959MOL0     O29388   8.494   6.830   5.350  0.6971 -0.6961  0.1706
  959MOL0     C29389   8.632   6.811   5.384 -0.4438  0.4440 -0.6442
  959MOL0     C29390   8.666   6.878   5.521 -0.1273 -0.5691 -0.1668
  959MOL0     C29391   8.559   6.881   5.625 -0.2889 -0.6287 -0.3752
  959MOL0     C29392   8.517   6.740   5.670  0.7129  0.0996 -1.0282
  959MOL0     C29393   8.596   6.702   5.784  0.8312 -0.1295 -0.3481
  959MOL0     C29394   8.661   6.657   5.870 -1.3306 -0.8344 -0.1823
  959MOL0     C29395   8.322   6.978   5.292  0.0637 -0.2899 -0.3863
  959MOL0     C29396   8.275   7.099   5.234  0.2070 -0.1790 -0.7309
  959MOL0     C29397   8.124   7.126   5.258 -0.7362 -0.5744  0.0906
  959MOL0     H29398   8.572   7.549   4.945 -0.0919  0.5206  0.7405
  959MOL0     H29399   8.529   7.782   4.842 -1.7771  2.3116  0.2626
  959MOL0     H29400   8.485   7.988   4.922 -0.1614 -0.8852 -0.1874
  959MOL0     H29401   8.496   7.977   4.754  0.8728  1.1567  0.8533
  959MOL0     H29402   8.364   8.173   4.716 -0.4396  0.1307  0.2561
  959MOL0     H29403   8.464   8.222   4.843  2.5388 -2.6317 -0.9376
  959MOL0     H29404   8.281   8.145   5.021  0.2654  0.0128 -0.7801
  959MOL0     H29405   8.176   8.120   4.884 -0.9195  2.3005  0.0223
  959MOL0     H29406   8.266   8.358   5.021  0.6126  1.5148 -0.6772
  959MOL0     H29407   8.295   8.382   4.844 -0.9137  2.2007  1.0205
  959MOL0     H29408   8.075   8.479   4.901  4.4627  0.5322 -1.8793
  959MOL0     H29409   8.040   8.348   4.808  1.4462  0.3039 -1.1529
  959MOL0     H29410   7.994   8.205   5.033 -0.7631 -0.0945 -0.7203
  959MOL0     H29411   8.033   8.362   5.116 -0.0118  0.1382  0.7356
  959MOL0     H29412   7.815   8.306   4.916  0.5993  0.3616 -0.1698
  959MOL0     H29413   7.850   8.468   4.983  2.3449  1.2999  2.1413
  959MOL0     H29414   7.649   8.347   5.101  0.6144 -0.7113 -1.3317
  959MOL0     H29415   7.763   8.229   5.158  0.0439  0.2142 -0.5476
  959MOL0     H29416   7.730   8.628   5.160 -1.4775  1.4259  1.9568
  959MOL0     H29417   7.761   8.790   5.303  3.1651 -1.5781 -2.9776
  959MOL0     H29418   7.772   8.780   5.479 -1.1947 -2.7202  0.3166
  959MOL0     H29419   8.016   8.741   5.460 -0.3831 -0.3693  2.1007
  959MOL0     H29420   8.011   8.806   5.297 -2.4628 -2.6805 -1.2941
  959MOL0     H29421   7.956   8.945   5.570  0.4640 -1.0841 -1.1207
  959MOL0     H29422   7.864   9.011   5.439 -0.4746  0.3097 -0.2655
  959MOL0     H29423   8.075   9.042   5.309 -1.0251 -3.9929 -1.1103
  959MOL0     H29424   8.162   8.978   5.451 -1.1795 -1.4008  0.6563
  959MOL0     H29425   8.140   9.402   5.566 -0.0998  1.7614  1.3589
  959MOL0     H29426   8.314   9.549   5.505  2.6151  0.1276  0.7888
  959MOL0     H29427   8.845   9.318   5.213  1.6803 -0.4437  1.6472
  959MOL0     H29428   9.063   9.435   5.160 -1.1091 -0.9352 -0.6313
  959MOL0     H29429   9.078   9.764   4.926 -0.4591  0.2473  0.9666
  959MOL0     H29430   9.048   9.877   5.056 -1.8749 -0.3619 -2.3024
  959MOL0     H29431   9.302   9.817   5.118 -1.0254 -0.5185  0.2207
  959MOL0     H29432   9.318   9.780   4.947 -3.3667  0.8314 -3.8505
  959MOL0     H29433   9.210   9.992   4.901  2.5591 -0.7083 -2.2496
  959MOL0     H29434   9.220  10.045   5.061 -1.4100  0.9316 -1.7081
  959MOL0     H29435   9.466   9.983   4.891  0.6246 -3.1139  1.9841
  959MOL0     H29436   9.482  10.028   5.060  0.4208 -1.8865 -0.4723
  959MOL0     H29437   9.342  10.235   5.024 -0.7348  0.4045 -0.2306
  959MOL0     H29438   9.346  10.191   4.846 -1.1053 -3.5003  0.4224
  959MOL0     H29439   9.610  10.177   4.914 -0.7707 -1.1484 -1.6824
  959MOL0     H29440   9.529  10.321   4.840 -1.4429  0.4435  0.8181
  959MOL0     H29441   9.532  10.314   5.134  0.4342  0.3187 -0.5516
  959MOL0     H29442   9.554  10.447   5.028  1.3486  0.2262 -0.1618
  959MOL0     H29443   9.778  10.248   5.083  2.2967  0.6998  0.0787
  959MOL0     H29444   9.775  10.362   4.955  0.7444  2.2760  0.0654
  959MOL0     H29445   8.856   9.803   5.135 -1.0321 -0.2899  1.3124
  959MOL0     H29446   8.651   9.702   5.180  0.6745  0.7454  0.3855
  959MOL0     H29447   8.495   9.231   5.275 -0.0614 -1.6966  0.1224
  959MOL0     H29448   8.303   9.099   5.307 -0.4108 -0.0037 -0.1277
  959MOL0     H29449   8.142   7.774   4.955 -0.3662 -1.7701 -3.0611
  959MOL0     H29450   8.157   7.538   5.063  2.0368  0.3221  3.5626
  959MOL0     H29451   8.568   7.231   5.123 -1.8840  2.5372 -0.3957
  959MOL0     H29452   8.651   7.031   5.231 -0.0383  2.8892  0.0781
  959MOL0     H29453   8.694   6.846   5.301 -2.6599  0.3494 -2.4399
  959MOL0     H29454   8.637   6.701   5.390  2.3067  0.5716  2.3869
  959MOL0     H29455   8.697   6.981   5.504  2.1286 -1.1926 -0.0633
  959MOL0     H29456   8.746   6.823   5.571 -0.9161 -1.7006 -0.0853
  959MOL0     H29457   8.476   6.937   5.579  0.5276  2.1615  1.3003
  959MOL0     H29458   8.583   6.946   5.710 -1.8535 -1.0972  0.4570
  959MOL0     H29459   8.412   6.728   5.697  0.7832  1.5728  0.0466
  959MOL0     H29460   8.536   6.677   5.582 -2.9182 -1.1111 -1.1007
  959MOL0     H29461   8.727   6.624   5.947 -0.8660 -0.2665 -0.3357
  959MOL0     H29462   8.251   6.906   5.331  2.3485 -3.2538 -1.2759
  959MOL0     H29463   8.098   7.232   5.253  4.6859  1.1720  1.7899
  959MOL0     H29464   8.057   7.078   5.185  1.8332 -1.3540 -1.9186
  959MOL0     H29465   8.112   7.093   5.362  2.5674  1.0316  1.1249
  960MOL0     O29466   4.472   2.961   6.111 -0.0953 -0.5611 -0.4951
  960MOL0     C29467   4.486   3.052   6.193  0.4188  0.7875  0.1527
  960MOL0     O29468   4.385   3.079   6.283  0.6836 -0.9089  0.1273
  960MOL0     C29469   4.332   3.205   6.284  0.4937 -0.6022  0.1078
  960MOL0     C29470   4.341   3.290   6.169  0.4113  0.1443  0.4860
  960MOL0     C29471   4.287   3.416   6.169 -0.5515 -0.2358 -0.6966
  960MOL0     C29472   4.214   3.454   6.283  0.5532 -0.4215  0.7599
  960MOL0     O29473   4.155   3.576   6.292 -0.8820  0.1458 -0.1371
  960MOL0     C29474   4.246   3.671   6.350  0.4789 -1.0077  1.2627
  960MOL0     C29475   4.278   3.775   6.241  0.3399  0.6439  0.2706
  960MOL0     C29476   4.162   3.869   6.196  0.2735  0.0755  0.0709
  960MOL0     C29477   4.159   4.001   6.276  0.5309  0.3370 -0.0542
  960MOL0     C29478   4.079   4.105   6.211  0.2418 -0.0611 -0.3070
  960MOL0     C29479   4.064   4.218   6.317  0.9625 -0.2014 -0.0045
  960MOL0     C29480   3.985   4.332   6.248 -0.1777 -0.1872  0.4420
  960MOL0     C29481   3.995   4.468   6.320  0.2311  1.0728  0.2503
  960MOL0     N29482   4.128   4.539   6.286  0.3299 -0.6704 -0.1400
  960MOL0     C29483   4.258   4.521   6.326  0.6431 -0.8368  0.2603
  960MOL0     C29484   4.323   4.619   6.256 -1.1995  0.0553  0.8259
  960MOL0     C29485   4.477   4.626   6.263 -0.1329 -0.4302  0.9486
  960MOL0     C29486   4.550   4.578   6.138  0.0342 -0.4251 -0.5736
  960MOL0     C29487   4.532   4.688   6.034  0.0718  0.1239 -0.2606
  960MOL0     C29488   4.564   4.638   5.894 -0.3144  0.4025  0.2770
  960MOL0     O29489   4.693   4.583   5.892 -1.2705  0.5564 -0.0873
  960MOL0     C29490   4.812   4.654   5.922 -0.7317 -0.1973  0.5816
  960MOL0     C29491   4.814   4.793   5.944  0.2483  0.4767 -0.3598
  960MOL0     C29492   4.934   4.853   5.988 -0.0454 -0.4332 -0.5618
  960MOL0     C29493   5.056   4.787   5.994  0.1120  1.1785  0.1912
  960MOL0     C29494   5.181   4.855   6.045 -0.6499 -0.2755 -0.6043
  960MOL0     O29495   5.286   4.774   6.069 -0.3409 -0.1168  0.0972
  960MOL0     C29496   5.415   4.817   6.106  0.2435  0.1385  0.1779
  960MOL0     C29497   5.496   4.740   6.189 -0.3110  0.3007 -0.2718
  960MOL0     C29498   5.621   4.787   6.238 -0.2712  0.0489 -0.0984
  960MOL0     C29499   5.671   4.908   6.195 -0.6007 -0.2359 -0.8020
  960MOL0     O29500   5.797   4.936   6.239  0.1305 -0.2429  0.6904
  960MOL0     C29501   5.889   5.002   6.154 -0.2129  0.1182  0.3645
  960MOL0     C29502   6.009   5.064   6.221 -0.0709  0.3398  0.2482
  960MOL0     C29503   6.140   5.073   6.135  0.2640  0.7227 -0.5522
  960MOL0     C29504   6.221   4.942   6.159  0.3987  1.3318  0.2171
  960MOL0     C29505   6.351   4.915   6.076  0.2794 -1.0359  0.3927
  960MOL0     C29506   6.465   4.984   6.146 -0.2370 -0.5027  0.4256
  960MOL0     C29507   6.593   4.955   6.046  0.0087 -0.6525  0.3369
  960MOL0     C29508   6.678   5.087   6.054 -0.7993 -0.3826 -0.3174
  960MOL0    Cl29509   6.843   5.064   5.977 -0.0153 -0.2844 -0.0312
  960MOL0     C29510   5.599   4.985   6.112  0.3124  0.4173  0.0291
  960MOL0     C29511   5.465   4.945   6.079 -0.0395  0.9627  0.0971
  960MOL0     O29512   5.174   4.973   6.082  0.0775  0.2798  0.0738
  960MOL0     C29513   5.049   4.653   5.961  0.4544  0.3509  0.0904
  960MOL0     C29514   4.934   4.584   5.933  0.4306  0.4128  0.3770
  960MOL0     N29515   4.233   4.698   6.186 -0.8550  0.4935 -1.0486
  960MOL0     N29516   4.123   4.646   6.203  0.2043  0.2301  0.1272
  960MOL0     C29517   4.219   3.381   6.405  0.6675  0.2923  1.0215
  960MOL0     C29518   4.283   3.264   6.399  0.2565  0.5844 -0.5915
  960MOL0     C29519   4.619   3.117   6.197 -0.4602  0.1233 -0.1813
  960MOL0     C29520   4.655   3.192   6.314 -0.2721  0.2955  0.2400
  960MOL0     C29521   4.775   3.271   6.333 -0.0939  0.8090  0.1883
  960MOL0     C29522   4.870   3.255   6.240  0.3272 -0.2108  0.5453
  960MOL0     O29523   4.998   3.307   6.276  0.5049  0.3609  0.6636
  960MOL0     C29524   5.110   3.292   6.186  0.2813  0.0854  0.4259
  960MOL0     C29525   5.242   3.333   6.262 -0.1337  0.2834  0.7008
  960MOL0     C29526   5.380   3.303   6.203  0.7579 -0.6810  0.1634
  960MOL0     C29527   5.417   3.156   6.172  0.3053  0.6969  0.3552
  960MOL0     C29528   5.547   3.152   6.107 -0.2738 -0.3601  0.6181
  960MOL0     C29529   5.659   3.138   6.055  1.3491 -0.1422 -0.2968
  960MOL0     C29530   4.845   3.188   6.119  0.6227 -0.0840 -0.5956
  960MOL0     C29531   4.727   3.120   6.103 -1.0867 -0.0318 -0.1087
  960MOL0     C29532   4.701   3.069   5.963 -0.2078  0.7453  0.3695
  960MOL0     H29533   4.392   3.255   6.080  2.0033 -0.3159  1.5439
  960MOL0     H29534   4.287   3.473   6.077 -1.5890  0.7467 -0.1065
  960MOL0     H29535   4.199   3.735   6.425 -1.1269 -1.3356  0.5879
  960MOL0     H29536   4.339   3.625   6.384  0.1469 -2.7510 -0.0194
  960MOL0     H29537   4.318   3.740   6.145 -2.9849  2.0916 -1.8134
  960MOL0     H29538   4.351   3.846   6.281 -0.9169  0.0668  3.9500
  960MOL0     H29539   4.065   3.821   6.204 -0.3161  1.1862 -0.1657
  960MOL0     H29540   4.168   3.902   6.091 -2.5952 -0.4228 -0.3168
  960MOL0     H29541   4.125   3.982   6.378  0.8488  0.0899  0.0083
  960MOL0     H29542   4.259   4.041   6.300  0.0656 -1.3785  6.4268
  960MOL0     H29543   4.139   4.148   6.130 -2.6931 -1.1991 -3.2880
  960MOL0     H29544   3.987   4.060   6.173  0.7013 -1.2238 -0.1086
  960MOL0     H29545   4.013   4.194   6.410  0.4980  1.5915  0.2567
  960MOL0     H29546   4.162   4.257   6.349  1.0486 -0.2578 -0.1948
  960MOL0     H29547   3.877   4.317   6.235 -0.6965  2.8490  0.3432
  960MOL0     H29548   4.041   4.346   6.155 -0.4074 -3.1923 -0.2406
  960MOL0     H29549   3.910   4.529   6.289 -0.1802 -0.2659 -1.4241
  960MOL0     H29550   3.990   4.450   6.428  0.0079  0.9620  0.2234
  960MOL0     H29551   4.295   4.445   6.395  2.1808 -2.6332 -2.3482
  960MOL0     H29552   4.502   4.730   6.286  2.9245 -0.8250 -0.1773
  960MOL0     H29553   4.516   4.568   6.347  1.0746 -1.2419 -0.1456
  960MOL0     H29554   4.655   4.553   6.154  0.5416  2.6550  1.9486
  960MOL0     H29555   4.501   4.484   6.109  0.8056 -1.1143  0.2906
  960MOL0     H29556   4.589   4.776   6.067  0.7706 -0.2123 -0.5578
  960MOL0     H29557   4.424   4.702   6.032 -0.0731 -1.0311 -1.5387
  960MOL0     H29558   4.550   4.713   5.816 -1.7938 -2.2808 -2.2386
  960MOL0     H29559   4.496   4.557   5.865  1.9709 -0.7486 -2.3464
  960MOL0     H29560   4.721   4.848   5.931 -1.3040 -1.1013  2.7655
  960MOL0     H29561   4.938   4.962   5.993 -0.2906 -0.4555  0.1011
  960MOL0     H29562   5.482   4.640   6.229  0.2782  0.7070  0.9919
  960MOL0     H29563   5.685   4.725   6.301 -0.9743 -1.9243 -1.2296
  960MOL0     H29564   5.928   4.930   6.081  0.9148 -0.5756  1.5961
  960MOL0     H29565   5.836   5.080   6.099 -2.4095 -2.0124 -0.7721
  960MOL0     H29566   5.987   5.171   6.232  1.8626  0.6456  1.6169
  960MOL0     H29567   6.031   5.014   6.316 -2.6861 -0.4416  0.5336
  960MOL0     H29568   6.117   5.102   6.032 -0.0358 -0.0099 -0.7012
  960MOL0     H29569   6.210   5.148   6.173  1.6626  0.1143 -1.8287
  960MOL0     H29570   6.163   4.849   6.157 -0.8785  2.0009  2.4622
  960MOL0     H29571   6.257   4.929   6.262  0.2387 -3.1042 -0.0741
  960MOL0     H29572   6.331   4.956   5.977 -1.2117 -1.1108  0.6412
  960MOL0     H29573   6.365   4.806   6.077  2.6669 -0.7791  0.0015
  960MOL0     H29574   6.447   5.091   6.153  0.8747 -0.0100 -2.4714
  960MOL0     H29575   6.484   4.951   6.248  2.4510 -0.4735  0.0184
  960MOL0     H29576   6.559   4.940   5.944 -1.2619  0.7144  0.5161
  960MOL0     H29577   6.663   4.877   6.077  0.6779 -0.0914  0.2530
  960MOL0     H29578   6.634   5.179   6.014  0.0202 -0.2145 -0.8657
  960MOL0     H29579   6.694   5.092   6.162  3.1421 -0.7322 -0.7363
  960MOL0     H29580   5.621   5.088   6.085 -0.6986  0.6604  0.0951
  960MOL0     H29581   5.395   5.018   6.038  0.0741  0.6115 -0.7555
  960MOL0     H29582   5.134   4.585   5.964 -1.7510 -2.6717 -0.7725
  960MOL0     H29583   4.928   4.476   5.925 -0.7700  0.3833  1.3538
  960MOL0     H29584   4.181   3.423   6.498 -0.4777  0.5212  0.4778
  960MOL0     H29585   4.292   3.214   6.495  1.9104  1.0265 -0.4899
  960MOL0     H29586   4.596   3.191   6.405  1.9391  0.3429  1.7436
  960MOL0     H29587   4.787   3.316   6.431 -0.7115  0.3060  0.5106
  960MOL0     H29588   5.091   3.345   6.093  0.2211 -2.6710 -1.2302
  960MOL0     H29589   5.126   3.186   6.164  0.3473  0.1697  0.0596
  960MOL0     H29590   5.227   3.283   6.358 -4.0976  2.2925  1.3361
  960MOL0     H29591   5.237   3.440   6.285 -0.8710  1.0865 -2.6106
  960MOL0     H29592   5.456   3.346   6.268 -0.4785  0.3434  0.9762
  960MOL0     H29593   5.398   3.366   6.116  1.2893 -1.0517 -0.0016
  960MOL0     H29594   5.406   3.106   6.269 -0.2605 -0.9168 -0.5203
  960MOL0     H29595   5.345   3.109   6.105 -0.5741 -3.7121  3.8767
  960MOL0     H29596   5.758   3.144   6.014  1.0466 -2.3929 -1.5690
  960MOL0     H29597   4.919   3.172   6.041  0.0847 -2.7606 -0.6435
  960MOL0     H29598   4.761   3.114   5.883 -1.5453  0.3393 -0.9012
  960MOL0     H29599   4.723   2.962   5.950  3.6743  1.6550 -2.6079
  960MOL0     H29600   4.598   3.084   5.930  0.8897  1.2354 -3.3002
  961MOL0     O29601   9.860   8.360   5.925 -0.4911  0.3344  0.1882
  961MOL0     C29602   9.788   8.291   5.856 -0.0034  0.3851  0.2616
  961MOL0     O29603   9.820   8.239   5.730  0.5604  0.6217 -0.1772
  961MOL0     C29604   9.932   8.265   5.660 -0.0380 -0.5302 -0.0098
  961MOL0     C29605   9.981   8.397   5.622  0.3549  0.2845 -0.2511
  961MOL0     C29606  10.095   8.413   5.549 -0.1438 -0.3203 -0.3236
  961MOL0     C29607  10.167   8.299   5.509 -0.4670  0.1491  0.9866
  961MOL0     O29608  10.291   8.300   5.446  0.3827 -0.2092 -0.4490
  961MOL0     C29609  10.366   8.424   5.452  1.9007  0.3870 -0.4733
  961MOL0     C29610  10.504   8.411   5.393  0.4351  0.4275 -0.8909
  961MOL0     C29611  10.582   8.548   5.388 -0.2764 -0.2360 -0.5833
  961MOL0     C29612  10.730   8.522   5.360 -0.4512 -0.0790 -0.7889
  961MOL0     C29613  10.822   8.642   5.401  0.5328 -0.2843 -0.5549
  961MOL0     C29614  10.959   8.624   5.355 -0.2110  0.6238  0.1653
  961MOL0     C29615  11.023   8.729   5.278 -0.0875 -0.2923 -0.3569
  961MOL0     C29616  11.154   8.671   5.217  0.6332 -0.2908  0.3224
  961MOL0     N29617  11.188   8.763   5.102  0.1050  0.5625 -0.1991
  961MOL0     C29618  11.227   8.893   5.105 -0.3231  0.2185  0.2874
  961MOL0     C29619  11.262   8.916   4.974  0.4252 -0.0693  0.3603
  961MOL0     C29620  11.323   9.036   4.915 -0.2490 -0.2328  0.4548
  961MOL0     C29621  11.475   9.035   4.946  0.1948 -0.7119  0.6560
  961MOL0     C29622  11.546   8.932   4.851 -0.6342 -0.0095  0.1178
  961MOL0     C29623  11.688   8.933   4.897 -0.6435 -0.0740  0.3465
  961MOL0     O29624  11.760   9.042   4.826  0.2560 -0.1671 -0.1597
  961MOL0     C29625  11.879   9.079   4.874  0.0075 -0.3645  0.2472
  961MOL0     C29626  11.924   9.213   4.842 -0.1401  0.8031 -0.6032
  961MOL0     C29627  12.045   9.264   4.886  0.0240  0.5051  1.1111
  961MOL0     C29628  12.127   9.189   4.970 -0.2020 -0.4799  0.8083
  961MOL0     C29629  12.248   9.260   5.032 -0.0347  0.0194 -0.0975
  961MOL0     O29630  12.258   9.395   5.006  0.1458  0.2283  0.6624
  961MOL0     C29631  12.385   9.461   5.025  0.4867 -0.1904  0.9412
  961MOL0     C29632  12.441   9.489   5.143 -0.1320 -0.0813  0.1726
  961MOL0     C29633  12.570   9.547   5.161 -0.5849  0.8975  1.0753
  961MOL0     C29634  12.636   9.603   5.053 -0.3648  0.2639  0.3949
  961MOL0     O29635  12.748   9.668   5.079 -0.2725 -0.5257  0.3554
  961MOL0     C29636  12.819   9.723   4.966 -1.6790  0.4324  0.0038
  961MOL0     C29637  12.942   9.786   5.026  0.2106  0.2410  0.7603
  961MOL0     C29638  13.046   9.680   5.075  0.0430 -0.3851  0.1084
  961MOL0     C29639  13.177   9.756   5.111 -0.1233  0.5803  0.0002
  961MOL0     C29640  13.291   9.671   5.175 -0.0692  0.0830  0.3529
  961MOL0     C29641  13.405   9.756   5.232  0.0902  0.9794 -0.0902
  961MOL0     C29642  13.530   9.695   5.282 -0.5222  0.2122  0.9999
  961MOL0     C29643  13.589   9.599   5.171 -0.3219  0.2223 -0.0196
  961MOL0    Cl29644  13.637   9.701   5.033 -0.2458  0.3720  0.2546
  961MOL0     C29645  12.583   9.573   4.923  0.0841  0.3493 -0.5179
  961MOL0     C29646  12.459   9.507   4.916 -0.3792  0.7964  1.4119
  961MOL0     O29647  12.341   9.197   5.082 -0.8156 -0.8243 -0.3377
  961MOL0     C29648  12.095   9.054   4.987 -0.5125 -0.2389 -0.1203
  961MOL0     C29649  11.974   9.005   4.941  0.3695  0.7436 -0.7368
  961MOL0     N29650  11.246   8.799   4.899  0.0453 -0.2257 -1.6545
  961MOL0     N29651  11.195   8.707   4.972 -0.0567 -0.0930 -0.6633
  961MOL0     C29652  10.117   8.172   5.549 -0.3829 -0.2587 -0.0865
  961MOL0     C29653  10.004   8.154   5.618  0.3091  0.4093 -0.5381
  961MOL0     C29654   9.651   8.258   5.907 -1.1145 -0.3849 -0.5878
  961MOL0     C29655   9.537   8.249   5.834 -0.3068  0.4863  0.0341
  961MOL0     C29656   9.405   8.251   5.890 -0.0447 -0.1187  0.4072
  961MOL0     C29657   9.390   8.229   6.031  1.0891  0.1427  0.6699
  961MOL0     O29658   9.262   8.207   6.068  0.5831  0.0105  0.4652
  961MOL0     C29659   9.237   8.197   6.209 -0.7584  0.3924  0.3564
  961MOL0     C29660   9.089   8.185   6.247  0.7385 -0.8510 -0.1212
  961MOL0     C29661   9.071   8.158   6.398  0.6410 -0.6867  0.4313
  961MOL0     C29662   8.928   8.181   6.441  0.4765 -0.3167 -0.0122
  961MOL0     C29663   8.923   8.208   6.581 -1.2078 -0.6427  0.3447
  961MOL0     C29664   8.907   8.237   6.702 -0.4949 -0.6412 -0.8408
  961MOL0     C29665   9.503   8.236   6.105 -0.5551 -0.0371 -1.3398
  961MOL0     C29666   9.629   8.245   6.048 -0.6479 -0.4252 -0.7048
  961MOL0     C29667   9.744   8.226   6.145 -0.1311 -0.1301 -0.1082
  961MOL0     H29668   9.925   8.488   5.640  1.1629  1.3618 -2.6610
  961MOL0     H29669  10.121   8.515   5.523 -0.9876  0.2298  0.9326
  961MOL0     H29670  10.312   8.509   5.410  1.0416  0.3637  0.5406
  961MOL0     H29671  10.385   8.460   5.554  1.8331 -1.1057  0.0925
  961MOL0     H29672  10.490   8.384   5.288 -0.3348  0.6682 -0.8542
  961MOL0     H29673  10.563   8.336   5.446 -2.1617 -0.3256  1.1276
  961MOL0     H29674  10.571   8.613   5.475 -0.0584 -1.1286  0.1244
  961MOL0     H29675  10.539   8.604   5.304 -0.8368 -1.2539 -0.9946
  961MOL0     H29676  10.762   8.437   5.421 -1.8035 -1.0338 -1.3618
  961MOL0     H29677  10.743   8.504   5.252  0.4944 -1.1366 -0.5182
  961MOL0     H29678  10.781   8.731   5.351 -1.6620 -2.6232 -3.2978
  961MOL0     H29679  10.831   8.650   5.510  1.3200  1.0288 -0.6911
  961MOL0     H29680  11.019   8.591   5.441 -1.5872 -0.7292  0.6471
  961MOL0     H29681  10.953   8.538   5.287 -0.1871  0.9284 -0.2256
  961MOL0     H29682  11.060   8.801   5.352 -2.7372 -0.3204  1.1099
  961MOL0     H29683  10.960   8.783   5.207  1.4902  5.3410  1.9867
  961MOL0     H29684  11.236   8.674   5.289 -0.3044 -0.2797  1.4298
  961MOL0     H29685  11.136   8.568   5.186 -2.0670 -0.7855  3.0552
  961MOL0     H29686  11.246   8.946   5.197  0.0651 -3.0905  2.3018
  961MOL0     H29687  11.306   9.040   4.807 -3.6889  0.2668  0.8992
  961MOL0     H29688  11.275   9.125   4.956  0.7044  1.1633 -1.3070
  961MOL0     H29689  11.504   9.139   4.930 -0.9190 -0.4464  0.2752
  961MOL0     H29690  11.495   9.029   5.053  1.8042  2.4760  0.6442
  961MOL0     H29691  11.545   8.964   4.747  0.7110 -0.2766  0.0076
  961MOL0     H29692  11.510   8.829   4.852  0.2828 -0.3381  0.1149
  961MOL0     H29693  11.729   8.836   4.868 -0.7796 -0.3652  1.1290
  961MOL0     H29694  11.706   8.945   5.004  0.9924  0.2322  0.0667
  961MOL0     H29695  11.861   9.288   4.795 -1.9532  1.1383  2.1121
  961MOL0     H29696  12.051   9.372   4.882 -2.6133  0.6918  0.6124
  961MOL0     H29697  12.393   9.436   5.226  0.3798 -2.2982 -0.8658
  961MOL0     H29698  12.626   9.555   5.254 -0.6773  1.4443  1.0875
  961MOL0     H29699  12.851   9.650   4.891  0.0125 -0.4857  1.5190
  961MOL0     H29700  12.752   9.790   4.912 -4.1272 -2.9451 -1.5214
  961MOL0     H29701  12.982   9.865   4.962  0.4163  1.2097  2.0424
  961MOL0     H29702  12.916   9.837   5.120 -2.3419 -2.2625  1.5933
  961MOL0     H29703  13.012   9.629   5.165 -0.7804  0.3303  0.2128
  961MOL0     H29704  13.066   9.600   5.003 -1.4602 -1.5924  0.9762
  961MOL0     H29705  13.148   9.829   5.187  0.0877  0.4106  0.2439
  961MOL0     H29706  13.220   9.806   5.023 -1.2717  3.0946  0.7843
  961MOL0     H29707  13.332   9.608   5.096  0.5141  0.8192  0.0547
  961MOL0     H29708  13.253   9.613   5.260 -1.0249  1.0805  0.6207
  961MOL0     H29709  13.429   9.838   5.163  3.0413  0.5397  0.2826
  961MOL0     H29710  13.359   9.802   5.320 -0.0024  1.0280 -0.1644
  961MOL0     H29711  13.512   9.653   5.382  0.4087 -0.2727  0.9729
  961MOL0     H29712  13.607   9.772   5.295  0.9482 -0.9849 -0.2179
  961MOL0     H29713  13.677   9.542   5.202 -0.7382 -1.5086 -1.8271
  961MOL0     H29714  13.512   9.528   5.140 -0.6368  0.1436  0.9060
  961MOL0     H29715  12.621   9.627   4.836 -1.8494  2.8080  0.0658
  961MOL0     H29716  12.429   9.480   4.815 -0.2326  0.1901  1.5215
  961MOL0     H29717  12.160   8.976   5.025 -2.2170 -1.9298 -0.5040
  961MOL0     H29718  11.942   8.905   4.966 -2.0486  0.8149 -3.0541
  961MOL0     H29719  10.165   8.079   5.520 -2.2436 -0.6884 -2.0685
  961MOL0     H29720   9.968   8.052   5.633 -1.1973  1.0283  0.1891
  961MOL0     H29721   9.537   8.259   5.725 -0.8644 -1.0400 -0.1295
  961MOL0     H29722   9.317   8.249   5.826  0.0229 -2.8431  0.2691
  961MOL0     H29723   9.283   8.282   6.259  1.0895  1.1057 -2.3208
  961MOL0     H29724   9.280   8.102   6.243  0.1858  0.3601 -0.8670
  961MOL0     H29725   9.040   8.107   6.188 -1.5122 -0.9864  1.7929
  961MOL0     H29726   9.043   8.281   6.222 -0.9247 -1.6678 -0.3068
  961MOL0     H29727   9.138   8.231   6.443  1.4619 -0.0401 -1.6999
  961MOL0     H29728   9.092   8.055   6.426 -1.0652 -0.8069  1.4296
  961MOL0     H29729   8.884   8.263   6.384 -1.5582 -1.9200 -0.9019
  961MOL0     H29730   8.879   8.091   6.402 -1.7124  0.6131  0.5085
  961MOL0     H29731   8.888   8.244   6.807 -0.1707 -2.5147 -0.6191
  961MOL0     H29732   9.488   8.225   6.212 -4.2309 -1.4999 -1.8544
  961MOL0     H29733   9.829   8.184   6.091  1.3819  2.2502  0.2887
  961MOL0     H29734   9.781   8.321   6.183 -0.2652 -0.4794  0.9296
  961MOL0     H29735   9.715   8.160   6.228  1.3580  2.1649  2.3860
  962MOL0     O29736   8.885   0.911   6.077 -0.3980 -0.0472  1.0089
  962MOL0     C29737   8.916   1.020   6.131  0.3590 -0.4548  0.3651
  962MOL0     O29738   9.023   1.088   6.092  0.4210  0.2269  0.1720
  962MOL0     C29739   9.117   1.031   5.999  0.1376 -0.1139 -0.2241
  962MOL0     C29740   9.200   1.129   5.946  0.0816 -0.8360  0.5865
  962MOL0     C29741   9.293   1.092   5.844  0.6440 -0.5028  0.9869
  962MOL0     C29742   9.301   0.958   5.803  1.0474  0.2236  0.8525
  962MOL0     O29743   9.397   0.900   5.717  0.6564  0.4170  0.2391
  962MOL0     C29744   9.449   0.982   5.617 -0.2958  0.6932 -0.5181
  962MOL0     C29745   9.550   0.910   5.527  0.3610 -0.4024 -0.6333
  962MOL0     C29746   9.479   0.838   5.414  0.0115  0.6492 -1.1167
  962MOL0     C29747   9.586   0.796   5.320  0.0041 -0.2560  0.2948
  962MOL0     C29748   9.530   0.755   5.181  0.0410  0.0078 -0.7837
  962MOL0     C29749   9.644   0.709   5.089  0.0113 -0.1219  0.5422
  962MOL0     C29750   9.782   0.784   5.074 -0.3057  0.0282 -0.8060
  962MOL0     C29751   9.850   0.747   4.936  0.2618  0.0579  0.5901
  962MOL0     N29752   9.990   0.784   4.919 -0.3489 -0.5974 -0.2325
  962MOL0     C29753  10.026   0.823   4.790  0.2224  0.0430 -0.5246
  962MOL0     C29754  10.158   0.821   4.794 -0.0224  0.3405  0.1091
  962MOL0     C29755  10.258   0.853   4.687  0.4946  0.3583 -0.0814
  962MOL0     C29756  10.214   0.958   4.586  0.4586  0.4967 -0.2747
  962MOL0     C29757  10.326   0.993   4.484 -1.3334 -0.8305  0.4437
  962MOL0     C29758  10.423   1.103   4.530 -0.0002 -0.6597  0.1572
  962MOL0     O29759  10.506   1.042   4.627  0.0201  0.1732  0.2060
  962MOL0     C29760  10.615   1.111   4.657  0.7301 -0.3553  0.5737
  962MOL0     C29761  10.736   1.065   4.618  0.0652 -0.0701 -0.4701
  962MOL0     C29762  10.852   1.137   4.634  0.4140  0.3788 -0.1700
  962MOL0     C29763  10.844   1.269   4.686 -0.0540  0.6742  0.3978
  962MOL0     C29764  10.962   1.353   4.691 -0.6985 -0.4412 -0.7749
  962MOL0     O29765  11.077   1.297   4.640  0.1501  0.4228 -0.4129
  962MOL0     C29766  11.197   1.346   4.649  0.3713 -0.7888 -0.4124
  962MOL0     C29767  11.231   1.487   4.671  0.3392  0.2650  0.8759
  962MOL0     C29768  11.361   1.527   4.658 -0.6417 -0.4090 -0.2459
  962MOL0     C29769  11.468   1.433   4.644 -1.4889  0.8776  0.1446
  962MOL0     O29770  11.597   1.470   4.662 -0.2609 -0.6932 -0.6125
  962MOL0     C29771  11.707   1.402   4.609  0.4704  0.3958 -0.0530
  962MOL0     C29772  11.819   1.514   4.597  0.9213  0.3022  0.7700
  962MOL0     C29773  11.927   1.481   4.487  0.1719  0.6894 -0.9859
  962MOL0     C29774  12.006   1.603   4.449 -1.1807 -0.0640  0.3114
  962MOL0     C29775  12.152   1.561   4.410 -0.0784  0.2280  0.0792
  962MOL0     C29776  12.243   1.512   4.525 -0.7656 -0.2303  0.3737
  962MOL0     C29777  12.379   1.490   4.462 -0.4825 -0.5240 -0.6143
  962MOL0     C29778  12.489   1.442   4.557 -0.0324  0.1405 -0.4781
  962MOL0    Cl29779  12.569   1.565   4.650  0.7568 -0.0472 -0.1543
  962MOL0     C29780  11.431   1.298   4.617  0.9874  0.1479 -0.4866
  962MOL0     C29781  11.298   1.262   4.611  0.3404 -0.3586  0.7870
  962MOL0     O29782  10.944   1.463   4.752 -0.5588 -0.0506  0.1091
  962MOL0     C29783  10.717   1.319   4.715  0.6009  1.2510 -0.4784
  962MOL0     C29784  10.605   1.242   4.710 -0.0895  0.6656  0.3759
  962MOL0     N29785  10.195   0.786   4.922 -1.0449  0.4809  0.3210
  962MOL0     N29786  10.098   0.780   5.003  1.0498  0.1425  0.7279
  962MOL0     C29787   9.218   0.865   5.868 -0.1827 -0.7462 -0.2008
  962MOL0     C29788   9.128   0.897   5.971 -0.4121  0.3099  0.3693
  962MOL0     C29789   8.846   1.065   6.254 -0.8090 -0.1815  0.7768
  962MOL0     C29790   8.715   1.102   6.236  0.2519 -0.1354  0.3867
  962MOL0     C29791   8.636   1.151   6.335  0.1484 -0.3113  0.5248
  962MOL0     C29792   8.685   1.161   6.464  0.1174 -0.1289 -0.6565
  962MOL0     O29793   8.589   1.182   6.565 -0.8625  0.7384 -0.2543
  962MOL0     C29794   8.641   1.244   6.687 -0.4227 -0.5056  0.2340
  962MOL0     C29795   8.526   1.298   6.774  0.4575  0.0367 -0.1609
  962MOL0     C29796   8.424   1.196   6.805 -0.1080 -0.1162  0.3169
  962MOL0     C29797   8.315   1.269   6.886 -0.4009 -0.1372 -1.1764
  962MOL0     C29798   8.367   1.291   7.024  0.8406  0.7181  0.5076
  962MOL0     C29799   8.395   1.320   7.138 -0.7930  1.1485  0.6396
  962MOL0     C29800   8.823   1.124   6.486  0.7945 -0.1295  0.0062
  962MOL0     C29801   8.908   1.078   6.380  0.5326  0.9912 -0.9702
  962MOL0     C29802   9.046   1.033   6.406  0.3371 -0.1484 -0.2325
  962MOL0     H29803   9.207   1.233   5.978 -1.2065 -0.4813 -0.1875
  962MOL0     H29804   9.353   1.172   5.802  0.8088 -0.8585  0.5275
  962MOL0     H29805   9.368   1.024   5.557  2.5592  2.0054 -3.7560
  962MOL0     H29806   9.497   1.062   5.673 -1.9236  0.1664  1.8062
  962MOL0     H29807   9.609   0.849   5.595 -1.4554 -1.2057  0.3036
  962MOL0     H29808   9.618   0.987   5.489  1.4661 -1.0884 -0.0895
  962MOL0     H29809   9.411   0.909   5.367 -2.4146 -1.1236 -0.4742
  962MOL0     H29810   9.417   0.754   5.447  1.5014  0.5982  1.9512
  962MOL0     H29811   9.655   0.879   5.301 -1.5648  0.9895 -0.2044
  962MOL0     H29812   9.645   0.708   5.348  2.8335  0.7404 -2.0787
  962MOL0     H29813   9.452   0.679   5.185  0.1954 -0.0940  0.6005
  962MOL0     H29814   9.484   0.846   5.142 -0.7608 -0.7214 -1.5750
  962MOL0     H29815   9.666   0.605   5.115 -0.3366  0.0308  1.4854
  962MOL0     H29816   9.606   0.703   4.987  1.2447  0.6922  0.0092
  962MOL0     H29817   9.853   0.765   5.155 -1.5297  0.0924  0.3158
  962MOL0     H29818   9.763   0.892   5.080  0.8560  0.2744 -1.3926
  962MOL0     H29819   9.841   0.639   4.918 -3.3459  0.3893 -0.3172
  962MOL0     H29820   9.792   0.791   4.854  0.0180  1.1767  1.3507
  962MOL0     H29821   9.956   0.850   4.712 -1.8426  0.6726  1.4475
  962MOL0     H29822  10.359   0.872   4.725  1.4184 -3.5293 -0.1924
  962MOL0     H29823  10.280   0.759   4.637  1.5773  0.0939  0.8445
  962MOL0     H29824  10.124   0.924   4.534 -1.1941  0.4453  2.4391
  962MOL0     H29825  10.184   1.055   4.626 -0.4038  0.4270 -0.7266
  962MOL0     H29826  10.274   1.033   4.397 -0.5177  1.4248  0.9337
  962MOL0     H29827  10.368   0.896   4.456  1.8441  0.1984  1.1487
  962MOL0     H29828  10.364   1.187   4.568 -0.6746  0.8124 -3.6605
  962MOL0     H29829  10.476   1.130   4.438 -1.3179  2.3356  0.1619
  962MOL0     H29830  10.751   0.971   4.565 -0.7276 -0.6767  0.3407
  962MOL0     H29831  10.949   1.096   4.609 -0.2051 -0.8691 -0.5958
  962MOL0     H29832  11.160   1.565   4.697 -0.9931 -0.0022 -1.5624
  962MOL0     H29833  11.392   1.631   4.664 -0.1164 -0.5874  0.3355
  962MOL0     H29834  11.738   1.319   4.673  0.1393 -0.2102 -0.6664
  962MOL0     H29835  11.690   1.363   4.509  2.9982 -1.7369  0.2287
  962MOL0     H29836  11.766   1.606   4.571 -2.1615 -0.5358  3.3844
  962MOL0     H29837  11.874   1.536   4.689 -0.8318  1.7143  1.5338
  962MOL0     H29838  11.986   1.406   4.542  0.5321  3.2316  2.4543
  962MOL0     H29839  11.885   1.443   4.393 -1.5602  1.7173 -0.6744
  962MOL0     H29840  12.008   1.669   4.536 -1.3959  0.3656 -0.0038
  962MOL0     H29841  11.958   1.656   4.366  0.9599  1.0614 -0.2665
  962MOL0     H29842  12.202   1.637   4.349  1.8862 -0.3302  0.9014
  962MOL0     H29843  12.147   1.475   4.342  3.5729 -1.8608  2.1220
  962MOL0     H29844  12.241   1.590   4.601 -2.5607 -0.1566  0.2962
  962MOL0     H29845  12.209   1.416   4.564 -0.2556 -2.2048 -3.5277
  962MOL0     H29846  12.404   1.585   4.415 -1.9690  0.7951  1.0833
  962MOL0     H29847  12.367   1.415   4.384 -1.3758 -0.2957 -0.7123
  962MOL0     H29848  12.454   1.358   4.617  2.2616 -1.0336 -0.6812
  962MOL0     H29849  12.565   1.392   4.496  0.2050 -3.5462  2.4926
  962MOL0     H29850  11.508   1.224   4.596  0.7101 -0.1797 -0.3606
  962MOL0     H29851  11.268   1.160   4.586 -1.5206  0.3760 -0.2015
  962MOL0     H29852  10.712   1.420   4.754 -1.6667  0.5671  1.2239
  962MOL0     H29853  10.510   1.272   4.753  0.5427  0.3678  2.0821
  962MOL0     H29854   9.232   0.766   5.827  4.5470  1.2534 -4.6325
  962MOL0     H29855   9.076   0.810   6.010 -3.1138  0.7094 -2.0488
  962MOL0     H29856   8.666   1.105   6.139  3.3030  1.6604 -1.2427
  962MOL0     H29857   8.529   1.167   6.321 -0.1897 -1.6723  1.3906
  962MOL0     H29858   8.715   1.321   6.663  0.4913 -0.9866  1.4121
  962MOL0     H29859   8.692   1.167   6.745 -0.6616  0.6916  2.1092
  962MOL0     H29860   8.490   1.381   6.713  3.8460  0.9858 -1.0884
  962MOL0     H29861   8.570   1.324   6.870 -1.2514 -3.3527  1.7170
  962MOL0     H29862   8.457   1.110   6.864 -1.2012  1.3257  3.2482
  962MOL0     H29863   8.386   1.157   6.710 -0.9230  1.2362  0.0625
  962MOL0     H29864   8.286   1.368   6.849  0.0378 -0.3736 -2.1723
  962MOL0     H29865   8.223   1.211   6.901 -1.1054  1.1674 -0.3159
  962MOL0     H29866   8.413   1.350   7.239 -1.7784 -0.8988  1.4881
  962MOL0     H29867   8.872   1.129   6.582 -0.8185  0.4846  0.8317
  962MOL0     H29868   9.044   0.944   6.470  2.7420 -0.1574 -0.0722
  962MOL0     H29869   9.103   1.010   6.314 -0.6150  0.3671 -0.9646
  962MOL0     H29870   9.098   1.112   6.460 -0.5755  1.2503 -1.3318
  963MOL0     O29871   1.417  11.211   0.210  0.6025  0.8622 -0.8556
  963MOL0     C29872   1.354  11.314   0.178 -0.4202 -0.2990  0.1473
  963MOL0     O29873   1.414  11.433   0.167 -0.1672 -0.2629  0.5137
  963MOL0     C29874   1.552  11.436   0.177  0.1703 -0.8197 -0.5720
  963MOL0     C29875   1.624  11.407   0.290  0.7333  1.0519  0.0604
  963MOL0     C29876   1.768  11.424   0.290 -0.8763 -0.3365  0.8593
  963MOL0     C29877   1.830  11.461   0.177  0.5898 -0.3273  0.9491
  963MOL0     O29878   1.968  11.432   0.170  0.4112 -0.2021 -0.5738
  963MOL0     C29879   2.060  11.523   0.096  0.3580 -1.0640 -0.2155
  963MOL0     C29880   2.203  11.484   0.092  0.1574 -0.8609  0.5406
  963MOL0     C29881   2.229  11.357   0.010  0.3227  0.5881 -0.6106
  963MOL0     C29882   2.371  11.308   0.031  0.7348  0.6458 -0.0082
  963MOL0     C29883   2.410  11.203  -0.079 -0.3067  0.0876 -0.3187
  963MOL0     C29884   2.379  11.055  -0.060 -0.7625  0.3965 -1.2407
  963MOL0     C29885   2.391  10.959  -0.184  0.1007 -0.2313 -1.0885
  963MOL0     C29886   2.247  10.926  -0.234  0.6600 -0.0290 -0.0703
  963MOL0     N29887   2.165  11.047  -0.261 -0.5323 -0.4252  0.7827
  963MOL0     C29888   2.082  11.115  -0.175 -0.3668 -0.0703 -0.2297
  963MOL0     C29889   2.008  11.200  -0.253  0.2961  0.7722 -0.0125
  963MOL0     C29890   1.914  11.307  -0.208  0.7310 -0.0491  0.3870
  963MOL0     C29891   1.768  11.280  -0.249  1.0573 -0.2588 -0.6245
  963MOL0     C29892   1.744  11.266  -0.401  0.7099  1.1081  0.0765
  963MOL0     C29893   1.612  11.317  -0.459 -0.3135  1.0967  0.5712
  963MOL0     O29894   1.634  11.347  -0.597 -0.7651 -0.2073  0.3801
  963MOL0     C29895   1.536  11.423  -0.655  0.1339  0.9856  0.6420
  963MOL0     C29896   1.562  11.483  -0.779 -0.6340  0.3754  0.5148
  963MOL0     C29897   1.474  11.557  -0.859  0.2374  0.3671  0.2545
  963MOL0     C29898   1.339  11.564  -0.811 -1.2210 -0.9491  0.5191
  963MOL0     C29899   1.238  11.647  -0.884  0.7371  1.2809  0.5384
  963MOL0     O29900   1.103  11.651  -0.833 -0.3967 -0.7770  0.4490
  963MOL0     C29901   1.021  11.747  -0.883  0.8264 -0.2462  1.2909
  963MOL0     C29902   0.881  11.711  -0.879 -0.1765  0.4401  0.0889
  963MOL0     C29903   0.786  11.792  -0.934  0.4163 -0.7990 -0.3188
  963MOL0     C29904   0.814  11.916  -0.981 -0.7803  0.2343  0.1101
  963MOL0     O29905   0.701  11.991  -1.010 -0.4326  0.2492 -0.2244
  963MOL0     C29906   0.723  12.092  -1.108  0.0527  0.1456  0.4198
  963MOL0     C29907   0.602  12.175  -1.160 -0.2504  0.3246  0.1648
  963MOL0     C29908   0.469  12.110  -1.136 -0.5944 -0.4039  0.8639
  963MOL0     C29909   0.354  12.193  -1.190  0.5664 -0.3663  0.9631
  963MOL0     C29910   0.227  12.120  -1.173  0.6265 -0.2014 -0.0164
  963MOL0     C29911   0.110  12.180  -1.267 -0.3711 -0.6908  0.7642
  963MOL0     C29912   0.093  12.331  -1.235  0.4910 -0.4422 -0.3795
  963MOL0     C29913  -0.046  12.379  -1.274  1.2551 -0.2682  0.4469
  963MOL0    Cl29914  -0.052  12.393  -1.449  0.3144 -0.2499 -0.1394
  963MOL0     C29915   0.953  11.958  -0.980  0.0975 -0.0827  0.2088
  963MOL0     C29916   1.058  11.874  -0.932  0.5834 -1.0300  0.0853
  963MOL0     O29917   1.280  11.688  -0.991  0.1268 -0.2295  0.0905
  963MOL0     C29918   1.301  11.491  -0.696  0.7673 -0.6141  0.8427
  963MOL0     C29919   1.396  11.421  -0.621 -0.0251 -0.1352  0.4523
  963MOL0     N29920   2.048  11.178  -0.380  0.7216  0.0798 -0.2138
  963MOL0     N29921   2.141  11.093  -0.390 -0.7338 -0.3040  0.0938
  963MOL0     C29922   1.755  11.496   0.059  0.8656 -0.0387 -0.5889
  963MOL0     C29923   1.610  11.486   0.065 -0.7093  0.5923 -0.2328
  963MOL0     C29924   1.207  11.303   0.157 -0.1238 -0.3759  0.0500
  963MOL0     C29925   1.129  11.219   0.235 -0.6183  0.3959 -0.5513
  963MOL0     C29926   0.988  11.212   0.218  0.0066 -0.9406 -0.0668
  963MOL0     C29927   0.927  11.294   0.125  0.2964  0.2957  0.3616
  963MOL0     O29928   0.790  11.268   0.114  0.0476  0.0425  0.1507
  963MOL0     C29929   0.710  11.386   0.089 -0.1261  0.5090  0.2883
  963MOL0     C29930   0.684  11.387  -0.058 -0.3042  0.1274  0.1162
  963MOL0     C29931   0.568  11.475  -0.093 -0.3440 -0.3489 -0.1125
  963MOL0     C29932   0.541  11.516  -0.239  0.0077 -0.9827 -0.0474
  963MOL0     C29933   0.651  11.488  -0.335  0.7725 -0.9944 -1.0371
  963MOL0     C29934   0.742  11.457  -0.412  0.6688  0.0877  0.4344
  963MOL0     C29935   1.002  11.375   0.043  0.2507 -0.3354 -0.3553
  963MOL0     C29936   1.143  11.374   0.057  0.1204 -0.1206  0.4396
  963MOL0     C29937   1.209  11.478  -0.029  0.1309  0.7151 -0.0167
  963MOL0     H29938   1.581  11.332   0.356 -1.0383  1.1634 -0.9119
  963MOL0     H29939   1.833  11.367   0.355  0.6257  2.0588  1.5955
  963MOL0     H29940   2.031  11.544  -0.007 -0.1053 -0.8176 -0.0379
  963MOL0     H29941   2.053  11.621   0.145  0.1170 -0.7988 -0.7718
  963MOL0     H29942   2.227  11.478   0.198  0.9141  0.8740  0.5024
  963MOL0     H29943   2.253  11.569   0.044 -1.1842  0.9383  2.1651
  963MOL0     H29944   2.207  11.368  -0.097  0.7215 -1.8606 -0.9856
  963MOL0     H29945   2.168  11.269   0.032  3.8454 -1.7747  0.5601
  963MOL0     H29946   2.447  11.385   0.018  3.3466 -2.0904 -2.4641
  963MOL0     H29947   2.388  11.253   0.124  0.2241  0.7035  0.1231
  963MOL0     H29948   2.372  11.236  -0.176 -2.0641  3.5413  1.3701
  963MOL0     H29949   2.517  11.216  -0.096 -0.4850  0.4975 -1.1606
  963MOL0     H29950   2.452  11.012   0.009  0.6316 -3.0820 -4.4690
  963MOL0     H29951   2.283  11.047  -0.008 -0.6376  0.5495 -0.9887
  963MOL0     H29952   2.437  10.866  -0.148 -1.7975 -1.0658 -0.7004
  963MOL0     H29953   2.457  10.990  -0.265  1.2757 -0.6302 -0.3086
  963MOL0     H29954   2.243  10.873  -0.330 -2.8591  2.0780 -1.2849
  963MOL0     H29955   2.195  10.870  -0.156  0.9700  1.0420  0.9175
  963MOL0     H29956   2.074  11.103  -0.067 -1.1171  1.2890 -0.1154
  963MOL0     H29957   1.919  11.305  -0.099  0.8393 -3.3066  0.4196
  963MOL0     H29958   1.943  11.408  -0.238 -0.6760  0.2207 -0.1435
  963MOL0     H29959   1.727  11.195  -0.194  1.9247 -1.0946 -1.2323
  963MOL0     H29960   1.706  11.364  -0.216  0.5390  0.2908 -2.8104
  963MOL0     H29961   1.759  11.159  -0.418 -1.8501  0.5458  0.8281
  963MOL0     H29962   1.824  11.325  -0.445 -1.8360  2.4136 -3.1995
  963MOL0     H29963   1.570  11.404  -0.408  0.0331  0.7998  1.3671
  963MOL0     H29964   1.539  11.236  -0.451 -0.0129  0.7233 -0.2794
  963MOL0     H29965   1.667  11.472  -0.806 -1.6155 -5.4114 -2.5665
  963MOL0     H29966   1.507  11.613  -0.947 -2.0610 -0.4165 -1.1853
  963MOL0     H29967   0.856  11.611  -0.844 -1.3370  1.0353  1.0275
  963MOL0     H29968   0.686  11.750  -0.928 -0.4682  1.2926  0.7150
  963MOL0     H29969   0.789  12.163  -1.057 -2.7466  1.9591  1.7712
  963MOL0     H29970   0.776  12.051  -1.194 -0.7790 -0.9868  0.4172
  963MOL0     H29971   0.605  12.268  -1.101 -0.2655  0.0856  0.5491
  963MOL0     H29972   0.608  12.196  -1.267  0.1340  0.9200  0.2926
  963MOL0     H29973   0.481  12.022  -1.201  2.0199  0.7756 -0.4011
  963MOL0     H29974   0.457  12.087  -1.030 -0.2906 -0.2590  0.9301
  963MOL0     H29975   0.360  12.217  -1.296 -0.8588  2.2983  1.4052
  963MOL0     H29976   0.336  12.290  -1.142 -1.5472  0.3843 -1.1497
  963MOL0     H29977   0.203  12.127  -1.067  1.5857  2.9473  0.0897
  963MOL0     H29978   0.236  12.017  -1.208  0.0211  0.3070 -1.7862
  963MOL0     H29979   0.143  12.164  -1.370 -2.3039 -1.7808  0.2611
  963MOL0     H29980   0.016  12.128  -1.246  0.3794 -0.8491  4.3619
  963MOL0     H29981   0.174  12.393  -1.275 -0.4151 -1.3653 -3.9666
  963MOL0     H29982   0.095  12.335  -1.125  0.3686 -3.7791 -0.1490
  963MOL0     H29983  -0.135  12.328  -1.238  1.9521  0.6686  3.7795
  963MOL0     H29984  -0.065  12.478  -1.233  0.3806 -0.0858 -0.3738
  963MOL0     H29985   0.978  12.054  -1.025 -1.4107  1.2256  1.9995
  963MOL0     H29986   1.160  11.909  -0.940  0.7325 -1.8604 -2.3031
  963MOL0     H29987   1.199  11.501  -0.660 -1.0825 -0.0202 -3.7650
  963MOL0     H29988   1.363  11.364  -0.535 -2.5105  0.1394 -0.2380
  963MOL0     H29989   1.795  11.520  -0.038 -0.1849 -1.5099 -1.4230
  963MOL0     H29990   1.551  11.520  -0.019  1.2542  1.6097 -1.2768
  963MOL0     H29991   1.170  11.165   0.319 -0.0415  0.4868 -0.7632
  963MOL0     H29992   0.922  11.139   0.263 -0.5010  0.1077  0.9630
  963MOL0     H29993   0.748  11.480   0.129  1.3807 -0.7154  1.8573
  963MOL0     H29994   0.617  11.372   0.145 -0.5354  1.9078 -0.0070
  963MOL0     H29995   0.668  11.287  -0.099 -1.6113  1.3528 -2.6261
  963MOL0     H29996   0.767  11.437  -0.109 -0.8511 -0.8912 -1.8517
  963MOL0     H29997   0.578  11.565  -0.033  0.3310  1.0064 -2.1327
  963MOL0     H29998   0.479  11.423  -0.056 -0.3187  0.1281  0.6274
  963MOL0     H29999   0.456  11.457  -0.273  0.0821 -0.2917 -1.5197
  963MOL0     H30000   0.512  11.621  -0.250  4.1471  0.6790  2.1849
  963MOL0     H30001   0.811  11.438  -0.492 -1.5173  2.7360 -2.2786
  963MOL0     H30002   0.956  11.447  -0.024  0.4219  0.7603  0.6743
  963MOL0     H30003   1.240  11.562   0.034  0.9131  1.6946 -1.6448
  963MOL0     H30004   1.294  11.446  -0.089 -1.0611 -1.6062 -0.5746
  963MOL0     H30005   1.135  11.525  -0.094 -0.9293  2.1490  2.1332
  964MOL0     O30006   7.633   5.259  11.328 -0.0179  0.1345  0.1358
  964MOL0     C30007   7.640   5.143  11.365  0.1387  1.0567 -0.3377
  964MOL0     O30008   7.695   5.038  11.295  0.1281 -0.4218 -0.0235
  964MOL0     C30009   7.702   5.037  11.154  0.1796 -0.0260 -0.6903
  964MOL0     C30010   7.805   4.960  11.094 -0.2363  0.5621 -1.3473
  964MOL0     C30011   7.813   4.960  10.956 -0.9936  0.7488 -0.0451
  964MOL0     C30012   7.709   5.016  10.878  0.3582 -0.5597 -1.1212
  964MOL0     O30013   7.710   5.020  10.746  0.3416 -0.0294  0.3020
  964MOL0     C30014   7.821   5.093  10.705  0.1626  0.2425 -0.3123
  964MOL0     C30015   7.780   5.162  10.581  0.6187 -0.1923  0.6659
  964MOL0     C30016   7.800   5.056  10.467  0.6903 -0.3912 -0.7204
  964MOL0     C30017   7.833   5.121  10.334  0.4170 -0.9499  0.0190
  964MOL0     C30018   7.855   5.020  10.231  0.6518 -0.1522  0.0742
  964MOL0     C30019   7.976   4.939  10.255  0.1178  1.0933 -0.1526
  964MOL0     C30020   7.933   4.790  10.283 -0.1305  0.0843  0.4304
  964MOL0     C30021   7.852   4.713  10.176 -0.9324  0.0024 -0.1292
  964MOL0     N30022   7.902   4.567  10.172 -0.0894 -0.8288 -0.7086
  964MOL0     C30023   8.018   4.524  10.111  0.4757 -0.7484  0.0366
  964MOL0     C30024   8.010   4.391  10.119  0.1208 -1.2708  0.0234
  964MOL0     C30025   8.108   4.290  10.088  0.1256 -0.8916 -0.8180
  964MOL0     C30026   8.220   4.302  10.186 -0.1887  0.5407 -0.0794
  964MOL0     C30027   8.316   4.201  10.136 -0.6568 -0.0461 -0.2870
  964MOL0     C30028   8.442   4.195  10.219  0.4270 -0.1044 -0.4419
  964MOL0     O30029   8.494   4.326  10.240 -0.4103 -0.4240  0.0903
  964MOL0     C30030   8.606   4.335  10.315  0.3389  0.0111  1.0540
  964MOL0     C30031   8.636   4.461  10.358 -0.4912  0.2262  0.6488
  964MOL0     C30032   8.753   4.479  10.435  0.1268  0.0824  0.0741
  964MOL0     C30033   8.838   4.373  10.469  0.2209  0.5760 -0.2072
  964MOL0     C30034   8.968   4.395  10.532 -0.9214  0.2576 -0.7970
  964MOL0     O30035   9.065   4.301  10.518  0.3542 -0.2158  0.1556
  964MOL0     C30036   9.198   4.331  10.544 -0.2275 -1.2358 -1.2224
  964MOL0     C30037   9.290   4.357  10.440 -0.2569  0.5384 -0.5206
  964MOL0     C30038   9.427   4.376  10.463 -0.6346  0.1228 -0.5203
  964MOL0     C30039   9.472   4.345  10.588 -0.0036 -0.0223 -0.5070
  964MOL0     O30040   9.602   4.321  10.619 -0.1306  0.4409 -0.1375
  964MOL0     C30041   9.700   4.372  10.530  0.2247 -0.8392  0.1275
  964MOL0     C30042   9.829   4.328  10.585  0.5134  0.2543  0.2421
  964MOL0     C30043   9.944   4.382  10.504 -0.7683 -0.3550  0.1351
  964MOL0     C30044  10.078   4.341  10.551 -0.5783 -0.1102 -0.3692
  964MOL0     C30045  10.197   4.392  10.462 -0.1003 -0.6186 -0.6102
  964MOL0     C30046  10.326   4.341  10.517 -0.4250 -0.1385 -0.4344
  964MOL0     C30047  10.440   4.431  10.456  0.0173 -0.5077 -0.2030
  964MOL0     C30048  10.575   4.381  10.504 -0.2723 -0.4052 -0.2828
  964MOL0    Cl30049  10.596   4.419  10.678 -0.3312 -0.2769 -0.1706
  964MOL0     C30050   9.386   4.322  10.698  0.4372  0.2376  0.4351
  964MOL0     C30051   9.247   4.322  10.675 -1.2332  0.1023  0.5505
  964MOL0     O30052   8.983   4.505  10.581  0.2169 -0.5479  0.5967
  964MOL0     C30053   8.807   4.244  10.420  1.0149  0.4093  0.0181
  964MOL0     C30054   8.691   4.232  10.350  0.1778  0.1649 -0.5039
  964MOL0     N30055   7.908   4.355  10.197 -0.2438 -0.7067 -0.9919
  964MOL0     N30056   7.835   4.458  10.220  0.9198 -0.4578  0.6760
  964MOL0     C30057   7.608   5.076  10.939  1.4397 -0.6170 -0.1384
  964MOL0     C30058   7.595   5.087  11.078 -0.7841 -0.8398  1.2394
  964MOL0     C30059   7.608   5.108  11.501 -0.6597 -0.1818 -0.6015
  964MOL0     C30060   7.671   5.000  11.562 -0.1509  0.5398 -0.0468
  964MOL0     C30061   7.640   4.962  11.695 -0.0074 -0.1652  0.1368
  964MOL0     C30062   7.542   5.032  11.766  0.2118 -0.2944 -0.3026
  964MOL0     O30063   7.487   4.996  11.886  0.0622  0.3048  0.3846
  964MOL0     C30064   7.565   4.904  11.965 -0.6384 -0.4400 -0.1289
  964MOL0     C30065   7.483   4.862  12.082  0.8190 -0.3374 -0.3932
  964MOL0     C30066   7.511   4.719  12.131  0.0074 -0.5551  1.3167
  964MOL0     C30067   7.437   4.692  12.262 -0.6171  0.1501 -0.3908
  964MOL0     C30068   7.296   4.667  12.229  1.6134 -0.3656 -0.8933
  964MOL0     C30069   7.173   4.654  12.207 -0.3796 -0.2813 -0.3392
  964MOL0     C30070   7.477   5.132  11.703  0.5820  0.6515 -0.1038
  964MOL0     C30071   7.512   5.185  11.577  0.5684  0.6138 -0.3071
  964MOL0     C30072   7.433   5.304  11.532  0.5451  0.2080  0.6435
  964MOL0     H30073   7.880   4.904  11.148 -2.2377 -2.4553 -1.4604
  964MOL0     H30074   7.899   4.918  10.904 -0.8858  1.7035 -0.6821
  964MOL0     H30075   7.862   5.160  10.781  1.4895 -0.2328 -0.5750
  964MOL0     H30076   7.903   5.029  10.671 -1.0041 -0.6189 -1.6350
  964MOL0     H30077   7.848   5.245  10.558  4.0376 -1.6182  4.3608
  964MOL0     H30078   7.677   5.199  10.578  0.5088 -0.4653  0.9493
  964MOL0     H30079   7.697   5.023  10.447  0.9515 -0.8959 -1.2567
  964MOL0     H30080   7.869   4.974  10.489  0.8824 -0.1118 -0.2574
  964MOL0     H30081   7.756   5.193  10.304 -1.6356 -2.8701  0.4274
  964MOL0     H30082   7.924   5.183  10.337 -1.8965  2.8042 -1.0218
  964MOL0     H30083   7.762   4.962  10.228  0.9223 -0.6624  0.9794
  964MOL0     H30084   7.862   5.073  10.136 -0.2974  0.8313  0.5363
  964MOL0     H30085   8.045   4.954  10.171 -0.4018  0.0623 -0.7794
  964MOL0     H30086   8.042   4.980  10.333  0.3050 -0.3494  0.4888
  964MOL0     H30087   7.869   4.796  10.371  0.0636 -0.4663  0.6156
  964MOL0     H30088   8.024   4.731  10.301  0.4327 -0.1037 -2.4987
  964MOL0     H30089   7.745   4.728  10.193 -1.4061  0.6773 -3.0762
  964MOL0     H30090   7.881   4.757  10.080  1.8842  1.6460  1.3477
  964MOL0     H30091   8.088   4.585  10.055  0.1536  0.7842  1.2337
  964MOL0     H30092   8.063   4.190  10.082  0.6593 -1.0708 -2.0756
  964MOL0     H30093   8.140   4.304   9.985  1.7642 -1.2194 -0.3803
  964MOL0     H30094   8.260   4.404  10.194 -1.3533  0.9018  1.8547
  964MOL0     H30095   8.190   4.268  10.286  0.4928  0.7223  0.1953
  964MOL0     H30096   8.345   4.221  10.032  2.5841 -0.5013  0.4326
  964MOL0     H30097   8.266   4.103  10.133  1.1572 -1.0183 -0.0836
  964MOL0     H30098   8.515   4.132  10.167  1.3694  1.0540 -0.5517
  964MOL0     H30099   8.421   4.171  10.323  2.8454  2.5719  0.8029
  964MOL0     H30100   8.566   4.542  10.342  0.3268  1.0267  1.0320
  964MOL0     H30101   8.783   4.580  10.458 -0.3728  0.3553 -0.4359
  964MOL0     H30102   9.247   4.374  10.342  0.5857  1.8285 -0.6771
  964MOL0     H30103   9.489   4.418  10.385  1.5478  0.5341  1.3483
  964MOL0     H30104   9.684   4.333  10.429 -0.1450  2.4217 -1.2081
  964MOL0     H30105   9.699   4.480  10.509  4.6325 -0.5352  0.5569
  964MOL0     H30106   9.821   4.354  10.691  3.0527  0.6282  0.4043
  964MOL0     H30107   9.825   4.219  10.581  2.3499  0.1707 -0.0485
  964MOL0     H30108   9.945   4.362  10.397  0.3159  2.8529 -0.5600
  964MOL0     H30109   9.936   4.490  10.518 -0.7599 -0.4357  0.7940
  964MOL0     H30110  10.082   4.232  10.552  0.2605 -0.0967  1.5415
  964MOL0     H30111  10.082   4.375  10.655 -0.6822  2.1578 -1.0556
  964MOL0     H30112  10.185   4.501  10.470 -2.2273 -0.8122 -0.6734
  964MOL0     H30113  10.196   4.367  10.356  1.8197  1.4711 -1.2118
  964MOL0     H30114  10.327   4.344  10.626  0.5877 -0.8808 -0.4058
  964MOL0     H30115  10.346   4.237  10.489 -1.9823  0.2868 -3.5519
  964MOL0     H30116  10.437   4.534  10.492  1.5225 -0.4457 -0.1919
  964MOL0     H30117  10.433   4.433  10.347  0.2304  2.1770 -0.2428
  964MOL0     H30118  10.597   4.274  10.493  3.2607  0.0801  0.6880
  964MOL0     H30119  10.654   4.436  10.452  0.8374  0.4656  2.1738
  964MOL0     H30120   9.438   4.304  10.792 -0.1934  3.9364  1.6477
  964MOL0     H30121   9.169   4.298  10.747 -1.9006 -0.4447 -0.3216
  964MOL0     H30122   8.871   4.159  10.443 -1.2189 -1.8354 -1.6469
  964MOL0     H30123   8.664   4.137  10.305  3.2777 -1.5959  0.9602
  964MOL0     H30124   7.531   5.119  10.876  2.0144 -0.3779 -0.6930
  964MOL0     H30125   7.510   5.139  11.119 -0.0154  0.2164  1.5617
  964MOL0     H30126   7.759   4.948  11.527 -0.1893 -1.1637  2.1620
  964MOL0     H30127   7.701   4.882  11.736 -1.0410 -0.3627  1.3197
  964MOL0     H30128   7.658   4.957  11.989 -0.0265 -1.6157  0.1753
  964MOL0     H30129   7.590   4.817  11.904 -1.2815 -1.1549  0.6006
  964MOL0     H30130   7.379   4.871  12.051 -0.1019 -1.8389  2.0644
  964MOL0     H30131   7.504   4.931  12.164 -0.6113 -0.5991  0.2201
  964MOL0     H30132   7.618   4.711  12.155  0.0208  1.1184  1.9380
  964MOL0     H30133   7.485   4.644  12.056  0.2765 -1.3696  2.0230
  964MOL0     H30134   7.480   4.607  12.315 -1.6224  1.1567  2.2084
  964MOL0     H30135   7.446   4.776  12.331 -1.2259  0.6508 -0.9030
  964MOL0     H30136   7.068   4.644  12.189 -0.8828 -0.8965  2.4880
  964MOL0     H30137   7.385   5.164  11.750  0.4802 -1.2312  1.0775
  964MOL0     H30138   7.385   5.281  11.436 -1.1812 -1.4264  1.8258
  964MOL0     H30139   7.353   5.335  11.600  0.5125  4.0189 -0.8766
  964MOL0     H30140   7.491   5.395  11.514 -1.0136  1.0434 -0.4135
  965MOL0     O30141   4.236   1.639   4.155 -0.3514 -0.4064  0.2544
  965MOL0     C30142   4.240   1.515   4.141  0.6579 -0.4974 -0.6299
  965MOL0     O30143   4.133   1.451   4.088  0.0940 -0.5662 -0.6194
  965MOL0     C30144   4.038   1.530   4.027  0.1402  1.1914  0.8798
  965MOL0     C30145   4.024   1.519   3.884  0.3163 -0.9118 -0.3824
  965MOL0     C30146   3.915   1.586   3.823  0.4825  0.0489  0.0141
  965MOL0     C30147   3.812   1.647   3.896 -0.4754 -0.5411 -0.6226
  965MOL0     O30148   3.703   1.699   3.828 -0.7134 -0.6173 -0.1672
  965MOL0     C30149   3.632   1.615   3.738 -0.1452 -0.1124 -0.2577
  965MOL0     C30150   3.481   1.639   3.745  1.1227  0.5672 -0.8394
  965MOL0     C30151   3.429   1.650   3.890  0.5011  0.1587  0.7341
  965MOL0     C30152   3.269   1.661   3.884 -0.4056  0.4266 -0.4065
  965MOL0     C30153   3.223   1.800   3.832  0.2421 -0.1112  0.6282
  965MOL0     C30154   3.064   1.805   3.842  0.1258  0.3020  0.8050
  965MOL0     C30155   3.017   1.938   3.776 -0.0897  0.2477 -0.4425
  965MOL0     C30156   3.006   2.064   3.864 -0.5812 -0.3274  0.2974
  965MOL0     N30157   2.938   2.052   3.990  0.7510 -0.2669 -0.1065
  965MOL0     C30158   2.999   2.063   4.114 -1.2091  0.7587 -0.2244
  965MOL0     C30159   2.904   2.093   4.208 -0.4476  0.2576 -1.2975
  965MOL0     C30160   2.935   2.126   4.348 -0.2755  1.2087  0.2927
  965MOL0     C30161   3.028   2.252   4.363  0.3340  0.1656  0.4172
  965MOL0     C30162   3.066   2.291   4.512  1.0203  0.2296  0.3831
  965MOL0     C30163   3.150   2.420   4.497  1.0378  0.2387  0.4309
  965MOL0     O30164   3.284   2.388   4.458 -0.0450 -0.2660 -0.0757
  965MOL0     C30165   3.384   2.488   4.459  0.2810 -0.1364 -0.0538
  965MOL0     C30166   3.365   2.630   4.464 -0.7330 -0.7855 -1.0156
  965MOL0     C30167   3.474   2.713   4.472  0.7993 -0.1146  0.1267
  965MOL0     C30168   3.608   2.661   4.480  0.6063 -0.3481 -0.0575
  965MOL0     C30169   3.731   2.737   4.510 -0.3496  0.3413  0.1815
  965MOL0     O30170   3.848   2.679   4.475 -0.2957 -0.5453 -0.7431
  965MOL0     C30171   3.965   2.732   4.525  0.1312  0.0178  0.8743
  965MOL0     C30172   3.976   2.780   4.652  0.3638  0.6056  0.1940
  965MOL0     C30173   4.103   2.828   4.699  0.4299 -0.2118  0.3128
  965MOL0     C30174   4.212   2.844   4.616  0.3361 -0.4465 -0.0955
  965MOL0     O30175   4.329   2.885   4.672 -0.0308  0.2816 -0.0461
  965MOL0     C30176   4.401   2.984   4.601 -1.1577 -0.1272  0.2464
  965MOL0     C30177   4.535   3.025   4.664  0.3335  0.3528  0.7663
  965MOL0     C30178   4.638   2.917   4.657  0.4416 -0.0489 -0.3919
  965MOL0     C30179   4.764   2.974   4.721  0.2690 -0.0609 -0.3424
  965MOL0     C30180   4.861   2.856   4.749  0.5197 -0.1850 -0.6196
  965MOL0     C30181   4.990   2.900   4.809 -0.3899  0.5202  0.4243
  965MOL0     C30182   5.074   2.792   4.871 -0.1958 -0.3775 -1.3138
  965MOL0     C30183   5.207   2.850   4.921 -0.2438 -0.0930  0.7348
  965MOL0    Cl30184   5.178   2.906   5.094  0.1482 -0.3144 -0.0732
  965MOL0     C30185   4.202   2.795   4.487 -0.1641 -0.4352  0.7812
  965MOL0     C30186   4.086   2.731   4.451  0.0782 -0.0044 -0.9154
  965MOL0     O30187   3.714   2.841   4.568  1.3533 -0.8136  0.0565
  965MOL0     C30188   3.617   2.522   4.468 -0.7755  0.6509 -0.1816
  965MOL0     C30189   3.512   2.439   4.448  0.9562 -0.1186  0.4259
  965MOL0     N30190   2.787   2.096   4.142 -0.1832  1.2731 -0.5917
  965MOL0     N30191   2.804   2.086   4.010 -0.1468 -0.3540 -0.1306
  965MOL0     C30192   3.827   1.654   4.037  0.4031  0.0725 -0.5197
  965MOL0     C30193   3.942   1.600   4.097  0.7807  0.1558 -0.1858
  965MOL0     C30194   4.367   1.456   4.186 -0.1480  0.6632  0.9556
  965MOL0     C30195   4.482   1.537   4.192  1.0928  0.2475  0.5475
  965MOL0     C30196   4.604   1.487   4.228 -0.1364 -0.2537  0.6142
  965MOL0     C30197   4.629   1.353   4.240 -0.3615 -0.5873 -0.2777
  965MOL0     O30198   4.762   1.314   4.276  0.3198 -0.8595 -0.2936
  965MOL0     C30199   4.807   1.180   4.245 -0.0194 -0.3932 -0.8636
  965MOL0     C30200   4.953   1.172   4.178  1.2321  0.2422 -0.3273
  965MOL0     C30201   5.056   1.225   4.281 -0.5970 -0.1807  0.8626
  965MOL0     C30202   5.190   1.243   4.220  0.0314 -0.3259  0.0319
  965MOL0     C30203   5.203   1.328   4.100 -0.7425 -0.3724  0.7845
  965MOL0     C30204   5.203   1.375   3.985 -0.5903  0.2284 -0.0533
  965MOL0     C30205   4.516   1.268   4.231  0.8232  0.0534  0.8119
  965MOL0     C30206   4.388   1.314   4.199 -0.0031  0.0260  0.6016
  965MOL0     C30207   4.280   1.209   4.195 -0.6501  0.0074  0.9282
  965MOL0     H30208   4.084   1.448   3.827 -0.5214 -0.3536 -2.0408
  965MOL0     H30209   3.923   1.572   3.716 -0.3512 -0.5572  0.0207
  965MOL0     H30210   3.668   1.638   3.637 -0.6797  0.9005 -0.2313
  965MOL0     H30211   3.652   1.509   3.754 -2.8228 -0.5708  0.6003
  965MOL0     H30212   3.421   1.558   3.702  1.7415  0.6309 -1.8861
  965MOL0     H30213   3.460   1.732   3.691  1.2031  1.2780  0.3249
  965MOL0     H30214   3.475   1.737   3.938  2.7357 -0.6020  0.0863
  965MOL0     H30215   3.459   1.558   3.940  2.9933 -0.3289 -1.4693
  965MOL0     H30216   3.228   1.586   3.817 -0.3711  0.3398 -0.3302
  965MOL0     H30217   3.230   1.651   3.986  0.0684  0.9682 -0.1620
  965MOL0     H30218   3.251   1.883   3.897 -3.8279 -0.0744  2.6378
  965MOL0     H30219   3.260   1.812   3.730  1.4029  0.3478  1.0825
  965MOL0     H30220   3.017   1.717   3.798 -2.7378 -0.1641  4.3165
  965MOL0     H30221   3.041   1.801   3.949 -0.3188  2.4729  0.8288
  965MOL0     H30222   2.926   1.913   3.722 -0.6851 -1.1147  1.1135
  965MOL0     H30223   3.086   1.963   3.694 -0.0176  0.1956 -0.3979
  965MOL0     H30224   3.107   2.094   3.893 -1.3586 -0.9526  4.1576
  965MOL0     H30225   2.960   2.138   3.798 -4.0769  0.0757  2.8744
  965MOL0     H30226   3.107   2.061   4.122 -1.2419  0.8220  0.2756
  965MOL0     H30227   2.847   2.135   4.412 -0.4664 -0.9922  0.4049
  965MOL0     H30228   2.989   2.036   4.379  0.5735  1.3360 -0.7668
  965MOL0     H30229   3.118   2.252   4.301 -0.3895  1.1934 -0.6729
  965MOL0     H30230   2.967   2.337   4.332  1.7004  1.4527  1.1591
  965MOL0     H30231   3.126   2.208   4.548  0.3803 -0.5109 -0.2081
  965MOL0     H30232   2.974   2.308   4.569  0.4484 -0.7790 -0.1978
  965MOL0     H30233   3.155   2.472   4.593 -1.7672  0.9261  0.3072
  965MOL0     H30234   3.105   2.490   4.425  2.2835 -0.1979 -0.8095
  965MOL0     H30235   3.265   2.667   4.484  0.6366  2.2167  1.0899
  965MOL0     H30236   3.453   2.820   4.471  1.5046  0.0353  0.2995
  965MOL0     H30237   3.894   2.772   4.722 -2.3398  1.3484 -2.6854
  965MOL0     H30238   4.105   2.885   4.792  1.5275  1.5535 -0.7337
  965MOL0     H30239   4.425   2.949   4.500 -3.1230  1.9600 -1.0421
  965MOL0     H30240   4.336   3.071   4.595  0.3851  1.1694  1.3097
  965MOL0     H30241   4.573   3.114   4.613  1.7632 -1.0895 -0.8082
  965MOL0     H30242   4.513   3.049   4.769 -0.6868 -2.6229  1.3240
  965MOL0     H30243   4.596   2.836   4.717  2.5956  1.7353  3.8813
  965MOL0     H30244   4.658   2.883   4.555  1.6833  0.8982 -0.4784
  965MOL0     H30245   4.753   3.017   4.821  1.1297 -1.3211  0.3169
  965MOL0     H30246   4.806   3.051   4.655  0.9733 -0.9547 -0.9671
  965MOL0     H30247   4.878   2.801   4.656  0.2507 -1.2881 -0.0281
  965MOL0     H30248   4.805   2.785   4.810 -0.7026  0.8405 -0.5120
  965MOL0     H30249   5.053   2.947   4.732 -1.7495 -1.1719 -1.8652
  965MOL0     H30250   4.978   2.982   4.880 -1.5734 -1.2126  2.3375
  965MOL0     H30251   5.100   2.710   4.803  1.5909 -1.9000  1.0259
  965MOL0     H30252   5.021   2.742   4.953 -2.1149  0.7953 -1.7856
  965MOL0     H30253   5.279   2.770   4.937 -1.1179 -0.6018  2.5099
  965MOL0     H30254   5.257   2.925   4.859 -0.3877 -0.2862  0.3846
  965MOL0     H30255   4.283   2.772   4.418 -0.6021  1.5982 -0.5058
  965MOL0     H30256   4.083   2.687   4.352 -0.5066 -3.7853  0.6150
  965MOL0     H30257   3.713   2.473   4.477 -0.4027  1.1208 -1.4478
  965MOL0     H30258   3.532   2.335   4.422  1.2191 -0.5176  2.0923
  965MOL0     H30259   3.748   1.709   4.088 -0.6191  0.7444 -2.7228
  965MOL0     H30260   3.939   1.607   4.205 -2.8705 -0.7742 -0.0846
  965MOL0     H30261   4.469   1.645   4.180 -1.2075 -0.2120 -1.9986
  965MOL0     H30262   4.689   1.554   4.235 -1.7886  1.9694  0.3324
  965MOL0     H30263   4.742   1.117   4.185 -1.8699 -1.0776  1.7091
  965MOL0     H30264   4.819   1.122   4.336 -1.2625 -1.8361 -1.5912
  965MOL0     H30265   4.957   1.235   4.089  3.2053  0.4711 -0.1155
  965MOL0     H30266   4.972   1.065   4.161  1.0233 -0.0869  1.3373
  965MOL0     H30267   5.076   1.153   4.361  1.8462  0.9120  1.3414
  965MOL0     H30268   5.028   1.317   4.333  2.8718  0.2557  2.2001
  965MOL0     H30269   5.257   1.278   4.300 -1.0013  0.6872  0.4806
  965MOL0     H30270   5.216   1.138   4.204 -3.4154 -1.2603 -0.2243
  965MOL0     H30271   5.217   1.424   3.891 -1.2440  0.0755 -0.2340
  965MOL0     H30272   4.524   1.162   4.251 -1.6586 -1.3830 -4.1534
  965MOL0     H30273   4.280   1.156   4.290 -0.6512 -1.2352  0.2502
  965MOL0     H30274   4.179   1.247   4.174  0.5523  1.0682 -4.7397
  965MOL0     H30275   4.298   1.139   4.113  2.2583  1.6185  0.0428
  966MOL0     O30276   2.541   6.770  11.146  0.1250 -0.0534  0.2629
  966MOL0     C30277   2.492   6.883  11.166 -0.5820 -0.5225  1.3397
  966MOL0     O30278   2.380   6.914  11.236  1.0695  0.1976 -0.5519
  966MOL0     C30279   2.317   6.829  11.326  0.8841  0.7987 -0.7657
  966MOL0     C30280   2.214   6.885  11.395  0.6001  0.3900  0.6475
  966MOL0     C30281   2.141   6.814  11.499 -0.7745 -0.1693 -0.5923
  966MOL0     C30282   2.181   6.681  11.528  0.7763  0.0774  0.1372
  966MOL0     O30283   2.105   6.614  11.622 -0.7881 -0.3123  0.1054
  966MOL0     C30284   2.143   6.482  11.667  0.7114 -0.5204 -0.5969
  966MOL0     C30285   2.074   6.387  11.579 -0.4636 -0.1283  0.8338
  966MOL0     C30286   2.065   6.250  11.643  0.4161  0.3764  1.1870
  966MOL0     C30287   2.152   6.139  11.582 -0.2464 -0.4656  0.0256
  966MOL0     C30288   2.293   6.184  11.635 -0.7381 -0.5895  1.3188
  966MOL0     C30289   2.391   6.066  11.613 -0.4237  0.1731  0.7958
  966MOL0     C30290   2.539   6.113  11.594  0.1479  0.1066  0.8048
  966MOL0     C30291   2.633   5.988  11.624  0.1875 -0.2893  0.2445
  966MOL0     N30292   2.630   5.857  11.552  0.3394  0.4836 -0.0645
  966MOL0     C30293   2.717   5.762  11.586  0.1952  0.8244 -0.1927
  966MOL0     C30294   2.694   5.669  11.490  0.0532 -0.0194  0.5085
  966MOL0     C30295   2.756   5.529  11.475  0.3891 -0.1243  0.1320
  966MOL0     C30296   2.869   5.534  11.369 -0.4981 -1.1227  0.1758
  966MOL0     C30297   2.935   5.402  11.346 -0.1260 -0.2110  1.2667
  966MOL0     C30298   3.074   5.415  11.274  0.0316  0.1855 -0.4926
  966MOL0     O30299   3.197   5.379  11.347  0.7235  0.2574  0.4825
  966MOL0     C30300   3.318   5.393  11.290 -0.4332  0.8802  0.1119
  966MOL0     C30301   3.335   5.436  11.159 -0.8961 -0.5651  0.0180
  966MOL0     C30302   3.467   5.458  11.116 -0.8251  0.1198  0.4632
  966MOL0     C30303   3.581   5.442  11.197  0.0556  0.7152 -1.1519
  966MOL0     C30304   3.720   5.460  11.142 -0.2983 -0.3048 -0.5179
  966MOL0     O30305   3.751   5.496  11.012 -0.0351  0.1117 -0.0303
  966MOL0     C30306   3.879   5.536  10.980 -0.9490  1.6974  0.8605
  966MOL0     C30307   3.943   5.478  10.865 -0.3727 -0.2658  0.3161
  966MOL0     C30308   4.073   5.515  10.834 -0.1544 -0.7046  0.0014
  966MOL0     C30309   4.154   5.604  10.915  0.3318  0.9401  0.0192
  966MOL0     O30310   4.294   5.606  10.905  1.0870  0.0732 -0.6321
  966MOL0     C30311   4.351   5.620  10.771 -0.0434  0.2554 -0.0004
  966MOL0     C30312   4.327   5.756  10.706 -0.3135  0.6888  1.2498
  966MOL0     C30313   4.443   5.853  10.732  0.2076  0.2062  0.4734
  966MOL0     C30314   4.437   5.980  10.650 -0.1718  0.7406 -0.7463
  966MOL0     C30315   4.300   6.056  10.647 -1.1268  0.2194  0.1169
  966MOL0     C30316   4.237   6.081  10.784 -1.2682  0.4692 -0.4551
  966MOL0     C30317   4.097   6.125  10.760  0.2562 -0.4500 -0.0954
  966MOL0     C30318   4.034   6.164  10.895 -0.2970  0.2243 -1.2714
  966MOL0    Cl30319   4.008   6.022  10.996  0.2782  0.1171  0.4225
  966MOL0     C30320   4.083   5.664  11.022  0.4096  0.5717  1.1555
  966MOL0     C30321   3.960   5.625  11.060  0.3933 -1.0288 -0.2414
  966MOL0     O30322   3.804   5.428  11.227 -0.3822 -0.0675 -0.0253
  966MOL0     C30323   3.553   5.395  11.336 -0.0810 -0.6898 -0.3998
  966MOL0     C30324   3.426   5.379  11.375 -0.1137  0.5350 -0.2224
  966MOL0     N30325   2.606   5.718  11.397  0.3227 -0.3370  0.5974
  966MOL0     N30326   2.552   5.829  11.443  0.0770  0.0412  0.4535
  966MOL0     C30327   2.278   6.626  11.451  0.0367 -0.1672  0.3369
  966MOL0     C30328   2.337   6.693  11.352 -1.0798 -0.0151 -0.1476
  966MOL0     C30329   2.550   6.995  11.086  0.0355 -0.0597  0.1061
  966MOL0     C30330   2.649   6.976  10.993  0.7230  0.5546  0.2297
  966MOL0     C30331   2.702   7.086  10.925 -0.3238  0.2345 -0.0142
  966MOL0     C30332   2.665   7.220  10.945 -0.5720 -0.0820  0.3351
  966MOL0     O30333   2.723   7.325  10.891  0.4121 -0.8266  0.3257
  966MOL0     C30334   2.852   7.325  10.833 -0.1426 -0.3440  0.4997
  966MOL0     C30335   2.873   7.470  10.806  0.2256  0.2441  0.4596
  966MOL0     C30336   3.013   7.501  10.748  0.4438 -0.0328  0.8427
  966MOL0     C30337   3.009   7.626  10.649  0.0134  0.1920  0.4584
  966MOL0     C30338   2.983   7.573  10.510 -0.6261  0.4424 -0.0476
  966MOL0     C30339   2.970   7.519  10.409  0.0746  0.0843  0.3713
  966MOL0     C30340   2.572   7.235  11.038  1.2488 -0.4255 -0.2558
  966MOL0     C30341   2.507   7.136  11.111  0.0874  0.2727 -0.2340
  966MOL0     C30342   2.401   7.187  11.213  0.2526  0.0194 -0.0994
  966MOL0     H30343   2.178   6.981  11.363  0.8291 -0.0777 -1.0999
  966MOL0     H30344   2.067   6.872  11.553 -0.2494  1.4342 -1.5410
  966MOL0     H30345   2.251   6.466  11.670  0.6062 -1.2034  0.0312
  966MOL0     H30346   2.101   6.474  11.768  2.5051 -1.1536  0.1362
  966MOL0     H30347   2.130   6.388  11.485 -1.1256  1.0726  0.4350
  966MOL0     H30348   1.975   6.425  11.552  0.4866  1.7062 -0.2938
  966MOL0     H30349   1.966   6.205  11.655  0.9207 -0.6289  1.7080
  966MOL0     H30350   2.094   6.249  11.748  2.3571 -0.1683  0.7008
  966MOL0     H30351   2.132   6.038  11.620  1.4004 -0.6586  0.4604
  966MOL0     H30352   2.139   6.131  11.474  2.4502 -2.1104 -0.2905
  966MOL0     H30353   2.325   6.269  11.573  1.0033 -1.2488  1.2580
  966MOL0     H30354   2.300   6.230  11.734 -2.7581  1.0291  0.7774
  966MOL0     H30355   2.370   6.003  11.700 -2.5987  1.5439  1.3427
  966MOL0     H30356   2.359   6.008  11.527 -1.3614 -0.4251  1.5256
  966MOL0     H30357   2.557   6.198  11.662  1.3073  2.3406 -2.0898
  966MOL0     H30358   2.553   6.149  11.492 -1.1239 -0.0834  0.5593
  966MOL0     H30359   2.735   6.024  11.605  1.0290 -2.0409  1.2124
  966MOL0     H30360   2.620   5.957  11.728 -1.7266 -4.9226 -1.1492
  966MOL0     H30361   2.799   5.761  11.657  0.2134  1.9211 -0.1842
  966MOL0     H30362   2.794   5.503  11.574  0.5331 -1.2176 -0.2042
  966MOL0     H30363   2.668   5.465  11.460 -1.4111  2.0903  0.6410
  966MOL0     H30364   2.822   5.574  11.278  0.1021  0.7290  0.6300
  966MOL0     H30365   2.952   5.604  11.383  1.3582 -2.7251 -2.1276
  966MOL0     H30366   2.873   5.342  11.278 -1.1448  0.7983  1.2654
  966MOL0     H30367   2.941   5.347  11.440 -1.4260  1.0215  2.1148
  966MOL0     H30368   3.098   5.513  11.232  3.6726 -1.2991 -2.2614
  966MOL0     H30369   3.071   5.350  11.185 -1.4555  0.9776 -1.0627
  966MOL0     H30370   3.244   5.456  11.105 -0.9473 -0.0755  0.2745
  966MOL0     H30371   3.482   5.501  11.018 -0.8712 -1.8768 -0.4680
  966MOL0     H30372   3.898   5.402  10.802  1.4365  1.6892 -3.7974
  966MOL0     H30373   4.123   5.469  10.750  2.7217  3.5161 -0.9132
  966MOL0     H30374   4.460   5.611  10.778 -0.0743 -0.3988 -0.2337
  966MOL0     H30375   4.310   5.534  10.717  0.5382 -0.0159 -0.0234
  966MOL0     H30376   4.328   5.744  10.597  0.6289  1.6506  1.1254
  966MOL0     H30377   4.226   5.791  10.729 -1.3650 -0.8739 -0.6638
  966MOL0     H30378   4.453   5.874  10.839  1.6271  0.8488  0.2341
  966MOL0     H30379   4.542   5.813  10.708  0.8682  1.3569  1.1865
  966MOL0     H30380   4.467   5.969  10.546  1.0517 -0.8893 -0.2656
  966MOL0     H30381   4.512   6.047  10.692  0.0085 -1.3525  2.6967
  966MOL0     H30382   4.239   5.999  10.576  0.5326 -1.5539  0.0437
  966MOL0     H30383   4.319   6.156  10.606  1.0345 -0.2456 -0.1317
  966MOL0     H30384   4.242   5.992  10.849 -0.2160  2.9036  3.1162
  966MOL0     H30385   4.301   6.148  10.842 -0.7919 -1.8838  1.9711
  966MOL0     H30386   4.035   6.044  10.722  0.4065 -1.5825  1.9392
  966MOL0     H30387   4.091   6.217  10.700  2.1337  0.2181  0.6617
  966MOL0     H30388   4.107   6.233  10.937  1.4828 -1.4908 -1.4133
  966MOL0     H30389   3.932   6.203  10.885 -0.1534  1.0749  0.2425
  966MOL0     H30390   4.135   5.724  11.096 -0.5507 -0.6116  2.8565
  966MOL0     H30391   3.907   5.666  11.145  0.2468  0.5617 -1.0658
  966MOL0     H30392   3.618   5.374  11.421  0.3160  1.4239 -0.1203
  966MOL0     H30393   3.416   5.342  11.477 -0.9471  1.5437  0.0856
  966MOL0     H30394   2.301   6.520  11.448 -0.1689 -0.2018 -0.1329
  966MOL0     H30395   2.403   6.622  11.305 -2.2949 -1.0501 -0.3622
  966MOL0     H30396   2.687   6.878  10.967  0.8501  1.2562 -2.6356
  966MOL0     H30397   2.767   7.060  10.842 -3.7061  0.5005 -3.0057
  966MOL0     H30398   2.845   7.256  10.749 -0.7200 -0.5360  0.6992
  966MOL0     H30399   2.934   7.283  10.892 -1.1088 -3.6086 -0.2708
  966MOL0     H30400   2.852   7.533  10.892 -4.2818  0.5942 -0.6770
  966MOL0     H30401   2.801   7.508  10.733  0.4275  1.3440  0.8175
  966MOL0     H30402   3.055   7.415  10.695 -0.9199  0.2591 -0.8227
  966MOL0     H30403   3.062   7.525  10.843 -0.7668 -0.2524  1.5487
  966MOL0     H30404   2.932   7.694  10.688 -1.6948 -1.2053 -0.3305
  966MOL0     H30405   3.100   7.687  10.649 -0.8587  1.5449  0.4790
  966MOL0     H30406   2.982   7.449  10.329 -0.3000 -1.9389  1.9981
  966MOL0     H30407   2.542   7.338  11.054  1.2100 -0.3588 -0.7532
  966MOL0     H30408   2.312   7.123  11.214  2.0952 -2.8182  2.6686
  966MOL0     H30409   2.434   7.185  11.318  0.1473 -3.7905  0.0173
  966MOL0     H30410   2.369   7.285  11.179 -1.3447 -0.8682 -1.3157
  967MOL0     O30411   0.822   6.483  10.540  0.8895 -0.0330  0.4859
  967MOL0     C30412   0.768   6.561  10.464  0.1210  1.4403 -0.5512
  967MOL0     O30413   0.829   6.654  10.389  0.1040 -0.2421 -0.1199
  967MOL0     C30414   0.963   6.656  10.401 -0.3024 -0.1242 -0.3792
  967MOL0     C30415   1.024   6.721  10.509  0.3977 -0.8444  0.2530
  967MOL0     C30416   1.163   6.727  10.528  0.0145 -0.4643  0.1765
  967MOL0     C30417   1.244   6.666  10.432 -0.9696 -0.3385  0.8370
  967MOL0     O30418   1.381   6.655  10.435 -0.2386  0.0770  0.3216
  967MOL0     C30419   1.416   6.548  10.531 -0.4753  0.4680 -0.1767
  967MOL0     C30420   1.561   6.545  10.576 -0.0362  0.4560 -0.0166
  967MOL0     C30421   1.605   6.437  10.675  0.8795  0.6021  0.1196
  967MOL0     C30422   1.744   6.460  10.731  0.3788 -0.4737  0.1909
  967MOL0     C30423   1.861   6.422  10.629 -0.3049  0.0270 -0.1200
  967MOL0     C30424   1.988   6.393  10.705  0.2833 -0.0682 -0.2046
  967MOL0     C30425   2.108   6.360  10.612 -0.2121  0.3196  0.1870
  967MOL0     C30426   2.236   6.394  10.675 -0.3863 -0.1055 -0.1806
  967MOL0     N30427   2.350   6.380  10.578 -0.0734  0.2378 -0.0993
  967MOL0     C30428   2.477   6.332  10.608  0.0132 -0.3686 -0.7669
  967MOL0     C30429   2.546   6.365  10.495 -0.1543  0.0919  0.0897
  967MOL0     C30430   2.697   6.361  10.475  0.0253 -0.0209  0.6834
  967MOL0     C30431   2.765   6.490  10.445  1.1342 -0.7469  0.2037
  967MOL0     C30432   2.718   6.602  10.544  0.4468 -0.2994 -0.5096
  967MOL0     C30433   2.811   6.729  10.517  0.1401 -0.0871  0.0957
  967MOL0     O30434   2.935   6.711  10.578  0.1467  0.2460  0.1913
  967MOL0     C30435   3.035   6.805  10.589 -0.1837 -0.9117 -0.5814
  967MOL0     C30436   3.163   6.770  10.645 -0.0532  0.7037 -0.5048
  967MOL0     C30437   3.249   6.865  10.701 -0.7821  1.2025 -0.5106
  967MOL0     C30438   3.228   7.001  10.681 -0.5466  0.6559  0.3762
  967MOL0     C30439   3.316   7.097  10.750  0.6558  0.5681 -0.3263
  967MOL0     O30440   3.436   7.051  10.797  0.4090  0.0746  0.7310
  967MOL0     C30441   3.523   7.150  10.847 -0.1133  0.0980 -0.2171
  967MOL0     C30442   3.492   7.219  10.968  0.4353  0.0359 -0.0363
  967MOL0     C30443   3.590   7.306  11.030  0.0490 -0.3479 -0.5495
  967MOL0     C30444   3.725   7.303  10.992  0.2111  0.4456  0.7370
  967MOL0     O30445   3.831   7.363  11.059  0.5938 -0.2337 -0.2309
  967MOL0     C30446   3.789   7.472  11.153 -0.8155 -0.0264  0.5436
  967MOL0     C30447   3.914   7.555  11.196  0.2667 -0.2668 -0.4404
  967MOL0     C30448   3.982   7.626  11.079 -0.0367  0.3423  0.3844
  967MOL0     C30449   4.112   7.566  11.029  1.1507  0.0436  0.4039
  967MOL0     C30450   4.174   7.671  10.931  0.0548 -0.3102 -0.7100
  967MOL0     C30451   4.303   7.602  10.866  0.2962 -0.3591 -0.4209
  967MOL0     C30452   4.352   7.691  10.747  0.3015 -0.4587  0.0642
  967MOL0     C30453   4.476   7.650  10.675 -0.6354 -0.0101 -0.3348
  967MOL0    Cl30454   4.603   7.572  10.793 -0.0945 -0.3153 -0.0275
  967MOL0     C30455   3.756   7.227  10.880  0.5338 -0.0519  0.2069
  967MOL0     C30456   3.657   7.153  10.811  0.8463  1.3851  0.5675
  967MOL0     O30457   3.274   7.211  10.756 -0.4664 -0.0981  0.3819
  967MOL0     C30458   3.105   7.032  10.619 -0.6148 -0.2938 -0.4807
  967MOL0     C30459   3.010   6.937  10.571  0.4777  0.0076 -0.2800
  967MOL0     N30460   2.466   6.424  10.398 -0.6603 -0.7346 -1.1947
  967MOL0     N30461   2.349   6.431  10.451  0.7133  0.2862  0.2014
  967MOL0     C30462   1.183   6.610  10.321  0.2838 -1.0775 -0.2720
  967MOL0     C30463   1.041   6.603  10.301 -0.5719  0.1731 -0.8016
  967MOL0     C30464   0.618   6.559  10.455 -0.4159 -0.5278 -0.3956
  967MOL0     C30465   0.554   6.671  10.418  0.4261 -0.3030 -0.5090
  967MOL0     C30466   0.415   6.685  10.424 -0.0269  0.3204  0.1528
  967MOL0     C30467   0.327   6.585  10.462 -0.2405 -0.2567 -0.6364
  967MOL0     O30468   0.194   6.583  10.458  1.6503 -0.1494 -0.1198
  967MOL0     C30469   0.116   6.707  10.455  0.1390 -0.6780  0.7771
  967MOL0     C30470   0.002   6.713  10.364  0.3160  0.0454  1.4289
  967MOL0     C30471   0.046   6.719  10.214 -0.3124  0.0836  0.9778
  967MOL0     C30472  -0.066   6.726  10.116  0.3093  0.6086 -0.4783
  967MOL0     C30473  -0.168   6.825  10.140 -0.8017  0.6511  0.4146
  967MOL0     C30474  -0.239   6.920  10.154 -0.1949 -1.2416  0.1519
  967MOL0     C30475   0.390   6.463  10.471  0.3649 -0.2741 -0.7464
  967MOL0     C30476   0.534   6.449  10.476  0.8573  0.1394  0.3224
  967MOL0     C30477   0.574   6.300  10.486 -0.3171 -0.1686  0.6411
  967MOL0     H30478   0.974   6.782  10.582  3.2161 -1.3750  2.8333
  967MOL0     H30479   1.204   6.755  10.625 -1.6964 -1.2710  1.1795
  967MOL0     H30480   1.360   6.555  10.625  1.2667 -0.3246  0.9597
  967MOL0     H30481   1.389   6.455  10.482 -1.9692  1.1330 -0.6768
  967MOL0     H30482   1.589   6.643  10.617  1.4931  1.1300 -2.4104
  967MOL0     H30483   1.623   6.531  10.486 -0.7335  0.6794 -0.5391
  967MOL0     H30484   1.605   6.337  10.629 -0.0110  0.1033  1.1366
  967MOL0     H30485   1.525   6.427  10.749 -1.6252 -2.0955 -2.6501
  967MOL0     H30486   1.753   6.563  10.767 -2.1472  0.3768 -1.3612
  967MOL0     H30487   1.755   6.404  10.824 -1.8590  2.6515  2.5596
  967MOL0     H30488   1.833   6.330  10.578 -0.2834  0.8763 -1.7088
  967MOL0     H30489   1.859   6.500  10.552 -0.3135  2.3211  2.0554
  967MOL0     H30490   2.010   6.488  10.755 -0.2317  0.2721 -0.6132
  967MOL0     H30491   1.978   6.316  10.782 -0.1903 -1.3646 -1.5125
  967MOL0     H30492   2.100   6.429  10.527 -0.4545  1.8183  1.3760
  967MOL0     H30493   2.111   6.255  10.580 -0.4528  0.8971 -1.9278
  967MOL0     H30494   2.238   6.501  10.699  3.5123 -0.3273  1.2539
  967MOL0     H30495   2.245   6.337  10.769 -4.3051 -0.0519  0.3903
  967MOL0     H30496   2.507   6.292  10.704 -2.4495  1.3415  0.7991
  967MOL0     H30497   2.747   6.322  10.563  0.6470  0.1519  0.4116
  967MOL0     H30498   2.719   6.295  10.391 -2.1147 -0.1831  0.1755
  967MOL0     H30499   2.873   6.477  10.463  1.9099  2.1726 -1.6097
  967MOL0     H30500   2.754   6.510  10.338  1.1345 -1.6596  0.0252
  967MOL0     H30501   2.729   6.581  10.651 -1.1127 -0.7865 -0.4267
  967MOL0     H30502   2.610   6.618  10.539  0.3267 -1.0899 -0.5306
  967MOL0     H30503   2.754   6.815  10.554  1.3286 -0.2027  2.3597
  967MOL0     H30504   2.825   6.742  10.410 -1.1599  2.7983  0.1761
  967MOL0     H30505   3.190   6.666  10.658  2.0219  1.1410 -0.8817
  967MOL0     H30506   3.338   6.831  10.754 -2.7879 -0.7767  1.8997
  967MOL0     H30507   3.391   7.203  11.003  0.1879  2.3640  0.5227
  967MOL0     H30508   3.560   7.347  11.126  1.2912 -1.1989  0.2287
  967MOL0     H30509   3.717   7.532  11.097  0.2456  0.6577 -0.1139
  967MOL0     H30510   3.751   7.420  11.242  2.9756 -0.7806  1.9422
  967MOL0     H30511   3.878   7.633  11.263  0.8508 -0.1463 -0.2627
  967MOL0     H30512   3.992   7.497  11.247  1.4114  0.6300 -1.1052
  967MOL0     H30513   3.913   7.613  10.995 -0.8238  1.4964  0.8342
  967MOL0     H30514   3.991   7.732  11.103 -1.8276  0.5132  0.3807
  967MOL0     H30515   4.106   7.471  10.975  1.5363 -0.1511  0.7030
  967MOL0     H30516   4.175   7.540  11.114  2.0501 -2.0282 -0.8311
  967MOL0     H30517   4.192   7.757  10.996 -1.0743 -1.8703  1.8032
  967MOL0     H30518   4.108   7.701  10.849  2.2529  0.9602 -2.1040
  967MOL0     H30519   4.378   7.599  10.945  1.3237 -2.2438 -1.3743
  967MOL0     H30520   4.291   7.502  10.824  2.3200 -0.2466 -1.4142
  967MOL0     H30521   4.366   7.786  10.800  0.3119 -0.6342  0.3770
  967MOL0     H30522   4.264   7.713  10.685 -0.2777  3.7214  1.9716
  967MOL0     H30523   4.448   7.589  10.589 -3.3287  2.5416 -1.4467
  967MOL0     H30524   4.519   7.742  10.635 -3.0981  1.9072  1.1073
  967MOL0     H30525   3.861   7.233  10.854  0.3488  1.8328 -0.2345
  967MOL0     H30526   3.690   7.084  10.734  3.0485  0.7175  1.9910
  967MOL0     H30527   3.077   7.134  10.596  2.1061  0.0832 -2.6767
  967MOL0     H30528   2.920   6.973  10.520  0.2085  0.5406  0.5501
  967MOL0     H30529   1.258   6.585  10.247  0.7185  3.4650 -1.6935
  967MOL0     H30530   1.012   6.546  10.213 -3.3796  0.8099 -0.3720
  967MOL0     H30531   0.612   6.759  10.394 -2.6990  1.8970 -0.6297
  967MOL0     H30532   0.376   6.779  10.385  0.1917  1.8299  3.2522
  967MOL0     H30533   0.185   6.786  10.425  0.4959 -0.5433  1.8991
  967MOL0     H30534   0.069   6.725  10.552  1.9031  0.9862  1.3705
  967MOL0     H30535  -0.063   6.795  10.395 -3.4417 -3.1810  3.0082
  967MOL0     H30536  -0.052   6.618  10.373 -0.3353  0.3195  0.4766
  967MOL0     H30537   0.099   6.629  10.181 -0.9959 -0.4968  1.4314
  967MOL0     H30538   0.114   6.803  10.198 -0.0514 -0.4657 -1.1656
  967MOL0     H30539  -0.020   6.743  10.019  1.3177  3.5483  0.4215
  967MOL0     H30540  -0.116   6.629  10.114 -2.8694  2.1311 -0.2992
  967MOL0     H30541  -0.295   7.007  10.181  0.5857 -1.0769  1.3166
  967MOL0     H30542   0.323   6.377  10.476  0.9889 -0.7060  0.3769
  967MOL0     H30543   0.486   6.239  10.510  0.2856 -2.0552 -1.5235
  967MOL0     H30544   0.611   6.263  10.390 -0.9468 -2.1000  1.0756
  967MOL0     H30545   0.649   6.283  10.564 -0.2047  1.2851  0.8618
  968MOL0     O30546   0.674   7.011  10.246  0.1268  0.3074 -0.2714
  968MOL0     C30547   0.691   6.971  10.134  0.0610  0.4854 -0.0589
  968MOL0     O30548   0.798   6.991  10.053  0.0596 -0.1514 -0.2119
  968MOL0     C30549   0.910   7.056  10.112  0.5289  0.2193 -0.3774
  968MOL0     C30550   0.981   6.985  10.211 -0.0732 -0.7747 -0.1363
  968MOL0     C30551   1.098   7.051  10.276  0.2542  0.2920  0.3175
  968MOL0     C30552   1.144   7.178  10.233 -0.5966 -0.5702 -0.7373
  968MOL0     O30553   1.255   7.232  10.306 -0.4847  0.4095  0.7850
  968MOL0     C30554   1.282   7.371  10.299 -0.6358 -0.6395  0.2378
  968MOL0     C30555   1.397   7.409  10.383 -0.4812 -0.3855 -0.2785
  968MOL0     C30556   1.527   7.340  10.342  0.4166  0.2352  0.3919
  968MOL0     C30557   1.642   7.397  10.434  0.2824  0.4338 -0.9244
  968MOL0     C30558   1.756   7.291  10.459  0.6724  0.1511  0.0804
  968MOL0     C30559   1.871   7.342  10.554 -0.3202 -0.3683  0.0546
  968MOL0     C30560   1.960   7.432  10.472 -0.0453 -0.0588 -0.3799
  968MOL0     C30561   2.064   7.355  10.402 -0.6575 -0.3401  0.0723
  968MOL0     N30562   2.109   7.427  10.284  0.6528 -0.2711  0.0906
  968MOL0     C30563   2.073   7.407  10.147  0.5381  0.2409 -0.0990
  968MOL0     C30564   2.125   7.512  10.082 -0.4478  0.4015  0.3018
  968MOL0     C30565   2.138   7.530   9.934 -0.6856  0.3775 -0.4662
  968MOL0     C30566   2.270   7.575   9.881  0.1548  0.4265  0.0179
  968MOL0     C30567   2.378   7.467   9.894  0.5754 -0.3921 -0.5769
  968MOL0     C30568   2.509   7.539   9.837 -0.4634 -0.7889 -0.1301
  968MOL0     O30569   2.611   7.445   9.859 -0.2533  0.5474  0.5110
  968MOL0     C30570   2.739   7.488   9.862 -0.1970  0.8865  0.0263
  968MOL0     C30571   2.838   7.408   9.925  0.2037  0.2553  0.6810
  968MOL0     C30572   2.979   7.435   9.927 -0.6492 -0.8405 -0.1295
  968MOL0     C30573   3.017   7.557   9.885 -0.1470 -0.5091  0.8158
  968MOL0     C30574   3.161   7.603   9.904  0.3288 -0.3217  0.9084
  968MOL0     O30575   3.243   7.495   9.927  0.4359  0.3057 -0.9906
  968MOL0     C30576   3.379   7.519   9.949  0.1560 -1.7269  0.6534
  968MOL0     C30577   3.435   7.488  10.073 -0.3475 -1.0032  0.6403
  968MOL0     C30578   3.555   7.559  10.108 -0.4972  0.2873  0.6296
  968MOL0     C30579   3.634   7.639  10.023  0.0249 -0.0671 -0.1602
  968MOL0     O30580   3.758   7.691  10.063  0.2117 -1.0745 -0.4831
  968MOL0     C30581   3.849   7.726   9.958  0.3299  0.0164  1.0607
  968MOL0     C30582   3.988   7.758  10.014  1.3379  1.3345  0.0858
  968MOL0     C30583   4.055   7.649  10.100  2.1134  0.1853 -0.0317
  968MOL0     C30584   4.202   7.684  10.115  0.4553  0.1389  0.3422
  968MOL0     C30585   4.268   7.611  10.229 -0.3879  0.5413  0.0984
  968MOL0     C30586   4.307   7.460  10.201 -0.2049 -0.0711 -0.4195
  968MOL0     C30587   4.397   7.400  10.304  0.1271  0.3133 -0.9162
  968MOL0     C30588   4.516   7.310  10.258 -0.3560 -0.2464 -0.3274
  968MOL0    Cl30589   4.472   7.175  10.137  0.4013  0.4520 -0.0002
  968MOL0     C30590   3.573   7.663   9.896 -0.0906  0.1186  0.3886
  968MOL0     C30591   3.454   7.604   9.865  0.1875  0.0604  0.8102
  968MOL0     O30592   3.193   7.717   9.888 -0.0564 -0.2176 -0.4018
  968MOL0     C30593   2.927   7.649   9.830  1.5949  0.1536  0.4913
  968MOL0     C30594   2.784   7.609   9.810  0.2275  0.5594 -0.3104
  968MOL0     N30595   2.171   7.603  10.177 -0.2285 -0.3464  1.3118
  968MOL0     N30596   2.165   7.553  10.293  1.4535 -0.6151 -1.0249
  968MOL0     C30597   1.074   7.238  10.131  0.5247 -1.1421 -1.0731
  968MOL0     C30598   0.952   7.188  10.087  0.0207  0.1583 -0.4905
  968MOL0     C30599   0.579   6.896  10.064  0.0800 -0.8267 -0.7290
  968MOL0     C30600   0.451   6.956  10.073  0.2492  1.4902  0.8713
  968MOL0     C30601   0.346   6.885  10.010  0.3581 -0.7142  0.4694
  968MOL0     C30602   0.358   6.764   9.944 -0.1102  0.6746  0.3033
  968MOL0     O30603   0.252   6.720   9.868 -0.1146  0.1677 -0.0335
  968MOL0     C30604   0.282   6.616   9.785  0.8771 -0.6505  0.1495
  968MOL0     C30605   0.158   6.588   9.711 -0.2781 -0.5986 -0.1340
  968MOL0     C30606   0.114   6.698   9.623 -0.2704 -0.9017 -0.2077
  968MOL0     C30607   0.022   6.795   9.686  0.7785  0.4007  0.6658
  968MOL0     C30608  -0.104   6.740   9.720 -0.5907  0.3093  0.0753
  968MOL0     C30609  -0.205   6.680   9.757  0.2032  0.3715  0.5781
  968MOL0     C30610   0.490   6.711   9.942  0.7660 -0.2797 -0.9320
  968MOL0     C30611   0.603   6.770  10.001  0.1550  0.1512  0.1534
  968MOL0     C30612   0.737   6.703   9.995 -0.1228  0.2758 -0.7011
  968MOL0     H30613   0.960   6.880  10.226 -1.3923 -0.9972 -2.9962
  968MOL0     H30614   1.165   6.996  10.342  0.6317  3.7383  3.0772
  968MOL0     H30615   1.307   7.394  10.196  0.0779 -3.5476 -0.3370
  968MOL0     H30616   1.194   7.432  10.322 -0.9752 -0.2907 -1.7991
  968MOL0     H30617   1.364   7.393  10.486  0.3170 -0.7570 -0.0748
  968MOL0     H30618   1.414   7.517  10.388  1.1732 -0.6288 -0.0331
  968MOL0     H30619   1.548   7.349  10.235 -0.0031 -1.0277  0.1907
  968MOL0     H30620   1.518   7.232  10.356  0.8172  0.5162  3.4918
  968MOL0     H30621   1.677   7.493  10.396 -2.9119  2.0799 -0.0368
  968MOL0     H30622   1.613   7.418  10.538  0.0971  2.6909 -1.3800
  968MOL0     H30623   1.715   7.215  10.526  0.8692 -0.8655 -0.9280
  968MOL0     H30624   1.783   7.242  10.366  4.7994  1.0040  0.6678
  968MOL0     H30625   1.822   7.398  10.634 -0.3881 -3.7557  2.5753
  968MOL0     H30626   1.929   7.259  10.593 -0.7992 -1.8709 -2.2306
  968MOL0     H30627   2.000   7.501  10.546  1.7022 -2.3910  0.9588
  968MOL0     H30628   1.911   7.484  10.388  2.8137  1.9110 -0.9535
  968MOL0     H30629   2.147   7.333  10.470 -1.9874  1.5905  2.4921
  968MOL0     H30630   2.023   7.256  10.380  2.8770 -1.5778 -1.6556
  968MOL0     H30631   2.040   7.310  10.111  0.1071  0.4702 -0.3311
  968MOL0     H30632   2.116   7.429   9.899  1.6884 -0.5015  0.3666
  968MOL0     H30633   2.061   7.604   9.910  1.5028  3.7128  1.7978
  968MOL0     H30634   2.259   7.607   9.777 -2.6106  0.9736  0.4127
  968MOL0     H30635   2.298   7.662   9.942 -1.2603  1.2648 -0.4761
  968MOL0     H30636   2.341   7.379   9.840  1.6202  0.5129 -2.9256
  968MOL0     H30637   2.383   7.447  10.001  2.0596 -0.0457 -0.5619
  968MOL0     H30638   2.528   7.633   9.889  1.5033 -0.9036 -0.5594
  968MOL0     H30639   2.495   7.556   9.730 -4.3190 -0.3580  0.2835
  968MOL0     H30640   2.810   7.321   9.983 -0.3318 -0.1082 -0.0963
  968MOL0     H30641   3.041   7.354   9.965 -0.6837 -1.5928 -1.5631
  968MOL0     H30642   3.387   7.427  10.149 -1.7292 -0.4654  0.2288
  968MOL0     H30643   3.580   7.536  10.211 -4.1850  0.0607  1.6187
  968MOL0     H30644   3.861   7.643   9.887  0.8250  0.6723  0.3658
  968MOL0     H30645   3.802   7.810   9.906  1.8617 -1.6558 -3.6043
  968MOL0     H30646   4.054   7.785   9.931 -0.9834 -1.0272 -2.7561
  968MOL0     H30647   3.967   7.844  10.077  1.0471  0.6001  1.0217
  968MOL0     H30648   3.996   7.633  10.191  2.0994 -0.1350 -0.0947
  968MOL0     H30649   4.061   7.555  10.045  1.6836  1.1188 -1.7462
  968MOL0     H30650   4.210   7.793  10.121 -0.2342  0.2859 -0.9038
  968MOL0     H30651   4.248   7.662  10.018 -0.8446 -0.2615 -0.2060
  968MOL0     H30652   4.200   7.618  10.315 -0.3086 -0.8258  0.2978
  968MOL0     H30653   4.367   7.653  10.253 -0.4056 -0.2324  1.7183
  968MOL0     H30654   4.213   7.405  10.191 -1.9503  2.2732  1.7576
  968MOL0     H30655   4.358   7.468  10.105 -0.4143  2.8465 -0.3806
  968MOL0     H30656   4.341   7.343  10.379 -0.3783  0.3856 -1.2299
  968MOL0     H30657   4.444   7.476  10.366 -0.4156 -1.6582  2.1183
  968MOL0     H30658   4.592   7.367  10.204  0.2455  0.2788  1.0265
  968MOL0     H30659   4.568   7.263  10.343 -0.6264  0.3814  0.1911
  968MOL0     H30660   3.625   7.722   9.821  2.0753 -1.9750  0.1128
  968MOL0     H30661   3.423   7.620   9.762 -1.8654  2.6867  1.6913
  968MOL0     H30662   2.970   7.743   9.797  2.2211 -0.0319  0.7679
  968MOL0     H30663   2.723   7.683   9.759 -1.7711 -1.3945 -0.9077
  968MOL0     H30664   1.103   7.337  10.096  0.3844 -0.4887  0.5916
  968MOL0     H30665   0.916   7.247  10.004  0.8380 -1.6276 -2.1786
  968MOL0     H30666   0.443   7.060  10.105  0.7488  1.2504  1.8364
  968MOL0     H30667   0.246   6.926  10.008  1.0062  0.9921  1.3532
  968MOL0     H30668   0.321   6.531   9.842  3.4483 -0.1321 -0.7098
  968MOL0     H30669   0.359   6.649   9.715  0.2456 -0.0630 -0.2790
  968MOL0     H30670   0.081   6.560   9.785 -1.7279 -1.4804 -1.8835
  968MOL0     H30671   0.171   6.499   9.648 -2.3934 -0.7810 -0.4045
  968MOL0     H30672   0.049   6.652   9.548  1.4769 -2.0250 -1.0902
  968MOL0     H30673   0.199   6.747   9.575  0.7584 -1.5725  0.8680
  968MOL0     H30674   0.067   6.853   9.768  1.7073  0.2187  0.3005
  968MOL0     H30675  -0.005   6.862   9.604 -4.0032 -2.1437 -0.1846
  968MOL0     H30676  -0.293   6.621   9.768  0.5043 -0.1214  0.3887
  968MOL0     H30677   0.518   6.615   9.900 -0.1412 -0.6734 -0.6408
  968MOL0     H30678   0.736   6.618   9.927  3.0651  0.0069 -0.5622
  968MOL0     H30679   0.813   6.770   9.953  0.2213 -0.4222 -1.2082
  968MOL0     H30680   0.756   6.667  10.097 -2.6106 -3.2633 -1.3156
  969MOL0     O30681   0.045   6.045   9.455 -0.7439 -0.1404  0.0701
  969MOL0     C30682   0.144   6.102   9.395  0.2218 -0.4950 -0.9734
  969MOL0     O30683   0.184   6.069   9.272 -0.1355 -0.0101 -0.2594
  969MOL0     C30684   0.103   6.001   9.189 -0.6558 -0.3411  0.2638
  969MOL0     C30685  -0.039   6.026   9.166  0.1989  0.5473  0.1820
  969MOL0     C30686  -0.114   5.945   9.084 -0.5242 -0.3814 -0.1373
  969MOL0     C30687  -0.050   5.835   9.014  0.2537  0.1828 -0.0161
  969MOL0     O30688  -0.114   5.745   8.926 -0.8037  0.3980 -0.1871
  969MOL0     C30689  -0.257   5.720   8.935 -0.2567 -0.0903 -0.5280
  969MOL0     C30690  -0.320   5.793   8.816 -0.2877 -0.1426  0.4771
  969MOL0     C30691  -0.470   5.752   8.787  0.8059 -0.0287 -0.1426
  969MOL0     C30692  -0.516   5.822   8.655  0.5588 -0.1889 -0.9781
  969MOL0     C30693  -0.667   5.792   8.634 -0.7513 -0.1463  0.2672
  969MOL0     C30694  -0.733   5.887   8.526  0.3865 -0.2574  0.2563
  969MOL0     C30695  -0.870   5.836   8.497 -0.0567 -0.2373  0.6030
  969MOL0     C30696  -0.944   5.936   8.406  0.1352 -1.0765  0.8627
  969MOL0     N30697  -0.894   5.949   8.272 -0.6156  0.2438  1.1380
  969MOL0     C30698  -0.832   6.058   8.213 -0.2299  0.6675 -0.5404
  969MOL0     C30699  -0.807   6.022   8.090  1.2666 -0.0958  0.1666
  969MOL0     C30700  -0.714   6.093   7.985  0.1671 -0.2164  1.1117
  969MOL0     C30701  -0.599   6.183   8.047  0.4517  0.4834 -0.3292
  969MOL0     C30702  -0.513   6.251   7.938 -0.0895  1.3286 -0.4815
  969MOL0     C30703  -0.424   6.344   8.025  0.4861  0.4410  0.5575
  969MOL0     O30704  -0.337   6.402   7.934  0.2766 -0.8385  0.3226
  969MOL0     C30705  -0.253   6.495   7.987  0.2589 -0.8768  0.1228
  969MOL0     C30706  -0.282   6.592   8.087 -0.6762 -0.6812 -0.2069
  969MOL0     C30707  -0.198   6.685   8.147  0.4690 -0.1862 -1.1073
  969MOL0     C30708  -0.052   6.679   8.111  0.1954  0.4986 -1.3499
  969MOL0     C30709   0.050   6.755   8.187  0.5595  0.9403  0.1658
  969MOL0     O30710   0.177   6.738   8.148  0.3365  0.0922  0.3776
  969MOL0     C30711   0.268   6.830   8.206 -0.0485  0.8255  0.9019
  969MOL0     C30712   0.239   6.958   8.245  0.3845 -0.4872  0.6248
  969MOL0     C30713   0.335   7.048   8.279 -0.5708 -0.1989 -0.0169
  969MOL0     C30714   0.465   6.997   8.299 -0.8335  0.3896 -0.2324
  969MOL0     O30715   0.558   7.090   8.350  0.5723 -1.0950 -0.3258
  969MOL0     C30716   0.692   7.061   8.317  0.3371  0.0595 -0.6362
  969MOL0     C30717   0.775   7.178   8.372 -0.3387  0.4542 -0.3801
  969MOL0     C30718   0.924   7.149   8.388 -0.9338 -0.3764 -0.2351
  969MOL0     C30719   0.999   7.130   8.252 -0.2435 -0.2615  0.0062
  969MOL0     C30720   1.148   7.144   8.250  0.1612  0.2173 -0.0069
  969MOL0     C30721   1.237   7.078   8.359 -0.4611 -0.0497 -0.7784
  969MOL0     C30722   1.252   6.933   8.330  1.0784 -0.3983  1.0689
  969MOL0     C30723   1.370   6.878   8.395 -1.0295  0.1656  0.3415
  969MOL0    Cl30724   1.527   6.885   8.306  0.5509 -0.2461 -0.1811
  969MOL0     C30725   0.496   6.864   8.260  0.5222 -0.4752 -0.0101
  969MOL0     C30726   0.397   6.790   8.203  0.1433 -0.0641 -0.5126
  969MOL0     O30727   0.006   6.802   8.294 -0.1524  0.6585 -0.2177
  969MOL0     C30728  -0.025   6.581   8.011 -0.0703  0.4411 -0.1305
  969MOL0     C30729  -0.121   6.501   7.949  0.7425 -0.2735 -0.0333
  969MOL0     N30730  -0.869   5.905   8.069 -0.5903  0.0192  0.1501
  969MOL0     N30731  -0.919   5.861   8.177 -0.0560  0.5555  0.7034
  969MOL0     C30732   0.084   5.816   9.026 -0.6454 -0.5556 -0.1542
  969MOL0     C30733   0.156   5.897   9.110  0.2816 -0.5034  0.0421
  969MOL0     C30734   0.232   6.183   9.481 -0.2520 -0.6319  0.4796
  969MOL0     C30735   0.213   6.182   9.617  0.3566 -1.3092 -0.1326
  969MOL0     C30736   0.304   6.232   9.710 -0.3577 -0.3699  0.7000
  969MOL0     C30737   0.423   6.284   9.664  0.1459  0.5960 -0.5862
  969MOL0     O30738   0.508   6.323   9.763  0.1418  0.0200  0.0933
  969MOL0     C30739   0.645   6.351   9.729 -0.7440 -0.5737  0.3064
  969MOL0     C30740   0.727   6.231   9.674  0.2001  0.9308 -0.6593
  969MOL0     C30741   0.742   6.117   9.776  0.5610 -0.5826  0.1063
  969MOL0     C30742   0.634   6.024   9.792 -0.9513 -0.0967 -0.6965
  969MOL0     C30743   0.662   5.944   9.909 -0.0953  0.5754  0.1717
  969MOL0     C30744   0.690   5.878  10.009  0.2919  1.6916 -0.6106
  969MOL0     C30745   0.441   6.300   9.529  0.7278 -0.0090  0.8705
  969MOL0     C30746   0.354   6.254   9.438 -0.6790 -0.3675 -0.2380
  969MOL0     C30747   0.395   6.274   9.288  0.3538  0.1176  0.2081
  969MOL0     H30748  -0.085   6.106   9.224  1.0292 -0.9082  3.0238
  969MOL0     H30749  -0.214   5.977   9.056 -0.6673 -0.8144 -0.1289
  969MOL0     H30750  -0.254   5.611   8.928 -0.1110 -0.4979  3.5098
  969MOL0     H30751  -0.304   5.749   9.029  1.7916 -0.6992  0.7375
  969MOL0     H30752  -0.267   5.762   8.726 -2.3831 -1.5407 -0.3317
  969MOL0     H30753  -0.314   5.899   8.841  0.0097 -0.6845  3.0625
  969MOL0     H30754  -0.528   5.762   8.879  1.9577  0.4763  0.5570
  969MOL0     H30755  -0.469   5.645   8.766  0.9819 -0.4176  1.6688
  969MOL0     H30756  -0.509   5.929   8.675  0.3397 -0.4491  0.6450
  969MOL0     H30757  -0.455   5.802   8.566  0.9207  1.0430 -1.0222
  969MOL0     H30758  -0.683   5.684   8.620 -1.4722  0.0970 -0.9571
  969MOL0     H30759  -0.700   5.819   8.735  0.5282 -0.7759  0.8748
  969MOL0     H30760  -0.728   5.990   8.562  0.3785 -0.5762  1.2201
  969MOL0     H30761  -0.680   5.880   8.431 -1.5036 -4.6838 -0.7201
  969MOL0     H30762  -0.929   5.805   8.584 -3.1568  0.7912 -0.9903
  969MOL0     H30763  -0.876   5.741   8.442  0.4845  0.3621 -0.5122
  969MOL0     H30764  -1.043   5.891   8.407  0.7314 -2.5291 -0.5855
  969MOL0     H30765  -0.961   6.036   8.448  0.1172 -1.3327  1.4715
  969MOL0     H30766  -0.801   6.147   8.268  0.0188 -0.3153  0.9769
  969MOL0     H30767  -0.658   6.015   7.934 -1.0659 -0.3973 -0.0354
  969MOL0     H30768  -0.773   6.154   7.916 -2.3969 -1.0644  2.4210
  969MOL0     H30769  -0.637   6.253   8.122  1.3074  2.1243 -1.3832
  969MOL0     H30770  -0.520   6.121   8.091  0.1569 -0.9195 -1.6814
  969MOL0     H30771  -0.589   6.305   7.880 -0.9044 -1.2434 -1.9452
  969MOL0     H30772  -0.449   6.191   7.873 -1.4841  0.0566 -0.7308
  969MOL0     H30773  -0.363   6.287   8.096 -1.0469  0.3100  1.8351
  969MOL0     H30774  -0.488   6.404   8.089  0.1810  1.2238 -0.4675
  969MOL0     H30775  -0.388   6.603   8.104 -0.1099  1.0364  3.0924
  969MOL0     H30776  -0.247   6.745   8.222  0.0772 -0.0245 -1.4854
  969MOL0     H30777   0.138   6.998   8.240  2.0922  4.4377 -0.7976
  969MOL0     H30778   0.308   7.152   8.297 -2.7159  0.8317 -6.5377
  969MOL0     H30779   0.719   6.962   8.354 -2.6589 -1.6342 -2.5572
  969MOL0     H30780   0.698   7.050   8.209 -0.1643  3.0343 -1.0460
  969MOL0     H30781   0.756   7.267   8.311 -0.0594  1.4627  0.9666
  969MOL0     H30782   0.762   7.203   8.478 -0.3258  0.4412 -0.3756
  969MOL0     H30783   0.957   7.247   8.424 -2.4431  0.0947 -0.0705
  969MOL0     H30784   0.958   7.073   8.459  0.7691  0.4810 -0.0645
  969MOL0     H30785   0.962   7.209   8.186 -1.3726  0.3733  1.3422
  969MOL0     H30786   0.971   7.031   8.213 -0.1640 -0.6218  0.8473
  969MOL0     H30787   1.181   7.248   8.262  2.7135 -0.5255 -0.0829
  969MOL0     H30788   1.186   7.117   8.151  0.6555 -1.0716  0.5218
  969MOL0     H30789   1.335   7.126   8.357 -1.4877  2.1444 -3.3660
  969MOL0     H30790   1.187   7.079   8.456  0.9508 -3.2810  0.1214
  969MOL0     H30791   1.258   6.921   8.221 -3.7958 -1.4666  0.7024
  969MOL0     H30792   1.163   6.879   8.363 -0.0459 -1.3510 -2.9014
  969MOL0     H30793   1.396   6.914   8.495 -0.2336  1.7387 -0.3894
  969MOL0     H30794   1.348   6.771   8.405 -0.2936 -0.0960 -0.6590
  969MOL0     H30795   0.587   6.809   8.280 -0.5315 -2.8311 -1.2781
  969MOL0     H30796   0.414   6.696   8.152 -0.4383 -0.1370 -0.5856
  969MOL0     H30797   0.076   6.545   7.991  0.0148  0.8100 -0.3769
  969MOL0     H30798  -0.094   6.423   7.879  1.4941 -0.1242  0.0769
  969MOL0     H30799   0.140   5.741   8.972  0.1324 -0.9499  1.1496
  969MOL0     H30800   0.260   5.864   9.107  1.1583  1.9574 -3.7803
  969MOL0     H30801   0.128   6.146   9.674 -1.4287  1.4676 -0.8227
  969MOL0     H30802   0.280   6.245   9.815 -0.0577  3.1269  0.4682
  969MOL0     H30803   0.681   6.409   9.814 -4.2615  2.2953  0.1183
  969MOL0     H30804   0.652   6.426   9.650 -0.5162  0.8872  1.6605
  969MOL0     H30805   0.827   6.266   9.647 -0.1687  1.8935 -0.8161
  969MOL0     H30806   0.684   6.193   9.581  0.9009 -2.5430  0.2912
  969MOL0     H30807   0.772   6.160   9.872  0.6510  1.6690 -0.8539
  969MOL0     H30808   0.826   6.063   9.732  1.3493  1.3489 -0.8875
  969MOL0     H30809   0.538   6.065   9.826 -0.5697  0.3550 -0.1251
  969MOL0     H30810   0.616   5.965   9.702 -2.0136 -0.8598 -0.0099
  969MOL0     H30811   0.710   5.812  10.091  1.9033 -0.1845 -2.3913
  969MOL0     H30812   0.516   6.371   9.497 -1.6370  1.0903 -2.7846
  969MOL0     H30813   0.472   6.350   9.270 -0.0619  0.3559 -0.5851
  969MOL0     H30814   0.434   6.182   9.244  1.2249  1.1473 -1.2898
  969MOL0     H30815   0.310   6.307   9.228  1.5676  1.6442 -0.7572
  970MOL0     O30816   6.136   2.080   2.201 -0.1878  0.2803 -0.7036
  970MOL0     C30817   6.061   2.169   2.153  0.0757  0.3865 -0.5928
  970MOL0     O30818   6.101   2.299   2.108 -0.7331 -0.7879 -0.4546
  970MOL0     C30819   6.229   2.349   2.136  0.4337  0.2937  0.4097
  970MOL0     C30820   6.325   2.315   2.241 -0.0017  0.0106 -0.3848
  970MOL0     C30821   6.454   2.368   2.252 -0.1339 -0.1915 -0.4515
  970MOL0     C30822   6.490   2.464   2.152  0.1429 -0.4534  0.3130
  970MOL0     O30823   6.611   2.525   2.156  0.7791  0.6915  0.6048
  970MOL0     C30824   6.720   2.437   2.128 -0.2936 -0.0454  0.1363
  970MOL0     C30825   6.850   2.520   2.109  0.8189 -0.8280 -0.6279
  970MOL0     C30826   6.886   2.587   2.248  0.1805  0.0750  0.5590
  970MOL0     C30827   6.999   2.697   2.255  0.5769  0.8414  0.7553
  970MOL0     C30828   7.008   2.785   2.383  1.0360  0.3949 -0.9680
  970MOL0     C30829   7.058   2.704   2.505 -0.7580 -0.5415  0.1229
  970MOL0     C30830   7.205   2.665   2.498  0.6329 -0.4953 -0.3206
  970MOL0     C30831   7.263   2.604   2.629 -0.2047 -0.6912 -0.4351
  970MOL0     N30832   7.412   2.571   2.610  1.5071 -0.0431 -0.2773
  970MOL0     C30833   7.507   2.631   2.680  0.1018 -0.6082 -0.9581
  970MOL0     C30834   7.619   2.579   2.627 -0.5575 -0.4653 -0.1955
  970MOL0     C30835   7.760   2.635   2.660  1.8614  0.8461 -0.4165
  970MOL0     C30836   7.870   2.528   2.665  0.3731  0.1182 -0.8692
  970MOL0     C30837   7.880   2.438   2.794  0.1800  0.1460  0.1723
  970MOL0     C30838   7.961   2.496   2.905  0.0581  0.2524  0.6183
  970MOL0     O30839   8.100   2.494   2.858  0.8734 -0.0022 -0.4490
  970MOL0     C30840   8.190   2.573   2.931 -0.3244 -0.1709  0.2819
  970MOL0     C30841   8.164   2.633   3.055 -0.4401  0.1288  0.1068
  970MOL0     C30842   8.261   2.700   3.140  0.7242 -1.2691 -0.5914
  970MOL0     C30843   8.391   2.720   3.100  0.7140 -0.3041  0.7010
  970MOL0     C30844   8.497   2.797   3.168  0.1181  0.0400 -0.9551
  970MOL0     O30845   8.459   2.849   3.293 -0.4256 -0.4059 -0.0804
  970MOL0     C30846   8.551   2.917   3.372  0.6289 -0.1047  0.2709
  970MOL0     C30847   8.600   3.036   3.329  0.1562 -0.6521  0.1999
  970MOL0     C30848   8.696   3.105   3.409 -0.5397 -0.3380 -0.4437
  970MOL0     C30849   8.728   3.059   3.539 -1.0737  0.3945  0.0815
  970MOL0     O30850   8.840   3.125   3.588  0.3968 -0.4816  0.3734
  970MOL0     C30851   8.933   3.063   3.679  0.3447 -0.4150 -0.6747
  970MOL0     C30852   9.036   3.169   3.726 -0.0796  0.1024  0.2225
  970MOL0     C30853   8.982   3.293   3.787 -0.0468 -0.2004 -0.4868
  970MOL0     C30854   8.939   3.272   3.934  0.2563 -0.1834 -0.6916
  970MOL0     C30855   8.916   3.411   3.998  0.3571  0.3091  0.3976
  970MOL0     C30856   8.808   3.491   3.922 -0.1503 -0.7350  0.4036
  970MOL0     C30857   8.738   3.602   4.017  0.2903  1.0292  0.1692
  970MOL0     C30858   8.840   3.714   4.061 -1.0576  0.6594 -0.0311
  970MOL0    Cl30859   8.810   3.840   3.920  0.0142  0.5190 -0.0156
  970MOL0     C30860   8.678   2.933   3.582  0.3760 -0.2208 -0.3809
  970MOL0     C30861   8.589   2.866   3.492  0.6227 -0.2922  0.3132
  970MOL0     O30862   8.606   2.814   3.116 -0.5458 -0.0928 -0.3493
  970MOL0     C30863   8.424   2.653   2.977 -0.6916  0.3345  0.1048
  970MOL0     C30864   8.328   2.589   2.894 -0.1402  0.1084  0.4475
  970MOL0     N30865   7.587   2.498   2.523  1.6355  0.1629  0.0655
  970MOL0     N30866   7.460   2.484   2.520  0.1654 -0.8169  0.1978
  970MOL0     C30867   6.397   2.515   2.053 -0.1734 -0.1568 -0.8213
  970MOL0     C30868   6.272   2.454   2.050 -0.2669  1.0569 -0.3017
  970MOL0     C30869   5.913   2.140   2.177 -1.1400  0.7150  0.9405
  970MOL0     C30870   5.883   2.018   2.233  0.7215  0.2272 -0.5113
  970MOL0     C30871   5.756   1.982   2.271  0.3933 -0.2084 -0.0483
  970MOL0     C30872   5.649   2.074   2.255  0.5227  1.4888  0.3906
  970MOL0     O30873   5.520   2.040   2.296  1.2513 -0.2579 -0.1587
  970MOL0     C30874   5.416   2.133   2.316  0.0902 -0.2231 -0.4931
  970MOL0     C30875   5.289   2.066   2.370 -0.2205 -0.1430 -0.1946
  970MOL0     C30876   5.282   1.915   2.344 -0.1697 -1.0093  1.0796
  970MOL0     C30877   5.158   1.857   2.413 -0.8142 -0.2614 -0.0054
  970MOL0     C30878   5.055   1.827   2.313 -0.2718 -0.1904 -0.0991
  970MOL0     C30879   4.977   1.777   2.234  0.2023  0.1136 -0.7441
  970MOL0     C30880   5.684   2.192   2.184  0.1002  0.2756 -0.0965
  970MOL0     C30881   5.812   2.239   2.160  1.1982  0.3097 -0.5755
  970MOL0     C30882   5.815   2.384   2.111 -0.4095 -0.0362 -0.5947
  970MOL0     H30883   6.276   2.249   2.312  2.0297 -0.7117  0.4206
  970MOL0     H30884   6.513   2.325   2.333 -1.4800  0.6985  1.0471
  970MOL0     H30885   6.736   2.365   2.210  0.7623  2.1033  1.9370
  970MOL0     H30886   6.712   2.376   2.038  1.7602 -0.8954  0.4527
  970MOL0     H30887   6.836   2.592   2.028  1.2260 -1.8658 -1.6528
  970MOL0     H30888   6.937   2.458   2.086  1.2499 -0.0024 -1.2864
  970MOL0     H30889   6.910   2.513   2.325  0.0607 -0.5873 -0.0372
  970MOL0     H30890   6.791   2.629   2.280 -1.0384 -1.5474 -0.7670
  970MOL0     H30891   7.094   2.651   2.227  0.1648 -0.9944  2.1990
  970MOL0     H30892   6.979   2.771   2.177  2.0211 -0.8485 -1.3504
  970MOL0     H30893   7.072   2.873   2.371  1.4787  0.1663 -0.3581
  970MOL0     H30894   6.908   2.828   2.390  1.4302  1.1130  0.7994
  970MOL0     H30895   7.049   2.766   2.595 -1.3773 -1.7643  0.9356
  970MOL0     H30896   6.991   2.620   2.526 -0.5696 -0.2178  2.2111
  970MOL0     H30897   7.277   2.743   2.470 -0.3950  0.9412  0.8537
  970MOL0     H30898   7.211   2.593   2.416 -3.4411 -1.0916 -0.3007
  970MOL0     H30899   7.242   2.677   2.708 -1.1146 -0.4502 -0.8835
  970MOL0     H30900   7.201   2.516   2.648 -1.7824  0.2328 -1.0789
  970MOL0     H30901   7.506   2.712   2.753 -2.1283 -0.3515 -1.1986
  970MOL0     H30902   7.784   2.711   2.586 -0.3548  1.2771 -0.7643
  970MOL0     H30903   7.753   2.676   2.761  1.9755 -1.2429  0.4907
  970MOL0     H30904   7.867   2.458   2.581  2.2527 -2.2642  0.8805
  970MOL0     H30905   7.959   2.588   2.645  0.7296 -1.0891 -3.2108
  970MOL0     H30906   7.911   2.337   2.767 -1.1420 -0.5637  1.1973
  970MOL0     H30907   7.774   2.428   2.819  0.2074 -3.5791 -0.6795
  970MOL0     H30908   7.953   2.444   3.001 -1.0073  0.2202  0.5242
  970MOL0     H30909   7.918   2.594   2.926 -0.7743 -0.3210  1.6865
  970MOL0     H30910   8.062   2.636   3.093 -0.5586  2.4091 -0.2853
  970MOL0     H30911   8.229   2.739   3.236  1.5068  1.3346 -1.2934
  970MOL0     H30912   8.575   3.098   3.244 -1.0927 -2.0340 -0.4932
  970MOL0     H30913   8.735   3.205   3.390  0.4541 -0.4323  0.9863
  970MOL0     H30914   8.886   3.036   3.774  1.6381  1.9105  0.7397
  970MOL0     H30915   8.984   2.981   3.628  1.4725 -0.4684  0.4827
  970MOL0     H30916   9.108   3.113   3.787 -1.0204 -1.9875 -0.4762
  970MOL0     H30917   9.094   3.198   3.638  0.5586 -2.5454 -0.3139
  970MOL0     H30918   9.059   3.370   3.796  0.5146 -0.9301  1.9273
  970MOL0     H30919   8.903   3.330   3.722  0.2655 -1.6810 -1.7791
  970MOL0     H30920   9.025   3.225   3.983  0.0986 -0.9428 -1.1282
  970MOL0     H30921   8.852   3.206   3.943 -1.3939  1.8873 -0.6756
  970MOL0     H30922   9.009   3.469   3.990  1.1746 -1.0537 -0.4775
  970MOL0     H30923   8.873   3.406   4.098 -0.9529 -0.3091 -0.1727
  970MOL0     H30924   8.835   3.545   3.831 -0.0360  1.0952  1.4613
  970MOL0     H30925   8.734   3.419   3.887 -0.9227  0.7832 -1.2131
  970MOL0     H30926   8.702   3.558   4.110  2.7407 -1.1144  0.2115
  970MOL0     H30927   8.652   3.649   3.968 -1.3851  0.3709  2.3619
  970MOL0     H30928   8.813   3.762   4.156 -2.8400  0.7788 -0.5539
  970MOL0     H30929   8.945   3.684   4.060 -0.6874  1.8682 -1.0219
  970MOL0     H30930   8.698   2.889   3.680  2.1518  1.4564  0.0696
  970MOL0     H30931   8.572   2.763   3.521  0.0609  0.2117  1.8740
  970MOL0     H30932   8.525   2.642   2.937 -1.3924 -0.0571 -1.6142
  970MOL0     H30933   8.361   2.551   2.797  0.6119 -2.3965  1.6150
  970MOL0     H30934   6.422   2.596   1.985 -2.7354  0.8487 -0.6516
  970MOL0     H30935   6.211   2.494   1.970  1.0451  1.8525 -0.9324
  970MOL0     H30936   5.953   1.935   2.243  0.3066 -0.2989 -1.7626
  970MOL0     H30937   5.724   1.888   2.316 -0.0870  2.0706  5.1076
  970MOL0     H30938   5.402   2.199   2.230  1.1030  0.2148 -0.3463
  970MOL0     H30939   5.436   2.207   2.395 -0.2165  0.2088 -0.8183
  970MOL0     H30940   5.199   2.112   2.330  0.5333  1.2389 -0.3460
  970MOL0     H30941   5.291   2.083   2.478  1.7824  1.3058 -0.3970
  970MOL0     H30942   5.365   1.867   2.396 -0.5907 -3.9147 -0.7122
  970MOL0     H30943   5.295   1.895   2.237 -2.5623 -1.7218  0.8625
  970MOL0     H30944   5.188   1.762   2.458  0.2550 -0.4149 -0.9811
  970MOL0     H30945   5.115   1.927   2.485 -0.4946  3.2025 -2.8782
  970MOL0     H30946   4.904   1.719   2.182  0.2238  0.7734 -1.5290
  970MOL0     H30947   5.608   2.264   2.155  1.4612  1.6163 -0.4868
  970MOL0     H30948   5.856   2.392   2.010  0.4994  2.6132 -0.0788
  970MOL0     H30949   5.716   2.431   2.115  0.2818  1.4131 -0.1069
  970MOL0     H30950   5.886   2.443   2.169  1.5856  0.0404 -2.9524
  971MOL0     O30951   0.658   1.713   4.090 -0.9227  0.1299  0.6107
  971MOL0     C30952   0.636   1.596   4.053  0.6249  0.1320 -0.5165
  971MOL0     O30953   0.727   1.515   3.992  0.3616  0.2614 -0.0393
  971MOL0     C30954   0.862   1.526   4.007 -0.3454  1.2527 -0.0775
  971MOL0     C30955   0.938   1.606   4.090  0.3835  0.0024  0.3044
  971MOL0     C30956   1.073   1.611   4.089 -0.6192  0.2662 -1.2862
  971MOL0     C30957   1.141   1.530   4.001  0.6341  0.6609 -0.1436
  971MOL0     O30958   1.277   1.544   4.011  0.2627  0.3491 -0.3435
  971MOL0     C30959   1.363   1.479   3.918 -0.2828  0.2661 -0.0946
  971MOL0     C30960   1.506   1.543   3.937  1.4516 -0.2148 -1.0601
  971MOL0     C30961   1.605   1.463   3.859  0.2581  0.1916  0.3923
  971MOL0     C30962   1.736   1.500   3.899  0.4891  0.4665  0.1663
  971MOL0     C30963   1.802   1.593   3.794 -0.8497  0.5641 -0.5580
  971MOL0     C30964   1.934   1.648   3.849 -0.2438  0.2723 -0.2526
  971MOL0     C30965   2.032   1.524   3.863 -0.9010 -0.2556  0.5252
  971MOL0     C30966   2.166   1.580   3.897  1.2144 -0.0637 -0.3028
  971MOL0     N30967   2.257   1.466   3.916 -0.1416 -0.2604 -0.9687
  971MOL0     C30968   2.366   1.424   3.841  0.6488 -0.1610 -0.8007
  971MOL0     C30969   2.438   1.337   3.903 -0.8137  0.7254 -0.3942
  971MOL0     C30970   2.553   1.258   3.862 -0.6320 -0.6742  1.0151
  971MOL0     C30971   2.685   1.287   3.944 -0.1971 -0.5163 -1.0007
  971MOL0     C30972   2.733   1.430   3.934 -0.9647  0.0422 -0.3034
  971MOL0     C30973   2.881   1.439   3.973  0.0718  0.6776 -0.2897
  971MOL0     O30974   2.951   1.370   3.872  0.2273  0.3910  0.3588
  971MOL0     C30975   3.076   1.329   3.900 -0.4172 -0.5560  0.3620
  971MOL0     C30976   3.138   1.333   4.023  1.1196 -0.0255 -0.0716
  971MOL0     C30977   3.276   1.311   4.034  0.8694 -0.1004 -0.3079
  971MOL0     C30978   3.358   1.290   3.925  0.2672 -0.7727 -0.0164
  971MOL0     C30979   3.499   1.252   3.940 -0.0538  0.5218 -0.5796
  971MOL0     O30980   3.573   1.221   3.823  0.0342 -0.2168  0.1277
  971MOL0     C30981   3.686   1.153   3.833 -0.6590  0.3382 -0.3679
  971MOL0     C30982   3.810   1.220   3.873  0.3950 -0.0055 -1.0838
  971MOL0     C30983   3.921   1.145   3.897 -0.5493 -0.7810 -0.1032
  971MOL0     C30984   3.916   1.003   3.882 -0.7006 -0.1229 -0.1400
  971MOL0     O30985   4.034   0.932   3.911  0.2753  0.1277 -0.0694
  971MOL0     C30986   4.026   0.836   4.021  0.5383 -0.2910 -0.5872
  971MOL0     C30987   4.121   0.858   4.139 -0.5081  0.3657  0.6718
  971MOL0     C30988   4.273   0.837   4.094 -0.9808  0.5336  0.5659
  971MOL0     C30989   4.357   0.776   4.199 -0.5391  1.1132  0.2143
  971MOL0     C30990   4.480   0.691   4.139  0.1132  0.3021  0.1052
  971MOL0     C30991   4.558   0.779   4.038 -0.5473  0.1293  0.5129
  971MOL0     C30992   4.677   0.703   3.988  0.1044  0.0950 -0.2231
  971MOL0     C30993   4.628   0.572   3.911  0.5103  0.3695 -0.6515
  971MOL0    Cl30994   4.743   0.526   3.788 -0.0092 -0.1466  0.0824
  971MOL0     C30995   3.804   0.940   3.843 -0.1757 -0.4608  0.3236
  971MOL0     C30996   3.683   1.010   3.812 -0.0887 -1.4275  0.1765
  971MOL0     O30997   3.534   1.230   4.054 -0.1180 -1.2515 -0.0380
  971MOL0     C30998   3.297   1.292   3.803  0.3359 -0.4935 -0.2088
  971MOL0     C30999   3.157   1.292   3.791 -0.1560  0.0743 -0.2647
  971MOL0     N31000   2.380   1.321   4.028  0.4959 -0.6238 -0.6704
  971MOL0     N31001   2.279   1.404   4.030  0.2872  0.5470  0.5614
  971MOL0     C31002   1.071   1.446   3.915 -0.6494 -0.6661 -0.3879
  971MOL0     C31003   0.926   1.446   3.921 -0.7622  0.7364 -0.4013
  971MOL0     C31004   0.501   1.545   4.086 -0.7554 -0.7536 -0.5127
  971MOL0     C31005   0.405   1.628   4.149 -0.2559  0.7851 -0.0942
  971MOL0     C31006   0.275   1.592   4.171 -0.0228  0.3339 -0.0900
  971MOL0     C31007   0.232   1.469   4.120 -0.0341 -0.4333  0.3161
  971MOL0     O31008   0.100   1.434   4.117  0.3603 -0.2446  0.0266
  971MOL0     C31009   0.043   1.418   4.246 -0.5325 -0.8362  0.2082
  971MOL0     C31010  -0.107   1.462   4.248  0.0660 -0.7173 -0.3741
  971MOL0     C31011  -0.119   1.611   4.285 -0.1287 -0.0309  0.3152
  971MOL0     C31012  -0.262   1.673   4.291 -0.1886 -0.8388 -0.3326
  971MOL0     C31013  -0.331   1.675   4.168 -0.1050  0.4992  1.7286
  971MOL0     C31014  -0.387   1.677   4.059 -0.0545 -0.1960  0.7969
  971MOL0     C31015   0.320   1.387   4.068  0.1021 -0.3004  0.8217
  971MOL0     C31016   0.455   1.419   4.052  0.4926 -0.1434  0.6364
  971MOL0     C31017   0.539   1.318   3.973  0.8235  0.5390  0.5614
  971MOL0     H31018   0.894   1.688   4.147 -0.8124  0.0410 -0.6290
  971MOL0     H31019   1.126   1.672   4.162  0.6647 -2.0656 -0.1395
  971MOL0     H31020   1.364   1.371   3.938  2.3982  0.4347  1.0197
  971MOL0     H31021   1.327   1.507   3.818 -1.0582  2.1573  0.6715
  971MOL0     H31022   1.531   1.546   4.043 -3.8218 -0.6612  0.4291
  971MOL0     H31023   1.495   1.644   3.895  1.5555 -0.3432 -1.4065
  971MOL0     H31024   1.587   1.476   3.752 -1.8234 -0.7158  0.5867
  971MOL0     H31025   1.588   1.357   3.880  1.2654 -0.0426  0.0614
  971MOL0     H31026   1.732   1.549   3.996  1.4384 -1.7809  1.4084
  971MOL0     H31027   1.793   1.411   3.925  0.4045  0.4604  0.3302
  971MOL0     H31028   1.824   1.534   3.705 -3.8454  1.6703 -2.1543
  971MOL0     H31029   1.736   1.677   3.769 -1.0245  0.1123 -1.6612
  971MOL0     H31030   1.975   1.722   3.780  3.7776 -0.2811  1.3149
  971MOL0     H31031   1.928   1.694   3.948  1.8021 -2.9555  1.5325
  971MOL0     H31032   2.025   1.461   3.774  2.8892 -1.8368  1.1640
  971MOL0     H31033   1.997   1.469   3.951  2.1754  0.7025  2.4989
  971MOL0     H31034   2.202   1.646   3.817  2.0111 -0.5103 -0.3257
  971MOL0     H31035   2.164   1.643   3.986  0.2008 -0.4802 -0.0281
  971MOL0     H31036   2.379   1.459   3.739  2.4649  0.6001 -0.3485
  971MOL0     H31037   2.541   1.150   3.864  1.9862 -1.0717 -0.3949
  971MOL0     H31038   2.582   1.269   3.757 -3.6533 -2.1184 -0.1121
  971MOL0     H31039   2.663   1.260   4.048 -0.8216  0.6836 -0.8100
  971MOL0     H31040   2.764   1.217   3.915  0.0867 -1.1823  1.1694
  971MOL0     H31041   2.682   1.495   4.005 -1.2062 -2.9711  2.5336
  971MOL0     H31042   2.733   1.467   3.831  2.1348  2.6341  0.4759
  971MOL0     H31043   2.895   1.396   4.072  1.3121  0.1126 -0.6866
  971MOL0     H31044   2.920   1.541   3.970  0.0888  0.6967  0.5817
  971MOL0     H31045   3.084   1.368   4.110 -0.7502  2.5657 -2.1050
  971MOL0     H31046   3.317   1.319   4.134  0.2990  2.6562 -0.2018
  971MOL0     H31047   3.800   1.328   3.875  0.5533  0.0449 -2.0846
  971MOL0     H31048   4.013   1.188   3.936 -0.1675 -1.6816  0.0240
  971MOL0     H31049   3.928   0.843   4.068  1.3718  3.1784  0.9874
  971MOL0     H31050   4.039   0.735   3.981 -1.2690 -0.2269 -1.4299
  971MOL0     H31051   4.110   0.959   4.181  0.1327  0.9049 -0.4287
  971MOL0     H31052   4.091   0.790   4.219  0.9779 -2.1299 -0.7549
  971MOL0     H31053   4.267   0.759   4.017 -0.9670  3.2352 -2.4025
  971MOL0     H31054   4.314   0.931   4.054  1.8914  1.1638  4.4526
  971MOL0     H31055   4.299   0.705   4.258  2.4689 -1.7097  0.0560
  971MOL0     H31056   4.389   0.855   4.268  0.3541 -0.3048  1.4836
  971MOL0     H31057   4.449   0.600   4.087 -1.5818  0.7533  0.2505
  971MOL0     H31058   4.551   0.666   4.218  0.4459  1.4207  0.1763
  971MOL0     H31059   4.500   0.815   3.952  0.4809 -1.3307 -0.8715
  971MOL0     H31060   4.589   0.868   4.093  0.1121 -1.1258  2.2602
  971MOL0     H31061   4.748   0.672   4.065  1.2534 -1.3808 -1.8222
  971MOL0     H31062   4.721   0.765   3.910  0.1992  2.1409  1.3536
  971MOL0     H31063   4.604   0.489   3.979 -2.9842 -1.0275 -3.2848
  971MOL0     H31064   4.534   0.586   3.857  0.5740 -1.8228 -1.4716
  971MOL0     H31065   3.797   0.834   3.824  1.3263 -0.3746 -0.8609
  971MOL0     H31066   3.591   0.960   3.786 -0.9668  0.9370 -1.6606
  971MOL0     H31067   3.354   1.279   3.712 -1.9806 -3.0412 -1.4481
  971MOL0     H31068   3.115   1.293   3.691  0.6811  0.8671 -0.6188
  971MOL0     H31069   1.128   1.385   3.846  0.3739 -0.6212  0.4002
  971MOL0     H31070   0.890   1.370   3.852  1.4506 -0.3925 -0.4205
  971MOL0     H31071   0.431   1.730   4.173  0.6429  0.4168  0.5729
  971MOL0     H31072   0.204   1.653   4.226 -0.0820  0.6323 -0.4936
  971MOL0     H31073   0.083   1.485   4.323 -1.4112  1.2965 -1.1124
  971MOL0     H31074   0.058   1.318   4.288 -0.8622 -0.9758  0.0028
  971MOL0     H31075  -0.158   1.395   4.318 -2.0831  0.7524 -0.4611
  971MOL0     H31076  -0.158   1.448   4.152 -2.2452  2.2457  0.2548
  971MOL0     H31077  -0.063   1.655   4.202 -1.0526  0.2373 -0.1804
  971MOL0     H31078  -0.070   1.628   4.381 -0.0882  4.6668 -0.2997
  971MOL0     H31079  -0.321   1.640   4.377  0.5749  0.0120  0.5376
  971MOL0     H31080  -0.249   1.777   4.319 -4.0458 -0.8566  2.2400
  971MOL0     H31081  -0.448   1.670   3.971  0.8073  1.2500  0.0546
  971MOL0     H31082   0.286   1.294   4.024  0.4354  0.0343 -0.1636
  971MOL0     H31083   0.628   1.301   4.034  0.0836  0.1784  1.5693
  971MOL0     H31084   0.494   1.224   3.939  0.5245  1.3538 -1.4405
  971MOL0     H31085   0.576   1.370   3.884 -0.5732  0.6005 -0.0090
  972MOL0     O31086   0.871   8.080   1.160  0.5910 -0.4652  0.6226
  972MOL0     C31087   0.805   8.022   1.246 -0.0102 -0.2301 -0.3194
  972MOL0     O31088   0.857   7.942   1.350 -0.1027 -0.4519  0.6953
  972MOL0     C31089   0.990   7.963   1.377  0.1074 -0.0364  0.1255
  972MOL0     C31090   1.096   7.960   1.275 -0.4433  0.6968 -0.3433
  972MOL0     C31091   1.228   7.955   1.322 -0.5567  0.0548 -0.8026
  972MOL0     C31092   1.266   7.966   1.454  0.0686  0.4737 -0.1695
  972MOL0     O31093   1.406   7.962   1.482 -0.1084  0.0937 -0.1671
  972MOL0     C31094   1.448   7.917   1.611  0.4936 -0.6147  0.4324
  972MOL0     C31095   1.588   7.866   1.585  0.6556 -0.8892  0.1691
  972MOL0     C31096   1.697   7.980   1.588 -0.1508 -0.2558 -1.3040
  972MOL0     C31097   1.840   7.944   1.522  0.5780 -0.9526 -0.0822
  972MOL0     C31098   1.906   8.077   1.495 -0.9283 -0.6887  0.5853
  972MOL0     C31099   2.046   8.060   1.415 -0.3442 -0.6023  0.3854
  972MOL0     C31100   2.093   8.202   1.379 -0.1200 -0.2833 -0.5510
  972MOL0     C31101   2.239   8.204   1.312  0.8374  0.3733  0.5602
  972MOL0     N31102   2.340   8.141   1.390  0.4995 -0.3951 -0.1633
  972MOL0     C31103   2.393   8.010   1.371 -0.6821 -0.7607  1.2413
  972MOL0     C31104   2.477   7.995   1.474 -0.0254  0.4966 -0.6615
  972MOL0     C31105   2.557   7.871   1.518 -0.3333  0.1816 -0.0831
  972MOL0     C31106   2.480   7.825   1.642  0.5864 -0.3725  0.3599
  972MOL0     C31107   2.334   7.790   1.619  0.3143 -0.6909 -0.7595
  972MOL0     C31108   2.270   7.697   1.721  0.3686  0.3938  0.0128
  972MOL0     O31109   2.265   7.745   1.853  0.0437 -0.9755  0.5334
  972MOL0     C31110   2.142   7.802   1.890  0.0949 -0.1468 -0.8053
  972MOL0     C31111   2.059   7.872   1.811  0.5360 -0.3939  0.6946
  972MOL0     C31112   1.945   7.930   1.866 -0.4280 -0.0162  0.0149
  972MOL0     C31113   1.901   7.897   2.000 -0.6366  0.9460  0.2902
  972MOL0     C31114   1.763   7.927   2.045  0.4100 -1.1275  0.2355
  972MOL0     O31115   1.721   7.856   2.155 -0.1506 -0.3004 -0.7764
  972MOL0     C31116   1.593   7.866   2.191  0.4269  0.6911 -0.4721
  972MOL0     C31117   1.565   7.944   2.304  0.5046 -0.3182  0.8845
  972MOL0     C31118   1.428   7.979   2.318  0.0687 -0.3858 -0.3743
  972MOL0     C31119   1.326   7.913   2.251 -0.3461  0.1337 -0.0741
  972MOL0     O31120   1.196   7.936   2.293  0.7724  0.2829 -0.1526
  972MOL0     C31121   1.099   7.836   2.275 -0.7227 -0.0834 -0.1858
  972MOL0     C31122   0.987   7.857   2.372 -1.0496 -0.0812  0.0626
  972MOL0     C31123   0.909   7.981   2.325 -0.1098  0.7959 -0.1351
  972MOL0     C31124   0.804   8.038   2.431 -0.4056 -0.4299 -0.0716
  972MOL0     C31125   0.719   8.138   2.363 -0.7578  0.2427 -0.1858
  972MOL0     C31126   0.605   8.181   2.465  0.0171 -0.4895  0.4714
  972MOL0     C31127   0.496   8.243   2.380  0.2105  0.5007  0.1983
  972MOL0     C31128   0.362   8.268   2.450 -0.5710  0.4195 -0.1642
  972MOL0    Cl31129   0.405   8.333   2.614 -0.3401  0.5923 -0.3296
  972MOL0     C31130   1.360   7.822   2.151 -0.0200  0.2817 -0.0874
  972MOL0     C31131   1.492   7.810   2.116  0.4362  0.9711 -0.0516
  972MOL0     O31132   1.686   8.008   1.981 -0.1385 -0.4815 -0.1495
  972MOL0     C31133   1.985   7.812   2.079 -0.6112 -0.1928  0.9464
  972MOL0     C31134   2.112   7.781   2.023 -0.8037 -0.8641  0.3263
  972MOL0     N31135   2.464   8.104   1.551 -0.7259 -0.1313  0.0739
  972MOL0     N31136   2.383   8.197   1.500 -1.2226 -0.1353 -0.1366
  972MOL0     C31137   1.164   7.985   1.548  0.0492  0.3015  0.9323
  972MOL0     C31138   1.034   7.971   1.513  0.6013 -0.1775  1.0155
  972MOL0     C31139   0.658   8.016   1.237  0.7297  0.4762  0.0608
  972MOL0     C31140   0.607   8.110   1.150  0.7517 -0.1859  0.8324
  972MOL0     C31141   0.466   8.123   1.128 -0.3827 -0.2328  0.9449
  972MOL0     C31142   0.374   8.035   1.182  0.1101 -0.0936  0.4590
  972MOL0     O31143   0.240   8.049   1.138  0.7764 -0.2029  0.2504
  972MOL0     C31144   0.162   7.918   1.122  0.0877  0.0367  0.8978
  972MOL0     C31145   0.085   7.870   1.239  0.0929  0.1099 -0.4930
  972MOL0     C31146  -0.009   7.971   1.304  0.2079  0.7410 -0.2659
  972MOL0     C31147  -0.132   7.993   1.221  0.8419 -0.5645  0.9337
  972MOL0     C31148  -0.201   8.094   1.288  0.3392  0.3669  0.4088
  972MOL0     C31149  -0.268   8.178   1.337  0.0406 -0.6646  0.6701
  972MOL0     C31150   0.427   7.941   1.274 -0.8625 -0.4899 -0.6215
  972MOL0     C31151   0.567   7.930   1.300 -0.2348 -0.0845  0.6148
  972MOL0     C31152   0.607   7.837   1.411  0.2006 -0.4373  0.1162
  972MOL0     H31153   1.087   7.962   1.167 -2.9978  0.8444 -0.1764
  972MOL0     H31154   1.309   7.950   1.250  0.2375 -1.6025  0.1469
  972MOL0     H31155   1.440   8.001   1.681 -0.1025 -0.1174 -0.2135
  972MOL0     H31156   1.384   7.836   1.645  1.0879 -0.9425  0.7854
  972MOL0     H31157   1.594   7.821   1.485  0.5711  0.6436 -0.5687
  972MOL0     H31158   1.608   7.791   1.661 -2.4260 -2.8922 -0.8147
  972MOL0     H31159   1.711   7.998   1.695  1.9658 -3.6944 -0.8419
  972MOL0     H31160   1.655   8.071   1.545 -1.6353  0.5616  1.6252
  972MOL0     H31161   1.890   7.868   1.584 -0.3233 -3.0055 -1.7268
  972MOL0     H31162   1.830   7.885   1.430  0.1213 -0.3911 -0.3925
  972MOL0     H31163   1.836   8.142   1.441  2.1233  1.4596 -1.1337
  972MOL0     H31164   1.924   8.138   1.584 -2.7925  2.2349 -0.8848
  972MOL0     H31165   2.125   8.009   1.470  1.2142  1.2769  0.0108
  972MOL0     H31166   2.007   7.999   1.333  0.6627 -3.0990  1.6867
  972MOL0     H31167   2.109   8.256   1.473 -0.2800 -1.6014  0.2735
  972MOL0     H31168   2.021   8.257   1.318 -1.8130 -1.4871  0.2622
  972MOL0     H31169   2.234   8.150   1.217 -5.5776 -0.3539  0.9098
  972MOL0     H31170   2.270   8.307   1.294  0.4444  0.2501 -1.0110
  972MOL0     H31171   2.364   7.929   1.304 -0.7377 -3.6088  4.4577
  972MOL0     H31172   2.550   7.790   1.445  1.6971  0.5029 -0.7198
  972MOL0     H31173   2.658   7.898   1.552 -0.5390 -2.2061  2.9150
  972MOL0     H31174   2.522   7.728   1.671  0.1227 -0.0723  2.1399
  972MOL0     H31175   2.488   7.904   1.717 -0.2870 -0.3149  0.4058
  972MOL0     H31176   2.325   7.736   1.524  2.5566 -0.6872 -1.0450
  972MOL0     H31177   2.262   7.872   1.614 -0.6890 -1.6138 -4.3001
  972MOL0     H31178   2.329   7.605   1.725 -1.4750 -0.8174  2.7299
  972MOL0     H31179   2.169   7.667   1.689 -0.8342  5.3603 -1.8410
  972MOL0     H31180   2.089   7.882   1.707  1.1254 -2.6924  0.5749
  972MOL0     H31181   1.870   7.981   1.805 -0.9494 -2.1391 -1.2054
  972MOL0     H31182   1.650   7.972   2.364  2.6099 -1.2091 -1.4924
  972MOL0     H31183   1.400   8.044   2.400 -0.1141  1.7399 -2.0253
  972MOL0     H31184   1.060   7.841   2.173  0.4396  3.7913 -0.6037
  972MOL0     H31185   1.142   7.737   2.293 -4.6676 -2.0256 -0.3119
  972MOL0     H31186   0.929   7.765   2.381  2.3366 -2.5040 -0.7685
  972MOL0     H31187   1.022   7.886   2.471 -0.6181  0.3913 -0.2203
  972MOL0     H31188   0.982   8.061   2.308  0.0220  0.3862 -1.6535
  972MOL0     H31189   0.860   7.969   2.228 -0.0853 -1.1779  0.0640
  972MOL0     H31190   0.860   8.093   2.507 -1.6993 -0.2170  0.7489
  972MOL0     H31191   0.737   7.963   2.474 -3.3269 -0.1875 -3.6530
  972MOL0     H31192   0.671   8.087   2.279  0.8765  1.0598 -1.6752
  972MOL0     H31193   0.780   8.221   2.327 -1.3502 -0.4849 -3.1422
  972MOL0     H31194   0.575   8.091   2.520  0.5865  0.0255  1.6636
  972MOL0     H31195   0.628   8.262   2.534 -3.0565  0.2538  0.7392
  972MOL0     H31196   0.464   8.179   2.298 -2.3001  1.8007  0.0799
  972MOL0     H31197   0.523   8.340   2.337  1.5404  0.7545  1.5106
  972MOL0     H31198   0.305   8.340   2.391 -0.3882 -0.0892 -0.9659
  972MOL0     H31199   0.305   8.176   2.465  1.7764 -0.9364  1.0990
  972MOL0     H31200   1.288   7.780   2.082 -0.2891  1.1009 -0.3222
  972MOL0     H31201   1.525   7.740   2.040  1.1772  0.2981  0.8731
  972MOL0     H31202   1.960   7.777   2.179 -2.3647  1.2099  1.0457
  972MOL0     H31203   2.181   7.731   2.089 -0.7715  2.8337  3.4306
  972MOL0     H31204   1.172   8.002   1.655 -0.6462 -2.2196  1.4471
  972MOL0     H31205   0.948   7.970   1.580  0.4025 -0.8182  0.7561
  972MOL0     H31206   0.667   8.188   1.105 -1.1058  1.5107  1.1703
  972MOL0     H31207   0.427   8.205   1.069  1.2618 -0.0829 -0.0192
  972MOL0     H31208   0.227   7.833   1.097 -0.0739  0.5506 -1.5727
  972MOL0     H31209   0.099   7.926   1.033 -0.4480 -1.1160  1.1529
  972MOL0     H31210   0.152   7.845   1.322  0.9847  1.0917 -0.8999
  972MOL0     H31211   0.033   7.776   1.216 -0.5965  0.6398 -1.1514
  972MOL0     H31212   0.045   8.060   1.337 -0.2064  1.0199 -0.3384
  972MOL0     H31213  -0.038   7.921   1.397  0.5403  0.8052 -0.1272
  972MOL0     H31214  -0.114   8.032   1.120  0.1984  0.4636  1.2067
  972MOL0     H31215  -0.191   7.902   1.210  1.1110 -0.5383 -1.3791
  972MOL0     H31216  -0.326   8.256   1.381  2.3455 -0.1285  2.9893
  972MOL0     H31217   0.351   7.888   1.330  0.7665 -0.3682  1.8477
  972MOL0     H31218   0.524   7.781   1.455 -0.3003  0.7372  0.7059
  972MOL0     H31219   0.672   7.763   1.363 -0.6161 -0.7659 -0.5091
  972MOL0     H31220   0.663   7.888   1.490  1.1996 -0.6917 -0.4097
  973MOL0     O31221   6.469   3.861  11.271 -0.4511 -0.5742  0.7774
  973MOL0     C31222   6.528   3.838  11.168  0.2706 -0.8927 -0.5905
  973MOL0     O31223   6.473   3.806  11.051  0.5046 -0.1810 -0.1682
  973MOL0     C31224   6.339   3.802  11.052  0.5845 -0.2747  0.0576
  973MOL0     C31225   6.266   3.697  11.113  0.2727 -0.7074  0.0941
  973MOL0     C31226   6.127   3.713  11.114 -0.8100  0.7842 -0.0391
  973MOL0     C31227   6.060   3.807  11.034 -0.7438  0.1962  0.0193
  973MOL0     O31228   5.920   3.825  11.037  0.2326  0.4482  0.1880
  973MOL0     C31229   5.820   3.732  11.082 -0.2706  0.4883  0.1751
  973MOL0     C31230   5.709   3.816  11.157 -0.4010  0.3725  0.3746
  973MOL0     C31231   5.625   3.903  11.061  0.6263  0.5056  0.8374
  973MOL0     C31232   5.514   3.966  11.129  0.6856 -0.2387 -0.3093
  973MOL0     C31233   5.434   4.057  11.039  0.1614 -0.8309  0.2156
  973MOL0     C31234   5.365   3.981  10.915  0.4247 -0.6144 -0.5853
  973MOL0     C31235   5.211   3.979  10.946  0.0444 -0.3101  0.7835
  973MOL0     C31236   5.175   3.898  11.077 -0.3556 -0.1776 -0.1853
  973MOL0     N31237   5.202   3.753  11.074  0.9365  0.2055 -0.0510
  973MOL0     C31238   5.205   3.675  10.961  0.2235 -0.4309 -0.5445
  973MOL0     C31239   5.262   3.557  11.002  0.1210 -0.4311 -0.0302
  973MOL0     C31240   5.292   3.434  10.925 -0.2497 -0.7606  0.1198
  973MOL0     C31241   5.444   3.391  10.919 -0.1778 -0.2787  0.2224
  973MOL0     C31242   5.532   3.478  10.830  0.3276  0.3732  0.7890
  973MOL0     C31243   5.672   3.439  10.849 -0.4532 -0.6087 -0.3016
  973MOL0     O31244   5.737   3.520  10.747  0.7599  0.7180  0.2551
  973MOL0     C31245   5.876   3.518  10.733 -0.0561  0.1552 -0.1699
  973MOL0     C31246   5.963   3.465  10.824 -0.0742  0.1663 -0.8679
  973MOL0     C31247   6.098   3.474  10.803 -0.2112 -0.6404  0.4203
  973MOL0     C31248   6.146   3.534  10.689  0.4419 -0.6498 -0.0695
  973MOL0     C31249   6.295   3.542  10.666 -0.8537  0.8213  0.5635
  973MOL0     O31250   6.365   3.476  10.772 -0.2491  0.2698  0.3271
  973MOL0     C31251   6.503   3.467  10.760 -0.1158  0.4512 -1.0929
  973MOL0     C31252   6.581   3.546  10.845  0.6131  0.3845 -0.0322
  973MOL0     C31253   6.712   3.514  10.870 -0.2186  1.1553 -0.1895
  973MOL0     C31254   6.778   3.405  10.809 -0.5684  0.0465  0.4722
  973MOL0     O31255   6.910   3.388  10.831 -0.0362  0.0255 -0.3254
  973MOL0     C31256   6.972   3.276  10.770 -0.0430  1.1452  0.5201
  973MOL0     C31257   7.118   3.279  10.810 -0.0061  1.2858 -0.0279
  973MOL0     C31258   7.208   3.356  10.720 -0.5054  0.2605  0.2025
  973MOL0     C31259   7.198   3.507  10.751 -0.0100 -0.0292  0.2348
  973MOL0     C31260   7.265   3.587  10.647 -0.6541 -0.3122  0.0811
  973MOL0     C31261   7.213   3.732  10.632  0.1822 -0.2459  0.1763
  973MOL0     C31262   7.321   3.818  10.551  0.5958  0.6597 -0.2377
  973MOL0     C31263   7.270   3.965  10.523  0.1266  0.1038  0.0302
  973MOL0    Cl31264   7.238   4.041  10.674  0.3512 -0.2422 -0.0596
  973MOL0     C31265   6.702   3.332  10.715 -0.6762 -0.2820  0.7400
  973MOL0     C31266   6.567   3.363  10.692 -0.1468  0.3054 -0.1935
  973MOL0     O31267   6.343   3.599  10.570 -0.2930 -0.0447  0.3490
  973MOL0     C31268   6.055   3.595  10.596 -0.1642 -0.6562  0.2426
  973MOL0     C31269   5.926   3.586  10.623  0.4489 -0.3378  0.3266
  973MOL0     N31270   5.268   3.554  11.134 -0.7281 -0.1104 -0.7796
  973MOL0     N31271   5.238   3.672  11.175 -0.5041 -0.1488  0.0708
  973MOL0     C31272   6.130   3.884  10.949 -0.3820  0.3933 -0.4442
  973MOL0     C31273   6.274   3.887  10.962  1.0943  0.1806 -0.1217
  973MOL0     C31274   6.677   3.851  11.161  0.1323 -0.6180 -0.1300
  973MOL0     C31275   6.737   3.891  11.041 -0.3451 -0.4848 -1.5790
  973MOL0     C31276   6.873   3.913  11.033 -0.2375 -0.1120 -0.3117
  973MOL0     C31277   6.960   3.897  11.146 -0.2580  0.0176  0.1999
  973MOL0     O31278   7.097   3.911  11.152  0.5365  0.4268  0.1817
  973MOL0     C31279   7.165   3.952  11.032  0.6653  0.1779  1.0834
  973MOL0     C31280   7.325   3.923  11.037  0.1754  0.1435  0.6437
  973MOL0     C31281   7.365   3.778  11.029  0.3696  0.3254 -0.0899
  973MOL0     C31282   7.492   3.761  10.947 -0.2471 -0.1053 -0.7001
  973MOL0     C31283   7.608   3.811  11.028 -0.3052 -0.2555 -0.6104
  973MOL0     C31284   7.702   3.837  11.101  0.3415 -0.3589  0.6850
  973MOL0     C31285   6.898   3.845  11.258 -0.4317  0.9118 -0.7950
  973MOL0     C31286   6.763   3.829  11.274 -1.1620 -0.3043 -0.8322
  973MOL0     C31287   6.728   3.772  11.409  0.3735 -0.8425  0.4168
  973MOL0     H31288   6.317   3.613  11.158  0.0313 -2.3581 -2.5097
  973MOL0     H31289   6.077   3.657  11.192 -0.6117  0.4250 -0.1712
  973MOL0     H31290   5.760   3.682  11.005 -1.1578  0.9009  0.5764
  973MOL0     H31291   5.864   3.660  11.152 -1.5656 -2.9780 -2.3130
  973MOL0     H31292   5.769   3.862  11.236 -1.2389 -1.2006  2.0153
  973MOL0     H31293   5.641   3.743  11.201 -1.6792  0.5059 -1.2749
  973MOL0     H31294   5.614   3.846  10.969  3.6863  2.7967 -1.1398
  973MOL0     H31295   5.683   3.992  11.035 -2.2957  2.3051  0.0044
  973MOL0     H31296   5.446   3.893  11.175  0.0990  0.6665  0.2927
  973MOL0     H31297   5.546   4.030  11.211 -0.4069 -0.3737  0.2369
  973MOL0     H31298   5.363   4.121  11.092  3.5832  2.0015  1.7689
  973MOL0     H31299   5.507   4.125  10.994  0.3377 -1.2202 -0.0924
  973MOL0     H31300   5.387   4.049  10.832 -0.2781 -1.4485 -1.4730
  973MOL0     H31301   5.398   3.879  10.892 -0.3518 -0.5273 -2.2126
  973MOL0     H31302   5.155   3.942  10.859  2.4064 -1.6048 -0.2649
  973MOL0     H31303   5.180   4.083  10.964  1.3054  0.1874  0.2024
  973MOL0     H31304   5.232   3.936  11.162  0.5013  1.6927 -1.5143
  973MOL0     H31305   5.068   3.909  11.099 -1.2184  1.0935 -4.1490
  973MOL0     H31306   5.185   3.707  10.859  1.0917  0.6652 -0.3981
  973MOL0     H31307   5.235   3.362  10.985 -2.7701  1.7547  0.9246
  973MOL0     H31308   5.234   3.436  10.832  0.7154  4.0523 -0.6291
  973MOL0     H31309   5.483   3.393  11.021  0.9284  1.9299 -0.1788
  973MOL0     H31310   5.446   3.285  10.891 -0.3180 -0.4125  0.7086
  973MOL0     H31311   5.532   3.579  10.873 -0.0534  0.6703  0.1160
  973MOL0     H31312   5.496   3.483  10.727  2.1746  1.0535  0.1303
  973MOL0     H31313   5.690   3.332  10.834  1.1582 -0.7028  1.8056
  973MOL0     H31314   5.711   3.468  10.947  2.4219 -0.3452 -1.4423
  973MOL0     H31315   5.924   3.419  10.914  1.4254  2.2742  0.9763
  973MOL0     H31316   6.166   3.442  10.881 -1.0038  3.1894  2.9498
  973MOL0     H31317   6.529   3.624  10.900 -1.1943 -1.1139  0.4642
  973MOL0     H31318   6.761   3.577  10.943  0.5567 -0.7348  0.9813
  973MOL0     H31319   6.931   3.180  10.802 -0.9350  1.1511 -0.5231
  973MOL0     H31320   6.971   3.268  10.661  3.2990 -0.2939  0.4812
  973MOL0     H31321   7.133   3.302  10.916  2.8422  1.5853 -0.4004
  973MOL0     H31322   7.152   3.175  10.810 -3.2109  0.1350  0.6189
  973MOL0     H31323   7.309   3.317  10.734 -0.0756  0.5487 -1.8830
  973MOL0     H31324   7.180   3.350  10.615  0.3772  1.6553 -0.1221
  973MOL0     H31325   7.239   3.520  10.852  0.2400 -0.0518  0.1354
  973MOL0     H31326   7.093   3.537  10.755 -0.9532 -3.1289  0.9703
  973MOL0     H31327   7.248   3.540  10.550 -1.4967 -0.5013  0.3105
  973MOL0     H31328   7.373   3.585  10.657 -0.5786 -2.8189 -0.6586
  973MOL0     H31329   7.117   3.742  10.582  1.5198 -0.7885 -2.7258
  973MOL0     H31330   7.208   3.782  10.729 -0.9208 -1.0343  0.5394
  973MOL0     H31331   7.348   3.769  10.457  2.8718 -1.8990  1.5898
  973MOL0     H31332   7.409   3.828  10.615 -1.4573  0.0809  2.9040
  973MOL0     H31333   7.335   4.018  10.454 -0.8401  1.6368  0.2527
  973MOL0     H31334   7.180   3.946  10.464 -0.6111  2.3450  0.3577
  973MOL0     H31335   6.750   3.249  10.665  1.1670  0.7610  0.6998
  973MOL0     H31336   6.509   3.311  10.616 -0.2576 -0.0325  0.1162
  973MOL0     H31337   6.092   3.651  10.511 -0.1964 -2.7819 -1.2459
  973MOL0     H31338   5.859   3.638  10.555 -1.4369 -3.3359 -0.2756
  973MOL0     H31339   6.083   3.946  10.873  1.2095  2.7431  0.3991
  973MOL0     H31340   6.333   3.949  10.897  1.6853  0.9027  1.0617
  973MOL0     H31341   6.669   3.923  10.962 -0.2053 -0.9623 -1.8918
  973MOL0     H31342   6.913   3.935  10.934 -1.4946 -0.5890 -0.9457
  973MOL0     H31343   7.133   4.053  11.007 -2.5506 -0.5336  1.8300
  973MOL0     H31344   7.127   3.884  10.954  3.9817 -1.4880  0.7449
  973MOL0     H31345   7.373   3.960  11.128  0.7292  2.0654 -0.3664
  973MOL0     H31346   7.366   3.977  10.951 -1.5614 -0.2445 -0.4870
  973MOL0     H31347   7.280   3.723  10.986  1.3152 -2.7546  1.6394
  973MOL0     H31348   7.380   3.736  11.129  0.2875  0.7637  0.1062
  973MOL0     H31349   7.500   3.654  10.925 -1.5572 -0.1048 -1.2256
  973MOL0     H31350   7.479   3.804  10.847 -0.8685 -2.9350 -1.9522
  973MOL0     H31351   7.786   3.855  11.165  2.0844  1.5552 -1.9254
  973MOL0     H31352   6.958   3.824  11.346  0.6603  2.1247 -1.2142
  973MOL0     H31353   6.728   3.855  11.479  1.7135 -2.7122  2.7716
  973MOL0     H31354   6.625   3.735  11.414 -0.0617  0.5269  2.8810
  973MOL0     H31355   6.797   3.690  11.432  0.3014 -1.2545 -0.7650
  974MOL0     O31356   5.063   1.962   4.851  0.1712 -0.1970  0.2521
  974MOL0     C31357   5.009   1.920   4.954  0.3999  0.5266  0.0616
  974MOL0     O31358   5.067   1.928   5.078 -0.2315  0.3089  0.6333
  974MOL0     C31359   5.190   1.991   5.092  0.5779  0.2719  0.6893
  974MOL0     C31360   5.299   1.925   5.148 -0.5174 -0.1290 -0.3614
  974MOL0     C31361   5.415   1.990   5.182 -1.2905  0.2448 -0.0748
  974MOL0     C31362   5.439   2.119   5.143 -0.4830  0.5256  0.1040
  974MOL0     O31363   5.550   2.197   5.173  0.0058  0.2402  0.8453
  974MOL0     C31364   5.640   2.140   5.277  1.1592 -0.2753  0.1235
  974MOL0     C31365   5.744   2.251   5.310 -0.7426 -0.9477 -0.1761
  974MOL0     C31366   5.833   2.240   5.434  0.2720 -0.2330 -0.0875
  974MOL0     C31367   5.964   2.304   5.415 -0.1800  0.2121  0.7382
  974MOL0     C31368   5.954   2.461   5.382 -0.2711 -0.6804 -0.4422
  974MOL0     C31369   6.084   2.523   5.337 -1.1707 -0.7680  0.4201
  974MOL0     C31370   6.076   2.671   5.295 -0.3620  0.3756  0.1843
  974MOL0     C31371   6.182   2.699   5.194  0.0215 -0.1145 -0.1357
  974MOL0     N31372   6.191   2.836   5.168  0.0785  0.6604 -0.3830
  974MOL0     C31373   6.086   2.903   5.107 -0.3189  0.4630  0.4625
  974MOL0     C31374   6.122   3.036   5.118  0.8187  0.2087  0.0247
  974MOL0     C31375   6.027   3.144   5.082 -0.6749  0.6718 -0.1805
  974MOL0     C31376   5.995   3.165   4.937  0.3224  0.3227 -0.5542
  974MOL0     C31377   6.117   3.205   4.862  0.3996 -0.5123 -0.1209
  974MOL0     C31378   6.180   3.326   4.917  0.1694 -0.4827  0.8780
  974MOL0     O31379   6.258   3.366   4.799  0.5345 -0.3796  0.7627
  974MOL0     C31380   6.379   3.303   4.776  0.6726 -0.3714  0.1866
  974MOL0     C31381   6.457   3.252   4.878 -0.6359 -0.2372  0.1346
  974MOL0     C31382   6.589   3.214   4.856 -0.0740 -0.5668  0.6353
  974MOL0     C31383   6.649   3.240   4.738  1.1725 -0.3749  0.2166
  974MOL0     C31384   6.784   3.204   4.716  0.7508  0.3513 -0.6112
  974MOL0     O31385   6.849   3.142   4.814 -0.6876 -0.4123 -0.6975
  974MOL0     C31386   6.986   3.096   4.796  0.6926  0.5068 -0.2931
  974MOL0     C31387   7.034   3.002   4.700  0.3131  0.0265 -0.1070
  974MOL0     C31388   7.158   2.956   4.703 -0.4522 -0.2513  0.8066
  974MOL0     C31389   7.259   3.002   4.795 -0.3851  0.1701 -0.1077
  974MOL0     O31390   7.388   2.960   4.799  0.6591  0.2750 -0.0478
  974MOL0     C31391   7.421   2.869   4.697 -0.2049  0.1460 -0.7262
  974MOL0     C31392   7.575   2.845   4.701  0.1868  0.9649 -0.0605
  974MOL0     C31393   7.633   2.767   4.821 -0.3856 -0.0135 -0.3058
  974MOL0     C31394   7.577   2.799   4.962  0.7678  0.0787 -0.2656
  974MOL0     C31395   7.637   2.720   5.064 -0.3455  0.1119 -1.1255
  974MOL0     C31396   7.613   2.571   5.049 -0.6287 -0.1802  0.0110
  974MOL0     C31397   7.685   2.484   5.156 -0.8749 -0.0240  0.4424
  974MOL0     C31398   7.827   2.514   5.193 -0.1297 -0.0539  0.0981
  974MOL0    Cl31399   7.941   2.468   5.070  0.1221 -0.3691  0.1397
  974MOL0     C31400   7.218   3.095   4.894  0.4301  0.9460 -0.0024
  974MOL0     C31401   7.080   3.142   4.888 -0.2587 -0.1395 -0.8011
  974MOL0     O31402   6.837   3.252   4.620 -0.6384 -0.2682 -0.0654
  974MOL0     C31403   6.568   3.298   4.632  0.4962 -0.3199  0.2793
  974MOL0     C31404   6.439   3.327   4.652 -0.0742 -0.5279 -0.4975
  974MOL0     N31405   6.242   3.042   5.180  0.0768 -0.2975 -0.0504
  974MOL0     N31406   6.279   2.924   5.213 -0.5352  0.4719  0.0380
  974MOL0     C31407   5.330   2.188   5.074 -0.7698  0.5804 -0.0785
  974MOL0     C31408   5.214   2.120   5.046 -0.3927 -0.2075 -0.0513
  974MOL0     C31409   4.868   1.876   4.962  0.5240 -0.1026  0.1825
  974MOL0     C31410   4.833   1.778   5.054 -0.3934  0.3420 -0.3320
  974MOL0     C31411   4.711   1.722   5.050  0.1964 -0.1835  0.0065
  974MOL0     C31412   4.609   1.784   4.974 -1.7482  0.0005  0.4035
  974MOL0     O31413   4.479   1.735   4.975 -0.0013 -0.0807  0.1466
  974MOL0     C31414   4.409   1.711   5.098 -0.3824  0.6344 -0.9924
  974MOL0     C31415   4.344   1.577   5.109 -0.5044  0.9051  0.7997
  974MOL0     C31416   4.250   1.574   5.231  1.5624 -0.2472  0.4630
  974MOL0     C31417   4.312   1.504   5.355 -0.5163 -0.2549  0.1418
  974MOL0     C31418   4.245   1.563   5.474 -0.3033  0.2470 -0.3589
  974MOL0     C31419   4.215   1.621   5.577  1.2669 -1.4019  0.3015
  974MOL0     C31420   4.638   1.887   4.892 -0.0991  0.0234 -0.8418
  974MOL0     C31421   4.772   1.939   4.882  0.3612 -0.3807 -0.2939
  974MOL0     C31422   4.797   2.051   4.786 -0.5682 -0.4493  0.1941
  974MOL0     H31423   5.285   1.821   5.177  3.9655 -0.9796 -0.5419
  974MOL0     H31424   5.491   1.939   5.240 -0.7590 -1.7030 -2.2937
  974MOL0     H31425   5.587   2.114   5.369  1.9267 -0.5127  0.5066
  974MOL0     H31426   5.684   2.049   5.236  0.3514 -0.3816 -0.5421
  974MOL0     H31427   5.683   2.341   5.324 -0.2060 -0.6644  0.4005
  974MOL0     H31428   5.801   2.260   5.218  0.1743  1.7686  0.5473
  974MOL0     H31429   5.862   2.138   5.460  3.3426  0.3433 -0.8356
  974MOL0     H31430   5.791   2.295   5.519  0.6647 -1.1025  0.6886
  974MOL0     H31431   6.028   2.288   5.502  2.0788  2.4901 -0.3740
  974MOL0     H31432   6.011   2.268   5.323 -1.3378 -2.0818  0.9816
  974MOL0     H31433   5.878   2.489   5.309 -0.5710 -1.2308 -0.3440
  974MOL0     H31434   5.925   2.511   5.475 -3.1505 -1.6966 -0.7019
  974MOL0     H31435   6.162   2.488   5.406 -1.2756 -2.8139 -0.4309
  974MOL0     H31436   6.114   2.471   5.245 -1.8593  1.1616 -0.9422
  974MOL0     H31437   6.115   2.732   5.377  0.8349  0.6001 -0.5113
  974MOL0     H31438   5.977   2.702   5.262  0.0834  0.1509 -1.4514
  974MOL0     H31439   6.274   2.661   5.242 -0.4053  1.7725  2.3722
  974MOL0     H31440   6.162   2.646   5.101  1.2426  0.9931 -1.0732
  974MOL0     H31441   5.996   2.861   5.062 -0.0813  1.1549 -0.7243
  974MOL0     H31442   5.930   3.132   5.130 -0.4795 -5.6526 -0.5135
  974MOL0     H31443   6.066   3.237   5.126 -0.3097  0.2861  0.3247
  974MOL0     H31444   5.959   3.068   4.900  1.8500 -0.4648 -0.0885
  974MOL0     H31445   5.919   3.243   4.931  0.5784  0.5340 -1.1366
  974MOL0     H31446   6.098   3.206   4.754  1.5117  1.0582 -0.3345
  974MOL0     H31447   6.190   3.125   4.877  1.9354  1.0063  0.8710
  974MOL0     H31448   6.238   3.314   5.009  1.4022 -0.1394  0.1578
  974MOL0     H31449   6.098   3.396   4.936  0.7631  0.9624 -1.5291
  974MOL0     H31450   6.424   3.229   4.979 -0.3415 -0.1404  0.2567
  974MOL0     H31451   6.646   3.161   4.931  0.5706 -1.0801 -0.1944
  974MOL0     H31452   6.967   2.947   4.635  0.8172 -0.4676 -0.2098
  974MOL0     H31453   7.185   2.873   4.638  0.9275 -1.2284  2.5330
  974MOL0     H31454   7.361   2.778   4.703 -2.8191  1.8207 -0.1067
  974MOL0     H31455   7.397   2.909   4.598 -1.4370  0.5743 -0.2708
  974MOL0     H31456   7.591   2.786   4.610 -1.1287 -0.0984  0.3610
  974MOL0     H31457   7.630   2.939   4.699  2.9322 -0.5412 -1.1238
  974MOL0     H31458   7.631   2.658   4.809  2.0450  0.0136 -1.7065
  974MOL0     H31459   7.741   2.786   4.824 -0.5395  0.9623 -0.7737
  974MOL0     H31460   7.470   2.780   4.963  1.0586 -1.8650 -1.2391
  974MOL0     H31461   7.593   2.906   4.979  3.6928  0.4507 -3.9120
  974MOL0     H31462   7.596   2.744   5.162  0.3670 -1.1938 -0.4819
  974MOL0     H31463   7.746   2.735   5.063 -0.4017  0.7190  0.2671
  974MOL0     H31464   7.508   2.544   5.038 -0.1555 -1.1198 -2.9444
  974MOL0     H31465   7.654   2.535   4.954 -0.5557  1.7220 -0.7212
  974MOL0     H31466   7.690   2.375   5.143  2.0608 -0.0528  1.0984
  974MOL0     H31467   7.629   2.493   5.249 -0.0774 -0.5278  0.9924
  974MOL0     H31468   7.838   2.618   5.224  1.1266  0.0680 -0.6673
  974MOL0     H31469   7.838   2.447   5.279 -2.1606  0.8892  1.1530
  974MOL0     H31470   7.285   3.123   4.975  4.4565 -0.5443 -2.5236
  974MOL0     H31471   7.041   3.205   4.967  1.9008 -0.0721  0.2688
  974MOL0     H31472   6.603   3.324   4.533 -3.1725 -2.4075 -1.7777
  974MOL0     H31473   6.376   3.376   4.578  0.0974 -1.1487 -1.0586
  974MOL0     H31474   5.343   2.290   5.039  0.3542  0.0196 -1.4114
  974MOL0     H31475   5.132   2.172   4.998  0.4142 -0.1171 -1.3700
  974MOL0     H31476   4.913   1.740   5.117 -0.1892 -0.3450 -1.0006
  974MOL0     H31477   4.687   1.649   5.126  1.1413  0.0426  0.5314
  974MOL0     H31478   4.340   1.794   5.119  0.3834  1.8903 -3.0785
  974MOL0     H31479   4.477   1.719   5.182 -1.6243  1.9670 -0.0559
  974MOL0     H31480   4.433   1.513   5.112 -0.9573 -0.0430 -2.1973
  974MOL0     H31481   4.289   1.542   5.021 -0.5842  0.5580  0.9867
  974MOL0     H31482   4.157   1.528   5.197 -0.5102  3.7787  0.0941
  974MOL0     H31483   4.224   1.676   5.259 -1.8311 -0.0985 -2.5971
  974MOL0     H31484   4.299   1.400   5.325 -0.2936 -0.5073  0.9003
  974MOL0     H31485   4.420   1.525   5.352 -0.4894 -0.0138  1.8708
  974MOL0     H31486   4.211   1.683   5.664 -0.6992  0.1178 -0.8139
  974MOL0     H31487   4.553   1.931   4.842 -0.4744 -0.8544 -0.9833
  974MOL0     H31488   4.859   2.133   4.822  1.5117  0.4904 -4.7445
  974MOL0     H31489   4.852   2.011   4.701 -0.7405  1.0559 -0.6587
  974MOL0     H31490   4.705   2.087   4.738  0.0400  1.5146  0.4351
  975MOL0     O31491   7.382   6.189   0.445  0.2569 -0.1529  0.2128
  975MOL0     C31492   7.364   6.104   0.535 -0.1703 -0.3932  0.3344
  975MOL0     O31493   7.463   6.034   0.589 -0.2703  1.5319  0.0954
  975MOL0     C31494   7.533   5.930   0.524  0.3350 -0.3530  0.2859
  975MOL0     C31495   7.476   5.856   0.419 -1.1048 -0.6638  0.2495
  975MOL0     C31496   7.560   5.760   0.352  0.7892 -0.5153  0.5132
  975MOL0     C31497   7.690   5.735   0.399 -0.7272 -0.3011  0.9206
  975MOL0     O31498   7.779   5.644   0.345 -0.3033 -0.3345  0.0830
  975MOL0     C31499   7.783   5.643   0.200  0.4201 -0.3506  0.6877
  975MOL0     C31500   7.892   5.560   0.146 -0.5046  0.1079  0.5280
  975MOL0     C31501   7.886   5.411   0.168 -0.2087  0.0616 -0.7265
  975MOL0     C31502   7.939   5.365   0.311  0.2338  0.5030  0.1773
  975MOL0     C31503   7.947   5.212   0.323  0.1050  0.4605  0.0910
  975MOL0     C31504   8.038   5.169   0.442 -0.3861 -0.2018 -0.4551
  975MOL0     C31505   8.015   5.029   0.488  0.5615  1.1103 -0.0948
  975MOL0     C31506   8.038   4.909   0.382 -0.9027 -0.3013  0.0547
  975MOL0     N31507   8.168   4.929   0.317 -1.1157  0.7996  0.1842
  975MOL0     C31508   8.291   4.942   0.386 -0.2775  0.4507  0.0625
  975MOL0     C31509   8.393   4.939   0.296  1.1541  0.0680  0.3286
  975MOL0     C31510   8.535   4.960   0.328  0.4247 -0.8229  0.5234
  975MOL0     C31511   8.646   4.891   0.245  0.0354  0.2404  0.8992
  975MOL0     C31512   8.772   4.840   0.317  0.1622 -0.2019 -0.4671
  975MOL0     C31513   8.826   4.949   0.407  0.1956  0.4367 -0.3262
  975MOL0     O31514   8.936   4.877   0.466  0.1593 -0.1206 -0.1701
  975MOL0     C31515   9.050   4.952   0.506  0.4389  0.9025  0.2909
  975MOL0     C31516   9.144   4.870   0.566  0.4897 -0.2660  0.4552
  975MOL0     C31517   9.253   4.922   0.628  0.8611 -0.0104 -0.2429
  975MOL0     C31518   9.275   5.063   0.613 -0.3215  0.9808 -1.0350
  975MOL0     C31519   9.396   5.106   0.679 -0.5154  0.0542  0.2757
  975MOL0     O31520   9.510   5.027   0.661 -0.7407 -0.6131  0.3125
  975MOL0     C31521   9.630   5.042   0.727  0.0700 -0.0942 -0.5100
  975MOL0     C31522   9.666   5.152   0.812 -0.4422 -0.7959  0.8745
  975MOL0     C31523   9.781   5.155   0.885  1.0498  0.0599  0.3367
  975MOL0     C31524   9.874   5.056   0.869  0.4650  0.3663 -0.5204
  975MOL0     O31525   9.981   5.079   0.947 -0.0828  0.0990 -0.1488
  975MOL0     C31526  10.056   4.977   1.010 -0.0769  0.3043 -0.2883
  975MOL0     C31527  10.122   5.023   1.142 -0.0864  0.6106  0.6669
  975MOL0     C31528  10.014   5.063   1.245 -0.9028 -0.2957  0.3958
  975MOL0     C31529  10.083   5.123   1.377  0.5762  0.3686 -0.0966
  975MOL0     C31530   9.970   5.141   1.487 -0.3384 -0.1842 -0.3993
  975MOL0     C31531  10.011   5.249   1.594 -0.4531 -0.6861 -0.0756
  975MOL0     C31532  10.131   5.213   1.683 -0.0325 -0.5814 -0.4672
  975MOL0     C31533  10.183   5.331   1.772 -0.2824  0.0671 -0.6209
  975MOL0    Cl31534  10.265   5.455   1.681 -0.1617 -0.2987  0.0076
  975MOL0     C31535   9.842   4.944   0.791 -0.6907 -0.7011 -0.0969
  975MOL0     C31536   9.722   4.940   0.716 -0.0474 -0.7847 -0.6383
  975MOL0     O31537   9.385   5.203   0.754 -0.5997  0.3184  0.5640
  975MOL0     C31538   9.179   5.147   0.560 -0.1108 -0.9303 -0.3607
  975MOL0     C31539   9.061   5.089   0.509  0.5998 -0.2463 -1.3517
  975MOL0     N31540   8.335   4.931   0.172 -0.9304  0.1580 -0.1246
  975MOL0     N31541   8.207   4.912   0.188 -0.7743 -0.3262  0.6997
  975MOL0     C31542   7.737   5.803   0.510  0.8027 -0.1868 -0.5418
  975MOL0     C31543   7.660   5.895   0.582  0.3276 -0.3107 -0.4270
  975MOL0     C31544   7.229   6.101   0.597  0.2898 -0.1788  0.4636
  975MOL0     C31545   7.224   6.088   0.743  0.4784  0.0657  1.4027
  975MOL0     C31546   7.104   6.102   0.816 -0.1446 -0.4285  0.5189
  975MOL0     C31547   6.984   6.117   0.749 -0.3470  0.0081 -0.3064
  975MOL0     O31548   6.867   6.120   0.828 -0.3586  0.1783  0.6755
  975MOL0     C31549   6.740   6.094   0.772 -0.0384  0.2018 -0.2452
  975MOL0     C31550   6.717   5.960   0.829  0.1348  0.2503 -0.2635
  975MOL0     C31551   6.587   5.894   0.792 -1.2262 -0.4963 -0.2886
  975MOL0     C31552   6.459   5.953   0.849  0.4635  0.3509  0.3348
  975MOL0     C31553   6.351   5.927   0.753 -0.6841 -0.5484 -0.5399
  975MOL0     C31554   6.268   5.893   0.678 -0.2953 -0.3102 -0.5108
  975MOL0     C31555   6.983   6.131   0.611 -0.0647 -0.7320 -0.1694
  975MOL0     C31556   7.104   6.123   0.536  0.5530  0.8553  0.0298
  975MOL0     C31557   7.088   6.128   0.387 -0.1467 -0.9417 -0.5395
  975MOL0     H31558   7.376   5.870   0.380 -1.0258 -0.9441 -0.0580
  975MOL0     H31559   7.527   5.692   0.274 -0.6183  0.5512  0.1237
  975MOL0     H31560   7.683   5.614   0.166  0.2905  2.4608 -1.7541
  975MOL0     H31561   7.793   5.742   0.153 -0.0540  0.6889  2.6645
  975MOL0     H31562   7.983   5.596   0.195 -0.2993  0.6912 -0.2625
  975MOL0     H31563   7.905   5.585   0.040  0.2858  0.1923  0.6432
  975MOL0     H31564   7.950   5.365   0.091  3.6041  3.8260 -0.1222
  975MOL0     H31565   7.787   5.371   0.142  0.1816 -0.0306 -2.1595
  975MOL0     H31566   8.040   5.407   0.318  0.3592  0.0468  1.3076
  975MOL0     H31567   7.875   5.404   0.390 -1.0806 -1.5529  0.2102
  975MOL0     H31568   7.847   5.174   0.343 -1.0039  2.6079 -1.0129
  975MOL0     H31569   7.978   5.164   0.230  0.1226  0.5361  0.0579
  975MOL0     H31570   8.142   5.190   0.419  0.3213 -0.0580  2.5279
  975MOL0     H31571   8.021   5.234   0.528 -0.2979  0.5138 -0.9704
  975MOL0     H31572   7.912   5.014   0.522  0.1296  3.7570 -0.0221
  975MOL0     H31573   8.067   5.010   0.583 -0.7866  0.4977  0.5495
  975MOL0     H31574   8.039   4.812   0.431 -1.9934 -1.1168 -1.4264
  975MOL0     H31575   7.965   4.920   0.300 -0.5464  0.1273 -0.2105
  975MOL0     H31576   8.302   4.966   0.492 -0.7621  2.6788 -0.3405
  975MOL0     H31577   8.549   5.068   0.317  3.1835 -1.0098  1.5658
  975MOL0     H31578   8.551   4.926   0.430  0.3792  0.4505  0.9691
  975MOL0     H31579   8.615   4.808   0.181  1.3555 -2.0254  3.0185
  975MOL0     H31580   8.686   4.970   0.181 -0.0292 -1.6332 -1.5762
  975MOL0     H31581   8.852   4.811   0.248 -1.6848 -1.7013 -2.0960
  975MOL0     H31582   8.751   4.742   0.362 -0.6317 -0.1321 -0.6820
  975MOL0     H31583   8.755   4.985   0.482 -0.2417 -2.0257  0.5113
  975MOL0     H31584   8.861   5.036   0.350  1.1825  2.0617  2.5512
  975MOL0     H31585   9.131   4.762   0.558 -2.0231  0.0821 -1.6325
  975MOL0     H31586   9.322   4.854   0.677 -0.9115 -2.4753 -0.9694
  975MOL0     H31587   9.588   5.222   0.841  1.5323  0.6107  3.0775
  975MOL0     H31588   9.795   5.242   0.949  1.7842  0.8384 -0.8256
  975MOL0     H31589   9.992   4.889   1.023 -0.1956  0.5458  0.8482
  975MOL0     H31590  10.132   4.945   0.937  0.0478 -1.8497  0.7044
  975MOL0     H31591  10.176   4.936   1.181  0.0665  0.1867 -0.4606
  975MOL0     H31592  10.193   5.105   1.124 -0.7084  0.9054 -0.4704
  975MOL0     H31593   9.958   5.145   1.199  1.1823  0.3475 -1.1764
  975MOL0     H31594   9.946   4.986   1.282 -1.0324  0.3572  1.5620
  975MOL0     H31595  10.124   5.222   1.355  2.6768 -0.6386 -1.0409
  975MOL0     H31596  10.167   5.066   1.418  1.2744  2.7198  2.0248
  975MOL0     H31597   9.940   5.045   1.531  1.8121 -1.2321 -1.0955
  975MOL0     H31598   9.882   5.181   1.436 -1.5725  0.3833  2.0379
  975MOL0     H31599  10.034   5.346   1.548 -0.4297  0.5659  2.4159
  975MOL0     H31600   9.927   5.258   1.663 -0.6734  2.2651 -0.6083
  975MOL0     H31601  10.216   5.184   1.621  2.0970  0.9154  1.5941
  975MOL0     H31602  10.110   5.143   1.765 -0.6153  0.1767  0.0393
  975MOL0     H31603  10.099   5.372   1.827  0.7740  2.3837 -0.6207
  975MOL0     H31604  10.247   5.285   1.848 -1.1612  0.9394  0.6853
  975MOL0     H31605   9.914   4.863   0.785 -0.1087 -0.1793 -0.2755
  975MOL0     H31606   9.709   4.862   0.642  1.2898 -2.8686  1.2180
  975MOL0     H31607   9.190   5.255   0.560 -1.6497 -0.7286 -2.2271
  975MOL0     H31608   8.981   5.158   0.485 -2.1948 -0.4490  5.1669
  975MOL0     H31609   7.834   5.769   0.546  0.8396  0.6988  0.2567
  975MOL0     H31610   7.692   5.943   0.674  2.6536 -2.0915 -0.2088
  975MOL0     H31611   7.314   6.086   0.803  0.9876  1.3347  0.7075
  975MOL0     H31612   7.109   6.115   0.924  0.3109  2.2170  0.2584
  975MOL0     H31613   6.741   6.076   0.665 -1.0919 -2.8744  0.1736
  975MOL0     H31614   6.662   6.165   0.802  0.3283 -0.1259  1.6309
  975MOL0     H31615   6.708   5.971   0.937  1.6278 -0.8732  0.0146
  975MOL0     H31616   6.800   5.894   0.804 -1.2296 -1.0040 -1.7339
  975MOL0     H31617   6.585   5.790   0.827 -2.5627 -0.6883 -0.8447
  975MOL0     H31618   6.589   5.893   0.682  2.3485  1.0826 -0.3620
  975MOL0     H31619   6.437   5.904   0.944  1.3713  1.0986  0.9499
  975MOL0     H31620   6.472   6.060   0.868 -0.1336  0.2705  1.2434
  975MOL0     H31621   6.193   5.856   0.611 -1.6464  1.7741 -0.2532
  975MOL0     H31622   6.890   6.148   0.559 -0.0092  1.7007  0.4038
  975MOL0     H31623   7.112   6.034   0.337  0.2260 -0.0486 -2.0968
  975MOL0     H31624   6.988   6.166   0.366  0.7367  2.9356  1.3150
  975MOL0     H31625   7.158   6.203   0.350  1.2428  0.4184  4.1596
  976MOL0     O31626   6.466   6.845   2.421 -0.4123  1.0100 -0.1514
  976MOL0     C31627   6.433   6.900   2.529 -0.3986 -0.3728  0.5565
  976MOL0     O31628   6.499   6.883   2.648 -0.4778 -1.1577  0.4163
  976MOL0     C31629   6.624   6.828   2.651 -0.7917  0.3599  0.5661
  976MOL0     C31630   6.648   6.720   2.740  0.1309 -0.2846  0.3294
  976MOL0     C31631   6.769   6.668   2.759 -0.3953 -0.1279  0.6820
  976MOL0     C31632   6.878   6.713   2.682 -0.0983  0.9089 -0.3871
  976MOL0     O31633   6.999   6.649   2.713  0.4378 -0.0700 -0.5872
  976MOL0     C31634   7.120   6.718   2.679 -0.1752 -0.0761  0.3614
  976MOL0     C31635   7.244   6.663   2.749  0.4409 -0.2255 -0.0952
  976MOL0     C31636   7.287   6.530   2.689 -0.2740 -0.8434  0.4209
  976MOL0     C31637   7.207   6.411   2.740  0.2273  0.0017 -0.8569
  976MOL0     C31638   7.292   6.290   2.723  0.2098 -0.5536  0.3125
  976MOL0     C31639   7.307   6.254   2.575  0.0266 -0.7830  0.1085
  976MOL0     C31640   7.174   6.211   2.494 -1.0146  0.3189 -0.7443
  976MOL0     C31641   7.197   6.148   2.364  0.2745  0.3528 -0.5963
  976MOL0     N31642   7.258   6.226   2.269  0.7163 -0.8165  0.4449
  976MOL0     C31643   7.212   6.347   2.232  0.4696 -1.1047 -0.4422
  976MOL0     C31644   7.299   6.401   2.144 -0.5308 -0.3036  1.3122
  976MOL0     C31645   7.294   6.542   2.083 -0.3031 -0.3064  0.1601
  976MOL0     C31646   7.158   6.561   2.012 -0.1170 -0.5759  0.3709
  976MOL0     C31647   7.117   6.468   1.901  1.1455 -0.2691 -1.1671
  976MOL0     C31648   6.984   6.525   1.826 -1.0837 -0.4972  0.4130
  976MOL0     O31649   6.866   6.514   1.911  1.1567 -0.3521 -0.2338
  976MOL0     C31650   6.765   6.610   1.885 -0.4924 -0.1670  0.6229
  976MOL0     C31651   6.768   6.711   1.789  1.0027  0.8413 -0.4427
  976MOL0     C31652   6.661   6.802   1.787 -0.6711 -0.4389  0.0302
  976MOL0     C31653   6.553   6.788   1.871  1.0862 -0.5841 -0.2884
  976MOL0     C31654   6.442   6.893   1.867 -0.2257  0.9565 -0.9841
  976MOL0     O31655   6.330   6.878   1.950  1.1278  0.1666  0.3661
  976MOL0     C31656   6.214   6.948   1.917 -0.1521  0.1234  0.2411
  976MOL0     C31657   6.091   6.874   1.906 -0.5979  0.1901  0.0515
  976MOL0     C31658   5.976   6.948   1.881  0.0509  0.6301 -0.6975
  976MOL0     C31659   5.977   7.087   1.875 -0.2074 -0.1565  0.6758
  976MOL0     O31660   5.867   7.163   1.832 -0.2144  0.5363 -0.4205
  976MOL0     C31661   5.767   7.108   1.749 -0.3412  0.7073  1.0729
  976MOL0     C31662   5.654   7.201   1.711 -0.7057 -0.1740  0.5557
  976MOL0     C31663   5.528   7.127   1.657  0.7398  0.1276  0.8609
  976MOL0     C31664   5.431   7.216   1.576 -0.1479 -0.7643 -0.2494
  976MOL0     C31665   5.311   7.136   1.542 -0.1613  0.7153  0.2240
  976MOL0     C31666   5.198   7.236   1.490 -1.0116 -0.6746  0.5040
  976MOL0     C31667   5.088   7.172   1.422 -0.2089  0.4819 -0.4409
  976MOL0     C31668   5.016   7.284   1.342 -1.2336  0.5291  1.1939
  976MOL0    Cl31669   4.885   7.222   1.252 -0.3821  0.4316 -0.1632
  976MOL0     C31670   6.090   7.158   1.905  0.5699 -0.3160 -0.8784
  976MOL0     C31671   6.213   7.091   1.919 -0.0573  0.3277 -0.2019
  976MOL0     O31672   6.454   6.974   1.780 -0.1884 -0.0901 -0.3920
  976MOL0     C31673   6.535   6.676   1.954 -0.8790 -0.1616  0.3524
  976MOL0     C31674   6.648   6.581   1.964  1.1064 -0.1783  0.0252
  976MOL0     N31675   7.403   6.310   2.130  0.6755  0.6376  0.0293
  976MOL0     N31676   7.379   6.208   2.200  1.3791  0.0549  0.4664
  976MOL0     C31677   6.862   6.827   2.600  0.1737  0.0841  0.0614
  976MOL0     C31678   6.734   6.893   2.596 -0.9545 -0.4820  0.6639
  976MOL0     C31679   6.304   6.982   2.524 -0.3609  0.8776 -0.2037
  976MOL0     C31680   6.259   7.046   2.651 -0.7271  0.7505 -0.5389
  976MOL0     C31681   6.153   7.126   2.651 -0.3130 -0.5623 -0.8940
  976MOL0     C31682   6.070   7.143   2.544 -1.0099  0.5181  0.6021
  976MOL0     O31683   5.964   7.228   2.537  0.1060  0.7305  0.8543
  976MOL0     C31684   5.983   7.361   2.475 -0.1537 -0.3755  0.2764
  976MOL0     C31685   5.951   7.379   2.327  0.8085 -0.3765  0.0003
  976MOL0     C31686   5.808   7.320   2.297  0.1879  0.4312 -0.2393
  976MOL0     C31687   5.777   7.327   2.153  0.1383 -0.2774 -0.4060
  976MOL0     C31688   5.726   7.468   2.145 -0.3702  0.1095 -0.6137
  976MOL0     C31689   5.687   7.580   2.157  0.4023 -0.2401 -0.5774
  976MOL0     C31690   6.114   7.088   2.420  0.3506 -0.6970  0.2564
  976MOL0     C31691   6.229   7.010   2.408 -0.3133 -0.5378  0.5734
  976MOL0     C31692   6.267   6.969   2.261  0.4763 -0.2098  0.0045
  976MOL0     H31693   6.564   6.682   2.797 -1.8076  1.0353 -1.4605
  976MOL0     H31694   6.800   6.579   2.813  4.8765  0.1899 -1.1990
  976MOL0     H31695   7.146   6.724   2.573  3.3890 -0.6474  1.0835
  976MOL0     H31696   7.090   6.812   2.725 -2.0493 -0.4084 -0.0891
  976MOL0     H31697   7.224   6.647   2.856 -0.7963  0.1302 -0.2546
  976MOL0     H31698   7.326   6.735   2.737 -0.5886  0.8938 -0.7139
  976MOL0     H31699   7.394   6.531   2.714 -0.1975 -0.3318  0.0870
  976MOL0     H31700   7.286   6.531   2.580  1.3906 -1.0934  0.3836
  976MOL0     H31701   7.185   6.422   2.846 -0.2349  3.1960 -1.1783
  976MOL0     H31702   7.110   6.399   2.690  0.2429 -1.9688 -0.4815
  976MOL0     H31703   7.382   6.312   2.781 -0.5755  0.5406  1.1552
  976MOL0     H31704   7.242   6.210   2.777 -1.4541  2.2054  3.2025
  976MOL0     H31705   7.357   6.333   2.519  1.0964 -0.1742  1.8261
  976MOL0     H31706   7.375   6.168   2.576 -0.3787 -1.1782  3.0293
  976MOL0     H31707   7.117   6.304   2.485 -1.2806  0.0196 -2.5355
  976MOL0     H31708   7.122   6.131   2.547 -1.7245  1.3261  0.1281
  976MOL0     H31709   7.253   6.054   2.370 -1.6696 -0.8298 -0.2859
  976MOL0     H31710   7.104   6.117   2.317 -0.0489 -1.5990  1.1774
  976MOL0     H31711   7.124   6.394   2.275 -0.8024 -2.4074 -1.5394
  976MOL0     H31712   7.311   6.612   2.165  0.5012  0.2342 -0.4405
  976MOL0     H31713   7.379   6.552   2.014 -2.0195  0.9121 -1.8743
  976MOL0     H31714   7.073   6.558   2.082  0.2350 -1.6596  0.7714
  976MOL0     H31715   7.160   6.664   1.976  2.3176 -0.7854 -0.2779
  976MOL0     H31716   7.114   6.361   1.925  1.7631 -1.0096 -4.0392
  976MOL0     H31717   7.199   6.462   1.829  1.0522  1.6384 -1.4638
  976MOL0     H31718   6.973   6.467   1.734 -1.0810  1.4843 -0.9201
  976MOL0     H31719   6.998   6.630   1.798 -1.5955 -0.5519 -0.0646
  976MOL0     H31720   6.843   6.732   1.712  2.2080 -2.1661 -0.2134
  976MOL0     H31721   6.672   6.888   1.721  1.8176 -1.3273 -0.8447
  976MOL0     H31722   6.093   6.768   1.932 -1.5170  0.1647  0.0354
  976MOL0     H31723   5.880   6.897   1.875  0.9605 -1.2552  0.2760
  976MOL0     H31724   5.810   7.073   1.655 -3.5780  2.9310 -1.4661
  976MOL0     H31725   5.709   7.027   1.793  0.7734 -0.8726 -0.2348
  976MOL0     H31726   5.627   7.263   1.797  1.1486  0.2612  0.8749
  976MOL0     H31727   5.679   7.268   1.628  1.9613 -0.1890  1.2426
  976MOL0     H31728   5.550   7.032   1.607 -3.5887 -0.1408 -0.9707
  976MOL0     H31729   5.466   7.104   1.743 -4.6669 -0.0377 -2.5782
  976MOL0     H31730   5.471   7.261   1.484  1.2546 -1.7433 -0.1595
  976MOL0     H31731   5.398   7.306   1.628  0.1446  0.4141 -2.0121
  976MOL0     H31732   5.270   7.071   1.620  1.5587  0.4450  0.9349
  976MOL0     H31733   5.336   7.069   1.459 -2.3100  2.1816 -1.7118
  976MOL0     H31734   5.152   7.304   1.563 -3.4386  0.1747 -1.6497
  976MOL0     H31735   5.253   7.305   1.425 -1.1344 -0.5213  0.5622
  976MOL0     H31736   5.014   7.123   1.486 -1.4502  1.7900 -0.8226
  976MOL0     H31737   5.132   7.097   1.356  0.1268 -0.8693  1.2240
  976MOL0     H31738   4.982   7.374   1.395  0.0070  0.8183  1.5488
  976MOL0     H31739   5.082   7.322   1.263 -1.0498 -2.2068 -0.0714
  976MOL0     H31740   6.087   7.266   1.906  2.9758 -0.2028  0.2050
  976MOL0     H31741   6.305   7.149   1.926 -0.2232  0.5324  0.4265
  976MOL0     H31742   6.447   6.663   2.016 -2.0771  0.6753 -1.0984
  976MOL0     H31743   6.637   6.499   2.034  1.0118  0.8194  1.2145
  976MOL0     H31744   6.941   6.874   2.542  3.0163 -2.3417  1.6872
  976MOL0     H31745   6.719   6.992   2.553  0.6495 -0.6608 -0.4016
  976MOL0     H31746   6.309   7.034   2.747 -2.0460  1.3576  0.2572
  976MOL0     H31747   6.132   7.175   2.746  1.1383  0.2834 -0.9872
  976MOL0     H31748   6.080   7.405   2.500 -1.2692  2.5512 -0.1741
  976MOL0     H31749   5.925   7.425   2.542  0.8553 -1.2722  2.0937
  976MOL0     H31750   6.030   7.337   2.264  1.7481  0.0588  0.8667
  976MOL0     H31751   5.938   7.484   2.300 -1.1715 -1.3914 -3.6734
  976MOL0     H31752   5.734   7.373   2.358 -0.3540  1.5077 -1.7653
  976MOL0     H31753   5.798   7.215   2.324  1.6294 -0.2174 -1.9942
  976MOL0     H31754   5.867   7.309   2.094  0.3974 -0.1440 -0.0583
  976MOL0     H31755   5.693   7.261   2.129  0.9479 -0.7086 -2.1684
  976MOL0     H31756   5.650   7.678   2.178  4.0696  1.7732 -2.5247
  976MOL0     H31757   6.064   7.116   2.328  3.8657  1.8371 -1.0971
  976MOL0     H31758   6.217   7.044   2.199 -0.5987 -0.8468  0.0794
  976MOL0     H31759   6.373   6.984   2.236  0.3003  0.9250 -0.0921
  976MOL0     H31760   6.230   6.867   2.249  0.6140 -0.4721  1.5932
  977MOL0     O31761   0.591   1.808   0.670  0.1537  0.6510  1.1873
  977MOL0     C31762   0.594   1.688   0.649  0.7883 -0.0038 -0.0199
  977MOL0     O31763   0.670   1.625   0.552 -0.1044  0.4781 -0.2751
  977MOL0     C31764   0.756   1.697   0.475 -0.4891  0.3264  0.5144
  977MOL0     C31765   0.721   1.716   0.341  0.4556  0.6817  0.3350
  977MOL0     C31766   0.814   1.771   0.256  0.1315 -0.2278 -0.1481
  977MOL0     C31767   0.946   1.806   0.296  0.3933 -0.0416  0.1817
  977MOL0     O31768   1.032   1.865   0.207 -0.0554  0.1495  0.6078
  977MOL0     C31769   1.178   1.844   0.203  0.1367 -0.2651 -0.0169
  977MOL0     C31770   1.242   1.970   0.137 -0.7348 -0.1839  0.7513
  977MOL0     C31771   1.388   1.963   0.103 -0.7519 -0.0535 -0.0889
  977MOL0     C31772   1.419   1.845   0.000  1.0043 -0.0827 -0.2171
  977MOL0     C31773   1.561   1.840  -0.062  0.9788 -0.7019  0.0999
  977MOL0     C31774   1.649   1.799   0.048 -1.4989  1.1766  0.2684
  977MOL0     C31775   1.793   1.758   0.010  0.2302  0.5079  0.9354
  977MOL0     C31776   1.869   1.686   0.132 -0.3484 -0.1440 -0.4425
  977MOL0     N31777   1.999   1.657   0.069 -0.5923  0.3475  0.4663
  977MOL0     C31778   2.043   1.528   0.068  0.3045  1.1128 -0.4648
  977MOL0     C31779   2.176   1.531   0.041  0.5287  0.7429  0.2932
  977MOL0     C31780   2.269   1.407   0.047 -0.4093  0.5755 -0.1995
  977MOL0     C31781   2.416   1.448   0.090  0.1327 -0.9412 -0.3962
  977MOL0     C31782   2.506   1.329   0.075 -0.1079 -0.0336 -0.0020
  977MOL0     C31783   2.646   1.365   0.121 -1.0414  0.9954 -0.8047
  977MOL0     O31784   2.729   1.248   0.091  0.1468 -0.1958 -0.1974
  977MOL0     C31785   2.867   1.250   0.065 -0.8100 -0.5259  0.6666
  977MOL0     C31786   2.955   1.339   0.122  0.8601 -0.3111 -0.8232
  977MOL0     C31787   3.090   1.333   0.096  0.4872 -0.5260  0.5404
  977MOL0     C31788   3.147   1.240   0.008  0.4014  0.3774  0.8320
  977MOL0     C31789   3.285   1.241  -0.025 -0.4072 -0.0812 -0.4926
  977MOL0     O31790   3.359   1.352   0.031 -0.7732 -0.4814 -0.4584
  977MOL0     C31791   3.478   1.394  -0.019 -1.1183  0.3518 -0.4086
  977MOL0     C31792   3.571   1.472   0.061  0.0680  0.1199  0.4120
  977MOL0     C31793   3.694   1.500   0.018 -0.1963  0.0486  0.2143
  977MOL0     C31794   3.734   1.465  -0.111 -0.5548 -0.2542  0.6243
  977MOL0     O31795   3.859   1.512  -0.150  0.2688  0.0914  0.0460
  977MOL0     C31796   3.881   1.650  -0.118  0.2217 -0.1553  0.1158
  977MOL0     C31797   4.003   1.700  -0.185  1.0451  0.1161 -0.1057
  977MOL0     C31798   4.128   1.648  -0.122 -0.2445 -0.5258 -0.8800
  977MOL0     C31799   4.241   1.696  -0.216 -0.0815  0.5605 -1.2863
  977MOL0     C31800   4.382   1.663  -0.170  0.1206 -0.4173 -0.3099
  977MOL0     C31801   4.431   1.745  -0.047 -0.3265  0.0707 -0.5138
  977MOL0     C31802   4.554   1.685   0.015 -0.8744 -0.7993  0.4943
  977MOL0     C31803   4.672   1.672  -0.080  0.2359  0.4472  0.3974
  977MOL0    Cl31804   4.737   1.834  -0.110 -0.0465 -0.3769 -0.0393
  977MOL0     C31805   3.643   1.408  -0.197 -0.0428 -0.4394  0.0752
  977MOL0     C31806   3.522   1.366  -0.150  0.0541 -0.4975  1.4292
  977MOL0     O31807   3.326   1.161  -0.111  0.1790 -0.1551  0.6029
  977MOL0     C31808   3.051   1.151  -0.050  0.0022  0.3480  0.2904
  977MOL0     C31809   2.914   1.162  -0.025  0.2729 -0.3258  0.4011
  977MOL0     N31810   2.209   1.663   0.012  0.0699  0.2776 -0.7801
  977MOL0     N31811   2.107   1.743   0.044  0.3991  0.5596 -0.3163
  977MOL0     C31812   0.975   1.798   0.435  0.1074  0.6318 -0.0441
  977MOL0     C31813   0.877   1.742   0.528 -1.1915  0.3118  0.0098
  977MOL0     C31814   0.507   1.603   0.730 -0.1508 -1.2077 -0.1517
  977MOL0     C31815   0.550   1.473   0.741 -0.2994 -0.3491 -0.0134
  977MOL0     C31816   0.478   1.388   0.817  0.2756  0.1343  0.2553
  977MOL0     C31817   0.358   1.418   0.877  0.5560 -0.3975 -0.1498
  977MOL0     O31818   0.287   1.317   0.949  0.4843 -0.0514 -0.1266
  977MOL0     C31819   0.152   1.321   0.978 -0.1778  0.8031  1.1338
  977MOL0     C31820   0.123   1.180   1.024 -0.2679  0.7853 -0.1313
  977MOL0     C31821  -0.014   1.177   1.095  0.5244  0.5460 -0.7949
  977MOL0     C31822  -0.026   1.090   1.219 -0.4969  0.0241  0.3640
  977MOL0     C31823  -0.166   1.095   1.275 -0.1044  0.2147  0.9993
  977MOL0     C31824  -0.279   1.102   1.318 -0.2233 -0.3159 -0.1077
  977MOL0     C31825   0.308   1.548   0.866  0.0188  0.8718  0.0522
  977MOL0     C31826   0.383   1.640   0.785 -0.2643  0.6058 -0.6772
  977MOL0     C31827   0.302   1.769   0.751 -0.5772  0.3642 -0.6809
  977MOL0     H31828   0.623   1.692   0.300  0.7206 -1.5842  0.9141
  977MOL0     H31829   0.783   1.788   0.153 -0.4515  1.4960  0.2813
  977MOL0     H31830   1.232   1.822   0.296  2.1013 -1.4813 -1.3856
  977MOL0     H31831   1.207   1.760   0.140  0.5871  1.8166 -2.7388
  977MOL0     H31832   1.231   2.056   0.204 -0.6714  0.3555  0.0765
  977MOL0     H31833   1.182   2.000   0.051  1.8546  0.8521 -0.7953
  977MOL0     H31834   1.449   1.951   0.193 -0.7203 -0.3100 -0.1436
  977MOL0     H31835   1.406   2.059   0.055  2.4361 -0.6848 -0.3650
  977MOL0     H31836   1.392   1.749   0.045 -2.3127  1.5740  1.6460
  977MOL0     H31837   1.357   1.866  -0.087 -0.1884 -1.9608  0.1271
  977MOL0     H31838   1.559   1.772  -0.147  2.0617  0.7360 -1.1354
  977MOL0     H31839   1.591   1.941  -0.092 -0.3641  0.2621  1.8088
  977MOL0     H31840   1.644   1.872   0.129  1.8681  1.6749  0.1560
  977MOL0     H31841   1.608   1.703   0.084 -0.4331 -0.0112 -1.5084
  977MOL0     H31842   1.851   1.845  -0.024 -2.3563  1.7186 -0.7100
  977MOL0     H31843   1.787   1.692  -0.077  1.1919  1.3977  0.1567
  977MOL0     H31844   1.891   1.752   0.216  0.6848 -0.3300 -0.5439
  977MOL0     H31845   1.815   1.600   0.173 -0.5069 -0.4693 -1.2916
  977MOL0     H31846   1.984   1.439   0.089  0.2729  1.0535 -0.8041
  977MOL0     H31847   2.240   1.324   0.112  3.2978 -2.6974 -2.2316
  977MOL0     H31848   2.281   1.378  -0.058  0.7656  1.6363 -0.3766
  977MOL0     H31849   2.452   1.533   0.032 -2.6041  0.3505 -0.3876
  977MOL0     H31850   2.420   1.478   0.195 -1.1528  0.2455 -0.6570
  977MOL0     H31851   2.523   1.297  -0.029 -1.1062  1.6903 -0.7316
  977MOL0     H31852   2.464   1.251   0.139 -2.3107  0.9434 -0.1685
  977MOL0     H31853   2.656   1.388   0.228 -3.1184 -1.4543 -0.0113
  977MOL0     H31854   2.671   1.459   0.070 -0.6818  0.6153 -1.3361
  977MOL0     H31855   2.920   1.423   0.180  0.4534  1.3952 -3.3921
  977MOL0     H31856   3.153   1.413   0.133  0.9933 -0.4382 -0.4661
  977MOL0     H31857   3.556   1.495   0.166  2.7917  3.8597  0.2134
  977MOL0     H31858   3.764   1.553   0.082  1.3867 -2.3029  0.5524
  977MOL0     H31859   3.791   1.701  -0.153 -0.1433 -0.7899  0.0971
  977MOL0     H31860   3.896   1.677  -0.014 -2.8850 -0.2171  0.6530
  977MOL0     H31861   3.985   1.686  -0.292  1.0782 -1.4449  0.0629
  977MOL0     H31862   4.019   1.807  -0.167 -1.1784  0.3817  0.5778
  977MOL0     H31863   4.145   1.688  -0.022 -0.2994 -0.6400 -0.8254
  977MOL0     H31864   4.136   1.540  -0.129  2.8700 -0.3884 -1.1779
  977MOL0     H31865   4.232   1.802  -0.240 -0.0454  0.4879 -1.6211
  977MOL0     H31866   4.240   1.638  -0.308  2.2252 -1.8690  0.0658
  977MOL0     H31867   4.433   1.687  -0.263 -2.2515 -0.4086 -1.6888
  977MOL0     H31868   4.383   1.556  -0.150 -0.4012 -0.3450  0.1289
  977MOL0     H31869   4.452   1.851  -0.061 -0.5513  0.2213  0.2415
  977MOL0     H31870   4.354   1.736   0.031 -2.0467 -3.5480 -2.3584
  977MOL0     H31871   4.520   1.586   0.046  1.5775 -1.8800 -0.0004
  977MOL0     H31872   4.576   1.741   0.106 -0.1384 -0.2332 -0.0180
  977MOL0     H31873   4.750   1.611  -0.034  1.5851 -0.2722 -2.5984
  977MOL0     H31874   4.640   1.627  -0.174  2.3083  1.7645 -1.0075
  977MOL0     H31875   3.672   1.404  -0.302 -2.4363  2.8293 -0.8597
  977MOL0     H31876   3.469   1.324  -0.235  1.7627 -2.0705  1.0645
  977MOL0     H31877   3.087   1.082  -0.127 -1.6257  0.4702 -0.6257
  977MOL0     H31878   2.840   1.092  -0.063  0.5630 -0.5791  0.2993
  977MOL0     H31879   1.075   1.818   0.475  0.5000 -0.0230 -0.6817
  977MOL0     H31880   0.897   1.740   0.635 -1.7513 -0.2778  0.1076
  977MOL0     H31881   0.636   1.435   0.689 -0.4550 -0.9919  0.1932
  977MOL0     H31882   0.512   1.285   0.814 -2.1328 -0.8724 -5.1598
  977MOL0     H31883   0.083   1.335   0.894  3.2474 -0.6169 -2.1789
  977MOL0     H31884   0.123   1.397   1.052 -0.3882  1.7212  0.1313
  977MOL0     H31885   0.204   1.155   1.093 -2.1005  0.3081  1.9587
  977MOL0     H31886   0.131   1.106   0.944 -1.5210  0.4563  0.0237
  977MOL0     H31887  -0.079   1.138   1.016  1.5208 -1.0813 -0.8423
  977MOL0     H31888  -0.051   1.277   1.120 -0.1356  0.4792 -1.4669
  977MOL0     H31889  -0.012   0.983   1.201 -1.5703  0.0898 -1.0145
  977MOL0     H31890   0.044   1.134   1.291 -0.3891  4.2412 -1.9976
  977MOL0     H31891  -0.375   1.104   1.364 -0.3301 -3.7705  0.0786
  977MOL0     H31892   0.220   1.578   0.921  0.4892 -1.5662  2.3361
  977MOL0     H31893   0.245   1.747   0.660  0.8691 -1.2484 -1.2575
  977MOL0     H31894   0.232   1.792   0.832  1.1069  0.4313  0.8134
  977MOL0     H31895   0.372   1.851   0.736 -1.1034  1.4613  2.2207
  978MOL0     O31896   9.183  10.303   0.641  0.3389  0.0667 -0.0130
  978MOL0     C31897   9.125  10.308   0.537 -0.0209 -0.5480  0.8756
  978MOL0     O31898   9.175  10.333   0.418  0.3141 -0.0485 -0.2876
  978MOL0     C31899   9.304  10.338   0.381  0.3687 -0.1852  0.6687
  978MOL0     C31900   9.404  10.271   0.452 -0.1786  0.0982 -0.5434
  978MOL0     C31901   9.538  10.284   0.399 -0.5243  0.1978 -0.0013
  978MOL0     C31902   9.570  10.345   0.278  0.3947  0.5592  0.1673
  978MOL0     O31903   9.690  10.333   0.232 -0.7020 -0.6057  0.9205
  978MOL0     C31904   9.733  10.399   0.118  0.4361 -0.1985  0.8574
  978MOL0     C31905   9.875  10.354   0.069 -0.8270  1.4983 -0.6002
  978MOL0     C31906   9.930  10.431  -0.057  0.1285  0.2638 -0.5293
  978MOL0     C31907   9.893  10.358  -0.189  1.0526 -0.5207  0.4057
  978MOL0     C31908   9.939  10.435  -0.304  0.0199 -0.0080 -0.0161
  978MOL0     C31909   9.903  10.365  -0.433  0.1192 -0.8858  0.3430
  978MOL0     C31910   9.965  10.439  -0.565  0.0495  0.1161 -0.6965
  978MOL0     C31911  10.122  10.446  -0.578 -0.3060 -0.0450  0.8997
  978MOL0     N31912  10.154  10.492  -0.716  1.0604 -0.1325  0.3860
  978MOL0     C31913  10.277  10.474  -0.773 -0.8171  0.2423  0.1607
  978MOL0     C31914  10.270  10.534  -0.897  0.1945 -0.0460 -0.3564
  978MOL0     C31915  10.371  10.560  -1.002 -0.1370  0.8711 -0.5572
  978MOL0     C31916  10.513  10.567  -0.938  1.2231 -1.1058 -0.1802
  978MOL0     C31917  10.501  10.695  -0.847  0.3325  1.2901  0.3851
  978MOL0     C31918  10.640  10.763  -0.838  0.7947 -0.6887  1.0358
  978MOL0     O31919  10.675  10.813  -0.968  0.2011 -0.8110  0.0320
  978MOL0     C31920  10.798  10.877  -0.959  0.2986  0.0066 -0.4563
  978MOL0     C31921  10.802  11.010  -0.978  0.4157 -0.1874 -0.8239
  978MOL0     C31922  10.918  11.085  -0.990  0.0558  0.7782  0.1806
  978MOL0     C31923  11.045  11.017  -0.992 -0.2821  0.0230 -0.7107
  978MOL0     C31924  11.178  11.083  -0.998 -0.6327  1.0577  0.1380
  978MOL0     O31925  11.289  10.992  -1.022 -0.0340  0.9554 -0.6847
  978MOL0     C31926  11.419  11.044  -1.034 -0.1748 -0.1250  0.3453
  978MOL0     C31927  11.502  10.950  -1.096 -0.0081  0.3345  0.7122
  978MOL0     C31928  11.636  10.970  -1.117 -0.1468  1.0062  0.9563
  978MOL0     C31929  11.688  11.098  -1.089 -0.2081 -0.2288 -0.7151
  978MOL0     O31930  11.811  11.139  -1.130 -0.4251 -0.8034  0.0479
  978MOL0     C31931  11.877  11.055  -1.232  0.6279 -1.2378 -0.4453
  978MOL0     C31932  11.984  11.131  -1.303 -0.2617 -0.4001  0.1176
  978MOL0     C31933  12.078  11.040  -1.372 -0.0515  0.5546 -0.3276
  978MOL0     C31934  12.201  11.116  -1.419 -0.1835 -1.0332 -0.8159
  978MOL0     C31935  12.264  11.036  -1.528  0.3983  0.3835 -0.5543
  978MOL0     C31936  12.403  11.088  -1.573 -0.4602  0.8992 -0.2601
  978MOL0     C31937  12.397  11.200  -1.676  0.4817 -0.2264 -0.4491
  978MOL0     C31938  12.539  11.220  -1.736  0.4196 -0.0302 -1.2760
  978MOL0    Cl31939  12.540  11.118  -1.888  0.2963 -0.1677  0.0364
  978MOL0     C31940  11.613  11.198  -1.023  0.3625  0.1558  0.1141
  978MOL0     C31941  11.471  11.172  -0.998 -0.1075 -0.6632 -0.1452
  978MOL0     O31942  11.189  11.202  -0.999  0.1409 -0.3509 -0.2133
  978MOL0     C31943  11.041  10.878  -0.985  0.6915  0.1614 -0.9058
  978MOL0     C31944  10.921  10.809  -0.966 -0.0004  1.2516  0.8595
  978MOL0     N31945  10.133  10.574  -0.914  0.0816 -0.3585 -0.7793
  978MOL0     N31946  10.073  10.551  -0.805  0.1455 -0.4225  0.3278
  978MOL0     C31947   9.464  10.406   0.210  0.6990 -0.9201 -0.6095
  978MOL0     C31948   9.333  10.395   0.260  0.7493  0.1159  0.1637
  978MOL0     C31949   8.981  10.289   0.543 -0.2356  0.2271  0.6121
  978MOL0     C31950   8.911  10.341   0.646  0.5418  0.0010 -0.4526
  978MOL0     C31951   8.773  10.320   0.660 -1.2948 -0.6572  0.2079
  978MOL0     C31952   8.698  10.261   0.556 -0.3491 -0.3226  0.1256
  978MOL0     O31953   8.562  10.261   0.569 -0.0232 -0.1241  0.4525
  978MOL0     C31954   8.495  10.375   0.504  0.0299 -0.2497 -0.2750
  978MOL0     C31955   8.355  10.343   0.461  0.2806  0.1772 -0.7160
  978MOL0     C31956   8.265  10.289   0.581 -0.5631  0.1381 -0.1266
  978MOL0     C31957   8.119  10.280   0.550  0.5146  0.3988  0.4215
  978MOL0     C31958   8.046  10.398   0.543 -0.4691  0.2438 -0.4654
  978MOL0     C31959   7.975  10.498   0.542  0.4030 -0.0741 -0.1171
  978MOL0     C31960   8.762  10.206   0.450  0.1871  0.1991  0.6397
  978MOL0     C31961   8.905  10.218   0.438  0.0518  0.7636  0.6618
  978MOL0     C31962   8.967  10.153   0.315 -0.4289  0.4725  0.2768
  978MOL0     H31963   9.397  10.230   0.553  0.0694  1.5516  0.0949
  978MOL0     H31964   9.621  10.240   0.455  0.8639  1.0252 -1.3665
  978MOL0     H31965   9.669  10.359   0.039 -2.3986  0.5293  2.6464
  978MOL0     H31966   9.731  10.508   0.132  0.6001 -0.2125  0.9996
  978MOL0     H31967   9.873  10.246   0.055 -1.2657  1.1994  1.4274
  978MOL0     H31968   9.945  10.367   0.152 -0.9455 -2.5146  0.3312
  978MOL0     H31969  10.039  10.427  -0.059  0.2478  2.4984 -0.4074
  978MOL0     H31970   9.902  10.536  -0.058  1.3028  0.6166  0.6118
  978MOL0     H31971   9.923  10.253  -0.190  0.2390 -0.7667  0.7866
  978MOL0     H31972   9.784  10.352  -0.196  1.0332 -2.5445  1.6637
  978MOL0     H31973   9.905  10.538  -0.296  0.4425 -0.0170  3.9005
  978MOL0     H31974  10.048  10.436  -0.296  0.1472  0.9504 -1.4638
  978MOL0     H31975   9.937  10.262  -0.422  0.6629 -0.6878  0.5693
  978MOL0     H31976   9.796  10.375  -0.452  0.3596  2.7847  0.2193
  978MOL0     H31977   9.925  10.540  -0.570  3.2205  1.5599  0.3561
  978MOL0     H31978   9.925  10.385  -0.651  0.8328 -3.1125  0.8071
  978MOL0     H31979  10.163  10.521  -0.510 -0.7885  1.6651 -0.6200
  978MOL0     H31980  10.159  10.344  -0.567  0.0860  0.0600  0.5627
  978MOL0     H31981  10.355  10.419  -0.722 -0.8983 -1.2486 -1.2618
  978MOL0     H31982  10.374  10.467  -1.058  0.3524  0.4125  0.2217
  978MOL0     H31983  10.355  10.651  -1.061  0.8307  0.4409 -1.5056
  978MOL0     H31984  10.555  10.475  -0.896  0.8622 -2.5484 -2.7369
  978MOL0     H31985  10.584  10.592  -1.018 -0.2182  0.3203 -1.0579
  978MOL0     H31986  10.471  10.657  -0.749 -0.7270  0.2347 -0.3177
  978MOL0     H31987  10.423  10.762  -0.887  0.1350 -0.7410 -3.0783
  978MOL0     H31988  10.715  10.692  -0.800 -0.3028 -2.1441  0.5975
  978MOL0     H31989  10.635  10.852  -0.776 -0.6444 -1.7400  2.5156
  978MOL0     H31990  10.703  11.055  -0.980 -0.5732 -2.2584 -2.3445
  978MOL0     H31991  10.903  11.190  -1.014  0.5608  0.2737 -2.7316
  978MOL0     H31992  11.455  10.861  -1.137  1.6142 -0.2143 -0.0251
  978MOL0     H31993  11.699  10.898  -1.169 -0.6385 -0.5832  2.4646
  978MOL0     H31994  11.927  10.974  -1.178  1.6138 -0.4028 -0.0467
  978MOL0     H31995  11.823  11.003  -1.311 -0.5123  0.9478 -1.1998
  978MOL0     H31996  11.942  11.199  -1.378 -2.7925 -2.1747 -0.2123
  978MOL0     H31997  12.037  11.193  -1.230 -0.2223  1.2344 -1.2535
  978MOL0     H31998  12.115  10.957  -1.311 -1.0715  1.8113  2.1229
  978MOL0     H31999  12.024  11.005  -1.460  1.6741 -3.7377  0.0766
  978MOL0     H32000  12.266  11.138  -1.333 -0.1809 -0.0731 -1.0530
  978MOL0     H32001  12.174  11.207  -1.473 -1.3446 -1.5232 -1.0761
  978MOL0     H32002  12.204  11.015  -1.617  0.3567 -4.1643  0.2930
  978MOL0     H32003  12.272  10.933  -1.492  1.1508  0.6728  0.1438
  978MOL0     H32004  12.470  11.115  -1.491 -1.1573 -4.8004  2.6987
  978MOL0     H32005  12.469  11.007  -1.605 -2.4786 -1.3347  0.8962
  978MOL0     H32006  12.376  11.293  -1.622 -0.5964 -1.0225  0.5708
  978MOL0     H32007  12.329  11.180  -1.759  1.6516 -1.8727 -1.0794
  978MOL0     H32008  12.555  11.324  -1.767 -0.3237 -0.2188 -2.3592
  978MOL0     H32009  12.613  11.194  -1.660  0.8303  0.5073 -1.4785
  978MOL0     H32010  11.644  11.302  -1.010 -2.2200  0.9845  0.2453
  978MOL0     H32011  11.406  11.245  -0.949  0.8389 -0.2289  0.4903
  978MOL0     H32012  11.127  10.821  -1.016 -0.0524  1.2343 -5.7195
  978MOL0     H32013  10.924  10.703  -0.987 -1.8504  0.7120  2.9753
  978MOL0     H32014   9.487  10.456   0.117  3.6978  0.7535  0.8677
  978MOL0     H32015   9.249  10.439   0.207 -0.5890 -2.2489  0.1870
  978MOL0     H32016   8.964  10.398   0.722 -2.1600  0.7380  0.9857
  978MOL0     H32017   8.714  10.346   0.747  0.2473  2.3546  0.4950
  978MOL0     H32018   8.550  10.391   0.411  2.2549  3.3203  1.4207
  978MOL0     H32019   8.508  10.464   0.567 -1.2042  0.1287 -0.5433
  978MOL0     H32020   8.371  10.264   0.387  0.8493 -1.4016  0.9993
  978MOL0     H32021   8.314  10.432   0.413  1.0585  1.6304  1.1846
  978MOL0     H32022   8.298  10.347   0.667  4.4900 -3.4621  0.7372
  978MOL0     H32023   8.292  10.187   0.607 -0.4166  0.4276  0.8772
  978MOL0     H32024   8.112  10.231   0.453 -0.7140  0.4380  0.4716
  978MOL0     H32025   8.070  10.219   0.627 -0.7944 -0.0586 -0.7307
  978MOL0     H32026   7.914  10.585   0.545  0.6265  0.0543  2.0538
  978MOL0     H32027   8.702  10.155   0.376 -2.5677  0.1347  2.7553
  978MOL0     H32028   9.063  10.107   0.342 -0.1962  0.6371 -0.2716
  978MOL0     H32029   8.913  10.067   0.274 -0.9043  0.0828  1.6702
  978MOL0     H32030   8.992  10.225   0.237  4.1395 -2.4732 -1.4596
  979MOL0     O32031   0.408   8.295   3.760 -0.7496  0.2235 -0.5432
  979MOL0     C32032   0.452   8.321   3.650  0.1457  0.9883 -0.6162
  979MOL0     O32033   0.401   8.267   3.538  0.3396  0.4191  0.1390
  979MOL0     C32034   0.289   8.178   3.549 -0.7643  0.5475  0.6921
  979MOL0     C32035   0.300   8.035   3.559 -0.2432  0.3969  0.6974
  979MOL0     C32036   0.184   7.960   3.543 -1.1732  0.2676  0.8854
  979MOL0     C32037   0.061   8.015   3.533 -0.4850  0.2268 -0.0154
  979MOL0     O32038  -0.057   7.942   3.536 -0.9075  0.2260 -0.8734
  979MOL0     C32039  -0.045   7.807   3.488  0.4263  0.5105 -0.1210
  979MOL0     C32040  -0.195   7.756   3.444 -0.3317  0.8483  0.7449
  979MOL0     C32041  -0.307   7.780   3.551  0.2350 -1.0613 -0.6873
  979MOL0     C32042  -0.286   7.727   3.699 -0.3485 -0.1379 -0.1829
  979MOL0     C32043  -0.260   7.582   3.720  0.4055 -0.2558  0.3606
  979MOL0     C32044  -0.394   7.503   3.694 -0.4653 -1.0126 -0.2564
  979MOL0     C32045  -0.371   7.361   3.638  0.1661 -0.1163  0.2875
  979MOL0     C32046  -0.500   7.277   3.620  0.1525 -0.1255 -0.5247
  979MOL0     N32047  -0.583   7.334   3.510 -0.3831  1.0279 -0.6893
  979MOL0     C32048  -0.533   7.346   3.385  1.0505  0.1717  0.4193
  979MOL0     C32049  -0.637   7.408   3.325 -0.2551 -0.3570  0.0179
  979MOL0     C32050  -0.649   7.426   3.174  0.0651 -0.0843 -0.3798
  979MOL0     C32051  -0.611   7.308   3.076 -0.0448 -0.1574 -0.6786
  979MOL0     C32052  -0.616   7.340   2.932 -0.6772 -0.2188  0.0922
  979MOL0     C32053  -0.574   7.221   2.835  0.2778  0.0480 -0.5259
  979MOL0     O32054  -0.681   7.123   2.818  0.5452  0.8254  0.3465
  979MOL0     C32055  -0.791   7.154   2.740  0.2701  1.1735  0.6228
  979MOL0     C32056  -0.782   7.174   2.597 -0.5578  0.4567 -0.1085
  979MOL0     C32057  -0.890   7.223   2.519 -1.2638  0.8510 -0.3918
  979MOL0     C32058  -1.015   7.234   2.588 -0.6088 -0.0368 -0.0396
  979MOL0     C32059  -1.144   7.264   2.519  0.8821 -0.0851 -0.2030
  979MOL0     O32060  -1.264   7.269   2.581  0.5233  0.6828 -0.3632
  979MOL0     C32061  -1.382   7.293   2.509 -0.3234 -0.6442  0.4686
  979MOL0     C32062  -1.489   7.360   2.573 -0.1347 -0.4369  0.3601
  979MOL0     C32063  -1.620   7.360   2.515 -1.1782 -0.0683 -0.1757
  979MOL0     C32064  -1.642   7.296   2.392 -0.1907 -0.4272  0.7504
  979MOL0     O32065  -1.762   7.273   2.335  0.0625  0.2516 -0.3245
  979MOL0     C32066  -1.890   7.327   2.383  0.1141 -0.0737  0.5803
  979MOL0     C32067  -2.004   7.264   2.306  0.2321  0.1974 -0.0334
  979MOL0     C32068  -2.006   7.318   2.155  0.1550  0.3871  0.0357
  979MOL0     C32069  -2.013   7.191   2.064 -0.5556  0.7609 -0.8970
  979MOL0     C32070  -2.011   7.213   1.913  0.9700  0.0336 -0.0286
  979MOL0     C32071  -1.879   7.252   1.861 -0.4522 -0.4755  0.3052
  979MOL0     C32072  -1.770   7.136   1.852 -0.1221 -0.7417  0.0776
  979MOL0     C32073  -1.617   7.175   1.863  0.8924 -0.0925  0.2194
  979MOL0    Cl32074  -1.575   7.286   1.727  0.5507 -0.0898 -0.2145
  979MOL0     C32075  -1.531   7.242   2.322  0.0741  0.4122 -0.0959
  979MOL0     C32076  -1.407   7.231   2.384  0.0611 -0.3781 -1.0536
  979MOL0     O32077  -1.124   7.277   2.393  0.0797  0.0618 -0.3772
  979MOL0     C32078  -1.025   7.215   2.729  0.4218  0.2758  0.5891
  979MOL0     C32079  -0.916   7.178   2.804 -0.8004 -0.4165  0.4821
  979MOL0     N32080  -0.737   7.435   3.418  0.3764  0.0802  0.2003
  979MOL0     N32081  -0.708   7.388   3.536 -0.2661  0.0172  1.1024
  979MOL0     C32082   0.051   8.154   3.529 -0.0339  1.1007  0.6104
  979MOL0     C32083   0.161   8.238   3.539  0.6708 -0.4873 -0.1466
  979MOL0     C32084   0.564   8.422   3.630 -0.0307  0.5162  0.3193
  979MOL0     C32085   0.596   8.466   3.499 -0.4587  0.4571  0.4721
  979MOL0     C32086   0.685   8.562   3.480 -0.8341 -1.2563 -0.4806
  979MOL0     C32087   0.769   8.607   3.578  0.9203  0.3221  0.3031
  979MOL0     O32088   0.855   8.712   3.544  0.1025  0.9886 -0.1019
  979MOL0     C32089   0.964   8.730   3.637  0.3514 -0.1488 -0.0683
  979MOL0     C32090   1.075   8.821   3.573  0.4978  0.1760  0.4855
  979MOL0     C32091   1.152   8.746   3.466 -0.1700  0.4678 -0.3065
  979MOL0     C32092   1.285   8.819   3.432  0.1912 -0.0571  0.3957
  979MOL0     C32093   1.352   8.734   3.332 -0.2369  0.0038 -0.5605
  979MOL0     C32094   1.411   8.657   3.259 -0.9122 -0.1414 -0.6993
  979MOL0     C32095   0.735   8.566   3.707  0.2727 -0.9094 -0.3247
  979MOL0     C32096   0.647   8.461   3.736  0.0615  1.2229 -0.2314
  979MOL0     C32097   0.645   8.410   3.881  1.2940  0.1642  0.4150
  979MOL0     H32098   0.398   7.988   3.563  0.0924  1.0831  0.6344
  979MOL0     H32099   0.196   7.852   3.540  0.7467  0.4612 -0.0888
  979MOL0     H32100   0.028   7.801   3.406  0.6590 -0.4174  0.1443
  979MOL0     H32101  -0.017   7.736   3.566 -3.2794 -0.0124  0.8983
  979MOL0     H32102  -0.188   7.648   3.429  0.5754  1.1319 -1.0396
  979MOL0     H32103  -0.218   7.808   3.351 -1.1699 -1.8477 -0.6787
  979MOL0     H32104  -0.407   7.744   3.524 -0.4310 -0.2551  0.5607
  979MOL0     H32105  -0.325   7.888   3.559  0.6515 -1.0915  1.4711
  979MOL0     H32106  -0.214   7.790   3.751  3.2821 -1.9734 -2.5760
  979MOL0     H32107  -0.385   7.748   3.741 -0.0724  1.2685 -0.1819
  979MOL0     H32108  -0.184   7.551   3.647  0.3890 -4.0288  1.7033
  979MOL0     H32109  -0.220   7.578   3.821  5.1347  0.4668 -1.2142
  979MOL0     H32110  -0.442   7.492   3.792 -1.3936 -0.8695 -0.6810
  979MOL0     H32111  -0.453   7.561   3.622  0.3022  0.7581  0.4857
  979MOL0     H32112  -0.310   7.307   3.711  0.6036 -0.4738 -0.3377
  979MOL0     H32113  -0.321   7.360   3.541 -1.5580 -0.5383 -0.6387
  979MOL0     H32114  -0.492   7.170   3.601 -1.3362 -0.3278 -0.1890
  979MOL0     H32115  -0.548   7.280   3.718  2.5753 -0.3242  0.7373
  979MOL0     H32116  -0.445   7.310   3.332  0.2481 -0.9725 -0.1800
  979MOL0     H32117  -0.748   7.456   3.139  0.7778 -0.0016 -2.4513
  979MOL0     H32118  -0.580   7.509   3.155  0.2925 -0.3421 -0.6990
  979MOL0     H32119  -0.506   7.283   3.093  0.2918  0.4685 -1.7438
  979MOL0     H32120  -0.672   7.218   3.092  0.1065  0.0664  1.5937
  979MOL0     H32121  -0.533   7.405   2.903  1.5462 -1.6715  2.8304
  979MOL0     H32122  -0.709   7.384   2.893 -1.3371 -1.5437  0.1172
  979MOL0     H32123  -0.489   7.173   2.885  0.1861  1.9182  1.5832
  979MOL0     H32124  -0.535   7.256   2.739 -0.2536  2.3648  0.0343
  979MOL0     H32125  -0.696   7.138   2.542 -1.5929 -2.3818 -0.0449
  979MOL0     H32126  -0.886   7.217   2.411 -3.7118 -2.0852 -0.4714
  979MOL0     H32127  -1.473   7.410   2.668  0.3229 -0.2822  0.2020
  979MOL0     H32128  -1.708   7.404   2.560 -0.2829  1.6771 -0.0624
  979MOL0     H32129  -1.900   7.299   2.489  1.7813  0.2852  0.8672
  979MOL0     H32130  -1.891   7.436   2.375  3.5033 -0.0463 -1.7457
  979MOL0     H32131  -2.006   7.155   2.317 -0.7832  0.1903 -0.1660
  979MOL0     H32132  -2.100   7.289   2.353  0.1816  0.0146 -0.0367
  979MOL0     H32133  -2.089   7.379   2.120  0.9093  0.2544 -2.1049
  979MOL0     H32134  -1.920   7.382   2.132  0.7948  0.4086  2.1947
  979MOL0     H32135  -2.099   7.133   2.098  0.9106  0.6313  3.0476
  979MOL0     H32136  -1.926   7.127   2.080 -0.6074  0.5293 -1.5209
  979MOL0     H32137  -2.083   7.292   1.891  0.5495 -0.4432 -0.3856
  979MOL0     H32138  -2.046   7.128   1.854 -0.0176 -0.4992  1.2817
  979MOL0     H32139  -1.895   7.285   1.758  3.2095 -0.8189 -0.5017
  979MOL0     H32140  -1.834   7.335   1.917 -0.3779  0.5129 -1.1476
  979MOL0     H32141  -1.795   7.080   1.762 -0.3565 -0.9236  0.2524
  979MOL0     H32142  -1.795   7.061   1.928 -1.7539 -0.6652 -0.3496
  979MOL0     H32143  -1.611   7.222   1.961  0.6147 -0.9279  0.6438
  979MOL0     H32144  -1.549   7.089   1.859 -1.4940 -2.0863  0.2801
  979MOL0     H32145  -1.548   7.203   2.222  2.3567  0.9525 -0.7519
  979MOL0     H32146  -1.336   7.168   2.330 -0.9671  0.7491 -3.9457
  979MOL0     H32147  -1.125   7.223   2.771 -1.1485 -1.1940 -2.4611
  979MOL0     H32148  -0.916   7.163   2.912 -2.9877 -0.9441  0.4392
  979MOL0     H32149  -0.052   8.185   3.515 -0.6280 -0.2620  1.6860
  979MOL0     H32150   0.148   8.346   3.546 -0.8227 -0.7496  1.8204
  979MOL0     H32151   0.548   8.432   3.408  0.4928  0.5647 -0.0865
  979MOL0     H32152   0.699   8.609   3.383  0.3524  0.6687  0.5565
  979MOL0     H32153   1.012   8.635   3.663  1.5382  0.3563 -0.3115
  979MOL0     H32154   0.932   8.778   3.729 -0.8346 -2.0765  0.5824
  979MOL0     H32155   1.153   8.843   3.647  0.4765 -1.7371  1.1253
  979MOL0     H32156   1.037   8.913   3.529 -1.2976 -1.7178 -2.2781
  979MOL0     H32157   1.100   8.739   3.371 -0.6066 -0.6362 -0.0047
  979MOL0     H32158   1.172   8.645   3.504 -3.2858 -0.6085 -1.2452
  979MOL0     H32159   1.270   8.924   3.407 -0.8468  0.2381  2.1145
  979MOL0     H32160   1.351   8.828   3.519  0.0105  5.2279  0.2972
  979MOL0     H32161   1.467   8.585   3.204  1.0171 -0.4276  1.4629
  979MOL0     H32162   0.790   8.607   3.791 -1.3211 -1.3934  1.0152
  979MOL0     H32163   0.730   8.444   3.940  1.7386  1.9976 -1.1666
  979MOL0     H32164   0.553   8.452   3.922  1.4873 -0.4705  1.5367
  979MOL0     H32165   0.634   8.301   3.880 -2.7996  0.3793 -2.0261
  980MOL0     O32166   8.099   8.014   9.035 -0.5318  0.2255 -0.9714
  980MOL0     C32167   8.043   8.008   8.928  0.2728  0.6222  0.5500
  980MOL0     O32168   8.094   7.944   8.813 -0.0548 -0.3520 -0.2781
  980MOL0     C32169   8.217   7.888   8.839 -0.0667  0.0359  0.0689
  980MOL0     C32170   8.338   7.947   8.807 -0.4425  0.3431  0.6706
  980MOL0     C32171   8.466   7.880   8.824  0.7297 -0.6176 -0.0146
  980MOL0     C32172   8.464   7.752   8.871  0.3333  0.8048  0.8511
  980MOL0     O32173   8.573   7.673   8.883  0.3895  0.6439 -0.5441
  980MOL0     C32174   8.700   7.719   8.829 -0.0775 -0.2566  1.0341
  980MOL0     C32175   8.817   7.636   8.873  1.0902 -0.1426  0.6279
  980MOL0     C32176   8.797   7.589   9.016  0.1626  0.1089  0.3970
  980MOL0     C32177   8.929   7.564   9.089  0.2734 -0.0004  0.0515
  980MOL0     C32178   8.916   7.483   9.219 -0.2377  0.3229  0.5502
  980MOL0     C32179   8.811   7.514   9.324  0.8784 -0.4857 -0.4047
  980MOL0     C32180   8.846   7.460   9.459 -0.1963  0.0346 -0.3453
  980MOL0     C32181   8.927   7.549   9.552  0.6849  0.8060  0.6666
  980MOL0     N32182   9.067   7.525   9.545 -0.3759 -0.1803  0.3791
  980MOL0     C32183   9.140   7.446   9.631  0.6061 -1.0952  0.2400
  980MOL0     C32184   9.265   7.448   9.597 -0.5092  0.1090  0.5125
  980MOL0     C32185   9.377   7.415   9.685 -0.5646  0.3381 -0.3777
  980MOL0     C32186   9.495   7.349   9.612  0.1517  0.9944 -0.0278
  980MOL0     C32187   9.600   7.297   9.704 -0.8578  0.8266  0.1504
  980MOL0     C32188   9.687   7.185   9.637 -0.1240 -0.1773 -0.6661
  980MOL0     O32189   9.743   7.230   9.514  0.3608  1.2413  0.0787
  980MOL0     C32190   9.855   7.315   9.505 -0.0062 -0.4416  0.0414
  980MOL0     C32191   9.943   7.351   9.614  0.1280  0.1704  0.1559
  980MOL0     C32192  10.066   7.413   9.581  0.0500 -0.0562  0.4539
  980MOL0     C32193  10.108   7.426   9.449 -0.3242  0.3164  0.6757
  980MOL0     C32194  10.247   7.469   9.425  0.0108 -0.2412 -0.5560
  980MOL0     O32195  10.338   7.481   9.528 -0.4827 -0.0800 -0.0320
  980MOL0     C32196  10.458   7.540   9.506 -0.1858  0.3301 -0.0548
  980MOL0     C32197  10.477   7.674   9.558  0.5847  0.7749 -0.2034
  980MOL0     C32198  10.594   7.741   9.539  0.1085 -0.3773 -0.3102
  980MOL0     C32199  10.701   7.679   9.473 -0.7278  0.0614 -0.3001
  980MOL0     O32200  10.822   7.745   9.452  0.4137  0.2413  0.3794
  980MOL0     C32201  10.946   7.680   9.465 -0.1621  0.5832  0.0320
  980MOL0     C32202  11.009   7.687   9.602  0.2930  0.1553 -0.3945
  980MOL0     C32203  10.916   7.655   9.729 -0.2551 -0.1566  0.2868
  980MOL0     C32204  10.991   7.577   9.839  0.0549 -0.7125  1.0656
  980MOL0     C32205  11.082   7.661   9.916 -0.7623 -0.2718  0.0412
  980MOL0     C32206  11.162   7.586  10.031 -0.0788 -0.1460  0.6122
  980MOL0     C32207  11.285   7.660  10.082  0.0325  0.6552 -0.0002
  980MOL0     C32208  11.273   7.807  10.111 -0.1787  0.5348 -0.1639
  980MOL0    Cl32209  11.161   7.834  10.255  0.3530  0.2526  0.2378
  980MOL0     C32210  10.685   7.550   9.417 -0.2789 -0.9167  0.2235
  980MOL0     C32211  10.563   7.481   9.428  0.3779  0.0902  0.1088
  980MOL0     O32212  10.284   7.476   9.309 -0.1213 -0.1341 -0.0854
  980MOL0     C32213  10.010   7.400   9.351 -0.2217  0.8412 -0.1869
  980MOL0     C32214   9.881   7.346   9.380 -0.1791 -0.5139  0.7751
  980MOL0     N32215   9.272   7.518   9.478 -0.6458  0.3664 -0.5401
  980MOL0     N32216   9.159   7.565   9.448  0.7732 -0.3895 -0.7390
  980MOL0     C32217   8.344   7.695   8.909 -0.0900 -0.0769  0.1727
  980MOL0     C32218   8.221   7.763   8.898  0.6462  0.1581  0.6629
  980MOL0     C32219   7.911   8.080   8.903 -0.4402  0.3449 -0.2330
  980MOL0     C32220   7.862   8.088   8.774 -0.5883  0.2788  0.3012
  980MOL0     C32221   7.751   8.165   8.738 -0.0160  1.0014 -0.7471
  980MOL0     C32222   7.686   8.242   8.835 -0.5249 -0.8854 -0.1767
  980MOL0     O32223   7.574   8.321   8.812  0.3051 -0.0447 -0.5765
  980MOL0     C32224   7.525   8.319   8.682 -0.4665 -0.0774  0.4379
  980MOL0     C32225   7.388   8.392   8.676  0.4145 -0.5058  0.0555
  980MOL0     C32226   7.253   8.316   8.720  0.1423 -0.1280 -0.1970
  980MOL0     C32227   7.130   8.398   8.681 -0.2701 -0.7030  1.1842
  980MOL0     C32228   7.133   8.514   8.771 -0.1557  0.1208  0.2661
  980MOL0     C32229   7.160   8.602   8.853  0.4420  0.0750  0.4531
  980MOL0     C32230   7.747   8.254   8.958  0.6525 -0.5606  0.2543
  980MOL0     C32231   7.855   8.175   8.999 -0.5307 -0.0372 -0.0524
  980MOL0     C32232   7.897   8.183   9.141 -0.4806 -0.7109  0.2019
  980MOL0     H32233   8.346   8.043   8.758  1.4404 -0.5551 -0.9412
  980MOL0     H32234   8.561   7.930   8.814  0.0617  1.1026  1.6886
  980MOL0     H32235   8.695   7.728   8.720 -1.7486 -1.7132  0.9548
  980MOL0     H32236   8.726   7.818   8.868 -1.6963  0.3799  0.5957
  980MOL0     H32237   8.907   7.696   8.858  0.0250  1.2034 -0.7977
  980MOL0     H32238   8.816   7.553   8.802 -3.3631  0.4543 -0.3394
  980MOL0     H32239   8.749   7.492   9.005  0.6316  0.1159 -2.4523
  980MOL0     H32240   8.734   7.655   9.077 -1.0614  1.8576 -2.5310
  980MOL0     H32241   8.995   7.515   9.016  0.5017 -0.3608  0.4906
  980MOL0     H32242   8.969   7.664   9.107 -0.2400  0.4660 -1.3006
  980MOL0     H32243   8.904   7.379   9.190 -3.0492  0.9254 -0.7640
  980MOL0     H32244   9.015   7.493   9.264  0.3120 -0.2745 -0.4922
  980MOL0     H32245   8.804   7.623   9.336  1.6764 -0.4050 -0.6185
  980MOL0     H32246   8.712   7.482   9.290  2.1868 -3.6000 -1.6727
  980MOL0     H32247   8.897   7.363   9.458 -0.0202  0.1336 -1.1035
  980MOL0     H32248   8.751   7.446   9.512 -0.4464  0.6037 -0.6367
  980MOL0     H32249   8.907   7.655   9.530  3.1472  0.8642 -1.7389
  980MOL0     H32250   8.898   7.528   9.655 -1.0725  0.3112  0.1187
  980MOL0     H32251   9.107   7.405   9.726  0.5269 -1.5600  0.0161
  980MOL0     H32252   9.410   7.518   9.705  0.6940  0.4010 -2.4615
  980MOL0     H32253   9.341   7.357   9.770 -1.8557  1.6171 -0.0083
  980MOL0     H32254   9.451   7.264   9.559 -0.8376  1.4225  0.0823
  980MOL0     H32255   9.541   7.412   9.535  0.1432 -0.0949 -0.9480
  980MOL0     H32256   9.553   7.260   9.796  0.6695  1.0204  1.0347
  980MOL0     H32257   9.666   7.380   9.727  2.2216 -0.7005 -2.2811
  980MOL0     H32258   9.623   7.098   9.621 -0.9788  0.0129  1.3925
  980MOL0     H32259   9.762   7.150   9.709 -1.8613 -2.3582  0.2133
  980MOL0     H32260   9.924   7.344   9.720 -0.1071  0.7500  0.1547
  980MOL0     H32261  10.116   7.449   9.671 -0.3937 -3.5698  2.2765
  980MOL0     H32262  10.392   7.722   9.607  1.2749  0.4534  1.3512
  980MOL0     H32263  10.610   7.833   9.594 -0.3467 -0.6119  0.2265
  980MOL0     H32264  10.943   7.572   9.443 -1.0627  0.6872 -0.4403
  980MOL0     H32265  11.018   7.711   9.389  1.8590  0.1206  1.6727
  980MOL0     H32266  11.085   7.608   9.598 -0.0327 -0.1202 -1.6555
  980MOL0     H32267  11.057   7.783   9.622  0.7994 -0.3219  0.7523
  980MOL0     H32268  10.878   7.752   9.761 -1.9052  0.6547 -3.5599
  980MOL0     H32269  10.829   7.599   9.696  0.5646 -1.8191  0.8238
  980MOL0     H32270  11.044   7.493   9.793  0.8454  1.3485 -2.1632
  980MOL0     H32271  10.913   7.537   9.903 -1.7529  0.0698 -0.5500
  980MOL0     H32272  11.025   7.734   9.974  1.3051 -1.0166  3.2453
  980MOL0     H32273  11.153   7.712   9.851 -0.2176 -1.1453 -0.0724
  980MOL0     H32274  11.094   7.565  10.114 -1.6419  0.7264 -0.3917
  980MOL0     H32275  11.195   7.494   9.982 -0.1190  1.0413 -1.7819
  980MOL0     H32276  11.368   7.654  10.010  1.0494  2.5347  0.9457
  980MOL0     H32277  11.311   7.605  10.173  2.3718  3.4548  1.1848
  980MOL0     H32278  11.373   7.840  10.138  1.1343 -2.9644 -0.2928
  980MOL0     H32279  11.232   7.854  10.021 -4.1392 -0.6015  0.8227
  980MOL0     H32280  10.767   7.504   9.363 -1.1824  0.9615 -3.0193
  980MOL0     H32281  10.551   7.378   9.397  0.6968 -0.2335  1.0371
  980MOL0     H32282  10.045   7.410   9.249 -1.4645 -2.7332 -1.0956
  980MOL0     H32283   9.816   7.319   9.297 -0.4922 -1.2634  1.2545
  980MOL0     H32284   8.336   7.601   8.962 -3.0058  0.5785  1.0797
  980MOL0     H32285   8.130   7.718   8.936  0.9911  0.5786  2.0538
  980MOL0     H32286   7.909   8.026   8.698  2.1494  1.3011  1.0295
  980MOL0     H32287   7.721   8.156   8.634  0.3149  0.5548 -0.8081
  980MOL0     H32288   7.514   8.217   8.645  2.5662  0.0172 -1.1057
  980MOL0     H32289   7.589   8.384   8.621 -0.5380  0.2741  0.7394
  980MOL0     H32290   7.369   8.431   8.576  0.2492 -4.1751 -1.4948
  980MOL0     H32291   7.403   8.471   8.751  0.3873  0.6401 -1.1088
  980MOL0     H32292   7.255   8.288   8.826 -2.9903 -0.4642 -0.1356
  980MOL0     H32293   7.241   8.224   8.663 -0.5762  0.1237 -0.4646
  980MOL0     H32294   7.152   8.423   8.577  0.2724  2.2120  1.9236
  980MOL0     H32295   7.033   8.347   8.680  0.6509 -2.5894  2.2279
  980MOL0     H32296   7.180   8.678   8.926 -2.1436  3.1158 -1.7185
  980MOL0     H32297   7.715   8.333   9.026  2.3154 -2.4145  3.4385
  980MOL0     H32298   7.902   8.087   9.194 -3.2202 -0.2075  1.5138
  980MOL0     H32299   7.992   8.232   9.164  0.0279 -2.1991  1.4852
  980MOL0     H32300   7.821   8.241   9.194 -2.9938 -3.8450  0.3153
  981MOL0     O32301   4.395  11.267   7.721  0.5317  0.2462 -0.3138
  981MOL0     C32302   4.360  11.368   7.777  0.1836  0.2449 -0.2731
  981MOL0     O32303   4.425  11.433   7.876  0.9599 -0.0697  0.0325
  981MOL0     C32304   4.548  11.381   7.915 -0.0285 -0.0278  0.9453
  981MOL0     C32305   4.669  11.449   7.881 -0.3618  0.1242  0.0992
  981MOL0     C32306   4.795  11.396   7.911 -0.4621  0.6294  0.0191
  981MOL0     C32307   4.800  11.271   7.970  0.5591  0.1450 -0.4035
  981MOL0     O32308   4.927  11.222   7.998 -0.2749  0.2117 -0.1857
  981MOL0     C32309   4.946  11.083   8.017 -0.4580  0.5643 -0.2613
  981MOL0     C32310   5.090  11.050   7.985  0.3300  0.3101  0.3186
  981MOL0     C32311   5.123  10.991   7.851 -0.1586 -0.4453  0.1560
  981MOL0     C32312   5.271  10.950   7.839 -0.3293  0.2841 -0.5754
  981MOL0     C32313   5.300  10.909   7.695 -0.9167 -0.5482  0.6937
  981MOL0     C32314   5.454  10.869   7.693  1.0944  0.3645 -0.2853
  981MOL0     C32315   5.482  10.784   7.559 -0.6165  0.1115  0.0031
  981MOL0     C32316   5.627  10.756   7.523  0.2150  0.9210 -0.3146
  981MOL0     N32317   5.673  10.629   7.584  0.2015  0.2428  0.1229
  981MOL0     C32318   5.748  10.614   7.702  0.5812 -0.0548  0.6592
  981MOL0     C32319   5.735  10.481   7.733 -1.2307  0.5619 -0.1146
  981MOL0     C32320   5.817  10.408   7.835  0.1005  0.2390 -0.8258
  981MOL0     C32321   5.884  10.481   7.954 -0.0329  0.2826 -0.2606
  981MOL0     C32322   5.792  10.551   8.058  0.7798 -0.3956  0.1647
  981MOL0     C32323   5.872  10.642   8.160 -0.5257  0.1093 -0.4520
  981MOL0     O32324   5.981  10.573   8.228  0.7441 -0.6204 -0.3805
  981MOL0     C32325   6.082  10.651   8.274 -0.5492 -0.4823  0.7842
  981MOL0     C32326   6.198  10.575   8.312  0.6511 -0.5115 -0.4726
  981MOL0     C32327   6.309  10.632   8.377  1.1195  0.1346  0.5442
  981MOL0     C32328   6.317  10.771   8.393  0.3097  0.7888  0.0112
  981MOL0     C32329   6.433  10.825   8.454 -0.6673  0.2752 -0.7557
  981MOL0     O32330   6.521  10.734   8.512  0.3021  0.3177  0.2721
  981MOL0     C32331   6.623  10.768   8.593  0.3276  0.0601 -0.1055
  981MOL0     C32332   6.712  10.866   8.553  0.4081 -0.0311  0.1280
  981MOL0     C32333   6.823  10.890   8.633 -0.1178 -0.1450 -0.0708
  981MOL0     C32334   6.850  10.813   8.740  0.3981  1.5097 -0.8556
  981MOL0     O32335   6.976  10.820   8.805 -0.3756 -0.7842  0.3889
  981MOL0     C32336   7.096  10.880   8.745  0.1072 -0.3225  0.5477
  981MOL0     C32337   7.230  10.860   8.833  0.5817  0.5846 -0.8209
  981MOL0     C32338   7.311  10.732   8.802 -1.2003 -0.0515  0.3022
  981MOL0     C32339   7.227  10.602   8.834  0.1184 -0.3806  0.0907
  981MOL0     C32340   7.296  10.475   8.795 -0.6022 -0.2386 -0.2517
  981MOL0     C32341   7.190  10.362   8.778 -0.5089 -0.5645  0.5553
  981MOL0     C32342   7.260  10.232   8.748  0.7764 -0.6137 -0.5644
  981MOL0     C32343   7.176  10.132   8.671 -0.8640  0.1565 -0.8395
  981MOL0    Cl32344   7.154  10.186   8.495 -0.2144 -0.0354  0.4440
  981MOL0     C32345   6.776  10.698   8.772  0.8673 -0.4115 -0.6104
  981MOL0     C32346   6.653  10.685   8.699 -0.0063 -0.4500  0.0492
  981MOL0     O32347   6.430  10.944   8.479  0.5507  0.0577  0.0452
  981MOL0     C32348   6.205  10.856   8.354  0.6383 -0.5964 -0.1175
  981MOL0     C32349   6.086  10.790   8.295 -0.0388  0.3264 -0.1388
  981MOL0     N32350   5.665  10.425   7.633 -0.2505 -0.4724  0.7956
  981MOL0     N32351   5.630  10.507   7.543 -0.2137  0.4693 -0.0568
  981MOL0     C32352   4.683  11.205   8.022  0.3009 -0.1880 -0.0989
  981MOL0     C32353   4.557  11.257   7.987  0.1828 -1.0409 -0.0449
  981MOL0     C32354   4.220  11.420   7.749  0.9466  0.7759 -1.1812
  981MOL0     C32355   4.186  11.531   7.833 -0.2958 -0.6239  0.0891
  981MOL0     C32356   4.056  11.584   7.821  0.6151  0.3797  0.6203
  981MOL0     C32357   3.957  11.534   7.739  0.2723 -0.0321  0.1047
  981MOL0     O32358   3.840  11.606   7.737 -0.2004  1.1365 -0.0566
  981MOL0     C32359   3.727  11.555   7.666 -0.1006  0.0415  0.1953
  981MOL0     C32360   3.609  11.636   7.708 -0.0500  0.3779  0.0461
  981MOL0     C32361   3.489  11.620   7.619 -0.3442  0.8427 -0.3979
  981MOL0     C32362   3.352  11.654   7.690 -0.3028  0.5957  0.3483
  981MOL0     C32363   3.317  11.800   7.671 -0.2554 -0.2001  0.1640
  981MOL0     C32364   3.287  11.917   7.664 -0.0201 -0.6842 -0.9212
  981MOL0     C32365   3.992  11.424   7.660  0.1701 -0.7059 -0.1127
  981MOL0     C32366   4.119  11.367   7.668  0.0706  0.6334  0.1478
  981MOL0     C32367   4.147  11.277   7.555  0.4300  1.2031  0.7670
  981MOL0     H32368   4.672  11.549   7.837 -0.5507 -0.5200 -1.4455
  981MOL0     H32369   4.894  11.432   7.886  0.4130 -0.6535  1.3953
  981MOL0     H32370   4.927  11.054   8.121  1.6317  1.7997  0.5251
  981MOL0     H32371   4.880  11.031   7.948 -0.8677 -0.5246  0.9011
  981MOL0     H32372   5.124  10.976   8.058 -2.1657  0.7918  2.1025
  981MOL0     H32373   5.147  11.142   8.002 -1.2371  1.1357  1.4275
  981MOL0     H32374   5.097  11.063   7.772 -0.8236 -0.2752  0.5266
  981MOL0     H32375   5.059  10.904   7.835 -2.4232  1.1430  0.1807
  981MOL0     H32376   5.340  11.029   7.871 -1.9488  0.9961  1.4584
  981MOL0     H32377   5.278  10.872   7.915  0.3728  1.1520  0.2843
  981MOL0     H32378   5.231  10.834   7.656  0.7263 -2.9543  2.1178
  981MOL0     H32379   5.296  10.988   7.620  2.8208 -0.6646  0.1657
  981MOL0     H32380   5.509  10.963   7.703 -2.6170  2.6048  1.2400
  981MOL0     H32381   5.480  10.804   7.778  0.9448  0.4457 -0.1777
  981MOL0     H32382   5.445  10.835   7.469 -2.1978  0.3028  0.7260
  981MOL0     H32383   5.415  10.697   7.555 -0.1170 -0.3650  1.4014
  981MOL0     H32384   5.634  10.751   7.414  2.4746  2.9719 -0.3472
  981MOL0     H32385   5.699  10.833   7.554  1.9569 -0.2981 -1.1542
  981MOL0     H32386   5.811  10.691   7.745 -0.8319  2.0552 -0.8033
  981MOL0     H32387   5.751  10.332   7.878  2.6727 -1.1054  1.0889
  981MOL0     H32388   5.899  10.362   7.778  1.1663  0.4826  0.4503
  981MOL0     H32389   5.967  10.431   8.004  1.7642  2.4790 -0.8583
  981MOL0     H32390   5.933  10.561   7.897 -1.1470 -0.9393 -3.1031
  981MOL0     H32391   5.740  10.470   8.110 -2.6317 -0.8284 -3.4779
  981MOL0     H32392   5.723  10.614   8.002  1.0044  1.0930  1.4889
  981MOL0     H32393   5.799  10.673   8.235 -0.9231 -2.3573  0.2750
  981MOL0     H32394   5.912  10.729   8.108  1.1755  1.4787  2.8449
  981MOL0     H32395   6.189  10.472   8.278 -1.8671 -0.0231 -1.4561
  981MOL0     H32396   6.382  10.553   8.390 -1.7039 -2.7692  0.3264
  981MOL0     H32397   6.697  10.922   8.462  0.7728  0.1943  0.2054
  981MOL0     H32398   6.892  10.964   8.595  1.4649 -0.4214  2.0689
  981MOL0     H32399   7.112  10.840   8.645 -2.3538 -1.0942  0.3914
  981MOL0     H32400   7.082  10.987   8.724  2.1627 -0.9452 -6.6193
  981MOL0     H32401   7.289  10.952   8.821 -1.7131  2.2768 -0.0130
  981MOL0     H32402   7.207  10.856   8.940  2.7062 -0.3149 -0.3465
  981MOL0     H32403   7.342  10.728   8.697 -1.7588  0.3102  0.1184
  981MOL0     H32404   7.401  10.725   8.864  0.0480 -2.6077 -1.6171
  981MOL0     H32405   7.125  10.609   8.795 -0.1548  0.1256  0.8660
  981MOL0     H32406   7.219  10.601   8.944 -3.6765  0.1877 -0.0378
  981MOL0     H32407   7.368  10.437   8.868  2.3054  0.6069 -2.5148
  981MOL0     H32408   7.358  10.487   8.706 -0.2679  2.7510  0.2797
  981MOL0     H32409   7.123  10.350   8.864  0.0041 -0.2291  1.0073
  981MOL0     H32410   7.136  10.390   8.686 -0.5317 -4.2505 -0.7209
  981MOL0     H32411   7.285  10.187   8.845  2.1422  1.6661  0.2243
  981MOL0     H32412   7.355  10.241   8.695  1.6577 -1.2949  0.8257
  981MOL0     H32413   7.219  10.031   8.668 -0.7631  0.2127 -1.7750
  981MOL0     H32414   7.077  10.123   8.717 -0.8014  2.3921 -0.1521
  981MOL0     H32415   6.815  10.646   8.859  1.1281  2.5498  1.2107
  981MOL0     H32416   6.584  10.611   8.738  1.5420 -0.4920  3.0021
  981MOL0     H32417   6.204  10.963   8.367 -0.9543 -0.2053 -2.6484
  981MOL0     H32418   5.996  10.847   8.273 -2.3833 -2.7981  0.7156
  981MOL0     H32419   4.689  11.113   8.079  0.8603  1.0630  1.9413
  981MOL0     H32420   4.467  11.212   8.028 -0.9904  0.0048 -1.3768
  981MOL0     H32421   4.240  11.580   7.913 -1.5935 -0.4621  0.8938
  981MOL0     H32422   4.033  11.681   7.864 -0.6847  0.9467 -1.2362
  981MOL0     H32423   3.715  11.450   7.693 -1.1140 -0.1858 -1.0016
  981MOL0     H32424   3.742  11.566   7.558 -0.1886 -1.5244 -0.0121
  981MOL0     H32425   3.654  11.735   7.695  1.0353 -0.2463 -1.1281
  981MOL0     H32426   3.577  11.623   7.812 -1.5858 -1.8535 -0.6332
  981MOL0     H32427   3.481  11.514   7.591  1.2058  0.9423 -1.3813
  981MOL0     H32428   3.504  11.670   7.523 -0.9069  0.4433 -0.6965
  981MOL0     H32429   3.273  11.596   7.640 -1.0579  0.6760  1.4347
  981MOL0     H32430   3.367  11.634   7.796  0.7847  3.1596  0.7290
  981MOL0     H32431   3.273  12.022   7.651 -0.1591 -1.0046 -4.5720
  981MOL0     H32432   3.909  11.377   7.609  0.1345 -0.5144 -0.2282
  981MOL0     H32433   4.252  11.281   7.526  0.4416 -1.0407  0.3192
  981MOL0     H32434   4.117  11.173   7.567  2.9697 -0.1173 -2.8136
  981MOL0     H32435   4.105  11.312   7.461  1.4966  0.8017  0.1273
  982MOL0     O32436   7.777   5.697   5.075 -0.1730 -0.3162 -0.3091
  982MOL0     C32437   7.815   5.799   5.021  0.1012 -0.0893  0.4208
  982MOL0     O32438   7.949   5.832   5.005  0.5826 -0.2765  0.2292
  982MOL0     C32439   8.038   5.728   4.988  0.1457  0.2358 -0.7388
  982MOL0     C32440   8.021   5.638   4.886 -0.1708 -0.0842 -0.5036
  982MOL0     C32441   8.113   5.536   4.874  0.0285  0.1677  1.1608
  982MOL0     C32442   8.230   5.522   4.964  0.4192  0.3790 -0.0252
  982MOL0     O32443   8.314   5.415   4.945  0.0794  1.0240 -0.0614
  982MOL0     C32444   8.364   5.345   5.064  0.6359 -0.6219  0.3563
  982MOL0     C32445   8.442   5.229   5.013  0.2945 -0.1223 -0.2288
  982MOL0     C32446   8.566   5.268   4.927  0.0463  0.2459  0.3452
  982MOL0     C32447   8.665   5.369   4.988  0.3972 -0.3368 -0.4732
  982MOL0     C32448   8.709   5.338   5.131 -0.4433  0.2489  0.5788
  982MOL0     C32449   8.802   5.221   5.135  0.0863  0.1527  0.2568
  982MOL0     C32450   8.878   5.227   5.270  0.7422 -0.0462 -0.1091
  982MOL0     C32451   8.980   5.116   5.282  0.2233  0.1570  0.7714
  982MOL0     N32452   9.052   5.118   5.413 -0.4884  0.1905  0.2159
  982MOL0     C32453   9.194   5.130   5.434 -0.8840 -0.3575  0.0611
  982MOL0     C32454   9.212   5.140   5.565  0.7940 -0.2604 -0.0233
  982MOL0     C32455   9.348   5.164   5.634  0.9709 -0.3878 -0.3549
  982MOL0     C32456   9.344   5.130   5.788 -0.2553 -0.3089 -0.8687
  982MOL0     C32457   9.474   5.171   5.855  0.3097 -0.2905  0.8233
  982MOL0     C32458   9.501   5.319   5.866 -0.5008  0.0356 -0.5913
  982MOL0     O32459   9.633   5.354   5.914 -0.3932  0.0412  0.0122
  982MOL0     C32460   9.743   5.337   5.832  0.4396 -0.4475 -0.3138
  982MOL0     C32461   9.861   5.378   5.890 -0.4781 -0.6411 -0.2995
  982MOL0     C32462   9.977   5.376   5.817 -0.6850 -0.2240  0.1672
  982MOL0     C32463   9.986   5.330   5.688  0.1567  0.1233  0.3669
  982MOL0     C32464  10.120   5.330   5.613  0.2848 -0.2801  0.0974
  982MOL0     O32465  10.112   5.287   5.483  0.8503 -0.1345 -0.1645
  982MOL0     C32466  10.229   5.298   5.415 -0.0951  0.3111 -0.1575
  982MOL0     C32467  10.294   5.187   5.358  0.3406 -0.3654 -0.0942
  982MOL0     C32468  10.412   5.206   5.281  0.4365  0.0746 -0.0271
  982MOL0     C32469  10.471   5.331   5.269 -0.6366 -0.1405 -0.0783
  982MOL0     O32470  10.592   5.321   5.197  0.0003 -0.9175 -0.4583
  982MOL0     C32471  10.696   5.405   5.256  0.0597  0.3186  0.1098
  982MOL0     C32472  10.792   5.429   5.145 -0.0131 -0.2579  0.2523
  982MOL0     C32473  10.923   5.498   5.203 -0.3525 -0.4830  0.7006
  982MOL0     C32474  10.900   5.655   5.205  1.0205  0.9983  0.2773
  982MOL0     C32475  11.038   5.729   5.225  0.3197 -0.2574 -0.2942
  982MOL0     C32476  11.031   5.876   5.179  0.7735 -0.3066 -0.9869
  982MOL0     C32477  10.908   5.951   5.229  0.2206  0.8505  0.4253
  982MOL0     C32478  10.909   6.093   5.185  0.0311  0.9275  0.2874
  982MOL0    Cl32479  11.026   6.186   5.291 -0.3478 -0.0405  0.2103
  982MOL0     C32480  10.410   5.436   5.325  0.5642 -0.6517  0.7984
  982MOL0     C32481  10.290   5.421   5.386  0.1396  0.7561 -0.6668
  982MOL0     O32482  10.219   5.368   5.669 -0.4302  0.4118 -0.2464
  982MOL0     C32483   9.870   5.280   5.632  0.7229 -0.3172 -0.4887
  982MOL0     C32484   9.742   5.282   5.699 -0.3169 -0.6202  0.1981
  982MOL0     N32485   9.092   5.108   5.625  0.8788 -0.2261 -0.5663
  982MOL0     N32486   8.999   5.092   5.535 -0.4700 -0.1275 -0.5458
  982MOL0     C32487   8.246   5.612   5.063 -0.1125 -0.0195  0.2319
  982MOL0     C32488   8.153   5.728   5.073  0.4998  0.0140  0.5203
  982MOL0     C32489   7.708   5.901   4.991 -0.0541  0.1671  0.4162
  982MOL0     C32490   7.749   6.031   4.973  0.0006  0.6367 -0.6897
  982MOL0     C32491   7.664   6.129   4.919 -0.5118  0.0434  0.2371
  982MOL0     C32492   7.533   6.097   4.881  0.9083  0.3732  0.0185
  982MOL0     O32493   7.444   6.194   4.844  0.7913  0.7323 -0.1913
  982MOL0     C32494   7.335   6.154   4.762  0.2047  0.7657 -0.4774
  982MOL0     C32495   7.269   6.264   4.688 -0.2660  0.1012 -1.3209
  982MOL0     C32496   7.160   6.335   4.772 -0.6766  0.8587  0.2654
  982MOL0     C32497   7.040   6.253   4.801 -0.4802 -0.5446  0.0530
  982MOL0     C32498   6.909   6.331   4.806  0.0819 -0.4107  0.1542
  982MOL0     C32499   6.803   6.391   4.812  1.5903  0.4430 -0.0384
  982MOL0     C32500   7.492   5.962   4.902 -0.4650  0.0512  1.2238
  982MOL0     C32501   7.578   5.859   4.940  0.0825  0.4477 -0.4026
  982MOL0     C32502   7.528   5.715   4.942  0.3044 -0.4530  0.2754
  982MOL0     H32503   7.926   5.647   4.833 -1.7909 -0.1060  2.2343
  982MOL0     H32504   8.094   5.457   4.802  0.1968  0.7155  0.5078
  982MOL0     H32505   8.427   5.415   5.120 -1.2465  0.3510  1.3255
  982MOL0     H32506   8.278   5.316   5.125 -0.1768 -3.1719 -1.8260
  982MOL0     H32507   8.376   5.166   4.953  0.9348 -0.2349 -0.8149
  982MOL0     H32508   8.452   5.171   5.106 -2.3587  0.5451  0.5652
  982MOL0     H32509   8.518   5.307   4.837 -0.1275 -0.4547  0.1264
  982MOL0     H32510   8.623   5.178   4.902 -0.2019 -0.9366  3.5949
  982MOL0     H32511   8.754   5.377   4.925 -0.6186  1.5769 -1.7610
  982MOL0     H32512   8.612   5.463   4.999 -1.6478 -1.6713  2.3383
  982MOL0     H32513   8.768   5.423   5.167  2.3521 -1.9423  1.5484
  982MOL0     H32514   8.621   5.325   5.194  0.7552 -0.6916  2.1235
  982MOL0     H32515   8.757   5.122   5.126 -0.8595  0.6809 -1.1072
  982MOL0     H32516   8.869   5.236   5.049  0.0120 -2.1081 -0.2621
  982MOL0     H32517   8.802   5.214   5.348  2.0598 -0.9715  1.0635
  982MOL0     H32518   8.923   5.325   5.286  0.5088  0.1529 -0.6469
  982MOL0     H32519   8.924   5.022   5.280 -0.6327  0.6427  1.3087
  982MOL0     H32520   9.054   5.114   5.202  0.2857  2.3148  0.7305
  982MOL0     H32521   9.261   5.150   5.351 -0.6051  0.7600  0.5414
  982MOL0     H32522   9.427   5.107   5.584  1.8769  0.0092  0.5764
  982MOL0     H32523   9.366   5.271   5.624  0.0606  0.0007  1.6348
  982MOL0     H32524   9.269   5.193   5.836  1.6905  0.7501  0.9561
  982MOL0     H32525   9.328   5.023   5.803 -0.8606  0.0133  0.9999
  982MOL0     H32526   9.548   5.114   5.798 -0.5329 -1.4595  0.8687
  982MOL0     H32527   9.474   5.139   5.960  2.2328  0.6402  1.1480
  982MOL0     H32528   9.431   5.369   5.934 -1.6921 -2.1216 -0.1306
  982MOL0     H32529   9.484   5.359   5.765  0.1990 -0.9415 -1.1128
  982MOL0     H32530   9.865   5.416   5.992 -0.2179  1.1575 -0.9582
  982MOL0     H32531  10.062   5.424   5.864 -0.9749  0.1705  0.2903
  982MOL0     H32532  10.255   5.086   5.371  0.7649 -0.1782  3.9055
  982MOL0     H32533  10.459   5.118   5.237 -1.5440  0.4210 -3.1852
  982MOL0     H32534  10.653   5.492   5.306 -1.0393  0.4986 -1.0824
  982MOL0     H32535  10.756   5.344   5.324  1.7035  0.7537 -0.8878
  982MOL0     H32536  10.826   5.335   5.100  3.4518  1.2134 -0.5730
  982MOL0     H32537  10.745   5.494   5.071 -0.9855  2.6483  3.2108
  982MOL0     H32538  10.961   5.480   5.304 -1.5925  2.8497  1.9240
  982MOL0     H32539  11.006   5.476   5.135 -0.3619 -1.2737  0.9378
  982MOL0     H32540  10.830   5.696   5.279  0.2969  1.6920 -0.7514
  982MOL0     H32541  10.871   5.681   5.102  0.3737  4.5873  1.2108
  982MOL0     H32542  11.114   5.675   5.168 -1.7016 -2.8072 -0.7306
  982MOL0     H32543  11.060   5.724   5.332 -1.0896 -2.6104 -0.0554
  982MOL0     H32544  11.125   5.924   5.209  0.1094  0.4894 -0.1144
  982MOL0     H32545  11.038   5.882   5.070  2.2521 -2.6009 -1.0913
  982MOL0     H32546  10.907   5.953   5.338 -0.5213  4.0850  0.4733
  982MOL0     H32547  10.812   5.908   5.199  0.8358 -0.6590  0.5481
  982MOL0     H32548  10.949   6.106   5.084 -2.7622 -0.7122 -1.1500
  982MOL0     H32549  10.813   6.144   5.193  0.3360  1.4012  1.0468
  982MOL0     H32550  10.444   5.536   5.351 -1.8975 -0.1394  2.3893
  982MOL0     H32551  10.240   5.502   5.439  2.5646  0.7997  1.8012
  982MOL0     H32552   9.863   5.261   5.525 -1.9490 -0.1587 -0.4027
  982MOL0     H32553   9.650   5.246   5.654 -0.5537  1.5675 -1.2174
  982MOL0     H32554   8.306   5.590   5.151 -1.1410 -0.7988  0.7601
  982MOL0     H32555   8.169   5.811   5.141 -1.2563  0.2754  0.6534
  982MOL0     H32556   7.849   6.057   5.007  0.9308 -1.1782 -1.8860
  982MOL0     H32557   7.700   6.229   4.897 -0.5769 -0.2307 -1.2039
  982MOL0     H32558   7.259   6.102   4.822 -0.3591  3.1767  1.0701
  982MOL0     H32559   7.378   6.087   4.687 -0.4082 -0.4666  0.2250
  982MOL0     H32560   7.228   6.224   4.595  1.0355 -1.0179 -1.4569
  982MOL0     H32561   7.344   6.338   4.659  1.1676 -1.8116 -2.7470
  982MOL0     H32562   7.136   6.427   4.718  0.7063  1.9430  1.4297
  982MOL0     H32563   7.202   6.377   4.864 -0.4466  0.9072  0.1397
  982MOL0     H32564   7.034   6.179   4.721  0.4417 -0.1093 -0.4396
  982MOL0     H32565   7.058   6.199   4.894  1.7889  1.6535  0.9871
  982MOL0     H32566   6.708   6.438   4.808 -0.5915 -3.4942  0.2924
  982MOL0     H32567   7.389   5.935   4.881 -0.5898 -0.2278  2.1077
  982MOL0     H32568   7.605   5.645   4.906  0.8098  0.3211 -0.1711
  982MOL0     H32569   7.502   5.692   5.046 -0.6800 -0.8398 -0.0392
  982MOL0     H32570   7.431   5.712   4.890 -0.2602 -3.4051  1.2752
  983MOL0     O32571   4.632   9.920  10.737 -0.1739  0.6345 -0.9029
  983MOL0     C32572   4.612   9.879  10.852 -0.3728  0.4472 -0.8717
  983MOL0     O32573   4.688   9.779  10.908  0.7799  0.3353 -0.0256
  983MOL0     C32574   4.757   9.708  10.807 -0.0117  0.4520 -0.8301
  983MOL0     C32575   4.698   9.607  10.731  0.6537  0.5373  0.4891
  983MOL0     C32576   4.765   9.529  10.636  0.8130 -0.4684  0.2530
  983MOL0     C32577   4.896   9.561  10.599  0.5615 -0.2062 -0.0443
  983MOL0     O32578   4.947   9.482  10.501 -0.0854 -0.4543  0.7758
  983MOL0     C32579   5.037   9.551  10.411  1.0824  0.7919  0.1306
  983MOL0     C32580   5.045   9.477  10.276  0.0969  0.9940  0.2117
  983MOL0     C32581   5.150   9.542  10.179 -0.0724  0.2789 -0.9168
  983MOL0     C32582   5.077   9.655  10.104 -0.5944 -0.0484 -0.5829
  983MOL0     C32583   5.176   9.759  10.040 -0.7451  0.4869 -0.1268
  983MOL0     C32584   5.284   9.690   9.948 -0.3171  0.3477  0.3285
  983MOL0     C32585   5.233   9.583   9.845  0.2096  0.5148 -0.0699
  983MOL0     C32586   5.351   9.516   9.769 -0.1860 -0.6670  1.1442
  983MOL0     N32587   5.315   9.427   9.659 -0.5707  0.4440  1.1395
  983MOL0     C32588   5.218   9.334   9.664 -0.3069  0.0842  0.4460
  983MOL0     C32589   5.178   9.310   9.530  1.2251 -0.7577 -0.3111
  983MOL0     C32590   5.069   9.217   9.468  0.4041 -0.8193 -0.5871
  983MOL0     C32591   5.114   9.072   9.484 -0.0491  0.2848  0.4644
  983MOL0     C32592   5.026   8.973   9.408 -0.0804 -0.2599  0.1862
  983MOL0     C32593   4.870   8.991   9.389  0.4539  0.1463 -0.2824
  983MOL0     O32594   4.813   8.996   9.519 -0.1500 -0.0028  0.0132
  983MOL0     C32595   4.714   9.090   9.527  0.0456 -0.5568 -0.5143
  983MOL0     C32596   4.597   9.061   9.454  0.4102 -0.2798 -0.5052
  983MOL0     C32597   4.477   9.131   9.487 -0.1793  1.2727  0.4745
  983MOL0     C32598   4.470   9.233   9.583  0.7903  0.1088  0.1234
  983MOL0     C32599   4.357   9.326   9.606  1.3170  0.0584 -0.0375
  983MOL0     O32600   4.250   9.308   9.524 -0.1400  0.6882  0.4627
  983MOL0     C32601   4.155   9.408   9.516  0.6013 -0.2098  0.0712
  983MOL0     C32602   4.022   9.361   9.508 -0.0757 -0.2126 -0.4084
  983MOL0     C32603   3.914   9.452   9.499 -0.1000  0.1012  0.1505
  983MOL0     C32604   3.946   9.592   9.496 -0.3530 -0.5176  0.4316
  983MOL0     O32605   3.855   9.687   9.503  0.4471  0.0848  0.3368
  983MOL0     C32606   3.720   9.653   9.539 -0.8138 -0.5999 -0.0808
  983MOL0     C32607   3.637   9.632   9.415 -0.2601  0.8748 -0.3772
  983MOL0     C32608   3.491   9.593   9.447 -0.2609 -0.4570 -0.1801
  983MOL0     C32609   3.399   9.566   9.329  0.9781 -0.1085 -0.4134
  983MOL0     C32610   3.258   9.536   9.387  0.6684  0.5298  0.3188
  983MOL0     C32611   3.170   9.509   9.263  0.0837 -0.2083  0.3735
  983MOL0     C32612   3.021   9.504   9.300 -0.4839 -0.2295 -0.6849
  983MOL0     C32613   2.943   9.433   9.189 -0.0433 -0.1752 -0.8329
  983MOL0    Cl32614   2.870   9.553   9.084 -0.0755  0.0323  0.0011
  983MOL0     C32615   4.077   9.640   9.497 -0.2432  0.0452  0.7348
  983MOL0     C32616   4.180   9.543   9.508 -0.1059 -0.2003 -0.3294
  983MOL0     O32617   4.362   9.408   9.704 -0.3351  0.0158  0.5920
  983MOL0     C32618   4.590   9.249   9.656 -0.2325 -0.0193  0.1323
  983MOL0     C32619   4.710   9.179   9.637  0.0388  0.4670  0.5317
  983MOL0     N32620   5.255   9.395   9.452 -0.1394 -0.0363  1.3735
  983MOL0     N32621   5.334   9.458   9.526  0.0601 -0.0949 -0.1624
  983MOL0     C32622   4.954   9.673  10.658  0.1703 -0.2928 -1.3334
  983MOL0     C32623   4.886   9.739  10.762  0.3174  0.0335  1.0890
  983MOL0     C32624   4.501   9.941  10.938 -0.4542 -0.2181  0.5041
  983MOL0     C32625   4.479   9.879  11.059 -0.3594  0.2313  0.5588
  983MOL0     C32626   4.369   9.915  11.133 -0.0555 -0.2545 -0.6938
  983MOL0     C32627   4.281  10.030  11.095  1.4041 -0.2198  0.3618
  983MOL0     O32628   4.166  10.062  11.158  0.2320  0.7339  0.6348
  983MOL0     C32629   4.169  10.041  11.304  0.4123 -0.4293  1.0078
  983MOL0     C32630   4.048  10.099  11.367  0.2078  0.2250  0.3846
  983MOL0     C32631   4.042  10.250  11.343  0.2105  0.0111 -0.0216
  983MOL0     C32632   3.902  10.296  11.357 -0.4192 -0.5424 -1.4203
  983MOL0     C32633   3.856  10.279  11.495  0.5993 -0.3761 -0.8170
  983MOL0     C32634   3.803  10.252  11.598  0.1027  0.0738  0.5055
  983MOL0     C32635   4.307  10.092  10.970 -0.7096  0.2949 -1.0474
  983MOL0     C32636   4.418  10.052  10.900  0.9699 -0.2227  1.1005
  983MOL0     C32637   4.448  10.139  10.779 -0.5793  0.5676 -0.1177
  983MOL0     H32638   4.598   9.572  10.755  1.5749 -1.2306  2.0284
  983MOL0     H32639   4.720   9.444  10.585 -1.3454  2.1957 -2.6118
  983MOL0     H32640   4.994   9.650  10.394 -2.1555 -0.8737 -2.7372
  983MOL0     H32641   5.133   9.559  10.462  0.9285  5.6668  0.1522
  983MOL0     H32642   4.950   9.464  10.223  1.9335 -2.2233 -2.7479
  983MOL0     H32643   5.085   9.381  10.312  4.2557  3.2421  2.3694
  983MOL0     H32644   5.179   9.461  10.112  1.5709  0.0418  0.0313
  983MOL0     H32645   5.232   9.584  10.238  0.4710  0.6385 -1.9146
  983MOL0     H32646   5.011   9.610  10.030 -0.6813 -0.2291 -0.3951
  983MOL0     H32647   5.013   9.705  10.177 -2.0014 -2.4558 -0.0470
  983MOL0     H32648   5.117   9.827   9.979  0.4916  1.5410 -0.2043
  983MOL0     H32649   5.230   9.813  10.118  1.7945 -1.0356 -0.6852
  983MOL0     H32650   5.339   9.761   9.886 -0.0678  0.8079  1.0659
  983MOL0     H32651   5.355   9.640  10.016  1.4743 -0.7320 -2.1671
  983MOL0     H32652   5.170   9.636   9.772  0.7551  0.4827 -0.5738
  983MOL0     H32653   5.173   9.508   9.896  1.5530  0.9504  2.2845
  983MOL0     H32654   5.418   9.586   9.718 -0.1799  0.2856  2.4073
  983MOL0     H32655   5.411   9.461   9.843 -1.7327 -0.6334  2.4653
  983MOL0     H32656   5.176   9.299   9.758  1.0851  1.7595  1.7624
  983MOL0     H32657   4.968   9.241   9.501 -0.7911 -0.2607 -4.1428
  983MOL0     H32658   5.072   9.243   9.362 -0.6819 -1.2578 -0.7396
  983MOL0     H32659   5.218   9.052   9.459 -0.2182 -0.7996  0.5566
  983MOL0     H32660   5.095   9.043   9.588  0.7718 -3.6890 -0.3182
  983MOL0     H32661   5.044   8.876   9.457  2.9169  0.9309  1.7060
  983MOL0     H32662   5.069   8.969   9.308  2.1687 -0.0922  1.0994
  983MOL0     H32663   4.838   8.909   9.324  1.5910 -0.1013 -0.5519
  983MOL0     H32664   4.857   9.089   9.342  2.5866  0.8427  0.4292
  983MOL0     H32665   4.603   8.983   9.379 -1.0144 -1.1953  0.2915
  983MOL0     H32666   4.395   9.120   9.416  0.9563  3.2212 -1.2749
  983MOL0     H32667   4.008   9.253   9.509 -1.0652 -0.1611  2.5864
  983MOL0     H32668   3.814   9.409   9.503  0.6423 -1.6998  0.6329
  983MOL0     H32669   3.722   9.558   9.594  0.0227 -2.0343 -2.4321
  983MOL0     H32670   3.670   9.733   9.594  1.9690  0.3536  1.2088
  983MOL0     H32671   3.635   9.725   9.357  3.2421  1.1382 -0.2522
  983MOL0     H32672   3.680   9.552   9.354  1.6496  1.0432  0.6815
  983MOL0     H32673   3.495   9.515   9.524  0.1163 -0.3518 -0.0893
  983MOL0     H32674   3.447   9.683   9.490  0.0047  0.8533 -2.4999
  983MOL0     H32675   3.435   9.484   9.266 -0.4342 -1.3626  0.3392
  983MOL0     H32676   3.395   9.658   9.272  1.9043  0.0032 -0.3076
  983MOL0     H32677   3.214   9.621   9.439  0.0853  0.1982  0.3750
  983MOL0     H32678   3.265   9.451   9.456 -0.4591 -0.2688 -0.4994
  983MOL0     H32679   3.180   9.594   9.194 -2.1427  0.5575  0.9120
  983MOL0     H32680   3.208   9.422   9.209  3.2544  1.7205 -0.7502
  983MOL0     H32681   2.983   9.599   9.339 -0.7447 -0.6297  0.0405
  983MOL0     H32682   3.017   9.431   9.380  0.6050  0.1245 -0.2814
  983MOL0     H32683   2.989   9.345   9.142  0.2569 -2.1388  2.7508
  983MOL0     H32684   2.866   9.384   9.249  1.0965 -3.5119 -1.8608
  983MOL0     H32685   4.100   9.746   9.494  2.6121 -0.5111 -0.3281
  983MOL0     H32686   4.283   9.575   9.519 -0.3398  1.3984 -2.2151
  983MOL0     H32687   4.591   9.326   9.733 -1.2602  1.6984 -1.4734
  983MOL0     H32688   4.803   9.196   9.691 -0.8223 -2.6861  3.4081
  983MOL0     H32689   5.044   9.721  10.621 -1.2130 -0.2168 -4.9582
  983MOL0     H32690   4.935   9.823  10.810  2.1794 -1.9968  2.9811
  983MOL0     H32691   4.541   9.799  11.098 -1.6643 -0.4490  1.2756
  983MOL0     H32692   4.350   9.856  11.222 -2.0476 -0.5799 -1.2795
  983MOL0     H32693   4.261  10.072  11.355  0.7573  1.1704 -0.4902
  983MOL0     H32694   4.157   9.937  11.333 -3.0981 -0.4665 -0.0875
  983MOL0     H32695   4.064  10.075  11.473  0.3799  0.7002  0.4661
  983MOL0     H32696   3.961  10.044  11.330 -0.2631  1.0776  0.1963
  983MOL0     H32697   4.077  10.264  11.240 -1.0890  1.3730 -0.3141
  983MOL0     H32698   4.099  10.290  11.427 -0.2747 -2.5716  1.6618
  983MOL0     H32699   3.891  10.398  11.319 -0.1535  0.0934  0.1386
  983MOL0     H32700   3.841  10.229  11.295 -0.6062 -5.6597  3.4180
  983MOL0     H32701   3.746  10.243  11.689 -0.5639  1.0402  0.1983
  983MOL0     H32702   4.239  10.167  10.932 -1.0289  0.5462 -0.0005
  983MOL0     H32703   4.450  10.084  10.685  0.0792  2.1988 -1.1159
  983MOL0     H32704   4.358  10.198  10.757  0.2031  1.1454 -1.9556
  983MOL0     H32705   4.536  10.200  10.804 -0.8585  1.2816 -0.8356
  984MOL0     O32706   2.823  11.196   1.988  0.0286 -0.8846 -0.1416
  984MOL0     C32707   2.705  11.184   2.032  0.3486  1.1360 -0.2581
  984MOL0     O32708   2.688  11.183   2.164  0.9943  0.4677 -0.4733
  984MOL0     C32709   2.792  11.178   2.248  0.1176  1.2702  0.0296
  984MOL0     C32710   2.809  11.068   2.327  0.0190  0.0234  0.6056
  984MOL0     C32711   2.916  11.069   2.417 -0.1010 -0.3668 -0.7806
  984MOL0     C32712   3.002  11.176   2.428  0.5581  0.1681  0.2036
  984MOL0     O32713   3.112  11.164   2.503 -0.6927  0.1518 -0.7433
  984MOL0     C32714   3.222  11.235   2.452  0.2104  0.1046  0.9516
  984MOL0     C32715   3.351  11.191   2.524  0.3040  0.1195 -0.6997
  984MOL0     C32716   3.361  11.246   2.670 -0.3265 -0.5197  0.0630
  984MOL0     C32717   3.493  11.210   2.739 -0.3542  0.2419  0.0596
  984MOL0     C32718   3.496  11.266   2.891 -0.5569 -0.9973 -0.7857
  984MOL0     C32719   3.620  11.211   2.968 -0.1769  0.0198 -0.1225
  984MOL0     C32720   3.744  11.282   2.923 -0.1986  0.8069  0.3121
  984MOL0     C32721   3.847  11.304   3.033 -0.2981  0.1236 -0.2872
  984MOL0     N32722   3.973  11.313   2.959  0.6219  0.5084  0.2214
  984MOL0     C32723   4.031  11.423   2.897  0.5773 -0.6218 -0.0720
  984MOL0     C32724   4.158  11.381   2.865 -0.6989  0.6851 -0.3874
  984MOL0     C32725   4.263  11.459   2.797 -0.0026  0.8987  0.8962
  984MOL0     C32726   4.316  11.408   2.656  0.7055  0.3170 -0.7292
  984MOL0     C32727   4.396  11.272   2.647  1.0611 -1.0033  0.7949
  984MOL0     C32728   4.543  11.286   2.691 -0.2545  0.0370 -0.5884
  984MOL0     O32729   4.621  11.343   2.583 -0.3724  0.2368  0.3009
  984MOL0     C32730   4.756  11.368   2.611 -0.2977 -0.2574  0.4043
  984MOL0     C32731   4.797  11.480   2.676 -0.5631  0.2710  0.0342
  984MOL0     C32732   4.928  11.507   2.699 -0.9364 -0.3086 -0.3204
  984MOL0     C32733   5.033  11.417   2.661 -0.1899 -0.9495  0.4680
  984MOL0     C32734   5.174  11.449   2.680 -0.0106 -0.8491 -0.2205
  984MOL0     O32735   5.210  11.531   2.784  0.2048  0.2831  0.1430
  984MOL0     C32736   5.342  11.545   2.794  0.3561 -0.5576 -0.0424
  984MOL0     C32737   5.396  11.659   2.734 -0.2740 -0.6010 -0.8400
  984MOL0     C32738   5.537  11.679   2.723  1.0839  0.0647 -0.4382
  984MOL0     C32739   5.618  11.579   2.781  0.2274 -0.1171 -0.5793
  984MOL0     O32740   5.756  11.572   2.788  0.2311 -0.1366 -0.0593
  984MOL0     C32741   5.827  11.596   2.667  0.3038 -0.0938  0.5919
  984MOL0     C32742   5.934  11.487   2.654 -0.1654 -0.9663 -0.5029
  984MOL0     C32743   5.904  11.348   2.707  0.3618  0.7602  0.2306
  984MOL0     C32744   6.018  11.249   2.651  0.6613 -0.9965 -0.9355
  984MOL0     C32745   6.015  11.128   2.737 -0.6418 -0.4297  0.0889
  984MOL0     C32746   6.122  11.025   2.698 -0.4229 -0.0577 -0.0464
  984MOL0     C32747   6.110  10.891   2.783 -0.1011 -0.1813  0.1484
  984MOL0     C32748   6.206  10.779   2.752 -0.3484 -0.3369 -0.4058
  984MOL0    Cl32749   6.374  10.837   2.799  0.5761  0.3622  0.4950
  984MOL0     C32750   5.563  11.483   2.862 -0.4358  0.1534 -0.0580
  984MOL0     C32751   5.422  11.464   2.871 -0.6324  0.0132 -1.1234
  984MOL0     O32752   5.249  11.374   2.621 -0.4317 -0.7162 -0.6342
  984MOL0     C32753   4.987  11.293   2.598 -0.5671 -0.3616 -0.3158
  984MOL0     C32754   4.855  11.273   2.570 -0.6936  0.0400  0.7026
  984MOL0     N32755   4.166  11.249   2.893 -0.4807  0.5059 -0.2439
  984MOL0     N32756   4.066  11.211   2.963  0.7139 -0.3000 -0.0055
  984MOL0     C32757   2.960  11.290   2.366 -0.3078  0.2436 -0.2874
  984MOL0     C32758   2.859  11.290   2.269  0.2009 -0.3048 -0.0916
  984MOL0     C32759   2.587  11.172   1.945 -0.0866  0.3581  0.8220
  984MOL0     C32760   2.463  11.208   2.006 -0.5367  0.2599  0.2985
  984MOL0     C32761   2.350  11.210   1.932 -0.0698 -0.2413  0.4730
  984MOL0     C32762   2.345  11.164   1.800  0.7630 -0.5546  1.1344
  984MOL0     O32763   2.238  11.170   1.709 -0.0489 -0.2149  0.2107
  984MOL0     C32764   2.120  11.231   1.764 -0.6862 -0.7027 -0.2735
  984MOL0     C32765   2.007  11.239   1.659 -1.0274  0.1496 -0.3607
  984MOL0     C32766   1.957  11.099   1.613 -0.5422  0.4577 -0.2259
  984MOL0     C32767   1.832  11.103   1.525  1.0816  0.9508  0.3637
  984MOL0     C32768   1.720  11.179   1.591 -0.4240 -0.8081  0.5004
  984MOL0     C32769   1.637  11.257   1.633  0.2073 -0.1807  0.7047
  984MOL0     C32770   2.462  11.129   1.737  0.7826 -0.4033 -0.3490
  984MOL0     C32771   2.582  11.133   1.801 -0.6911 -0.1936  0.4724
  984MOL0     C32772   2.710  11.112   1.710 -0.4154 -0.9108 -0.4585
  984MOL0     H32773   2.740  10.984   2.319 -3.3818  2.6241  0.5946
  984MOL0     H32774   2.949  10.992   2.486  1.6343  0.7640 -0.2789
  984MOL0     H32775   3.240  11.209   2.347  0.8675 -1.1229  1.3371
  984MOL0     H32776   3.208  11.342   2.468  1.1403  0.4675 -0.4707
  984MOL0     H32777   3.425  11.244   2.464 -0.3637 -1.5258 -3.1556
  984MOL0     H32778   3.371  11.084   2.519 -0.9202 -0.2723  1.4850
  984MOL0     H32779   3.276  11.218   2.733 -1.8275  1.3188 -1.0314
  984MOL0     H32780   3.345  11.354   2.665 -1.6567 -0.7533 -1.1018
  984MOL0     H32781   3.509  11.102   2.737  1.9030  0.5431 -1.7857
  984MOL0     H32782   3.578  11.252   2.686  0.1849  0.4876  1.1028
  984MOL0     H32783   3.504  11.375   2.892  2.8310 -1.1426 -0.5474
  984MOL0     H32784   3.407  11.232   2.945  1.0994 -0.9244  2.2082
  984MOL0     H32785   3.604  11.231   3.075 -0.4289 -0.0959 -0.1376
  984MOL0     H32786   3.628  11.102   2.959 -2.5454 -0.1676 -0.6481
  984MOL0     H32787   3.717  11.377   2.875  0.3080  0.1381 -1.3839
  984MOL0     H32788   3.791  11.225   2.842 -0.8396  2.1155 -1.0314
  984MOL0     H32789   3.822  11.394   3.089 -1.3671  0.0139 -0.5790
  984MOL0     H32790   3.848  11.213   3.095 -1.8790  0.6628  0.5860
  984MOL0     H32791   3.986  11.521   2.883  0.6781 -0.5224  0.3040
  984MOL0     H32792   4.218  11.554   2.768 -0.9839 -0.7215 -3.8258
  984MOL0     H32793   4.343  11.491   2.865  2.8426  0.5662 -2.0212
  984MOL0     H32794   4.230  11.396   2.589  1.3300 -2.3817 -1.1722
  984MOL0     H32795   4.389  11.479   2.617  2.2666 -1.8219 -1.9399
  984MOL0     H32796   4.391  11.222   2.550  3.0514 -1.0881  0.6827
  984MOL0     H32797   4.352  11.193   2.708 -2.3240 -0.2453 -0.4490
  984MOL0     H32798   4.587  11.195   2.732 -0.8814 -0.8858 -1.9354
  984MOL0     H32799   4.536  11.349   2.780 -2.8589 -0.7147 -0.1668
  984MOL0     H32800   4.724  11.552   2.711 -2.7766 -1.6171 -0.4685
  984MOL0     H32801   4.964  11.602   2.739 -1.9382  0.3832 -1.0315
  984MOL0     H32802   5.338  11.734   2.681 -0.3877  0.8263  1.1938
  984MOL0     H32803   5.558  11.765   2.661  0.1006  0.7889  0.1973
  984MOL0     H32804   5.760  11.592   2.581  2.3587  2.3359 -1.2811
  984MOL0     H32805   5.877  11.693   2.670  0.0344  0.0257  2.0556
  984MOL0     H32806   5.956  11.489   2.547 -0.6579  1.7616 -0.6196
  984MOL0     H32807   6.017  11.516   2.720  0.2054 -2.4976 -0.2568
  984MOL0     H32808   5.909  11.348   2.816  4.8181  1.1980  0.2084
  984MOL0     H32809   5.805  11.310   2.678  0.6665  0.0047  0.1512
  984MOL0     H32810   6.110  11.303   2.675 -0.9472  1.0933  0.9881
  984MOL0     H32811   6.017  11.222   2.545  0.8054  0.9049 -1.4430
  984MOL0     H32812   5.916  11.086   2.721 -0.4908 -0.7062 -0.1306
  984MOL0     H32813   6.016  11.146   2.845 -1.9361  0.0412  0.0419
  984MOL0     H32814   6.123  10.998   2.592 -1.7750 -2.2984  0.4373
  984MOL0     H32815   6.219  11.065   2.728 -0.9500 -0.2998  2.1977
  984MOL0     H32816   6.012  10.847   2.760 -0.3411  1.5876 -2.8738
  984MOL0     H32817   6.122  10.915   2.889 -0.7897 -1.7487  0.6089
  984MOL0     H32818   6.180  10.683   2.798  0.2666 -0.9861 -1.3635
  984MOL0     H32819   6.211  10.771   2.643 -2.6840  1.7970 -0.7444
  984MOL0     H32820   5.619  11.409   2.919 -0.6132  0.7767  0.9504
  984MOL0     H32821   5.376  11.384   2.926 -0.7802 -1.8369 -3.7646
  984MOL0     H32822   5.061  11.219   2.568 -2.4898 -1.5714 -2.3317
  984MOL0     H32823   4.827  11.183   2.516  3.4670 -1.0278 -0.0571
  984MOL0     H32824   3.017  11.381   2.379 -0.1651  0.3169 -1.2870
  984MOL0     H32825   2.834  11.384   2.220  0.4522  0.2433  0.7972
  984MOL0     H32826   2.455  11.250   2.106 -0.4753 -0.3519  0.5647
  984MOL0     H32827   2.267  11.257   1.983  0.6141  0.0260  1.3786
  984MOL0     H32828   2.148  11.334   1.787 -1.3186 -1.0470  2.2395
  984MOL0     H32829   2.080  11.191   1.857  2.8677  1.4390  2.3895
  984MOL0     H32830   2.060  11.296   1.582  1.7830 -0.5263  0.9308
  984MOL0     H32831   1.930  11.302   1.704 -4.3932 -2.1811 -2.3931
  984MOL0     H32832   1.944  11.043   1.706 -0.1636  0.8130  0.0410
  984MOL0     H32833   2.043  11.061   1.557 -1.6535 -0.5090 -1.3376
  984MOL0     H32834   1.857  11.160   1.435  1.2337  1.4547  0.7195
  984MOL0     H32835   1.785  11.008   1.499  0.8846  1.2498 -0.3927
  984MOL0     H32836   1.551  11.308   1.672 -0.3661 -1.1951  0.7925
  984MOL0     H32837   2.467  11.098   1.633  2.2145 -0.9067 -0.1539
  984MOL0     H32838   2.689  11.067   1.612  0.4695 -1.5649 -0.3659
  984MOL0     H32839   2.767  11.200   1.682  0.4522 -1.6116 -0.9507
  984MOL0     H32840   2.771  11.037   1.762 -0.3160 -0.8832 -0.5353
  985MOL0     O32841   8.043   1.427   3.567 -0.6989  0.5209  0.8959
  985MOL0     C32842   7.986   1.342   3.503 -0.1963  0.2773 -0.3180
  985MOL0     O32843   7.914   1.246   3.554 -0.2820 -0.0235 -0.1446
  985MOL0     C32844   7.912   1.245   3.691  0.1335  0.3218  0.2391
  985MOL0     C32845   7.789   1.259   3.749  0.1764 -0.2958 -0.2561
  985MOL0     C32846   7.790   1.249   3.890 -0.5775  0.2804  0.0295
  985MOL0     C32847   7.891   1.224   3.979  1.0475  0.7977  0.2634
  985MOL0     O32848   7.883   1.241   4.118 -0.0110  0.0821  0.2596
  985MOL0     C32849   7.999   1.276   4.188  0.3962  0.4970 -0.4242
  985MOL0     C32850   7.951   1.337   4.316  0.0518 -1.0118  0.3478
  985MOL0     C32851   7.904   1.238   4.421  0.5808  0.1394  0.3822
  985MOL0     C32852   8.013   1.153   4.483  0.4242 -1.2692 -0.8880
  985MOL0     C32853   7.972   1.088   4.624 -0.3001  0.0341 -0.3486
  985MOL0     C32854   8.071   0.988   4.687  0.3297 -0.3658 -0.4365
  985MOL0     C32855   8.109   0.864   4.605  0.2308 -0.9544 -0.3288
  985MOL0     C32856   8.205   0.774   4.703  0.2201 -0.3282 -0.7526
  985MOL0     N32857   8.349   0.828   4.729  0.7064 -0.1845  0.4323
  985MOL0     C32858   8.456   0.744   4.746  1.2604  0.6940  0.1256
  985MOL0     C32859   8.558   0.829   4.776 -0.5608 -0.9343 -0.1232
  985MOL0     C32860   8.699   0.786   4.794 -0.1619  0.4154  0.7426
  985MOL0     C32861   8.801   0.902   4.823  0.4285 -0.2924 -0.7343
  985MOL0     C32862   8.827   0.983   4.699  0.0010 -0.5470 -0.2844
  985MOL0     C32863   8.963   1.037   4.689 -0.8400 -0.1678  0.4009
  985MOL0     O32864   9.061   0.939   4.661 -0.0935 -0.1920  0.7418
  985MOL0     C32865   9.194   0.969   4.661 -1.4777 -0.1006 -0.7677
  985MOL0     C32866   9.253   1.090   4.615  0.1886  0.2124  0.9070
  985MOL0     C32867   9.389   1.117   4.618  0.3123  0.6339  1.2172
  985MOL0     C32868   9.476   1.024   4.670 -0.0158  0.6761 -1.0862
  985MOL0     C32869   9.618   1.054   4.683 -0.4286 -1.0572 -0.5941
  985MOL0     O32870   9.648   1.173   4.632 -0.3409 -0.2850 -0.2220
  985MOL0     C32871   9.776   1.212   4.617 -0.5616 -0.0481  0.0226
  985MOL0     C32872   9.846   1.157   4.508 -1.2302  0.1797 -0.4344
  985MOL0     C32873   9.979   1.197   4.478 -0.0728 -0.2987 -0.5028
  985MOL0     C32874  10.037   1.301   4.555  0.3079 -0.7052  0.0055
  985MOL0     O32875  10.163   1.350   4.529 -0.3773  0.1776  0.2913
  985MOL0     C32876  10.208   1.479   4.571  0.1409 -0.1736  0.4402
  985MOL0     C32877  10.360   1.509   4.541 -0.4385 -0.7963 -0.2737
  985MOL0     C32878  10.398   1.525   4.395  0.2212 -0.2020  0.1431
  985MOL0     C32879  10.545   1.495   4.367 -0.3193 -0.3150  0.2995
  985MOL0     C32880  10.645   1.585   4.440  0.4521 -0.2874 -1.2237
  985MOL0     C32881  10.623   1.740   4.419  0.6460  0.3999  0.5465
  985MOL0     C32882  10.729   1.823   4.490 -0.2485 -0.0396 -0.1095
  985MOL0     C32883  10.713   1.971   4.467 -0.9735 -0.0513 -0.0051
  985MOL0    Cl32884  10.703   2.001   4.295 -0.1274  0.3896 -0.1648
  985MOL0     C32885   9.965   1.350   4.668 -0.4218  0.4026  0.0041
  985MOL0     C32886   9.835   1.305   4.697 -0.7463 -0.3581 -0.0067
  985MOL0     O32887   9.695   0.969   4.725  0.3136 -1.2389  0.3546
  985MOL0     C32888   9.420   0.901   4.709 -0.3230  0.0925 -0.1857
  985MOL0     C32889   9.287   0.874   4.710 -0.0230  0.2125  1.6359
  985MOL0     N32890   8.506   0.955   4.793  0.3920  0.2636  0.3663
  985MOL0     N32891   8.384   0.951   4.755 -0.2003  0.0551 -0.1342
  985MOL0     C32892   8.006   1.188   3.917 -0.3249  0.9908 -0.2660
  985MOL0     C32893   8.016   1.204   3.775  0.5153  0.1272  1.3222
  985MOL0     C32894   7.996   1.344   3.357  0.1023  0.2414  0.1313
  985MOL0     C32895   7.880   1.330   3.283 -0.4884  0.4513  0.2083
  985MOL0     C32896   7.887   1.303   3.151 -1.3971 -0.0153 -0.0603
  985MOL0     C32897   8.010   1.305   3.078 -0.2052  0.9241  0.0356
  985MOL0     O32898   7.997   1.274   2.939 -0.3703 -0.0515 -0.2918
  985MOL0     C32899   8.106   1.293   2.846 -0.4024 -0.4034  0.3608
  985MOL0     C32900   8.045   1.318   2.703  0.2232 -0.7806 -0.5828
  985MOL0     C32901   7.993   1.194   2.635  0.3471  0.2671 -0.5350
  985MOL0     C32902   7.973   1.192   2.482 -0.1178  0.2646 -0.7022
  985MOL0     C32903   7.867   1.288   2.438  0.6556  1.2356  0.0525
  985MOL0     C32904   7.780   1.371   2.414  0.2004 -0.0928 -0.3398
  985MOL0     C32905   8.124   1.342   3.154  0.8122  0.2495  0.5012
  985MOL0     C32906   8.121   1.361   3.294 -0.3532  0.1508  0.5490
  985MOL0     C32907   8.253   1.390   3.365  0.0240  1.0066 -0.0889
  985MOL0     H32908   7.705   1.272   3.682 -2.2656 -3.8091  1.8110
  985MOL0     H32909   7.694   1.255   3.940  0.4528 -0.4541  2.1761
  985MOL0     H32910   8.064   1.194   4.218  1.4407  0.8892 -1.5766
  985MOL0     H32911   8.056   1.352   4.134  1.2479 -0.1144 -0.4002
  985MOL0     H32912   7.873   1.409   4.290  2.2322  2.2497  2.0639
  985MOL0     H32913   8.036   1.392   4.357 -0.2271 -0.3317  0.0306
  985MOL0     H32914   7.840   1.163   4.373  1.2267 -0.2222  0.0726
  985MOL0     H32915   7.854   1.290   4.503 -0.1835 -1.2035  0.7925
  985MOL0     H32916   8.038   1.075   4.411 -1.5296 -2.7704 -0.0355
  985MOL0     H32917   8.090   1.223   4.517 -1.8792  0.4305  1.2230
  985MOL0     H32918   7.962   1.167   4.698 -1.0177 -2.6108  2.5941
  985MOL0     H32919   7.877   1.033   4.618  1.8349 -4.1165 -0.1197
  985MOL0     H32920   8.156   1.053   4.711  1.1410 -1.0292 -1.4599
  985MOL0     H32921   8.023   0.946   4.776 -1.5802 -1.3994 -1.8727
  985MOL0     H32922   8.163   0.885   4.512 -0.1028  0.5200 -0.2179
  985MOL0     H32923   8.012   0.819   4.582 -2.2571  2.9773  1.4429
  985MOL0     H32924   8.152   0.763   4.797 -0.7621 -3.5661 -1.5713
  985MOL0     H32925   8.212   0.672   4.665  0.3068 -0.0238 -1.6015
  985MOL0     H32926   8.458   0.636   4.737  2.8567  0.8121 -1.5058
  985MOL0     H32927   8.711   0.713   4.874  1.3983 -0.3308 -0.1249
  985MOL0     H32928   8.729   0.735   4.702  0.1435  0.4054  0.8462
  985MOL0     H32929   8.757   0.965   4.901 -1.2768 -2.0513 -0.1801
  985MOL0     H32930   8.896   0.860   4.857  1.0642 -0.6623 -2.8107
  985MOL0     H32931   8.760   1.070   4.702  1.0992  0.4345 -2.2647
  985MOL0     H32932   8.807   0.924   4.609 -2.3210 -0.3516  0.0385
  985MOL0     H32933   8.993   1.088   4.782  0.3854  0.6547 -0.4229
  985MOL0     H32934   8.975   1.103   4.603 -1.4587  3.0822  2.5943
  985MOL0     H32935   9.184   1.164   4.575  1.3484  0.7787 -0.1252
  985MOL0     H32936   9.414   1.212   4.571 -1.3896  0.3695 -0.3389
  985MOL0     H32937   9.804   1.084   4.439  0.2074  0.5906 -1.7714
  985MOL0     H32938  10.031   1.168   4.387 -0.0566  0.3496 -0.7089
  985MOL0     H32939  10.142   1.550   4.520 -1.3512 -1.2716  0.7726
  985MOL0     H32940  10.186   1.482   4.678  0.4145 -0.9196  0.5281
  985MOL0     H32941  10.395   1.592   4.603  2.2327 -1.7141 -0.4057
  985MOL0     H32942  10.419   1.423   4.575  0.2844 -1.6055 -3.3255
  985MOL0     H32943  10.342   1.448   4.341 -2.1139  1.4703  0.0333
  985MOL0     H32944  10.375   1.618   4.344  1.0125  0.1690  0.4467
  985MOL0     H32945  10.570   1.499   4.261  1.0077 -0.4597  0.5968
  985MOL0     H32946  10.569   1.391   4.392  1.6387 -0.2697 -1.1479
  985MOL0     H32947  10.750   1.557   4.435  1.7768  1.9123  4.8563
  985MOL0     H32948  10.622   1.556   4.543 -2.7132 -0.5934 -1.9102
  985MOL0     H32949  10.636   1.754   4.311 -1.0102  1.2101  0.4268
  985MOL0     H32950  10.521   1.774   4.434 -0.5649 -1.8372 -1.7664
  985MOL0     H32951  10.828   1.797   4.452  1.0792  0.7889  2.5063
  985MOL0     H32952  10.726   1.797   4.597 -0.6693  0.0162 -0.1078
  985MOL0     H32953  10.619   2.012   4.505 -0.0517  0.9739  1.2657
  985MOL0     H32954  10.792   2.028   4.518 -1.3650 -0.3657  0.9890
  985MOL0     H32955   9.995   1.421   4.745 -0.5336 -1.6095  1.9973
  985MOL0     H32956   9.776   1.331   4.785  0.7329  0.6907  0.7154
  985MOL0     H32957   9.481   0.819   4.745  0.8653  0.8317 -0.4130
  985MOL0     H32958   9.250   0.777   4.743 -0.0992  1.0019  4.0752
  985MOL0     H32959   8.094   1.155   3.972  0.2712  0.2133 -1.6256
  985MOL0     H32960   8.111   1.191   3.724 -0.4049 -0.7859 -0.2303
  985MOL0     H32961   7.780   1.322   3.325 -0.3648 -0.0563  0.4141
  985MOL0     H32962   7.789   1.281   3.109 -1.3947 -0.6911  0.2724
  985MOL0     H32963   8.161   1.199   2.837  0.8916  0.2540  1.1037
  985MOL0     H32964   8.174   1.373   2.877 -3.4434  2.5241  0.0868
  985MOL0     H32965   8.122   1.367   2.642  0.9975  0.0761  1.0223
  985MOL0     H32966   7.960   1.386   2.705 -0.2926 -1.3617  2.6449
  985MOL0     H32967   7.900   1.167   2.687  1.3533 -2.1749  0.1265
  985MOL0     H32968   8.058   1.107   2.649 -1.9438 -1.3685  0.6126
  985MOL0     H32969   8.072   1.205   2.439  0.7701  2.0440  1.6330
  985MOL0     H32970   7.934   1.093   2.455  0.4521 -0.7963  2.0036
  985MOL0     H32971   7.703   1.443   2.397  0.0713 -0.2047 -0.2407
  985MOL0     H32972   8.224   1.342   3.112  0.8975  2.1760  0.6432
  985MOL0     H32973   8.334   1.358   3.299 -2.2484 -0.6952 -2.2130
  985MOL0     H32974   8.260   1.498   3.381 -0.1872  1.0012  0.0480
  985MOL0     H32975   8.261   1.343   3.464 -1.1130  0.0310 -0.4298
  986MOL0     O32976  10.257   2.223   4.943 -0.4373  0.8729  0.0941
  986MOL0     C32977  10.191   2.175   5.040 -0.3571 -0.2410  0.2968
  986MOL0     O32978  10.215   2.201   5.175  0.3986  0.2887  0.3521
  986MOL0     C32979  10.329   2.269   5.203  0.7792  0.5740  0.0990
  986MOL0     C32980  10.451   2.222   5.161 -0.1663  0.2086  0.0582
  986MOL0     C32981  10.574   2.287   5.200  0.8361  0.0262  1.0090
  986MOL0     C32982  10.566   2.416   5.269  0.5196  1.2051 -0.7260
  986MOL0     O32983  10.676   2.490   5.284  0.0330 -0.1472 -0.7035
  986MOL0     C32984  10.806   2.424   5.308  0.5786 -0.4279  0.3206
  986MOL0     C32985  10.916   2.532   5.335  0.0408  0.0938 -0.6490
  986MOL0     C32986  11.044   2.473   5.408 -0.2432  0.7008  0.3528
  986MOL0     C32987  11.149   2.591   5.396  0.0029 -0.6654 -0.0210
  986MOL0     C32988  11.286   2.536   5.439  0.7084  0.1546 -0.1468
  986MOL0     C32989  11.396   2.633   5.480  0.0973  0.2380 -0.0861
  986MOL0     C32990  11.345   2.703   5.610 -0.2388 -0.4741 -0.6334
  986MOL0     C32991  11.452   2.800   5.677  0.6900 -0.2563  0.0903
  986MOL0     N32992  11.476   2.916   5.590 -0.6556  0.1931  0.9867
  986MOL0     C32993  11.569   2.920   5.487  0.4167  0.2239 -0.5720
  986MOL0     C32994  11.543   3.040   5.429 -0.5567 -0.0791 -0.2524
  986MOL0     C32995  11.632   3.098   5.320  0.6299  0.1962  0.1498
  986MOL0     C32996  11.728   3.007   5.248 -0.0456  0.6056  0.2360
  986MOL0     C32997  11.799   3.079   5.133 -0.1423 -0.3324  0.2928
  986MOL0     C32998  11.926   3.005   5.098 -0.1810  0.6593  0.0226
  986MOL0     O32999  11.899   2.881   5.023 -0.0005  0.0827 -0.0325
  986MOL0     C33000  11.997   2.817   4.960 -0.8028  0.3721 -0.8068
  986MOL0     C33001  11.968   2.709   4.875 -0.2869  0.5044  0.2888
  986MOL0     C33002  12.067   2.626   4.809  0.2564 -0.0804  0.2670
  986MOL0     C33003  12.202   2.659   4.825  0.6676 -0.2217 -0.9659
  986MOL0     C33004  12.304   2.586   4.749 -0.5149 -0.2667  0.0225
  986MOL0     O33005  12.430   2.633   4.771  0.2122 -0.3832  0.1167
  986MOL0     C33006  12.541   2.566   4.725 -0.2751  0.9380 -0.3754
  986MOL0     C33007  12.556   2.429   4.715  0.2437  1.0682 -0.3646
  986MOL0     C33008  12.670   2.375   4.671 -0.0574  0.2391  0.4826
  986MOL0     C33009  12.784   2.458   4.639  0.3347 -0.6793 -0.1080
  986MOL0     O33010  12.907   2.415   4.586  0.0164 -0.8231 -0.2312
  986MOL0     C33011  12.912   2.291   4.522  0.4090 -0.9673  0.3281
  986MOL0     C33012  12.848   2.315   4.387  0.2045  0.6737  0.0736
  986MOL0     C33013  12.948   2.349   4.278 -0.0898  0.6966 -0.1703
  986MOL0     C33014  12.881   2.408   4.144 -0.0790 -0.6479  0.2405
  986MOL0     C33015  12.970   2.483   4.056 -0.1761  0.4890  0.1471
  986MOL0     C33016  13.095   2.399   4.011  0.1575 -0.2630 -0.3190
  986MOL0     C33017  13.205   2.491   3.951 -0.0757 -1.4495 -0.3923
  986MOL0     C33018  13.334   2.415   3.916  0.1977 -0.5834  0.0498
  986MOL0    Cl33019  13.461   2.543   3.885 -0.2120  0.1781  0.1682
  986MOL0     C33020  12.776   2.600   4.663  0.1673  0.8134 -0.5598
  986MOL0     C33021  12.648   2.649   4.694 -0.2470 -0.5386 -1.0597
  986MOL0     O33022  12.277   2.490   4.676 -0.4196  0.7087  0.1869
  986MOL0     C33023  12.226   2.772   4.903  0.9594 -1.2377 -0.3504
  986MOL0     C33024  12.131   2.844   4.971 -0.1373 -0.3513 -0.2687
  986MOL0     N33025  11.438   3.110   5.497 -0.7630  0.2758 -0.0579
  986MOL0     N33026  11.391   3.030   5.587  0.3643 -0.8969 -0.2773
  986MOL0     C33027  10.441   2.457   5.319  0.3722  0.9044  0.2519
  986MOL0     C33028  10.324   2.377   5.292  0.4742 -0.4700 -0.3124
  986MOL0     C33029  10.057   2.121   5.015  0.3926 -0.2086  0.4187
  986MOL0     C33030   9.995   2.051   5.126 -0.3995 -0.9800  0.3957
  986MOL0     C33031   9.862   2.013   5.118  0.5557 -0.1949 -0.3787
  986MOL0     C33032   9.792   2.027   5.002 -0.1101 -0.1469 -0.6274
  986MOL0     O33033   9.657   2.014   4.992  0.1632  0.8746  0.6068
  986MOL0     C33034   9.581   2.017   5.116  1.3726 -0.0997  1.0378
  986MOL0     C33035   9.428   2.036   5.082  0.1114  0.8024  0.1678
  986MOL0     C33036   9.364   1.924   4.990 -1.1087 -0.2953  0.1298
  986MOL0     C33037   9.213   1.941   4.967  0.2007 -0.1377  0.1301
  986MOL0     C33038   9.142   1.915   5.090  0.2046 -0.9904  0.1877
  986MOL0     C33039   9.094   1.929   5.196  0.6132  0.3298  0.0600
  986MOL0     C33040   9.860   2.061   4.883  1.0645  0.3297  0.0383
  986MOL0     C33041   9.990   2.115   4.883  0.1223 -0.7968  0.6826
  986MOL0     C33042  10.049   2.158   4.754  0.1506  0.0607  0.3813
  986MOL0     H33043  10.452   2.128   5.107 -0.9400  0.0500  0.3061
  986MOL0     H33044  10.666   2.239   5.170 -0.2587 -1.5664  0.0294
  986MOL0     H33045  10.799   2.340   5.379 -0.4396 -0.9783 -0.3906
  986MOL0     H33046  10.824   2.376   5.212 -0.9226  2.6139 -1.6377
  986MOL0     H33047  10.873   2.614   5.393 -0.0722 -0.2702 -0.2140
  986MOL0     H33048  10.950   2.573   5.239  1.3415  1.0696  0.1872
  986MOL0     H33049  11.073   2.391   5.341  3.0371  1.0681  1.1308
  986MOL0     H33050  11.021   2.435   5.508  0.7067 -0.8601  0.0156
  986MOL0     H33051  11.146   2.626   5.292 -0.4595 -0.3597  0.0975
  986MOL0     H33052  11.115   2.675   5.457  1.3650 -0.1188  0.0390
  986MOL0     H33053  11.260   2.470   5.523  1.7421 -0.6554 -0.4366
  986MOL0     H33054  11.332   2.478   5.359  0.6249 -1.8899  1.2140
  986MOL0     H33055  11.489   2.582   5.508 -0.1818 -0.1717  0.0953
  986MOL0     H33056  11.418   2.700   5.396 -1.2210 -0.6911 -1.2164
  986MOL0     H33057  11.328   2.637   5.696  0.9139  0.9945  0.7997
  986MOL0     H33058  11.258   2.767   5.594  1.1730  1.9269  0.6507
  986MOL0     H33059  11.410   2.833   5.772  0.4333 -0.1263 -0.0675
  986MOL0     H33060  11.546   2.745   5.690 -0.3628 -2.1736  0.0658
  986MOL0     H33061  11.651   2.853   5.463 -1.4936 -2.5920  0.2654
  986MOL0     H33062  11.564   3.146   5.249  0.2632  1.6416  1.4322
  986MOL0     H33063  11.687   3.185   5.356 -1.8854  1.6288  0.7740
  986MOL0     H33064  11.804   2.962   5.313  1.0004  0.0956 -1.2677
  986MOL0     H33065  11.672   2.922   5.207  0.3370  0.6323 -0.3531
  986MOL0     H33066  11.801   3.183   5.168  1.6502 -0.4875  0.7375
  986MOL0     H33067  11.732   3.087   5.047  1.3940 -1.4955 -1.0752
  986MOL0     H33068  11.975   2.978   5.191 -1.6933  2.7976  1.5382
  986MOL0     H33069  11.988   3.073   5.038 -1.9756  1.1509 -1.3686
  986MOL0     H33070  11.861   2.693   4.867 -0.1594 -0.8202  0.9677
  986MOL0     H33071  12.029   2.547   4.745  0.9445  0.2493 -0.5710
  986MOL0     H33072  12.472   2.364   4.736  0.5920  0.6523 -0.2379
  986MOL0     H33073  12.676   2.268   4.657  0.1300  0.5606 -2.6362
  986MOL0     H33074  13.019   2.269   4.517  0.0782 -2.2687 -2.5840
  986MOL0     H33075  12.859   2.223   4.589 -0.2069 -0.5053  0.3200
  986MOL0     H33076  12.812   2.219   4.349 -2.4775  1.2934  0.8505
  986MOL0     H33077  12.766   2.387   4.390  1.7976  2.5365  1.0085
  986MOL0     H33078  13.026   2.413   4.320  1.2238 -2.3903  2.6179
  986MOL0     H33079  13.015   2.268   4.247  0.4784  0.8601  0.5846
  986MOL0     H33080  12.802   2.478   4.173  2.1828  3.9904 -3.3862
  986MOL0     H33081  12.841   2.331   4.078  3.8733 -0.4409 -2.7578
  986MOL0     H33082  13.006   2.571   4.109  0.1222  0.6448 -0.3019
  986MOL0     H33083  12.915   2.516   3.967  1.8150  0.6298 -1.0986
  986MOL0     H33084  13.142   2.344   4.092  0.9962 -1.4087 -1.5290
  986MOL0     H33085  13.057   2.325   3.939 -0.1731 -0.2232 -0.1829
  986MOL0     H33086  13.234   2.565   4.027  1.0823 -1.9364 -0.3364
  986MOL0     H33087  13.165   2.542   3.864 -1.0083  1.3978  1.5540
  986MOL0     H33088  13.375   2.349   3.993  0.1822 -1.4333 -0.6655
  986MOL0     H33089  13.325   2.348   3.831 -2.1567 -0.9474  0.5088
  986MOL0     H33090  12.866   2.660   4.659 -0.1053  1.3344  0.6299
  986MOL0     H33091  12.632   2.756   4.692 -3.0292 -0.8256  0.3598
  986MOL0     H33092  12.329   2.804   4.917  0.3625  1.3344 -1.3391
  986MOL0     H33093  12.171   2.916   5.041  1.7004 -1.0609 -0.5425
  986MOL0     H33094  10.422   2.546   5.380 -0.9491 -0.1735  1.5014
  986MOL0     H33095  10.224   2.387   5.333 -0.3862 -3.9216 -1.1851
  986MOL0     H33096  10.053   2.025   5.214  0.2769  0.7769  0.5075
  986MOL0     H33097   9.810   1.980   5.208  0.9586  2.0786  0.7657
  986MOL0     H33098   9.614   2.110   5.163 -1.4076  1.1893  0.6096
  986MOL0     H33099   9.607   1.932   5.179 -0.5299 -1.4693  0.0715
  986MOL0     H33100   9.418   2.130   5.027  0.2219  1.8661  1.8952
  986MOL0     H33101   9.372   2.039   5.176 -0.7732 -1.6823 -0.1915
  986MOL0     H33102   9.389   1.831   5.041 -0.1791 -0.7209 -1.0372
  986MOL0     H33103   9.416   1.931   4.894 -3.3231  0.1400 -1.1036
  986MOL0     H33104   9.200   2.045   4.936 -0.0866  1.9896  6.0631
  986MOL0     H33105   9.174   1.889   4.880  0.7183  0.1851 -0.3025
  986MOL0     H33106   9.030   1.930   5.282  1.1512 -1.9915  0.5411
  986MOL0     H33107   9.797   2.055   4.795 -2.0823  2.9505  1.8913
  986MOL0     H33108  10.148   2.116   4.740 -0.3424 -0.4846 -1.8665
  986MOL0     H33109   9.988   2.134   4.666  0.1259 -0.1110  0.4447
  986MOL0     H33110  10.056   2.267   4.764 -1.0642  0.1576  0.3972
  987MOL0     O33111   3.967  10.606   1.052 -0.1937 -0.1692  0.4018
  987MOL0     C33112   3.850  10.655   1.026 -0.3610  0.6376 -0.9698
  987MOL0     O33113   3.822  10.789   1.008 -0.7073  0.3226 -0.3002
  987MOL0     C33114   3.928  10.876   0.982 -0.2501 -0.6629  0.1529
  987MOL0     C33115   4.032  10.907   1.073  0.6832 -0.0927 -1.1081
  987MOL0     C33116   4.126  11.004   1.055 -0.2304 -0.2933  0.1644
  987MOL0     C33117   4.135  11.066   0.927  0.5321  0.7929  0.3486
  987MOL0     O33118   4.231  11.153   0.904  0.7649  0.1109 -0.6650
  987MOL0     C33119   4.192  11.285   0.870  0.3019  0.6465  0.6306
  987MOL0     C33120   4.303  11.345   0.797 -0.9739  0.1784 -0.6937
  987MOL0     C33121   4.310  11.496   0.800 -0.4534  0.2235 -0.1123
  987MOL0     C33122   4.417  11.554   0.711 -0.1498  0.7865 -0.3118
  987MOL0     C33123   4.406  11.710   0.711  1.1923  0.8207 -0.0815
  987MOL0     C33124   4.521  11.756   0.627 -0.1047 -0.5754 -0.1946
  987MOL0     C33125   4.504  11.722   0.470  0.6480 -0.5930 -0.6889
  987MOL0     C33126   4.591  11.823   0.382  0.7614 -0.6216 -0.7847
  987MOL0     N33127   4.721  11.850   0.439  0.1178 -0.3612  0.8093
  987MOL0     C33128   4.832  11.769   0.440 -0.7994  0.1428  0.1385
  987MOL0     C33129   4.928  11.850   0.469  0.5294 -0.1467 -1.1206
  987MOL0     C33130   5.073  11.818   0.486  0.1730 -0.4318 -0.0421
  987MOL0     C33131   5.116  11.792   0.630 -0.1972  0.3176  0.9921
  987MOL0     C33132   5.089  11.911   0.725 -0.4504  0.7379  0.1991
  987MOL0     C33133   5.161  11.906   0.863 -0.4554  0.4899 -0.2084
  987MOL0     O33134   5.304  11.897   0.863 -0.0996  0.0882  0.5102
  987MOL0     C33135   5.366  12.012   0.831 -0.1977  0.3902  0.4430
  987MOL0     C33136   5.433  12.024   0.702 -0.1934 -0.0636 -0.3716
  987MOL0     C33137   5.508  12.140   0.681 -0.0966  0.5479 -0.5429
  987MOL0     C33138   5.516  12.246   0.774 -0.6808  1.2085 -0.0222
  987MOL0     C33139   5.593  12.368   0.737  0.4449 -0.3239 -0.8614
  987MOL0     O33140   5.653  12.372   0.618 -0.5640 -0.5996 -0.0281
  987MOL0     C33141   5.683  12.475   0.549  0.8529  0.4595  0.7392
  987MOL0     C33142   5.633  12.602   0.565 -0.5003 -0.3579 -0.3086
  987MOL0     C33143   5.673  12.708   0.479  0.4230 -0.1397 -0.4155
  987MOL0     C33144   5.759  12.683   0.370  0.4839 -0.0767 -0.3633
  987MOL0     O33145   5.802  12.785   0.290  0.1233  0.6684  0.1980
  987MOL0     C33146   5.912  12.867   0.337 -0.0577 -0.2436  0.2239
  987MOL0     C33147   5.944  12.972   0.221 -0.0593  0.1420  0.0450
  987MOL0     C33148   5.828  13.066   0.178 -0.4050  0.7184 -0.2782
  987MOL0     C33149   5.773  13.126   0.301 -0.2406 -0.0352 -0.0273
  987MOL0     C33150   5.689  13.256   0.273 -0.8899 -0.6212  0.3061
  987MOL0     C33151   5.567  13.222   0.187  0.9072 -0.0279 -0.7496
  987MOL0     C33152   5.497  13.360   0.191  0.1517 -0.2969  0.8576
  987MOL0     C33153   5.395  13.376   0.079  0.1686  0.0735  0.2221
  987MOL0    Cl33154   5.237  13.286   0.105  0.0371 -0.1289 -0.3060
  987MOL0     C33155   5.808  12.552   0.352  1.2632 -0.0549  0.1691
  987MOL0     C33156   5.764  12.455   0.444 -0.1020  0.4881  0.9339
  987MOL0     O33157   5.604  12.450   0.824  0.5891  0.6595 -0.6679
  987MOL0     C33158   5.457  12.224   0.895  0.9606  0.4991 -0.3132
  987MOL0     C33159   5.378  12.111   0.926 -0.2879 -0.1312  0.5166
  987MOL0     N33160   4.871  11.982   0.494  0.7238  0.8674  0.0529
  987MOL0     N33161   4.744  11.977   0.488 -0.4192  0.4099  0.4197
  987MOL0     C33162   4.040  11.028   0.833 -0.3233 -0.1485 -0.3508
  987MOL0     C33163   3.934  10.944   0.866 -0.2959 -0.2857 -0.4155
  987MOL0     C33164   3.728  10.569   1.055 -0.6487 -0.5738  0.6837
  987MOL0     C33165   3.607  10.636   1.102 -0.5210  0.5686 -0.2533
  987MOL0     C33166   3.489  10.559   1.111 -0.4463 -0.4154 -0.5907
  987MOL0     C33167   3.488  10.427   1.082 -0.4355  1.1486  0.1616
  987MOL0     O33168   3.373  10.344   1.080 -0.7302 -0.2232  0.2585
  987MOL0     C33169   3.248  10.412   1.093 -0.3447  0.3830 -0.1406
  987MOL0     C33170   3.133  10.318   1.068 -0.4757 -0.2355  0.2957
  987MOL0     C33171   3.108  10.286   0.916 -1.5737 -0.8511 -0.2885
  987MOL0     C33172   2.977  10.200   0.892  0.2209  1.0319 -0.6486
  987MOL0     C33173   2.919  10.250   0.765  0.1718  0.5904  0.0254
  987MOL0     C33174   2.876  10.293   0.657  0.9383 -0.1349  0.3235
  987MOL0     C33175   3.605  10.363   1.046  0.5323  1.0037  0.4531
  987MOL0     C33176   3.729  10.423   1.039  0.4650 -0.7937 -0.0214
  987MOL0     C33177   3.852  10.344   0.985 -0.2956  0.2887 -0.2428
  987MOL0     H33178   4.031  10.849   1.165  1.4134  0.7505 -0.5490
  987MOL0     H33179   4.210  11.026   1.120  0.9185 -3.4817 -0.0759
  987MOL0     H33180   4.105  11.291   0.803 -1.9217  0.0106  3.2826
  987MOL0     H33181   4.162  11.341   0.959 -3.1683 -2.5853  1.7616
  987MOL0     H33182   4.301  11.311   0.693  1.7118  1.7989 -1.3715
  987MOL0     H33183   4.397  11.306   0.839 -1.4364 -0.6246 -0.3664
  987MOL0     H33184   4.342  11.528   0.899  0.1451  0.1085 -0.2648
  987MOL0     H33185   4.209  11.531   0.775 -0.9638  0.1189  1.6802
  987MOL0     H33186   4.511  11.517   0.752 -1.8289 -5.1710 -1.0163
  987MOL0     H33187   4.407  11.505   0.614  5.5946 -0.4362 -0.6785
  987MOL0     H33188   4.309  11.740   0.672 -0.3597 -0.9538  2.1285
  987MOL0     H33189   4.395  11.740   0.815 -0.3178 -0.7826  0.2787
  987MOL0     H33190   4.537  11.864   0.639  1.1843 -0.8762  0.9266
  987MOL0     H33191   4.615  11.716   0.665 -0.5915 -1.1927  0.3800
  987MOL0     H33192   4.396  11.728   0.450  0.7490 -3.8422 -3.1558
  987MOL0     H33193   4.535  11.618   0.451 -1.2916 -1.0869 -1.4803
  987MOL0     H33194   4.605  11.773   0.286  0.4282 -2.1071 -0.0928
  987MOL0     H33195   4.528  11.912   0.378 -0.6155 -1.5523 -0.6125
  987MOL0     H33196   4.833  11.664   0.412  0.2013 -0.0473  0.8575
  987MOL0     H33197   5.111  11.731   0.432  0.0694 -0.5162  0.0196
  987MOL0     H33198   5.131  11.904   0.452 -0.9658  0.2131 -0.3791
  987MOL0     H33199   5.066  11.701   0.664 -0.9760  1.1313  2.1045
  987MOL0     H33200   5.223  11.771   0.623 -0.4773 -0.6680 -0.9749
  987MOL0     H33201   4.982  11.914   0.746  0.0383  0.2029  3.3450
  987MOL0     H33202   5.116  12.002   0.671  0.9600 -0.9380 -2.0865
  987MOL0     H33203   5.112  11.817   0.905 -0.0252  0.5423  0.4161
  987MOL0     H33204   5.132  11.988   0.931  2.3276  1.2537  0.1654
  987MOL0     H33205   5.443  11.951   0.622  2.5569 -3.1932  2.5231
  987MOL0     H33206   5.562  12.131   0.587  0.3714  1.0481 -0.3268
  987MOL0     H33207   5.567  12.639   0.642 -1.8562 -0.9768 -1.1313
  987MOL0     H33208   5.648  12.813   0.487  4.0134  0.7021  2.5161
  987MOL0     H33209   5.881  12.910   0.433 -1.5829 -0.8739  0.0432
  987MOL0     H33210   5.999  12.804   0.355  0.2312  0.4837  1.4760
  987MOL0     H33211   6.032  13.033   0.242 -1.4419  2.3736 -0.3829
  987MOL0     H33212   5.971  12.915   0.131 -1.4605 -0.9420  0.2768
  987MOL0     H33213   5.864  13.137   0.103  1.2216  0.9851  0.7296
  987MOL0     H33214   5.747  12.999   0.147 -0.8274 -0.4661  2.9614
  987MOL0     H33215   5.858  13.160   0.362 -0.6898  0.5386  0.2925
  987MOL0     H33216   5.714  13.051   0.355  0.4047  0.0659  0.8312
  987MOL0     H33217   5.749  13.340   0.238  1.2509 -1.7504  1.1146
  987MOL0     H33218   5.652  13.288   0.371 -1.6973  2.9720 -1.0113
  987MOL0     H33219   5.592  13.199   0.083 -1.5388 -0.5791 -1.2964
  987MOL0     H33220   5.512  13.139   0.231  1.4155  0.7528  1.4814
  987MOL0     H33221   5.565  13.444   0.174 -1.1288  0.4602 -0.9115
  987MOL0     H33222   5.449  13.399   0.281  1.6006  2.4712  0.5359
  987MOL0     H33223   5.379  13.485   0.080  1.9592  0.3855  2.0342
  987MOL0     H33224   5.452  13.343  -0.008 -0.0155  1.9983 -0.6940
  987MOL0     H33225   5.868  12.543   0.262 -0.3694 -1.9355 -0.8086
  987MOL0     H33226   5.820  12.362   0.438  2.3581  1.8869  1.0312
  987MOL0     H33227   5.450  12.288   0.982 -2.1381 -0.3618  0.1800
  987MOL0     H33228   5.337  12.111   1.027 -2.9291  1.4802 -0.4398
  987MOL0     H33229   4.043  11.084   0.740 -1.2118  2.5964  1.1737
  987MOL0     H33230   3.858  10.922   0.791  0.5696  3.3392 -2.6007
  987MOL0     H33231   3.605  10.737   1.143  0.6818  0.0487  1.2302
  987MOL0     H33232   3.399  10.603   1.154  0.0284 -1.9549  2.2123
  987MOL0     H33233   3.248  10.499   1.027  0.0733 -1.1706 -2.2925
  987MOL0     H33234   3.247  10.444   1.197  0.9071 -1.9165  0.6479
  987MOL0     H33235   3.040  10.369   1.095 -2.2787 -2.5089 -1.2308
  987MOL0     H33236   3.136  10.222   1.121 -4.0391 -0.1161  0.9937
  987MOL0     H33237   3.203  10.243   0.883  0.8170  2.8787  1.0960
  987MOL0     H33238   3.104  10.384   0.868  0.9354 -1.0548 -1.0719
  987MOL0     H33239   2.997  10.094   0.908  1.2099  0.9598 -2.2150
  987MOL0     H33240   2.893  10.218   0.960 -2.1600 -0.7972 -2.8641
  987MOL0     H33241   2.835  10.345   0.573  0.9902  0.9118  0.9257
  987MOL0     H33242   3.598  10.257   1.025  2.0807  0.9326  0.1828
  987MOL0     H33243   3.924  10.304   1.057  1.0065  2.1100 -0.4262
  987MOL0     H33244   3.807  10.265   0.925  1.7558 -2.7365  1.9104
  987MOL0     H33245   3.909  10.408   0.916 -1.3624  2.0519  0.4320
  988MOL0     O33246   0.509   9.482   0.796  0.8819 -0.0583 -0.3206
  988MOL0     C33247   0.398   9.540   0.808 -0.0957 -0.7668  0.0937
  988MOL0     O33248   0.344   9.595   0.928  0.8479  0.2834 -0.8762
  988MOL0     C33249   0.433   9.599   1.033  0.0649 -0.2070  0.2503
  988MOL0     C33250   0.563   9.664   1.034  0.5306  1.1901 -0.1736
  988MOL0     C33251   0.634   9.670   1.154  0.1592 -0.4810  0.7776
  988MOL0     C33252   0.606   9.592   1.266  0.3526 -0.0239  0.5460
  988MOL0     O33253   0.663   9.589   1.390 -0.1351  0.3786 -0.0714
  988MOL0     C33254   0.784   9.675   1.401  0.1656  0.5816 -0.0036
  988MOL0     C33255   0.834   9.654   1.546  0.2063 -0.4234  0.4841
  988MOL0     C33256   0.935   9.756   1.590 -0.6655  0.4517 -0.4938
  988MOL0     C33257   0.883   9.891   1.629 -0.1082 -0.5380  0.8254
  988MOL0     C33258   0.991   9.997   1.669  0.1286 -0.2614 -0.5085
  988MOL0     C33259   0.927  10.136   1.638 -0.2663 -0.5890 -0.4358
  988MOL0     C33260   1.027  10.247   1.671  0.8919 -0.4250 -0.4009
  988MOL0     C33261   0.980  10.383   1.637  0.7982 -0.9120  0.3833
  988MOL0     N33262   1.098  10.476   1.618  0.4533 -0.9889  0.3265
  988MOL0     C33263   1.177  10.479   1.510 -0.1632 -0.1615  1.4089
  988MOL0     C33264   1.244  10.590   1.520 -0.3075  0.0273  0.3431
  988MOL0     C33265   1.342  10.625   1.414 -0.4423 -0.7261  0.4360
  988MOL0     C33266   1.473  10.658   1.474 -1.3685  0.4377  0.1445
  988MOL0     C33267   1.584  10.651   1.371  0.8624 -0.2204  0.8945
  988MOL0     C33268   1.721  10.692   1.423  0.0604 -0.4219 -0.2342
  988MOL0     O33269   1.806  10.665   1.305 -0.5112 -0.5940  0.5576
  988MOL0     C33270   1.939  10.714   1.311  0.1856  0.0694  0.8576
  988MOL0     C33271   2.009  10.750   1.427  0.9494  0.0902 -0.2900
  988MOL0     C33272   2.138  10.805   1.419 -0.5688 -0.1184 -0.8618
  988MOL0     C33273   2.204  10.821   1.301 -0.1812  0.0304 -0.7378
  988MOL0     C33274   2.340  10.880   1.285 -0.1169 -0.0401  0.0976
  988MOL0     O33275   2.380  10.975   1.378  0.9288 -1.2106 -0.6294
  988MOL0     C33276   2.487  11.057   1.364 -0.0789  0.1536  0.1639
  988MOL0     C33277   2.487  11.194   1.404  0.5215 -0.0812  0.7499
  988MOL0     C33278   2.612  11.263   1.413 -1.2995  0.2991 -1.0457
  988MOL0     C33279   2.735  11.200   1.380 -0.1253  0.4148 -0.4028
  988MOL0     O33280   2.859  11.245   1.392  0.5105  0.5028 -1.1483
  988MOL0     C33281   2.883  11.379   1.437  0.3729  0.7752  0.8455
  988MOL0     C33282   3.030  11.417   1.405 -0.7407  0.3669  1.0029
  988MOL0     C33283   3.055  11.561   1.431 -0.5566  0.1520  0.9450
  988MOL0     C33284   3.192  11.599   1.392  0.2218  0.1730  0.4287
  988MOL0     C33285   3.214  11.745   1.442 -0.5351 -0.3865  0.3736
  988MOL0     C33286   3.355  11.794   1.399 -0.4760  0.2158  0.7330
  988MOL0     C33287   3.464  11.721   1.471  0.1405 -0.6127 -0.2323
  988MOL0     C33288   3.557  11.648   1.379  0.1750 -0.8833  0.2493
  988MOL0    Cl33289   3.496  11.530   1.265  0.4739 -0.1044  0.5316
  988MOL0     C33290   2.729  11.068   1.321  0.6311 -1.0884  0.1523
  988MOL0     C33291   2.605  11.003   1.313 -0.1452 -0.0289  0.0134
  988MOL0     O33292   2.399  10.860   1.177  0.2479 -0.4321 -0.1313
  988MOL0     C33293   2.131  10.785   1.187  0.5932 -0.8260  0.3406
  988MOL0     C33294   2.005  10.721   1.194 -0.6690 -0.0978  0.3701
  988MOL0     N33295   1.206  10.662   1.631  0.1416  0.0552 -0.0061
  988MOL0     N33296   1.114  10.589   1.690  0.3064 -0.1419 -0.0032
  988MOL0     C33297   0.483   9.523   1.264 -0.3611  0.8971 -0.0801
  988MOL0     C33298   0.402   9.531   1.149  1.4168 -0.7865 -0.4367
  988MOL0     C33299   0.302   9.507   0.698 -0.4855  0.8996 -0.6653
  988MOL0     C33300   0.170   9.539   0.723  0.7211 -0.6700 -0.3541
  988MOL0     C33301   0.072   9.512   0.621 -0.1772  0.8518 -0.1111
  988MOL0     C33302   0.102   9.435   0.510  0.4052 -0.0785  0.5753
  988MOL0     O33303   0.012   9.367   0.422 -0.0457  0.1125 -0.5126
  988MOL0     C33304  -0.131   9.362   0.465 -0.1506  0.5487 -0.8482
  988MOL0     C33305  -0.153   9.245   0.575  0.4797 -0.9371 -0.4645
  988MOL0     C33306  -0.302   9.205   0.605  0.0466 -0.1059 -0.0014
  988MOL0     C33307  -0.384   9.322   0.645 -0.9171  0.1363  0.6897
  988MOL0     C33308  -0.519   9.288   0.681  0.8971  0.0248  0.4363
  988MOL0     C33309  -0.633   9.268   0.716  0.5543 -0.7783  0.1023
  988MOL0     C33310   0.231   9.406   0.479 -0.9517  0.3888  0.2085
  988MOL0     C33311   0.328   9.438   0.583 -0.1542  0.4722  0.3447
  988MOL0     C33312   0.468   9.393   0.541 -0.2476 -0.0997 -0.3655
  988MOL0     H33313   0.599   9.700   0.938  3.4088 -2.4156 -0.7184
  988MOL0     H33314   0.723   9.732   1.155 -0.3205  0.2458 -0.2282
  988MOL0     H33315   0.872   9.648   1.342  1.0347 -0.2505  1.5988
  988MOL0     H33316   0.769   9.781   1.377  3.7669  0.9476 -1.2090
  988MOL0     H33317   0.888   9.559   1.553  1.1463  0.1241  0.9722
  988MOL0     H33318   0.744   9.647   1.607 -0.0082  0.5389  0.2941
  988MOL0     H33319   1.025   9.762   1.528 -0.9749  0.1990 -0.9743
  988MOL0     H33320   0.961   9.723   1.691  1.1672  1.3681 -0.6271
  988MOL0     H33321   0.839   9.925   1.535  2.0325 -1.3823 -0.5431
  988MOL0     H33322   0.808   9.874   1.707 -0.0270  0.2263  1.0795
  988MOL0     H33323   1.013   9.987   1.776  3.7397 -1.7398 -1.2304
  988MOL0     H33324   1.080   9.991   1.606  1.8444 -2.6805  1.9134
  988MOL0     H33325   0.909  10.135   1.530  5.4787  1.3610 -1.7638
  988MOL0     H33326   0.831  10.142   1.691  0.7928 -1.2693  1.6337
  988MOL0     H33327   1.107  10.214   1.604 -0.8224 -0.2868 -2.6522
  988MOL0     H33328   1.037  10.243   1.779  0.3797  4.4187  0.0476
  988MOL0     H33329   0.928  10.377   1.542 -0.2512 -0.0031  0.8688
  988MOL0     H33330   0.909  10.417   1.714  0.0591 -2.5463  0.4553
  988MOL0     H33331   1.207  10.411   1.431  2.8108  2.0896  0.4160
  988MOL0     H33332   1.351  10.549   1.335  1.6095 -1.7439  1.5767
  988MOL0     H33333   1.300  10.719   1.376 -0.3254 -0.6240  0.5555
  988MOL0     H33334   1.476  10.760   1.514  1.9600 -0.3050  2.1191
  988MOL0     H33335   1.500  10.587   1.552 -1.0365  1.4792  1.0034
  988MOL0     H33336   1.571  10.725   1.291 -1.5729 -0.6509  0.8206
  988MOL0     H33337   1.599  10.556   1.319  3.3305  2.0951 -3.1730
  988MOL0     H33338   1.757  10.630   1.506 -0.2541 -1.9673 -1.2001
  988MOL0     H33339   1.711  10.800   1.437  0.0900  0.0022 -2.8962
  988MOL0     H33340   1.965  10.738   1.526  1.6362  0.5173  0.0740
  988MOL0     H33341   2.194  10.840   1.506  0.9191 -0.2508 -1.7328
  988MOL0     H33342   2.388  11.228   1.431 -0.6658 -2.7124  0.0518
  988MOL0     H33343   2.620  11.365   1.449  2.9917  0.0242 -0.6419
  988MOL0     H33344   2.819  11.447   1.380  0.0245  0.0418  0.3483
  988MOL0     H33345   2.864  11.383   1.544 -1.6305 -4.1919  0.9601
  988MOL0     H33346   3.100  11.355   1.461  3.5319  4.7176  1.1146
  988MOL0     H33347   3.044  11.409   1.297 -0.0552  2.1127  0.9304
  988MOL0     H33348   2.979  11.614   1.372 -1.9864 -0.6357  2.0063
  988MOL0     H33349   3.035  11.571   1.538  1.2408 -0.0695  1.3236
  988MOL0     H33350   3.184  11.602   1.283 -2.1519 -1.5982  0.4610
  988MOL0     H33351   3.261  11.523   1.430 -1.9949 -0.4830  3.5955
  988MOL0     H33352   3.214  11.749   1.552  1.5099 -0.5351  0.4132
  988MOL0     H33353   3.135  11.809   1.400 -1.6128  0.4801  3.4305
  988MOL0     H33354   3.372  11.789   1.292  3.4873 -2.7160  1.2721
  988MOL0     H33355   3.360  11.900   1.424 -1.4006  0.9883 -2.0011
  988MOL0     H33356   3.420  11.650   1.542 -0.5612  1.8489  1.9251
  988MOL0     H33357   3.519  11.785   1.541 -3.4458  1.8226  0.6033
  988MOL0     H33358   3.606  11.724   1.317 -0.8772 -1.6593 -1.5827
  988MOL0     H33359   3.632  11.592   1.436 -0.3509 -2.5036 -0.5933
  988MOL0     H33360   2.809  11.013   1.273  0.0576 -0.8640 -1.1096
  988MOL0     H33361   2.632  10.902   1.283  1.1816 -0.8523  3.5370
  988MOL0     H33362   2.175  10.801   1.089  1.2031  3.1408  1.1110
  988MOL0     H33363   1.956  10.676   1.109 -1.1061 -2.9200  1.9846
  988MOL0     H33364   0.454   9.466   1.351  2.5758  1.5939  1.4697
  988MOL0     H33365   0.306   9.481   1.146 -0.4001  2.4626 -1.5152
  988MOL0     H33366   0.142   9.582   0.818 -0.5174 -2.0386 -0.0675
  988MOL0     H33367  -0.029   9.548   0.640 -0.1021  0.6663  0.6458
  988MOL0     H33368  -0.195   9.327   0.383  1.5466  0.7604 -2.3305
  988MOL0     H33369  -0.164   9.460   0.499 -1.4234  0.2746 -1.2081
  988MOL0     H33370  -0.104   9.288   0.663 -0.0142 -2.6929  0.7104
  988MOL0     H33371  -0.098   9.154   0.552 -1.1271 -1.8509 -0.8147
  988MOL0     H33372  -0.288   9.133   0.686  1.9901 -2.2192 -2.0647
  988MOL0     H33373  -0.341   9.150   0.519  1.9511 -1.1207 -0.2840
  988MOL0     H33374  -0.336   9.371   0.731 -1.0174  0.2135  0.7024
  988MOL0     H33375  -0.397   9.388   0.559 -3.3698  0.1800  1.0161
  988MOL0     H33376  -0.737   9.256   0.740  0.2693  3.1012  1.4974
  988MOL0     H33377   0.263   9.349   0.393 -2.1661 -1.4371  0.9089
  988MOL0     H33378   0.473   9.347   0.441  2.8134  1.0705 -0.8568
  988MOL0     H33379   0.537   9.478   0.534 -0.0078 -0.3594 -1.3822
  988MOL0     H33380   0.498   9.317   0.613 -2.3980 -0.0132  0.6687
  989MOL0     O33381   5.484   1.919   1.128 -1.0024 -0.0218 -1.1884
  989MOL0     C33382   5.539   1.993   1.204  0.0549 -0.2859 -0.2104
  989MOL0     O33383   5.478   2.040   1.324 -0.4842 -0.5472 -0.0825
  989MOL0     C33384   5.361   1.974   1.373  0.0988 -0.9118  0.5650
  989MOL0     C33385   5.357   1.936   1.511 -0.7748 -0.0468 -0.6011
  989MOL0     C33386   5.243   1.871   1.563  0.7914 -0.1722  0.2899
  989MOL0     C33387   5.124   1.851   1.492  0.3855 -0.0767 -0.4568
  989MOL0     O33388   5.012   1.804   1.555 -0.3459 -0.5047 -1.0418
  989MOL0     C33389   4.875   1.855   1.530 -1.0688  1.0142 -0.9608
  989MOL0     C33390   4.779   1.759   1.595  0.8644  0.4908 -0.1319
  989MOL0     C33391   4.791   1.765   1.746  0.2122 -0.1651  0.0373
  989MOL0     C33392   4.669   1.693   1.809 -0.3011 -0.7042 -0.6987
  989MOL0     C33393   4.679   1.684   1.963 -0.1011  0.0855 -0.4557
  989MOL0     C33394   4.569   1.604   2.030  0.5176 -1.3592 -0.0904
  989MOL0     C33395   4.536   1.460   1.993 -0.4226  0.5409 -0.2853
  989MOL0     C33396   4.662   1.379   1.987 -0.9265  0.1127  0.7508
  989MOL0     N33397   4.705   1.354   2.126 -0.3978 -0.1558 -0.5390
  989MOL0     C33398   4.710   1.242   2.209  0.3645  0.5341  0.1448
  989MOL0     C33399   4.776   1.279   2.320  0.3038 -0.8249 -0.3004
  989MOL0     C33400   4.837   1.194   2.426  0.4675  0.1788 -0.3835
  989MOL0     C33401   4.937   1.102   2.364 -0.0417 -0.2158 -1.0160
  989MOL0     C33402   4.998   0.996   2.460 -0.2184 -0.3668  0.4632
  989MOL0     C33403   5.074   1.034   2.589 -0.3471 -1.0820  0.1066
  989MOL0     O33404   4.997   1.094   2.691  0.3736  0.1277  0.3626
  989MOL0     C33405   4.887   1.046   2.751  0.2081 -0.5305 -0.1390
  989MOL0     C33406   4.860   0.911   2.765 -0.3414  0.2775  0.3587
  989MOL0     C33407   4.745   0.865   2.825 -0.0723  0.3939  0.4172
  989MOL0     C33408   4.656   0.946   2.885  0.0289  0.5385 -0.8401
  989MOL0     C33409   4.541   0.893   2.962  0.4121  0.1643 -0.2554
  989MOL0     O33410   4.487   0.971   3.067  0.1201  0.4803  0.3066
  989MOL0     C33411   4.359   0.943   3.110 -0.0456 -0.4841  0.7626
  989MOL0     C33412   4.350   0.837   3.201  0.2871  0.6439  0.3738
  989MOL0     C33413   4.228   0.802   3.259  0.5513 -1.1973 -0.6169
  989MOL0     C33414   4.115   0.878   3.218  0.7355 -0.1639  0.0170
  989MOL0     O33415   3.997   0.853   3.286  0.1063  0.8871 -0.0221
  989MOL0     C33416   3.882   0.831   3.199 -1.7238 -0.6162 -0.0261
  989MOL0     C33417   3.759   0.892   3.268  0.0416  0.2399  0.2607
  989MOL0     C33418   3.733   0.808   3.392 -0.5124  0.6362  0.6616
  989MOL0     C33419   3.601   0.846   3.471 -0.5427  0.6657 -0.4943
  989MOL0     C33420   3.479   0.876   3.389  0.5858 -0.3598  0.5469
  989MOL0     C33421   3.347   0.914   3.469 -0.3208 -0.0149  0.1335
  989MOL0     C33422   3.351   1.055   3.543 -0.1491 -0.0615  0.1715
  989MOL0     C33423   3.350   1.170   3.436 -0.5797  0.9981  0.2899
  989MOL0    Cl33424   3.228   1.156   3.306 -0.1751  0.0250  0.5312
  989MOL0     C33425   4.134   1.002   3.146  0.3205  0.1061 -1.1620
  989MOL0     C33426   4.254   1.030   3.081  0.0723  0.0786 -0.2235
  989MOL0     O33427   4.497   0.780   2.924  0.4288 -0.4549 -0.4299
  989MOL0     C33428   4.676   1.089   2.877  0.6459  0.2247 -0.4426
  989MOL0     C33429   4.790   1.136   2.812  0.9407 -0.0606  0.3818
  989MOL0     N33430   4.820   1.410   2.307 -0.7454 -0.0145  0.0344
  989MOL0     N33431   4.791   1.447   2.185  0.4049 -0.5229 -0.2588
  989MOL0     C33432   5.126   1.902   1.360 -0.1342 -0.5004  0.5215
  989MOL0     C33433   5.248   1.954   1.302  0.1082 -0.1835 -0.1845
  989MOL0     C33434   5.682   2.038   1.193  0.1051  0.0323  0.4506
  989MOL0     C33435   5.749   2.097   1.303  0.1144 -0.1714 -0.1479
  989MOL0     C33436   5.881   2.145   1.300 -0.8181 -0.6060 -0.2235
  989MOL0     C33437   5.955   2.131   1.181 -0.0854 -0.4237 -0.2901
  989MOL0     O33438   6.084   2.176   1.176  0.6004 -0.5490 -1.0839
  989MOL0     C33439   6.142   2.235   1.057  0.1518  0.2563  0.2295
  989MOL0     C33440   6.066   2.356   1.002 -0.1549  0.1725 -0.3338
  989MOL0     C33441   6.006   2.451   1.112  0.3737  0.0890  0.2324
  989MOL0     C33442   6.116   2.495   1.212  0.1212 -0.0110  0.0358
  989MOL0     C33443   6.228   2.575   1.168  0.9526 -0.5077  0.1321
  989MOL0     C33444   6.304   2.663   1.141  0.1576  0.5493  0.4791
  989MOL0     C33445   5.894   2.065   1.070 -0.1495 -0.1911 -0.0524
  989MOL0     C33446   5.755   2.038   1.073  0.3037 -0.7669 -0.6117
  989MOL0     C33447   5.696   2.008   0.941  0.5310  0.6684 -0.4690
  989MOL0     H33448   5.443   1.961   1.572 -1.6098  0.0944  0.5689
  989MOL0     H33449   5.248   1.833   1.664  0.6833  3.7325  1.9407
  989MOL0     H33450   4.865   1.960   1.559 -0.1734  1.1706 -1.1701
  989MOL0     H33451   4.850   1.861   1.424 -5.5646  1.2386 -0.0629
  989MOL0     H33452   4.788   1.652   1.572 -0.6814 -0.8468  4.3242
  989MOL0     H33453   4.679   1.792   1.566 -0.3111 -1.1984  1.7064
  989MOL0     H33454   4.798   1.867   1.786  0.7236 -0.9128  1.9809
  989MOL0     H33455   4.880   1.711   1.779  1.0635  1.8327  1.2124
  989MOL0     H33456   4.576   1.747   1.788 -1.7008 -3.4518 -2.1277
  989MOL0     H33457   4.660   1.591   1.771 -1.4978 -0.7162 -0.4172
  989MOL0     H33458   4.780   1.644   1.978  0.7804  2.4824  0.4973
  989MOL0     H33459   4.687   1.788   1.997 -0.5442  1.1370 -3.3091
  989MOL0     H33460   4.598   1.617   2.135  0.9359 -0.0125 -0.3438
  989MOL0     H33461   4.475   1.659   2.018  1.7283  0.9392  0.2009
  989MOL0     H33462   4.496   1.451   1.891 -0.0183  2.0557 -0.6000
  989MOL0     H33463   4.465   1.411   2.060  1.0101 -1.1676  0.0359
  989MOL0     H33464   4.648   1.287   1.929 -4.8370  2.1293 -2.0387
  989MOL0     H33465   4.740   1.442   1.944 -0.9757 -1.4572 -1.8480
  989MOL0     H33466   4.669   1.145   2.184  0.7404  0.3247  0.3394
  989MOL0     H33467   4.888   1.242   2.510  2.0602 -0.4979 -0.9174
  989MOL0     H33468   4.763   1.131   2.475  0.4885 -1.3005 -2.1757
  989MOL0     H33469   4.885   1.038   2.292  0.9067 -1.0394 -0.9960
  989MOL0     H33470   5.013   1.157   2.307 -0.5854 -0.7128 -2.2774
  989MOL0     H33471   5.058   0.924   2.404 -1.1786 -0.4956 -0.4332
  989MOL0     H33472   4.908   0.941   2.489 -0.1810 -1.3271 -1.0924
  989MOL0     H33473   5.146   1.111   2.558 -1.9080  0.5053  0.2686
  989MOL0     H33474   5.130   0.948   2.627 -0.4933 -1.9165 -1.4924
  989MOL0     H33475   4.939   0.840   2.740 -1.7083 -1.0612 -0.2655
  989MOL0     H33476   4.722   0.759   2.820  0.5268  0.3127 -1.0374
  989MOL0     H33477   4.435   0.785   3.243 -0.7367 -2.0921 -0.7177
  989MOL0     H33478   4.214   0.713   3.318 -2.2655 -1.4751 -1.5925
  989MOL0     H33479   3.903   0.895   3.112 -0.3570  0.2320  0.8889
  989MOL0     H33480   3.853   0.732   3.165 -0.8617 -1.4719  1.6200
  989MOL0     H33481   3.779   0.996   3.296  0.0513  1.2176 -2.8939
  989MOL0     H33482   3.671   0.890   3.203 -1.5556  0.0791  2.3290
  989MOL0     H33483   3.706   0.710   3.353  0.1420  0.8605 -0.3906
  989MOL0     H33484   3.819   0.811   3.460 -0.9654  2.1695  1.2002
  989MOL0     H33485   3.615   0.939   3.526  1.5853  1.2761 -1.9491
  989MOL0     H33486   3.590   0.763   3.541 -0.4423  0.9148 -0.1842
  989MOL0     H33487   3.459   0.795   3.319 -1.2922  1.4769 -1.2176
  989MOL0     H33488   3.492   0.955   3.313 -0.1316  0.2555  1.0433
  989MOL0     H33489   3.265   0.899   3.399  1.5074  1.0455 -2.3833
  989MOL0     H33490   3.340   0.836   3.545 -0.1662 -0.5620 -0.4044
  989MOL0     H33491   3.437   1.061   3.611  1.9268  2.1621 -2.4032
  989MOL0     H33492   3.262   1.072   3.604  0.1474 -0.8448  0.8398
  989MOL0     H33493   3.350   1.264   3.491  3.0914  2.9334 -2.4950
  989MOL0     H33494   3.440   1.173   3.373 -0.7535 -0.4477 -0.0617
  989MOL0     H33495   4.050   1.069   3.131 -0.7506 -0.6444  1.1031
  989MOL0     H33496   4.279   1.115   3.018 -0.2153 -0.0068 -0.4579
  989MOL0     H33497   4.622   1.158   2.941  1.8642  0.5705  0.2432
  989MOL0     H33498   4.806   1.243   2.821  0.9528  0.2246 -2.1220
  989MOL0     H33499   5.034   1.893   1.303 -0.0493  2.9573 -0.3548
  989MOL0     H33500   5.248   1.970   1.195  0.2090 -3.5567 -0.8239
  989MOL0     H33501   5.710   2.118   1.401  1.3517  2.0087 -0.0656
  989MOL0     H33502   5.930   2.177   1.392 -0.4871 -0.0903 -0.5759
  989MOL0     H33503   6.161   2.165   0.975  0.4609  2.2380 -1.4967
  989MOL0     H33504   6.240   2.273   1.088  0.0889 -1.6409  3.0612
  989MOL0     H33505   5.995   2.321   0.927 -1.5867  3.7336 -0.7935
  989MOL0     H33506   6.121   2.416   0.929 -0.7837 -0.5080 -1.4011
  989MOL0     H33507   5.926   2.409   1.173 -0.3220  0.9567 -0.0644
  989MOL0     H33508   5.971   2.544   1.065  1.4178  0.0980 -0.5655
  989MOL0     H33509   6.066   2.541   1.297 -0.6916 -1.6732  0.4961
  989MOL0     H33510   6.157   2.403   1.254  0.8962  0.2680 -0.0886
  989MOL0     H33511   6.376   2.736   1.109  2.3736 -0.0974  3.4828
  989MOL0     H33512   5.948   2.042   0.979 -2.1236  1.4219 -1.7455
  989MOL0     H33513   5.774   1.990   0.867  1.5723  2.0088  0.2526
  989MOL0     H33514   5.643   1.913   0.951  0.8154  0.6455  1.0473
  989MOL0     H33515   5.628   2.090   0.913  3.0119  3.3903  0.9012
  990MOL0     O33516   7.557   7.021   2.417  0.1366 -1.3879 -0.0622
  990MOL0     C33517   7.440   7.004   2.462 -0.3506 -0.1051  0.5687
  990MOL0     O33518   7.393   6.878   2.510 -0.2644 -0.0294  0.3081
  990MOL0     C33519   7.482   6.774   2.504  0.1702  0.0006 -0.2110
  990MOL0     C33520   7.482   6.687   2.399  0.5874  0.2356  0.0090
  990MOL0     C33521   7.560   6.571   2.386  1.0908 -0.7477 -0.0593
  990MOL0     C33522   7.632   6.532   2.496 -0.4094 -0.3066  0.0707
  990MOL0     O33523   7.702   6.413   2.507 -0.5738  0.4472 -0.4154
  990MOL0     C33524   7.636   6.304   2.428 -1.0613 -0.1483  0.4558
  990MOL0     C33525   7.728   6.267   2.313 -0.0575 -1.0257  0.5811
  990MOL0     C33526   7.877   6.259   2.339  0.4689 -0.4373 -0.2066
  990MOL0     C33527   7.959   6.256   2.206  0.7788  0.2140 -0.3282
  990MOL0     C33528   8.106   6.216   2.213 -1.0496  0.8351 -0.0166
  990MOL0     C33529   8.182   6.241   2.086  0.3374 -0.2563  0.9698
  990MOL0     C33530   8.331   6.207   2.081  0.5428  0.5036  0.6914
  990MOL0     C33531   8.353   6.061   2.044  0.0133  0.3918 -0.3774
  990MOL0     N33532   8.475   6.008   2.073 -0.1563 -0.4709  0.4102
  990MOL0     C33533   8.581   6.006   1.986  0.6923  0.0254  0.2833
  990MOL0     C33534   8.693   5.970   2.051 -0.0547 -0.0847 -0.3077
  990MOL0     C33535   8.831   5.945   1.998  0.2471 -0.8105  0.1973
  990MOL0     C33536   8.946   5.970   2.100 -0.0973  0.1314  0.7362
  990MOL0     C33537   9.074   5.914   2.042  0.1182  0.1516 -0.5110
  990MOL0     C33538   9.119   5.978   1.908 -0.3820 -0.6583  0.3937
  990MOL0     O33539   9.254   5.946   1.884  0.1780  0.1873  0.1970
  990MOL0     C33540   9.314   5.962   1.757 -0.6982  0.3508 -0.2183
  990MOL0     C33541   9.263   6.010   1.639  0.5351 -0.0569 -0.1145
  990MOL0     C33542   9.348   6.039   1.528  0.0672 -0.3010  0.5372
  990MOL0     C33543   9.488   5.998   1.542  1.3607  0.1594  1.0231
  990MOL0     C33544   9.570   6.022   1.417 -0.0202 -0.4671 -1.8025
  990MOL0     O33545   9.507   6.059   1.303  0.1717  0.3161  0.5218
  990MOL0     C33546   9.582   6.073   1.187 -0.3422  1.1729 -0.8664
  990MOL0     C33547   9.645   6.194   1.163  0.2888  0.0192  0.0735
  990MOL0     C33548   9.705   6.218   1.046 -0.0669 -0.7185  0.4939
  990MOL0     C33549   9.723   6.105   0.955  0.5594  0.1899 -0.0092
  990MOL0     O33550   9.807   6.106   0.850 -0.3715  0.6472  0.6613
  990MOL0     C33551   9.922   6.182   0.861 -0.8090 -0.0712 -0.0385
  990MOL0     C33552  10.013   6.139   0.743  1.0113  0.4138 -0.8693
  990MOL0     C33553  10.158   6.184   0.744  0.5972  0.4135 -0.1967
  990MOL0     C33554  10.170   6.341   0.734  1.1286  0.3993 -1.1252
  990MOL0     C33555  10.318   6.383   0.749 -0.1905 -0.7221 -0.0852
  990MOL0     C33556  10.396   6.357   0.626  0.6121  0.5345  0.0431
  990MOL0     C33557  10.540   6.420   0.632  0.4103  0.0045 -0.3956
  990MOL0     C33558  10.572   6.560   0.595  0.0163  0.1658  0.0749
  990MOL0    Cl33559  10.530   6.663   0.745  0.2020 -0.4009 -0.1303
  990MOL0     C33560   9.659   5.984   0.979 -0.2892 -0.3166 -0.3553
  990MOL0     C33561   9.585   5.968   1.096 -0.6375 -0.5541  0.4284
  990MOL0     O33562   9.685   5.992   1.438 -0.6802 -0.3355 -0.0516
  990MOL0     C33563   9.539   5.964   1.659  0.0535 -0.3921 -0.5204
  990MOL0     C33564   9.455   5.928   1.774 -0.2092  0.1229  0.3310
  990MOL0     N33565   8.650   5.969   2.186 -0.3986 -0.4309  0.2664
  990MOL0     N33566   8.525   5.988   2.192  0.2539  0.6580 -0.5317
  990MOL0     C33567   7.651   6.621   2.591  0.0055 -0.6365  0.3333
  990MOL0     C33568   7.580   6.745   2.602  0.0085  0.4049  0.3309
  990MOL0     C33569   7.346   7.114   2.450 -0.0740  0.0313 -0.2983
  990MOL0     C33570   7.220   7.084   2.503 -0.1571 -1.0324 -0.1669
  990MOL0     C33571   7.103   7.158   2.478  0.5974 -0.2761  0.3146
  990MOL0     C33572   7.112   7.279   2.410  0.2761 -0.3627  0.6365
  990MOL0     O33573   7.003   7.356   2.417  0.5180  0.5034  0.3480
  990MOL0     C33574   7.015   7.480   2.350 -0.4096  0.7282  0.7889
  990MOL0     C33575   6.881   7.554   2.353  0.6400  0.8994 -0.4921
  990MOL0     C33576   6.873   7.684   2.278 -0.2090 -0.6768  0.6125
  990MOL0     C33577   6.749   7.763   2.293  0.4163 -0.0830 -0.0958
  990MOL0     C33578   6.717   7.797   2.432 -0.5373  0.2619  0.2015
  990MOL0     C33579   6.698   7.803   2.548 -0.1990  0.1014  0.2407
  990MOL0     C33580   7.245   7.312   2.361  0.0247 -0.2195  0.9711
  990MOL0     C33581   7.360   7.234   2.380  0.4047  0.2968  0.4120
  990MOL0     C33582   7.481   7.275   2.310  0.3925  0.2763  0.2343
  990MOL0     H33583   7.413   6.725   2.324  0.0063  2.6598  1.6686
  990MOL0     H33584   7.568   6.518   2.292 -0.5888  1.4638 -1.5657
  990MOL0     H33585   7.638   6.224   2.502  0.2326  0.4151  1.0705
  990MOL0     H33586   7.531   6.320   2.401 -1.1292  1.7214  1.5886
  990MOL0     H33587   7.701   6.328   2.226  0.3795 -3.3023 -1.2392
  990MOL0     H33588   7.704   6.169   2.273 -0.1021  0.2174 -2.7831
  990MOL0     H33589   7.896   6.171   2.402  0.3681  1.0492  2.0351
  990MOL0     H33590   7.903   6.345   2.401 -1.9175 -0.3343  0.7807
  990MOL0     H33591   7.917   6.180   2.140  2.2552 -2.5903  1.7684
  990MOL0     H33592   7.946   6.346   2.146 -0.6138 -0.5213 -1.1864
  990MOL0     H33593   8.154   6.267   2.297 -0.6220 -0.7146  0.7209
  990MOL0     H33594   8.119   6.110   2.233  3.0990  0.7187 -2.2519
  990MOL0     H33595   8.128   6.194   2.003  0.2712  2.3903 -0.6247
  990MOL0     H33596   8.169   6.350   2.077 -0.3494 -0.4381 -0.4946
  990MOL0     H33597   8.373   6.217   2.182 -1.0834 -0.7617  1.5632
  990MOL0     H33598   8.392   6.257   2.006 -0.0963  3.3612  1.9545
  990MOL0     H33599   8.277   5.996   2.089  0.0568  0.1313 -0.6724
  990MOL0     H33600   8.326   6.046   1.938 -2.0293 -2.1985  0.3824
  990MOL0     H33601   8.579   6.034   1.881  0.1419 -0.5829  0.1230
  990MOL0     H33602   8.828   5.844   1.957 -2.8123 -1.1687  1.0379
  990MOL0     H33603   8.854   6.028   1.931  0.7645 -0.3531  0.9297
  990MOL0     H33604   8.958   6.074   2.135  2.0513 -0.9286  3.5054
  990MOL0     H33605   8.917   5.898   2.177  5.1243 -3.3354 -0.0297
  990MOL0     H33606   9.050   5.809   2.025 -1.3773  0.4278 -0.2746
  990MOL0     H33607   9.155   5.912   2.116 -0.4315 -3.1308  0.1815
  990MOL0     H33608   9.103   6.086   1.921  1.5056 -0.5788  2.7844
  990MOL0     H33609   9.059   5.944   1.824  0.2062  0.1053 -0.3551
  990MOL0     H33610   9.162   6.046   1.628  0.5737  0.0496 -0.1152
  990MOL0     H33611   9.309   6.089   1.440 -2.0111  0.4598  1.8116
  990MOL0     H33612   9.630   6.270   1.239 -2.1013 -1.4048  1.1436
  990MOL0     H33613   9.743   6.318   1.031 -1.1399 -0.1953  1.0928
  990MOL0     H33614   9.901   6.287   0.841  0.0321 -0.3970 -3.0552
  990MOL0     H33615   9.975   6.172   0.957  1.2023  1.1623 -0.9552
  990MOL0     H33616  10.013   6.030   0.754 -1.9572  0.5294  1.8470
  990MOL0     H33617   9.967   6.177   0.652 -0.7330  2.4006  0.7233
  990MOL0     H33618  10.198   6.143   0.838 -4.7655 -3.5825  0.7890
  990MOL0     H33619  10.205   6.146   0.653  0.4238 -0.8474  0.2313
  990MOL0     H33620  10.118   6.384   0.820 -0.1495 -4.8086  1.1599
  990MOL0     H33621  10.119   6.373   0.643  0.3709  3.4649  0.2769
  990MOL0     H33622  10.355   6.327   0.835  0.6356  1.1940  0.8677
  990MOL0     H33623  10.320   6.490   0.771  2.0169 -0.9311  0.9613
  990MOL0     H33624  10.392   6.249   0.606  2.2201 -0.4642  4.1204
  990MOL0     H33625  10.340   6.392   0.539 -2.0861 -0.4876  1.2378
  990MOL0     H33626  10.590   6.357   0.558  1.4687  0.2852  0.0566
  990MOL0     H33627  10.576   6.393   0.732  0.9944 -1.1865 -0.9105
  990MOL0     H33628  10.677   6.572   0.565 -0.5990 -0.1146 -2.4065
  990MOL0     H33629  10.507   6.589   0.512 -0.4525 -1.0516 -0.0095
  990MOL0     H33630   9.657   5.888   0.928 -1.3280 -1.0810  1.0412
  990MOL0     H33631   9.518   5.886   1.119 -0.5626 -1.2227 -1.4969
  990MOL0     H33632   9.647   5.960   1.670 -0.0324  1.7674  2.1351
  990MOL0     H33633   9.495   5.883   1.864 -0.3708  0.0392  0.3610
  990MOL0     H33634   7.712   6.593   2.676 -3.4370 -2.6926  2.3485
  990MOL0     H33635   7.593   6.794   2.697  1.7095  0.0633  0.2994
  990MOL0     H33636   7.190   6.988   2.544  0.7307 -0.9075  0.8028
  990MOL0     H33637   7.010   7.124   2.525  0.1113 -0.5331 -0.8042
  990MOL0     H33638   7.047   7.457   2.248  0.3573  2.5549  0.5644
  990MOL0     H33639   7.096   7.539   2.395  2.1458 -0.2799 -2.1589
  990MOL0     H33640   6.861   7.563   2.461 -1.5108 -2.1349 -0.5285
  990MOL0     H33641   6.802   7.492   2.312 -1.0354  1.3910  1.7629
  990MOL0     H33642   6.885   7.651   2.174 -2.3982 -0.5227  0.2737
  990MOL0     H33643   6.958   7.749   2.305 -1.4760  1.6115 -0.5992
  990MOL0     H33644   6.760   7.854   2.233  1.9105  0.2571  0.6346
  990MOL0     H33645   6.668   7.703   2.252  1.6997 -1.0670 -1.2876
  990MOL0     H33646   6.678   7.811   2.653  0.9330 -0.3993  0.5087
  990MOL0     H33647   7.265   7.407   2.312 -0.4212 -0.2847  0.6550
  990MOL0     H33648   7.460   7.343   2.227  3.1075 -0.8930 -1.5566
  990MOL0     H33649   7.538   7.325   2.390 -2.0033  1.5931  1.2393
  990MOL0     H33650   7.533   7.190   2.265 -1.2210 -0.3973 -0.4315
  991MOL0     O33651   0.738   4.563   7.831  0.4828 -0.2588 -0.3614
  991MOL0     C33652   0.790   4.531   7.722 -0.0451 -0.5970 -0.3924
  991MOL0     O33653   0.745   4.418   7.650 -0.0179  0.1978  0.0737
  991MOL0     C33654   0.638   4.350   7.692 -0.4311  0.3461 -0.1069
  991MOL0     C33655   0.520   4.376   7.623  0.0715 -0.7108 -0.0328
  991MOL0     C33656   0.399   4.321   7.661 -0.5432  0.7704  0.9949
  991MOL0     C33657   0.400   4.250   7.776  1.0818 -0.7301 -0.0612
  991MOL0     O33658   0.279   4.205   7.830  0.2081  0.0284  0.0417
  991MOL0     C33659   0.168   4.300   7.823 -0.3955 -0.2128 -0.5837
  991MOL0     C33660   0.083   4.272   7.946 -0.4575 -0.5355 -0.2376
  991MOL0     C33661  -0.027   4.369   7.961 -0.2013 -0.2743 -0.4581
  991MOL0     C33662  -0.110   4.404   7.832 -0.0984  0.6986 -0.3556
  991MOL0     C33663  -0.226   4.502   7.845  0.2889 -0.2013 -0.6117
  991MOL0     C33664  -0.367   4.451   7.894  0.2298  0.3622  0.8300
  991MOL0     C33665  -0.477   4.541   7.836  0.1947  0.2391  0.1675
  991MOL0     C33666  -0.622   4.488   7.839  0.5389  0.3834  1.1224
  991MOL0     N33667  -0.659   4.414   7.968  0.4482 -0.6464  0.2757
  991MOL0     C33668  -0.686   4.481   8.086 -0.6237 -0.1673  0.0159
  991MOL0     C33669  -0.671   4.380   8.179 -0.5314  0.2528  0.4185
  991MOL0     C33670  -0.663   4.382   8.336 -0.5512 -0.6568  0.6208
  991MOL0     C33671  -0.750   4.276   8.402  0.1217 -0.6281 -0.4518
  991MOL0     C33672  -0.705   4.127   8.386  0.5309 -0.4955  1.0174
  991MOL0     C33673  -0.570   4.104   8.455 -0.7723  0.4491  0.0000
  991MOL0     O33674  -0.461   4.128   8.352  0.6790 -0.1857 -0.9464
  991MOL0     C33675  -0.331   4.121   8.385 -0.1437  0.5016  0.1619
  991MOL0     C33676  -0.235   4.127   8.282 -0.6774  1.2429 -1.2186
  991MOL0     C33677  -0.097   4.140   8.319 -0.5892  0.2808 -0.6433
  991MOL0     C33678  -0.058   4.142   8.453 -0.2300 -0.0346  0.9829
  991MOL0     C33679   0.080   4.177   8.500  0.2786 -0.3313  0.6878
  991MOL0     O33680   0.105   4.175   8.633  0.6283 -0.4964  0.3981
  991MOL0     C33681   0.239   4.195   8.665  0.3442 -0.0798  0.0287
  991MOL0     C33682   0.344   4.115   8.615 -0.7840  0.2261 -0.4761
  991MOL0     C33683   0.483   4.148   8.647  0.0766  0.6381 -1.0060
  991MOL0     C33684   0.500   4.256   8.732  0.1133 -0.0809 -0.8475
  991MOL0     O33685   0.627   4.285   8.763  0.1413  0.1426 -0.3785
  991MOL0     C33686   0.653   4.356   8.881 -0.9205 -0.7068  0.6819
  991MOL0     C33687   0.787   4.288   8.936  0.6963 -0.1564  0.7144
  991MOL0     C33688   0.766   4.149   8.990 -0.3687  0.4916 -0.0202
  991MOL0     C33689   0.870   4.091   9.092 -0.2473 -0.1964  0.1165
  991MOL0     C33690   1.017   4.105   9.036  0.3472  0.1958  0.2595
  991MOL0     C33691   1.123   4.071   9.141  0.1636 -0.0731  0.6120
  991MOL0     C33692   1.265   4.071   9.075  0.2547  0.3738 -0.5817
  991MOL0     C33693   1.378   4.057   9.178  0.1831 -0.3744  0.7189
  991MOL0    Cl33694   1.530   4.060   9.084  0.2747  0.0641 -0.5091
  991MOL0     C33695   0.391   4.328   8.787  0.0654  0.5354  0.8952
  991MOL0     C33696   0.263   4.292   8.763 -0.4282 -0.4007 -0.2383
  991MOL0     O33697   0.165   4.190   8.413  0.6010 -0.2000 -0.3760
  991MOL0     C33698  -0.155   4.128   8.547  0.0947 -0.2933 -0.7875
  991MOL0     C33699  -0.284   4.115   8.514 -0.7213  0.3503  0.1685
  991MOL0     N33700  -0.660   4.263   8.115 -0.0796 -0.1738  0.3590
  991MOL0     N33701  -0.643   4.280   7.991  0.1607 -0.0553  0.0393
  991MOL0     C33702   0.518   4.225   7.856 -0.0663  0.5792 -0.5821
  991MOL0     C33703   0.635   4.280   7.809  0.2594  0.6244  0.8164
  991MOL0     C33704   0.905   4.610   7.678  0.0965 -0.1969 -0.9031
  991MOL0     C33705   0.910   4.744   7.728 -0.2300 -0.1573  0.3245
  991MOL0     C33706   1.023   4.819   7.717 -0.4232  0.0918 -0.2213
  991MOL0     C33707   1.137   4.775   7.643 -0.2722 -0.1214  0.0914
  991MOL0     O33708   1.264   4.837   7.624 -0.4401  0.5168  1.1040
  991MOL0     C33709   1.303   4.917   7.732  0.1465 -0.0561  0.1355
  991MOL0     C33710   1.327   4.834   7.863  0.6397 -1.1055 -0.0214
  991MOL0     C33711   1.446   4.727   7.862  0.1081  0.4548  0.4216
  991MOL0     C33712   1.445   4.626   7.975 -0.3013  0.0814  0.9102
  991MOL0     C33713   1.542   4.516   7.965  0.1744  0.1035 -0.1626
  991MOL0     C33714   1.622   4.425   7.950  0.2168 -0.4689  1.2147
  991MOL0     C33715   1.131   4.645   7.578  0.0575  0.3759 -0.4106
  991MOL0     C33716   1.020   4.562   7.608  0.0977  0.7334  1.6466
  991MOL0     C33717   1.022   4.427   7.547 -0.1465  0.3106  0.3124
  991MOL0     H33718   0.503   4.442   7.539  0.7583  1.6489  1.5602
  991MOL0     H33719   0.313   4.346   7.599  1.3405  0.6370 -1.9062
  991MOL0     H33720   0.194   4.406   7.835  0.4599 -0.2052 -2.2131
  991MOL0     H33721   0.111   4.294   7.730 -2.1791  1.5086  0.3248
  991MOL0     H33722   0.151   4.272   8.032  1.3095 -1.4849 -1.5528
  991MOL0     H33723   0.035   4.174   7.932  0.2726 -1.0203  0.5441
  991MOL0     H33724   0.010   4.458   8.014 -1.6456  0.8225 -1.2214
  991MOL0     H33725  -0.091   4.317   8.032  2.4600 -3.6042 -0.2340
  991MOL0     H33726  -0.039   4.452   7.764  0.8416 -2.6465 -1.9398
  991MOL0     H33727  -0.144   4.310   7.787 -0.1119  0.2285  0.6127
  991MOL0     H33728  -0.198   4.589   7.906 -1.7196 -0.1717  0.3500
  991MOL0     H33729  -0.239   4.543   7.745  1.0342  1.6259 -0.0142
  991MOL0     H33730  -0.390   4.346   7.873  0.6071  0.2575  0.9377
  991MOL0     H33731  -0.364   4.456   8.003  1.5200 -0.9482  0.8947
  991MOL0     H33732  -0.451   4.550   7.730  0.9987 -2.7307  0.0098
  991MOL0     H33733  -0.474   4.636   7.889 -2.1005 -0.8899  2.5537
  991MOL0     H33734  -0.686   4.574   7.817  1.6963  0.9237 -0.3865
  991MOL0     H33735  -0.622   4.413   7.759 -0.9336  1.0313  0.4901
  991MOL0     H33736  -0.712   4.585   8.099 -0.1868 -0.1442  0.7533
  991MOL0     H33737  -0.557   4.368   8.359 -0.1218 -0.3595 -1.0382
  991MOL0     H33738  -0.691   4.480   8.375  5.1323  1.5612  0.0972
  991MOL0     H33739  -0.767   4.300   8.507  0.4195  0.6533 -0.6771
  991MOL0     H33740  -0.854   4.279   8.367 -1.0620 -0.6717  2.7627
  991MOL0     H33741  -0.704   4.089   8.283 -0.1906  1.9141  0.0536
  991MOL0     H33742  -0.788   4.080   8.440 -1.1159  0.4170 -0.5983
  991MOL0     H33743  -0.564   4.001   8.490 -0.0511  1.2029  2.2964
  991MOL0     H33744  -0.560   4.173   8.540  2.2314 -0.4592  0.5072
  991MOL0     H33745  -0.271   4.113   8.181 -1.0227 -0.6287 -0.8733
  991MOL0     H33746  -0.031   4.145   8.232 -1.7446 -0.2203 -1.5797
  991MOL0     H33747   0.317   4.039   8.542 -0.7218  0.7226 -1.0139
  991MOL0     H33748   0.565   4.098   8.595  0.1190 -0.7383  0.3279
  991MOL0     H33749   0.675   4.459   8.851 -1.6050 -1.2664 -1.9152
  991MOL0     H33750   0.573   4.338   8.953 -3.1261  0.4119 -1.3543
  991MOL0     H33751   0.864   4.276   8.860 -0.1065  1.8087 -0.4862
  991MOL0     H33752   0.824   4.348   9.020 -0.7994 -0.9804  2.0036
  991MOL0     H33753   0.673   4.154   9.048  0.3673 -1.2211  1.4173
  991MOL0     H33754   0.757   4.072   8.914  3.6209 -1.7009  1.4192
  991MOL0     H33755   0.844   3.984   9.098 -1.1651  0.0663  1.1558
  991MOL0     H33756   0.871   4.148   9.186  0.5271  0.6993 -0.4269
  991MOL0     H33757   1.028   4.213   9.022  2.0166  0.5512  3.4036
  991MOL0     H33758   1.033   4.030   8.959  0.8666 -3.2720  3.4562
  991MOL0     H33759   1.115   4.126   9.236  0.8091  1.5712 -0.2380
  991MOL0     H33760   1.104   3.967   9.167  0.9874  0.2019  2.5643
  991MOL0     H33761   1.268   4.164   9.017 -3.5856 -0.4629 -2.4725
  991MOL0     H33762   1.264   3.984   9.009 -1.3452 -2.2122  2.5408
  991MOL0     H33763   1.377   4.143   9.246 -1.0781 -1.0815  1.6308
  991MOL0     H33764   1.357   3.963   9.229 -0.6252  1.2687  3.6746
  991MOL0     H33765   0.407   4.414   8.851  0.9356  1.3857 -0.4004
  991MOL0     H33766   0.183   4.340   8.818 -0.0882  0.1993 -0.2641
  991MOL0     H33767  -0.144   4.121   8.655 -1.7257  0.5995 -0.5148
  991MOL0     H33768  -0.343   4.086   8.601  0.4800 -2.3690  0.1686
  991MOL0     H33769   0.524   4.168   7.947  2.1150  1.0019 -0.4072
  991MOL0     H33770   0.728   4.258   7.861 -0.4184 -0.7830  1.4890
  991MOL0     H33771   0.832   4.787   7.790 -0.4171  1.0532 -0.6874
  991MOL0     H33772   1.027   4.919   7.759  0.5273  0.9076 -2.1580
  991MOL0     H33773   1.228   4.995   7.747  1.5826  2.2794 -3.3660
  991MOL0     H33774   1.396   4.972   7.715  0.4083 -0.1222  1.2622
  991MOL0     H33775   1.237   4.783   7.896 -0.1073  1.4687  2.3194
  991MOL0     H33776   1.355   4.904   7.943  2.1603 -0.3885 -1.1282
  991MOL0     H33777   1.544   4.775   7.857 -0.2375  1.0401 -1.6741
  991MOL0     H33778   1.440   4.671   7.768  3.5217  2.0330 -0.8843
  991MOL0     H33779   1.467   4.690   8.061 -2.4669  1.2833  0.6195
  991MOL0     H33780   1.341   4.593   7.979 -0.9423  1.5400 -1.5945
  991MOL0     H33781   1.684   4.339   7.934 -0.1366 -0.3169 -1.3853
  991MOL0     H33782   1.214   4.594   7.529 -0.9016 -2.1690  0.4414
  991MOL0     H33783   1.103   4.416   7.475 -1.0727 -0.6573 -0.6207
  991MOL0     H33784   1.029   4.350   7.624 -0.0545 -1.8595 -1.7632
  991MOL0     H33785   0.932   4.403   7.490 -0.0678 -2.0438  1.0640
  992MOL0     O33786   5.339   1.743   3.343  0.6295  0.7485  0.6794
  992MOL0     C33787   5.327   1.651   3.426 -0.0364 -0.4882  0.9303
  992MOL0     O33788   5.429   1.586   3.476 -0.0707 -0.3069 -0.1305
  992MOL0     C33789   5.554   1.612   3.415  0.4723 -0.7475  0.3433
  992MOL0     C33790   5.638   1.723   3.452 -0.5431  0.5995 -0.3650
  992MOL0     C33791   5.771   1.738   3.409 -0.5057  0.9618  0.1823
  992MOL0     C33792   5.815   1.650   3.310 -0.1529 -0.0140 -0.2932
  992MOL0     O33793   5.938   1.658   3.260  0.4229 -0.0432 -0.2997
  992MOL0     C33794   5.996   1.788   3.247  0.2634  0.1761  0.2771
  992MOL0     C33795   6.091   1.799   3.130  1.6564  0.4055  0.0011
  992MOL0     C33796   6.212   1.707   3.149  0.5603 -0.5396 -0.4911
  992MOL0     C33797   6.301   1.690   3.020  0.1819  0.6340  0.4715
  992MOL0     C33798   6.409   1.587   3.047  0.6988  0.4781 -0.6448
  992MOL0     C33799   6.519   1.601   2.940 -0.6626  0.1566  0.4302
  992MOL0     C33800   6.624   1.485   2.947  0.9237 -0.1279  0.1618
  992MOL0     C33801   6.679   1.460   3.088 -0.0701  0.3415  0.2058
  992MOL0     N33802   6.770   1.340   3.098  0.8919 -0.0453 -0.4494
  992MOL0     C33803   6.902   1.343   3.136  0.4087 -0.1015 -0.1510
  992MOL0     C33804   6.936   1.212   3.116  0.2512  0.1164 -0.1383
  992MOL0     C33805   7.069   1.138   3.126 -0.2024 -0.0418 -0.1115
  992MOL0     C33806   7.094   1.075   3.266  0.0474  0.3197  0.3173
  992MOL0     C33807   7.130   1.176   3.372  0.1840 -0.1397  0.1471
  992MOL0     C33808   7.241   1.276   3.328  0.1636 -0.4713  0.3057
  992MOL0     O33809   7.270   1.377   3.428 -0.3638 -0.9372  0.6021
  992MOL0     C33810   7.335   1.338   3.538 -0.0029 -0.3316  0.5974
  992MOL0     C33811   7.316   1.424   3.641  0.3135  0.1038 -0.6039
  992MOL0     C33812   7.363   1.400   3.768 -0.4261  0.5691 -0.4511
  992MOL0     C33813   7.425   1.281   3.804  0.2170 -0.1085 -1.1661
  992MOL0     C33814   7.438   1.230   3.943 -0.2647 -0.3224 -0.9935
  992MOL0     O33815   7.407   1.320   4.044 -0.2051  0.0013  0.1120
  992MOL0     C33816   7.415   1.299   4.171 -0.2039 -0.7454 -0.1093
  992MOL0     C33817   7.536   1.285   4.234  0.0118  0.3848  0.1815
  992MOL0     C33818   7.533   1.259   4.372  0.3358  0.4724  0.4701
  992MOL0     C33819   7.408   1.257   4.442  0.4492 -0.5113  0.5595
  992MOL0     O33820   7.422   1.229   4.585  1.0368  0.3599  0.3105
  992MOL0     C33821   7.338   1.312   4.671 -0.4176 -0.3399  0.1484
  992MOL0     C33822   7.420   1.438   4.696 -0.2205 -0.1211  0.2695
  992MOL0     C33823   7.552   1.427   4.777 -0.3709  0.5486  0.5359
  992MOL0     C33824   7.600   1.558   4.831 -0.7430  0.4597  0.0497
  992MOL0     C33825   7.735   1.531   4.900 -0.6685 -0.3725  0.0242
  992MOL0     C33826   7.841   1.535   4.791  0.2980 -0.9001  0.0166
  992MOL0     C33827   7.981   1.516   4.837  0.7667  0.0272 -0.2956
  992MOL0     C33828   8.071   1.486   4.724 -0.1606 -0.5370  0.7298
  992MOL0    Cl33829   8.251   1.471   4.787  0.4663 -0.0446  0.0715
  992MOL0     C33830   7.288   1.266   4.377  0.1271  0.3260 -0.5295
  992MOL0     C33831   7.293   1.292   4.243  0.6368 -0.1634 -1.0792
  992MOL0     O33832   7.489   1.119   3.954  0.7107  0.3255  0.0189
  992MOL0     C33833   7.440   1.192   3.698  0.0877  0.1957  0.2558
  992MOL0     C33834   7.406   1.226   3.569 -0.3502 -0.6238 -0.2969
  992MOL0     N33835   6.828   1.133   3.074  0.0473 -0.2583 -0.3617
  992MOL0     N33836   6.729   1.218   3.064 -0.4076  0.1680  1.1943
  992MOL0     C33837   5.731   1.539   3.264 -0.2600  0.7244  0.7116
  992MOL0     C33838   5.602   1.523   3.313  0.2268 -0.6311 -0.4161
  992MOL0     C33839   5.185   1.605   3.467 -0.0793  0.5866  0.0338
  992MOL0     C33840   5.169   1.516   3.572  0.5280 -0.3686  0.5764
  992MOL0     C33841   5.043   1.455   3.602  0.1113 -0.5912 -0.4799
  992MOL0     C33842   4.931   1.484   3.519 -0.1315  0.7277 -0.0549
  992MOL0     O33843   4.803   1.439   3.565 -0.5206 -0.4248  0.5642
  992MOL0     C33844   4.781   1.309   3.616 -1.2768  0.3689 -0.2109
  992MOL0     C33845   4.635   1.313   3.661  0.1070  1.0920 -0.3971
  992MOL0     C33846   4.622   1.372   3.807 -0.0850 -0.4072 -0.5173
  992MOL0     C33847   4.492   1.396   3.862  0.7422  1.1194 -0.0827
  992MOL0     C33848   4.394   1.283   3.848 -0.5598  0.4400  0.2171
  992MOL0     C33849   4.311   1.198   3.816  0.9947  0.1465 -0.3037
  992MOL0     C33850   4.944   1.580   3.426 -0.0129 -0.6189  1.2141
  992MOL0     C33851   5.067   1.643   3.396 -0.1183 -0.0640 -0.2746
  992MOL0     C33852   5.055   1.752   3.299 -0.6607 -0.8200  0.2796
  992MOL0     H33853   5.590   1.797   3.516 -2.6500 -0.3666 -0.7329
  992MOL0     H33854   5.847   1.798   3.457  3.4750 -2.9268 -0.5682
  992MOL0     H33855   5.914   1.861   3.240  1.1133  1.5329  2.9851
  992MOL0     H33856   6.043   1.832   3.335  1.1611  2.8891 -1.4254
  992MOL0     H33857   6.119   1.903   3.110 -0.3531  1.4499  2.1609
  992MOL0     H33858   6.024   1.773   3.047 -1.4289  3.5285  1.2441
  992MOL0     H33859   6.175   1.607   3.174  1.9198 -0.6878  1.1336
  992MOL0     H33860   6.284   1.745   3.223 -2.1486  0.7872  1.6209
  992MOL0     H33861   6.248   1.639   2.939  0.0362  1.1613  0.2349
  992MOL0     H33862   6.338   1.787   2.984  0.3968 -0.4885 -2.7088
  992MOL0     H33863   6.451   1.586   3.148 -1.9591 -1.7623  0.5807
  992MOL0     H33864   6.359   1.492   3.030 -2.2619  1.5413  1.1134
  992MOL0     H33865   6.474   1.593   2.841  1.1973 -2.1907 -0.3250
  992MOL0     H33866   6.565   1.700   2.933  2.6901 -1.3851 -1.6835
  992MOL0     H33867   6.706   1.500   2.876  0.4665 -2.0362 -0.8539
  992MOL0     H33868   6.579   1.392   2.911  0.1296  0.3226 -0.0327
  992MOL0     H33869   6.747   1.542   3.114  1.1047 -0.2789 -0.7852
  992MOL0     H33870   6.595   1.443   3.157 -2.5044 -0.9855 -2.8797
  992MOL0     H33871   6.969   1.419   3.174 -1.6096 -0.0139  3.6950
  992MOL0     H33872   7.067   1.044   3.071 -3.0906 -1.6451  2.4282
  992MOL0     H33873   7.150   1.205   3.095 -0.5049 -0.8596 -3.0000
  992MOL0     H33874   7.004   1.021   3.300  1.8887 -1.4447  2.7797
  992MOL0     H33875   7.177   1.005   3.254 -2.0531 -2.1486 -1.0756
  992MOL0     H33876   7.175   1.128   3.459  1.7429 -0.3680 -0.7432
  992MOL0     H33877   7.045   1.243   3.389 -0.8829 -0.6549 -2.5458
  992MOL0     H33878   7.192   1.341   3.254 -1.8909 -2.3660 -0.0789
  992MOL0     H33879   7.330   1.218   3.303 -0.2381 -0.0905 -2.2321
  992MOL0     H33880   7.269   1.520   3.624 -0.7991  0.1773  2.3358
  992MOL0     H33881   7.350   1.461   3.857  2.0479 -2.5039  2.3013
  992MOL0     H33882   7.623   1.303   4.172  0.4471 -2.0120 -0.0049
  992MOL0     H33883   7.622   1.243   4.432  2.0737  0.9054 -1.8544
  992MOL0     H33884   7.241   1.344   4.631  0.2769 -0.3173 -1.5863
  992MOL0     H33885   7.322   1.263   4.768 -0.9064 -2.5123 -0.9688
  992MOL0     H33886   7.453   1.472   4.597  0.1240 -0.8206  0.1326
  992MOL0     H33887   7.353   1.506   4.750 -1.0937 -0.1614 -0.7260
  992MOL0     H33888   7.539   1.349   4.853 -0.5778 -1.4338 -1.4356
  992MOL0     H33889   7.620   1.383   4.703  2.0413  4.7327 -0.0837
  992MOL0     H33890   7.529   1.589   4.907 -0.3596 -2.4266  1.7165
  992MOL0     H33891   7.612   1.639   4.758  1.8645 -0.6978 -0.9587
  992MOL0     H33892   7.739   1.431   4.945 -0.3746 -0.8893 -1.0829
  992MOL0     H33893   7.754   1.596   4.985 -2.1147 -1.4184  1.1896
  992MOL0     H33894   7.829   1.456   4.716  2.9843  0.4202 -2.0119
  992MOL0     H33895   7.831   1.631   4.738 -1.6899 -1.5041 -0.7814
  992MOL0     H33896   7.999   1.428   4.900 -0.2743 -0.2667 -0.3977
  992MOL0     H33897   8.029   1.599   4.890  0.8634 -0.7524  0.8875
  992MOL0     H33898   8.046   1.387   4.685  0.9613 -1.3375  1.9202
  992MOL0     H33899   8.070   1.565   4.648 -0.0680 -1.1660  0.0700
  992MOL0     H33900   7.199   1.266   4.439 -0.5413  1.1370 -1.4551
  992MOL0     H33901   7.199   1.293   4.188  0.5670  1.0272 -0.9826
  992MOL0     H33902   7.491   1.098   3.713 -1.1432 -0.7199 -1.1286
  992MOL0     H33903   7.430   1.157   3.488  2.5479  2.0260 -1.8962
  992MOL0     H33904   5.775   1.473   3.191  2.1722  0.9243  1.8887
  992MOL0     H33905   5.544   1.440   3.274  0.2512 -0.6158 -0.4833
  992MOL0     H33906   5.254   1.504   3.638  0.4167  0.4018  0.8768
  992MOL0     H33907   5.033   1.407   3.699  0.6343 -0.1106 -0.1813
  992MOL0     H33908   4.861   1.282   3.686 -0.2733  2.7499 -0.3374
  992MOL0     H33909   4.787   1.242   3.530 -1.9585  1.2873 -0.9948
  992MOL0     H33910   4.593   1.212   3.656  3.5609 -0.5946  1.1034
  992MOL0     H33911   4.573   1.373   3.593 -0.1887  0.9250 -0.2780
  992MOL0     H33912   4.683   1.463   3.801 -0.3492 -0.2380 -0.6263
  992MOL0     H33913   4.678   1.302   3.870 -1.1988 -0.5986  0.2915
  992MOL0     H33914   4.500   1.411   3.970  1.1626  0.1629  0.0232
  992MOL0     H33915   4.441   1.481   3.815 -2.5120  0.7782  2.4446
  992MOL0     H33916   4.236   1.125   3.790  0.9015 -0.4032  1.4248
  992MOL0     H33917   4.853   1.605   3.371  0.2471  1.2673  1.5638
  992MOL0     H33918   5.132   1.735   3.222 -0.7900  0.0121 -0.0505
  992MOL0     H33919   4.962   1.754   3.242 -1.3398  0.5219  1.3805
  992MOL0     H33920   5.060   1.852   3.343 -4.4489  0.2522 -1.3172
  993MOL0     O33921   7.644   2.158   0.259 -0.2387  0.3609  0.6392
  993MOL0     C33922   7.615   2.196   0.375  0.3907  0.6172 -0.3863
  993MOL0     O33923   7.702   2.232   0.473 -0.2176 -0.1554  0.5179
  993MOL0     C33924   7.840   2.262   0.458  0.1699 -1.1434  0.1431
  993MOL0     C33925   7.914   2.282   0.575 -0.0628 -0.4304  0.5499
  993MOL0     C33926   8.050   2.309   0.581 -0.2163 -1.3479 -0.1944
  993MOL0     C33927   8.120   2.302   0.461 -0.7192  0.7047 -0.0472
  993MOL0     O33928   8.260   2.323   0.478  0.1227 -0.7707  0.9422
  993MOL0     C33929   8.344   2.314   0.362  0.8129 -0.2800 -0.5476
  993MOL0     C33930   8.480   2.369   0.402 -0.0069 -0.1930 -0.3461
  993MOL0     C33931   8.560   2.400   0.279 -0.1496  1.2675  0.8758
  993MOL0     C33932   8.694   2.452   0.316 -0.3051  0.4851  0.3498
  993MOL0     C33933   8.737   2.567   0.215  0.7066 -0.7344 -1.0986
  993MOL0     C33934   8.875   2.601   0.235 -0.0567 -0.8956 -0.4657
  993MOL0     C33935   8.920   2.731   0.164  1.0626  0.2998 -0.1456
  993MOL0     C33936   9.053   2.782   0.210 -0.1006 -0.2475 -0.3674
  993MOL0     N33937   9.153   2.732   0.120 -0.1628 -0.6772  1.1287
  993MOL0     C33938   9.248   2.802   0.059 -0.6585 -0.8256  0.7776
  993MOL0     C33939   9.325   2.715  -0.018 -0.8533  0.0820 -0.9156
  993MOL0     C33940   9.441   2.736  -0.118  0.3723  0.1085  0.0802
  993MOL0     C33941   9.560   2.814  -0.062  1.3545  0.4566 -0.1066
  993MOL0     C33942   9.681   2.809  -0.151  0.5500  0.2470 -0.2684
  993MOL0     C33943   9.802   2.897  -0.085 -0.7110  0.2400  0.7971
  993MOL0     O33944   9.895   2.924  -0.199 -0.4317 -0.1204 -0.1654
  993MOL0     C33945  10.008   2.984  -0.174 -0.9639 -0.5455  0.0587
  993MOL0     C33946  10.078   3.044  -0.285  0.4583 -0.3644 -0.1151
  993MOL0     C33947  10.201   3.117  -0.261  0.0284  0.4981  0.5602
  993MOL0     C33948  10.259   3.132  -0.133 -0.5082  0.5205  0.1959
  993MOL0     C33949  10.383   3.213  -0.124 -0.1972 -0.2921  0.1621
  993MOL0     O33950  10.461   3.195  -0.015  0.2322 -0.6102 -0.2226
  993MOL0     C33951  10.584   3.252   0.003 -0.7803  0.1234 -0.3439
  993MOL0     C33952  10.661   3.336  -0.080  0.4042  0.5754  1.3935
  993MOL0     C33953  10.784   3.392  -0.041  0.3175  0.4534 -0.1105
  993MOL0     C33954  10.831   3.371   0.086 -0.3448  0.0562 -0.1567
  993MOL0     O33955  10.950   3.432   0.116  0.8133  0.3159  0.9078
  993MOL0     C33956  11.037   3.381   0.206 -0.0874  0.6497 -0.0368
  993MOL0     C33957  11.171   3.447   0.209 -0.4138  0.5341  0.1377
  993MOL0     C33958  11.244   3.421   0.081  0.3239  0.0620  0.3073
  993MOL0     C33959  11.349   3.532   0.067 -1.0765 -0.5242 -0.0573
  993MOL0     C33960  11.420   3.538  -0.067 -0.8394  0.5773  0.3212
  993MOL0     C33961  11.558   3.477  -0.066 -0.1758  0.7306 -0.5234
  993MOL0     C33962  11.544   3.327  -0.075 -0.3579  0.1403 -0.2836
  993MOL0     C33963  11.674   3.255  -0.030  0.2765  1.0651  0.0953
  993MOL0    Cl33964  11.782   3.265  -0.164  0.1869  0.4779  0.0482
  993MOL0     C33965  10.757   3.306   0.181 -0.0152 -0.0221 -0.2587
  993MOL0     C33966  10.640   3.244   0.132 -0.1666  0.2489  0.2292
  993MOL0     O33967  10.411   3.281  -0.220 -0.6806  0.6808  0.4751
  993MOL0     C33968  10.194   3.070  -0.026 -0.5684  0.1249 -0.0699
  993MOL0     C33969  10.076   3.003  -0.048 -0.3014 -0.3497  0.5089
  993MOL0     N33970   9.282   2.590   0.021  0.0165 -0.2646  0.4556
  993MOL0     N33971   9.175   2.598   0.097 -0.0211 -0.5188 -0.2091
  993MOL0     C33972   8.054   2.278   0.343  0.7362 -0.0749 -0.3025
  993MOL0     C33973   7.916   2.255   0.338 -0.9770 -0.2854 -0.4381
  993MOL0     C33974   7.476   2.213   0.407  0.1700 -0.4115 -0.7502
  993MOL0     C33975   7.454   2.254   0.539  0.1601 -0.1350 -0.1841
  993MOL0     C33976   7.322   2.272   0.575  0.4506  0.6293 -0.3145
  993MOL0     C33977   7.215   2.252   0.496 -0.1476 -0.0810 -0.2810
  993MOL0     O33978   7.088   2.277   0.534  0.1622  0.7011  0.2568
  993MOL0     C33979   7.050   2.308   0.666 -0.9548 -0.3909 -0.5115
  993MOL0     C33980   6.907   2.344   0.656  0.3551 -0.0799 -0.8104
  993MOL0     C33981   6.848   2.331   0.796  0.1847  0.6244 -0.2950
  993MOL0     C33982   6.727   2.407   0.821  0.3434 -0.1895 -0.7122
  993MOL0     C33983   6.711   2.421   0.968 -0.2291  0.0705  0.1301
  993MOL0     C33984   6.699   2.422   1.088 -0.3113 -0.5401  0.7102
  993MOL0     C33985   7.240   2.197   0.374 -0.1593  0.1056  0.2911
  993MOL0     C33986   7.366   2.179   0.324 -1.2068 -0.7276  1.1647
  993MOL0     C33987   7.371   2.126   0.177 -0.0078 -0.3777 -0.4336
  993MOL0     H33988   7.862   2.246   0.663 -0.3802 -1.4017 -0.0164
  993MOL0     H33989   8.117   2.306   0.667  1.9197 -0.0181 -1.7080
  993MOL0     H33990   8.358   2.212   0.323 -0.4664 -0.5339 -0.3678
  993MOL0     H33991   8.309   2.391   0.292 -3.4414 -1.3319  0.1580
  993MOL0     H33992   8.526   2.298   0.471 -0.7782  0.0605  0.4488
  993MOL0     H33993   8.458   2.460   0.460  0.3831  2.1057 -3.5213
  993MOL0     H33994   8.523   2.483   0.217  1.0592  2.0047  1.0809
  993MOL0     H33995   8.576   2.312   0.216 -1.5286  1.3000  0.4643
  993MOL0     H33996   8.696   2.490   0.419  0.0630 -2.6208  1.5843
  993MOL0     H33997   8.764   2.368   0.319 -1.2409 -0.3009  0.5501
  993MOL0     H33998   8.720   2.538   0.111 -2.6535  2.2225 -1.5522
  993MOL0     H33999   8.672   2.653   0.235  1.1565 -0.3935 -1.0778
  993MOL0     H34000   8.894   2.613   0.342 -1.0547 -0.5543 -0.3158
  993MOL0     H34001   8.945   2.523   0.204  2.1279 -1.4273  4.7224
  993MOL0     H34002   8.858   2.816   0.193 -0.2303 -1.0440  1.2263
  993MOL0     H34003   8.928   2.711   0.057  1.6115 -0.0333 -0.0439
  993MOL0     H34004   9.050   2.892   0.209  1.0869 -0.1800  0.4540
  993MOL0     H34005   9.072   2.756   0.315  0.7477  0.6782 -0.2725
  993MOL0     H34006   9.261   2.910   0.058  0.0059 -0.8380 -2.4508
  993MOL0     H34007   9.475   2.641  -0.159  1.6468  0.9269 -0.8252
  993MOL0     H34008   9.401   2.794  -0.202  3.5971 -0.4256 -2.0168
  993MOL0     H34009   9.533   2.919  -0.047  0.7808  0.2899  0.0714
  993MOL0     H34010   9.576   2.768   0.036  1.6255 -1.0819 -0.8354
  993MOL0     H34011   9.665   2.849  -0.252 -2.4212  0.7008  0.2654
  993MOL0     H34012   9.716   2.707  -0.165  0.2128  0.3569 -2.1766
  993MOL0     H34013   9.849   2.839  -0.005 -1.0600 -0.1763  0.7056
  993MOL0     H34014   9.768   2.993  -0.047 -2.2118 -0.0730  0.3141
  993MOL0     H34015  10.029   3.037  -0.381  0.3563  1.0990 -0.1917
  993MOL0     H34016  10.257   3.153  -0.347  0.3028  0.4016  0.6969
  993MOL0     H34017  10.632   3.369  -0.180 -0.2219 -0.8744  1.0783
  993MOL0     H34018  10.837   3.454  -0.113  0.2069 -1.6206 -2.0758
  993MOL0     H34019  10.991   3.401   0.303 -1.8415 -0.3552 -0.6156
  993MOL0     H34020  11.042   3.274   0.183  1.2071  0.6787  0.0422
  993MOL0     H34021  11.168   3.553   0.237  0.2279 -0.1527  3.2198
  993MOL0     H34022  11.226   3.406   0.294  0.0588  1.1740  0.1493
  993MOL0     H34023  11.277   3.317   0.072 -0.3819 -0.0875 -0.8190
  993MOL0     H34024  11.172   3.423  -0.002 -0.3896  2.8820  0.8851
  993MOL0     H34025  11.420   3.529   0.149 -1.9424 -1.0237  0.6891
  993MOL0     H34026  11.298   3.629   0.077 -1.4067 -0.8249  1.3374
  993MOL0     H34027  11.432   3.640  -0.103 -1.4647  0.1884 -1.0853
  993MOL0     H34028  11.371   3.479  -0.146  0.6624  1.6929 -1.5316
  993MOL0     H34029  11.629   3.504  -0.144 -1.0850  0.8470 -1.3209
  993MOL0     H34030  11.607   3.498   0.030 -1.4132 -0.2337  0.3588
  993MOL0     H34031  11.505   3.289  -0.170 -1.1360 -0.8440  0.4082
  993MOL0     H34032  11.462   3.288  -0.014  0.8631 -0.4128  1.0347
  993MOL0     H34033  11.716   3.306   0.057 -2.4571  0.7160  1.7071
  993MOL0     H34034  11.662   3.148  -0.013  1.7147  0.5987 -1.4758
  993MOL0     H34035  10.793   3.301   0.283 -2.0700  0.2866  0.5304
  993MOL0     H34036  10.573   3.202   0.207 -0.2202  0.3920  0.2621
  993MOL0     H34037  10.237   3.078   0.073  0.8147 -0.4838 -0.5914
  993MOL0     H34038  10.022   2.958   0.035 -0.7251  2.7387  2.0355
  993MOL0     H34039   8.113   2.273   0.252 -0.4774  0.0220 -1.1220
  993MOL0     H34040   7.873   2.230   0.242  0.7199 -1.8602 -0.8517
  993MOL0     H34041   7.530   2.274   0.613  0.1336  2.1013 -0.6703
  993MOL0     H34042   7.310   2.306   0.677 -0.6421  0.0750 -0.2421
  993MOL0     H34043   7.109   2.390   0.709 -2.3814  1.2763 -1.5965
  993MOL0     H34044   7.063   2.221   0.731 -0.5657  1.0607  1.4419
  993MOL0     H34045   6.863   2.276   0.583 -1.0901 -0.6084  0.4839
  993MOL0     H34046   6.898   2.449   0.624 -3.7811 -0.3160 -1.0195
  993MOL0     H34047   6.921   2.358   0.873  1.3561  0.4174 -1.3089
  993MOL0     H34048   6.841   2.223   0.811  1.6046  0.7424  1.6102
  993MOL0     H34049   6.729   2.507   0.777  1.9482  0.7023  1.2760
  993MOL0     H34050   6.643   2.346   0.786 -0.2735 -2.0862  3.5526
  993MOL0     H34051   6.680   2.411   1.193 -1.0496 -2.9483  0.3822
  993MOL0     H34052   7.159   2.175   0.306  0.2566 -2.5861  0.5524
  993MOL0     H34053   7.279   2.156   0.126  1.6838  2.6527 -2.0041
  993MOL0     H34054   7.442   2.176   0.111 -2.9547  2.4702 -1.7172
  993MOL0     H34055   7.385   2.019   0.162  1.1416 -0.0092 -2.2229
  994MOL0     O34056   4.578   0.986   8.564  0.1692  0.0980 -0.7332
  994MOL0     C34057   4.628   0.983   8.452  0.8728 -0.1784 -0.6214
  994MOL0     O34058   4.564   0.978   8.332 -0.2403  0.5811  0.1812
  994MOL0     C34059   4.443   0.920   8.315 -0.6447  0.2355  0.2308
  994MOL0     C34060   4.344   1.002   8.273  0.2221  0.0487  0.6865
  994MOL0     C34061   4.212   0.955   8.258  0.0982  0.1777 -0.4001
  994MOL0     C34062   4.191   0.818   8.258 -0.8288  0.0696 -0.5951
  994MOL0     O34063   4.065   0.776   8.228  0.6771  0.2952  0.0931
  994MOL0     C34064   4.052   0.713   8.099  0.0812  0.0215  0.7597
  994MOL0     C34065   3.923   0.768   8.026 -0.3872 -0.5106  0.1383
  994MOL0     C34066   3.934   0.916   7.993 -1.1034  0.4384  0.7569
  994MOL0     C34067   4.030   0.938   7.872  0.8241 -0.6476  0.6026
  994MOL0     C34068   4.040   1.094   7.854 -0.4004  0.7227  0.7280
  994MOL0     C34069   4.109   1.114   7.725 -0.1604  0.1513  0.2726
  994MOL0     C34070   4.124   1.263   7.708 -0.8777 -0.7139  2.1660
  994MOL0     C34071   4.185   1.285   7.567  0.1623  0.0841 -0.2447
  994MOL0     N34072   4.225   1.422   7.535 -0.5120  0.4557 -0.3439
  994MOL0     C34073   4.332   1.498   7.587  0.0223 -0.1097 -0.0864
  994MOL0     C34074   4.335   1.616   7.526 -0.6636  0.6916 -1.3750
  994MOL0     C34075   4.436   1.720   7.557 -0.0873 -0.3165 -0.8769
  994MOL0     C34076   4.430   1.833   7.458 -1.0734 -0.6331 -1.0514
  994MOL0     C34077   4.466   1.785   7.315 -0.1381 -0.9136 -0.5549
  994MOL0     C34078   4.481   1.911   7.233 -0.0651 -0.1372  0.9206
  994MOL0     O34079   4.348   1.958   7.198 -0.2902 -0.0242  0.2931
  994MOL0     C34080   4.327   2.085   7.243  0.0596  0.4295 -0.2978
  994MOL0     C34081   4.210   2.101   7.316  0.1037 -0.0016  0.4002
  994MOL0     C34082   4.179   2.226   7.371 -0.2465 -0.1525  0.8512
  994MOL0     C34083   4.258   2.335   7.348  0.3733 -0.3529  0.9700
  994MOL0     C34084   4.222   2.465   7.402  0.7948 -0.0157  0.3849
  994MOL0     O34085   4.314   2.569   7.400 -0.0375 -0.1835 -0.0522
  994MOL0     C34086   4.285   2.701   7.437  0.4295 -0.2903 -0.2842
  994MOL0     C34087   4.210   2.730   7.553 -0.3122  0.2488  0.0475
  994MOL0     C34088   4.181   2.860   7.588  0.6521 -0.4708 -0.5742
  994MOL0     C34089   4.207   2.965   7.500 -0.5474  0.9459  0.0723
  994MOL0     O34090   4.197   3.095   7.537  0.2729 -0.3231  0.3683
  994MOL0     C34091   4.062   3.135   7.579 -0.6869 -0.1183 -0.5365
  994MOL0     C34092   4.053   3.275   7.623  0.1085  0.0848  0.1132
  994MOL0     C34093   4.087   3.361   7.500  0.2704 -0.7141  0.2034
  994MOL0     C34094   4.085   3.515   7.531 -0.2631  0.7968  0.0146
  994MOL0     C34095   4.138   3.596   7.415  0.8240  0.0220  0.0222
  994MOL0     C34096   4.080   3.739   7.425 -0.4303 -0.1783 -0.0806
  994MOL0     C34097   4.144   3.839   7.330  0.1344  0.5637 -0.0118
  994MOL0     C34098   4.099   3.979   7.331 -0.7594  0.1797 -0.5697
  994MOL0    Cl34099   4.070   4.061   7.481  0.0884 -0.1647 -0.2004
  994MOL0     C34100   4.291   2.937   7.388 -0.2351  0.0816 -1.1823
  994MOL0     C34101   4.328   2.805   7.354 -0.2399  0.1351  0.3016
  994MOL0     O34102   4.107   2.476   7.444  0.5122 -0.2966  0.7824
  994MOL0     C34103   4.378   2.315   7.282  0.0976  0.5106 -0.0891
  994MOL0     C34104   4.412   2.192   7.225 -0.0466 -0.6086 -0.5975
  994MOL0     N34105   4.225   1.610   7.436 -0.2173 -0.5144  0.1337
  994MOL0     N34106   4.161   1.496   7.444 -0.4786 -0.4859 -0.1023
  994MOL0     C34107   4.308   0.733   8.279  0.1305 -0.7908  0.9986
  994MOL0     C34108   4.427   0.781   8.322 -0.0932 -0.0710 -0.2206
  994MOL0     C34109   4.771   0.998   8.437  0.0857 -0.2193  0.4517
  994MOL0     C34110   4.834   0.918   8.347  1.0005 -0.6606  0.2387
  994MOL0     C34111   4.967   0.939   8.317  0.0806  0.0248  0.6272
  994MOL0     C34112   5.042   1.037   8.364 -0.6516  1.2299 -0.7736
  994MOL0     O34113   5.180   1.051   8.335  0.0631 -0.3832  0.4117
  994MOL0     C34114   5.212   1.190   8.291  0.9140 -0.2966  0.0961
  994MOL0     C34115   5.314   1.192   8.178 -0.0616  0.0727 -0.3872
  994MOL0     C34116   5.450   1.141   8.223 -0.3524 -0.9622  1.0199
  994MOL0     C34117   5.536   1.117   8.095  0.0169 -0.2207 -0.8186
  994MOL0     C34118   5.668   1.057   8.136 -0.3223  0.6178 -0.4926
  994MOL0     C34119   5.771   1.010   8.177  0.1473  0.4207 -0.3374
  994MOL0     C34120   4.971   1.125   8.460 -0.7558  0.4070 -0.4015
  994MOL0     C34121   4.845   1.099   8.507 -0.1425  0.6148  0.7155
  994MOL0     C34122   4.806   1.177   8.629  0.1379 -0.7341  0.4426
  994MOL0     H34123   4.359   1.109   8.275  3.9132 -0.3454  3.1255
  994MOL0     H34124   4.125   1.021   8.251 -0.4361 -0.2919  1.3336
  994MOL0     H34125   4.141   0.727   8.037 -0.2113  1.7247  0.6983
  994MOL0     H34126   4.053   0.604   8.114 -1.8754  0.0722  1.5995
  994MOL0     H34127   3.836   0.759   8.092 -2.0166 -1.2190 -1.9698
  994MOL0     H34128   3.896   0.720   7.931 -2.9439 -1.8296  1.4166
  994MOL0     H34129   3.974   0.972   8.078 -1.8353  1.5912  0.3567
  994MOL0     H34130   3.838   0.964   7.975 -0.4253  1.3771 -0.5638
  994MOL0     H34131   4.134   0.909   7.889  0.4165 -1.7192  1.3780
  994MOL0     H34132   3.991   0.892   7.780 -2.9255  0.2857  1.5268
  994MOL0     H34133   3.939   1.136   7.852 -0.6062  0.2025 -0.1553
  994MOL0     H34134   4.094   1.132   7.942  0.4308  0.2231  0.4387
  994MOL0     H34135   4.209   1.068   7.722 -0.3118 -0.1475 -0.3695
  994MOL0     H34136   4.049   1.067   7.647  1.5002  0.2890 -1.1688
  994MOL0     H34137   4.189   1.311   7.782  2.4034 -3.0217  1.0317
  994MOL0     H34138   4.026   1.311   7.714 -1.3621 -1.5565  1.3011
  994MOL0     H34139   4.273   1.222   7.550 -1.5109 -1.7042 -2.9247
  994MOL0     H34140   4.117   1.244   7.493 -0.8667  0.0149  0.7098
  994MOL0     H34141   4.396   1.474   7.671  0.2564  1.8334  0.3430
  994MOL0     H34142   4.423   1.765   7.655 -1.3759  0.9401 -1.5856
  994MOL0     H34143   4.537   1.676   7.561  1.0666  2.1581 -0.8364
  994MOL0     H34144   4.334   1.886   7.464 -1.6343 -1.7610  1.0528
  994MOL0     H34145   4.503   1.905   7.494 -3.5717  1.9912 -0.8637
  994MOL0     H34146   4.392   1.712   7.280 -1.3770 -0.6865  1.4369
  994MOL0     H34147   4.567   1.742   7.324  0.7564  1.0813 -0.4863
  994MOL0     H34148   4.513   1.887   7.131  0.9190  1.5369  0.7938
  994MOL0     H34149   4.552   1.984   7.274  1.0787 -0.9892  0.5298
  994MOL0     H34150   4.150   2.014   7.345  0.8682 -1.3785 -1.8855
  994MOL0     H34151   4.088   2.249   7.426 -2.2924  0.0808 -2.3716
  994MOL0     H34152   4.182   2.654   7.625 -0.5469  0.0804 -0.2190
  994MOL0     H34153   4.132   2.867   7.685 -0.2841 -3.4369 -0.7471
  994MOL0     H34154   3.986   3.100   7.509 -0.8004 -3.1686  0.9332
  994MOL0     H34155   4.028   3.070   7.660  1.7044 -2.1631 -1.0646
  994MOL0     H34156   3.952   3.306   7.652  0.4463 -0.0199  1.4550
  994MOL0     H34157   4.112   3.289   7.714  0.2072 -3.8099  0.8269
  994MOL0     H34158   4.183   3.322   7.463 -0.8409 -1.8688 -1.6687
  994MOL0     H34159   4.016   3.338   7.420  1.0914  0.1765 -0.8096
  994MOL0     H34160   4.153   3.526   7.616  0.5998 -2.4102 -0.1263
  994MOL0     H34161   3.981   3.546   7.546 -0.9309 -1.6273  0.9481
  994MOL0     H34162   4.131   3.557   7.313  1.7194 -0.7265  0.2383
  994MOL0     H34163   4.246   3.600   7.430  0.8972 -1.4430 -0.0329
  994MOL0     H34164   3.972   3.739   7.403 -0.6473  1.0653  0.9027
  994MOL0     H34165   4.097   3.774   7.527  0.5993 -1.4311  0.2014
  994MOL0     H34166   4.124   3.789   7.235 -0.0138  0.9468 -0.1827
  994MOL0     H34167   4.247   3.864   7.356  0.6906  4.2019 -4.4390
  994MOL0     H34168   4.168   4.036   7.269 -1.5682 -1.0987 -2.7724
  994MOL0     H34169   3.998   3.972   7.290 -0.7287 -2.8761 -0.2960
  994MOL0     H34170   4.325   3.018   7.324 -0.9467  0.3149 -1.2729
  994MOL0     H34171   4.392   2.779   7.270 -0.1101 -2.0912  1.0361
  994MOL0     H34172   4.439   2.400   7.255 -0.0708  0.4774 -0.5980
  994MOL0     H34173   4.507   2.184   7.172  0.2397 -0.9695 -0.0471
  994MOL0     H34174   4.295   0.626   8.266  1.1508 -0.6705 -1.7618
  994MOL0     H34175   4.511   0.712   8.332  1.9834  2.2048 -0.9482
  994MOL0     H34176   4.782   0.843   8.288 -0.2520  1.0766 -0.9878
  994MOL0     H34177   5.028   0.879   8.251  2.3255  2.6343  0.1665
  994MOL0     H34178   5.226   1.260   8.374  0.3536 -1.2224  0.9946
  994MOL0     H34179   5.119   1.222   8.243 -0.9170  0.0226  3.5048
  994MOL0     H34180   5.324   1.297   8.150 -0.3890  0.1491 -0.2265
  994MOL0     H34181   5.274   1.138   8.091  1.7052 -1.3130 -0.3950
  994MOL0     H34182   5.432   1.050   8.281 -1.7803 -0.1384  1.9385
  994MOL0     H34183   5.497   1.215   8.288  1.1315  0.9434 -1.9678
  994MOL0     H34184   5.486   1.059   8.017  1.2095 -1.4573 -0.7054
  994MOL0     H34185   5.543   1.219   8.055 -0.3998 -1.0082 -3.0357
  994MOL0     H34186   5.874   1.005   8.204  0.6064 -3.0299 -2.2347
  994MOL0     H34187   5.024   1.206   8.509 -1.4933  3.6074 -4.3266
  994MOL0     H34188   4.773   1.278   8.600  1.3401 -0.3846  0.2057
  994MOL0     H34189   4.715   1.138   8.675 -0.8700  1.8014  0.8093
  994MOL0     H34190   4.895   1.184   8.692  1.1689 -2.3942 -0.7634
  995MOL0     O34191   7.772   9.816   8.494  0.7210 -0.0335  0.0328
  995MOL0     C34192   7.682   9.752   8.444 -0.3134  0.0634  0.0022
  995MOL0     O34193   7.622   9.647   8.498 -0.8418 -0.4063 -0.0854
  995MOL0     C34194   7.679   9.588   8.614 -0.1862  0.6109 -0.5240
  995MOL0     C34195   7.819   9.568   8.647  0.5597  0.9184 -0.2520
  995MOL0     C34196   7.851   9.506   8.766 -0.0610 -0.2933 -0.8114
  995MOL0     C34197   7.754   9.459   8.857  0.1001 -1.1825  0.5141
  995MOL0     O34198   7.783   9.391   8.968 -0.6006 -0.3247  0.2692
  995MOL0     C34199   7.876   9.274   8.950  0.4547 -0.0027  0.5288
  995MOL0     C34200   7.908   9.226   9.087  0.1346 -0.5215 -0.3294
  995MOL0     C34201   7.788   9.177   9.169 -0.4388 -0.4527 -0.4068
  995MOL0     C34202   7.815   9.155   9.325 -0.2366 -0.1325 -0.5775
  995MOL0     C34203   7.690   9.115   9.399  0.2139  0.5932  1.0999
  995MOL0     C34204   7.634   8.977   9.346 -0.2525 -0.0481  0.6535
  995MOL0     C34205   7.729   8.865   9.380  0.6804 -0.0209  0.3045
  995MOL0     C34206   7.728   8.829   9.535  0.6405  0.7224 -0.2203
  995MOL0     N34207   7.827   8.723   9.552  0.6083  0.5943 -0.3429
  995MOL0     C34208   7.958   8.761   9.548 -0.1283 -0.1891 -0.7561
  995MOL0     C34209   8.014   8.648   9.499 -0.5383  0.2242 -0.2692
  995MOL0     C34210   8.159   8.618   9.469  0.1380 -0.2934  0.5109
  995MOL0     C34211   8.231   8.603   9.595  0.6439  0.9414 -0.5638
  995MOL0     C34212   8.332   8.486   9.590 -0.1122  0.8262  0.2342
  995MOL0     C34213   8.424   8.503   9.716  0.5499  0.7871 -0.4985
  995MOL0     O34214   8.346   8.524   9.840 -0.1698  0.3173  0.2782
  995MOL0     C34215   8.419   8.523   9.962 -0.0965  0.1218  0.1379
  995MOL0     C34216   8.555   8.509   9.966 -0.6407  0.2435 -1.2638
  995MOL0     C34217   8.618   8.519  10.089 -0.4376  0.1723  0.5545
  995MOL0     C34218   8.544   8.542  10.210  1.0287 -0.3513  0.8032
  995MOL0     C34219   8.621   8.551  10.333  0.3701 -0.1941  0.4068
  995MOL0     O34220   8.552   8.495  10.442  0.9270 -0.3155 -0.1677
  995MOL0     C34221   8.617   8.506  10.567  0.1963  0.4536  0.2229
  995MOL0     C34222   8.545   8.555  10.673 -0.4292 -0.5905 -0.1590
  995MOL0     C34223   8.612   8.592  10.795 -0.5728  1.0519  0.3453
  995MOL0     C34224   8.745   8.559  10.816 -0.3621  0.7889 -0.3518
  995MOL0     O34225   8.798   8.591  10.940 -0.7314 -0.2488  0.1237
  995MOL0     C34226   8.904   8.506  10.999  0.1448 -0.1469  0.6373
  995MOL0     C34227   9.015   8.607  11.059 -0.1137  0.5755 -0.3295
  995MOL0     C34228   9.122   8.538  11.140  0.5163  0.2549  0.1935
  995MOL0     C34229   9.229   8.635  11.178  0.1665 -0.2596 -0.2450
  995MOL0     C34230   9.351   8.576  11.219 -0.5756 -0.4007 -0.8649
  995MOL0     C34231   9.454   8.680  11.266 -0.4504 -0.2054  0.2428
  995MOL0     C34232   9.589   8.617  11.301  0.2682 -0.1035 -1.0378
  995MOL0     C34233   9.690   8.716  11.344 -0.2061  0.1230 -0.1045
  995MOL0    Cl34234   9.839   8.630  11.371 -0.4419 -0.0159  0.2725
  995MOL0     C34235   8.816   8.487  10.717 -0.1286 -0.6511  0.4764
  995MOL0     C34236   8.753   8.471  10.593  0.4574 -0.5750  0.6552
  995MOL0     O34237   8.738   8.590  10.332  0.5867 -0.1304 -0.7329
  995MOL0     C34238   8.405   8.544  10.204  0.1012 -0.3525 -0.1667
  995MOL0     C34239   8.345   8.547  10.081 -0.2842  0.4009 -0.3783
  995MOL0     N34240   7.917   8.548   9.474  0.3757  0.3088  0.0375
  995MOL0     N34241   7.806   8.598   9.511  0.1253  0.6402  0.4760
  995MOL0     C34242   7.621   9.475   8.834  0.6391  0.1478  1.0055
  995MOL0     C34243   7.580   9.536   8.711 -0.0924 -0.1828  0.5528
  995MOL0     C34244   7.619   9.810   8.320 -0.9580 -0.4733  0.1613
  995MOL0     C34245   7.610   9.951   8.315  0.6268 -0.6866  0.0715
  995MOL0     C34246   7.551  10.014   8.204  0.6337  0.7873 -0.4080
  995MOL0     C34247   7.472   9.940   8.112 -0.6379  1.0259  0.5269
  995MOL0     O34248   7.418   9.987   7.996 -0.1746 -0.8063  0.0689
  995MOL0     C34249   7.397  10.134   7.981 -0.0307  0.4030  0.4092
  995MOL0     C34250   7.314  10.162   7.853  0.2888 -0.1971  0.5864
  995MOL0     C34251   7.378  10.108   7.723  0.4905 -0.5196  0.0776
  995MOL0     C34252   7.505  10.182   7.691  0.0228  1.1872 -0.0170
  995MOL0     C34253   7.476  10.326   7.677 -0.1433 -0.2508  0.2954
  995MOL0     C34254   7.450  10.439   7.657 -0.1861 -0.7290  0.2347
  995MOL0     C34255   7.482   9.802   8.125  1.0954  0.6239  0.3831
  995MOL0     C34256   7.553   9.737   8.224  0.3684  0.2033  0.0966
  995MOL0     C34257   7.547   9.587   8.229  0.2534 -0.1003  0.5781
  995MOL0     H34258   7.903   9.620   8.604  1.1329  1.7598  1.7960
  995MOL0     H34259   7.958   9.497   8.784  0.5176  0.0773 -3.6067
  995MOL0     H34260   7.824   9.204   8.884  0.1608 -0.0177  0.7774
  995MOL0     H34261   7.975   9.300   8.911  1.1919 -2.3189  0.7028
  995MOL0     H34262   7.957   9.311   9.136 -1.2226  0.7870 -1.1312
  995MOL0     H34263   7.981   9.150   9.059 -2.2027 -2.1612 -2.3060
  995MOL0     H34264   7.757   9.083   9.124 -2.4132  1.2222 -2.8338
  995MOL0     H34265   7.705   9.247   9.158  1.7141  2.0880 -1.9929
  995MOL0     H34266   7.895   9.082   9.336 -0.6405 -0.4615  0.2188
  995MOL0     H34267   7.851   9.249   9.368  0.0762 -0.5707  0.1382
  995MOL0     H34268   7.700   9.112   9.508 -0.1155  3.2362  1.2773
  995MOL0     H34269   7.610   9.189   9.387 -1.1425 -0.9223  0.4826
  995MOL0     H34270   7.538   8.970   9.398 -0.8328  3.3729  0.3034
  995MOL0     H34271   7.619   8.984   9.238 -4.0389  0.6190  1.0712
  995MOL0     H34272   7.830   8.889   9.348  0.1212  0.2492 -1.3797
  995MOL0     H34273   7.681   8.782   9.326 -0.0431  2.5647 -3.4654
  995MOL0     H34274   7.759   8.915   9.595 -0.2951  1.1101 -0.2809
  995MOL0     H34275   7.630   8.794   9.569  1.2270  0.5554  1.4034
  995MOL0     H34276   7.994   8.858   9.583 -2.5336  1.4942 -2.5466
  995MOL0     H34277   8.164   8.524   9.414 -1.0839  0.3552 -0.7705
  995MOL0     H34278   8.209   8.687   9.400 -0.8502 -1.3026 -1.2802
  995MOL0     H34279   8.282   8.697   9.617 -0.7518  1.2104  1.8261
  995MOL0     H34280   8.164   8.590   9.680  0.7382  0.6157 -0.5375
  995MOL0     H34281   8.395   8.492   9.500  1.1400  0.8811  1.0829
  995MOL0     H34282   8.285   8.388   9.597  0.5793  0.3977 -0.9517
  995MOL0     H34283   8.479   8.597   9.701  1.7568  0.0372 -0.9555
  995MOL0     H34284   8.488   8.416   9.729  0.7587  1.2009  1.5400
  995MOL0     H34285   8.612   8.473   9.881 -3.0098 -2.5796 -1.8217
  995MOL0     H34286   8.725   8.515  10.109 -0.8089  0.3256  2.8438
  995MOL0     H34287   8.437   8.565  10.678 -0.2261  1.5122  3.1665
  995MOL0     H34288   8.555   8.639  10.874  0.0940 -0.2990  1.6826
  995MOL0     H34289   8.851   8.470  11.088 -1.1245 -1.7897 -0.7175
  995MOL0     H34290   8.944   8.432  10.929 -2.2159  0.8985 -2.0425
  995MOL0     H34291   9.040   8.655  10.965 -2.2122 -1.7867 -2.2444
  995MOL0     H34292   8.962   8.678  11.122 -0.7575 -1.1358  1.1633
  995MOL0     H34293   9.079   8.486  11.226 -0.1492  0.7490  0.1620
  995MOL0     H34294   9.167   8.470  11.067  3.2264  0.9188  1.1283
  995MOL0     H34295   9.186   8.698  11.256 -1.5932  0.3673 -1.6388
  995MOL0     H34296   9.259   8.692  11.089 -0.0537 -2.0460 -1.5100
  995MOL0     H34297   9.392   8.494  11.159 -1.3655 -1.0092 -0.5742
  995MOL0     H34298   9.330   8.518  11.309 -0.8443 -2.0029 -1.9175
  995MOL0     H34299   9.476   8.752  11.187 -1.5862 -0.9879 -0.8177
  995MOL0     H34300   9.420   8.735  11.354 -3.3102 -2.0384  0.4104
  995MOL0     H34301   9.624   8.567  11.210 -1.4811 -0.5909 -1.4859
  995MOL0     H34302   9.567   8.539  11.374  0.9448  0.3774 -0.2983
  995MOL0     H34303   9.704   8.780  11.256 -0.9669 -1.8396 -1.7350
  995MOL0     H34304   9.655   8.767  11.434 -1.6724 -2.8042  1.1037
  995MOL0     H34305   8.923   8.470  10.726  0.0014 -0.7480 -1.0865
  995MOL0     H34306   8.813   8.435  10.509 -1.4854  1.4560 -1.7568
  995MOL0     H34307   8.360   8.579  10.296  1.5130 -1.6503  1.0779
  995MOL0     H34308   8.241   8.575  10.085 -0.7914 -1.1625  4.8302
  995MOL0     H34309   7.545   9.423   8.891 -1.7841  0.6457 -1.5113
  995MOL0     H34310   7.476   9.539   8.682 -0.4496  4.3555  1.5705
  995MOL0     H34311   7.638  10.008   8.403 -2.6605  1.4922 -0.1220
  995MOL0     H34312   7.550  10.121   8.186  0.0023  0.5479 -1.9557
  995MOL0     H34313   7.491  10.187   7.962 -2.3545  3.9051 -3.2492
  995MOL0     H34314   7.352  10.188   8.065  2.0475  2.4065  0.3659
  995MOL0     H34315   7.284  10.268   7.852 -2.3384 -0.8346 -1.4734
  995MOL0     H34316   7.223  10.102   7.851  0.5160 -0.7885 -4.7021
  995MOL0     H34317   7.310  10.123   7.639  0.4177  0.7052  0.3470
  995MOL0     H34318   7.392   9.999   7.731 -2.2082 -0.8744  0.8523
  995MOL0     H34319   7.591  10.154   7.752 -0.6879 -1.8233 -0.2654
  995MOL0     H34320   7.530  10.140   7.593  0.1894 -1.0393  0.9313
  995MOL0     H34321   7.408  10.537   7.655  2.5076  0.5267 -0.5228
  995MOL0     H34322   7.448   9.736   8.045 -0.1851  3.0039 -1.1374
  995MOL0     H34323   7.524   9.540   8.134 -2.2771 -2.4790  2.2253
  995MOL0     H34324   7.641   9.541   8.261  0.0101 -2.0880 -1.3415
  995MOL0     H34325   7.466   9.578   8.302 -0.2658 -0.7184 -0.0721
  996MOL0     O34326   2.313   6.868  10.818  0.5470  0.2912  0.7525
  996MOL0     C34327   2.417   6.798  10.806  0.5348  0.1993  0.5489
  996MOL0     O34328   2.516   6.809  10.721 -0.3862  0.5064 -0.3390
  996MOL0     C34329   2.505   6.912  10.635  0.6265 -0.0053  0.0769
  996MOL0     C34330   2.491   7.050  10.678 -0.5028 -0.8350  0.4505
  996MOL0     C34331   2.474   7.150  10.583  0.0019 -0.4419 -0.4012
  996MOL0     C34332   2.469   7.127  10.452 -0.3776 -0.1484  0.7486
  996MOL0     O34333   2.452   7.223  10.356  0.4831  0.1976 -0.0895
  996MOL0     C34334   2.456   7.365  10.383 -0.3680 -0.4757 -0.1411
  996MOL0     C34335   2.539   7.436  10.275  0.4450 -0.8443  0.3794
  996MOL0     C34336   2.551   7.580  10.303  0.0929 -0.2597 -0.0794
  996MOL0     C34337   2.652   7.659  10.218  0.1564 -0.2490 -0.1788
  996MOL0     C34338   2.657   7.804  10.277 -0.7790 -0.8456 -0.1564
  996MOL0     C34339   2.786   7.882  10.243 -0.6784  1.1889  0.2588
  996MOL0     C34340   2.825   7.853  10.090  0.8134 -0.1117 -0.0493
  996MOL0     C34341   2.931   7.957  10.044 -0.0318  0.4735  0.0289
  996MOL0     N34342   3.038   7.986  10.141 -0.4116  0.0305 -0.8266
  996MOL0     C34343   3.132   7.897  10.175 -0.5370 -0.1007 -0.2000
  996MOL0     C34344   3.204   7.960  10.271  0.7290 -0.0840  0.2811
  996MOL0     C34345   3.309   7.902  10.364 -0.8158 -0.1082 -0.1330
  996MOL0     C34346   3.452   7.893  10.316 -0.9350 -0.1706 -0.5509
  996MOL0     C34347   3.550   7.924  10.424  0.0997  0.1940 -0.1668
  996MOL0     C34348   3.696   7.913  10.389  0.2965 -0.7532 -0.3550
  996MOL0     O34349   3.768   7.975  10.492 -0.2463 -0.4243 -0.7870
  996MOL0     C34350   3.903   7.982  10.472 -0.0671 -0.2776  0.1189
  996MOL0     C34351   3.948   8.081  10.385 -1.0600  0.3003 -0.5847
  996MOL0     C34352   4.081   8.087  10.356  0.2828 -1.3057  0.2306
  996MOL0     C34353   4.175   7.994  10.405 -0.1965 -0.4618  0.6311
  996MOL0     C34354   4.316   8.002  10.356 -0.1298 -0.0966 -0.4465
  996MOL0     O34355   4.411   7.931  10.429  0.1975 -0.3828 -0.0917
  996MOL0     C34356   4.539   7.959  10.404  0.3611 -0.3791  1.2814
  996MOL0     C34357   4.595   8.073  10.455  0.0036  0.9996 -0.2592
  996MOL0     C34358   4.732   8.098  10.435  0.3659 -0.2160 -0.1328
  996MOL0     C34359   4.808   8.017  10.354 -0.3478  1.1387  0.5086
  996MOL0     O34360   4.933   8.066  10.323  0.2531  0.4998 -0.6306
  996MOL0     C34361   5.026   7.972  10.257  0.6045  0.3232 -0.1140
  996MOL0     C34362   5.140   8.059  10.220 -0.0468  0.1790 -0.0436
  996MOL0     C34363   5.213   8.081  10.353 -0.6015 -1.1085 -0.0195
  996MOL0     C34364   5.343   8.165  10.321  0.3367  0.8306 -0.4908
  996MOL0     C34365   5.446   8.177  10.440  0.3759 -0.7689 -0.0914
  996MOL0     C34366   5.492   8.042  10.494 -0.4750 -1.2143 -0.4360
  996MOL0     C34367   5.582   8.044  10.611  0.1241  0.8118 -0.2123
  996MOL0     C34368   5.629   7.914  10.673  0.3033 -0.1566  0.5458
  996MOL0    Cl34369   5.762   7.952  10.795  0.1447  0.1985  0.2567
  996MOL0     C34370   4.764   7.888  10.323  0.3541 -0.4404  0.3761
  996MOL0     C34371   4.628   7.865  10.353 -0.4465 -0.6089  0.0711
  996MOL0     O34372   4.339   8.081  10.266 -0.2225 -0.4259  0.3133
  996MOL0     C34373   4.127   7.901  10.487  0.0853  0.5709 -0.2575
  996MOL0     C34374   3.992   7.892  10.523  0.0077 -0.1355 -1.2696
  996MOL0     N34375   3.141   8.083  10.307 -0.9501  0.2626  1.0478
  996MOL0     N34376   3.049   8.096  10.222  0.1937  0.3271  0.2970
  996MOL0     C34377   2.481   6.997  10.413 -0.2959 -0.1741  1.0233
  996MOL0     C34378   2.495   6.886  10.500 -0.6367 -0.2210  0.4150
  996MOL0     C34379   2.402   6.670  10.876  0.4183  0.7994 -0.2506
  996MOL0     C34380   2.504   6.573  10.859 -0.9418 -0.3041  0.2899
  996MOL0     C34381   2.511   6.455  10.931  1.3571 -0.8710 -1.0995
  996MOL0     C34382   2.400   6.413  11.009 -0.6111  0.3548  0.1283
  996MOL0     O34383   2.419   6.293  11.079  0.3517  0.8423  0.4035
  996MOL0     C34384   2.301   6.222  11.115 -0.0773  0.0398 -0.0136
  996MOL0     C34385   2.331   6.078  11.149  0.6189  0.4624 -0.2367
  996MOL0     C34386   2.196   6.013  11.186 -0.4313 -0.6836 -0.4203
  996MOL0     C34387   2.219   5.870  11.240  0.7887  0.5637 -0.2402
  996MOL0     C34388   2.283   5.781  11.146  0.0554  0.4224 -0.7849
  996MOL0     C34389   2.351   5.718  11.067  1.0953 -0.0706  0.3356
  996MOL0     C34390   2.295   6.508  11.023  0.3750  0.0694 -1.1405
  996MOL0     C34391   2.285   6.631  10.957  0.1486 -0.7101  0.5128
  996MOL0     C34392   2.157   6.702  10.985  0.0760  0.4920 -0.2211
  996MOL0     H34393   2.486   7.093  10.778 -1.9761 -2.5393  1.1783
  996MOL0     H34394   2.464   7.254  10.613  1.5844  0.4854 -2.8199
  996MOL0     H34395   2.354   7.404  10.382 -0.1676  0.0596 -0.0286
  996MOL0     H34396   2.504   7.392  10.477  0.2673  2.1251 -1.1130
  996MOL0     H34397   2.503   7.419  10.173 -0.0045 -1.2132  0.5949
  996MOL0     H34398   2.640   7.393  10.271 -0.2800 -2.5062 -1.8074
  996MOL0     H34399   2.584   7.589  10.406 -2.1814  0.6158  0.6273
  996MOL0     H34400   2.450   7.622  10.296  0.6285  1.4089  1.4204
  996MOL0     H34401   2.749   7.609  10.226  0.8476  1.2436  1.5283
  996MOL0     H34402   2.619   7.672  10.115  1.5769  3.5671 -0.3129
  996MOL0     H34403   2.571   7.865  10.250  1.8500  3.0475 -0.5530
  996MOL0     H34404   2.658   7.801  10.386 -1.1571 -2.8958 -0.1704
  996MOL0     H34405   2.796   7.989  10.263  3.9266  1.7962 -3.6668
  996MOL0     H34406   2.863   7.838  10.307  1.0756  0.0718 -2.4608
  996MOL0     H34407   2.733   7.864  10.032 -0.6057  1.2286  2.2594
  996MOL0     H34408   2.867   7.754  10.073  1.1605  0.2458 -1.3343
  996MOL0     H34409   2.984   7.937   9.951 -1.4771 -1.1559 -0.4853
  996MOL0     H34410   2.878   8.052  10.031  2.2273  1.8913  0.4908
  996MOL0     H34411   3.146   7.797  10.134  2.5411  1.0167 -2.2375
  996MOL0     H34412   3.297   7.953  10.460 -3.1828 -2.9544  1.2690
  996MOL0     H34413   3.272   7.802  10.392 -0.2541  0.1294  1.5207
  996MOL0     H34414   3.456   7.788  10.285 -3.4987 -1.4187  2.6823
  996MOL0     H34415   3.470   7.954  10.227 -2.2470 -0.3568 -0.9771
  996MOL0     H34416   3.526   7.861  10.510 -1.3896 -2.0844 -2.1434
  996MOL0     H34417   3.531   8.028  10.454  0.1173  0.9122 -2.4621
  996MOL0     H34418   3.709   7.964  10.293  1.0938  0.0889  0.1771
  996MOL0     H34419   3.714   7.806  10.393 -3.1427 -1.4317  0.0743
  996MOL0     H34420   3.872   8.152  10.354 -1.7136 -0.3201 -0.4326
  996MOL0     H34421   4.113   8.159  10.281  1.5561 -1.1293  0.9131
  996MOL0     H34422   4.535   8.135  10.519  0.8749  0.1567  1.4287
  996MOL0     H34423   4.769   8.188  10.483  0.0300 -0.5654  0.8013
  996MOL0     H34424   5.059   7.880  10.306 -1.1060 -0.2061  0.1172
  996MOL0     H34425   4.970   7.944  10.168 -2.0728  4.8207 -0.1774
  996MOL0     H34426   5.199   7.995  10.153 -2.4074 -4.7676  2.0360
  996MOL0     H34427   5.103   8.154  10.182  1.2692  0.5716 -0.4039
  996MOL0     H34428   5.150   8.136  10.424  1.0472 -0.7210  1.1933
  996MOL0     H34429   5.245   7.985  10.394  1.4929 -1.6413 -2.6079
  996MOL0     H34430   5.313   8.265  10.291  0.2622  1.4295  1.4225
  996MOL0     H34431   5.396   8.126  10.234  0.3792  1.3135 -0.6790
  996MOL0     H34432   5.378   8.219  10.515 -0.0572  0.2748 -1.0425
  996MOL0     H34433   5.531   8.243  10.419 -0.2120 -0.5437 -1.9667
  996MOL0     H34434   5.402   7.983  10.517 -1.2679  0.3807  0.7162
  996MOL0     H34435   5.552   7.994  10.416  2.0459  1.3219 -0.2308
  996MOL0     H34436   5.525   8.086  10.694 -1.9214 -2.2902  0.1082
  996MOL0     H34437   5.668   8.108  10.588  1.6822 -1.0516  0.0851
  996MOL0     H34438   5.545   7.853  10.708 -1.5587  0.9970 -1.6472
  996MOL0     H34439   5.665   7.852  10.590 -0.5266  1.8883 -1.4349
  996MOL0     H34440   4.823   7.817  10.265 -1.7068  1.2247 -4.2969
  996MOL0     H34441   4.596   7.768  10.318  1.4947 -1.1048 -0.4958
  996MOL0     H34442   4.189   7.825  10.532  1.2612  1.3884 -0.4487
  996MOL0     H34443   3.958   7.817  10.594 -2.2682 -0.2217 -2.3648
  996MOL0     H34444   2.476   6.974  10.307  0.9132  0.5442  0.7816
  996MOL0     H34445   2.497   6.780  10.476 -0.2380 -0.0272 -0.4301
  996MOL0     H34446   2.589   6.603  10.799 -1.1240 -1.4222 -0.5771
  996MOL0     H34447   2.591   6.381  10.929 -0.6552 -3.2197 -0.0818
  996MOL0     H34448   2.228   6.231  11.035 -1.3681 -1.9690  0.8560
  996MOL0     H34449   2.263   6.275  11.202 -2.1569  2.6046 -2.3384
  996MOL0     H34450   2.398   6.079  11.235  0.9973 -0.7419 -0.4962
  996MOL0     H34451   2.386   6.037  11.063 -1.7527  0.4435 -1.8444
  996MOL0     H34452   2.124   6.012  11.104 -0.0141 -1.3161 -0.7967
  996MOL0     H34453   2.160   6.074  11.268  0.1609 -1.9281  0.8033
  996MOL0     H34454   2.273   5.861  11.335  1.5366 -1.7806 -0.8232
  996MOL0     H34455   2.125   5.819  11.261  0.1549  1.8021  0.0435
  996MOL0     H34456   2.388   5.652  10.991 -2.5541  0.5887 -2.3308
  996MOL0     H34457   2.212   6.475  11.085 -0.2567  0.9816 -1.4723
  996MOL0     H34458   2.174   6.798  11.035  1.7849 -0.0308  0.2732
  996MOL0     H34459   2.108   6.724  10.890 -1.6658 -0.5795  0.3874
  996MOL0     H34460   2.087   6.642  11.044 -0.1008 -0.5492 -1.4581
  997MOL0     O34461  10.624   5.283   7.996 -0.1420  0.2115  0.4252
  997MOL0     C34462  10.562   5.280   7.885 -0.4789 -0.1001 -0.0780
  997MOL0     O34463  10.605   5.227   7.769 -0.5735  0.1993  0.4414
  997MOL0     C34464  10.723   5.156   7.775  0.0017  0.7301 -0.2962
  997MOL0     C34465  10.854   5.210   7.804 -0.3012  0.4014 -0.7622
  997MOL0     C34466  10.973   5.128   7.807 -0.6179  0.4750  0.8531
  997MOL0     C34467  10.970   4.996   7.759 -0.2811  0.8131 -0.2640
  997MOL0     O34468  11.070   4.897   7.760 -0.0060  0.2008 -0.3454
  997MOL0     C34469  11.202   4.947   7.784  0.3889  0.0037 -0.0455
  997MOL0     C34470  11.302   4.850   7.722 -0.3686  0.3311 -0.0054
  997MOL0     C34471  11.449   4.881   7.775  0.7201 -0.1835 -0.3521
  997MOL0     C34472  11.533   4.752   7.791 -0.0555 -0.0302  0.6676
  997MOL0     C34473  11.686   4.777   7.807 -0.6711 -1.0723 -0.1358
  997MOL0     C34474  11.739   4.852   7.932 -0.4871  0.4022 -0.8665
  997MOL0     C34475  11.762   4.743   8.042  0.3219  0.2627 -0.8914
  997MOL0     C34476  11.898   4.666   8.020  0.0015 -0.5653  1.0442
  997MOL0     N34477  11.944   4.577   8.124  0.0151  0.1893 -0.1057
  997MOL0     C34478  11.911   4.445   8.123  0.3260  0.0330 -0.5947
  997MOL0     C34479  11.986   4.373   8.201 -0.0365 -1.3473  0.0332
  997MOL0     C34480  11.975   4.225   8.225 -0.4380 -0.0181 -0.0171
  997MOL0     C34481  12.107   4.147   8.178 -0.4890  0.6275 -0.9869
  997MOL0     C34482  12.122   4.018   8.274  0.0019 -0.2769  0.3694
  997MOL0     C34483  12.257   3.947   8.250  0.5166  0.0949  0.5841
  997MOL0     O34484  12.365   4.044   8.226  1.0262  0.0480  1.0123
  997MOL0     C34485  12.492   3.989   8.224  0.2518 -0.0116 -0.4144
  997MOL0     C34486  12.603   4.076   8.209 -0.0290  0.2331  0.0251
  997MOL0     C34487  12.732   4.024   8.200  0.6315 -0.4508 -0.8378
  997MOL0     C34488  12.761   3.884   8.198  0.0963  0.1961  0.6969
  997MOL0     C34489  12.899   3.831   8.188 -0.4627  0.4015 -0.0699
  997MOL0     O34490  12.923   3.697   8.199 -0.5660  0.1713 -0.4092
  997MOL0     C34491  13.057   3.657   8.216  0.6514  0.3874 -0.6985
  997MOL0     C34492  13.099   3.533   8.163 -0.4496 -0.2585  0.2185
  997MOL0     C34493  13.234   3.495   8.170  0.9040 -0.0071 -1.0428
  997MOL0     C34494  13.329   3.570   8.237 -0.6054 -0.1395 -0.1648
  997MOL0     O34495  13.459   3.531   8.219 -0.8486 -0.0698  0.1266
  997MOL0     C34496  13.511   3.487   8.091  0.4800  0.1072  0.3584
  997MOL0     C34497  13.519   3.607   7.987  0.1934 -0.3791  0.3689
  997MOL0     C34498  13.620   3.709   8.033 -1.2469  0.5612 -0.0353
  997MOL0     C34499  13.600   3.833   7.937  0.0960 -0.4780 -0.1940
  997MOL0     C34500  13.691   3.951   7.983  0.0271  0.3564 -0.1754
  997MOL0     C34501  13.837   3.918   8.031 -0.0267 -0.2391  0.8908
  997MOL0     C34502  13.923   3.851   7.917 -0.2479 -0.6866 -0.1376
  997MOL0     C34503  14.056   3.786   7.971  0.4204  0.1740 -1.2384
  997MOL0    Cl34504  14.204   3.801   7.870 -0.2954  0.1265 -0.1986
  997MOL0     C34505  13.292   3.687   8.300 -0.0022 -0.1101  0.3206
  997MOL0     C34506  13.154   3.726   8.290 -0.5079  0.6309 -0.2090
  997MOL0     O34507  12.978   3.920   8.160 -0.2906 -0.3178 -0.4573
  997MOL0     C34508  12.651   3.806   8.207  0.6733  0.7754  0.9455
  997MOL0     C34509  12.522   3.858   8.216  0.2402  0.0014  0.4264
  997MOL0     N34510  12.069   4.469   8.260 -0.3091  1.0433 -0.0307
  997MOL0     N34511  12.048   4.588   8.203 -0.5705  0.6847 -0.3423
  997MOL0     C34512  10.847   4.950   7.717  0.5274 -0.6228  0.4541
  997MOL0     C34513  10.726   5.027   7.731 -0.2819  0.5283 -0.0978
  997MOL0     C34514  10.432   5.338   7.878  0.3192 -1.2437  0.6183
  997MOL0     C34515  10.330   5.282   7.796 -0.2354  0.4469  0.0422
  997MOL0     C34516  10.202   5.345   7.806  0.3831 -0.4116 -0.2170
  997MOL0     C34517  10.177   5.464   7.877 -0.7131 -1.8278 -0.0074
  997MOL0     O34518  10.062   5.525   7.890  0.2430 -0.5368 -0.2634
  997MOL0     C34519   9.955   5.495   7.794  0.0386 -0.1286  0.0660
  997MOL0     C34520   9.862   5.616   7.780  0.0372 -0.0718 -0.6198
  997MOL0     C34521   9.901   5.726   7.676 -0.2262 -0.3598 -0.2777
  997MOL0     C34522  10.051   5.769   7.689 -0.7333  0.3384 -0.1052
  997MOL0     C34523  10.086   5.820   7.823 -0.2564  0.0207  0.5171
  997MOL0     C34524  10.126   5.857   7.933  0.1122  0.2647 -0.3215
  997MOL0     C34525  10.281   5.531   7.949 -0.0252  0.1645  0.3794
  997MOL0     C34526  10.407   5.468   7.942  0.7827 -0.9932 -0.0454
  997MOL0     C34527  10.518   5.553   7.994  0.0468 -1.6244  0.5668
  997MOL0     H34528  10.864   5.314   7.834  4.0103  0.2299 -0.9049
  997MOL0     H34529  11.062   5.187   7.829  1.4318 -1.5610 -1.2742
  997MOL0     H34530  11.207   5.050   7.746 -2.6152  0.1126 -0.3771
  997MOL0     H34531  11.221   4.946   7.892  4.0503 -0.5730 -0.5522
  997MOL0     H34532  11.299   4.868   7.614  0.5477  1.3768  0.1299
  997MOL0     H34533  11.271   4.750   7.753 -0.1525  0.4456  0.5927
  997MOL0     H34534  11.442   4.928   7.874 -0.2618 -1.2137  0.0985
  997MOL0     H34535  11.492   4.949   7.701  1.3053  0.0498  0.1917
  997MOL0     H34536  11.487   4.692   7.870  1.1681  1.6759  2.8108
  997MOL0     H34537  11.530   4.704   7.693 -0.1442  1.1748  0.0646
  997MOL0     H34538  11.749   4.689   7.792 -1.2094 -1.6351  0.7954
  997MOL0     H34539  11.702   4.852   7.729 -3.9985 -0.5326 -0.4348
  997MOL0     H34540  11.829   4.912   7.923  2.2073 -2.4215  3.3376
  997MOL0     H34541  11.669   4.931   7.961  1.9789  3.0326 -1.7101
  997MOL0     H34542  11.678   4.673   8.041  0.8476 -0.3734 -1.0073
  997MOL0     H34543  11.767   4.787   8.142 -0.9809 -2.2456  0.3629
  997MOL0     H34544  11.909   4.630   7.917  0.6717  3.0761 -0.3230
  997MOL0     H34545  11.970   4.747   8.028 -0.2271 -0.0659 -1.3109
  997MOL0     H34546  11.835   4.415   8.050 -0.1949  0.8077 -0.3782
  997MOL0     H34547  11.944   4.212   8.329  1.1120 -0.1034  0.4607
  997MOL0     H34548  11.894   4.184   8.164 -0.0182 -1.2263  0.2287
  997MOL0     H34549  12.088   4.119   8.074 -0.4287  1.8182 -1.3308
  997MOL0     H34550  12.198   4.207   8.191  1.8163 -2.7657  0.1251
  997MOL0     H34551  12.038   3.949   8.266  0.7191 -1.7775  3.8237
  997MOL0     H34552  12.124   4.061   8.375  2.0929 -0.6142  0.5281
  997MOL0     H34553  12.241   3.892   8.157 -2.1336 -0.8914  1.5362
  997MOL0     H34554  12.275   3.867   8.322 -0.8927  1.3812  2.4514
  997MOL0     H34555  12.580   4.182   8.209  0.4111  0.3707  1.9596
  997MOL0     H34556  12.816   4.090   8.186  0.0321  0.4675 -0.1918
  997MOL0     H34557  13.027   3.471   8.111 -1.1526  0.4794  0.3006
  997MOL0     H34558  13.259   3.396   8.133 -2.5000 -0.4481 -2.5704
  997MOL0     H34559  13.613   3.450   8.103  0.7827  0.0503 -2.0184
  997MOL0     H34560  13.453   3.408   8.042  1.4889 -0.0683 -0.5747
  997MOL0     H34561  13.553   3.568   7.891  2.3900  4.2640 -1.0160
  997MOL0     H34562  13.429   3.663   7.958  0.3774 -0.4579 -0.3504
  997MOL0     H34563  13.624   3.733   8.139 -0.6940 -0.7322  0.2440
  997MOL0     H34564  13.720   3.668   8.015 -0.8072  1.9780 -1.0949
  997MOL0     H34565  13.498   3.871   7.927 -0.4953 -2.0852 -0.5811
  997MOL0     H34566  13.641   3.798   7.842 -2.0414 -5.7085  0.4569
  997MOL0     H34567  13.646   4.016   8.058 -1.5407  2.5086 -2.8291
  997MOL0     H34568  13.701   4.012   7.893 -0.3009  0.1700 -0.3412
  997MOL0     H34569  13.884   4.012   8.061  3.2190 -1.5338  0.3324
  997MOL0     H34570  13.826   3.851   8.117  0.1713 -0.2837  0.8835
  997MOL0     H34571  13.940   3.921   7.834 -0.8076  0.1751  0.4706
  997MOL0     H34572  13.876   3.761   7.875  0.3189 -2.0910  2.0595
  997MOL0     H34573  14.068   3.844   8.063 -0.6150  2.2892 -2.3529
  997MOL0     H34574  14.028   3.682   7.987  0.6204  0.1143 -1.2644
  997MOL0     H34575  13.365   3.729   8.369 -0.3847 -0.6176  1.0555
  997MOL0     H34576  13.128   3.820   8.337  0.2345  0.3430  0.8052
  997MOL0     H34577  12.669   3.699   8.213 -0.2004  0.5473 -0.0698
  997MOL0     H34578  12.445   3.781   8.223 -1.5994  1.8149  1.4172
  997MOL0     H34579  10.836   4.852   7.671  2.2420 -0.4473 -0.4312
  997MOL0     H34580  10.636   4.980   7.692  1.8149 -2.5784 -1.6616
  997MOL0     H34581  10.346   5.186   7.747  0.1767  2.3851 -4.0625
  997MOL0     H34582  10.119   5.300   7.752  0.5411  0.3400 -1.1147
  997MOL0     H34583   9.910   5.407   7.840  2.2113 -0.7895  1.0723
  997MOL0     H34584   9.992   5.473   7.693  1.6640  3.9813 -0.4541
  997MOL0     H34585   9.863   5.665   7.878  1.0881 -2.5837  0.7261
  997MOL0     H34586   9.761   5.578   7.768  0.1767 -2.6952  4.0938
  997MOL0     H34587   9.830   5.807   7.699 -2.8803 -3.3754  3.2599
  997MOL0     H34588   9.884   5.684   7.577 -2.9403 -1.9330  0.7345
  997MOL0     H34589  10.120   5.687   7.669 -2.2639 -1.5871  2.0668
  997MOL0     H34590  10.072   5.854   7.623 -0.0957  0.4921  0.2831
  997MOL0     H34591  10.153   5.888   8.033  2.6624  2.7786 -1.6343
  997MOL0     H34592  10.262   5.628   7.994 -2.2418  0.3347 -0.8198
  997MOL0     H34593  10.617   5.508   7.982  1.4980  1.5353 -0.3621
  997MOL0     H34594  10.507   5.648   7.941 -0.0071 -3.6268 -3.3611
  997MOL0     H34595  10.511   5.571   8.102 -0.9196  3.7787 -0.1336
  998MOL0     O34596   9.347  10.366   9.927  0.2449 -0.5101 -0.3115
  998MOL0     C34597   9.289  10.465   9.970  0.0424  0.3046  0.6725
  998MOL0     O34598   9.352  10.575  10.001 -0.3678 -0.2119 -1.1277
  998MOL0     C34599   9.480  10.601   9.957  0.4605 -0.4358  0.1232
  998MOL0     C34600   9.594  10.545  10.008  0.0357  1.0718  0.0246
  998MOL0     C34601   9.711  10.586   9.956  0.8102 -0.1667 -0.5047
  998MOL0     C34602   9.719  10.679   9.855  0.2650  0.0714  0.8873
  998MOL0     O34603   9.835  10.705   9.784  1.1283  0.8881  0.5662
  998MOL0     C34604   9.900  10.582   9.742 -0.0473  0.8043  0.0756
  998MOL0     C34605   9.948  10.585   9.598 -0.3436 -0.3192  0.4927
  998MOL0     C34606  10.050  10.470   9.568 -0.1136 -0.5003 -0.0412
  998MOL0     C34607  10.049  10.418   9.432 -0.5003 -0.9150 -0.3127
  998MOL0     C34608  10.162  10.327   9.412  0.1078 -0.2762 -0.2885
  998MOL0     C34609  10.199  10.295   9.266  0.1541  0.0688 -0.0496
  998MOL0     C34610  10.109  10.184   9.206  0.3322  0.1473 -0.0103
  998MOL0     C34611  10.154  10.127   9.075  1.1033 -1.2318 -0.2353
  998MOL0     N34612  10.057  10.036   9.013 -0.0474  0.4904 -0.1183
  998MOL0     C34613  10.044  10.023   8.879  0.1452 -0.0560 -0.0171
  998MOL0     C34614   9.934   9.953   8.856 -0.8288 -0.9955  0.6958
  998MOL0     C34615   9.870   9.927   8.717 -0.1489  0.1485 -0.0661
  998MOL0     C34616   9.746  10.010   8.706  0.8784 -0.9395  0.6216
  998MOL0     C34617   9.670   9.990   8.571 -0.0682 -0.3587 -0.1489
  998MOL0     C34618   9.536  10.057   8.557 -0.0932 -0.0193 -0.4757
  998MOL0     O34619   9.444  10.031   8.666 -0.2403  0.6218 -0.0680
  998MOL0     C34620   9.316  10.061   8.652 -0.0965  0.1785  0.0175
  998MOL0     C34621   9.220   9.992   8.744  0.1556  0.5542 -0.7542
  998MOL0     C34622   9.087  10.029   8.752 -1.2238 -0.1347  0.0889
  998MOL0     C34623   9.043  10.141   8.677 -0.0473  0.7047 -0.0132
  998MOL0     C34624   8.905  10.176   8.681  0.0010  0.4198  0.0764
  998MOL0     O34625   8.860  10.186   8.803  0.3890 -0.3002 -0.3356
  998MOL0     C34626   8.733  10.231   8.828  0.2230 -0.1976  0.8670
  998MOL0     C34627   8.717  10.306   8.942 -0.0029  0.2655 -0.8997
  998MOL0     C34628   8.594  10.345   8.991 -0.7261  0.5593 -0.6848
  998MOL0     C34629   8.475  10.329   8.912 -0.7888  0.4744  0.0656
  998MOL0     O34630   8.349  10.361   8.951  0.4209  0.1602 -0.8573
  998MOL0     C34631   8.326  10.459   9.055  0.0510 -0.2680 -0.5397
  998MOL0     C34632   8.177  10.507   9.062  0.1916 -0.9179  0.2127
  998MOL0     C34633   8.076  10.391   9.082 -0.9064 -0.0899  0.2147
  998MOL0     C34634   7.960  10.439   9.164 -0.4875  0.2055 -0.1747
  998MOL0     C34635   7.848  10.331   9.175  0.3124 -1.1301  0.2162
  998MOL0     C34636   7.751  10.378   9.291  0.1655 -0.0451  0.5592
  998MOL0     C34637   7.657  10.260   9.329 -0.6165  0.3555 -0.9649
  998MOL0     C34638   7.735  10.155   9.390 -0.8532 -0.6684 -0.0181
  998MOL0    Cl34639   7.848  10.198   9.515  0.0244 -0.5582 -0.2683
  998MOL0     C34640   8.494  10.272   8.780  0.8334  0.5659  0.4439
  998MOL0     C34641   8.614  10.212   8.741 -1.1875  0.0229 -0.0295
  998MOL0     O34642   8.850  10.214   8.575  0.0174 -0.4601 -0.2264
  998MOL0     C34643   9.134  10.202   8.586  0.0071  0.2251  1.1274
  998MOL0     C34644   9.263  10.156   8.569 -0.0713  0.0228 -0.3041
  998MOL0     N34645   9.895   9.905   8.984 -0.1358  0.2876 -0.2066
  998MOL0     N34646   9.960   9.962   9.072  0.0947 -0.6171 -0.1195
  998MOL0     C34647   9.608  10.737   9.803  0.6920  0.1101  0.5324
  998MOL0     C34648   9.482  10.704   9.861 -0.0813 -1.7073 -0.5702
  998MOL0     C34649   9.139  10.456   9.993  0.3722  0.6335 -1.2957
  998MOL0     C34650   9.077  10.355   9.923 -0.0176 -0.4164  0.5007
  998MOL0     C34651   8.938  10.335   9.916 -0.4043 -0.5579 -0.3967
  998MOL0     C34652   8.851  10.411   9.995 -0.1070  0.3615 -1.0419
  998MOL0     O34653   8.714  10.410   9.979  0.2501 -0.1165 -0.5744
  998MOL0     C34654   8.657  10.312   9.889 -0.8833  0.8233  0.0732
  998MOL0     C34655   8.508  10.312   9.892  0.3556 -0.7007 -0.5476
  998MOL0     C34656   8.445  10.263  10.025  0.0484  0.4424  0.0052
  998MOL0     C34657   8.383  10.390  10.094  0.0098 -0.0899  0.1704
  998MOL0     C34658   8.304  10.372  10.217 -0.5259  0.1173  0.2220
  998MOL0     C34659   8.222  10.341  10.301  0.2508  0.1115 -0.1771
  998MOL0     C34660   8.911  10.517  10.070  0.4848  0.4169 -0.9208
  998MOL0     C34661   9.049  10.535  10.068 -0.6388 -1.0726 -0.8542
  998MOL0     C34662   9.102  10.639  10.166  0.3266 -0.1436  0.1796
  998MOL0     H34663   9.596  10.466  10.083  3.6005  0.4734 -0.5214
  998MOL0     H34664   9.800  10.542  10.000  1.7313  2.6617  0.6738
  998MOL0     H34665   9.981  10.580   9.815 -2.0935  3.7174  2.7119
  998MOL0     H34666   9.845  10.491   9.769  0.0549  0.7992  0.2731
  998MOL0     H34667   9.996  10.680   9.572  1.5555 -1.4381 -0.2739
  998MOL0     H34668   9.871  10.573   9.521  0.6760  2.6177 -1.1628
  998MOL0     H34669  10.027  10.387   9.636  2.0076 -0.1984  1.1468
  998MOL0     H34670  10.145  10.517   9.594 -0.8633  1.5359 -0.7506
  998MOL0     H34671   9.952  10.369   9.417  0.5689 -2.6949 -2.0433
  998MOL0     H34672  10.072  10.498   9.362 -1.2525 -0.9268 -0.5839
  998MOL0     H34673  10.254  10.365   9.458 -0.3345 -2.4165  2.7079
  998MOL0     H34674  10.152  10.233   9.466 -0.7904  0.3719  0.7263
  998MOL0     H34675  10.210  10.384   9.204  0.6022  0.6672  0.8614
  998MOL0     H34676  10.305  10.269   9.267  0.9185  2.7207  1.8047
  998MOL0     H34677  10.009  10.225   9.194  0.6761  0.9299 -0.3028
  998MOL0     H34678  10.093  10.109   9.284 -0.5652  0.2981 -0.0494
  998MOL0     H34679  10.182  10.203   9.002  2.2567 -0.4396  0.9873
  998MOL0     H34680  10.246  10.071   9.094  1.1782 -1.5263 -1.3762
  998MOL0     H34681  10.099  10.068   8.797 -1.6585 -0.9715 -1.8065
  998MOL0     H34682   9.940   9.951   8.636  1.6383  1.7313  1.8381
  998MOL0     H34683   9.855   9.820   8.702  2.4808 -0.2589 -0.2951
  998MOL0     H34684   9.683   9.983   8.791  2.8849  0.6180  2.7430
  998MOL0     H34685   9.774  10.115   8.719 -0.3347 -0.2556 -1.8752
  998MOL0     H34686   9.661   9.882   8.553  1.8010 -1.2396  3.1667
  998MOL0     H34687   9.729  10.025   8.486 -0.1668 -0.3386 -0.2092
  998MOL0     H34688   9.493  10.015   8.465  0.1439 -1.3620  0.0120
  998MOL0     H34689   9.540  10.166   8.551  0.9527  0.2212  2.8114
  998MOL0     H34690   9.235   9.905   8.807 -2.4846 -0.1127 -0.9094
  998MOL0     H34691   9.027   9.974   8.824  0.2865 -1.1686  0.6027
  998MOL0     H34692   8.802  10.321   9.008  1.0153  0.5212 -2.2383
  998MOL0     H34693   8.577  10.377   9.093 -2.0233 -2.8282  0.3287
  998MOL0     H34694   8.367  10.412   9.146  2.2619 -3.0218 -2.7606
  998MOL0     H34695   8.392  10.543   9.031 -1.7227  1.4839  0.4505
  998MOL0     H34696   8.177  10.572   9.149 -2.3292  1.4188 -1.3726
  998MOL0     H34697   8.154  10.574   8.978  1.2832  0.0701  0.6671
  998MOL0     H34698   8.035  10.356   8.986 -3.2791 -0.3881  1.2550
  998MOL0     H34699   8.119  10.300   9.124 -4.1917 -2.2964 -0.8289
  998MOL0     H34700   7.922  10.535   9.127 -0.2406  1.2595  2.1238
  998MOL0     H34701   8.000  10.445   9.266 -1.5556  0.2460  0.2570
  998MOL0     H34702   7.907  10.245   9.210  0.7609 -0.5318  0.9474
  998MOL0     H34703   7.789  10.313   9.085 -0.5715  1.0663  0.3071
  998MOL0     H34704   7.808  10.415   9.377  1.2230  1.4132 -0.7197
  998MOL0     H34705   7.685  10.455   9.252  0.6170  0.2200  0.3075
  998MOL0     H34706   7.594  10.226   9.246 -1.0683 -0.4611 -0.2896
  998MOL0     H34707   7.590  10.288   9.411  1.9071  0.9485  0.9918
  998MOL0     H34708   7.674  10.075   9.435 -0.6678 -0.7207  0.1406
  998MOL0     H34709   7.789  10.103   9.311 -0.7535 -0.5434 -0.0305
  998MOL0     H34710   8.406  10.272   8.716  0.9919  2.4729  0.1620
  998MOL0     H34711   8.625  10.165   8.644  1.7189 -0.6319  0.5337
  998MOL0     H34712   9.108  10.283   8.519 -0.2932 -1.2596 -0.6100
  998MOL0     H34713   9.323  10.201   8.490 -0.3240  0.4311 -0.2611
  998MOL0     H34714   9.621  10.809   9.722  1.5634 -0.7730 -0.1388
  998MOL0     H34715   9.395  10.761   9.831  0.8730 -0.5053 -1.1649
  998MOL0     H34716   9.141  10.291   9.863  1.0660  1.5534 -0.5475
  998MOL0     H34717   8.898  10.255   9.854  0.3288 -0.9593 -0.3655
  998MOL0     H34718   8.692  10.209   9.905  2.1852  1.5292 -1.3394
  998MOL0     H34719   8.680  10.349   9.789 -0.5895  1.6276  0.4296
  998MOL0     H34720   8.480  10.241   9.814 -0.0252 -0.7994 -0.3210
  998MOL0     H34721   8.474  10.413   9.866 -1.4129 -0.7856  1.1892
  998MOL0     H34722   8.515  10.208  10.089 -1.7384 -1.7863  0.1598
  998MOL0     H34723   8.375  10.185   9.995  0.9953  0.4715 -2.5110
  998MOL0     H34724   8.462  10.463  10.112  0.8158 -1.1001  0.8298
  998MOL0     H34725   8.317  10.443  10.024 -0.6879  1.0698  1.6415
  998MOL0     H34726   8.146  10.302  10.364 -1.5596  1.7052 -1.2637
  998MOL0     H34727   8.847  10.589  10.120  0.7245 -0.5111  0.8068
  998MOL0     H34728   9.184  10.702  10.129 -1.6931  1.6164 -1.6307
  998MOL0     H34729   9.021  10.707  10.193 -1.1777 -0.7533 -2.4355
  998MOL0     H34730   9.139  10.593  10.257 -2.9418 -0.4821  1.4715
  999MOL0     O34731   8.316   1.686   6.891  0.2779 -0.2715  0.3566
  999MOL0     C34732   8.254   1.780   6.933 -0.7010 -0.3163 -0.1395
  999MOL0     O34733   8.306   1.909   6.953  0.0928 -0.0073 -0.2355
  999MOL0     C34734   8.438   1.919   6.979 -0.3932  0.2475 -0.2456
  999MOL0     C34735   8.492   1.915   7.107  0.0504 -0.4857  0.6492
  999MOL0     C34736   8.630   1.944   7.133  0.2757  0.1401 -0.2069
  999MOL0     C34737   8.716   1.958   7.023 -0.4653  0.4405 -0.5050
  999MOL0     O34738   8.849   1.977   7.046  1.2685 -0.6779  0.2519
  999MOL0     C34739   8.920   2.023   6.935  0.5106 -0.1173 -0.2723
  999MOL0     C34740   9.056   2.055   6.982 -0.1710 -0.3838  0.3454
  999MOL0     C34741   9.153   1.940   6.971 -0.3299  0.2949 -0.0887
  999MOL0     C34742   9.294   1.981   7.010 -0.7523  0.1610  0.2561
  999MOL0     C34743   9.389   1.863   7.042 -0.7923  1.3783 -0.8221
  999MOL0     C34744   9.357   1.792   7.183 -0.6854  0.6280  0.2467
  999MOL0     C34745   9.463   1.699   7.232  0.1773  0.0415  0.0593
  999MOL0     C34746   9.469   1.565   7.162 -0.4964 -0.3175 -0.1372
  999MOL0     N34747   9.358   1.483   7.186  0.9521 -0.0003 -0.0103
  999MOL0     C34748   9.317   1.438   7.311  0.8865 -0.7587 -0.3993
  999MOL0     C34749   9.208   1.368   7.290  0.3225 -0.0501  0.7356
  999MOL0     C34750   9.144   1.284   7.397  0.1830  0.3667  0.4660
  999MOL0     C34751   9.165   1.335   7.535  0.2766  1.2848 -0.2447
  999MOL0     C34752   9.090   1.267   7.653 -1.7941  0.1791 -0.0377
  999MOL0     C34753   9.189   1.249   7.768 -0.5517 -0.1513 -0.2899
  999MOL0     O34754   9.243   1.371   7.820 -0.4063  0.1014 -0.4218
  999MOL0     C34755   9.342   1.369   7.908 -0.0008  0.1276  0.0582
  999MOL0     C34756   9.350   1.269   8.015 -0.9246 -0.2674  0.1100
  999MOL0     C34757   9.466   1.264   8.096 -0.2822 -0.7942  0.8467
  999MOL0     C34758   9.567   1.365   8.070 -0.2392 -0.1438 -0.9702
  999MOL0     C34759   9.696   1.355   8.155 -0.3835 -0.3813 -0.3502
  999MOL0     O34760   9.777   1.465   8.158 -0.8537 -0.0963 -0.7409
  999MOL0     C34761   9.890   1.460   8.242 -0.0117 -0.2652  0.1130
  999MOL0     C34762   9.999   1.369   8.239  0.7653  0.7640 -0.6098
  999MOL0     C34763  10.110   1.390   8.323 -0.3427  0.5859 -0.0876
  999MOL0     C34764  10.102   1.490   8.416  0.1648 -0.3544 -0.1298
  999MOL0     O34765  10.214   1.530   8.487  0.2381  0.1903 -0.0222
  999MOL0     C34766  10.344   1.477   8.456 -0.3731  1.5175  0.3387
  999MOL0     C34767  10.467   1.525   8.536 -0.4857 -0.7426  0.1839
  999MOL0     C34768  10.498   1.671   8.499  0.1682  0.2176 -0.1816
  999MOL0     C34769  10.613   1.735   8.584 -0.8318 -0.8510 -0.0307
  999MOL0     C34770  10.756   1.684   8.544 -0.0943  0.4358  1.2730
  999MOL0     C34771  10.850   1.772   8.618 -1.1144 -0.4776 -0.0407
  999MOL0     C34772  10.990   1.794   8.552  0.4805 -0.0883  0.3422
  999MOL0     C34773  11.064   1.896   8.636 -0.5662 -0.4611 -0.7454
  999MOL0    Cl34774  11.221   1.919   8.577 -0.2678 -0.1223  0.2227
  999MOL0     C34775   9.994   1.580   8.422  0.7467 -0.1597  0.1001
  999MOL0     C34776   9.891   1.575   8.324 -0.5765 -0.3254  0.2020
  999MOL0     O34777   9.714   1.253   8.222 -0.1495 -0.3825 -0.4395
  999MOL0     C34778   9.560   1.462   7.976 -0.3395 -1.0130  0.5936
  999MOL0     C34779   9.438   1.473   7.905 -0.6474  0.8049 -0.4453
  999MOL0     N34780   9.171   1.388   7.150 -0.4332  0.6662  0.1393
  999MOL0     N34781   9.275   1.444   7.085  0.3122 -0.8013 -0.4096
  999MOL0     C34782   8.662   1.939   6.899 -0.3447 -0.0182 -0.1454
  999MOL0     C34783   8.523   1.922   6.872  0.1336 -0.1618 -0.1114
  999MOL0     C34784   8.108   1.766   6.964  0.3073  0.1887  0.5199
  999MOL0     C34785   8.042   1.868   7.021 -0.1578 -0.0916  0.6455
  999MOL0     C34786   7.909   1.873   7.028  0.5359  0.1439 -0.5608
  999MOL0     C34787   7.827   1.755   7.004  0.0563  0.1147  0.2145
  999MOL0     O34788   7.696   1.763   7.036 -0.9567 -0.0157 -0.0316
  999MOL0     C34789   7.615   1.666   6.976  0.5435 -0.1295  0.3540
  999MOL0     C34790   7.474   1.683   7.038  0.4902  0.2145 -0.0499
  999MOL0     C34791   7.387   1.778   6.946  0.1091  0.0061  0.1255
  999MOL0     C34792   7.267   1.832   7.018 -0.3182  0.5646 -0.2007
  999MOL0     C34793   7.326   1.923   7.119  0.5552 -0.0632 -0.7761
  999MOL0     C34794   7.366   2.011   7.196  0.3472  0.0847  0.2261
  999MOL0     C34795   7.896   1.649   6.948  0.0398 -0.1262  0.0706
  999MOL0     C34796   8.032   1.657   6.924 -0.0755  0.4044 -0.5111
  999MOL0     C34797   8.083   1.541   6.840  0.0022 -0.1254  0.5953
  999MOL0     H34798   8.421   1.899   7.188 -0.3523  0.0592  0.4106
  999MOL0     H34799   8.678   1.965   7.228  1.7059  3.0980 -1.4365
  999MOL0     H34800   8.921   1.947   6.857 -2.2398  2.1176 -2.7249
  999MOL0     H34801   8.874   2.106   6.881  1.9515  0.2612 -0.9759
  999MOL0     H34802   9.048   2.082   7.088 -3.2960  0.1235  0.0938
  999MOL0     H34803   9.098   2.135   6.921  2.0550 -1.9973 -0.3640
  999MOL0     H34804   9.164   1.898   6.870 -3.0296  3.2384 -1.7899
  999MOL0     H34805   9.129   1.859   7.041  1.7123  0.0367  0.3749
  999MOL0     H34806   9.335   2.029   6.921 -1.2158 -1.6108 -0.9696
  999MOL0     H34807   9.296   2.043   7.101  0.6250 -0.1673  0.4778
  999MOL0     H34808   9.383   1.783   6.967 -0.4877  0.7590 -0.2002
  999MOL0     H34809   9.492   1.900   7.048 -1.7296  3.9630  1.3175
  999MOL0     H34810   9.349   1.868   7.262  2.2096 -0.9100  2.1938
  999MOL0     H34811   9.257   1.750   7.171 -0.0427 -0.4357 -1.8040
  999MOL0     H34812   9.453   1.679   7.340 -0.9754 -0.7490 -0.1633
  999MOL0     H34813   9.559   1.747   7.215  2.2400 -3.9492 -0.8368
  999MOL0     H34814   9.478   1.584   7.054  0.7180 -1.3085 -0.2248
  999MOL0     H34815   9.561   1.521   7.200  1.2494  1.3032 -2.1841
  999MOL0     H34816   9.364   1.472   7.403 -0.9352  2.3812 -0.4688
  999MOL0     H34817   9.036   1.286   7.380 -0.3426 -5.0782  1.2686
  999MOL0     H34818   9.194   1.186   7.392 -1.2714 -0.4063  0.4923
  999MOL0     H34819   9.273   1.340   7.552  0.4562 -0.8462 -0.5520
  999MOL0     H34820   9.124   1.437   7.538 -0.4626  0.9798  0.1473
  999MOL0     H34821   9.067   1.163   7.625  0.9558 -1.2927  2.5609
  999MOL0     H34822   9.001   1.323   7.684 -2.9410 -0.7894 -1.4705
  999MOL0     H34823   9.280   1.199   7.734  1.2683  1.4896  1.8541
  999MOL0     H34824   9.148   1.190   7.851 -2.5316  0.8897 -0.4698
  999MOL0     H34825   9.277   1.189   8.006 -0.1494 -0.7889 -2.9527
  999MOL0     H34826   9.476   1.183   8.167  2.1026 -0.2908  1.1586
  999MOL0     H34827  10.014   1.289   8.167  5.1057  3.4343 -3.1282
  999MOL0     H34828  10.194   1.322   8.319  0.5132  1.6743 -1.2918
  999MOL0     H34829  10.349   1.368   8.451 -0.3823  1.5378 -0.1769
  999MOL0     H34830  10.352   1.495   8.349 -1.8849  2.8186  0.4093
  999MOL0     H34831  10.440   1.526   8.642 -2.0397 -0.7293 -0.1774
  999MOL0     H34832  10.552   1.464   8.505 -0.4131 -0.5986  0.0988
  999MOL0     H34833  10.523   1.679   8.393  0.3337  2.8510 -0.0280
  999MOL0     H34834  10.407   1.731   8.512 -0.3383 -0.0954 -2.0872
  999MOL0     H34835  10.610   1.717   8.692  1.7796  0.9279  0.4368
  999MOL0     H34836  10.607   1.843   8.568  2.3169 -0.7931 -1.6191
  999MOL0     H34837  10.775   1.707   8.439 -0.8244 -0.1080  1.0157
  999MOL0     H34838  10.776   1.576   8.546  0.6445  0.5690  1.4756
  999MOL0     H34839  10.811   1.874   8.629  2.1632  0.8974  0.1546
  999MOL0     H34840  10.866   1.728   8.716 -0.9863 -5.6563 -2.0449
  999MOL0     H34841  10.992   1.829   8.449 -3.6829  1.2253  0.5179
  999MOL0     H34842  11.040   1.697   8.560 -1.1697 -1.4320 -3.3013
  999MOL0     H34843  11.015   1.994   8.634  0.1492  0.0359  2.0092
  999MOL0     H34844  11.074   1.865   8.741 -2.2151  1.2019 -0.0495
  999MOL0     H34845   9.980   1.658   8.496 -1.6968  0.4630 -0.8936
  999MOL0     H34846   9.798   1.632   8.328 -1.9642 -2.3874 -0.7505
  999MOL0     H34847   9.642   1.533   7.969 -0.8666 -0.5034 -0.9470
  999MOL0     H34848   9.414   1.550   7.832 -0.2419  1.8416  0.4851
  999MOL0     H34849   8.733   1.939   6.816  0.4898  0.1455  0.5584
  999MOL0     H34850   8.473   1.910   6.776  0.1771 -0.8207 -0.0576
  999MOL0     H34851   8.093   1.955   7.059  1.4244 -0.2709 -0.9413
  999MOL0     H34852   7.860   1.955   7.080  3.2634  0.2132  2.1978
  999MOL0     H34853   7.650   1.568   7.010 -2.5012 -0.0369  4.6686
  999MOL0     H34854   7.621   1.686   6.869  0.2586  1.4999  0.6274
  999MOL0     H34855   7.478   1.705   7.145  2.0885 -2.3822  0.5128
  999MOL0     H34856   7.423   1.587   7.025  0.4096  0.5448 -2.6678
  999MOL0     H34857   7.350   1.718   6.863 -0.7240 -0.9843  1.1718
  999MOL0     H34858   7.449   1.856   6.901  0.4144  0.1828  0.8454
  999MOL0     H34859   7.208   1.892   6.948  2.4265  0.9268 -2.4213
  999MOL0     H34860   7.223   1.740   7.057  1.3857 -0.4345 -0.5262
  999MOL0     H34861   7.412   2.076   7.267 -0.8630 -1.6286  2.7450
  999MOL0     H34862   7.845   1.559   6.918  1.5724 -1.1791  0.4658
  999MOL0     H34863   8.150   1.580   6.762  1.0151 -1.4459  0.7729
  999MOL0     H34864   8.144   1.481   6.908  0.1730  0.0139  0.5665
  999MOL0     H34865   8.001   1.484   6.795 -1.3811  0.9338  1.6843
 1000MOL0     O34866   1.575  10.151   6.992  0.8220 -0.6377  0.6016
 1000MOL0     C34867   1.509  10.167   7.098 -0.2917  0.4079  0.4517
 1000MOL0     O34868   1.563  10.182   7.227  0.0578  0.2199 -0.7834
 1000MOL0     C34869   1.694  10.139   7.247  0.5047 -0.2069  0.4434
 1000MOL0     C34870   1.802  10.227   7.252 -0.0611 -0.4426 -0.0573
 1000MOL0     C34871   1.936  10.177   7.265  0.4267  0.9831  0.5577
 1000MOL0     C34872   1.946  10.034   7.291  0.3009 -0.7567  0.8356
 1000MOL0     O34873   2.062   9.965   7.328  1.4952  0.6748  0.3683
 1000MOL0     C34874   2.174  10.051   7.368 -0.4410  0.6793  0.4065
 1000MOL0     C34875   2.278   9.947   7.429  0.0583 -0.5928 -0.2035
 1000MOL0     C34876   2.353   9.856   7.325 -0.8849 -0.2571  0.8373
 1000MOL0     C34877   2.447   9.763   7.393  0.4623  0.3411 -0.9557
 1000MOL0     C34878   2.558   9.811   7.489 -0.0711 -0.3209  0.8224
 1000MOL0     C34879   2.608   9.704   7.587  0.1332 -0.0293 -0.0750
 1000MOL0     C34880   2.753   9.724   7.636  0.3865 -0.8236  0.5110
 1000MOL0     C34881   2.873   9.675   7.548  0.7078 -1.2185  1.0293
 1000MOL0     N34882   2.901   9.530   7.558  0.0401 -0.9830  0.4240
 1000MOL0     C34883   2.973   9.473   7.659 -0.4409  0.3180 -0.2772
 1000MOL0     C34884   3.014   9.351   7.612  0.0690 -0.5619  0.3440
 1000MOL0     C34885   3.106   9.255   7.672 -1.0529  0.6824  0.6903
 1000MOL0     C34886   3.249   9.284   7.618 -0.6089  0.0456 -0.4515
 1000MOL0     C34887   3.311   9.417   7.676  0.4663 -0.5042  0.5994
 1000MOL0     C34888   3.367   9.401   7.817 -0.3763  0.8861 -0.3187
 1000MOL0     O34889   3.409   9.265   7.838 -0.3113 -0.8256  0.2018
 1000MOL0     C34890   3.544   9.256   7.866  1.0976 -0.9232 -0.7510
 1000MOL0     C34891   3.626   9.174   7.783 -0.1806 -0.1600  0.5077
 1000MOL0     C34892   3.763   9.163   7.809  0.0090 -0.0330 -0.3376
 1000MOL0     C34893   3.827   9.231   7.921  0.6415 -0.7398  0.4485
 1000MOL0     C34894   3.972   9.220   7.962  0.8602 -0.8750 -0.4386
 1000MOL0     O34895   3.997   9.256   8.098  0.3736  0.0306  0.0590
 1000MOL0     C34896   4.121   9.232   8.145  0.1140 -0.1347 -0.0397
 1000MOL0     C34897   4.164   9.102   8.176 -0.0719 -0.3534  0.4557
 1000MOL0     C34898   4.292   9.074   8.224  0.0748  0.9439  0.0757
 1000MOL0     C34899   4.383   9.175   8.245 -0.5659 -0.6750  0.6852
 1000MOL0     O34900   4.511   9.149   8.296  1.1487  0.2686 -0.1352
 1000MOL0     C34901   4.587   9.046   8.241  0.9877  0.1479  0.7286
 1000MOL0     C34902   4.655   9.092   8.105  0.1316  0.3278  0.1769
 1000MOL0     C34903   4.710   9.232   8.090  0.0416  0.1290 -0.2160
 1000MOL0     C34904   4.800   9.276   8.210 -0.6522  0.1641  0.1846
 1000MOL0     C34905   4.838   9.423   8.191 -0.3109 -0.5283  0.0579
 1000MOL0     C34906   4.921   9.470   8.312  0.0881 -0.2881 -0.6237
 1000MOL0     C34907   4.834   9.516   8.435 -0.1956 -0.0446 -0.2717
 1000MOL0     C34908   4.906   9.542   8.568 -1.2941  0.2172  0.2484
 1000MOL0    Cl34909   4.994   9.409   8.640 -0.7744 -0.2412  0.3292
 1000MOL0     C34910   4.347   9.301   8.203  0.7922  0.3913  0.6071
 1000MOL0     C34911   4.217   9.332   8.151  1.3011  0.4017 -0.3815
 1000MOL0     O34912   4.058   9.194   7.878  0.9009  0.7377 -0.0592
 1000MOL0     C34913   3.740   9.309   8.003 -0.1689 -0.4774 -0.4322
 1000MOL0     C34914   3.598   9.328   7.983 -0.8907  0.5992  0.0590
 1000MOL0     N34915   2.958   9.345   7.482 -0.2152  0.0650 -0.0763
 1000MOL0     N34916   2.890   9.449   7.452 -0.3898 -0.4192  0.5471
 1000MOL0     C34917   1.835   9.957   7.287  0.1769 -0.2877 -0.6361
 1000MOL0     C34918   1.706  10.001   7.259  0.1250 -0.4782 -0.5140
 1000MOL0     C34919   1.359  10.176   7.091 -0.7021  0.9309  0.4215
 1000MOL0     C34920   1.302  10.234   7.206 -0.6900  0.6984 -0.5025
 1000MOL0     C34921   1.160  10.256   7.211 -0.2982  0.5207 -0.4817
 1000MOL0     C34922   1.076  10.216   7.105 -0.1629  0.2884  0.2634
 1000MOL0     O34923   0.937  10.234   7.098 -0.1145  0.4582 -0.0678
 1000MOL0     C34924   0.875  10.281   7.222  0.2535 -0.1439 -0.5719
 1000MOL0     C34925   0.827  10.428   7.211 -0.1486 -1.2843 -0.2711
 1000MOL0     C34926   0.712  10.441   7.111 -0.1365 -0.5981  0.1916
 1000MOL0     C34927   0.667  10.589   7.094 -0.6381 -0.1897 -0.6413
 1000MOL0     C34928   0.630  10.652   7.227 -0.6795  0.0989  0.5730
 1000MOL0     C34929   0.599  10.692   7.340 -1.5537 -0.6421  0.0037
 1000MOL0     C34930   1.136  10.159   6.994  0.1981 -0.0167  0.0235
 1000MOL0     C34931   1.277  10.139   6.988 -0.0752  0.1513 -0.3230
 1000MOL0     C34932   1.323  10.079   6.858 -0.8584  0.0529  0.3032
 1000MOL0     H34933   1.784  10.333   7.237 -1.5334 -0.7180 -0.4541
 1000MOL0     H34934   2.026  10.237   7.267  1.7718 -0.9542  1.9423
 1000MOL0     H34935   2.216  10.111   7.286 -2.0502 -0.1055 -1.0635
 1000MOL0     H34936   2.150  10.115   7.453  1.7718  3.6468 -1.0107
 1000MOL0     H34937   2.217   9.892   7.501  0.3886 -0.3609  0.2654
 1000MOL0     H34938   2.355  10.006   7.481 -1.2462  0.3405  0.7464
 1000MOL0     H34939   2.398   9.918   7.247 -2.8593 -0.1810 -0.3223
 1000MOL0     H34940   2.276   9.795   7.276  0.6888  0.2508 -2.5353
 1000MOL0     H34941   2.391   9.684   7.443 -1.7063  3.0478  1.1777
 1000MOL0     H34942   2.499   9.712   7.310  0.5632 -0.7072 -0.2701
 1000MOL0     H34943   2.638   9.860   7.433 -0.5810 -0.5578 -0.1352
 1000MOL0     H34944   2.511   9.884   7.557 -1.3526 -2.2755  2.1343
 1000MOL0     H34945   2.542   9.684   7.672 -1.8647  0.8260 -1.3664
 1000MOL0     H34946   2.603   9.604   7.543  3.2389 -1.0006  1.4027
 1000MOL0     H34947   2.762   9.679   7.735 -1.5340 -1.5951  0.3920
 1000MOL0     H34948   2.766   9.831   7.649  2.0106 -0.9995  0.4963
 1000MOL0     H34949   2.863   9.709   7.444  1.2604 -1.8609  0.7562
 1000MOL0     H34950   2.958   9.728   7.593 -1.1378  3.1432 -0.1162
 1000MOL0     H34951   3.021   9.516   7.747  2.4824  0.3636 -1.7698
 1000MOL0     H34952   3.120   9.241   7.779  0.0007 -1.2157  0.3507
 1000MOL0     H34953   3.077   9.163   7.620  1.0975  1.2458 -1.7391
 1000MOL0     H34954   3.312   9.204   7.656 -2.6672 -0.6452  1.7263
 1000MOL0     H34955   3.258   9.277   7.509  3.5986  0.9832 -0.3329
 1000MOL0     H34956   3.239   9.498   7.667  0.1901 -0.8740 -0.8354
 1000MOL0     H34957   3.390   9.450   7.608 -1.2909  2.2958 -0.2209
 1000MOL0     H34958   3.288   9.427   7.888  0.8244  3.5906  0.1508
 1000MOL0     H34959   3.443   9.478   7.830 -0.2263  1.0981 -2.1875
 1000MOL0     H34960   3.593   9.120   7.696 -2.5063  0.1113  1.1728
 1000MOL0     H34961   3.821   9.099   7.743  0.7193  3.0761 -3.0013
 1000MOL0     H34962   4.091   9.027   8.148  0.6876 -0.8690 -0.1891
 1000MOL0     H34963   4.313   8.972   8.252  4.2956  1.2350 -1.3767
 1000MOL0     H34964   4.661   9.009   8.313  1.1866 -2.3359 -0.6400
 1000MOL0     H34965   4.518   8.961   8.240  2.3341 -1.1840  4.1099
 1000MOL0     H34966   4.732   9.024   8.068  0.9245  1.7525 -0.8715
 1000MOL0     H34967   4.569   9.073   8.040 -0.8368 -1.0572  1.7709
 1000MOL0     H34968   4.751   9.234   7.989 -2.2020 -2.2003 -1.2866
 1000MOL0     H34969   4.619   9.293   8.094  0.2009  0.4078 -0.8145
 1000MOL0     H34970   4.892   9.216   8.206 -0.1495  0.9244 -0.0066
 1000MOL0     H34971   4.746   9.261   8.303 -1.2897  2.6642  0.2873
 1000MOL0     H34972   4.749   9.485   8.179 -0.6897 -0.5823  2.2835
 1000MOL0     H34973   4.906   9.424   8.105  2.1777 -1.9686  1.8479
 1000MOL0     H34974   4.995   9.393   8.334  0.9878 -0.3568 -3.4906
 1000MOL0     H34975   4.985   9.554   8.282 -0.1796 -0.4507 -1.6884
 1000MOL0     H34976   4.751   9.447   8.455 -2.1350  2.4283  0.7948
 1000MOL0     H34977   4.794   9.615   8.412  2.0103  1.0307  0.2280
 1000MOL0     H34978   4.979   9.621   8.548  0.0138 -0.9555  0.2353
 1000MOL0     H34979   4.843   9.581   8.648 -0.8091 -2.3521  2.0292
 1000MOL0     H34980   4.410   9.389   8.216 -0.3883  1.7133 -1.9687
 1000MOL0     H34981   4.182   9.431   8.125 -1.7796 -0.6491 -0.5892
 1000MOL0     H34982   3.780   9.353   8.093 -2.6752  2.3329 -0.5396
 1000MOL0     H34983   3.543   9.394   8.050 -1.9541  2.2949 -2.3409
 1000MOL0     H34984   1.845   9.849   7.286 -1.5597 -0.5217  1.0417
 1000MOL0     H34985   1.628   9.925   7.252 -0.2903 -0.1348  0.2199
 1000MOL0     H34986   1.361  10.257   7.294 -2.5500  0.9036  0.7434
 1000MOL0     H34987   1.122  10.297   7.304 -0.7202  0.0589 -0.4507
 1000MOL0     H34988   0.921  10.251   7.316 -2.8132 -1.1192  0.7443
 1000MOL0     H34989   0.776  10.238   7.204 -0.1435  0.0078  1.1457
 1000MOL0     H34990   0.911  10.496   7.195 -0.2240 -0.7515  1.3800
 1000MOL0     H34991   0.784  10.455   7.308 -0.0344 -0.7079 -0.3800
 1000MOL0     H34992   0.629  10.387   7.159  1.3820 -1.6746  1.7495
 1000MOL0     H34993   0.738  10.391   7.017  0.2037 -2.7390  1.3560
 1000MOL0     H34994   0.750  10.652   7.062 -1.5140  0.8144 -0.9957
 1000MOL0     H34995   0.580  10.599   7.028  0.5954 -0.6143 -2.4167
 1000MOL0     H34996   0.585  10.728   7.440  1.2151 -1.7525  0.9066
 1000MOL0     H34997   1.059  10.137   6.921 -1.1851 -0.0704  1.4261
 1000MOL0     H34998   1.412  10.139   6.838 -1.4708  1.3889  1.4088
 1000MOL0     H34999   1.342   9.971   6.863 -2.6234 -0.3124 -0.1772
 1000MOL0     H35000   1.253  10.090   6.775  0.1944  2.5425 -0.3358
 1001MOL0     O35001   5.583   8.956   2.439 -0.5102 -0.1795 -0.2068
 1001MOL0     C35002   5.601   8.874   2.520 -0.2975  0.2347  0.3947
 1001MOL0     O35003   5.505   8.826   2.613 -0.6748 -0.0544 -0.5889
 1001MOL0     C35004   5.381   8.880   2.612  0.6278  0.5055 -0.1573
 1001MOL0     C35005   5.346   8.967   2.712 -0.2817 -0.6561  0.4775
 1001MOL0     C35006   5.214   9.021   2.715 -0.5877 -0.5992 -0.1715
 1001MOL0     C35007   5.120   8.976   2.623 -0.2719 -0.2298 -0.5086
 1001MOL0     O35008   4.993   9.018   2.635  0.4716  0.4164 -0.2712
 1001MOL0     C35009   4.945   9.056   2.765 -0.8854  0.6550 -0.3914
 1001MOL0     C35010   4.814   9.126   2.734 -0.3533  1.3073 -0.8563
 1001MOL0     C35011   4.787   9.207   2.858  0.0651  0.0901  0.0612
 1001MOL0     C35012   4.642   9.268   2.856 -0.1209 -0.8400  0.4873
 1001MOL0     C35013   4.611   9.371   2.966  0.0291  1.4828  0.8161
 1001MOL0     C35014   4.681   9.504   2.955 -0.0909 -0.5752  0.1243
 1001MOL0     C35015   4.637   9.597   2.843  0.0538  0.5009  0.0268
 1001MOL0     C35016   4.492   9.642   2.838  0.6020  0.1654  0.6760
 1001MOL0     N35017   4.459   9.742   2.730 -0.4486 -0.0041  0.5492
 1001MOL0     C35018   4.446   9.709   2.596  0.3844 -0.4429  0.6293
 1001MOL0     C35019   4.427   9.827   2.536 -0.3592  0.1270 -0.7293
 1001MOL0     C35020   4.404   9.854   2.387 -0.6840  0.0874 -1.0357
 1001MOL0     C35021   4.537   9.899   2.328 -0.2163  0.3601 -0.1485
 1001MOL0     C35022   4.542   9.885   2.175  0.6221 -0.4045  0.7656
 1001MOL0     C35023   4.661   9.957   2.114 -0.1509  0.2921  0.3184
 1001MOL0     O35024   4.663   9.917   1.983  0.0645  0.8816  0.4674
 1001MOL0     C35025   4.759   9.969   1.904 -0.3080  0.1219 -0.2542
 1001MOL0     C35026   4.781   9.901   1.784  0.7878  0.6493  1.3644
 1001MOL0     C35027   4.885   9.920   1.692 -0.9689 -0.5168 -0.1340
 1001MOL0     C35028   4.975  10.024   1.732  0.5177  0.0923  1.0281
 1001MOL0     C35029   5.092  10.042   1.647 -0.0061 -1.6126  0.5419
 1001MOL0     O35030   5.078   9.987   1.525  0.2630 -0.6715 -0.7276
 1001MOL0     C35031   5.196   9.986   1.451  1.3067  0.3376  0.0882
 1001MOL0     C35032   5.284   9.880   1.449 -0.4231 -0.6165  0.7949
 1001MOL0     C35033   5.403   9.882   1.375 -0.4465 -0.0682 -0.1888
 1001MOL0     C35034   5.447   9.995   1.307 -0.2569 -0.0134  1.0411
 1001MOL0     O35035   5.571  10.026   1.254  0.3992 -1.0819 -0.5031
 1001MOL0     C35036   5.659   9.925   1.259 -0.1578 -0.4599 -0.2126
 1001MOL0     C35037   5.800   9.986   1.227  0.6194  0.4999  0.9208
 1001MOL0     C35038   5.852  10.088   1.322 -1.6160  0.2838 -1.1175
 1001MOL0     C35039   6.008  10.120   1.306  0.1615 -0.1204  0.1059
 1001MOL0     C35040   6.055  10.219   1.420  0.8359  0.3551 -0.0280
 1001MOL0     C35041   6.202  10.261   1.406  0.4870 -0.0930 -0.3506
 1001MOL0     C35042   6.252  10.342   1.530  0.2994 -0.4934  0.6021
 1001MOL0     C35043   6.394  10.388   1.518 -0.4811  0.5989 -0.5292
 1001MOL0    Cl35044   6.508  10.256   1.539 -0.1009 -0.0460  0.1252
 1001MOL0     C35045   5.357  10.103   1.304  0.8466  0.0434 -0.0426
 1001MOL0     C35046   5.231  10.099   1.370  0.0993  1.0614  0.4032
 1001MOL0     O35047   5.201  10.077   1.701 -0.2603  1.0171  0.4130
 1001MOL0     C35048   4.957  10.095   1.850  0.1449 -0.7288 -0.0998
 1001MOL0     C35049   4.852  10.070   1.936  0.0047 -0.1661 -0.7110
 1001MOL0     N35050   4.438   9.927   2.636 -0.6881  0.4100  0.0162
 1001MOL0     N35051   4.470   9.876   2.751  0.7296 -1.4684  0.5182
 1001MOL0     C35052   5.152   8.893   2.525 -0.6257  0.6824  0.8538
 1001MOL0     C35053   5.284   8.840   2.515 -0.7072 -0.3790 -0.4626
 1001MOL0     C35054   5.738   8.831   2.535 -0.6791 -0.1423  0.2603
 1001MOL0     C35055   5.788   8.817   2.665  0.4203 -0.2722  0.2792
 1001MOL0     C35056   5.921   8.771   2.690 -0.3203  0.4477  0.0162
 1001MOL0     C35057   5.998   8.734   2.588 -0.8000 -0.3853 -0.3368
 1001MOL0     O35058   6.116   8.664   2.618 -0.4531 -0.0297  0.2112
 1001MOL0     C35059   6.225   8.654   2.518  0.3213 -0.0103 -0.2028
 1001MOL0     C35060   6.349   8.620   2.595 -0.7639 -0.1075 -0.5697
 1001MOL0     C35061   6.471   8.611   2.501  0.5794 -0.7281 -0.3864
 1001MOL0     C35062   6.611   8.613   2.551 -0.6140  0.3153 -0.9644
 1001MOL0     C35063   6.652   8.721   2.638  0.0914 -0.6191  0.0288
 1001MOL0     C35064   6.680   8.824   2.701 -0.2606 -0.1270  0.3484
 1001MOL0     C35065   5.958   8.756   2.455  0.5743 -0.2865 -0.3850
 1001MOL0     C35066   5.826   8.803   2.426 -0.7025 -0.3214  0.2741
 1001MOL0     C35067   5.779   8.810   2.282  0.5585  0.6175  0.6847
 1001MOL0     H35068   5.424   8.990   2.784  1.8599 -1.8824 -1.2907
 1001MOL0     H35069   5.200   9.098   2.790 -1.0550  0.6786 -1.5100
 1001MOL0     H35070   4.939   8.969   2.832  0.8697  1.3606  0.7686
 1001MOL0     H35071   5.014   9.120   2.822  2.0895 -3.1574  0.7591
 1001MOL0     H35072   4.743   9.044   2.723  1.6562 -0.3700 -2.0798
 1001MOL0     H35073   4.818   9.183   2.641  0.2869  1.5800 -0.6686
 1001MOL0     H35074   4.848   9.298   2.847 -0.1854  0.0473 -1.8823
 1001MOL0     H35075   4.808   9.159   2.954 -0.8932 -1.2211 -0.3564
 1001MOL0     H35076   4.628   9.316   2.759 -0.8966 -2.9829 -0.5209
 1001MOL0     H35077   4.570   9.187   2.865 -0.6125 -0.2955  1.6860
 1001MOL0     H35078   4.504   9.392   2.972  0.0853  1.4590  2.3394
 1001MOL0     H35079   4.650   9.331   3.060  3.4999 -0.5873 -1.2950
 1001MOL0     H35080   4.660   9.562   3.045 -2.3396 -1.4036  0.1853
 1001MOL0     H35081   4.788   9.485   2.967 -0.0263  0.4795  1.4650
 1001MOL0     H35082   4.658   9.553   2.745 -4.1838 -3.1613  0.4195
 1001MOL0     H35083   4.689   9.693   2.847 -2.5755  2.2664 -3.0169
 1001MOL0     H35084   4.434   9.552   2.812  2.0530 -0.4472 -0.6765
 1001MOL0     H35085   4.449   9.681   2.930 -0.6135  0.8653 -0.1613
 1001MOL0     H35086   4.429   9.612   2.550 -1.1801  0.4948 -0.8816
 1001MOL0     H35087   4.383   9.763   2.331 -0.5060  0.6439 -2.0415
 1001MOL0     H35088   4.331   9.934   2.374 -1.2708 -0.1427  0.5909
 1001MOL0     H35089   4.556  10.003   2.357  1.2319 -0.1331  0.7785
 1001MOL0     H35090   4.617   9.830   2.354 -0.7887 -0.7784 -1.3284
 1001MOL0     H35091   4.448   9.924   2.134 -0.5751 -3.5848  0.1095
 1001MOL0     H35092   4.548   9.780   2.143  2.3692 -0.8078  2.2193
 1001MOL0     H35093   4.755   9.923   2.159  0.5064  1.5135 -0.0866
 1001MOL0     H35094   4.657  10.065   2.133  2.5492  0.2740  1.5061
 1001MOL0     H35095   4.713   9.823   1.753  1.0056  1.4364 -1.4703
 1001MOL0     H35096   4.911   9.857   1.608  3.5569  0.2219  0.4491
 1001MOL0     H35097   5.266   9.781   1.491  2.1737 -0.8444  1.5533
 1001MOL0     H35098   5.478   9.803   1.375 -1.0454 -0.6931  1.9628
 1001MOL0     H35099   5.658   9.897   1.364 -0.4285  2.1320  0.5581
 1001MOL0     H35100   5.626   9.854   1.183  1.4995 -3.0455  1.3393
 1001MOL0     H35101   5.870   9.902   1.226 -2.0792 -1.9064  1.5154
 1001MOL0     H35102   5.797  10.031   1.127 -2.3876  1.4184  1.3376
 1001MOL0     H35103   5.802  10.184   1.305 -1.6885  0.3371 -0.6335
 1001MOL0     H35104   5.834  10.050   1.423  0.1700  0.2294 -0.7918
 1001MOL0     H35105   6.035  10.152   1.204 -0.6508  0.6044  0.1067
 1001MOL0     H35106   6.071  10.033   1.324  1.8701  1.1097  0.4291
 1001MOL0     H35107   6.050  10.169   1.517  3.6394 -2.3209 -1.1015
 1001MOL0     H35108   5.989  10.305   1.437 -0.7585 -0.1115 -3.0820
 1001MOL0     H35109   6.268  10.176   1.393 -0.0923 -0.5338 -0.4595
 1001MOL0     H35110   6.222  10.330   1.323  1.2585  0.5792  0.3739
 1001MOL0     H35111   6.246  10.271   1.613 -1.6814 -1.1091  0.0099
 1001MOL0     H35112   6.178  10.418   1.558 -1.2289 -1.5837 -0.3059
 1001MOL0     H35113   6.413  10.442   1.425  1.8755  3.2057  1.2981
 1001MOL0     H35114   6.419  10.452   1.603  3.3439 -2.6217  1.1175
 1001MOL0     H35115   5.379  10.187   1.240 -2.6616  1.4765  0.4307
 1001MOL0     H35116   5.175  10.192   1.377 -1.4201  0.2242 -0.1428
 1001MOL0     H35117   5.037  10.164   1.873  1.9880 -2.2520 -1.6143
 1001MOL0     H35118   4.849  10.121   2.032 -2.8507 -0.4589 -0.5577
 1001MOL0     H35119   5.069   8.872   2.457 -2.3946  1.1816  2.7524
 1001MOL0     H35120   5.309   8.760   2.447 -2.6125 -3.3277  2.0146
 1001MOL0     H35121   5.717   8.831   2.745 -4.2330 -1.3327 -3.2324
 1001MOL0     H35122   5.959   8.740   2.787  1.9271  1.9921 -0.3026
 1001MOL0     H35123   6.237   8.747   2.461  2.2597  0.6651  1.1611
 1001MOL0     H35124   6.214   8.583   2.437  1.7106  0.0901 -0.5163
 1001MOL0     H35125   6.332   8.528   2.652 -0.1312  2.2726  3.8856
 1001MOL0     H35126   6.371   8.703   2.663  0.9127 -1.3203  0.4434
 1001MOL0     H35127   6.471   8.708   2.450 -0.7608 -0.1410  0.6545
 1001MOL0     H35128   6.454   8.530   2.429 -1.0096 -1.3149  0.5854
 1001MOL0     H35129   6.638   8.516   2.594  0.3047  0.1567 -1.8579
 1001MOL0     H35130   6.677   8.609   2.463 -0.5357 -2.3976 -0.8624
 1001MOL0     H35131   6.718   8.910   2.752  1.1323 -0.4217 -0.1608
 1001MOL0     H35132   6.020   8.736   2.368 -1.0796  0.0738 -1.7015
 1001MOL0     H35133   5.860   8.841   2.214 -0.6569  0.0906 -1.0646
 1001MOL0     H35134   5.742   8.713   2.248  2.7085 -0.3029  0.7617
 1001MOL0     H35135   5.702   8.887   2.269 -1.8802 -1.7753  0.1939
 1002MOL0     O35136   3.045   2.011   9.664 -0.3407  0.1520 -0.2563
 1002MOL0     C35137   3.088   1.898   9.659 -0.7773  0.6578 -0.2054
 1002MOL0     O35138   3.007   1.787   9.660 -0.0679 -0.0800 -0.2729
 1002MOL0     C35139   2.870   1.786   9.618 -0.0499  0.1529  0.5712
 1002MOL0     C35140   2.798   1.670   9.642  0.9408 -0.1072 -0.9211
 1002MOL0     C35141   2.682   1.647   9.570  0.1394  0.3567  0.1816
 1002MOL0     C35142   2.638   1.730   9.459  0.8276  0.1909 -0.4428
 1002MOL0     O35143   2.548   1.688   9.362 -0.0248  0.1532 -0.0692
 1002MOL0     C35144   2.497   1.553   9.347  0.0142 -0.4542 -1.0549
 1002MOL0     C35145   2.460   1.542   9.201  0.9907 -0.3326 -0.1196
 1002MOL0     C35146   2.566   1.591   9.102 -0.4129 -0.6985  0.3746
 1002MOL0     C35147   2.705   1.520   9.095 -0.0970  0.1293 -0.4291
 1002MOL0     C35148   2.692   1.372   9.084 -0.5954 -0.1448 -0.4691
 1002MOL0     C35149   2.831   1.305   9.074  0.0907  0.2276 -0.4247
 1002MOL0     C35150   2.897   1.315   8.929 -0.5011 -0.4080  0.9145
 1002MOL0     C35151   2.994   1.205   8.896  0.3336 -1.4383  0.5507
 1002MOL0     N35152   2.912   1.082   8.900 -0.3681  1.4651 -0.3764
 1002MOL0     C35153   2.815   1.047   8.812  0.3405  0.8473 -0.0323
 1002MOL0     C35154   2.773   0.927   8.865  0.0786 -0.1580  0.1273
 1002MOL0     C35155   2.654   0.830   8.831  0.3706 -0.0071  0.2572
 1002MOL0     C35156   2.517   0.907   8.816 -0.0008 -0.4129  0.0551
 1002MOL0     C35157   2.463   0.930   8.964  0.2266  0.0646 -0.4517
 1002MOL0     C35158   2.319   0.990   8.953 -0.4117  0.4522  0.2723
 1002MOL0     O35159   2.318   1.142   8.927 -0.6290  0.8347  0.0771
 1002MOL0     C35160   2.207   1.177   8.855 -0.6602  0.5743 -0.1242
 1002MOL0     C35161   2.094   1.098   8.831  1.2466 -0.7217 -0.3860
 1002MOL0     C35162   1.991   1.145   8.755  0.6418 -1.0314  0.6255
 1002MOL0     C35163   1.994   1.277   8.694  0.0803 -0.3155  0.7940
 1002MOL0     C35164   1.879   1.319   8.610 -0.9604 -0.0475 -0.1126
 1002MOL0     O35165   1.774   1.240   8.599 -0.3882  0.5434  0.4900
 1002MOL0     C35166   1.652   1.269   8.539  0.1212  0.3936 -0.4987
 1002MOL0     C35167   1.625   1.385   8.462 -0.1866 -0.1844 -0.7011
 1002MOL0     C35168   1.491   1.416   8.404 -0.9890 -0.0477  0.2273
 1002MOL0     C35169   1.388   1.322   8.415 -0.2584 -0.2193  0.5117
 1002MOL0     O35170   1.259   1.346   8.378 -0.2375 -0.0054  0.3070
 1002MOL0     C35171   1.239   1.415   8.248 -0.2614 -1.2865 -0.7321
 1002MOL0     C35172   1.088   1.410   8.209 -1.0086 -0.0478 -0.4985
 1002MOL0     C35173   1.068   1.277   8.145  0.0210  0.5960 -0.6891
 1002MOL0     C35174   1.096   1.276   8.000 -0.3632 -0.3323  0.5779
 1002MOL0     C35175   1.021   1.160   7.930 -0.3188  0.7961 -0.0964
 1002MOL0     C35176   1.022   1.169   7.775 -1.3023  0.1161  0.9897
 1002MOL0     C35177   1.160   1.160   7.711 -0.6525 -0.3506  0.4394
 1002MOL0     C35178   1.172   1.251   7.582 -0.2798 -0.1229 -0.0406
 1002MOL0    Cl35179   1.330   1.234   7.504  0.1259  0.2010 -0.1843
 1002MOL0     C35180   1.410   1.210   8.494  0.3619  0.2303  0.2030
 1002MOL0     C35181   1.539   1.186   8.556  0.5006 -0.0198  0.8941
 1002MOL0     O35182   1.892   1.430   8.560  0.2413  0.3887 -0.6891
 1002MOL0     C35183   2.106   1.355   8.713  1.1329  0.4807 -0.0677
 1002MOL0     C35184   2.217   1.305   8.792 -0.2883 -0.5122  0.4779
 1002MOL0     N35185   2.859   0.888   8.970  0.4413 -0.1076 -0.5838
 1002MOL0     N35186   2.940   0.982   8.991  0.4571 -0.6618 -0.3149
 1002MOL0     C35187   2.707   1.847   9.443  0.2767  1.1639  0.7784
 1002MOL0     C35188   2.822   1.875   9.520  0.4115  0.1870  0.3862
 1002MOL0     C35189   3.233   1.874   9.663 -0.3133 -0.2948 -0.3660
 1002MOL0     C35190   3.284   1.747   9.625  0.3788  0.4510 -0.1688
 1002MOL0     C35191   3.419   1.716   9.639 -0.4674  0.0864 -0.5057
 1002MOL0     C35192   3.512   1.813   9.695  0.5759 -0.5808  1.0530
 1002MOL0     O35193   3.644   1.786   9.708  0.2625 -0.0245 -0.6047
 1002MOL0     C35194   3.745   1.844   9.629  0.7223  1.1180  0.1282
 1002MOL0     C35195   3.736   1.800   9.479 -0.5883  0.2242  0.5236
 1002MOL0     C35196   3.734   1.648   9.437  0.4514  0.5161  0.2651
 1002MOL0     C35197   3.847   1.554   9.493 -0.6252 -1.1591 -1.3308
 1002MOL0     C35198   3.981   1.614   9.512  0.2133 -0.2641  0.4738
 1002MOL0     C35199   4.095   1.639   9.541 -0.3121 -0.1201  0.0569
 1002MOL0     C35200   3.467   1.938   9.729  0.2116  0.2283 -0.2381
 1002MOL0     C35201   3.326   1.972   9.715  0.3605 -0.2781 -0.7480
 1002MOL0     C35202   3.283   2.110   9.781 -0.3155 -0.8276 -0.1352
 1002MOL0     H35203   2.842   1.593   9.703  1.4462 -0.3450 -1.5714
 1002MOL0     H35204   2.617   1.561   9.585  0.5663 -0.3214 -1.6015
 1002MOL0     H35205   2.581   1.486   9.370  1.7290  1.7329 -0.6097
 1002MOL0     H35206   2.417   1.548   9.422  2.4396  4.6736  2.4730
 1002MOL0     H35207   2.366   1.593   9.179  1.8787  0.8394 -1.3244
 1002MOL0     H35208   2.439   1.436   9.182  1.4267 -1.0207  2.6742
 1002MOL0     H35209   2.589   1.696   9.120  3.7621 -1.6926  1.8329
 1002MOL0     H35210   2.520   1.589   9.002 -0.6188  0.5370  0.4352
 1002MOL0     H35211   2.758   1.561   9.008 -1.3222  3.1376  0.1250
 1002MOL0     H35212   2.768   1.549   9.179  2.7986 -0.1088 -2.3534
 1002MOL0     H35213   2.652   1.327   9.175 -1.9779  0.5054 -0.7333
 1002MOL0     H35214   2.630   1.334   9.002 -0.2694  1.3498 -1.4696
 1002MOL0     H35215   2.903   1.354   9.140  0.4779  0.3327 -0.9155
 1002MOL0     H35216   2.819   1.201   9.105  1.3718 -0.4682 -2.1159
 1002MOL0     H35217   2.950   1.410   8.921 -0.9927 -0.0976  1.2448
 1002MOL0     H35218   2.817   1.309   8.855 -0.0151  0.1094  0.3401
 1002MOL0     H35219   3.032   1.224   8.795 -1.9252  1.5848  0.1221
 1002MOL0     H35220   3.075   1.193   8.968 -0.7318 -0.6251  1.9377
 1002MOL0     H35221   2.772   1.108   8.733 -0.7037  0.5712  0.3194
 1002MOL0     H35222   2.677   0.780   8.736 -1.0661 -1.4075  0.5978
 1002MOL0     H35223   2.627   0.741   8.889 -0.2961  0.8639  1.3053
 1002MOL0     H35224   2.537   1.004   8.770  1.1049 -0.2930  0.7472
 1002MOL0     H35225   2.455   0.856   8.742  1.4901 -0.9077 -0.8981
 1002MOL0     H35226   2.533   1.004   9.004  1.2459  0.6863 -3.1448
 1002MOL0     H35227   2.456   0.846   9.034 -1.0925  1.4043  1.1026
 1002MOL0     H35228   2.254   0.963   9.037  0.9649 -0.3043  1.1481
 1002MOL0     H35229   2.283   0.935   8.866  0.9442  0.1460 -0.1283
 1002MOL0     H35230   2.077   1.011   8.894  0.1324 -0.6828 -0.6124
 1002MOL0     H35231   1.902   1.083   8.753 -0.1939  0.0897 -1.9890
 1002MOL0     H35232   1.699   1.462   8.442 -1.2523  1.1824  0.4056
 1002MOL0     H35233   1.472   1.509   8.351 -0.4946  0.3609  0.7509
 1002MOL0     H35234   1.271   1.520   8.244 -2.9036 -0.1554  2.6285
 1002MOL0     H35235   1.298   1.361   8.174 -0.3520 -4.6201  1.3902
 1002MOL0     H35236   1.021   1.432   8.293  0.7241 -0.2581  0.9780
 1002MOL0     H35237   1.076   1.489   8.134 -1.0491 -0.3286 -0.7920
 1002MOL0     H35238   1.119   1.192   8.192 -0.1707 -1.0039 -3.1614
 1002MOL0     H35239   0.962   1.250   8.158  0.7828 -1.3203  3.5788
 1002MOL0     H35240   1.204   1.260   7.993 -0.3526  0.4880 -2.2729
 1002MOL0     H35241   1.075   1.373   7.955 -0.0932 -0.2039  0.7278
 1002MOL0     H35242   0.915   1.158   7.958 -0.4993  1.6297 -0.6834
 1002MOL0     H35243   1.064   1.063   7.958  0.5253  1.2722  0.2809
 1002MOL0     H35244   0.953   1.094   7.734 -1.0607  0.3659  0.0965
 1002MOL0     H35245   0.977   1.264   7.744 -1.0242 -0.6999 -2.2664
 1002MOL0     H35246   1.165   1.055   7.679 -1.5495  0.0182 -0.9729
 1002MOL0     H35247   1.242   1.177   7.781 -1.2149  1.4462  0.7080
 1002MOL0     H35248   1.102   1.237   7.499  0.4063  3.3494 -1.3603
 1002MOL0     H35249   1.157   1.352   7.621  0.7044 -0.1452  0.4204
 1002MOL0     H35250   1.340   1.130   8.512  1.3746 -1.0885 -1.4251
 1002MOL0     H35251   1.546   1.092   8.611 -3.8087 -2.4369 -2.1031
 1002MOL0     H35252   2.116   1.451   8.664 -1.4483  0.9440  0.1825
 1002MOL0     H35253   2.297   1.367   8.831 -2.2941  1.1538  2.2123
 1002MOL0     H35254   2.676   1.928   9.378 -1.2162 -0.6089 -0.8333
 1002MOL0     H35255   2.882   1.961   9.491  1.0724 -1.0298 -2.0362
 1002MOL0     H35256   3.212   1.678   9.583  0.2153  1.1802 -1.1138
 1002MOL0     H35257   3.469   1.622   9.618 -0.6381 -0.4919  1.4371
 1002MOL0     H35258   3.842   1.819   9.671  0.0230  1.8981  2.3738
 1002MOL0     H35259   3.741   1.953   9.637  1.6400  1.0642  1.5605
 1002MOL0     H35260   3.822   1.842   9.425  1.0463 -2.2155  1.0497
 1002MOL0     H35261   3.645   1.846   9.440 -1.3161  0.4804  2.4562
 1002MOL0     H35262   3.736   1.637   9.328  0.2443 -1.3621  0.4208
 1002MOL0     H35263   3.640   1.600   9.465  0.2858 -0.9218 -2.4375
 1002MOL0     H35264   3.813   1.520   9.591 -2.1788  2.2010 -0.5628
 1002MOL0     H35265   3.860   1.468   9.426 -1.4559  0.8685 -4.2802
 1002MOL0     H35266   4.191   1.674   9.574 -1.3082  3.0935 -0.0893
 1002MOL0     H35267   3.535   2.015   9.763  0.1535  0.9694 -1.7284
 1002MOL0     H35268   3.265   2.189   9.708 -0.1280 -0.0644  0.6276
 1002MOL0     H35269   3.191   2.102   9.840 -0.6367  1.0819 -0.3025
 1002MOL0     H35270   3.367   2.145   9.842 -0.5883 -0.8685  0.2673
 1003MOL0     O35271  10.200   5.341  10.620 -0.2162  0.3427  1.1452
 1003MOL0     C35272  10.237   5.295  10.728  0.5893 -0.7946  0.9194
 1003MOL0     O35273  10.157   5.294  10.840 -0.1502  0.2626  0.2971
 1003MOL0     C35274  10.028   5.322  10.814  0.2348 -0.7482  0.7458
 1003MOL0     C35275   9.938   5.227  10.759  0.8535  0.7391 -0.4769
 1003MOL0     C35276   9.806   5.258  10.733 -0.6753 -0.0318 -0.9341
 1003MOL0     C35277   9.757   5.382  10.776  0.1159 -0.3375  0.2195
 1003MOL0     O35278   9.625   5.405  10.752  0.4605 -0.6742  1.0106
 1003MOL0     C35279   9.594   5.541  10.726  1.6005  0.3931 -0.6922
 1003MOL0     C35280   9.441   5.556  10.738 -0.0180  1.0299 -0.9412
 1003MOL0     C35281   9.365   5.504  10.615  0.3307  0.0782  0.0935
 1003MOL0     C35282   9.209   5.489  10.655 -0.0728  0.2229 -0.5936
 1003MOL0     C35283   9.106   5.470  10.541  0.8217  0.3177 -0.3556
 1003MOL0     C35284   9.149   5.351  10.457  0.2164 -0.8854  0.8562
 1003MOL0     C35285   9.139   5.220  10.531 -0.0138 -0.7264 -0.0302
 1003MOL0     C35286   9.181   5.106  10.442 -1.0100 -0.0403 -1.2338
 1003MOL0     N35287   9.333   5.089  10.437 -1.0354 -0.2179 -0.0188
 1003MOL0     C35288   9.417   5.119  10.340 -0.4013  0.5194 -0.2178
 1003MOL0     C35289   9.537   5.073  10.388 -0.9393 -0.6157 -0.0521
 1003MOL0     C35290   9.663   5.073  10.313 -0.0859  0.0809 -0.5717
 1003MOL0     C35291   9.715   5.206  10.261  0.6704  1.0420 -0.1750
 1003MOL0     C35292   9.765   5.305  10.374 -0.2239 -0.6895 -1.1067
 1003MOL0     C35293   9.782   5.446  10.312 -0.0140 -0.5111  0.1762
 1003MOL0     O35294   9.871   5.453  10.204  0.4114  0.4757  0.1645
 1003MOL0     C35295   9.992   5.507  10.233 -0.6037 -0.2424 -0.1703
 1003MOL0     C35296  10.042   5.619  10.148  0.6489  0.1678 -1.1309
 1003MOL0     C35297  10.171   5.666  10.166  0.1553  0.9210 -0.0121
 1003MOL0     C35298  10.253   5.613  10.265  0.3067  0.1952 -0.1459
 1003MOL0     C35299  10.381   5.668  10.281 -0.2038 -0.2979 -0.2966
 1003MOL0     O35300  10.471   5.581  10.321  0.2208  0.5488 -1.0922
 1003MOL0     C35301  10.604   5.600  10.308 -1.1947  0.5546  0.3061
 1003MOL0     C35302  10.661   5.653  10.187  0.2342 -0.4207 -0.9749
 1003MOL0     C35303  10.797   5.654  10.180  0.5288 -1.2813 -0.2574
 1003MOL0     C35304  10.889   5.598  10.273  0.2885 -0.8321 -0.4821
 1003MOL0     O35305  11.027   5.607  10.245  0.8104 -0.1190 -0.0955
 1003MOL0     C35306  11.116   5.560  10.350  0.8829 -0.4125 -0.0293
 1003MOL0     C35307  11.267   5.573  10.321  0.5430  0.3619  0.5366
 1003MOL0     C35308  11.309   5.720  10.318  0.0615 -0.0610 -0.4017
 1003MOL0     C35309  11.443   5.744  10.251 -0.4500 -0.5493 -0.7020
 1003MOL0     C35310  11.555   5.675  10.331 -0.3047  0.3074 -0.8949
 1003MOL0     C35311  11.693   5.702  10.276  0.3265 -0.9458  0.3697
 1003MOL0     C35312  11.811   5.623  10.323 -1.2108  0.6244 -0.6677
 1003MOL0     C35313  11.916   5.696  10.408  0.0469  0.0529 -0.0790
 1003MOL0    Cl35314  11.992   5.851  10.358  0.2027  0.6176  0.0022
 1003MOL0     C35315  10.831   5.549  10.395  0.5191  0.6157  0.0820
 1003MOL0     C35316  10.692   5.546  10.406 -0.3597  0.1182 -0.7840
 1003MOL0     O35317  10.400   5.786  10.253 -0.0776 -0.2303 -0.2333
 1003MOL0     C35318  10.207   5.510  10.344 -0.2433 -0.0702 -0.1751
 1003MOL0     C35319  10.082   5.453  10.328  0.7291  0.6229 -1.3842
 1003MOL0     N35320   9.526   5.046  10.520  0.5570  0.6145 -0.2779
 1003MOL0     N35321   9.406   5.050  10.544  0.8582 -0.7152 -0.3551
 1003MOL0     C35322   9.846   5.480  10.830 -0.5449  0.5835  0.8279
 1003MOL0     C35323   9.977   5.449  10.838 -0.6103 -0.1428 -0.0582
 1003MOL0     C35324  10.380   5.249  10.739 -0.1525  0.4671 -0.9770
 1003MOL0     C35325  10.464   5.257  10.625 -0.0282 -0.3829  0.0738
 1003MOL0     C35326  10.597   5.212  10.630  0.1619  0.1193  0.1014
 1003MOL0     C35327  10.653   5.165  10.754  1.3445  0.0603  0.0004
 1003MOL0     O35328  10.781   5.134  10.779  0.3125 -0.7079  0.1479
 1003MOL0     C35329  10.864   5.147  10.671 -0.4743  0.9532 -0.9645
 1003MOL0     C35330  11.002   5.106  10.718 -0.3407  0.1355  0.2434
 1003MOL0     C35331  11.080   5.057  10.591  0.6615 -0.1937  0.3475
 1003MOL0     C35332  11.101   5.174  10.486 -0.4472 -0.2659  0.1434
 1003MOL0     C35333  11.233   5.153  10.418 -0.2674 -0.4039  0.1058
 1003MOL0     C35334  11.335   5.151  10.354  0.3375 -0.7722  0.0056
 1003MOL0     C35335  10.573   5.174  10.866  0.3726  0.3624  0.6781
 1003MOL0     C35336  10.436   5.206  10.864 -0.1079 -0.0757 -1.7155
 1003MOL0     C35337  10.361   5.181  11.001 -0.6891 -0.1776 -0.1630
 1003MOL0     H35338   9.962   5.129  10.718 -1.5686 -0.5950  1.0403
 1003MOL0     H35339   9.744   5.187  10.679 -0.0932 -1.3564  0.0902
 1003MOL0     H35340   9.622   5.617  10.800 -1.6426  0.5603  0.5325
 1003MOL0     H35341   9.628   5.567  10.626  0.5316 -1.1730 -1.4988
 1003MOL0     H35342   9.420   5.663  10.753 -1.8087  0.9011 -2.1610
 1003MOL0     H35343   9.410   5.491  10.820 -0.8066 -0.2245 -2.1943
 1003MOL0     H35344   9.386   5.401  10.584 -4.2515 -0.5612 -1.7017
 1003MOL0     H35345   9.388   5.568  10.529  2.7608  1.0421  1.3537
 1003MOL0     H35346   9.199   5.411  10.731  0.7712  0.0282 -0.6782
 1003MOL0     H35347   9.193   5.582  10.710  1.6617  0.3499 -0.2688
 1003MOL0     H35348   9.008   5.449  10.583  1.8831 -1.7625  1.2535
 1003MOL0     H35349   9.095   5.553  10.471 -1.8872 -2.0731 -3.0696
 1003MOL0     H35350   9.083   5.343  10.370  1.6518 -1.9874 -0.1654
 1003MOL0     H35351   9.252   5.359  10.423  0.8574 -3.0630  2.0815
 1003MOL0     H35352   9.036   5.192  10.554 -0.5149 -1.0094 -2.3990
 1003MOL0     H35353   9.204   5.218  10.619  1.1894  1.4553 -0.7924
 1003MOL0     H35354   9.143   5.008  10.471 -0.6124  0.6131  1.7431
 1003MOL0     H35355   9.140   5.116  10.341 -0.6313  0.4409 -1.3473
 1003MOL0     H35356   9.392   5.159  10.242 -0.9866 -2.5521 -1.4414
 1003MOL0     H35357   9.739   5.033  10.380 -0.2762  0.4437 -0.1322
 1003MOL0     H35358   9.655   5.003  10.230 -1.2912 -1.7911  1.0368
 1003MOL0     H35359   9.797   5.188  10.192 -0.1328 -0.4853 -0.7809
 1003MOL0     H35360   9.641   5.245  10.191  0.7208 -3.4089 -3.1090
 1003MOL0     H35361   9.855   5.270  10.426 -1.8560  1.2833  3.6320
 1003MOL0     H35362   9.689   5.316  10.453 -0.0330 -1.3153 -0.8237
 1003MOL0     H35363   9.817   5.514  10.391  4.0824 -0.7296 -1.2166
 1003MOL0     H35364   9.687   5.490  10.281 -0.5420  0.9823  3.4482
 1003MOL0     H35365   9.980   5.671  10.076  0.9418  1.4878 -0.4645
 1003MOL0     H35366  10.204   5.748  10.103  0.7868 -0.1242 -1.0671
 1003MOL0     H35367  10.600   5.671  10.099  2.6119  0.0348 -2.6365
 1003MOL0     H35368  10.837   5.697  10.089 -0.2211  2.1001  0.8573
 1003MOL0     H35369  11.098   5.624  10.436 -1.1375  0.6978 -1.1858
 1003MOL0     H35370  11.087   5.458  10.377 -0.5878  0.2736  1.1258
 1003MOL0     H35371  11.315   5.506  10.393  0.1699  0.0007  0.4513
 1003MOL0     H35372  11.281   5.530  10.221  1.5811 -1.0970  1.2739
 1003MOL0     H35373  11.235   5.773  10.259 -0.6927 -0.9178 -0.2472
 1003MOL0     H35374  11.295   5.772  10.414 -1.2170 -1.3170  0.1387
 1003MOL0     H35375  11.464   5.849  10.229  1.9948 -1.1657 -1.7006
 1003MOL0     H35376  11.441   5.698  10.152 -1.1438 -1.1708 -0.4088
 1003MOL0     H35377  11.535   5.568  10.332  1.8161 -0.1368  0.8179
 1003MOL0     H35378  11.558   5.714  10.433 -0.4200 -0.4657 -0.5876
 1003MOL0     H35379  11.683   5.704  10.167 -2.4161  1.5818  0.5394
 1003MOL0     H35380  11.718   5.808  10.289  0.4469 -1.1845  2.4696
 1003MOL0     H35381  11.866   5.582  10.238 -1.9593 -0.2136 -0.7730
 1003MOL0     H35382  11.770   5.538  10.379  3.0695 -1.3874 -0.1911
 1003MOL0     H35383  11.870   5.722  10.504 -1.0793 -2.8292  0.2498
 1003MOL0     H35384  11.999   5.626  10.420  0.0865 -0.1314 -1.2903
 1003MOL0     H35385  10.893   5.503  10.471 -0.9250 -1.6584 -0.0287
 1003MOL0     H35386  10.648   5.496  10.492  0.3753  1.4367  0.4016
 1003MOL0     H35387  10.272   5.496  10.429 -1.2550 -0.5341  0.5498
 1003MOL0     H35388  10.050   5.375  10.396  1.2418  0.6955 -1.0533
 1003MOL0     H35389   9.817   5.581  10.860  1.2010  0.5611  2.7490
 1003MOL0     H35390  10.045   5.521  10.882  2.0492 -2.4403 -0.1669
 1003MOL0     H35391  10.432   5.307  10.534  5.1333  4.9068  0.5890
 1003MOL0     H35392  10.660   5.230  10.544 -0.3039  0.2313 -0.2187
 1003MOL0     H35393  10.867   5.253  10.642  2.0453  1.3292  0.4108
 1003MOL0     H35394  10.822   5.081  10.595  0.5430 -1.5581  0.5271
 1003MOL0     H35395  10.997   5.022  10.789 -0.1387 -2.6216 -2.7518
 1003MOL0     H35396  11.053   5.190  10.766  2.8662 -0.9824 -0.9072
 1003MOL0     H35397  11.036   4.970  10.542  1.9661 -1.3768  1.2254
 1003MOL0     H35398  11.177   5.029  10.632  0.6624 -0.6888  0.0044
 1003MOL0     H35399  11.023   5.161  10.411 -0.0298  0.0976 -0.3577
 1003MOL0     H35400  11.084   5.275  10.523 -0.9692  0.1008 -1.0378
 1003MOL0     H35401  11.426   5.141  10.298  1.9851  0.3252  2.3071
 1003MOL0     H35402  10.611   5.159  10.967  0.6665 -2.7923  0.1915
 1003MOL0     H35403  10.277   5.116  10.977 -1.3708  0.7111 -0.2136
 1003MOL0     H35404  10.426   5.135  11.077 -1.5097 -0.3619  0.4349
 1003MOL0     H35405  10.346   5.280  11.045  3.1802  1.1020 -1.3020
 1004MOL0     O35406   0.803   6.727   8.932 -0.2843 -0.8146 -0.9937
 1004MOL0     C35407   0.690   6.719   8.981 -0.1370 -0.3794  0.3685
 1004MOL0     O35408   0.667   6.678   9.107  0.3569  0.5157  0.2997
 1004MOL0     C35409   0.761   6.658   9.204  0.4453  0.0336 -0.3926
 1004MOL0     C35410   0.868   6.738   9.236 -0.0119 -0.6458  0.3590
 1004MOL0     C35411   0.942   6.723   9.350 -0.3737 -0.4132 -0.1348
 1004MOL0     C35412   0.917   6.611   9.430  0.3307  0.0592  0.0832
 1004MOL0     O35413   0.996   6.574   9.534  0.0091  0.0358 -0.6817
 1004MOL0     C35414   1.026   6.682   9.631 -0.4231  0.5481 -0.3325
 1004MOL0     C35415   1.016   6.633   9.773  0.6903  0.1787 -1.4517
 1004MOL0     C35416   1.136   6.535   9.804 -0.0112 -0.1394 -0.1085
 1004MOL0     C35417   1.119   6.459   9.929  0.0255  0.0276 -0.2563
 1004MOL0     C35418   1.197   6.333   9.951 -0.2703  1.2698  0.2381
 1004MOL0     C35419   1.352   6.314   9.908 -0.1780 -0.4538  0.2288
 1004MOL0     C35420   1.432   6.418   9.983 -0.6711  0.1813  1.1192
 1004MOL0     C35421   1.582   6.399   9.954  0.4196  0.3949 -0.8368
 1004MOL0     N35422   1.610   6.447   9.822 -0.7246 -1.4741 -0.4801
 1004MOL0     C35423   1.706   6.388   9.744  0.0841 -0.5334  0.1240
 1004MOL0     C35424   1.737   6.483   9.649 -0.0825  0.3344 -0.5849
 1004MOL0     C35425   1.829   6.464   9.528  0.4361 -0.9714 -0.2922
 1004MOL0     C35426   1.951   6.555   9.541 -0.5165  0.1153  0.1043
 1004MOL0     C35427   2.033   6.516   9.654  0.0513  0.3696  0.3927
 1004MOL0     C35428   2.100   6.640   9.707  0.1926 -0.5771  1.0171
 1004MOL0     O35429   2.149   6.602   9.839  0.8008 -0.1656  0.8000
 1004MOL0     C35430   2.250   6.671   9.902  0.6745 -0.1234 -0.2560
 1004MOL0     C35431   2.296   6.620  10.020 -0.1990  0.6710 -0.0638
 1004MOL0     C35432   2.406   6.665  10.087 -0.1166  0.4447 -0.1352
 1004MOL0     C35433   2.480   6.759  10.037 -0.7775  0.2842  0.2019
 1004MOL0     C35434   2.604   6.803  10.110 -0.6736  0.3750 -0.2843
 1004MOL0     O35435   2.676   6.893  10.039  0.0308  0.5895 -0.4268
 1004MOL0     C35436   2.776   6.957  10.099 -0.4044  0.4331 -0.5850
 1004MOL0     C35437   2.914   6.926  10.087 -0.6710 -0.4567  0.3311
 1004MOL0     C35438   3.011   7.006  10.139  0.2298  0.5520  0.1843
 1004MOL0     C35439   2.979   7.113  10.206 -1.1188 -1.3303 -0.5587
 1004MOL0     O35440   3.075   7.185  10.273  0.3091 -0.5201  0.3835
 1004MOL0     C35441   3.212   7.148  10.273 -0.9231  0.5644 -0.0938
 1004MOL0     C35442   3.280   7.255  10.369  0.6251 -0.0718  0.5018
 1004MOL0     C35443   3.426   7.229  10.399 -0.0149  0.3453 -0.0713
 1004MOL0     C35444   3.493   7.344  10.467 -0.7109  0.0125  0.1130
 1004MOL0     C35445   3.646   7.331  10.460 -0.4814  0.1676 -0.0280
 1004MOL0     C35446   3.715   7.455  10.531  0.4467  1.1531  0.6312
 1004MOL0     C35447   3.862   7.446  10.508 -0.5128 -0.1798 -0.0780
 1004MOL0     C35448   3.939   7.394  10.632  0.0734 -0.3729  0.2217
 1004MOL0    Cl35449   4.117   7.404  10.618 -0.2059  0.3740 -0.1551
 1004MOL0     C35450   2.849   7.150  10.226 -0.2999  0.4377 -0.5475
 1004MOL0     C35451   2.749   7.075  10.175  0.4602 -0.7522  0.4424
 1004MOL0     O35452   2.638   6.754  10.218  0.4879 -0.2744 -0.3867
 1004MOL0     C35453   2.441   6.814   9.909 -1.5948  0.3074 -0.1477
 1004MOL0     C35454   2.326   6.769   9.842  0.6177  0.0949 -0.5696
 1004MOL0     N35455   1.658   6.595   9.669 -0.3824 -0.7534  0.9065
 1004MOL0     N35456   1.588   6.574   9.773 -0.2933  0.2644  0.4354
 1004MOL0     C35457   0.820   6.521   9.385 -0.1704 -1.1078  0.0847
 1004MOL0     C35458   0.734   6.549   9.281 -0.9298 -0.1881  0.3888
 1004MOL0     C35459   0.567   6.741   8.899 -0.3499 -0.4050  0.1445
 1004MOL0     C35460   0.454   6.665   8.929  0.0803 -0.4014 -0.1040
 1004MOL0     C35461   0.335   6.696   8.870 -0.3092  0.1350  0.5601
 1004MOL0     C35462   0.326   6.784   8.760 -0.1781 -0.8718 -0.4800
 1004MOL0     O35463   0.214   6.822   8.692 -0.7939 -0.6930  0.1456
 1004MOL0     C35464   0.082   6.799   8.760 -0.1081 -0.3170 -0.5982
 1004MOL0     C35465   0.001   6.684   8.688 -0.5762  0.4121 -0.2165
 1004MOL0     C35466  -0.123   6.630   8.762 -0.8001 -0.3253  0.7535
 1004MOL0     C35467  -0.099   6.579   8.908 -0.0514 -0.0005  0.2242
 1004MOL0     C35468   0.012   6.481   8.898 -0.7374 -1.0146  0.1291
 1004MOL0     C35469   0.100   6.399   8.894  0.0888  1.2264 -0.7021
 1004MOL0     C35470   0.441   6.835   8.708 -0.7045  0.1594 -0.8854
 1004MOL0     C35471   0.559   6.827   8.788  0.3369 -0.3347 -0.8258
 1004MOL0     C35472   0.672   6.914   8.735  0.8501 -0.0426  0.0438
 1004MOL0     H35473   0.874   6.826   9.173 -0.2851 -1.4010 -0.7561
 1004MOL0     H35474   1.020   6.788   9.388 -0.1802 -2.2993  3.0874
 1004MOL0     H35475   1.132   6.709   9.625  0.0001 -1.2495 -2.0806
 1004MOL0     H35476   0.962   6.768   9.610  0.3440  1.1123 -0.4218
 1004MOL0     H35477   0.925   6.575   9.794  1.9848 -1.6512 -0.6395
 1004MOL0     H35478   1.022   6.713   9.847 -0.7234  0.3345 -1.4785
 1004MOL0     H35479   1.236   6.577   9.793 -0.1460 -0.3101 -2.5758
 1004MOL0     H35480   1.124   6.456   9.729 -4.2797 -0.6872  0.8969
 1004MOL0     H35481   1.139   6.532  10.008 -0.0920 -1.3350  1.0882
 1004MOL0     H35482   1.012   6.438   9.939  0.2988 -0.3894  2.4529
 1004MOL0     H35483   1.193   6.296  10.053 -2.9152 -1.2211 -0.6588
 1004MOL0     H35484   1.147   6.252   9.897 -0.5727  1.1475  0.7025
 1004MOL0     H35485   1.387   6.211   9.921 -2.1485 -1.0968  0.8000
 1004MOL0     H35486   1.359   6.336   9.801 -0.2680  1.1695  0.5347
 1004MOL0     H35487   1.409   6.412  10.090  0.0956 -0.0254  1.2797
 1004MOL0     H35488   1.399   6.518   9.955  1.0299  0.7145  0.9047
 1004MOL0     H35489   1.632   6.465  10.026  1.6286 -0.1942 -1.1222
 1004MOL0     H35490   1.613   6.295   9.962 -0.3625  0.0276 -2.3200
 1004MOL0     H35491   1.752   6.291   9.755 -1.3824 -1.1313  1.3120
 1004MOL0     H35492   1.858   6.359   9.517  0.4938 -0.8717 -1.2045
 1004MOL0     H35493   1.774   6.494   9.438  0.3794 -1.1125 -0.3042
 1004MOL0     H35494   2.007   6.558   9.447 -0.3869  2.5140  0.1845
 1004MOL0     H35495   1.922   6.660   9.550  1.5165  0.6064  2.3006
 1004MOL0     H35496   2.106   6.436   9.636  0.5275  0.9420 -0.3134
 1004MOL0     H35497   1.970   6.475   9.733 -0.3475 -2.6783 -1.3522
 1004MOL0     H35498   2.029   6.722   9.720 -0.2038 -0.8544  0.6475
 1004MOL0     H35499   2.179   6.673   9.639 -0.3898 -0.4136  0.4014
 1004MOL0     H35500   2.246   6.527  10.045  0.4794  0.2725 -0.1685
 1004MOL0     H35501   2.440   6.614  10.176 -0.1597  1.5687  0.5471
 1004MOL0     H35502   2.941   6.846  10.019  0.1325  0.7538 -0.8467
 1004MOL0     H35503   3.114   6.973  10.126 -0.4069 -1.7037  0.4284
 1004MOL0     H35504   3.229   7.050  10.319  1.5930  0.7704 -0.4007
 1004MOL0     H35505   3.249   7.142  10.171 -0.6821  1.0759 -0.0375
 1004MOL0     H35506   3.267   7.354  10.325  2.4533 -1.4683 -3.6639
 1004MOL0     H35507   3.226   7.240  10.463  0.7134 -0.6967  0.4555
 1004MOL0     H35508   3.425   7.139  10.460 -3.6756 -0.1024 -0.5118
 1004MOL0     H35509   3.487   7.209  10.310  2.5195  2.6471  1.0030
 1004MOL0     H35510   3.466   7.341  10.573  2.2611 -0.5110  0.9659
 1004MOL0     H35511   3.466   7.434  10.411 -0.2930 -1.1586 -2.0829
 1004MOL0     H35512   3.667   7.328  10.353  2.9999  0.4847  0.5337
 1004MOL0     H35513   3.678   7.235  10.501 -0.2185  1.3467  2.7066
 1004MOL0     H35514   3.692   7.544  10.472  1.0267 -0.7328 -2.7291
 1004MOL0     H35515   3.691   7.465  10.637 -2.2224  0.1097  0.2186
 1004MOL0     H35516   3.888   7.547  10.476 -0.6035 -0.5971 -1.5225
 1004MOL0     H35517   3.898   7.382  10.427  0.1692  0.2996 -0.1678
 1004MOL0     H35518   3.912   7.468  10.708  0.1665 -2.0795  1.9864
 1004MOL0     H35519   3.891   7.298  10.650 -1.8954  0.5508  0.1699
 1004MOL0     H35520   2.820   7.242  10.277  1.3275  0.1749  0.9894
 1004MOL0     H35521   2.644   7.100  10.191  0.0213 -1.5775 -0.9370
 1004MOL0     H35522   2.503   6.887   9.858 -1.0546 -0.9952 -1.4053
 1004MOL0     H35523   2.303   6.815   9.746  1.4056 -1.1440 -1.3712
 1004MOL0     H35524   0.807   6.428   9.440 -3.0036  0.2242  1.8974
 1004MOL0     H35525   0.659   6.477   9.250  0.3136 -1.7511  0.9030
 1004MOL0     H35526   0.444   6.592   9.009 -0.1765 -0.9753 -0.6468
 1004MOL0     H35527   0.247   6.641   8.902 -0.3064  0.4544  1.1298
 1004MOL0     H35528   0.015   6.885   8.752  1.1847  0.6398 -1.6893
 1004MOL0     H35529   0.101   6.786   8.867  1.8765  2.7370 -0.4403
 1004MOL0     H35530   0.063   6.597   8.663  0.2942  0.2398  2.2743
 1004MOL0     H35531  -0.034   6.721   8.592  0.0056 -2.4729 -1.6601
 1004MOL0     H35532  -0.167   6.540   8.719 -5.9467  1.6675  1.0592
 1004MOL0     H35533  -0.209   6.698   8.764  0.2540  1.1392 -0.9818
 1004MOL0     H35534  -0.075   6.658   8.980  1.9224  0.9251 -1.3740
 1004MOL0     H35535  -0.198   6.541   8.937  0.5591 -1.2036  0.8062
 1004MOL0     H35536   0.179   6.327   8.885 -0.6600  0.3004 -0.0311
 1004MOL0     H35537   0.450   6.900   8.622  3.2175 -0.2512 -0.9382
 1004MOL0     H35538   0.745   6.864   8.671  2.6352  3.3018 -0.7514
 1004MOL0     H35539   0.633   7.003   8.685  0.2663 -1.3264 -1.8571
 1004MOL0     H35540   0.721   6.964   8.820  1.1254 -0.3464  0.0665
 1005MOL0     O35541   3.390   8.001   0.189  0.7677  0.6500  0.3399
 1005MOL0     C35542   3.341   7.998   0.302 -0.8198  0.0333  1.2907
 1005MOL0     O35543   3.397   7.952   0.415  0.7406  0.0931 -0.0653
 1005MOL0     C35544   3.535   7.925   0.432 -0.2782  0.3042  0.1729
 1005MOL0     C35545   3.572   7.882   0.557  0.7045 -1.6375 -0.3737
 1005MOL0     C35546   3.703   7.826   0.581 -0.3341 -0.6895 -0.0100
 1005MOL0     C35547   3.783   7.798   0.473  0.0253  0.2910  0.0991
 1005MOL0     O35548   3.894   7.720   0.481 -0.1966 -0.3291 -0.4818
 1005MOL0     C35549   3.917   7.645   0.599  1.0257 -0.2027  0.2031
 1005MOL0     C35550   3.992   7.727   0.700 -0.4851  0.3203  0.6771
 1005MOL0     C35551   4.139   7.721   0.670  0.2162 -0.4064  0.0236
 1005MOL0     C35552   4.210   7.822   0.761 -0.2287 -0.8384 -0.7877
 1005MOL0     C35553   4.359   7.790   0.760 -0.0074  0.2329  0.2158
 1005MOL0     C35554   4.441   7.900   0.815  0.4628  0.2674  0.5101
 1005MOL0     C35555   4.589   7.870   0.829  0.7838 -0.0891 -0.4976
 1005MOL0     C35556   4.602   7.765   0.944 -1.0495 -0.3168  0.2051
 1005MOL0     N35557   4.744   7.753   0.966 -0.6850  0.7986  0.2596
 1005MOL0     C35558   4.807   7.795   1.077 -0.2777 -0.2259 -0.1765
 1005MOL0     C35559   4.928   7.740   1.069 -1.0148  0.7757  1.1288
 1005MOL0     C35560   5.036   7.741   1.166 -0.1784  1.2030  1.1668
 1005MOL0     C35561   5.153   7.636   1.140  0.3890 -0.2813  0.4399
 1005MOL0     C35562   5.274   7.656   1.230 -0.3963  0.2516  0.0505
 1005MOL0     C35563   5.374   7.549   1.198 -0.7367  0.7054 -0.1818
 1005MOL0     O35564   5.478   7.554   1.292  0.3488  0.0218 -0.0966
 1005MOL0     C35565   5.574   7.455   1.293 -0.0555  0.6136 -0.1057
 1005MOL0     C35566   5.699   7.488   1.346  0.4806  0.6747 -1.2194
 1005MOL0     C35567   5.806   7.393   1.357  0.1992 -0.4679 -0.2795
 1005MOL0     C35568   5.789   7.261   1.312 -0.7338  0.2692  0.3938
 1005MOL0     C35569   5.899   7.157   1.303 -1.0224 -0.4323 -0.4231
 1005MOL0     O35570   6.021   7.219   1.320 -0.1421  0.6279  0.6536
 1005MOL0     C35571   6.136   7.144   1.314 -0.3281 -0.7459  0.1283
 1005MOL0     C35572   6.224   7.140   1.203  0.0251  0.0448 -0.2603
 1005MOL0     C35573   6.348   7.074   1.212  0.2066 -0.1628 -0.5644
 1005MOL0     C35574   6.387   6.994   1.316  0.2793 -0.4153 -0.7127
 1005MOL0     O35575   6.505   6.919   1.304 -0.2921 -0.8756 -0.4166
 1005MOL0     C35576   6.573   6.893   1.429 -0.1436 -0.6596 -0.2195
 1005MOL0     C35577   6.715   6.842   1.400  0.1152  0.8943 -0.3979
 1005MOL0     C35578   6.809   6.938   1.330  0.5025  0.3762  0.2451
 1005MOL0     C35579   6.962   6.928   1.368  0.0165  0.6803 -0.1880
 1005MOL0     C35580   7.017   6.792   1.319  0.7131  0.1441 -0.5935
 1005MOL0     C35581   7.166   6.801   1.289 -0.3722 -0.2504 -0.4258
 1005MOL0     C35582   7.252   6.841   1.411  0.5676  0.1704 -0.3789
 1005MOL0     C35583   7.380   6.921   1.366  0.0750 -0.1758  0.3780
 1005MOL0    Cl35584   7.440   7.030   1.476 -0.1369  0.5378  0.1037
 1005MOL0     C35585   6.306   6.994   1.430 -0.0570  0.1891 -0.2430
 1005MOL0     C35586   6.191   7.076   1.430  0.0725 -0.4146 -0.4942
 1005MOL0     O35587   5.876   7.031   1.290 -0.3255 -0.6645  0.3231
 1005MOL0     C35588   5.664   7.239   1.242  0.2808  0.6539 -0.3154
 1005MOL0     C35589   5.554   7.326   1.244 -0.9999  0.3533  0.0203
 1005MOL0     N35590   4.930   7.657   0.956 -0.6757  0.2056 -0.5412
 1005MOL0     N35591   4.820   7.661   0.893  0.2836  0.2225  0.4491
 1005MOL0     C35592   3.751   7.849   0.344 -0.0562 -0.5545  0.8454
 1005MOL0     C35593   3.627   7.904   0.329 -0.0690  0.6807 -0.7261
 1005MOL0     C35594   3.209   8.051   0.311  0.7953  0.1982 -0.1584
 1005MOL0     C35595   3.165   8.157   0.234 -0.2088 -0.5183  0.1924
 1005MOL0     C35596   3.046   8.225   0.250 -0.6039  1.3135  0.7015
 1005MOL0     C35597   2.954   8.181   0.346 -0.1556 -0.2725  0.4566
 1005MOL0     O35598   2.827   8.233   0.349 -1.2230 -0.0779  0.7303
 1005MOL0     C35599   2.747   8.205   0.458  0.6083 -0.7051  0.2373
 1005MOL0     C35600   2.603   8.259   0.438  0.4910 -0.6059 -0.7675
 1005MOL0     C35601   2.516   8.177   0.342  0.1613  0.0008  0.7625
 1005MOL0     C35602   2.390   8.252   0.292  0.4534  0.0438  0.2308
 1005MOL0     C35603   2.422   8.367   0.211 -0.2099  0.4637  0.0512
 1005MOL0     C35604   2.468   8.470   0.160 -0.4865  0.1207 -0.6280
 1005MOL0     C35605   2.999   8.071   0.431  0.6258  0.1662  0.2732
 1005MOL0     C35606   3.119   8.008   0.413 -0.4061  0.1444  0.0760
 1005MOL0     C35607   3.140   7.886   0.499  0.0847 -0.4910 -0.2818
 1005MOL0     H35608   3.503   7.894   0.640 -1.3191  1.3083 -2.2975
 1005MOL0     H35609   3.736   7.803   0.681 -0.0962  3.5433  1.0796
 1005MOL0     H35610   3.828   7.610   0.651  0.4252  0.0870 -0.6115
 1005MOL0     H35611   3.974   7.555   0.573 -0.1359 -0.7143 -0.6528
 1005MOL0     H35612   3.953   7.697   0.797 -3.7193 -0.7052 -0.8172
 1005MOL0     H35613   3.956   7.830   0.688  0.7014  0.7946  0.9801
 1005MOL0     H35614   4.159   7.732   0.563 -0.8024 -1.3136 -0.2825
 1005MOL0     H35615   4.165   7.619   0.702 -0.2253 -0.5560 -0.0801
 1005MOL0     H35616   4.196   7.925   0.725 -0.2357 -0.4730  0.2190
 1005MOL0     H35617   4.180   7.824   0.867 -1.6802 -0.9312 -1.1723
 1005MOL0     H35618   4.378   7.698   0.816  2.4032  0.1857 -0.5783
 1005MOL0     H35619   4.390   7.771   0.657  1.5510  3.2236  0.0214
 1005MOL0     H35620   4.425   7.997   0.767  1.2756 -0.5675 -1.5316
 1005MOL0     H35621   4.400   7.916   0.915  1.2130  0.8216  0.7381
 1005MOL0     H35622   4.636   7.963   0.862 -0.9972  0.5506  0.3895
 1005MOL0     H35623   4.633   7.830   0.737  2.6823 -1.8124  1.0664
 1005MOL0     H35624   4.542   7.793   1.031 -1.5495  3.1307 -1.0826
 1005MOL0     H35625   4.564   7.670   0.905 -0.0684 -0.4236 -0.5337
 1005MOL0     H35626   4.768   7.851   1.161 -0.4841 -1.6606  0.7332
 1005MOL0     H35627   5.083   7.839   1.153 -0.7643  1.4387  0.8433
 1005MOL0     H35628   5.003   7.734   1.270 -0.3116  2.3522  1.2127
 1005MOL0     H35629   5.103   7.539   1.151 -0.1104 -0.2220 -1.0381
 1005MOL0     H35630   5.191   7.653   1.039  0.3026  0.9076  0.5934
 1005MOL0     H35631   5.255   7.648   1.337  0.6369  1.4691  0.3445
 1005MOL0     H35632   5.318   7.755   1.214  0.1222  0.0729  0.3490
 1005MOL0     H35633   5.408   7.565   1.095 -2.8657  2.2495 -0.7042
 1005MOL0     H35634   5.320   7.454   1.201  0.0907  0.2339  0.2525
 1005MOL0     H35635   5.710   7.589   1.383 -0.3147  1.2550 -2.5165
 1005MOL0     H35636   5.895   7.418   1.414 -1.5261  1.1515  1.8684
 1005MOL0     H35637   6.192   7.207   1.124 -0.5144  0.3715  0.2245
 1005MOL0     H35638   6.422   7.082   1.133  0.5124  1.2712 -0.1659
 1005MOL0     H35639   6.579   6.979   1.496  0.2636 -0.8818  0.0355
 1005MOL0     H35640   6.531   6.814   1.491  1.3774  1.2373  3.5910
 1005MOL0     H35641   6.763   6.812   1.493  0.5637  1.4706 -0.4361
 1005MOL0     H35642   6.710   6.752   1.338 -0.6317  0.5441  0.1666
 1005MOL0     H35643   6.794   6.919   1.223  0.3048 -1.2763  0.5422
 1005MOL0     H35644   6.773   7.038   1.357  1.1971  0.9303 -0.8127
 1005MOL0     H35645   6.979   6.942   1.475  1.2925 -1.4477 -0.0588
 1005MOL0     H35646   7.027   7.000   1.317  1.3498 -1.6234 -1.9148
 1005MOL0     H35647   6.962   6.757   1.231 -1.8554 -0.1646  1.0391
 1005MOL0     H35648   7.006   6.712   1.393  1.1771  0.7676  0.1654
 1005MOL0     H35649   7.199   6.711   1.238 -2.5046 -1.1485 -0.3150
 1005MOL0     H35650   7.186   6.873   1.209  0.7310 -2.5463 -2.3393
 1005MOL0     H35651   7.283   6.752   1.466  0.5284 -1.0794 -2.3095
 1005MOL0     H35652   7.202   6.915   1.475  1.9290  1.4031 -0.6729
 1005MOL0     H35653   7.454   6.850   1.326  0.5789  0.5405  0.0049
 1005MOL0     H35654   7.357   6.977   1.274 -1.3574 -2.0645 -0.4874
 1005MOL0     H35655   6.324   6.938   1.521 -0.9445  0.5269  0.1446
 1005MOL0     H35656   6.130   7.072   1.520  1.4831 -1.8550  0.4598
 1005MOL0     H35657   5.652   7.135   1.214  0.0492  0.5937 -0.0001
 1005MOL0     H35658   5.458   7.286   1.212 -1.1659  1.9121 -1.5452
 1005MOL0     H35659   3.811   7.844   0.254 -1.7471  0.6209 -0.4153
 1005MOL0     H35660   3.595   7.918   0.227 -1.8012  0.2149 -0.2710
 1005MOL0     H35661   3.224   8.186   0.147 -2.4478 -2.0467 -1.9780
 1005MOL0     H35662   3.030   8.313   0.188 -1.4838  0.3907 -0.4211
 1005MOL0     H35663   2.787   8.261   0.542 -2.7709 -0.8497  2.1154
 1005MOL0     H35664   2.747   8.100   0.489  2.3058 -0.1831  2.2167
 1005MOL0     H35665   2.602   8.367   0.421 -0.8663 -0.2429  1.2239
 1005MOL0     H35666   2.560   8.247   0.539  3.8360  1.0933  1.0173
 1005MOL0     H35667   2.492   8.077   0.379  1.3396 -1.0455 -1.0972
 1005MOL0     H35668   2.573   8.163   0.249  0.1893  1.1128  0.5940
 1005MOL0     H35669   2.333   8.188   0.224  2.8696  0.2680 -2.1895
 1005MOL0     H35670   2.332   8.282   0.380 -0.5970 -1.4302  0.0732
 1005MOL0     H35671   2.506   8.560   0.116  0.8474 -0.2705 -0.3221
 1005MOL0     H35672   2.930   8.020   0.497 -1.3303  0.3264 -1.5277
 1005MOL0     H35673   3.207   7.814   0.452 -1.4825 -2.2892  0.1291
 1005MOL0     H35674   3.180   7.921   0.595  2.5846  0.0803 -1.4565
 1005MOL0     H35675   3.042   7.840   0.513 -0.1371  0.1390  0.3438
 1006MOL0     O35676   3.682   5.036   3.994 -0.2455 -1.0620  0.1459
 1006MOL0     C35677   3.589   5.073   3.925 -0.5782 -0.6611  0.3341
 1006MOL0     O35678   3.566   5.203   3.891  0.1200  0.3368  0.2988
 1006MOL0     C35679   3.630   5.310   3.954 -0.2341 -0.1049 -0.2604
 1006MOL0     C35680   3.776   5.327   3.949  0.3023 -0.1430  0.1070
 1006MOL0     C35681   3.819   5.451   3.997 -1.7227  0.1077  0.2821
 1006MOL0     C35682   3.737   5.552   4.050  1.2177 -0.4061 -0.0491
 1006MOL0     O35683   3.800   5.660   4.110 -0.1262 -0.0314 -0.1243
 1006MOL0     C35684   3.721   5.759   4.165  0.8344 -0.0574 -0.2873
 1006MOL0     C35685   3.802   5.885   4.205  0.4326 -0.5142 -0.4449
 1006MOL0     C35686   3.848   5.974   4.089 -0.9950 -0.0205 -0.0807
 1006MOL0     C35687   3.744   6.069   4.039 -0.4170 -0.2904  0.3263
 1006MOL0     C35688   3.780   6.137   3.904 -0.0538  0.1886 -1.0980
 1006MOL0     C35689   3.838   6.277   3.914 -0.4218 -0.3842 -0.5714
 1006MOL0     C35690   3.980   6.291   3.975  0.2943 -0.7063 -0.0672
 1006MOL0     C35691   4.049   6.417   3.969 -0.2597  0.9540 -0.0385
 1006MOL0     N35692   4.042   6.473   4.101 -0.1556 -0.1725  0.5292
 1006MOL0     C35693   4.129   6.461   4.212 -0.3920 -0.4551 -0.2019
 1006MOL0     C35694   4.076   6.545   4.306  0.1745  0.5923  0.3787
 1006MOL0     C35695   4.130   6.577   4.441  0.7767 -0.3899 -0.2779
 1006MOL0     C35696   4.244   6.683   4.430  1.2111 -0.0378 -0.1308
 1006MOL0     C35697   4.182   6.829   4.426 -0.5588  0.0231  0.5213
 1006MOL0     C35698   4.293   6.924   4.368  0.0987 -0.7368  0.0010
 1006MOL0     O35699   4.397   6.948   4.473 -0.6894  0.0304 -0.4686
 1006MOL0     C35700   4.516   6.997   4.423 -0.0081  0.4062  0.4321
 1006MOL0     C35701   4.531   7.114   4.350 -0.8498 -0.0156  0.0104
 1006MOL0     C35702   4.656   7.148   4.294 -0.0257  0.2284  0.4756
 1006MOL0     C35703   4.775   7.072   4.320  0.2617  0.5784  0.4993
 1006MOL0     C35704   4.908   7.122   4.279  0.4395  0.0407 -0.8397
 1006MOL0     O35705   5.022   7.053   4.304 -0.3373  0.5092  0.2918
 1006MOL0     C35706   5.153   7.079   4.259  0.1704  0.2004  0.0771
 1006MOL0     C35707   5.192   7.159   4.143 -0.2135  0.3657 -0.9359
 1006MOL0     C35708   5.327   7.186   4.109 -0.8231  0.7069 -0.1875
 1006MOL0     C35709   5.428   7.126   4.181 -0.0195  0.4770 -0.1594
 1006MOL0     O35710   5.559   7.165   4.177  0.0128 -0.1284 -0.0861
 1006MOL0     C35711   5.602   7.213   4.048 -0.5000  0.2024  0.1098
 1006MOL0     C35712   5.754   7.194   4.063  0.0263  0.8991 -0.5801
 1006MOL0     C35713   5.827   7.240   3.932  0.5896  0.2154 -0.6017
 1006MOL0     C35714   5.809   7.387   3.902  0.0034  0.1595 -0.7751
 1006MOL0     C35715   5.920   7.436   3.800  0.3651  0.1092  0.6194
 1006MOL0     C35716   5.889   7.579   3.745 -1.0083  0.3326 -0.0052
 1006MOL0     C35717   5.997   7.652   3.655 -0.3534  0.1679  0.0640
 1006MOL0     C35718   6.053   7.556   3.543 -0.2158  0.4410  0.3808
 1006MOL0    Cl35719   5.928   7.475   3.440 -0.2767 -0.6102  0.0873
 1006MOL0     C35720   5.393   7.031   4.282 -0.2656  0.3683 -0.3357
 1006MOL0     C35721   5.257   7.004   4.320  0.2797 -0.1300  0.3238
 1006MOL0     O35722   4.903   7.224   4.215 -0.0163  0.9361 -0.0290
 1006MOL0     C35723   4.760   6.946   4.388  0.7926 -0.5930 -0.4940
 1006MOL0     C35724   4.634   6.918   4.443  0.4437  0.7800 -0.3415
 1006MOL0     N35725   3.980   6.617   4.240  0.4758  1.1897  0.1529
 1006MOL0     N35726   3.961   6.574   4.123 -0.2046 -0.1031 -0.7625
 1006MOL0     C35727   3.601   5.522   4.053 -0.5057 -0.3479  0.3070
 1006MOL0     C35728   3.546   5.406   4.008  0.1114 -0.5394  0.5009
 1006MOL0     C35729   3.496   4.959   3.884  0.1320 -0.4349  0.1515
 1006MOL0     C35730   3.399   5.002   3.788  0.9440  0.7631  0.3388
 1006MOL0     C35731   3.318   4.909   3.737  0.5306  0.5537  0.3466
 1006MOL0     C35732   3.318   4.775   3.783  0.4896 -0.1982  0.8193
 1006MOL0     O35733   3.214   4.687   3.758  0.0507  0.0559 -0.2089
 1006MOL0     C35734   3.088   4.744   3.749  0.2145  0.6501 -0.3321
 1006MOL0     C35735   2.980   4.642   3.787  0.5647 -0.2092  0.2301
 1006MOL0     C35736   2.842   4.691   3.741  1.1813 -0.2196  0.1968
 1006MOL0     C35737   2.819   4.650   3.594  0.2573 -0.2433 -0.1876
 1006MOL0     C35738   2.679   4.689   3.575 -0.1034 -0.5869  0.8800
 1006MOL0     C35739   2.567   4.713   3.526  0.1513  0.2868 -0.3794
 1006MOL0     C35740   3.401   4.735   3.889  0.6134  0.1982 -0.0954
 1006MOL0     C35741   3.492   4.826   3.930 -0.7216  0.2414  0.5058
 1006MOL0     C35742   3.594   4.772   4.030 -0.2907  0.4128  0.3898
 1006MOL0     H35743   3.836   5.247   3.908  0.3264 -1.2629  2.1895
 1006MOL0     H35744   3.927   5.459   3.990 -1.5522 -1.1302  1.0467
 1006MOL0     H35745   3.647   5.795   4.093 -0.7286 -0.9055  0.8344
 1006MOL0     H35746   3.673   5.715   4.253  1.1430 -2.1350 -1.0940
 1006MOL0     H35747   3.878   5.859   4.280  2.1877 -0.3096 -2.0592
 1006MOL0     H35748   3.742   5.956   4.262 -0.6490  0.6367 -2.8775
 1006MOL0     H35749   3.890   5.915   4.007  1.1082 -1.2144  1.7490
 1006MOL0     H35750   3.930   6.040   4.120 -0.8847 -0.6627  1.0720
 1006MOL0     H35751   3.651   6.012   4.027 -0.2342 -0.3974 -0.6809
 1006MOL0     H35752   3.721   6.138   4.120  2.6530  1.2591  0.0304
 1006MOL0     H35753   3.849   6.069   3.853  0.1468 -0.1286 -0.4148
 1006MOL0     H35754   3.694   6.147   3.836  1.2152  1.7388 -2.5518
 1006MOL0     H35755   3.836   6.326   3.816  2.6135 -1.9039 -1.5344
 1006MOL0     H35756   3.763   6.338   3.965  2.5300  1.6009  1.7425
 1006MOL0     H35757   4.048   6.215   3.935  0.6164  0.6329 -2.2538
 1006MOL0     H35758   3.969   6.273   4.082  1.3532  2.9489  0.8213
 1006MOL0     H35759   4.156   6.411   3.943 -0.3947 -2.7194 -0.2853
 1006MOL0     H35760   4.004   6.470   3.885  0.8940 -0.1114 -1.3928
 1006MOL0     H35761   4.219   6.401   4.207 -0.8603 -1.1629 -0.1940
 1006MOL0     H35762   4.052   6.622   4.502  1.4327  0.6154 -0.1640
 1006MOL0     H35763   4.176   6.495   4.498  0.0103  0.6892  1.9878
 1006MOL0     H35764   4.318   6.687   4.510  1.0802  1.4384 -0.0490
 1006MOL0     H35765   4.305   6.660   4.342  2.2648 -1.1047  0.8571
 1006MOL0     H35766   4.157   6.854   4.529  0.1850  2.6675  0.1482
 1006MOL0     H35767   4.101   6.832   4.352  1.4170  2.4715 -1.7944
 1006MOL0     H35768   4.252   7.023   4.345  0.4091 -0.2117  1.5745
 1006MOL0     H35769   4.347   6.884   4.282  2.0373  1.3802  0.1386
 1006MOL0     H35770   4.451   7.185   4.334  0.5447  1.2917 -1.6496
 1006MOL0     H35771   4.653   7.236   4.230 -1.2897 -0.0117  0.1914
 1006MOL0     H35772   5.119   7.187   4.067 -1.0340 -1.0879 -0.7263
 1006MOL0     H35773   5.351   7.257   4.030 -1.4352  0.3076 -0.7477
 1006MOL0     H35774   5.563   7.162   3.960 -0.7571  1.2922 -0.4332
 1006MOL0     H35775   5.577   7.319   4.031 -0.6229 -0.1647 -2.3609
 1006MOL0     H35776   5.788   7.246   4.154 -1.9777  0.3330  0.5529
 1006MOL0     H35777   5.784   7.092   4.092  1.9586  1.8532  1.0763
 1006MOL0     H35778   5.934   7.232   3.953  0.6659 -1.5529 -1.4771
 1006MOL0     H35779   5.795   7.179   3.846  0.8428 -0.8147  0.0154
 1006MOL0     H35780   5.815   7.436   4.000 -1.5367 -2.0525  0.5196
 1006MOL0     H35781   5.713   7.409   3.854  0.3763 -1.3766 -2.3241
 1006MOL0     H35782   5.925   7.367   3.715 -3.3013  0.2125  0.1370
 1006MOL0     H35783   6.020   7.446   3.843  1.2502  0.9556 -1.4660
 1006MOL0     H35784   5.799   7.561   3.685 -1.1549 -1.1045  0.5967
 1006MOL0     H35785   5.862   7.638   3.833  0.9249 -3.1917  3.2870
 1006MOL0     H35786   6.080   7.701   3.707  1.4617 -1.6941 -0.9398
 1006MOL0     H35787   5.945   7.730   3.597  0.0794 -1.9347 -3.4295
 1006MOL0     H35788   6.115   7.615   3.475 -2.6302 -1.2240 -3.6431
 1006MOL0     H35789   6.116   7.478   3.587  1.0139  0.4445 -1.2593
 1006MOL0     H35790   5.472   6.981   4.335 -2.6529 -1.6785  1.5106
 1006MOL0     H35791   5.224   6.927   4.389  0.1980 -0.7646 -0.4141
 1006MOL0     H35792   4.837   6.879   4.425 -0.0224 -0.2868  1.9085
 1006MOL0     H35793   4.622   6.827   4.500  1.1930 -0.6391 -2.3240
 1006MOL0     H35794   3.532   5.599   4.087 -1.1024 -1.5279  1.9208
 1006MOL0     H35795   3.443   5.387   3.981  0.0633  1.4207 -0.9202
 1006MOL0     H35796   3.389   5.105   3.758  1.0466  0.5786 -0.3363
 1006MOL0     H35797   3.245   4.938   3.662  0.9678  1.2805  0.1908
 1006MOL0     H35798   3.078   4.774   3.645  1.8140  1.7071 -0.2131
 1006MOL0     H35799   3.064   4.826   3.817 -1.5333 -0.3414  0.3073
 1006MOL0     H35800   2.986   4.627   3.895  0.2560  2.1862  0.6437
 1006MOL0     H35801   2.998   4.545   3.740 -0.2421  0.3688 -1.3609
 1006MOL0     H35802   2.836   4.799   3.756 -3.8934 -0.4284  1.2747
 1006MOL0     H35803   2.769   4.642   3.805  0.2870 -2.6712 -2.4843
 1006MOL0     H35804   2.888   4.699   3.525  0.5584  1.1916  1.0783
 1006MOL0     H35805   2.813   4.545   3.566 -3.4012  0.0527 -0.9729
 1006MOL0     H35806   2.465   4.728   3.499 -1.6910 -2.6046  3.8492
 1006MOL0     H35807   3.381   4.643   3.944  0.2419 -1.2420 -2.5086
 1006MOL0     H35808   3.580   4.820   4.127 -1.1663 -0.8217  0.9105
 1006MOL0     H35809   3.565   4.669   4.052 -1.8071  0.8286  0.4026
 1006MOL0     H35810   3.694   4.783   3.986 -0.7374  2.5434 -0.1504
 1007MOL0     O35811   4.896   4.216  11.315 -0.3932 -0.4205  0.8050
 1007MOL0     C35812   4.786   4.246  11.352 -0.2408  0.7280  1.0017
 1007MOL0     O35813   4.752   4.373  11.395  0.9193 -0.4830 -0.2078
 1007MOL0     C35814   4.842   4.469  11.360 -0.4516  0.6612 -0.5549
 1007MOL0     C35815   4.843   4.523  11.231 -0.1845 -0.1273 -0.4021
 1007MOL0     C35816   4.944   4.614  11.192 -0.2325  0.6728  0.0238
 1007MOL0     C35817   5.046   4.649  11.280  0.3685 -0.4670  0.2449
 1007MOL0     O35818   5.151   4.734  11.249  0.1061 -0.7648  0.3720
 1007MOL0     C35819   5.142   4.803  11.114 -0.1693 -0.1657 -0.5364
 1007MOL0     C35820   5.053   4.929  11.127 -0.1166 -0.5247  0.2467
 1007MOL0     C35821   5.088   5.023  11.006 -0.3322  0.1157  0.8795
 1007MOL0     C35822   5.206   5.106  11.037 -0.6240  0.1626 -0.0204
 1007MOL0     C35823   5.206   5.233  10.955 -0.4663 -0.1589  0.8509
 1007MOL0     C35824   5.235   5.205  10.806  0.4267 -0.3670 -0.2042
 1007MOL0     C35825   5.382   5.153  10.785  0.0367  0.4282 -1.1613
 1007MOL0     C35826   5.404   5.126  10.638  0.3550 -0.9430  0.1178
 1007MOL0     N35827   5.551   5.140  10.610  0.4352 -0.1142 -0.1892
 1007MOL0     C35828   5.647   5.060  10.671  1.0917 -0.2427  0.2308
 1007MOL0     C35829   5.763   5.100  10.624 -0.7446 -0.3572 -0.3479
 1007MOL0     C35830   5.902   5.047  10.667  0.4462 -0.3277  0.9493
 1007MOL0     C35831   5.960   5.132  10.783  0.2557 -0.4390  1.3682
 1007MOL0     C35832   6.070   5.066  10.858  0.3970  0.0885 -0.7040
 1007MOL0     C35833   6.189   5.016  10.775  0.5307 -0.7288 -0.3650
 1007MOL0     O35834   6.303   4.981  10.859 -0.1383  0.2917 -1.0653
 1007MOL0     C35835   6.388   4.895  10.801 -0.9451 -0.4243 -0.2109
 1007MOL0     C35836   6.451   4.800  10.884 -0.2482 -0.3898 -0.0490
 1007MOL0     C35837   6.551   4.722  10.836  0.0062  0.5641  0.5166
 1007MOL0     C35838   6.594   4.736  10.699 -0.4834 -0.0555 -0.2242
 1007MOL0     C35839   6.711   4.656  10.645 -0.1182 -0.4795 -0.8522
 1007MOL0     O35840   6.765   4.686  10.525 -0.0274 -0.1326  0.5067
 1007MOL0     C35841   6.858   4.596  10.479  0.0913  0.0838  0.2569
 1007MOL0     C35842   6.980   4.582  10.543  0.5285  0.1600  0.2954
 1007MOL0     C35843   7.064   4.486  10.499  0.7915  0.8831 -0.4738
 1007MOL0     C35844   7.028   4.411  10.381 -0.1129  0.5746 -0.1789
 1007MOL0     O35845   7.107   4.307  10.342  0.8278 -0.1852 -0.8331
 1007MOL0     C35846   7.236   4.351  10.294 -1.4733  0.6132  0.7008
 1007MOL0     C35847   7.306   4.243  10.194  0.2752  0.3259 -0.9302
 1007MOL0     C35848   7.458   4.245  10.206  0.0261  0.3736  0.1857
 1007MOL0     C35849   7.525   4.149  10.102  0.4059  0.2537  0.0337
 1007MOL0     C35850   7.670   4.203  10.085 -0.0241 -0.5033  0.4822
 1007MOL0     C35851   7.741   4.165   9.948 -0.3334  0.5594  0.5586
 1007MOL0     C35852   7.757   4.009   9.931  0.2641  0.3460 -0.1171
 1007MOL0     C35853   7.832   3.934  10.049  0.1624  0.0634 -0.0318
 1007MOL0    Cl35854   7.722   3.851  10.166 -0.0684 -0.1129  0.4126
 1007MOL0     C35855   6.914   4.427  10.312  0.0531 -0.7398 -0.0090
 1007MOL0     C35856   6.827   4.520  10.367  0.1805 -0.7035  0.7551
 1007MOL0     O35857   6.744   4.557  10.721  0.2630 -0.7723 -0.2201
 1007MOL0     C35858   6.535   4.837  10.623  0.2034  0.8694  0.4242
 1007MOL0     C35859   6.431   4.916  10.672 -0.4742  0.4226  0.2367
 1007MOL0     N35860   5.745   5.203  10.537  0.0542  0.1205  0.1399
 1007MOL0     N35861   5.614   5.234  10.543 -0.2086  0.7716  0.4084
 1007MOL0     C35862   5.029   4.613  11.414  0.2673 -1.0301 -0.5407
 1007MOL0     C35863   4.930   4.519  11.453 -0.1839  0.0456  0.2923
 1007MOL0     C35864   4.687   4.135  11.367  0.1294  0.2560 -0.0462
 1007MOL0     C35865   4.554   4.174  11.414 -0.6295  0.1555 -0.0077
 1007MOL0     C35866   4.443   4.089  11.413 -0.2199 -1.2018  1.8593
 1007MOL0     C35867   4.464   3.961  11.362  0.6239 -0.1520 -0.0132
 1007MOL0     O35868   4.368   3.869  11.338  0.2356 -0.2238 -0.7613
 1007MOL0     C35869   4.252   3.884  11.415 -0.3079  0.3584  0.0629
 1007MOL0     C35870   4.132   3.786  11.371 -0.0942 -0.0745  0.1904
 1007MOL0     C35871   3.996   3.819  11.425  0.4635 -0.6160  0.4484
 1007MOL0     C35872   3.888   3.758  11.335 -0.1230  0.4640  0.7335
 1007MOL0     C35873   3.754   3.803  11.393 -1.0531 -1.4726  0.9928
 1007MOL0     C35874   3.644   3.838  11.426  0.4359 -0.7782 -0.1154
 1007MOL0     C35875   4.595   3.914  11.342 -0.2044  0.4752 -0.1519
 1007MOL0     C35876   4.705   3.994  11.345 -0.4579 -0.3210 -0.0259
 1007MOL0     C35877   4.833   3.937  11.309  0.0672 -1.1085  0.0831
 1007MOL0     H35878   4.763   4.488  11.167 -0.1439 -0.4735 -0.2613
 1007MOL0     H35879   4.934   4.636  11.086  3.5302 -1.3078 -0.9223
 1007MOL0     H35880   5.247   4.821  11.092  0.0984 -0.4077  0.4722
 1007MOL0     H35881   5.104   4.735  11.038  2.4639 -2.4296  0.0098
 1007MOL0     H35882   5.075   4.986  11.217  1.2663  0.9326 -0.9497
 1007MOL0     H35883   4.947   4.903  11.122  0.3420 -2.4432 -0.3858
 1007MOL0     H35884   5.001   5.086  10.984  0.2871  0.9212  0.7063
 1007MOL0     H35885   5.098   4.959  10.918  0.9578  0.9114  0.4190
 1007MOL0     H35886   5.200   5.139  11.141  4.0890 -0.6343  0.7110
 1007MOL0     H35887   5.301   5.053  11.031  0.1782  0.7096  4.5282
 1007MOL0     H35888   5.113   5.291  10.960 -1.0930 -1.2238  2.4305
 1007MOL0     H35889   5.289   5.295  10.992 -0.8143  0.1801  1.0688
 1007MOL0     H35890   5.166   5.134  10.759 -1.8299  1.0449  0.7822
 1007MOL0     H35891   5.218   5.300  10.754 -1.7233 -0.0112  1.0453
 1007MOL0     H35892   5.397   5.061  10.842 -2.8853 -0.5516 -1.8273
 1007MOL0     H35893   5.449   5.229  10.826 -0.7474 -0.0595  1.1498
 1007MOL0     H35894   5.369   5.028  10.607  1.4560 -1.7680  1.3488
 1007MOL0     H35895   5.345   5.200  10.583 -0.8509 -1.2009  1.0109
 1007MOL0     H35896   5.630   4.975  10.735  0.0961 -0.8283 -0.7762
 1007MOL0     H35897   5.875   4.947  10.702 -0.7761 -0.6685 -0.8176
 1007MOL0     H35898   5.978   5.040  10.588  1.1462  0.6989  1.5058
 1007MOL0     H35899   6.006   5.219  10.735  0.5593 -1.6842 -0.7283
 1007MOL0     H35900   5.881   5.163  10.852  0.9891  1.8267  1.2726
 1007MOL0     H35901   6.037   4.980  10.917 -1.1988  0.8206 -0.4703
 1007MOL0     H35902   6.113   5.139  10.926  1.2758 -0.2487 -0.8870
 1007MOL0     H35903   6.215   5.097  10.706  0.1620 -0.7581 -0.5432
 1007MOL0     H35904   6.158   4.927  10.718  1.4849 -1.4683  0.2332
 1007MOL0     H35905   6.428   4.822  10.988  1.7346  1.8758 -0.0054
 1007MOL0     H35906   6.602   4.655  10.905  2.6714  2.0376  0.1246
 1007MOL0     H35907   6.999   4.642  10.631 -3.5646 -2.4436  3.3022
 1007MOL0     H35908   7.160   4.468  10.546  0.2841 -1.2695 -0.1490
 1007MOL0     H35909   7.226   4.450  10.249  1.5584  1.8081  2.4416
 1007MOL0     H35910   7.299   4.366  10.381  1.0092  0.8053 -1.0218
 1007MOL0     H35911   7.265   4.143  10.215 -0.2027  0.6228 -0.4020
 1007MOL0     H35912   7.264   4.261  10.095 -0.7490 -3.9140 -1.4892
 1007MOL0     H35913   7.485   4.349  10.182 -0.5308  0.4472 -0.1318
 1007MOL0     H35914   7.480   4.215  10.309 -0.6057  3.4993  1.3669
 1007MOL0     H35915   7.478   4.152  10.003  0.2863  0.9759  0.1090
 1007MOL0     H35916   7.526   4.044  10.134 -0.2379  0.4005  0.5565
 1007MOL0     H35917   7.739   4.165  10.161  3.1498  1.5569 -1.1653
 1007MOL0     H35918   7.660   4.312  10.096  0.3107 -0.5299  1.1067
 1007MOL0     H35919   7.674   4.206   9.872 -0.4244  2.4193  1.5696
 1007MOL0     H35920   7.838   4.213   9.938  1.0805 -2.3259 -0.8622
 1007MOL0     H35921   7.802   3.985   9.835 -1.2313 -0.9402 -0.5374
 1007MOL0     H35922   7.656   3.967   9.930  1.0560 -1.9109  2.0792
 1007MOL0     H35923   7.910   3.868  10.011  1.2509  1.3334 -0.0576
 1007MOL0     H35924   7.881   4.009  10.112 -0.1369 -1.1540  1.7492
 1007MOL0     H35925   6.899   4.364  10.225 -1.2312  0.4820 -0.7182
 1007MOL0     H35926   6.727   4.549  10.334  1.2321 -2.4691 -5.1327
 1007MOL0     H35927   6.564   4.852  10.520 -2.3597 -0.4691 -0.5567
 1007MOL0     H35928   6.408   5.003  10.611  1.8118  0.7627 -0.2517
 1007MOL0     H35929   5.105   4.651  11.482 -1.1482 -1.1874  1.2244
 1007MOL0     H35930   4.924   4.473  11.551  0.9689 -1.1151 -0.1611
 1007MOL0     H35931   4.526   4.278  11.426 -1.4728 -0.1306  0.5822
 1007MOL0     H35932   4.354   4.144  11.443  0.7042  2.1243 -0.8279
 1007MOL0     H35933   4.207   3.983  11.403 -0.4402  0.2793 -0.0930
 1007MOL0     H35934   4.280   3.865  11.519  2.5886 -1.4647 -0.9294
 1007MOL0     H35935   4.157   3.683  11.396  1.1353 -0.4871 -2.3648
 1007MOL0     H35936   4.144   3.796  11.262  3.0776  1.2659  0.5472
 1007MOL0     H35937   3.994   3.928  11.426  1.5296 -0.5830  1.0380
 1007MOL0     H35938   3.986   3.779  11.526 -1.1309 -0.6527  0.3010
 1007MOL0     H35939   3.901   3.793  11.232 -4.7990 -0.2070 -0.3020
 1007MOL0     H35940   3.895   3.649  11.326  0.0775  0.5659 -0.6723
 1007MOL0     H35941   3.543   3.867  11.448 -0.2188 -3.2858  0.4217
 1007MOL0     H35942   4.593   3.810  11.312 -1.2203  0.8796 -1.5910
 1007MOL0     H35943   4.911   3.986  11.368  0.4560  0.2273 -1.4624
 1007MOL0     H35944   4.829   3.830  11.333  1.0413 -0.7366  2.1563
 1007MOL0     H35945   4.861   3.955  11.205  2.6779 -0.2499  0.8475
 1008MOL0     O35946  10.797   1.138   1.495 -0.1155  0.0182 -0.3034
 1008MOL0     C35947  10.708   1.221   1.502 -0.7909  0.5293 -0.5526
 1008MOL0     O35948  10.734   1.345   1.530  0.1244 -0.2532  0.9724
 1008MOL0     C35949  10.864   1.391   1.523  0.6283 -0.3692  0.0945
 1008MOL0     C35950  10.924   1.401   1.392 -0.0805 -0.2530 -0.2263
 1008MOL0     C35951  11.062   1.434   1.395  0.0967  0.0071  0.4226
 1008MOL0     C35952  11.137   1.462   1.502 -0.3856  0.1316  0.3087
 1008MOL0     O35953  11.272   1.489   1.492 -0.3486  0.3464 -0.2199
 1008MOL0     C35954  11.343   1.572   1.587 -0.0998 -0.4204  0.3887
 1008MOL0     C35955  11.424   1.496   1.691  0.4240  0.4045  0.6920
 1008MOL0     C35956  11.551   1.437   1.630  0.1772  0.4696  0.1195
 1008MOL0     C35957  11.543   1.332   1.516  0.2525  0.1961 -0.7148
 1008MOL0     C35958  11.678   1.274   1.481  0.2416  0.1673  0.2150
 1008MOL0     C35959  11.703   1.259   1.334 -0.6165  0.3122 -0.9148
 1008MOL0     C35960  11.852   1.261   1.309 -0.6775  0.4750 -0.0400
 1008MOL0     C35961  11.876   1.258   1.163 -0.3366  0.0380  0.7253
 1008MOL0     N35962  12.018   1.235   1.149 -0.4921  0.6782 -0.0167
 1008MOL0     C35963  12.085   1.119   1.181  0.1246 -0.5465  0.3682
 1008MOL0     C35964  12.206   1.141   1.128 -0.7071 -0.6626 -0.3574
 1008MOL0     C35965  12.331   1.052   1.136 -0.2771 -0.4049 -0.1845
 1008MOL0     C35966  12.342   0.952   1.021  0.2645 -0.3360 -0.4036
 1008MOL0     C35967  12.448   0.836   1.049  0.4197  0.6515  1.1926
 1008MOL0     C35968  12.600   0.871   1.028  0.2285  0.3225 -0.3340
 1008MOL0     O35969  12.639   0.967   1.127 -0.1658 -0.1432 -0.4421
 1008MOL0     C35970  12.766   0.986   1.162 -0.1760  1.0409 -0.4554
 1008MOL0     C35971  12.875   0.906   1.108  0.0715  1.1102 -0.5435
 1008MOL0     C35972  12.993   0.901   1.165 -0.9874  0.8838 -0.0754
 1008MOL0     C35973  13.026   0.975   1.278  0.3233 -0.4895 -0.1970
 1008MOL0     C35974  13.161   0.980   1.337  0.1072 -0.1389  0.3845
 1008MOL0     O35975  13.256   0.889   1.291 -0.1498 -0.0281  0.1284
 1008MOL0     C35976  13.387   0.887   1.327 -0.6013 -0.0353 -0.0555
 1008MOL0     C35977  13.451   0.761   1.352  0.2608  0.4208 -0.1996
 1008MOL0     C35978  13.580   0.753   1.393 -0.4474  0.0011 -0.1336
 1008MOL0     C35979  13.648   0.869   1.413 -0.5338 -0.3690  0.3313
 1008MOL0     O35980  13.779   0.842   1.448  0.1196 -0.4885 -0.4049
 1008MOL0     C35981  13.870   0.948   1.457 -0.3568 -1.1009  0.5003
 1008MOL0     C35982  14.013   0.901   1.483 -0.6098 -0.2871 -0.6564
 1008MOL0     C35983  14.071   0.839   1.353 -0.4086  0.0965 -0.1104
 1008MOL0     C35984  14.197   0.759   1.385  0.1941  0.1313 -0.1926
 1008MOL0     C35985  14.319   0.843   1.440  0.1485 -0.0339  0.4007
 1008MOL0     C35986  14.427   0.736   1.456 -0.0853  0.4637  0.7121
 1008MOL0     C35987  14.566   0.797   1.455 -0.0797  0.0158  0.0184
 1008MOL0     C35988  14.629   0.816   1.316  0.9832 -0.0110  0.2184
 1008MOL0    Cl35989  14.663   0.668   1.221  0.2273  0.3290 -0.5991
 1008MOL0     C35990  13.593   0.997   1.378  0.2960  0.6950 -0.1637
 1008MOL0     C35991  13.460   1.005   1.331 -0.8403 -1.3071  0.4147
 1008MOL0     O35992  13.181   1.057   1.436  0.2889 -0.4111  0.9168
 1008MOL0     C35993  12.927   1.061   1.327  0.5912  0.3370 -0.1461
 1008MOL0     C35994  12.798   1.058   1.278 -0.5941  0.2167  0.2574
 1008MOL0     N35995  12.211   1.266   1.069  0.0002  0.0058  0.0340
 1008MOL0     N35996  12.093   1.327   1.081 -0.0225  0.2350 -0.2837
 1008MOL0     C35997  11.069   1.464   1.623  0.2683  1.1586 -0.5693
 1008MOL0     C35998  10.936   1.427   1.634 -0.8781 -0.2919 -0.3305
 1008MOL0     C35999  10.565   1.181   1.484  0.7270  0.7551  0.3884
 1008MOL0     C36000  10.472   1.252   1.561 -0.8598 -0.6785  0.4129
 1008MOL0     C36001  10.337   1.223   1.568  0.0048 -0.9725  1.5056
 1008MOL0     C36002  10.290   1.106   1.510  0.0531 -0.3490  0.4447
 1008MOL0     O36003  10.153   1.081   1.520  0.9005  0.0640  0.0692
 1008MOL0     C36004  10.102   0.959   1.471  0.2396  0.1116 -0.5739
 1008MOL0     C36005  10.065   0.990   1.321 -0.9313  0.8204  0.5170
 1008MOL0     C36006  10.046   0.870   1.224  0.4743  0.2071 -0.0367
 1008MOL0     C36007  10.058   0.904   1.081 -0.9213 -0.0778 -0.1095
 1008MOL0     C36008  10.194   0.954   1.047  0.2938  0.6218 -0.8045
 1008MOL0     C36009  10.308   0.977   1.015 -0.6162  1.2082 -0.5954
 1008MOL0     C36010  10.386   1.029   1.438  2.1567 -0.2097 -0.9063
 1008MOL0     C36011  10.517   1.065   1.422  0.6115  0.1591  0.5295
 1008MOL0     C36012  10.608   0.973   1.344  0.5734 -0.3819 -0.8160
 1008MOL0     H36013  10.868   1.366   1.306  2.6674 -3.3491 -0.9619
 1008MOL0     H36014  11.111   1.438   1.298  2.5245  3.2239  1.6098
 1008MOL0     H36015  11.418   1.639   1.543  1.2729 -1.3233  1.3000
 1008MOL0     H36016  11.269   1.639   1.633 -0.0687  0.3364 -0.6166
 1008MOL0     H36017  11.367   1.417   1.739 -0.9256  0.0762 -1.3499
 1008MOL0     H36018  11.463   1.558   1.773  0.6834 -0.8616  1.5501
 1008MOL0     H36019  11.602   1.398   1.718 -0.7287  3.7608  2.2931
 1008MOL0     H36020  11.622   1.519   1.613  0.2217  0.3068 -0.4899
 1008MOL0     H36021  11.468   1.256   1.538  1.5336 -1.0587 -0.5635
 1008MOL0     H36022  11.511   1.382   1.424  1.4537  2.3867 -0.0083
 1008MOL0     H36023  11.759   1.337   1.517  1.6932 -1.4216 -0.1205
 1008MOL0     H36024  11.692   1.176   1.528 -0.9675 -0.3068 -0.3629
 1008MOL0     H36025  11.654   1.166   1.303 -0.5884 -0.3111  0.8214
 1008MOL0     H36026  11.663   1.344   1.278  2.4456  1.3338 -1.7208
 1008MOL0     H36027  11.890   1.168   1.354 -0.0451 -0.4927 -2.3908
 1008MOL0     H36028  11.889   1.350   1.360 -1.2873  1.6493 -1.5915
 1008MOL0     H36029  11.813   1.177   1.125  0.4797 -0.1252 -0.2999
 1008MOL0     H36030  11.845   1.354   1.120 -0.8913  0.4048  1.8928
 1008MOL0     H36031  12.048   1.024   1.221  1.3824 -0.7829  1.0254
 1008MOL0     H36032  12.424   1.110   1.134 -0.1299 -0.6588 -1.3338
 1008MOL0     H36033  12.330   0.990   1.227  3.2538 -0.7165 -0.2307
 1008MOL0     H36034  12.245   0.908   0.997 -0.0545  0.3992 -0.4797
 1008MOL0     H36035  12.365   1.003   0.928  2.9741 -3.2455 -1.5252
 1008MOL0     H36036  12.425   0.746   0.992 -1.9599  0.9498  1.5740
 1008MOL0     H36037  12.430   0.800   1.151  0.6313  0.9688  1.3471
 1008MOL0     H36038  12.603   0.915   0.927  0.9526  0.9405 -0.0543
 1008MOL0     H36039  12.661   0.780   1.029 -0.1851  0.0480 -0.1913
 1008MOL0     H36040  12.868   0.840   1.023 -0.6583  0.6506 -0.1369
 1008MOL0     H36041  13.062   0.831   1.120 -1.4764 -0.4022  1.0876
 1008MOL0     H36042  13.392   0.671   1.341  0.9114 -0.0766  0.2974
 1008MOL0     H36043  13.616   0.656   1.426 -3.0944  0.4402  5.0943
 1008MOL0     H36044  13.856   0.999   1.362  0.8890 -4.4219 -1.6273
 1008MOL0     H36045  13.846   1.024   1.532  1.5137 -0.7991  0.8300
 1008MOL0     H36046  14.078   0.987   1.503  1.2610 -1.8261  0.1676
 1008MOL0     H36047  14.023   0.845   1.576  2.2028  1.0680 -0.0296
 1008MOL0     H36048  13.997   0.766   1.319 -2.5431  2.6112 -1.2431
 1008MOL0     H36049  14.085   0.910   1.271 -2.7808 -1.7057 -2.2486
 1008MOL0     H36050  14.223   0.712   1.290  1.2165  0.2997  0.0003
 1008MOL0     H36051  14.172   0.681   1.457  3.2121  0.5458  1.4556
 1008MOL0     H36052  14.287   0.884   1.536  0.7890  0.1291  0.5487
 1008MOL0     H36053  14.353   0.921   1.370  2.1119  0.1420  1.4826
 1008MOL0     H36054  14.402   0.689   1.552  2.1180 -0.9741  0.6332
 1008MOL0     H36055  14.421   0.659   1.379 -2.0902  2.0437 -0.8529
 1008MOL0     H36056  14.629   0.725   1.509  0.3711  1.0087  0.8447
 1008MOL0     H36057  14.574   0.891   1.511  0.6843  2.0570 -3.2767
 1008MOL0     H36058  14.561   0.879   1.257  1.3281 -0.0843 -0.2617
 1008MOL0     H36059  14.725   0.867   1.325  1.3780 -0.5577 -0.7283
 1008MOL0     H36060  13.656   1.086   1.382 -0.2573  1.2038 -1.7271
 1008MOL0     H36061  13.410   1.098   1.310 -0.8599 -1.1901  0.9646
 1008MOL0     H36062  12.943   1.129   1.410 -2.7082 -1.9127  2.5718
 1008MOL0     H36063  12.728   1.127   1.325  0.0138  0.3111  1.0318
 1008MOL0     H36064  11.124   1.488   1.713  2.4412 -1.2035 -1.1376
 1008MOL0     H36065  10.893   1.425   1.734 -1.8948 -0.0426 -0.7567
 1008MOL0     H36066  10.507   1.345   1.604  0.3677 -2.6285  4.1257
 1008MOL0     H36067  10.259   1.289   1.607  0.8767  0.6186  0.6883
 1008MOL0     H36068  10.003   0.931   1.510  0.7921  0.6662  1.2696
 1008MOL0     H36069  10.174   0.878   1.484 -0.1773  0.1850  3.5653
 1008MOL0     H36070  10.142   1.053   1.277  0.4303 -0.6990  0.6130
 1008MOL0     H36071   9.971   1.045   1.310 -0.6551  1.2435  0.2727
 1008MOL0     H36072   9.942   0.839   1.242  0.4647  0.3140  0.0888
 1008MOL0     H36073  10.120   0.794   1.250  1.6741  1.5102  0.4440
 1008MOL0     H36074  10.035   0.814   1.022 -0.7024 -1.4113  1.7713
 1008MOL0     H36075   9.982   0.981   1.062 -0.0357  1.0086  0.6064
 1008MOL0     H36076  10.410   0.992   0.987 -0.1543  3.6189  1.9283
 1008MOL0     H36077  10.350   0.940   1.388 -1.2542  1.6768 -2.1968
 1008MOL0     H36078  10.671   0.916   1.413  0.7545 -0.0375 -0.6942
 1008MOL0     H36079  10.546   0.894   1.300  0.8386 -0.9805 -0.1342
 1008MOL0     H36080  10.676   1.020   1.273  1.8739 -2.8154 -1.2925
 1009MOL0     O36081   7.547   5.766   7.655  0.3072 -1.1456  0.8693
 1009MOL0     C36082   7.548   5.829   7.762 -0.2618  0.1898  0.6620
 1009MOL0     O36083   7.644   5.920   7.793  0.1029 -0.3352  1.2427
 1009MOL0     C36084   7.737   5.939   7.694 -0.7234 -0.3745 -0.0857
 1009MOL0     C36085   7.723   6.014   7.577  0.6474 -0.1662 -0.3759
 1009MOL0     C36086   7.815   6.020   7.475  0.4006 -0.7667 -0.0398
 1009MOL0     C36087   7.934   5.958   7.497  1.2130 -0.2493  0.5300
 1009MOL0     O36088   8.023   5.961   7.392  0.5645  0.3181  0.2034
 1009MOL0     C36089   8.056   6.097   7.347  0.5555 -0.6954  0.5923
 1009MOL0     C36090   8.208   6.102   7.321 -0.1629  0.2832  0.1736
 1009MOL0     C36091   8.284   6.078   7.460 -0.0400  0.2102 -0.3643
 1009MOL0     C36092   8.434   6.092   7.455  0.5153  0.5148 -0.3173
 1009MOL0     C36093   8.494   6.103   7.597  0.3159  0.4636 -0.7036
 1009MOL0     C36094   8.488   5.983   7.687  0.1467 -0.6087  0.2787
 1009MOL0     C36095   8.579   6.005   7.809  0.0714 -0.3007 -0.1149
 1009MOL0     C36096   8.591   5.882   7.896 -0.8845  0.2303  0.3846
 1009MOL0     N36097   8.668   5.778   7.828  0.3260 -0.2021  0.5663
 1009MOL0     C36098   8.804   5.784   7.809  0.1248  0.4837 -0.0622
 1009MOL0     C36099   8.846   5.677   7.731  0.4736  1.2182  0.1922
 1009MOL0     C36100   8.989   5.642   7.696 -0.6061  0.5353 -1.0898
 1009MOL0     C36101   9.090   5.617   7.807 -1.0457  0.0450  0.0343
 1009MOL0     C36102   9.063   5.497   7.899  0.4962 -0.3176 -1.2250
 1009MOL0     C36103   9.179   5.465   8.000  0.0261 -0.2778  0.4656
 1009MOL0     O36104   9.283   5.418   7.910 -0.3835 -0.1176  0.1182
 1009MOL0     C36105   9.413   5.385   7.950 -0.4698  0.2522  0.0671
 1009MOL0     C36106   9.497   5.311   7.869  0.6520  0.5535 -0.0398
 1009MOL0     C36107   9.623   5.269   7.905  0.0758  0.0144  0.3431
 1009MOL0     C36108   9.674   5.301   8.029  0.5278  0.7509 -0.2802
 1009MOL0     C36109   9.807   5.263   8.075 -0.7374 -0.3893 -0.2203
 1009MOL0     O36110   9.885   5.196   7.988  0.1937  0.9321  0.1677
 1009MOL0     C36111   9.994   5.122   8.046 -0.0996  0.5742 -0.6021
 1009MOL0     C36112  10.105   5.187   8.098 -0.2886 -0.3929 -0.5101
 1009MOL0     C36113  10.229   5.123   8.111 -0.1101  0.0711 -1.0244
 1009MOL0     C36114  10.241   4.994   8.049 -0.3259 -0.1170 -0.2710
 1009MOL0     O36115  10.359   4.923   8.044 -0.0432 -1.1075 -0.0167
 1009MOL0     C36116  10.460   4.954   8.139 -0.0912 -0.4970  0.0060
 1009MOL0     C36117  10.575   4.863   8.122  1.0862  0.1519 -0.2573
 1009MOL0     C36118  10.704   4.914   8.187 -0.2303  0.5449  0.7741
 1009MOL0     C36119  10.809   4.816   8.184 -0.3782  0.3273 -0.1393
 1009MOL0     C36120  10.944   4.870   8.215 -0.7248  0.3305 -0.0421
 1009MOL0     C36121  11.040   4.749   8.236  0.8426 -0.9391  0.4076
 1009MOL0     C36122  11.174   4.808   8.265 -0.1031 -0.0961  0.1700
 1009MOL0     C36123  11.252   4.876   8.158  0.2267 -0.0643  0.3067
 1009MOL0    Cl36124  11.397   4.955   8.222 -0.0003  0.1296  0.2621
 1009MOL0     C36125  10.124   4.934   7.994  0.0719 -0.4608  0.3446
 1009MOL0     C36126  10.003   4.994   7.994  0.1222  0.5314  0.2709
 1009MOL0     O36127   9.848   5.294   8.192  0.8204 -0.1324  0.3606
 1009MOL0     C36128   9.593   5.371   8.121  1.0288  0.5657 -0.1073
 1009MOL0     C36129   9.457   5.410   8.080 -0.7455  0.2198  0.4057
 1009MOL0     N36130   8.724   5.613   7.695  0.0602 -1.4884 -0.2261
 1009MOL0     N36131   8.621   5.666   7.762  0.1777  0.0472 -0.5591
 1009MOL0     C36132   7.962   5.884   7.613  0.5478 -0.8663 -0.5718
 1009MOL0     C36133   7.860   5.875   7.711 -0.3965 -0.4906  0.6790
 1009MOL0     C36134   7.473   5.787   7.882  0.0048  0.4924  0.1200
 1009MOL0     C36135   7.524   5.800   8.009 -0.1653 -0.3216 -0.0044
 1009MOL0     C36136   7.448   5.769   8.117  0.3391  0.5502 -0.5569
 1009MOL0     C36137   7.317   5.709   8.098 -0.6008 -0.0851 -0.1548
 1009MOL0     O36138   7.251   5.661   8.214  0.4291  0.2261  0.2022
 1009MOL0     C36139   7.110   5.659   8.221 -0.2834 -0.2469  0.0936
 1009MOL0     C36140   7.062   5.520   8.252  1.1073 -0.4121  0.2864
 1009MOL0     C36141   6.912   5.518   8.306 -0.4751 -0.5947 -0.1967
 1009MOL0     C36142   6.804   5.524   8.200  0.1315  0.5415 -0.4514
 1009MOL0     C36143   6.675   5.574   8.256  0.2258  0.1950 -0.2348
 1009MOL0     C36144   6.571   5.601   8.309 -0.4546  0.1059  0.4420
 1009MOL0     C36145   7.269   5.691   7.972 -0.7741  0.1010  0.4913
 1009MOL0     C36146   7.348   5.731   7.859  0.2921 -0.1938 -0.0571
 1009MOL0     C36147   7.281   5.709   7.718 -0.1014  0.1215 -0.0540
 1009MOL0     H36148   7.628   6.066   7.564 -0.1306 -1.1108  1.2880
 1009MOL0     H36149   7.815   6.088   7.389  2.1777 -0.8217 -0.1217
 1009MOL0     H36150   8.013   6.129   7.251 -1.7207 -1.8045  1.1887
 1009MOL0     H36151   8.025   6.171   7.422 -0.2586  0.5520 -0.9072
 1009MOL0     H36152   8.245   6.193   7.274  1.7372 -1.3279 -1.6674
 1009MOL0     H36153   8.219   6.011   7.262  0.9317  1.6568 -1.8334
 1009MOL0     H36154   8.267   5.974   7.491  3.5120  0.2424  2.3697
 1009MOL0     H36155   8.244   6.149   7.534 -0.1437  1.0431 -1.2090
 1009MOL0     H36156   8.482   6.011   7.399 -1.2137 -0.9101  0.1718
 1009MOL0     H36157   8.458   6.187   7.406  2.9920  1.8490  3.1067
 1009MOL0     H36158   8.598   6.133   7.578  1.4872 -1.6207  1.7971
 1009MOL0     H36159   8.454   6.191   7.649 -0.1705  0.9702 -1.9109
 1009MOL0     H36160   8.384   5.964   7.716  0.7775 -2.9572  1.1926
 1009MOL0     H36161   8.521   5.891   7.637 -1.4600 -1.0349 -0.0744
 1009MOL0     H36162   8.540   6.089   7.867  1.3481  0.6681 -0.6268
 1009MOL0     H36163   8.676   6.039   7.772 -0.8573  2.3800 -0.2611
 1009MOL0     H36164   8.640   5.913   7.988  0.2632  2.1029 -0.8093
 1009MOL0     H36165   8.493   5.836   7.913 -2.0011  1.8012 -1.3713
 1009MOL0     H36166   8.876   5.841   7.867  2.5376 -4.3302  2.2742
 1009MOL0     H36167   9.002   5.566   7.618  0.8946 -0.8443  0.4311
 1009MOL0     H36168   9.017   5.729   7.637 -2.1253  0.2994 -2.2389
 1009MOL0     H36169   9.187   5.593   7.763 -0.9975 -2.3541  1.2295
 1009MOL0     H36170   9.103   5.710   7.863 -5.0274 -0.6117  2.4409
 1009MOL0     H36171   9.045   5.411   7.833  0.8996  1.4749 -3.8434
 1009MOL0     H36172   8.970   5.515   7.954  0.5121 -1.5712 -0.7541
 1009MOL0     H36173   9.143   5.383   8.063 -3.5489 -2.5685 -3.9164
 1009MOL0     H36174   9.212   5.553   8.055  0.4443 -1.1374  1.6209
 1009MOL0     H36175   9.455   5.282   7.774  2.6499 -1.2028 -0.4697
 1009MOL0     H36176   9.689   5.217   7.836 -1.4855  1.9032 -2.7982
 1009MOL0     H36177  10.109   5.295   8.109  2.2812 -0.4096 -0.6238
 1009MOL0     H36178  10.313   5.181   8.148 -0.7285  0.0987  0.3934
 1009MOL0     H36179  10.498   5.056   8.126 -1.3063 -0.1187 -0.7182
 1009MOL0     H36180  10.418   4.945   8.240 -0.8763 -3.4024 -0.4877
 1009MOL0     H36181  10.549   4.765   8.163 -0.3375 -0.4099 -2.3362
 1009MOL0     H36182  10.591   4.847   8.015 -0.9362  0.6090 -0.6709
 1009MOL0     H36183  10.740   4.999   8.129  1.0421 -0.9222 -0.6979
 1009MOL0     H36184  10.695   4.951   8.290  2.3810  0.4396  1.0951
 1009MOL0     H36185  10.818   4.769   8.085  0.9368 -3.5167  1.5862
 1009MOL0     H36186  10.786   4.734   8.253 -1.7508 -1.4182 -2.5415
 1009MOL0     H36187  10.938   4.934   8.304 -0.2548  0.4630 -0.1015
 1009MOL0     H36188  10.976   4.942   8.140  0.6324  1.5213  1.6142
 1009MOL0     H36189  11.009   4.687   8.320  0.6677  2.0974  2.7372
 1009MOL0     H36190  11.053   4.678   8.153  0.1163 -0.7048  0.0733
 1009MOL0     H36191  11.230   4.731   8.318  1.7640  0.5884 -0.7014
 1009MOL0     H36192  11.154   4.885   8.340 -1.9677 -1.6622  1.3873
 1009MOL0     H36193  11.274   4.805   8.077 -0.0612  0.5949 -0.3694
 1009MOL0     H36194  11.194   4.957   8.113 -0.9099 -0.9549  0.1385
 1009MOL0     H36195  10.120   4.838   7.944  0.1684  1.6233 -4.1663
 1009MOL0     H36196   9.927   4.961   7.924  3.6001 -3.4282 -2.0641
 1009MOL0     H36197   9.615   5.387   8.226 -4.1713 -0.4136  1.4085
 1009MOL0     H36198   9.397   5.460   8.155  1.1241  2.6543  0.4095
 1009MOL0     H36199   8.054   5.826   7.620  0.8935 -0.4201 -1.2362
 1009MOL0     H36200   7.867   5.800   7.789  0.6453  0.1849  1.2677
 1009MOL0     H36201   7.622   5.841   8.029  0.3523 -0.2927 -2.3644
 1009MOL0     H36202   7.491   5.786   8.215  0.4320 -2.4616  0.0458
 1009MOL0     H36203   7.062   5.690   8.128  1.0525 -1.6930 -1.1271
 1009MOL0     H36204   7.078   5.725   8.302  1.3653 -0.5331  1.0234
 1009MOL0     H36205   7.128   5.469   8.323  2.2389  1.3222  0.5207
 1009MOL0     H36206   7.062   5.462   8.159  0.6670 -1.1738  0.7503
 1009MOL0     H36207   6.911   5.599   8.380  0.3012  0.6530 -1.4890
 1009MOL0     H36208   6.883   5.432   8.366  0.9444  0.4538  2.1530
 1009MOL0     H36209   6.837   5.587   8.117 -0.3907 -0.5837 -1.5439
 1009MOL0     H36210   6.774   5.430   8.153 -0.6920  1.5651 -2.0824
 1009MOL0     H36211   6.483   5.629   8.363 -1.7855 -3.2245  0.1809
 1009MOL0     H36212   7.186   5.625   7.953 -1.9134  1.5286  0.3561
 1009MOL0     H36213   7.177   5.674   7.728  0.4616 -1.5125  0.5551
 1009MOL0     H36214   7.292   5.796   7.654 -5.0355  0.1014 -1.3542
 1009MOL0     H36215   7.337   5.629   7.667  0.0452  0.6312 -0.7084
 1010MOL0     O36216   6.995   9.356   8.391 -0.5259  0.2923 -0.7124
 1010MOL0     C36217   6.971   9.304   8.283 -0.5256  0.2756  0.0146
 1010MOL0     O36218   7.069   9.250   8.204 -0.0195 -0.2106  0.2180
 1010MOL0     C36219   7.193   9.235   8.249 -0.2158 -0.1925  0.3612
 1010MOL0     C36220   7.263   9.328   8.329  0.1961  0.2895  1.1098
 1010MOL0     C36221   7.388   9.302   8.377  0.4402 -0.1818  0.0573
 1010MOL0     C36222   7.442   9.172   8.364 -0.4572  0.2811  0.0769
 1010MOL0     O36223   7.565   9.135   8.415 -0.6914  0.1534 -0.1593
 1010MOL0     C36224   7.664   9.237   8.400 -0.0298  0.1112  0.2927
 1010MOL0     C36225   7.800   9.184   8.423  0.7241 -0.1950  0.8515
 1010MOL0     C36226   7.820   9.146   8.569  0.1490 -0.1366  0.0021
 1010MOL0     C36227   7.962   9.098   8.605 -0.1015  0.5383  0.2889
 1010MOL0     C36228   7.987   8.961   8.535  0.6291 -0.1834 -0.5837
 1010MOL0     C36229   8.109   8.893   8.593 -0.3974  0.7292  1.1752
 1010MOL0     C36230   8.252   8.957   8.558  0.7444 -0.6777 -0.3460
 1010MOL0     C36231   8.270   8.957   8.406 -0.5797  0.5653  0.0346
 1010MOL0     N36232   8.412   8.994   8.379 -0.4344  0.1475  0.1234
 1010MOL0     C36233   8.519   8.912   8.403 -0.0615  1.0108 -0.1347
 1010MOL0     C36234   8.627   8.982   8.355 -0.6664  0.4095 -0.2134
 1010MOL0     C36235   8.779   8.964   8.369  0.7904  0.6555 -0.6420
 1010MOL0     C36236   8.816   8.999   8.518 -0.4129  0.3010 -0.0200
 1010MOL0     C36237   8.740   9.120   8.575 -1.3760 -0.6470  0.1492
 1010MOL0     C36238   8.799   9.156   8.723  0.8976  0.4895 -0.0173
 1010MOL0     O36239   8.806   9.035   8.802  0.2178 -0.1417 -0.7047
 1010MOL0     C36240   8.857   9.059   8.929  0.4105 -0.0863  0.7178
 1010MOL0     C36241   8.833   9.167   9.014  0.2163  0.6549 -0.6584
 1010MOL0     C36242   8.884   9.176   9.149  0.8074  0.3835  0.1746
 1010MOL0     C36243   8.938   9.063   9.202 -0.7576  0.1720 -0.6706
 1010MOL0     C36244   8.997   9.065   9.340  0.7938  0.1667  0.0561
 1010MOL0     O36245   9.083   8.962   9.358 -0.2107 -0.2519 -0.6510
 1010MOL0     C36246   9.156   8.940   9.476 -0.6685 -0.2444 -0.0173
 1010MOL0     C36247   9.225   9.039   9.546 -0.4098 -0.2355 -0.8949
 1010MOL0     C36248   9.307   9.012   9.656 -0.0691 -0.0789 -0.3339
 1010MOL0     C36249   9.328   8.882   9.698 -0.1129  0.8951  0.5409
 1010MOL0     O36250   9.423   8.844   9.790  0.4381  0.0900  0.1781
 1010MOL0     C36251   9.517   8.942   9.842  0.4368  0.0352 -0.8117
 1010MOL0     C36252   9.617   8.877   9.931 -0.6316 -0.3300 -0.6169
 1010MOL0     C36253   9.732   8.971   9.963  0.5702  0.2757 -1.0636
 1010MOL0     C36254   9.695   9.091  10.054  0.3455 -0.6562  0.0013
 1010MOL0     C36255   9.811   9.153  10.117  0.1225 -0.0196 -0.1451
 1010MOL0     C36256   9.934   9.174  10.015 -0.6583 -1.4359  0.3945
 1010MOL0     C36257  10.063   9.247  10.080  0.4316  0.1648 -0.3464
 1010MOL0     C36258  10.034   9.393  10.100  0.4071 -0.1270  0.4989
 1010MOL0    Cl36259  10.148   9.466  10.212  0.3654 -0.2439 -0.0349
 1010MOL0     C36260   9.273   8.774   9.626  0.6197  0.2988 -0.3251
 1010MOL0     C36261   9.183   8.804   9.512  0.0660 -0.3365  0.1380
 1010MOL0     O36262   8.970   9.151   9.420 -0.0857  0.2200 -0.8050
 1010MOL0     C36263   8.989   8.966   9.115 -0.3185  0.8213 -0.7494
 1010MOL0     C36264   8.941   8.960   8.978  0.5191 -0.8779  0.5014
 1010MOL0     N36265   8.584   9.105   8.295  0.0155  0.6361 -0.2860
 1010MOL0     N36266   8.449   9.109   8.305 -0.0492  0.0927  0.3556
 1010MOL0     C36267   7.384   9.085   8.273 -0.2483  0.3867 -1.0323
 1010MOL0     C36268   7.262   9.119   8.216 -0.0136  0.3298  0.5639
 1010MOL0     C36269   6.835   9.299   8.235  0.2016 -0.0427  0.3709
 1010MOL0     C36270   6.804   9.221   8.120 -0.3988  0.5074  0.0113
 1010MOL0     C36271   6.673   9.194   8.069 -0.0772  0.0601 -0.1904
 1010MOL0     C36272   6.568   9.264   8.118  0.5602  0.9765 -0.5152
 1010MOL0     O36273   6.450   9.236   8.063  0.1583 -0.1906 -0.7013
 1010MOL0     C36274   6.342   9.293   8.128  0.5274 -0.6756 -0.1260
 1010MOL0     C36275   6.207   9.259   8.072  0.2557  0.0158  0.2743
 1010MOL0     C36276   6.202   9.315   7.928  1.1344 -1.1575 -0.5988
 1010MOL0     C36277   6.171   9.472   7.924  0.2337  0.0769  0.9094
 1010MOL0     C36278   6.163   9.513   7.784 -0.1089 -0.2985  0.2706
 1010MOL0     C36279   6.168   9.566   7.673 -1.3445 -0.3023  0.3372
 1010MOL0     C36280   6.596   9.345   8.230  0.6297 -0.5635 -0.2803
 1010MOL0     C36281   6.723   9.366   8.292  0.3355  0.2692 -0.7355
 1010MOL0     C36282   6.728   9.465   8.409 -0.5851  0.4695  0.3730
 1010MOL0     H36283   7.221   9.428   8.345  1.2968  0.4213  3.7900
 1010MOL0     H36284   7.428   9.380   8.442  1.0143 -1.2719  1.0446
 1010MOL0     H36285   7.662   9.281   8.300  0.8491 -2.4414 -0.9452
 1010MOL0     H36286   7.642   9.315   8.474  1.5651  1.6877 -0.8012
 1010MOL0     H36287   7.873   9.264   8.407  0.3578 -0.4474 -2.7666
 1010MOL0     H36288   7.813   9.101   8.353  0.4504  1.0171 -0.6723
 1010MOL0     H36289   7.753   9.067   8.604  2.6164 -0.4209  4.9217
 1010MOL0     H36290   7.799   9.240   8.620  3.1749  1.3825 -1.3128
 1010MOL0     H36291   8.043   9.165   8.574  0.8943 -0.8508 -0.2890
 1010MOL0     H36292   7.974   9.088   8.713 -0.6023 -2.0127  0.1845
 1010MOL0     H36293   7.899   8.901   8.560  1.5174 -0.6757  1.5657
 1010MOL0     H36294   8.003   8.975   8.427 -1.7649 -0.7513 -1.0665
 1010MOL0     H36295   8.112   8.883   8.702  1.0518 -0.8205  1.0342
 1010MOL0     H36296   8.105   8.789   8.558  0.0094  0.6040  1.4893
 1010MOL0     H36297   8.329   8.891   8.600 -1.0567 -2.4687  0.3433
 1010MOL0     H36298   8.266   9.049   8.616 -1.5203 -1.0240  0.8940
 1010MOL0     H36299   8.265   8.857   8.362 -0.7241 -0.0502  1.3789
 1010MOL0     H36300   8.198   9.018   8.352 -2.6850 -1.0291  0.9159
 1010MOL0     H36301   8.520   8.817   8.456 -0.5010 -0.7370 -3.0482
 1010MOL0     H36302   8.805   8.860   8.348  3.5883  0.5727  2.4025
 1010MOL0     H36303   8.831   9.026   8.296  1.4666 -1.2840 -1.8870
 1010MOL0     H36304   8.798   8.909   8.577 -0.9243  0.1697 -0.3732
 1010MOL0     H36305   8.926   9.005   8.515 -0.4979  1.8532 -1.4171
 1010MOL0     H36306   8.636   9.089   8.592 -0.5023 -3.7125  0.5160
 1010MOL0     H36307   8.758   9.208   8.514 -2.8344 -0.4601 -0.0359
 1010MOL0     H36308   8.737   9.228   8.776 -0.2372  0.3332 -1.0808
 1010MOL0     H36309   8.895   9.207   8.715  0.6981  0.6127 -2.5016
 1010MOL0     H36310   8.779   9.252   8.973 -1.9889 -0.1330  0.4475
 1010MOL0     H36311   8.852   9.258   9.212  0.7337 -0.3759  1.1528
 1010MOL0     H36312   9.195   9.137   9.510  0.9474 -0.3624 -2.5136
 1010MOL0     H36313   9.339   9.100   9.711 -2.0271  0.3363  0.2448
 1010MOL0     H36314   9.569   8.995   9.762 -1.3131  2.0337 -0.7192
 1010MOL0     H36315   9.476   9.020   9.907  2.8199 -0.6890  1.7662
 1010MOL0     H36316   9.572   8.847  10.026 -1.3852 -3.3028 -1.7995
 1010MOL0     H36317   9.659   8.790   9.880  2.1094  0.2539  0.4616
 1010MOL0     H36318   9.797   8.909  10.026 -1.2229 -1.5486 -0.9129
 1010MOL0     H36319   9.779   8.986   9.865 -0.9029 -2.6619 -2.3774
 1010MOL0     H36320   9.622   9.054  10.126  3.6678 -0.7618  3.6496
 1010MOL0     H36321   9.646   9.167   9.992 -0.9814 -1.6799 -0.2530
 1010MOL0     H36322   9.843   9.080  10.192  2.9983  2.3979  1.2099
 1010MOL0     H36323   9.801   9.252  10.164  2.8859  1.4234 -2.2806
 1010MOL0     H36324   9.964   9.071   9.990  0.5457 -0.1802 -4.4670
 1010MOL0     H36325   9.918   9.220   9.917  3.2712  1.8835  1.0525
 1010MOL0     H36326  10.149   9.212  10.022  0.9094 -3.2745  2.1369
 1010MOL0     H36327  10.084   9.199  10.176 -2.7022 -1.8906 -0.5093
 1010MOL0     H36328  10.027   9.452  10.008 -3.0391  1.3198  1.5051
 1010MOL0     H36329   9.944   9.401  10.161  0.3733  0.7175  0.3489
 1010MOL0     H36330   9.314   8.675   9.641 -0.6259 -0.1028  0.5232
 1010MOL0     H36331   9.139   8.719   9.460  1.8993 -2.4562  1.8333
 1010MOL0     H36332   9.058   8.886   9.139  0.3528  2.0467  1.6942
 1010MOL0     H36333   8.967   8.874   8.917 -1.0068 -1.2869  0.3722
 1010MOL0     H36334   7.440   8.992   8.271 -0.8009 -0.1250  2.0205
 1010MOL0     H36335   7.218   9.055   8.140  0.5887  0.9930 -0.3626
 1010MOL0     H36336   6.875   9.149   8.081  0.0004  0.0835  1.4568
 1010MOL0     H36337   6.664   9.118   7.991 -1.8579  0.5318 -0.4747
 1010MOL0     H36338   6.349   9.402   8.136  0.6759 -0.6445 -0.6416
 1010MOL0     H36339   6.336   9.257   8.231 -1.7814  0.4856  0.2273
 1010MOL0     H36340   6.126   9.301   8.133  0.7946 -1.2043  1.8736
 1010MOL0     H36341   6.204   9.150   8.067  2.3194 -0.1697  1.7784
 1010MOL0     H36342   6.116   9.269   7.878  0.1874  0.1682 -0.2468
 1010MOL0     H36343   6.296   9.303   7.875  2.9498 -1.4568  2.4250
 1010MOL0     H36344   6.078   9.495   7.976 -0.2945 -0.2276  0.1138
 1010MOL0     H36345   6.252   9.529   7.971  2.9645 -2.5036 -0.3131
 1010MOL0     H36346   6.179   9.602   7.572  0.3615 -2.6231 -0.3944
 1010MOL0     H36347   6.514   9.409   8.260  0.3158 -1.3711  0.6597
 1010MOL0     H36348   6.779   9.554   8.371 -1.1383 -0.6453 -3.4200
 1010MOL0     H36349   6.629   9.496   8.443  0.0556  1.5302  1.3221
 1010MOL0     H36350   6.783   9.419   8.492  0.6834 -2.1290 -1.7287
 1011MOL0     O36351   0.160   8.371   4.338 -0.2623  0.6670 -0.0154
 1011MOL0     C36352   0.201   8.331   4.232 -0.1623 -0.1029  0.7913
 1011MOL0     O36353   0.327   8.352   4.193  0.6852  0.3863  0.0170
 1011MOL0     C36354   0.433   8.373   4.283 -0.2612  0.2030 -0.4902
 1011MOL0     C36355   0.539   8.457   4.250  0.2640 -0.8981  0.6339
 1011MOL0     C36356   0.646   8.479   4.336  0.4301  0.0807 -0.7444
 1011MOL0     C36357   0.654   8.428   4.463 -0.5422 -0.5530  0.6323
 1011MOL0     O36358   0.759   8.455   4.548  0.2089  0.4253  0.0122
 1011MOL0     C36359   0.862   8.547   4.517  0.3870 -0.4949 -0.4606
 1011MOL0     C36360   0.959   8.546   4.625  0.1341  0.0866  0.0583
 1011MOL0     C36361   1.069   8.627   4.563 -0.1752  1.0038 -1.4482
 1011MOL0     C36362   1.174   8.651   4.668  0.2075  0.2680 -0.6375
 1011MOL0     C36363   1.297   8.717   4.609 -0.8646 -0.4286  0.1305
 1011MOL0     C36364   1.423   8.734   4.701 -0.5334 -0.1480  0.4608
 1011MOL0     C36365   1.391   8.791   4.842 -0.0616 -0.1522  0.6257
 1011MOL0     C36366   1.516   8.788   4.929 -0.2267 -0.5772  0.1536
 1011MOL0     N36367   1.537   8.651   4.973  1.2001  0.3150  0.0113
 1011MOL0     C36368   1.491   8.596   5.087  0.7082  0.1013 -0.4054
 1011MOL0     C36369   1.554   8.478   5.102 -0.0217  0.0001  0.4334
 1011MOL0     C36370   1.527   8.379   5.213 -0.0205  0.1265 -0.5809
 1011MOL0     C36371   1.492   8.233   5.160  0.0072  0.2756  0.9007
 1011MOL0     C36372   1.466   8.139   5.267  0.6411  0.1057  0.4798
 1011MOL0     C36373   1.342   8.037   5.247 -0.6321 -0.1122 -0.5458
 1011MOL0     O36374   1.366   7.966   5.129 -0.4674  0.2271 -0.2569
 1011MOL0     C36375   1.263   7.973   5.042  0.5947 -0.3010 -0.7134
 1011MOL0     C36376   1.295   7.980   4.908 -0.4552  0.0102 -0.5105
 1011MOL0     C36377   1.199   7.979   4.816 -0.6986  0.0620 -0.4040
 1011MOL0     C36378   1.062   7.961   4.851  0.3515 -1.3378  0.5075
 1011MOL0     C36379   0.958   7.946   4.748  0.0158  0.0325 -0.1051
 1011MOL0     O36380   0.832   7.941   4.806  0.7487  0.5525  0.6361
 1011MOL0     C36381   0.713   7.926   4.727  0.0844 -0.2526  0.8847
 1011MOL0     C36382   0.702   7.987   4.602  0.0378 -0.0228 -0.0155
 1011MOL0     C36383   0.582   7.993   4.528 -0.2019  0.0140  0.3418
 1011MOL0     C36384   0.467   7.949   4.595  0.9073  0.4056 -0.5114
 1011MOL0     O36385   0.343   7.968   4.542  0.1468  0.1906  0.1918
 1011MOL0     C36386   0.311   7.886   4.423 -0.1462  0.0099 -0.5185
 1011MOL0     C36387   0.180   7.940   4.371 -0.3716 -0.9130 -0.4833
 1011MOL0     C36388   0.125   7.844   4.267  0.2889  0.6381  0.3597
 1011MOL0     C36389  -0.001   7.877   4.205 -0.0030  0.1344  0.4795
 1011MOL0     C36390  -0.099   7.765   4.194  0.0383 -0.0510 -0.3098
 1011MOL0     C36391  -0.063   7.649   4.109 -0.1201 -0.4803 -0.3179
 1011MOL0     C36392  -0.168   7.531   4.127 -0.3428 -0.1054  0.6826
 1011MOL0     C36393  -0.125   7.451   4.242 -0.1523 -0.7372 -0.0351
 1011MOL0    Cl36394  -0.251   7.356   4.310  0.3677 -0.4196 -0.0267
 1011MOL0     C36395   0.473   7.893   4.717 -0.3726  0.2211  0.3540
 1011MOL0     C36396   0.591   7.880   4.786  0.1708  0.1145  1.3137
 1011MOL0     O36397   0.993   7.931   4.628 -0.4736  0.7235 -0.2723
 1011MOL0     C36398   1.022   7.968   4.984 -0.1613  0.7435 -0.8838
 1011MOL0     C36399   1.123   7.974   5.079 -1.2180 -0.6930 -1.4162
 1011MOL0     N36400   1.636   8.464   4.995  0.1710 -0.7138  0.7458
 1011MOL0     N36401   1.629   8.566   4.910  0.5289  0.8509 -0.1373
 1011MOL0     C36402   0.552   8.345   4.499 -0.1048  0.1025 -0.0468
 1011MOL0     C36403   0.448   8.314   4.409  0.5211 -0.1258  0.7103
 1011MOL0     C36404   0.098   8.289   4.127 -0.5631  0.0286  0.3523
 1011MOL0     C36405   0.150   8.291   3.991  0.0761 -0.0267  0.4278
 1011MOL0     C36406   0.070   8.243   3.885 -0.3780 -0.1999 -0.0100
 1011MOL0     C36407  -0.061   8.207   3.900  0.1780  0.8755  0.1897
 1011MOL0     O36408  -0.128   8.162   3.790 -0.0460  0.2390 -0.4403
 1011MOL0     C36409  -0.267   8.171   3.794  0.4382 -0.8969  0.2804
 1011MOL0     C36410  -0.312   8.182   3.651  0.0287 -0.5481 -0.1505
 1011MOL0     C36411  -0.459   8.132   3.625  0.0805 -0.2425 -0.3820
 1011MOL0     C36412  -0.505   8.171   3.492  0.4578  0.0155  1.0778
 1011MOL0     C36413  -0.436   8.109   3.377 -0.3087  0.3743 -1.0256
 1011MOL0     C36414  -0.387   8.061   3.283  0.7253  0.3021 -0.5543
 1011MOL0     C36415  -0.107   8.202   4.034 -0.3353 -0.6658 -0.1251
 1011MOL0     C36416  -0.031   8.244   4.150  1.1216 -0.4258 -0.1025
 1011MOL0     C36417  -0.096   8.232   4.278 -0.3941 -0.6243  0.0137
 1011MOL0     H36418   0.541   8.500   4.150  1.5270 -1.5605  0.3568
 1011MOL0     H36419   0.722   8.547   4.300  1.9149 -1.6634 -1.0731
 1011MOL0     H36420   0.905   8.530   4.418  1.4144  4.1828 -1.0389
 1011MOL0     H36421   0.811   8.643   4.502 -3.3201 -2.2048  0.0954
 1011MOL0     H36422   1.009   8.453   4.653 -0.9419 -1.3464 -2.4395
 1011MOL0     H36423   0.913   8.591   4.714  0.6168 -3.6914  2.4236
 1011MOL0     H36424   1.038   8.730   4.540  0.0182  0.7309 -3.0335
 1011MOL0     H36425   1.124   8.574   4.485  3.2982 -0.5686  1.7224
 1011MOL0     H36426   1.137   8.724   4.740  0.7576  2.8551 -2.8465
 1011MOL0     H36427   1.191   8.559   4.726  1.4205  1.8981  1.7656
 1011MOL0     H36428   1.336   8.670   4.517  1.2613  2.4865 -0.6216
 1011MOL0     H36429   1.277   8.820   4.577  0.1422 -0.1799  0.2572
 1011MOL0     H36430   1.489   8.647   4.694 -0.1330  0.2097 -0.4416
 1011MOL0     H36431   1.480   8.812   4.649  0.7956 -1.8727 -0.8087
 1011MOL0     H36432   1.323   8.735   4.906  3.5386 -4.5715  1.0782
 1011MOL0     H36433   1.348   8.890   4.822  1.5414 -0.0308 -2.9716
 1011MOL0     H36434   1.606   8.834   4.887 -0.3892  4.7965  4.4533
 1011MOL0     H36435   1.506   8.861   5.010  1.7476  0.4915 -0.4892
 1011MOL0     H36436   1.412   8.638   5.148 -0.4002 -1.9737 -0.3400
 1011MOL0     H36437   1.613   8.370   5.281 -2.0651 -2.0876  1.9224
 1011MOL0     H36438   1.441   8.425   5.262 -0.1808 -2.1591  1.5071
 1011MOL0     H36439   1.400   8.243   5.102  0.6160  0.1818 -0.1150
 1011MOL0     H36440   1.561   8.195   5.084 -1.7769  1.1549 -1.2759
 1011MOL0     H36441   1.441   8.194   5.358 -1.0560  0.4102 -0.1208
 1011MOL0     H36442   1.556   8.082   5.293 -1.0740 -2.6438  0.9330
 1011MOL0     H36443   1.244   8.086   5.244 -0.3415  0.4210 -2.5398
 1011MOL0     H36444   1.339   7.976   5.337 -1.3242  1.8958  0.8799
 1011MOL0     H36445   1.400   7.971   4.881 -0.3830 -2.0246  0.2819
 1011MOL0     H36446   1.233   7.968   4.713  1.0223 -3.8207  0.4004
 1011MOL0     H36447   0.796   8.033   4.574  2.0607 -2.9783  1.2966
 1011MOL0     H36448   0.577   8.048   4.434 -2.0934 -0.1724  0.3011
 1011MOL0     H36449   0.394   7.904   4.354  2.2216  2.1825  2.6094
 1011MOL0     H36450   0.291   7.785   4.459 -3.1168  1.6295  3.0077
 1011MOL0     H36451   0.110   7.963   4.451  0.5746  0.9552 -0.1353
 1011MOL0     H36452   0.199   8.035   4.320 -0.9358 -1.8531 -2.5385
 1011MOL0     H36453   0.192   7.840   4.181 -1.0246  1.4012 -0.7419
 1011MOL0     H36454   0.120   7.741   4.304  2.6753 -0.2435 -1.5336
 1011MOL0     H36455   0.013   7.917   4.105  0.2224  0.4291  0.6270
 1011MOL0     H36456  -0.062   7.952   4.257 -0.4535 -0.0435  0.2189
 1011MOL0     H36457  -0.193   7.810   4.162  0.1066  1.0429  0.9431
 1011MOL0     H36458  -0.119   7.726   4.295  2.7212  0.3669  0.4524
 1011MOL0     H36459  -0.077   7.679   4.004  0.1385 -0.0959 -0.2454
 1011MOL0     H36460   0.038   7.616   4.136 -0.5488 -2.3799 -0.9012
 1011MOL0     H36461  -0.178   7.470   4.037 -0.1378 -2.3625  2.1067
 1011MOL0     H36462  -0.266   7.577   4.145 -0.7097 -0.5896 -0.0415
 1011MOL0     H36463  -0.041   7.385   4.215  1.3014  1.1456 -0.3077
 1011MOL0     H36464  -0.071   7.513   4.314 -0.9411  1.4198 -1.2336
 1011MOL0     H36465   0.383   7.868   4.771  0.1770 -1.2131  0.6598
 1011MOL0     H36466   0.590   7.812   4.871 -1.8669 -0.6115  0.7725
 1011MOL0     H36467   0.921   7.960   5.024  0.9826 -4.0615  1.8573
 1011MOL0     H36468   1.100   7.981   5.185  1.7623  3.1905 -0.8164
 1011MOL0     H36469   0.537   8.297   4.595  0.5125  0.3804  0.1944
 1011MOL0     H36470   0.378   8.244   4.454 -2.7107  3.1183  1.2154
 1011MOL0     H36471   0.254   8.314   3.971  0.1551  1.0324  1.8514
 1011MOL0     H36472   0.112   8.214   3.789 -1.6100 -0.9589 -0.3483
 1011MOL0     H36473  -0.282   8.270   3.839  0.3524 -1.1228  0.7543
 1011MOL0     H36474  -0.311   8.093   3.856  0.5351  0.0918  1.6404
 1011MOL0     H36475  -0.245   8.112   3.599  1.7363 -0.6739  2.0485
 1011MOL0     H36476  -0.299   8.283   3.612  1.4831  0.0707  1.7420
 1011MOL0     H36477  -0.529   8.171   3.700  0.6677 -1.3286  0.7727
 1011MOL0     H36478  -0.473   8.024   3.635 -3.0088  0.1303  0.1436
 1011MOL0     H36479  -0.604   8.125   3.489  2.4946 -5.2074 -3.4616
 1011MOL0     H36480  -0.502   8.278   3.469 -0.1429 -0.4182 -1.3013
 1011MOL0     H36481  -0.350   8.026   3.189  3.2633  1.9408 -0.2834
 1011MOL0     H36482  -0.209   8.172   4.055 -1.0638  2.1531  0.9507
 1011MOL0     H36483  -0.093   8.330   4.327 -0.5043  1.0459 -3.0311
 1011MOL0     H36484  -0.203   8.216   4.264  0.1136 -2.4240 -2.5517
 1011MOL0     H36485  -0.038   8.160   4.337  2.1265  0.9728 -0.3873
 1012MOL0     O36486  10.280   1.220   9.388  0.7088  0.2215  0.2858
 1012MOL0     C36487  10.334   1.183   9.284  0.2004  0.4131 -0.5607
 1012MOL0     O36488  10.270   1.123   9.182  0.3236 -0.7518 -0.6653
 1012MOL0     C36489  10.128   1.134   9.171  0.5572  0.0034 -0.4510
 1012MOL0     C36490  10.032   1.119   9.268 -0.4133  0.0717  0.8277
 1012MOL0     C36491   9.900   1.139   9.233 -0.2108 -1.3929 -0.3823
 1012MOL0     C36492   9.856   1.186   9.108  0.0460  0.3049  0.3844
 1012MOL0     O36493   9.723   1.207   9.095 -0.7167 -0.8160  0.0538
 1012MOL0     C36494   9.667   1.204   8.964  0.4817 -0.1527 -1.1275
 1012MOL0     C36495   9.514   1.207   8.995 -0.5141  0.1756 -0.3899
 1012MOL0     C36496   9.410   1.250   8.884 -0.4116  1.0146 -0.1299
 1012MOL0     C36497   9.447   1.196   8.745  0.2793 -0.8307  0.3404
 1012MOL0     C36498   9.324   1.222   8.654  1.0650  0.2145 -0.0801
 1012MOL0     C36499   9.360   1.174   8.514 -0.1147 -0.8838 -0.4134
 1012MOL0     C36500   9.239   1.100   8.445 -0.3896 -0.5326 -0.1443
 1012MOL0     C36501   9.135   1.198   8.388  0.7870 -0.3303  0.1849
 1012MOL0     N36502   9.042   1.121   8.305  0.6584  0.7340  0.4929
 1012MOL0     C36503   8.907   1.153   8.318  0.3974  0.5037  0.4897
 1012MOL0     C36504   8.859   1.113   8.204  0.5315 -0.2989  0.4012
 1012MOL0     C36505   8.723   1.140   8.156 -0.6187 -0.0808  1.4566
 1012MOL0     C36506   8.616   1.076   8.246  0.3518  0.3175  0.4230
 1012MOL0     C36507   8.539   0.959   8.178  0.0463 -0.9761  0.4056
 1012MOL0     C36508   8.420   1.010   8.086  0.2316 -0.1137  0.0152
 1012MOL0     O36509   8.334   0.895   8.065 -0.6089  0.4154  1.0046
 1012MOL0     C36510   8.213   0.914   8.006 -0.4616 -0.0675 -0.4575
 1012MOL0     C36511   8.118   0.810   8.004 -0.0161  0.2563 -0.2959
 1012MOL0     C36512   7.987   0.826   7.947 -0.1041  0.5870  0.5077
 1012MOL0     C36513   7.945   0.947   7.900 -0.2342  0.2147 -0.1959
 1012MOL0     C36514   7.804   0.964   7.853 -0.4789  0.3579 -1.0756
 1012MOL0     O36515   7.711   0.864   7.847  0.1737  0.5161 -0.7774
 1012MOL0     C36516   7.582   0.892   7.818 -0.1848  0.3248  0.8753
 1012MOL0     C36517   7.544   0.934   7.696  0.9213  0.6600  0.2949
 1012MOL0     C36518   7.414   0.930   7.658  0.4839  0.3094  0.3859
 1012MOL0     C36519   7.300   0.891   7.739 -0.8334 -0.0693  0.1831
 1012MOL0     O36520   7.184   0.884   7.678  0.3132  0.3490  0.5552
 1012MOL0     C36521   7.074   0.819   7.746  0.0875  0.7822  0.4916
 1012MOL0     C36522   6.946   0.850   7.677  0.0481  0.3735 -0.5414
 1012MOL0     C36523   6.817   0.822   7.760  0.2340  0.4357  0.5780
 1012MOL0     C36524   6.695   0.846   7.671 -1.0319 -1.0453  0.3697
 1012MOL0     C36525   6.571   0.873   7.751 -0.6705 -0.3259 -1.2006
 1012MOL0     C36526   6.453   0.826   7.679  0.8266  1.1669  0.2553
 1012MOL0     C36527   6.321   0.862   7.741  1.4545  0.2761 -1.4302
 1012MOL0     C36528   6.312   0.810   7.882 -0.2215 -0.4318  0.0438
 1012MOL0    Cl36529   6.147   0.831   7.962 -0.2304 -0.4966  0.0693
 1012MOL0     C36530   7.338   0.850   7.867 -0.8672 -0.7874 -0.3909
 1012MOL0     C36531   7.477   0.848   7.902 -0.4931  0.5027  0.9557
 1012MOL0     O36532   7.780   1.084   7.827 -0.5327 -0.4274  0.4688
 1012MOL0     C36533   8.043   1.060   7.909  0.8098 -0.0821 -0.2289
 1012MOL0     C36534   8.170   1.039   7.957  0.4898  0.8884  0.0334
 1012MOL0     N36535   8.963   1.058   8.127  0.4872 -0.0028 -0.2749
 1012MOL0     N36536   9.073   1.055   8.189 -0.6183  0.4419 -0.4517
 1012MOL0     C36537   9.950   1.184   9.009  0.0889  0.2227 -0.8245
 1012MOL0     C36538  10.081   1.157   9.041 -0.3627 -0.9167 -0.3018
 1012MOL0     C36539  10.486   1.197   9.278  1.0857 -0.2542 -0.5884
 1012MOL0     C36540  10.540   1.211   9.149  0.2450 -0.1059  0.0608
 1012MOL0     C36541  10.675   1.219   9.128  0.0126 -0.0639 -0.4598
 1012MOL0     C36542  10.762   1.219   9.243 -0.4810  0.3756 -0.0301
 1012MOL0     O36543  10.903   1.225   9.229 -0.6363 -0.6946 -0.7229
 1012MOL0     C36544  10.952   1.231   9.095  0.1334  0.4485  0.3489
 1012MOL0     C36545  11.095   1.284   9.078  0.0177 -0.0686  0.4341
 1012MOL0     C36546  11.194   1.196   9.147 -0.5607  0.8872 -0.0090
 1012MOL0     C36547  11.342   1.228   9.138  0.8854 -0.1445 -0.4485
 1012MOL0     C36548  11.413   1.109   9.190  0.6951 -0.4380 -0.1422
 1012MOL0     C36549  11.466   1.012   9.234 -0.8317 -1.2276 -0.6407
 1012MOL0     C36550  10.709   1.224   9.373  0.1603  0.1472 -0.2902
 1012MOL0     C36551  10.567   1.203   9.394  0.4900  0.1952 -0.7434
 1012MOL0     C36552  10.518   1.227   9.537 -0.8003  1.0926 -0.1509
 1012MOL0     H36553  10.054   1.111   9.374  2.7262  0.4541  0.3070
 1012MOL0     H36554   9.824   1.114   9.307  0.9396  0.8044  1.6964
 1012MOL0     H36555   9.699   1.292   8.906 -1.1416  2.4912  1.6804
 1012MOL0     H36556   9.681   1.111   8.908 -0.2199 -1.8512  1.3336
 1012MOL0     H36557   9.492   1.281   9.072  1.6471  3.4943 -2.6855
 1012MOL0     H36558   9.485   1.105   9.024  0.1056 -0.0422 -0.5315
 1012MOL0     H36559   9.388   1.355   8.904 -2.0552  0.6490  0.1089
 1012MOL0     H36560   9.319   1.202   8.921  2.1379 -3.5077  1.0899
 1012MOL0     H36561   9.537   1.247   8.708 -0.2130  0.6034  1.0529
 1012MOL0     H36562   9.462   1.088   8.750 -0.7807 -0.9720  0.6174
 1012MOL0     H36563   9.231   1.175   8.687  0.6748 -1.7508 -3.4758
 1012MOL0     H36564   9.301   1.329   8.651  1.4964  0.3784  1.5055
 1012MOL0     H36565   9.390   1.261   8.454 -1.8526  0.3160  0.4007
 1012MOL0     H36566   9.443   1.104   8.527 -0.2501 -0.7636  1.3029
 1012MOL0     H36567   9.186   1.023   8.501 -0.8923 -1.7955 -2.2207
 1012MOL0     H36568   9.283   1.048   8.359 -0.8573 -2.0345  0.4917
 1012MOL0     H36569   9.081   1.244   8.470  0.2841 -2.6779  1.2601
 1012MOL0     H36570   9.180   1.280   8.331  0.0269  0.5173  0.7999
 1012MOL0     H36571   8.867   1.215   8.398 -1.3859  1.5348 -1.1086
 1012MOL0     H36572   8.708   1.249   8.156  2.3535  0.4150  0.7450
 1012MOL0     H36573   8.717   1.109   8.052 -1.7908  1.1275  1.1299
 1012MOL0     H36574   8.666   1.038   8.336  1.0022  0.4882  0.1327
 1012MOL0     H36575   8.537   1.145   8.276 -1.4543 -1.9688  1.2600
 1012MOL0     H36576   8.499   0.904   8.263 -2.7407  1.3296  0.7467
 1012MOL0     H36577   8.599   0.895   8.113  2.9033  0.5241  1.3943
 1012MOL0     H36578   8.458   1.048   7.991 -1.0865 -0.3539 -0.6337
 1012MOL0     H36579   8.361   1.095   8.121  0.7636  0.5933 -0.7491
 1012MOL0     H36580   8.148   0.715   8.046 -2.2835 -0.1662  0.5338
 1012MOL0     H36581   7.915   0.745   7.952 -0.9114  1.1708 -1.1501
 1012MOL0     H36582   7.629   0.967   7.637  3.3581 -0.9405  2.6269
 1012MOL0     H36583   7.390   0.965   7.558 -1.9337 -1.2507  0.3318
 1012MOL0     H36584   7.079   0.711   7.730 -0.7333  1.0753 -2.1161
 1012MOL0     H36585   7.082   0.844   7.853  4.2271 -0.6472  0.7160
 1012MOL0     H36586   6.937   0.959   7.670 -2.2846  0.2893  0.4445
 1012MOL0     H36587   6.927   0.799   7.583 -0.5079 -1.6654  0.6149
 1012MOL0     H36588   6.805   0.716   7.785 -1.2296  0.1862 -1.0186
 1012MOL0     H36589   6.808   0.875   7.855  1.2726 -1.5114  1.8503
 1012MOL0     H36590   6.680   0.764   7.600  2.6617  0.1196 -2.0582
 1012MOL0     H36591   6.718   0.936   7.613 -0.1465  0.0293  2.2668
 1012MOL0     H36592   6.567   0.979   7.779 -1.3108 -0.7784  0.6183
 1012MOL0     H36593   6.586   0.818   7.844  1.8623  0.2258 -1.1994
 1012MOL0     H36594   6.447   0.873   7.580 -0.6250  3.8283  1.5120
 1012MOL0     H36595   6.448   0.718   7.666  2.3338  0.9021  1.6043
 1012MOL0     H36596   6.236   0.821   7.687  1.6407  0.1439 -1.6253
 1012MOL0     H36597   6.307   0.971   7.744 -0.1133  0.0993  1.9163
 1012MOL0     H36598   6.327   0.702   7.877 -1.1138 -0.8348  3.5652
 1012MOL0     H36599   6.394   0.843   7.946  0.1166 -1.0142 -0.0819
 1012MOL0     H36600   7.263   0.819   7.939 -1.4381 -0.5435 -0.8713
 1012MOL0     H36601   7.499   0.808   8.001  1.0024  0.4236  0.6237
 1012MOL0     H36602   8.007   1.158   7.880  2.3352  0.2219 -1.2144
 1012MOL0     H36603   8.230   1.129   7.949 -1.3318  2.3341  1.5764
 1012MOL0     H36604   9.918   1.196   8.906  0.0597 -0.9436 -0.9551
 1012MOL0     H36605  10.155   1.166   8.962  1.3102  1.2673  1.3800
 1012MOL0     H36606  10.467   1.217   9.070 -1.0059 -0.1035  1.1877
 1012MOL0     H36607  10.706   1.232   9.025  1.2352 -1.2657 -0.2688
 1012MOL0     H36608  10.894   1.315   9.055 -0.3763  0.5807  1.3348
 1012MOL0     H36609  10.928   1.143   9.034 -2.8329  1.9331 -0.8445
 1012MOL0     H36610  11.117   1.385   9.115  2.2911 -1.0732  2.0720
 1012MOL0     H36611  11.116   1.281   8.971 -0.2289 -0.1048  0.3897
 1012MOL0     H36612  11.176   1.100   9.097 -1.5941  1.4336 -0.7391
 1012MOL0     H36613  11.167   1.200   9.253  0.9090 -0.5655  0.4718
 1012MOL0     H36614  11.361   1.239   9.031 -0.5702 -0.9403 -0.8134
 1012MOL0     H36615  11.367   1.317   9.196 -1.5907 -0.4155  1.1480
 1012MOL0     H36616  11.526   0.924   9.251  1.8429 -0.3841 -4.2679
 1012MOL0     H36617  10.772   1.232   9.460 -2.3281  1.1084  1.5327
 1012MOL0     H36618  10.468   1.325   9.540  1.9187  2.5921 -0.6454
 1012MOL0     H36619  10.447   1.152   9.572 -0.7121  0.5889 -1.0295
 1012MOL0     H36620  10.594   1.209   9.613 -0.7507 -3.8778 -1.0877
 1013MOL0     O36621   4.936   7.348   1.964  0.1876  0.1457  0.4572
 1013MOL0     C36622   4.862   7.281   1.893  0.2156 -0.5346 -0.4420
 1013MOL0     O36623   4.879   7.148   1.856 -0.3680  0.1141 -0.7201
 1013MOL0     C36624   4.992   7.082   1.894  0.3174 -0.1258 -0.4523
 1013MOL0     C36625   5.042   7.086   2.026 -1.1637  0.3402 -0.0739
 1013MOL0     C36626   5.161   7.017   2.065  1.5192 -0.1591 -0.6306
 1013MOL0     C36627   5.226   6.940   1.968 -0.8039  1.0389  0.0603
 1013MOL0     O36628   5.347   6.870   2.003  0.2616  0.1297  0.4589
 1013MOL0     C36629   5.427   6.917   2.109  0.2968  0.0600  0.2134
 1013MOL0     C36630   5.573   6.893   2.064  0.5477  0.4841 -0.8188
 1013MOL0     C36631   5.661   6.918   2.189 -0.4134 -0.1221 -0.6850
 1013MOL0     C36632   5.815   6.898   2.151  0.1086  0.0452 -0.6114
 1013MOL0     C36633   5.905   6.821   2.252  0.1250  0.2703 -0.1260
 1013MOL0     C36634   5.868   6.671   2.265 -0.1456  1.0452 -0.0545
 1013MOL0     C36635   5.948   6.607   2.383 -0.0588  0.6375 -0.6223
 1013MOL0     C36636   5.919   6.458   2.404  0.1651 -0.7352  0.5025
 1013MOL0     N36637   5.781   6.437   2.464  0.1909 -0.5592 -0.1493
 1013MOL0     C36638   5.738   6.481   2.587 -0.1426 -0.0328 -0.6132
 1013MOL0     C36639   5.631   6.410   2.622  0.6361 -0.1832 -1.5362
 1013MOL0     C36640   5.555   6.419   2.764 -0.5429  0.2685 -0.3325
 1013MOL0     C36641   5.414   6.472   2.763 -0.3200 -0.1076 -0.2926
 1013MOL0     C36642   5.368   6.504   2.905 -0.4172  0.6135  0.2138
 1013MOL0     C36643   5.226   6.562   2.900 -0.5024 -0.5259 -0.1676
 1013MOL0     O36644   5.233   6.690   2.833  0.3083 -0.7011 -0.3656
 1013MOL0     C36645   5.110   6.757   2.813 -0.3314  0.1325  0.5503
 1013MOL0     C36646   4.984   6.697   2.849  0.0090 -0.3702 -0.9678
 1013MOL0     C36647   4.866   6.776   2.861 -0.3639 -0.3899 -0.6848
 1013MOL0     C36648   4.875   6.914   2.810  0.0536 -0.0735 -0.0517
 1013MOL0     C36649   4.757   7.003   2.806  0.0295 -0.0399  0.8548
 1013MOL0     O36650   4.655   6.960   2.888 -0.2801  0.9259 -0.6433
 1013MOL0     C36651   4.533   7.007   2.868 -0.2201 -0.1656  0.5405
 1013MOL0     C36652   4.471   7.064   2.978 -0.4647  0.3327  0.7374
 1013MOL0     C36653   4.348   7.127   2.955 -0.1291 -0.4761 -0.0395
 1013MOL0     C36654   4.274   7.126   2.836  0.0741  0.7817 -1.1141
 1013MOL0     O36655   4.155   7.201   2.823  0.3904  0.4795 -0.2475
 1013MOL0     C36656   4.137   7.249   2.686  0.2531  0.0550  0.4224
 1013MOL0     C36657   4.026   7.346   2.687  0.4549 -0.4849 -0.0281
 1013MOL0     C36658   3.896   7.287   2.730  0.3965 -0.0441 -0.3830
 1013MOL0     C36659   3.786   7.389   2.688  0.3612 -1.3578  0.0735
 1013MOL0     C36660   3.654   7.363   2.760 -0.0907 -0.5034  0.8822
 1013MOL0     C36661   3.547   7.469   2.721  0.0829 -0.2539 -1.2930
 1013MOL0     C36662   3.417   7.434   2.787  0.6321  0.5556 -0.6827
 1013MOL0     C36663   3.316   7.536   2.740  0.0856  0.3709  0.1101
 1013MOL0    Cl36664   3.171   7.516   2.840  0.3571  0.1062 -0.2651
 1013MOL0     C36665   4.323   7.045   2.731 -0.7043  0.0866 -0.3144
 1013MOL0     C36666   4.458   7.000   2.740 -0.3965  0.2566 -0.7042
 1013MOL0     O36667   4.747   7.090   2.721  1.2493 -0.1001 -0.2317
 1013MOL0     C36668   4.998   6.965   2.761 -0.5809  0.1852 -0.3391
 1013MOL0     C36669   5.115   6.892   2.768 -0.3644 -0.0639  0.1421
 1013MOL0     N36670   5.620   6.312   2.525  0.1066 -1.4379  0.3030
 1013MOL0     N36671   5.716   6.324   2.440  0.0013  0.4485 -0.5177
 1013MOL0     C36672   5.186   6.935   1.839 -0.5228  0.3455  0.1587
 1013MOL0     C36673   5.071   7.005   1.800 -0.1520 -0.3117 -0.3671
 1013MOL0     C36674   4.737   7.339   1.844  1.6031  0.0977  0.0064
 1013MOL0     C36675   4.693   7.450   1.912 -0.0186 -1.0311  0.1186
 1013MOL0     C36676   4.578   7.518   1.875 -0.7404 -0.8814 -0.1257
 1013MOL0     C36677   4.491   7.465   1.774  0.0664 -0.4134 -0.2712
 1013MOL0     O36678   4.374   7.535   1.762  0.2818 -0.4989 -0.0230
 1013MOL0     C36679   4.272   7.473   1.682 -0.3012 -0.3548  0.0738
 1013MOL0     C36680   4.140   7.563   1.655 -0.4491  0.4425  0.2172
 1013MOL0     C36681   4.087   7.623   1.785  0.7166  0.3302 -0.8220
 1013MOL0     C36682   3.980   7.725   1.748  0.2377 -0.2417  0.2396
 1013MOL0     C36683   3.915   7.778   1.867 -0.5162  0.5520 -0.9529
 1013MOL0     C36684   3.864   7.812   1.975 -0.7601  0.4000 -0.4938
 1013MOL0     C36685   4.546   7.360   1.692 -0.2018  0.3971 -0.2648
 1013MOL0     C36686   4.667   7.302   1.725 -0.6854 -0.4535 -0.0435
 1013MOL0     C36687   4.715   7.192   1.635 -0.7943 -0.7140 -0.2062
 1013MOL0     H36688   4.977   7.128   2.102 -1.9668 -0.5587 -0.2443
 1013MOL0     H36689   5.196   7.015   2.168 -2.3516  0.6102  0.8466
 1013MOL0     H36690   5.404   7.022   2.128 -1.8741 -0.1304 -1.0369
 1013MOL0     H36691   5.404   6.858   2.199 -1.5610  0.1140 -0.1711
 1013MOL0     H36692   5.596   6.952   1.975  0.9408  0.2839 -0.8514
 1013MOL0     H36693   5.585   6.786   2.043  1.5012 -0.0087  1.8741
 1013MOL0     H36694   5.633   6.848   2.269 -0.0135 -0.1990 -0.6133
 1013MOL0     H36695   5.648   7.017   2.234  2.6076  1.0016 -2.0230
 1013MOL0     H36696   5.815   6.838   2.060 -1.6656  0.7822 -1.1532
 1013MOL0     H36697   5.866   6.992   2.129 -0.3731 -0.0685 -2.3547
 1013MOL0     H36698   6.012   6.825   2.226  0.8021 -3.3223  1.5566
 1013MOL0     H36699   5.888   6.875   2.345  0.5468  5.7120 -2.7803
 1013MOL0     H36700   5.761   6.646   2.272  0.0820  0.4683  2.2866
 1013MOL0     H36701   5.908   6.633   2.171  2.0433  1.0017  0.8353
 1013MOL0     H36702   5.935   6.654   2.481  3.5952  2.8908 -1.0317
 1013MOL0     H36703   6.054   6.625   2.364 -0.0642  2.4622  0.7897
 1013MOL0     H36704   5.935   6.410   2.308  0.6779  0.3083  0.0504
 1013MOL0     H36705   6.003   6.420   2.463  1.7634 -1.8776 -2.3046
 1013MOL0     H36706   5.796   6.542   2.655 -0.7074  2.0287 -1.8841
 1013MOL0     H36707   5.545   6.319   2.808 -2.3663 -0.1126 -1.4608
 1013MOL0     H36708   5.619   6.479   2.828  1.8703 -1.9845 -0.4706
 1013MOL0     H36709   5.393   6.561   2.702  1.1201  0.8815  0.6163
 1013MOL0     H36710   5.350   6.392   2.722 -1.1519 -1.3392  3.0914
 1013MOL0     H36711   5.439   6.566   2.960 -0.8850  2.9309 -1.6295
 1013MOL0     H36712   5.357   6.404   2.950 -2.7559 -1.8760 -5.0004
 1013MOL0     H36713   5.194   6.563   3.004  2.1316  1.3127  0.7398
 1013MOL0     H36714   5.161   6.491   2.848 -0.5326 -2.4837  2.3580
 1013MOL0     H36715   4.979   6.591   2.874 -0.2336 -0.8113 -2.7386
 1013MOL0     H36716   4.774   6.727   2.891  0.3702 -1.2306  0.2347
 1013MOL0     H36717   4.521   7.058   3.074  2.5635  0.4964 -0.7115
 1013MOL0     H36718   4.310   7.184   3.039  4.2598  2.5184  0.2165
 1013MOL0     H36719   4.230   7.284   2.641 -0.1571 -1.0314 -1.3787
 1013MOL0     H36720   4.111   7.158   2.631  1.4581  0.3151 -0.6206
 1013MOL0     H36721   4.050   7.425   2.758  0.3582 -0.3304 -0.1688
 1013MOL0     H36722   4.015   7.389   2.587  0.1203 -0.2469  0.1109
 1013MOL0     H36723   3.874   7.189   2.687 -1.4513 -0.1934  0.7885
 1013MOL0     H36724   3.892   7.271   2.838  0.6290 -3.3901 -0.7548
 1013MOL0     H36725   3.768   7.382   2.581 -0.1283  1.4305 -0.1053
 1013MOL0     H36726   3.823   7.490   2.708  1.0103 -1.4319 -0.7362
 1013MOL0     H36727   3.667   7.383   2.867 -1.3810  3.7589  0.4310
 1013MOL0     H36728   3.612   7.264   2.742 -0.9989 -0.4967  2.6901
 1013MOL0     H36729   3.564   7.570   2.757 -3.3909  0.5357 -1.5522
 1013MOL0     H36730   3.521   7.468   2.615 -0.7862 -0.4976 -1.0831
 1013MOL0     H36731   3.417   7.443   2.896 -2.1116 -0.0488 -0.5598
 1013MOL0     H36732   3.387   7.334   2.756  1.7498  0.3706 -1.2163
 1013MOL0     H36733   3.342   7.642   2.749 -0.9648  0.9987 -3.0922
 1013MOL0     H36734   3.293   7.510   2.636  3.1869 -2.0626 -0.1300
 1013MOL0     H36735   4.273   7.027   2.637 -1.0297 -0.5572 -0.0233
 1013MOL0     H36736   4.491   6.937   2.658 -1.9792 -1.1405 -0.3220
 1013MOL0     H36737   5.001   7.069   2.730 -2.5059 -0.0854 -1.6351
 1013MOL0     H36738   5.209   6.938   2.740  0.0045 -0.4262  0.7725
 1013MOL0     H36739   5.259   6.902   1.766 -0.5664  0.2344  0.1654
 1013MOL0     H36740   5.023   7.009   1.702 -3.0226  0.9875  0.9640
 1013MOL0     H36741   4.739   7.498   1.998 -0.7929  0.7194 -0.3944
 1013MOL0     H36742   4.548   7.598   1.941 -1.0886 -0.8013 -0.3804
 1013MOL0     H36743   4.253   7.384   1.743  0.3893 -2.0642 -2.0781
 1013MOL0     H36744   4.307   7.452   1.581 -2.2860 -0.0311 -0.7390
 1013MOL0     H36745   4.062   7.508   1.601 -0.0345 -0.1970  0.2654
 1013MOL0     H36746   4.177   7.642   1.588  2.2948 -1.7977 -1.1281
 1013MOL0     H36747   4.159   7.681   1.844 -0.5163  2.5434 -1.3421
 1013MOL0     H36748   4.043   7.545   1.847  1.7456 -0.3234 -0.8960
 1013MOL0     H36749   4.013   7.810   1.688 -1.0244  0.9321  1.1428
 1013MOL0     H36750   3.902   7.674   1.691 -0.2035  0.7208 -0.0410
 1013MOL0     H36751   3.812   7.853   2.059  0.7775 -0.3047  0.8608
 1013MOL0     H36752   4.497   7.316   1.605 -1.8414  2.2642 -0.3599
 1013MOL0     H36753   4.683   7.181   1.531  4.7185  1.8140 -2.6124
 1013MOL0     H36754   4.824   7.198   1.629 -0.5594  3.5913  3.3036
 1013MOL0     H36755   4.687   7.102   1.691 -0.7248 -0.1731  0.7001
 1014MOL0     O36756   0.171   9.730   9.117  0.0031  0.4365  0.3552
 1014MOL0     C36757   0.238   9.816   9.055  0.3236 -0.5945  0.2583
 1014MOL0     O36758   0.209   9.945   9.052 -0.0564 -0.1065  0.3448
 1014MOL0     C36759   0.073   9.992   9.037  0.3881 -0.2211 -0.2181
 1014MOL0     C36760  -0.035   9.916   8.980 -1.0001  0.5413 -1.0560
 1014MOL0     C36761  -0.166   9.973   8.986 -0.5560  0.1885  0.6957
 1014MOL0     C36762  -0.184  10.098   9.053  0.6176 -0.0276 -0.3467
 1014MOL0     O36763  -0.302  10.169   9.085 -0.6353  0.8645  0.3739
 1014MOL0     C36764  -0.422  10.098   9.082  0.2294 -0.5562 -0.6566
 1014MOL0     C36765  -0.530  10.212   9.113 -0.4888  0.1238  0.0022
 1014MOL0     C36766  -0.662  10.152   9.091  0.6142  0.3492  0.7401
 1014MOL0     C36767  -0.702  10.060   9.202 -0.1610 -0.4132 -0.1711
 1014MOL0     C36768  -0.840   9.991   9.177  0.5639 -0.1741 -0.3815
 1014MOL0     C36769  -0.867   9.871   9.272  0.6897 -0.3916  0.0852
 1014MOL0     C36770  -0.913   9.921   9.410  1.0341 -0.7922 -0.8135
 1014MOL0     C36771  -0.957   9.802   9.499 -0.7225 -0.1736 -0.2182
 1014MOL0     N36772  -0.850   9.708   9.510  0.1146  0.3731 -1.0593
 1014MOL0     C36773  -0.732   9.730   9.564  0.6614  0.2119  1.1108
 1014MOL0     C36774  -0.667   9.611   9.604 -0.4628  0.4191  0.5781
 1014MOL0     C36775  -0.526   9.591   9.672  0.0802  0.2083 -0.2282
 1014MOL0     C36776  -0.458   9.722   9.723  0.0120 -0.4373  0.6063
 1014MOL0     C36777  -0.346   9.682   9.824  0.0443 -0.1466  0.4218
 1014MOL0     C36778  -0.221   9.629   9.751 -0.3648  0.2922  0.4688
 1014MOL0     O36779  -0.100   9.671   9.819 -0.3947  0.7795  0.4867
 1014MOL0     C36780   0.024   9.631   9.770  0.7111  0.7567  0.2868
 1014MOL0     C36781   0.134   9.642   9.856 -0.3793  0.0185 -0.4562
 1014MOL0     C36782   0.256   9.582   9.829  0.1037  0.1027 -0.2293
 1014MOL0     C36783   0.272   9.511   9.707 -0.5159  0.6776  0.1885
 1014MOL0     C36784   0.397   9.437   9.683  0.3542 -0.5019  0.4851
 1014MOL0     O36785   0.379   9.328   9.603  0.0181 -0.1511  0.2828
 1014MOL0     C36786   0.475   9.230   9.576 -0.3787  0.3198  0.3866
 1014MOL0     C36787   0.551   9.187   9.682 -0.2767  0.4211  0.8692
 1014MOL0     C36788   0.629   9.070   9.670  0.1930 -0.2090  0.1831
 1014MOL0     C36789   0.633   9.004   9.543 -0.2919  0.8071  0.0025
 1014MOL0     O36790   0.714   8.893   9.510  0.2998  0.2222  0.7973
 1014MOL0     C36791   0.818   8.839   9.587 -0.4727  0.6387 -0.1232
 1014MOL0     C36792   0.755   8.740   9.688  0.8227  0.2291  0.0450
 1014MOL0     C36793   0.845   8.624   9.714 -0.1454 -0.2633 -0.1266
 1014MOL0     C36794   0.775   8.490   9.751  0.9780 -0.1816 -0.0406
 1014MOL0     C36795   0.682   8.425   9.643 -0.4116  0.8635  0.7140
 1014MOL0     C36796   0.675   8.277   9.662 -0.5522 -0.6403 -0.1424
 1014MOL0     C36797   0.592   8.207   9.553  0.1972 -0.4089 -0.1377
 1014MOL0     C36798   0.598   8.054   9.571  0.0520 -0.0254 -0.5861
 1014MOL0    Cl36799   0.584   8.017   9.748  0.0567  0.3081  0.6010
 1014MOL0     C36800   0.558   9.046   9.432  0.1346  0.0713 -0.1234
 1014MOL0     C36801   0.480   9.163   9.450  0.4128  0.3014 -0.2351
 1014MOL0     O36802   0.505   9.473   9.740 -0.1480  0.1856 -0.4946
 1014MOL0     C36803   0.161   9.501   9.620  0.4664  0.0433 -0.5038
 1014MOL0     C36804   0.042   9.568   9.648  1.1666 -0.3908 -0.1698
 1014MOL0     N36805  -0.758   9.512   9.562 -0.4345 -0.3119 -0.7975
 1014MOL0     N36806  -0.867   9.573   9.516  0.4394  0.1250 -0.2166
 1014MOL0     C36807  -0.072  10.166   9.103 -1.0579  0.4517  0.1028
 1014MOL0     C36808   0.060  10.114   9.089  1.5631 -1.2530  0.0109
 1014MOL0     C36809   0.356   9.780   8.977 -0.5498 -0.2715  0.3675
 1014MOL0     C36810   0.482   9.837   9.000  0.5484  0.3771  0.1095
 1014MOL0     C36811   0.598   9.786   8.952 -0.5277 -0.3101 -0.0478
 1014MOL0     C36812   0.605   9.673   8.869  0.0746  0.4285  0.9574
 1014MOL0     O36813   0.718   9.613   8.812 -0.0538 -0.8681  0.0450
 1014MOL0     C36814   0.847   9.654   8.841  0.0760 -0.0015 -0.4420
 1014MOL0     C36815   0.955   9.561   8.784 -0.2296  0.2491  0.4065
 1014MOL0     C36816   1.092   9.617   8.840 -0.2939  0.6870  0.0137
 1014MOL0     C36817   1.210   9.527   8.790  0.6329 -0.5420  0.8663
 1014MOL0     C36818   1.208   9.387   8.838  0.5131 -0.4331 -0.3545
 1014MOL0     C36819   1.204   9.271   8.867  0.9694  0.1285  0.1568
 1014MOL0     C36820   0.483   9.615   8.840 -0.2554 -0.1847  0.4675
 1014MOL0     C36821   0.364   9.665   8.888 -0.1563  0.1153 -0.5594
 1014MOL0     C36822   0.241   9.603   8.830  0.4307  0.1793 -0.3084
 1014MOL0     H36823  -0.041   9.819   8.932 -0.8526  1.0399 -2.1142
 1014MOL0     H36824  -0.248   9.926   8.931  4.2481 -2.0593 -5.8413
 1014MOL0     H36825  -0.446  10.057   8.984 -1.5949  0.6886 -0.7849
 1014MOL0     H36826  -0.425  10.027   9.164 -0.8995  2.8763  2.5944
 1014MOL0     H36827  -0.519  10.297   9.045  0.9600  2.2910  2.7318
 1014MOL0     H36828  -0.516  10.258   9.211  3.3033  0.0216 -0.3161
 1014MOL0     H36829  -0.671  10.101   8.994  0.9292  1.5908  0.0374
 1014MOL0     H36830  -0.736  10.233   9.092  0.9032  0.6519 -0.4473
 1014MOL0     H36831  -0.633   9.976   9.216  0.8675  0.4525  0.0326
 1014MOL0     H36832  -0.706  10.130   9.286  1.9899  0.4479 -0.7322
 1014MOL0     H36833  -0.915  10.071   9.175 -0.9918 -1.4540  2.0500
 1014MOL0     H36834  -0.839   9.950   9.076 -1.3880  0.2755 -0.6254
 1014MOL0     H36835  -0.957   9.816   9.241  0.6597 -2.0125  2.6950
 1014MOL0     H36836  -0.786   9.797   9.272  1.1340  0.0509 -1.6748
 1014MOL0     H36837  -0.995   9.993   9.404  0.7472 -0.9969  0.3093
 1014MOL0     H36838  -0.825   9.973   9.448  0.5079 -0.1074 -0.5000
 1014MOL0     H36839  -0.979   9.837   9.600 -0.1370  0.8806 -0.4284
 1014MOL0     H36840  -1.051   9.755   9.471 -0.2512 -2.6231  1.9988
 1014MOL0     H36841  -0.693   9.831   9.556 -1.2027  0.8234 -2.3753
 1014MOL0     H36842  -0.535   9.527   9.761  2.2826  0.3667  0.1595
 1014MOL0     H36843  -0.459   9.540   9.603 -0.5869 -0.2614 -0.5395
 1014MOL0     H36844  -0.418   9.793   9.649  0.1657 -3.2216 -2.2015
 1014MOL0     H36845  -0.537   9.783   9.769 -0.7591 -0.7992 -0.2027
 1014MOL0     H36846  -0.384   9.624   9.908  1.3772  2.0736  2.6780
 1014MOL0     H36847  -0.318   9.776   9.872 -3.6315  0.1506  2.3692
 1014MOL0     H36848  -0.220   9.659   9.645  2.0784  0.9632  0.6223
 1014MOL0     H36849  -0.231   9.522   9.770 -0.2236  0.0558 -0.6711
 1014MOL0     H36850   0.119   9.693   9.951 -2.8667  0.2433 -0.8963
 1014MOL0     H36851   0.333   9.592   9.905  1.1230 -0.2861 -1.1794
 1014MOL0     H36852   0.525   9.222   9.781 -2.5547 -3.0736  1.7044
 1014MOL0     H36853   0.684   9.035   9.757 -2.3517 -3.5197  0.6788
 1014MOL0     H36854   0.892   8.784   9.529 -1.8786  0.8744 -2.2782
 1014MOL0     H36855   0.866   8.920   9.642 -1.5629  0.5196  1.0764
 1014MOL0     H36856   0.739   8.791   9.783  3.3018 -1.6210  1.5647
 1014MOL0     H36857   0.657   8.706   9.652  1.5102 -0.2469 -1.4675
 1014MOL0     H36858   0.913   8.598   9.633  2.6189  0.4521  1.8095
 1014MOL0     H36859   0.909   8.658   9.797  0.3598  0.6661 -0.8786
 1014MOL0     H36860   0.717   8.512   9.841  1.3627 -2.6613  0.9009
 1014MOL0     H36861   0.858   8.427   9.785  0.2839 -0.7191  0.7020
 1014MOL0     H36862   0.726   8.439   9.544 -0.8384 -0.9073  0.2383
 1014MOL0     H36863   0.585   8.477   9.637  0.4750  2.5350  0.1593
 1014MOL0     H36864   0.774   8.229   9.657  0.3164  1.1468 -3.6489
 1014MOL0     H36865   0.638   8.270   9.765  1.5644  0.6852  0.7800
 1014MOL0     H36866   0.633   8.227   9.453 -1.3553 -1.8735 -1.1210
 1014MOL0     H36867   0.491   8.242   9.574 -1.5210 -4.9295  0.3935
 1014MOL0     H36868   0.517   8.014   9.509  0.4902 -0.4043 -0.9239
 1014MOL0     H36869   0.697   8.022   9.537  1.4149 -0.4564  3.3072
 1014MOL0     H36870   0.567   9.009   9.331 -3.0247  2.3684 -1.4272
 1014MOL0     H36871   0.410   9.198   9.375 -1.5990 -1.4740  0.6937
 1014MOL0     H36872   0.165   9.451   9.524  0.3106  3.1081 -2.2309
 1014MOL0     H36873  -0.048   9.557   9.589  0.9719  0.4347 -0.0366
 1014MOL0     H36874  -0.098  10.257   9.155 -1.4872 -0.3308  1.2883
 1014MOL0     H36875   0.143  10.175   9.124  0.4242 -0.5438  1.5962
 1014MOL0     H36876   0.477   9.930   9.056  0.4109  2.4932 -3.1625
 1014MOL0     H36877   0.692   9.838   8.968  0.4489 -1.5231 -1.6275
 1014MOL0     H36878   0.851   9.665   8.949  0.0016  1.7968 -0.5942
 1014MOL0     H36879   0.865   9.752   8.795  0.6369 -0.8096 -2.0013
 1014MOL0     H36880   0.970   9.555   8.675  0.9673 -1.6088  0.6414
 1014MOL0     H36881   0.953   9.459   8.822 -0.1090  0.4702  1.0022
 1014MOL0     H36882   1.088   9.618   8.949  3.6423 -3.1368  0.4779
 1014MOL0     H36883   1.108   9.714   8.792 -0.2065  0.5159 -0.3074
 1014MOL0     H36884   1.206   9.517   8.681 -1.7362  1.7806  0.6594
 1014MOL0     H36885   1.310   9.562   8.819  0.4015  0.9880 -0.0949
 1014MOL0     H36886   1.198   9.166   8.887  0.0409  0.5184  2.1492
 1014MOL0     H36887   0.487   9.539   8.762 -0.2995 -1.3740  1.5875
 1014MOL0     H36888   0.246   9.601   8.721 -1.3192  0.6372 -0.4389
 1014MOL0     H36889   0.222   9.497   8.851 -1.2929  0.2470 -1.2650
 1014MOL0     H36890   0.149   9.658   8.855  0.2055 -1.0381  1.7564
 1015MOL0     O36891   2.706   2.698  10.615  0.1691  0.4010  0.4061
 1015MOL0     C36892   2.593   2.646  10.629 -0.2378  0.0798  0.5519
 1015MOL0     O36893   2.564   2.516  10.604 -0.3809 -0.4327  0.0761
 1015MOL0     C36894   2.649   2.423  10.550  0.3159 -0.0008 -0.1014
 1015MOL0     C36895   2.789   2.425  10.519  0.2799 -0.1054 -0.3383
 1015MOL0     C36896   2.849   2.321  10.441 -0.6805  0.1943  0.4607
 1015MOL0     C36897   2.776   2.213  10.398  0.1567  0.3265 -0.3269
 1015MOL0     O36898   2.817   2.105  10.326  0.3444 -0.0881 -0.2558
 1015MOL0     C36899   2.945   2.115  10.271  0.6878  0.3218 -0.5378
 1015MOL0     C36900   3.063   2.052  10.357  0.0164 -0.2239 -0.5144
 1015MOL0     C36901   3.194   2.046  10.279  0.0567  0.0102 -0.6326
 1015MOL0     C36902   3.247   2.187  10.242 -0.2206 -0.0518  0.6937
 1015MOL0     C36903   3.371   2.185  10.153  0.0606 -0.6484 -0.2881
 1015MOL0     C36904   3.472   2.080  10.199  0.0834 -0.6572  0.1972
 1015MOL0     C36905   3.587   2.073  10.101 -0.6824  0.1374  0.3374
 1015MOL0     C36906   3.689   1.973  10.167  0.4920  1.1568 -0.3042
 1015MOL0     N36907   3.804   1.926  10.088  0.8394  0.8413 -0.2117
 1015MOL0     C36908   3.880   1.996   9.995 -0.7925  0.1003 -0.5442
 1015MOL0     C36909   3.986   1.918   9.970 -0.1661 -0.3828 -0.4504
 1015MOL0     C36910   4.085   1.962   9.873  0.5831 -1.0442  0.2138
 1015MOL0     C36911   4.206   1.874   9.883  0.2547  0.7704 -0.5261
 1015MOL0     C36912   4.307   1.927   9.787  1.0769  0.5337 -0.0269
 1015MOL0     C36913   4.440   1.836   9.799 -0.1964  0.0391  0.2781
 1015MOL0     O36914   4.545   1.874   9.704  0.2259 -0.1709 -0.0065
 1015MOL0     C36915   4.661   1.806   9.698  1.2236  0.6624  0.3898
 1015MOL0     C36916   4.771   1.875   9.654 -0.0400  1.1919 -0.1896
 1015MOL0     C36917   4.903   1.821   9.667  0.2948  0.0113  1.0637
 1015MOL0     C36918   4.923   1.700   9.739  0.4728 -0.1216  0.4927
 1015MOL0     C36919   5.057   1.645   9.766  0.6382  0.3587  0.1141
 1015MOL0     O36920   5.073   1.504   9.754  0.1158  0.5749 -0.3268
 1015MOL0     C36921   5.201   1.452   9.779 -0.4395  0.0855  0.4102
 1015MOL0     C36922   5.239   1.408   9.909  0.0583 -0.4131 -0.0372
 1015MOL0     C36923   5.368   1.355   9.919  0.5585  0.1067 -0.0056
 1015MOL0     C36924   5.462   1.351   9.807  0.0392  0.5095  0.8935
 1015MOL0     O36925   5.597   1.314   9.799  0.6161  0.5260  0.1141
 1015MOL0     C36926   5.656   1.282   9.926  0.5283  0.4491 -0.1737
 1015MOL0     C36927   5.800   1.238   9.933  0.0803  0.4162 -0.8122
 1015MOL0     C36928   5.820   1.101   9.858  0.4522 -1.6534  0.1262
 1015MOL0     C36929   5.958   1.056   9.875 -1.1735 -0.9442 -0.0173
 1015MOL0     C36930   5.990   0.961   9.759 -0.5498 -0.2535 -0.0324
 1015MOL0     C36931   6.108   0.869   9.796  0.4371  0.2893 -0.7624
 1015MOL0     C36932   6.124   0.754   9.690 -0.3911 -0.3667 -1.0023
 1015MOL0     C36933   6.199   0.801   9.566 -0.6349  1.0714  0.5310
 1015MOL0    Cl36934   6.235   0.660   9.452 -0.2076  0.0869  0.0516
 1015MOL0     C36935   5.410   1.389   9.694 -0.4660  0.4787  0.2546
 1015MOL0     C36936   5.287   1.435   9.673  0.0482  0.0101 -0.1831
 1015MOL0     O36937   5.140   1.722   9.802 -0.9891 -0.1584  0.5503
 1015MOL0     C36938   4.807   1.631   9.786 -0.7168 -0.0771  0.5059
 1015MOL0     C36939   4.680   1.685   9.763  0.9024  0.1148 -0.2092
 1015MOL0     N36940   3.972   1.797  10.031 -0.0789  0.2636 -0.0012
 1015MOL0     N36941   3.866   1.802  10.103 -1.1202 -0.2425 -0.0311
 1015MOL0     C36942   2.637   2.199  10.454 -0.0480  0.1719 -0.5655
 1015MOL0     C36943   2.575   2.309  10.513 -0.6120  0.7601  0.0195
 1015MOL0     C36944   2.485   2.728  10.689  0.3335  0.2342  0.2405
 1015MOL0     C36945   2.508   2.870  10.679 -0.6844  0.4401  0.0778
 1015MOL0     C36946   2.411   2.958  10.728 -0.0062 -0.4915  0.6700
 1015MOL0     C36947   2.294   2.915  10.789 -1.1489 -1.5347  0.0857
 1015MOL0     O36948   2.196   3.004  10.821 -0.0289  0.0371  0.0087
 1015MOL0     C36949   2.066   2.953  10.868  0.1601 -0.1479 -0.3332
 1015MOL0     C36950   1.943   3.042  10.845  0.2804 -0.7121  0.5870
 1015MOL0     C36951   1.889   3.028  10.702 -0.5074 -0.6678 -0.1392
 1015MOL0     C36952   1.993   3.015  10.589 -0.0038  0.1602 -0.7577
 1015MOL0     C36953   1.923   3.043  10.462  0.0071 -0.0082  0.4181
 1015MOL0     C36954   1.851   3.053  10.366 -0.1282 -0.0551 -0.0038
 1015MOL0     C36955   2.286   2.777  10.812  0.7730 -0.1358 -0.8192
 1015MOL0     C36956   2.381   2.684  10.767 -0.0905  0.3926  0.7054
 1015MOL0     C36957   2.349   2.538  10.801 -0.3271 -0.0153  1.0535
 1015MOL0     H36958   2.851   2.506  10.557  3.0469 -1.0741 -2.4604
 1015MOL0     H36959   2.955   2.315  10.419  0.0181 -0.7189  3.5821
 1015MOL0     H36960   2.943   2.057  10.178  1.4973  0.8291 -0.8833
 1015MOL0     H36961   2.973   2.217  10.244  0.0429  0.8620  0.7865
 1015MOL0     H36962   3.040   1.952  10.395  2.4052 -0.3129  0.9210
 1015MOL0     H36963   3.091   2.113  10.444 -2.2824  0.9004 -0.4681
 1015MOL0     H36964   3.182   1.982  10.191 -1.7983 -0.5360 -0.0262
 1015MOL0     H36965   3.264   1.996  10.346 -0.6704 -1.5987 -1.0118
 1015MOL0     H36966   3.168   2.224  10.176 -2.6100 -2.9085  1.7340
 1015MOL0     H36967   3.266   2.249  10.330 -0.6627  2.3715 -0.8264
 1015MOL0     H36968   3.336   2.159  10.052 -2.8695  1.5513  0.0276
 1015MOL0     H36969   3.422   2.281  10.151 -0.3416 -0.4089  0.6107
 1015MOL0     H36970   3.500   2.107  10.301  1.2221 -0.3436 -0.1823
 1015MOL0     H36971   3.440   1.976  10.209  1.5712 -1.1090  0.5130
 1015MOL0     H36972   3.630   2.173  10.092  1.0167 -0.4559  1.3460
 1015MOL0     H36973   3.555   2.032  10.005  2.5795 -1.1772 -0.3176
 1015MOL0     H36974   3.729   2.020  10.257 -0.3095 -0.3797  0.9024
 1015MOL0     H36975   3.645   1.881  10.206  0.5438  2.2289  2.4922
 1015MOL0     H36976   3.858   2.101   9.975 -3.1038 -0.5622 -1.8346
 1015MOL0     H36977   4.037   1.962   9.775 -0.3857  2.7035  0.5484
 1015MOL0     H36978   4.103   2.069   9.886 -1.4771 -0.8216  1.7589
 1015MOL0     H36979   4.250   1.884   9.983  0.1310  0.1203 -0.4029
 1015MOL0     H36980   4.181   1.768   9.869  1.1217 -0.0780  3.2327
 1015MOL0     H36981   4.338   2.032   9.793  1.0943  0.4434  3.0842
 1015MOL0     H36982   4.283   1.904   9.683 -3.6955 -1.0257  1.1547
 1015MOL0     H36983   4.413   1.733   9.776  2.6585 -1.3224  2.3780
 1015MOL0     H36984   4.481   1.834   9.901 -0.5085 -2.3655  0.4114
 1015MOL0     H36985   4.759   1.981   9.632  1.9850  1.3272 -0.8051
 1015MOL0     H36986   4.988   1.871   9.620  2.2108 -3.6881  0.2233
 1015MOL0     H36987   5.169   1.409   9.992  2.5486 -3.3316  2.3582
 1015MOL0     H36988   5.396   1.310  10.014  1.0273 -0.7326 -0.5313
 1015MOL0     H36989   5.654   1.368   9.993  2.3060 -0.5285  1.2403
 1015MOL0     H36990   5.599   1.194   9.957  0.7716 -0.4139 -2.0285
 1015MOL0     H36991   5.864   1.314   9.888 -1.3511  3.3876  1.7554
 1015MOL0     H36992   5.823   1.218  10.038  0.8104 -0.3008 -1.0941
 1015MOL0     H36993   5.742   1.027   9.878 -0.5239 -0.6062  0.3663
 1015MOL0     H36994   5.799   1.139   9.757  0.8560  2.8210  1.5197
 1015MOL0     H36995   5.978   1.020   9.977  3.2281 -0.3865 -0.4897
 1015MOL0     H36996   6.027   1.138   9.854 -1.9204 -0.8779 -2.5283
 1015MOL0     H36997   5.999   1.021   9.668 -0.8657  1.5174  1.0723
 1015MOL0     H36998   5.906   0.895   9.735 -0.4565 -0.4455  0.1642
 1015MOL0     H36999   6.196   0.933   9.808 -2.1045  4.0643 -0.2562
 1015MOL0     H37000   6.083   0.827   9.894 -2.2152  0.7211 -1.1639
 1015MOL0     H37001   6.024   0.719   9.662 -0.8367 -1.1605  1.3748
 1015MOL0     H37002   6.174   0.672   9.742  0.7426  0.8343 -0.1503
 1015MOL0     H37003   6.138   0.869   9.506  2.3101  1.8167 -1.9018
 1015MOL0     H37004   6.297   0.844   9.588  0.7230 -0.7809 -1.5075
 1015MOL0     H37005   5.482   1.382   9.613  0.0246  0.3820  0.6979
 1015MOL0     H37006   5.262   1.462   9.571  1.0391 -3.7857 -1.6050
 1015MOL0     H37007   4.809   1.542   9.847  1.8356 -2.0291 -2.1724
 1015MOL0     H37008   4.606   1.620   9.808 -0.0943 -0.6257 -2.7213
 1015MOL0     H37009   2.571   2.114  10.439 -0.0528  0.0188  0.2971
 1015MOL0     H37010   2.473   2.308  10.549  0.4534  1.9063  3.5944
 1015MOL0     H37011   2.590   2.923  10.633 -1.3144  0.1611 -1.4158
 1015MOL0     H37012   2.408   3.062  10.696 -2.7677 -1.2971 -2.2717
 1015MOL0     H37013   2.062   2.915  10.971  0.0784  1.3838  0.2472
 1015MOL0     H37014   2.042   2.868  10.803 -2.0239  0.3170 -0.2392
 1015MOL0     H37015   1.960   3.147  10.871 -0.1993  0.5610 -3.5183
 1015MOL0     H37016   1.865   3.002  10.910  1.2092 -1.8120  1.0753
 1015MOL0     H37017   1.840   3.125  10.686 -1.2879 -1.2421 -1.4526
 1015MOL0     H37018   1.825   2.940  10.700  1.1682 -1.9637 -2.2276
 1015MOL0     H37019   2.057   3.101  10.610 -1.2440  0.6305  1.4066
 1015MOL0     H37020   2.049   2.921  10.590  2.0718  1.3093 -1.7551
 1015MOL0     H37021   1.800   3.071  10.274  1.2057 -2.7428 -1.3787
 1015MOL0     H37022   2.203   2.734  10.867  0.8182 -2.3973 -2.4144
 1015MOL0     H37023   2.260   2.529  10.864 -1.7537  2.5162 -0.4295
 1015MOL0     H37024   2.331   2.482  10.708 -2.8585  1.3133  0.6666
 1015MOL0     H37025   2.428   2.485  10.856 -0.4962 -1.9011 -0.4138
 1016MOL0     O37026   1.019   5.648   3.925 -0.4810 -0.3236  0.3011
 1016MOL0     C37027   1.003   5.557   4.004  0.0276 -1.2969  0.2035
 1016MOL0     O37028   1.110   5.490   4.049  0.3437 -0.1194 -0.0806
 1016MOL0     C37029   1.243   5.528   4.024  0.5615 -0.0143 -0.0964
 1016MOL0     C37030   1.299   5.651   3.979 -0.1353  0.8520 -0.5676
 1016MOL0     C37031   1.440   5.666   3.954  0.3860  0.1955 -0.0239
 1016MOL0     C37032   1.524   5.561   3.982  0.3665 -0.7928 -0.3234
 1016MOL0     O37033   1.656   5.589   3.951 -0.3227 -0.3403 -0.2974
 1016MOL0     C37034   1.758   5.501   3.995 -0.8130  0.8398  0.2750
 1016MOL0     C37035   1.890   5.519   3.922 -0.0701  0.2703 -0.1919
 1016MOL0     C37036   1.992   5.415   3.975 -0.0776  0.0625  0.2241
 1016MOL0     C37037   2.126   5.435   3.907 -1.0133 -0.0861 -0.3981
 1016MOL0     C37038   2.248   5.352   3.967  0.4670  0.7981  0.5817
 1016MOL0     C37039   2.378   5.345   3.892  0.1557 -0.7268 -0.0882
 1016MOL0     C37040   2.390   5.230   3.789 -0.2378  0.3010 -0.0225
 1016MOL0     C37041   2.512   5.249   3.701  0.3188  0.3231  0.3594
 1016MOL0     N37042   2.630   5.201   3.767  0.0318  0.3930  0.5035
 1016MOL0     C37043   2.702   5.272   3.861 -0.3087  0.0222  0.3044
 1016MOL0     C37044   2.812   5.192   3.885 -0.1125 -0.0155 -0.8731
 1016MOL0     C37045   2.929   5.236   3.962  0.0519 -0.7826  0.0033
 1016MOL0     C37046   3.026   5.314   3.880 -0.4320 -0.8364  0.6906
 1016MOL0     C37047   3.162   5.296   3.945  0.2982  0.0848 -0.9215
 1016MOL0     C37048   3.185   5.385   4.070  0.3496  0.4502 -0.1791
 1016MOL0     O37049   3.181   5.522   4.025 -0.2505 -0.6181 -0.3492
 1016MOL0     C37050   3.240   5.617   4.118  0.1030 -0.8172 -0.3130
 1016MOL0     C37051   3.249   5.590   4.260 -0.6205 -0.3356 -0.7262
 1016MOL0     C37052   3.325   5.682   4.341 -0.0548  0.0594  0.1002
 1016MOL0     C37053   3.379   5.797   4.280 -0.1403 -0.6254  0.9801
 1016MOL0     C37054   3.438   5.902   4.354 -0.7824 -0.5977 -1.3966
 1016MOL0     O37055   3.490   6.013   4.294 -0.2477 -0.3494 -0.1069
 1016MOL0     C37056   3.541   6.121   4.370 -0.1515  0.2772 -1.6570
 1016MOL0     C37057   3.610   6.115   4.498  0.1783 -0.0601  0.1764
 1016MOL0     C37058   3.656   6.226   4.558 -0.1927  0.8636 -0.2646
 1016MOL0     C37059   3.646   6.353   4.494 -0.1756  0.8853 -0.2036
 1016MOL0     O37060   3.686   6.466   4.561  0.5305  0.0880  0.0221
 1016MOL0     C37061   3.726   6.581   4.481 -0.1976  0.5695  1.2501
 1016MOL0     C37062   3.778   6.700   4.566 -0.4601 -0.4117 -0.0259
 1016MOL0     C37063   3.814   6.822   4.488  0.8399 -0.4985  0.8259
 1016MOL0     C37064   3.853   6.930   4.594 -0.4275  0.7553  0.3092
 1016MOL0     C37065   3.912   7.058   4.540  0.3184 -0.4847  0.2054
 1016MOL0     C37066   3.920   7.159   4.661  0.0803  0.0755  0.8273
 1016MOL0     C37067   3.979   7.284   4.612  0.1273 -0.7643  0.1846
 1016MOL0     C37068   4.000   7.354   4.745  0.5102  0.2795  0.3155
 1016MOL0    Cl37069   4.043   7.520   4.718 -0.1176  0.0619 -0.1010
 1016MOL0     C37070   3.581   6.363   4.367  0.0835  0.4244 -0.4848
 1016MOL0     C37071   3.532   6.247   4.307  0.3177  0.0191 -0.4360
 1016MOL0     O37072   3.437   5.883   4.473 -0.8804  0.1345 -0.5379
 1016MOL0     C37073   3.374   5.807   4.139  1.4169 -1.2256 -0.3673
 1016MOL0     C37074   3.299   5.724   4.060 -0.3006 -0.6438 -0.3571
 1016MOL0     N37075   2.797   5.080   3.815  0.3498  1.1961  0.1813
 1016MOL0     N37076   2.697   5.086   3.739 -0.0096  0.0749 -0.2700
 1016MOL0     C37077   1.469   5.437   4.026  0.5337 -0.0180 -0.2779
 1016MOL0     C37078   1.331   5.424   4.042  0.0402  0.3090 -0.2984
 1016MOL0     C37079   0.866   5.519   4.042  1.0622 -0.3038 -0.2821
 1016MOL0     C37080   0.862   5.421   4.141  0.0959  0.8832 -0.2586
 1016MOL0     C37081   0.741   5.370   4.191 -0.4084  0.1116  0.1511
 1016MOL0     C37082   0.623   5.433   4.145  0.5678  0.4982 -0.2814
 1016MOL0     O37083   0.508   5.393   4.212  0.9334 -0.3455  0.6581
 1016MOL0     C37084   0.398   5.484   4.213  0.1443  0.0755  0.2744
 1016MOL0     C37085   0.293   5.444   4.320  0.2341 -1.1561 -0.5782
 1016MOL0     C37086   0.183   5.541   4.322 -0.6762 -0.6075  0.0501
 1016MOL0     C37087   0.090   5.518   4.437  0.2428 -0.1804  0.0156
 1016MOL0     C37088   0.019   5.646   4.471  0.1948  0.7907  0.4064
 1016MOL0     C37089  -0.046   5.744   4.491  0.1206  0.4098 -0.6901
 1016MOL0     C37090   0.622   5.532   4.046 -0.6023  1.0169 -0.5077
 1016MOL0     C37091   0.750   5.572   3.987  1.0843  0.2884  0.5684
 1016MOL0     C37092   0.731   5.657   3.866  0.0852  0.7286 -0.3288
 1016MOL0     H37093   1.237   5.739   3.970 -1.2052  0.2942  0.8824
 1016MOL0     H37094   1.483   5.763   3.932 -0.0059  0.0331 -1.6352
 1016MOL0     H37095   1.763   5.516   4.104 -1.6716 -0.0229  0.4470
 1016MOL0     H37096   1.735   5.397   3.970 -3.0504  1.3603 -0.0460
 1016MOL0     H37097   1.935   5.619   3.930  0.9974 -0.0815 -1.4977
 1016MOL0     H37098   1.872   5.506   3.815 -1.9175 -0.7814  0.2101
 1016MOL0     H37099   1.958   5.315   3.949 -1.5881  0.6046  0.0152
 1016MOL0     H37100   2.010   5.420   4.083  2.8471 -0.9536 -0.1452
 1016MOL0     H37101   2.108   5.406   3.803  0.8646  0.4048 -0.9015
 1016MOL0     H37102   2.152   5.540   3.922 -2.4647  0.2894 -0.3560
 1016MOL0     H37103   2.260   5.387   4.070 -1.6758  1.0357  0.7841
 1016MOL0     H37104   2.208   5.250   3.960 -3.0481  2.0414  0.6905
 1016MOL0     H37105   2.390   5.445   3.850 -3.1631 -0.5691 -0.9691
 1016MOL0     H37106   2.464   5.326   3.956  1.3428  1.6561 -0.8586
 1016MOL0     H37107   2.298   5.228   3.728 -2.1592 -0.1025  2.7195
 1016MOL0     H37108   2.397   5.137   3.846  0.8876 -0.8071 -1.8676
 1016MOL0     H37109   2.501   5.178   3.619  1.3750 -2.6326  2.5735
 1016MOL0     H37110   2.511   5.355   3.673  2.6066 -0.4478 -3.2486
 1016MOL0     H37111   2.686   5.373   3.895  0.4237 -0.4614  2.2692
 1016MOL0     H37112   2.906   5.299   4.048 -3.1693 -0.3516 -1.0404
 1016MOL0     H37113   2.974   5.140   3.989 -1.9006 -1.0022  2.9590
 1016MOL0     H37114   3.046   5.271   3.782  2.7852  0.8988  0.4259
 1016MOL0     H37115   2.991   5.418   3.873  2.0627  0.1104  0.8793
 1016MOL0     H37116   3.237   5.339   3.879 -0.3883  2.4570 -0.2453
 1016MOL0     H37117   3.182   5.189   3.958  2.2767  0.6891  1.9058
 1016MOL0     H37118   3.285   5.355   4.103  0.4101  1.6529  0.8047
 1016MOL0     H37119   3.108   5.361   4.143 -1.3032 -1.1398 -2.2986
 1016MOL0     H37120   3.200   5.504   4.305 -1.5940 -0.1569 -1.4066
 1016MOL0     H37121   3.341   5.647   4.443  2.4146  0.2620 -0.1577
 1016MOL0     H37122   3.618   6.021   4.553 -1.6266  1.1196  2.6194
 1016MOL0     H37123   3.693   6.206   4.658 -1.6033 -2.8767 -0.3078
 1016MOL0     H37124   3.810   6.550   4.417 -1.5902  1.2074 -0.9930
 1016MOL0     H37125   3.645   6.611   4.413  0.2340 -1.0688 -0.0905
 1016MOL0     H37126   3.705   6.723   4.644  0.6187 -0.0835  0.9168
 1016MOL0     H37127   3.864   6.668   4.626  0.6579  0.8440 -0.9023
 1016MOL0     H37128   3.904   6.802   4.429  2.4238  3.4049  1.5796
 1016MOL0     H37129   3.730   6.856   4.426 -1.2560 -4.1247  1.4220
 1016MOL0     H37130   3.925   6.885   4.664 -0.0183 -1.8614 -1.6409
 1016MOL0     H37131   3.756   6.961   4.633  0.1858  1.1284  1.5972
 1016MOL0     H37132   3.853   7.097   4.457 -0.3837  0.5604  1.1676
 1016MOL0     H37133   4.010   7.043   4.493  0.2476  0.6407 -0.3578
 1016MOL0     H37134   3.816   7.165   4.695  0.1468  0.4245  0.9678
 1016MOL0     H37135   3.986   7.113   4.735  1.6258 -0.9808 -1.0906
 1016MOL0     H37136   3.908   7.336   4.548 -0.5901 -0.0584  1.5106
 1016MOL0     H37137   4.076   7.267   4.566  0.1666  1.1484 -0.5188
 1016MOL0     H37138   3.903   7.356   4.795  0.3044  2.4576 -0.0621
 1016MOL0     H37139   4.071   7.299   4.808 -0.9250 -0.2453  1.5561
 1016MOL0     H37140   3.554   6.456   4.318 -3.9746 -1.5950 -2.6346
 1016MOL0     H37141   3.494   6.260   4.207 -0.4744  1.9053  0.0732
 1016MOL0     H37142   3.430   5.889   4.096 -0.7268  1.2057  1.1997
 1016MOL0     H37143   3.291   5.736   3.953 -0.0590  0.1842 -0.2910
 1016MOL0     H37144   1.533   5.350   4.022  2.0205  1.0659 -3.3183
 1016MOL0     H37145   1.303   5.323   4.070 -1.1044  0.7221  0.0811
 1016MOL0     H37146   0.957   5.388   4.181 -0.0042  1.5925  0.5952
 1016MOL0     H37147   0.761   5.306   4.276  0.1796  1.0965  0.7808
 1016MOL0     H37148   0.352   5.478   4.113 -0.8293  1.8929  0.5618
 1016MOL0     H37149   0.443   5.582   4.229  0.1898 -0.2065  2.0331
 1016MOL0     H37150   0.347   5.441   4.415 -0.9051 -3.5478  0.0806
 1016MOL0     H37151   0.255   5.342   4.303 -2.2189 -0.8112  2.0347
 1016MOL0     H37152   0.126   5.535   4.229  2.3375 -0.9351 -1.9381
 1016MOL0     H37153   0.239   5.633   4.338  0.9182 -1.3062 -1.1787
 1016MOL0     H37154   0.021   5.436   4.418 -1.8297  1.1756  1.3053
 1016MOL0     H37155   0.141   5.483   4.527 -0.2231 -2.7650 -0.6402
 1016MOL0     H37156  -0.121   5.820   4.499 -0.9105 -0.4725 -1.5894
 1016MOL0     H37157   0.528   5.565   4.004 -1.4503 -1.2779 -0.5149
 1016MOL0     H37158   0.645   5.725   3.872  0.2609  0.9869 -0.7244
 1016MOL0     H37159   0.806   5.733   3.844  1.6713 -1.2170 -2.0033
 1016MOL0     H37160   0.705   5.585   3.788  1.4352  0.2122 -0.3249
 1017MOL0     O37161   1.353   1.010   3.139  0.7213 -0.0590 -0.4450
 1017MOL0     C37162   1.362   0.922   3.054 -0.0686 -0.5115 -0.3540
 1017MOL0     O37163   1.473   0.840   3.032  0.7465  0.1409  0.6744
 1017MOL0     C37164   1.573   0.817   3.129  0.1486  0.5630 -0.4688
 1017MOL0     C37165   1.645   0.694   3.112 -0.5961 -0.1192 -0.3471
 1017MOL0     C37166   1.754   0.659   3.203 -0.1650  0.8407  1.3366
 1017MOL0     C37167   1.780   0.742   3.317  0.6913 -0.0944 -0.9945
 1017MOL0     O37168   1.867   0.726   3.426 -0.3760 -0.0568  0.1988
 1017MOL0     C37169   1.960   0.613   3.415 -0.3194  0.3992  0.0949
 1017MOL0     C37170   2.064   0.627   3.304  0.2970  0.1130 -0.3095
 1017MOL0     C37171   2.179   0.727   3.343  0.2273  0.5757 -0.4095
 1017MOL0     C37172   2.252   0.778   3.217 -0.8343 -0.2645 -0.5027
 1017MOL0     C37173   2.291   0.677   3.109  0.0975  0.3442  0.4921
 1017MOL0     C37174   2.426   0.716   3.034  0.5817  0.3749 -0.1185
 1017MOL0     C37175   2.458   0.638   2.899 -0.9423  0.0116  0.1957
 1017MOL0     C37176   2.536   0.512   2.929 -0.9046 -0.3657  0.8265
 1017MOL0     N37177   2.568   0.438   2.803  1.2095 -0.3555 -0.0665
 1017MOL0     C37178   2.491   0.336   2.757 -0.3570  0.5863 -0.3230
 1017MOL0     C37179   2.517   0.338   2.624 -0.2287  0.3576 -0.0053
 1017MOL0     C37180   2.462   0.234   2.533  0.6274  0.0365  0.7274
 1017MOL0     C37181   2.571   0.135   2.469  1.2017 -0.0296 -0.0389
 1017MOL0     C37182   2.585   0.012   2.566  0.7297  0.1542  0.2782
 1017MOL0     C37183   2.470  -0.082   2.561 -0.1683  0.3288 -0.5603
 1017MOL0     O37184   2.464  -0.128   2.424  0.2578  0.7713  0.2539
 1017MOL0     C37185   2.348  -0.206   2.397 -0.2201  0.6681 -0.0247
 1017MOL0     C37186   2.345  -0.337   2.443  0.2250  0.2462 -0.0440
 1017MOL0     C37187   2.223  -0.411   2.416 -0.1600 -1.5756  0.6623
 1017MOL0     C37188   2.101  -0.360   2.350  0.0803 -0.4439  0.1645
 1017MOL0     C37189   1.975  -0.441   2.343  0.3639  0.1795  1.0072
 1017MOL0     O37190   1.860  -0.379   2.291 -1.0729  0.7274  0.2009
 1017MOL0     C37191   1.745  -0.449   2.290  0.3628  0.6577 -0.8974
 1017MOL0     C37192   1.637  -0.375   2.345 -0.5740  1.5964  0.0783
 1017MOL0     C37193   1.511  -0.434   2.335  0.5577 -0.1234 -0.7880
 1017MOL0     C37194   1.484  -0.558   2.265 -0.8784 -1.0798  0.7264
 1017MOL0     O37195   1.364  -0.609   2.237  0.1207 -0.2765 -0.1251
 1017MOL0     C37196   1.251  -0.577   2.316  0.1280  0.2762  0.4813
 1017MOL0     C37197   1.124  -0.644   2.265 -0.8808 -0.2210  0.1053
 1017MOL0     C37198   1.101  -0.608   2.116 -0.7915  0.5114 -0.3165
 1017MOL0     C37199   0.987  -0.682   2.060 -0.5055  0.8696 -0.6422
 1017MOL0     C37200   0.930  -0.616   1.936  0.4187 -0.2747  0.2369
 1017MOL0     C37201   0.800  -0.686   1.887  0.4940  0.1129 -0.3354
 1017MOL0     C37202   0.769  -0.623   1.749 -0.0308  0.2795 -0.5323
 1017MOL0     C37203   0.621  -0.660   1.713  0.5455  0.9461  0.1353
 1017MOL0    Cl37204   0.593  -0.689   1.535  0.4665 -0.8661  0.2513
 1017MOL0     C37205   1.588  -0.628   2.222  0.4071 -1.0519 -0.8864
 1017MOL0     C37206   1.715  -0.572   2.227 -0.0488 -0.2328  0.0521
 1017MOL0     O37207   1.983  -0.555   2.384  0.4665  0.1418  0.0198
 1017MOL0     C37208   2.127  -0.240   2.289 -0.6194  0.1079  0.6357
 1017MOL0     C37209   2.247  -0.156   2.319  0.5875 -0.7701  0.2821
 1017MOL0     N37210   2.609   0.440   2.585  0.0841  0.2587  0.3861
 1017MOL0     N37211   2.632   0.499   2.701  0.8542 -0.4525  0.5308
 1017MOL0     C37212   1.702   0.854   3.323 -0.7242 -0.3030 -0.1394
 1017MOL0     C37213   1.602   0.893   3.237 -0.2337  0.1318  0.2549
 1017MOL0     C37214   1.252   0.916   2.947 -0.2782 -0.3684 -0.4951
 1017MOL0     C37215   1.279   0.834   2.835 -0.3256  0.9316 -0.1427
 1017MOL0     C37216   1.184   0.805   2.740  0.1072  0.2189  0.7400
 1017MOL0     C37217   1.054   0.857   2.747 -0.0228  0.3895 -0.3356
 1017MOL0     O37218   0.964   0.820   2.650  0.3999 -0.1939 -0.1991
 1017MOL0     C37219   0.856   0.902   2.615  0.8805 -0.6073  0.4612
 1017MOL0     C37220   0.897   1.038   2.563  0.0113 -0.3490  0.1196
 1017MOL0     C37221   0.784   1.135   2.555  0.6086  0.3092  1.1244
 1017MOL0     C37222   0.703   1.120   2.419 -0.5391 -1.0639 -0.1239
 1017MOL0     C37223   0.585   1.205   2.425 -0.0108 -0.6187 -0.1712
 1017MOL0     C37224   0.482   1.269   2.412 -0.3065  0.1815  0.4578
 1017MOL0     C37225   1.027   0.940   2.851 -0.5930 -0.2931  0.0672
 1017MOL0     C37226   1.120   0.971   2.955  0.5717 -0.0054 -0.5223
 1017MOL0     C37227   1.072   1.069   3.067 -0.3950  0.8185 -0.1213
 1017MOL0     H37228   1.608   0.631   3.032 -2.8410  1.5526 -0.7227
 1017MOL0     H37229   1.811   0.569   3.183 -1.6507  0.5504 -2.2853
 1017MOL0     H37230   2.014   0.604   3.510  1.5806 -5.0613 -1.1165
 1017MOL0     H37231   1.897   0.524   3.407 -1.5817  1.0216  2.1613
 1017MOL0     H37232   2.017   0.661   3.211  0.1689 -1.6245 -0.9221
 1017MOL0     H37233   2.106   0.530   3.275 -0.4093  0.1115 -1.3918
 1017MOL0     H37234   2.242   0.693   3.426 -4.5277  1.0600  3.8595
 1017MOL0     H37235   2.134   0.809   3.399  0.1430 -0.5110  1.1810
 1017MOL0     H37236   2.187   0.850   3.167 -0.3373  0.8601  0.4267
 1017MOL0     H37237   2.344   0.822   3.258 -0.0097 -3.8496  2.0415
 1017MOL0     H37238   2.304   0.575   3.146  2.2108 -0.5513 -2.3908
 1017MOL0     H37239   2.210   0.674   3.035  1.2270  0.9342 -0.8180
 1017MOL0     H37240   2.418   0.821   3.005 -0.6732  0.4530  0.4620
 1017MOL0     H37241   2.504   0.709   3.110 -1.3371  3.0294  2.3166
 1017MOL0     H37242   2.517   0.700   2.831  1.9324 -1.4518  1.1873
 1017MOL0     H37243   2.365   0.607   2.851 -3.9552  1.4525  4.4078
 1017MOL0     H37244   2.633   0.535   2.974 -0.8256  1.2753 -0.1172
 1017MOL0     H37245   2.484   0.459   3.009 -1.0103 -0.6540  0.5690
 1017MOL0     H37246   2.422   0.281   2.821  0.8047  1.3143  1.6371
 1017MOL0     H37247   2.374   0.184   2.574  0.5752 -0.9524 -0.5281
 1017MOL0     H37248   2.418   0.300   2.457  1.2851  1.8499  1.8545
 1017MOL0     H37249   2.530   0.091   2.378  1.3071 -1.2426  0.4777
 1017MOL0     H37250   2.676   0.166   2.459  1.2370  0.2818  1.1121
 1017MOL0     H37251   2.593   0.052   2.667  2.2024  2.4143 -0.6444
 1017MOL0     H37252   2.675  -0.049   2.551 -0.6609 -2.4974  1.9497
 1017MOL0     H37253   2.376  -0.029   2.579  0.0300 -0.2127  2.7372
 1017MOL0     H37254   2.477  -0.171   2.625  0.3954 -0.0875 -1.1906
 1017MOL0     H37255   2.431  -0.381   2.490 -0.9346 -1.4192  0.6113
 1017MOL0     H37256   2.224  -0.516   2.446  2.1543 -1.6585  0.4656
 1017MOL0     H37257   1.666  -0.275   2.378  1.3870  0.1178  3.3638
 1017MOL0     H37258   1.422  -0.380   2.365  0.7901 -1.9667  4.1431
 1017MOL0     H37259   1.262  -0.617   2.417 -0.4389  0.1295  0.4906
 1017MOL0     H37260   1.242  -0.468   2.314  0.9040  0.3436  0.6113
 1017MOL0     H37261   1.133  -0.751   2.284  0.9640  0.1266  1.5437
 1017MOL0     H37262   1.044  -0.607   2.330 -0.0489  0.5392  0.7347
 1017MOL0     H37263   1.078  -0.501   2.116 -0.5537  0.5759  0.9935
 1017MOL0     H37264   1.194  -0.614   2.059 -0.1503 -0.6671  0.7913
 1017MOL0     H37265   0.906  -0.684   2.134 -2.2624  0.6902 -2.4657
 1017MOL0     H37266   1.011  -0.788   2.047 -1.3750  0.4362  0.9684
 1017MOL0     H37267   1.005  -0.612   1.857 -1.1622 -0.3306 -1.3157
 1017MOL0     H37268   0.910  -0.511   1.959 -3.8278 -0.6405 -0.8662
 1017MOL0     H37269   0.806  -0.794   1.873 -1.5106 -0.7083  3.6386
 1017MOL0     H37270   0.714  -0.671   1.953 -0.5394 -3.9426 -0.5442
 1017MOL0     H37271   0.837  -0.673   1.680 -1.4780  0.0822 -1.8623
 1017MOL0     H37272   0.793  -0.516   1.745  1.8460 -0.1390 -3.0404
 1017MOL0     H37273   0.586  -0.747   1.770  0.0595  1.7156  1.0591
 1017MOL0     H37274   0.559  -0.579   1.753 -2.0682 -1.6826  1.8270
 1017MOL0     H37275   1.583  -0.721   2.165  2.4643 -0.2297 -2.5559
 1017MOL0     H37276   1.801  -0.616   2.176  0.2950 -1.4965  1.6477
 1017MOL0     H37277   2.044  -0.189   2.240  1.5232  3.0475 -0.2082
 1017MOL0     H37278   2.243  -0.050   2.299 -3.4285 -0.9458 -0.6964
 1017MOL0     H37279   1.721   0.932   3.395  1.5168  1.0990 -2.1248
 1017MOL0     H37280   1.545   0.981   3.263 -1.6926  0.1556 -2.6528
 1017MOL0     H37281   1.376   0.785   2.826 -1.8151 -2.2849 -0.0414
 1017MOL0     H37282   1.199   0.739   2.656 -0.6913 -0.3547  1.0445
 1017MOL0     H37283   0.790   0.908   2.702 -0.6950  0.8671 -0.7597
 1017MOL0     H37284   0.798   0.856   2.535  2.0895 -2.6724  0.7127
 1017MOL0     H37285   0.949   1.024   2.468  0.3348  1.4333 -0.0049
 1017MOL0     H37286   0.972   1.084   2.627 -1.4498  2.7115 -0.1609
 1017MOL0     H37287   0.814   1.240   2.557 -1.4474  0.9557  3.5029
 1017MOL0     H37288   0.728   1.117   2.648  1.4966 -4.1505  1.0391
 1017MOL0     H37289   0.759   1.161   2.334 -2.1437 -0.9245 -1.1410
 1017MOL0     H37290   0.679   1.016   2.397 -3.4708 -0.1580 -1.6580
 1017MOL0     H37291   0.395   1.330   2.410  1.0668  2.2709  1.1774
 1017MOL0     H37292   0.929   0.982   2.872 -0.0402  0.7400  0.6462
 1017MOL0     H37293   1.159   1.128   3.097  2.4036 -1.7186 -2.5525
 1017MOL0     H37294   0.984   1.123   3.033 -0.4776  1.2217  0.7146
 1017MOL0     H37295   1.032   1.004   3.146  0.4804 -2.5827 -2.2516
 1018MOL0     O37296   8.834  10.735   3.981 -0.5857  0.3180  0.3434
 1018MOL0     C37297   8.866  10.843   3.938 -1.1351 -0.0888 -0.1313
 1018MOL0     O37298   8.913  10.867   3.816 -0.0807  1.1207 -0.0745
 1018MOL0     C37299   8.859  10.807   3.704  0.6316 -0.4067  0.4139
 1018MOL0     C37300   8.917  10.836   3.581 -0.2419 -0.2896 -1.3532
 1018MOL0     C37301   8.891  10.761   3.467  0.3560  0.7800 -0.0803
 1018MOL0     C37302   8.788  10.673   3.465  0.4922 -0.1796  0.1539
 1018MOL0     O37303   8.751  10.607   3.359  0.3662 -0.4706  0.4380
 1018MOL0     C37304   8.613  10.619   3.323 -0.5474 -0.3150 -0.2083
 1018MOL0     C37305   8.575  10.470   3.310  0.0521 -0.3132  0.4278
 1018MOL0     C37306   8.437  10.435   3.270 -0.1604  0.8308 -0.2706
 1018MOL0     C37307   8.333  10.494   3.367 -0.6819  0.4791 -0.0242
 1018MOL0     C37308   8.189  10.469   3.311 -0.1750  0.1216  0.6062
 1018MOL0     C37309   8.087  10.547   3.402 -0.4389 -0.2546  1.1165
 1018MOL0     C37310   7.950  10.503   3.395 -0.7502  0.2975  0.6939
 1018MOL0     C37311   7.879  10.523   3.261 -0.2974 -0.1873  0.1726
 1018MOL0     N37312   7.743  10.474   3.265 -0.6021  0.1226  0.8211
 1018MOL0     C37313   7.640  10.520   3.341  0.0148 -0.6956 -0.0372
 1018MOL0     C37314   7.538  10.435   3.318 -0.0539 -0.2388  0.1585
 1018MOL0     C37315   7.404  10.414   3.385  0.9755 -0.4450 -0.1476
 1018MOL0     C37316   7.280  10.432   3.291 -0.1492 -0.5802 -0.2141
 1018MOL0     C37317   7.157  10.386   3.360  0.0621 -0.1672  0.3214
 1018MOL0     C37318   7.119  10.238   3.350  0.7160 -0.3988 -1.2371
 1018MOL0     O37319   7.044  10.206   3.235  0.6586  0.5512 -0.4884
 1018MOL0     C37320   6.906  10.237   3.228 -0.7098  0.2785  0.4374
 1018MOL0     C37321   6.838  10.318   3.321  0.2332  0.4373  0.7594
 1018MOL0     C37322   6.700  10.337   3.302  0.4316 -0.2602  0.0539
 1018MOL0     C37323   6.624  10.249   3.219 -0.4554 -0.1158 -0.4508
 1018MOL0     C37324   6.473  10.248   3.244 -0.7790 -0.5281  0.3387
 1018MOL0     O37325   6.394  10.140   3.238  0.2792  0.5533  0.1235
 1018MOL0     C37326   6.259  10.156   3.232 -0.2512 -0.4735 -0.5786
 1018MOL0     C37327   6.195  10.192   3.353 -0.5162  0.9273 -0.3599
 1018MOL0     C37328   6.056  10.202   3.344  0.1372  0.5169 -0.0836
 1018MOL0     C37329   5.981  10.141   3.234  0.0772  0.0686 -0.8569
 1018MOL0     O37330   5.852  10.143   3.225  0.1020  0.2402 -0.1889
 1018MOL0     C37331   5.792  10.271   3.267  0.1163  0.7757  0.7526
 1018MOL0     C37332   5.655  10.282   3.201  0.2591 -0.2955 -0.0292
 1018MOL0     C37333   5.568  10.176   3.273 -0.1926 -0.0805  0.5079
 1018MOL0     C37334   5.424  10.193   3.231  0.5155 -0.2574  0.4778
 1018MOL0     C37335   5.339  10.067   3.264  0.5231  0.4309 -1.0519
 1018MOL0     C37336   5.195  10.063   3.196 -0.6377  0.4063 -0.6269
 1018MOL0     C37337   5.134   9.925   3.223  0.3426 -1.1570  0.4148
 1018MOL0     C37338   4.984   9.920   3.199 -0.3441  1.0556 -0.6171
 1018MOL0    Cl37339   4.961   9.740   3.191 -0.2961 -0.1310  0.0931
 1018MOL0     C37340   6.055  10.087   3.128  0.4198 -0.2488 -0.4184
 1018MOL0     C37341   6.190  10.106   3.125  0.2058  0.0736 -0.2308
 1018MOL0     O37342   6.436  10.363   3.254  0.1155 -0.0167 -0.3048
 1018MOL0     C37343   6.699  10.163   3.142 -0.7527 -0.3587  0.5116
 1018MOL0     C37344   6.841  10.173   3.129  0.5027  0.2024 -0.3510
 1018MOL0     N37345   7.581  10.336   3.237  0.5924 -0.2308 -0.1071
 1018MOL0     N37346   7.703  10.361   3.204  0.0659  0.4990 -1.3326
 1018MOL0     C37347   8.715  10.655   3.583 -0.2992 -0.7302 -0.1607
 1018MOL0     C37348   8.762  10.705   3.703 -0.7238  0.2888 -0.6192
 1018MOL0     C37349   8.871  10.957   4.037 -0.3832 -0.3333 -0.3910
 1018MOL0     C37350   8.928  11.080   3.984  1.3512  0.4764  0.4709
 1018MOL0     C37351   8.945  11.195   4.058 -0.0129 -0.5129 -0.1418
 1018MOL0     C37352   8.897  11.196   4.191 -0.0492 -0.1041  0.1588
 1018MOL0     O37353   8.908  11.289   4.290  0.0796 -0.0837 -0.0538
 1018MOL0     C37354   8.992  11.407   4.267  0.4167  0.1518  1.3596
 1018MOL0     C37355   8.961  11.517   4.371 -0.7243 -0.0666  0.4491
 1018MOL0     C37356   8.946  11.463   4.515  0.0836 -1.0712 -0.2151
 1018MOL0     C37357   9.065  11.495   4.602 -0.3700  0.3388 -0.2649
 1018MOL0     C37358   9.196  11.431   4.572 -0.3827 -1.1231  0.2811
 1018MOL0     C37359   9.304  11.382   4.540  1.2342 -0.9497  0.5088
 1018MOL0     C37360   8.831  11.083   4.234 -0.2900  1.4407 -0.8814
 1018MOL0     C37361   8.812  10.962   4.165 -0.1057  0.5173 -0.9356
 1018MOL0     C37362   8.739  10.852   4.230  0.2659 -0.2777 -0.2991
 1018MOL0     H37363   9.000  10.907   3.581 -1.6282  1.4806  1.2154
 1018MOL0     H37364   8.955  10.781   3.382 -3.0849 -0.4710 -3.1818
 1018MOL0     H37365   8.540  10.672   3.386  0.4824  0.4350  0.3879
 1018MOL0     H37366   8.608  10.679   3.232 -1.2356 -1.1708 -0.7496
 1018MOL0     H37367   8.604  10.425   3.405  1.9034 -0.6173 -0.2484
 1018MOL0     H37368   8.643  10.417   3.243 -1.8120 -2.0316 -0.2183
 1018MOL0     H37369   8.425  10.326   3.276  1.9371  0.5398 -0.8740
 1018MOL0     H37370   8.418  10.457   3.165 -0.8718 -1.3665 -0.6649
 1018MOL0     H37371   8.329  10.449   3.467 -1.9989  0.9797  0.1749
 1018MOL0     H37372   8.350  10.600   3.389 -0.4274  0.1975  1.2025
 1018MOL0     H37373   8.197  10.505   3.208  1.0916 -0.2624  0.5555
 1018MOL0     H37374   8.169  10.361   3.313 -1.7484  0.3485 -0.6499
 1018MOL0     H37375   8.114  10.535   3.507 -0.1876  2.6174  1.4586
 1018MOL0     H37376   8.095  10.652   3.370 -3.1033 -0.4846 -0.6607
 1018MOL0     H37377   7.896  10.573   3.459 -1.2047  1.4760 -0.9212
 1018MOL0     H37378   7.939  10.402   3.436 -0.0150 -0.0175  0.1330
 1018MOL0     H37379   7.889  10.627   3.228  0.6087 -0.5674 -0.8182
 1018MOL0     H37380   7.926  10.460   3.185 -1.8045  0.4544 -1.3511
 1018MOL0     H37381   7.654  10.595   3.419  0.9934 -1.0161  0.1105
 1018MOL0     H37382   7.387  10.327   3.449 -1.4177  2.5892  3.8244
 1018MOL0     H37383   7.385  10.491   3.460  1.2712 -2.3024  1.9069
 1018MOL0     H37384   7.270  10.539   3.273 -0.4556 -0.7742 -1.2105
 1018MOL0     H37385   7.300  10.380   3.197  0.7913 -3.3689  1.4124
 1018MOL0     H37386   7.078  10.449   3.318  1.6570  1.3009 -0.5954
 1018MOL0     H37387   7.157  10.419   3.464 -0.1652 -3.1812  1.3877
 1018MOL0     H37388   7.063  10.216   3.441  0.9446 -1.0868 -1.2567
 1018MOL0     H37389   7.208  10.175   3.358  1.3801  0.7745  3.0797
 1018MOL0     H37390   6.892  10.372   3.398  1.5636  1.3976 -0.7902
 1018MOL0     H37391   6.646  10.400   3.372  0.1742 -2.5270  2.0139
 1018MOL0     H37392   6.253  10.214   3.442 -0.6967 -1.0224  0.2790
 1018MOL0     H37393   6.001  10.226   3.434  1.0904  1.2431  0.3274
 1018MOL0     H37394   5.781  10.273   3.376 -0.5859 -0.5764  0.7279
 1018MOL0     H37395   5.845  10.359   3.230  0.1144  1.1581  1.6279
 1018MOL0     H37396   5.603  10.377   3.210 -0.2960 -0.5082 -0.8552
 1018MOL0     H37397   5.652  10.265   3.093 -1.9154 -0.6770  0.0409
 1018MOL0     H37398   5.585  10.077   3.230 -3.8761  0.2141 -2.1115
 1018MOL0     H37399   5.587  10.181   3.381  1.7902 -3.2787  0.4406
 1018MOL0     H37400   5.421  10.213   3.123 -0.7022  0.7125  0.6681
 1018MOL0     H37401   5.379  10.282   3.276  2.0137  2.0027 -2.1816
 1018MOL0     H37402   5.331  10.054   3.372  0.2654 -0.7410 -1.2013
 1018MOL0     H37403   5.404   9.987   3.227  2.5633 -0.3236  3.5791
 1018MOL0     H37404   5.139  10.140   3.250  0.1218 -0.2814  1.1999
 1018MOL0     H37405   5.198  10.099   3.092  1.6136  1.4089 -0.2848
 1018MOL0     H37406   5.145   9.906   3.330 -0.4205  1.0036  0.9315
 1018MOL0     H37407   5.182   9.859   3.150  1.4900  1.4865 -1.3735
 1018MOL0     H37408   4.932   9.966   3.284  1.1166  1.6741 -0.0157
 1018MOL0     H37409   4.946   9.961   3.106 -1.9454  0.4365 -0.2603
 1018MOL0     H37410   6.006  10.058   3.036  1.9575  0.7997 -1.6168
 1018MOL0     H37411   6.251  10.094   3.036  0.2882 -0.0049 -0.1645
 1018MOL0     H37412   6.644  10.092   3.081 -3.0989 -0.6643  2.8049
 1018MOL0     H37413   6.900  10.100   3.073  2.5662  0.8413  0.8786
 1018MOL0     H37414   8.633  10.586   3.599  1.3928 -2.1348  3.3456
 1018MOL0     H37415   8.717  10.661   3.791 -0.8005  2.1331  0.3188
 1018MOL0     H37416   8.962  11.096   3.883  1.5660  3.4509  0.8966
 1018MOL0     H37417   8.992  11.287   4.024 -1.3858  1.5880  3.1828
 1018MOL0     H37418   8.987  11.451   4.166  3.4469  4.0616  2.6355
 1018MOL0     H37419   9.097  11.381   4.278  0.2647 -2.2038 -1.5469
 1018MOL0     H37420   8.860  11.548   4.343 -1.5801 -0.1428  3.1691
 1018MOL0     H37421   9.035  11.598   4.373 -0.1658 -0.4913  4.4157
 1018MOL0     H37422   8.927  11.355   4.517 -0.4049 -1.0353 -1.8549
 1018MOL0     H37423   8.862  11.517   4.559  0.6570  2.2386 -2.8684
 1018MOL0     H37424   9.090  11.600   4.621  0.0827 -0.1227  1.9155
 1018MOL0     H37425   9.029  11.471   4.702 -1.7500 -1.1885 -1.0727
 1018MOL0     H37426   9.397  11.330   4.525  2.4708  0.3900  2.8266
 1018MOL0     H37427   8.776  11.089   4.327 -1.2193  0.5122 -1.3419
 1018MOL0     H37428   8.796  10.759   4.217  0.4680 -0.5581  2.1822
 1018MOL0     H37429   8.693  10.876   4.326 -1.4474 -2.1485 -0.5811
 1018MOL0     H37430   8.649  10.832   4.170  0.7577 -0.5605 -0.9503
 1019MOL0     O37431   7.577   8.731   4.126  0.5034 -0.2165  0.4326
 1019MOL0     C37432   7.605   8.798   4.024 -0.1691  0.0817 -1.4246
 1019MOL0     O37433   7.732   8.834   3.988  1.0992 -0.0767  0.9651
 1019MOL0     C37434   7.835   8.776   4.063  0.6304  0.4103  0.6631
 1019MOL0     C37435   7.860   8.788   4.198  0.4798 -0.2805  0.9098
 1019MOL0     C37436   7.989   8.770   4.250 -0.4199 -0.7701  0.1021
 1019MOL0     C37437   8.089   8.714   4.169  0.0457 -0.5920 -0.6937
 1019MOL0     O37438   8.213   8.717   4.224 -0.2119 -0.3241 -0.0179
 1019MOL0     C37439   8.322   8.738   4.127 -0.1225 -0.2641  0.2353
 1019MOL0     C37440   8.415   8.623   4.131  0.1837  0.2849  0.0559
 1019MOL0     C37441   8.538   8.651   4.043 -0.6052  0.3514 -0.3333
 1019MOL0     C37442   8.668   8.583   4.105 -0.2961  1.2447  0.4649
 1019MOL0     C37443   8.781   8.575   4.005  0.0588  0.4317  0.5924
 1019MOL0     C37444   8.911   8.557   4.077 -0.3729 -0.6503  0.1143
 1019MOL0     C37445   9.026   8.538   3.981 -0.4723 -0.5482 -0.7609
 1019MOL0     C37446   9.015   8.426   3.887 -0.2891  0.4032  0.0670
 1019MOL0     N37447   9.141   8.411   3.808 -0.6300  0.4091 -0.0708
 1019MOL0     C37448   9.205   8.509   3.727  0.3643  0.2065 -0.2698
 1019MOL0     C37449   9.316   8.448   3.686  0.1043  0.4326  0.0819
 1019MOL0     C37450   9.434   8.507   3.615 -0.3645 -0.3171  0.1075
 1019MOL0     C37451   9.570   8.473   3.668  0.1206  0.7420  0.7162
 1019MOL0     C37452   9.635   8.552   3.784 -0.3554  0.6160 -0.2679
 1019MOL0     C37453   9.536   8.597   3.898 -0.4027  0.0401  0.4475
 1019MOL0     O37454   9.470   8.721   3.860  0.3604  0.3110 -0.2856
 1019MOL0     C37455   9.548   8.822   3.817 -0.1434 -0.0781 -0.3982
 1019MOL0     C37456   9.635   8.875   3.911 -1.1206 -0.0047 -0.3736
 1019MOL0     C37457   9.733   8.961   3.864 -0.0327  0.8739 -0.0730
 1019MOL0     C37458   9.739   9.005   3.735 -0.5275  0.9455  0.6735
 1019MOL0     C37459   9.836   9.109   3.689  0.4404  0.5339  0.1059
 1019MOL0     O37460   9.918   9.167   3.791 -0.6484  0.0480  0.4351
 1019MOL0     C37461  10.018   9.254   3.753 -0.0273 -0.7971 -0.4000
 1019MOL0     C37462  10.155   9.234   3.763 -0.1754 -0.0781 -0.1497
 1019MOL0     C37463  10.253   9.323   3.706 -0.5653  0.4345 -0.5261
 1019MOL0     C37464  10.209   9.431   3.638  0.8056  0.8660  0.2782
 1019MOL0     O37465  10.294   9.530   3.600  0.2540  0.1544  0.1326
 1019MOL0     C37466  10.403   9.507   3.509  0.6192  0.5576 -0.7336
 1019MOL0     C37467  10.533   9.506   3.586 -0.0171  0.2496  0.5325
 1019MOL0     C37468  10.651   9.432   3.521  0.1193  0.4133  0.6972
 1019MOL0     C37469  10.607   9.290   3.482  0.4611  0.9352 -0.7045
 1019MOL0     C37470  10.718   9.183   3.460 -0.2919 -0.3523  0.5541
 1019MOL0     C37471  10.768   9.189   3.316 -1.2032 -0.6248  0.4080
 1019MOL0     C37472  10.876   9.094   3.279 -0.3519 -0.1309  0.1380
 1019MOL0     C37473  10.990   9.159   3.205 -0.6695  0.4630 -0.1143
 1019MOL0    Cl37474  11.064   9.288   3.304 -0.2509 -0.2034 -0.4610
 1019MOL0     C37475  10.072   9.457   3.626 -0.0699 -0.1399 -0.3297
 1019MOL0     C37476   9.985   9.372   3.682 -0.5009  0.7561 -1.1441
 1019MOL0     O37477   9.840   9.131   3.567  0.4566  0.2939  0.8562
 1019MOL0     C37478   9.648   8.962   3.647  0.2490  1.6324 -0.0584
 1019MOL0     C37479   9.554   8.862   3.688  0.1176  0.3325 -0.0716
 1019MOL0     N37480   9.321   8.312   3.727  0.1749 -0.1129  0.2359
 1019MOL0     N37481   9.219   8.294   3.803 -0.4136 -0.0582 -0.3636
 1019MOL0     C37482   8.062   8.679   4.038  0.4173  1.2084  0.7267
 1019MOL0     C37483   7.935   8.716   3.979  0.2087 -0.0953 -0.4631
 1019MOL0     C37484   7.495   8.867   3.954 -0.6844 -0.2669  0.3578
 1019MOL0     C37485   7.522   8.978   3.868 -0.3413  0.5340 -0.5093
 1019MOL0     C37486   7.425   9.028   3.791  0.8440 -0.0462  0.5847
 1019MOL0     C37487   7.299   8.978   3.790 -0.3061  0.6289 -0.2674
 1019MOL0     O37488   7.215   9.028   3.696 -0.9007 -0.8666 -1.3428
 1019MOL0     C37489   7.186   8.943   3.587 -0.5871  1.1641  0.4009
 1019MOL0     C37490   7.252   8.979   3.464 -0.3476 -0.3931 -0.2654
 1019MOL0     C37491   7.202   9.124   3.423  0.1916  0.2382  0.3319
 1019MOL0     C37492   7.247   9.163   3.284  0.2609 -0.2648  0.4773
 1019MOL0     C37493   7.397   9.153   3.273 -0.2005 -0.0423  0.3427
 1019MOL0     C37494   7.520   9.145   3.275  0.1065  0.3716  0.6046
 1019MOL0     C37495   7.264   8.895   3.890 -0.1370  0.0947  0.3301
 1019MOL0     C37496   7.354   8.836   3.974 -0.3471 -0.2089  0.0063
 1019MOL0     C37497   7.310   8.735   4.076 -0.1030  0.7842 -0.2438
 1019MOL0     H37498   7.779   8.827   4.259 -0.5995 -5.8496  3.6249
 1019MOL0     H37499   8.005   8.796   4.355  1.9396  2.1313 -0.8443
 1019MOL0     H37500   8.296   8.749   4.021 -0.6290 -1.5768  0.1989
 1019MOL0     H37501   8.376   8.827   4.162 -1.4281 -0.1878  2.2054
 1019MOL0     H37502   8.380   8.523   4.106  0.7631 -0.1781  1.0595
 1019MOL0     H37503   8.445   8.630   4.236 -3.4851  2.7873  1.1431
 1019MOL0     H37504   8.559   8.759   4.044 -2.3064  0.7061  1.4549
 1019MOL0     H37505   8.535   8.614   3.940 -2.3507  0.5594 -0.3846
 1019MOL0     H37506   8.703   8.624   4.200  3.5327 -1.2825  0.3709
 1019MOL0     H37507   8.653   8.479   4.137  0.5493  2.0349  3.7872
 1019MOL0     H37508   8.766   8.485   3.944  0.0719 -0.0336  1.2600
 1019MOL0     H37509   8.785   8.665   3.942  1.3602  1.6122  2.2770
 1019MOL0     H37510   8.931   8.650   4.131 -2.7459  0.8841 -1.4155
 1019MOL0     H37511   8.917   8.476   4.150  0.6040  1.3321  2.3603
 1019MOL0     H37512   9.124   8.534   4.030 -0.9146  0.0386  0.2075
 1019MOL0     H37513   9.036   8.630   3.922  0.1564  0.1011  0.3168
 1019MOL0     H37514   8.985   8.340   3.948 -3.3517  0.3322 -1.3448
 1019MOL0     H37515   8.930   8.439   3.820 -1.2722 -2.3872  0.6235
 1019MOL0     H37516   9.180   8.614   3.731 -3.4610 -0.5942  2.2111
 1019MOL0     H37517   9.432   8.463   3.515 -0.7479 -4.2850  1.6765
 1019MOL0     H37518   9.418   8.615   3.616 -1.4269 -0.4525 -0.4231
 1019MOL0     H37519   9.579   8.367   3.691 -0.8289  0.6192  0.5409
 1019MOL0     H37520   9.631   8.484   3.578  0.4251 -0.0979  0.8151
 1019MOL0     H37521   9.687   8.636   3.738  0.7859  1.1077  1.8202
 1019MOL0     H37522   9.705   8.487   3.837 -1.2575 -1.2810 -1.2605
 1019MOL0     H37523   9.593   8.621   3.989  0.9843 -3.5123  0.6962
 1019MOL0     H37524   9.472   8.509   3.909 -1.4951  0.5124 -1.7081
 1019MOL0     H37525   9.640   8.845   4.015 -0.5936 -2.9405 -1.1346
 1019MOL0     H37526   9.813   9.000   3.926  0.6551  0.1360 -0.4777
 1019MOL0     H37527  10.198   9.148   3.814  0.7301 -1.0976 -2.5253
 1019MOL0     H37528  10.360   9.305   3.714 -1.0079 -2.6724 -0.5282
 1019MOL0     H37529  10.382   9.425   3.439 -0.0235  0.8849 -0.9293
 1019MOL0     H37530  10.409   9.594   3.443  0.2363  0.2312 -1.2088
 1019MOL0     H37531  10.560   9.609   3.612  0.5172  0.2309  0.0678
 1019MOL0     H37532  10.517   9.439   3.671  2.7294  0.4076  1.2658
 1019MOL0     H37533  10.659   9.486   3.426 -1.5106  0.0489  0.3178
 1019MOL0     H37534  10.739   9.427   3.585  1.3526  0.4906 -0.9083
 1019MOL0     H37535  10.540   9.292   3.396 -1.9161 -0.4495  0.9891
 1019MOL0     H37536  10.545   9.251   3.563 -0.3424  0.0154 -1.7386
 1019MOL0     H37537  10.679   9.083   3.482  1.9116 -1.7622 -1.5130
 1019MOL0     H37538  10.805   9.191   3.525 -0.9100 -2.1543  1.6851
 1019MOL0     H37539  10.689   9.174   3.242 -1.1273 -0.7826  0.3582
 1019MOL0     H37540  10.800   9.292   3.295 -1.4804 -0.9798 -2.0294
 1019MOL0     H37541  10.830   9.022   3.210  0.7670 -0.8033  0.0730
 1019MOL0     H37542  10.913   9.039   3.366 -0.9243  0.7592  0.9624
 1019MOL0     H37543  11.068   9.086   3.182 -1.9559 -0.6530 -1.0881
 1019MOL0     H37544  10.951   9.225   3.128  1.7252  0.0383 -1.8115
 1019MOL0     H37545  10.034   9.547   3.580  0.0921  0.9881  1.6183
 1019MOL0     H37546   9.877   9.387   3.684 -0.2847  2.7557  2.0964
 1019MOL0     H37547   9.645   8.991   3.542 -1.1784  1.3247 -0.1225
 1019MOL0     H37548   9.484   8.820   3.617  0.6693  2.2849 -1.8919
 1019MOL0     H37549   8.138   8.630   3.979 -0.3188  0.7865  0.1073
 1019MOL0     H37550   7.919   8.692   3.874 -3.0098 -1.8265  0.2897
 1019MOL0     H37551   7.619   9.027   3.861  0.0233 -0.3683 -2.4119
 1019MOL0     H37552   7.443   9.100   3.712  0.8680  0.7334  1.2857
 1019MOL0     H37553   7.080   8.941   3.559  0.1186 -0.7582 -2.6136
 1019MOL0     H37554   7.228   8.844   3.605  0.7159  1.2925 -1.7090
 1019MOL0     H37555   7.220   8.907   3.388 -0.0106 -1.2604  0.3955
 1019MOL0     H37556   7.361   8.975   3.477 -0.0643  3.1688 -0.5258
 1019MOL0     H37557   7.239   9.198   3.494 -0.7062  1.1566 -0.1422
 1019MOL0     H37558   7.094   9.129   3.437  0.2601  1.8615  0.4852
 1019MOL0     H37559   7.201   9.101   3.207 -0.0383 -0.1377  0.5510
 1019MOL0     H37560   7.222   9.268   3.264  2.5630  0.5581  1.5673
 1019MOL0     H37561   7.626   9.150   3.263  0.3604 -3.9113 -0.7900
 1019MOL0     H37562   7.159   8.874   3.901 -0.0011 -0.7326  0.1629
 1019MOL0     H37563   7.203   8.719   4.096  0.4527 -2.5378  0.7543
 1019MOL0     H37564   7.339   8.640   4.029 -0.0582  1.6522 -2.0473
 1019MOL0     H37565   7.351   8.741   4.177 -2.1042 -0.3400  0.6982
 1020MOL0     O37566   3.356   2.388   0.068  0.5632 -0.0474 -0.2397
 1020MOL0     C37567   3.320   2.385  -0.047 -0.0889  0.2380  0.3768
 1020MOL0     O37568   3.217   2.322  -0.094  0.5969 -1.0730 -0.3763
 1020MOL0     C37569   3.115   2.268  -0.023  0.3729 -0.8361  0.0501
 1020MOL0     C37570   3.069   2.321   0.092  0.7550 -1.0393  0.7859
 1020MOL0     C37571   2.945   2.266   0.142  0.5964 -0.3589  1.0963
 1020MOL0     C37572   2.884   2.151   0.092 -0.1696  0.6721  0.5476
 1020MOL0     O37573   2.765   2.107   0.144 -0.4565  0.6413 -0.7411
 1020MOL0     C37574   2.675   2.197   0.209  0.0365 -0.2979 -0.8522
 1020MOL0     C37575   2.536   2.135   0.195  1.0232  0.1033  0.4808
 1020MOL0     C37576   2.485   2.097   0.050  0.4343 -0.3231 -0.0100
 1020MOL0     C37577   2.433   1.962   0.025 -0.2668  0.6702  0.1227
 1020MOL0     C37578   2.390   1.954  -0.121 -0.1903  0.2829  1.3776
 1020MOL0     C37579   2.253   2.021  -0.140  0.8678  1.3568  0.9077
 1020MOL0     C37580   2.198   1.972  -0.275 -0.1770 -0.5236  0.1816
 1020MOL0     C37581   2.137   1.831  -0.262 -0.0009 -0.4720 -0.4905
 1020MOL0     N37582   2.114   1.767  -0.395  0.6163  0.0438  0.6579
 1020MOL0     C37583   2.216   1.709  -0.465 -1.1219 -0.8353  0.6754
 1020MOL0     C37584   2.154   1.619  -0.553  0.4006  1.1357 -0.7078
 1020MOL0     C37585   2.217   1.517  -0.631  0.8159 -0.3826 -0.4882
 1020MOL0     C37586   2.232   1.592  -0.767 -0.4375 -1.0442 -0.8254
 1020MOL0     C37587   2.300   1.494  -0.865 -0.0044  0.1923  0.2386
 1020MOL0     C37588   2.445   1.448  -0.821  0.8541 -0.3129  0.2550
 1020MOL0     O37589   2.512   1.378  -0.921  0.1400 -0.7829  0.0303
 1020MOL0     C37590   2.628   1.318  -0.899 -1.1093  0.0859 -0.2474
 1020MOL0     C37591   2.678   1.225  -0.993 -0.2465  0.3170  0.8659
 1020MOL0     C37592   2.801   1.164  -0.986 -1.1085  0.1332  0.0888
 1020MOL0     C37593   2.881   1.196  -0.879 -0.5529  0.6829 -0.2750
 1020MOL0     C37594   3.022   1.155  -0.874  0.5662 -0.1878 -0.4512
 1020MOL0     O37595   3.072   1.133  -0.993  0.0571 -0.0913  0.1747
 1020MOL0     C37596   3.203   1.099  -1.013 -0.2404 -0.2638  0.3605
 1020MOL0     C37597   3.278   1.173  -1.102  0.0757  0.1916  0.6021
 1020MOL0     C37598   3.420   1.146  -1.117  0.9022 -0.6194 -0.7206
 1020MOL0     C37599   3.476   1.027  -1.052  0.2370  0.1485  0.1468
 1020MOL0     O37600   3.598   0.969  -1.081 -0.1118 -0.1291 -0.8107
 1020MOL0     C37601   3.683   1.048  -1.169  0.4666 -0.3069  0.3571
 1020MOL0     C37602   3.820   0.972  -1.187 -0.2250 -0.4662  0.9898
 1020MOL0     C37603   3.905   1.057  -1.274 -0.0887 -0.5391 -0.8400
 1020MOL0     C37604   4.009   0.977  -1.348  0.1712  0.2086 -0.1463
 1020MOL0     C37605   4.082   0.889  -1.252  0.8595  0.6681  0.3781
 1020MOL0     C37606   4.223   0.860  -1.302 -0.1039  0.6087 -0.9531
 1020MOL0     C37607   4.217   0.752  -1.410 -0.3908  0.3331 -0.2332
 1020MOL0     C37608   4.348   0.719  -1.472  0.1469  0.0836 -0.3522
 1020MOL0    Cl37609   4.466   0.673  -1.333  0.5744 -0.3219  0.0376
 1020MOL0     C37610   3.397   0.952  -0.963  0.4880 -0.1581  0.5661
 1020MOL0     C37611   3.270   0.995  -0.939  0.7578  0.6228 -0.8564
 1020MOL0     O37612   3.093   1.157  -0.773  0.2617 -0.2314 -0.4613
 1020MOL0     C37613   2.846   1.280  -0.771 -0.1584 -0.3678  0.7434
 1020MOL0     C37614   2.720   1.338  -0.786  0.3267  0.3539 -0.6907
 1020MOL0     N37615   2.016   1.627  -0.526  0.3093  0.1578 -0.1685
 1020MOL0     N37616   1.989   1.716  -0.427 -0.1957 -0.4094  0.4052
 1020MOL0     C37617   2.943   2.091  -0.023 -0.2845 -0.3225 -1.1259
 1020MOL0     C37618   3.058   2.146  -0.078 -0.1725  0.4045 -0.1467
 1020MOL0     C37619   3.413   2.465  -0.133 -0.9471  1.0131 -0.2142
 1020MOL0     C37620   3.353   2.536  -0.237 -0.4934 -0.2566 -0.0584
 1020MOL0     C37621   3.425   2.610  -0.332  0.4208  0.8066  0.1638
 1020MOL0     C37622   3.566   2.618  -0.320 -0.1706 -0.6867 -0.9323
 1020MOL0     O37623   3.650   2.710  -0.386  0.1774  0.2872 -0.2159
 1020MOL0     C37624   3.636   2.725  -0.531  1.1836 -0.8520  0.3261
 1020MOL0     C37625   3.760   2.689  -0.617 -0.5589 -0.7567  0.0567
 1020MOL0     C37626   3.882   2.777  -0.577 -0.8930  0.3737  0.5626
 1020MOL0     C37627   3.866   2.921  -0.598 -0.0581 -0.1811  0.5593
 1020MOL0     C37628   3.996   2.981  -0.583 -0.2421 -0.9253 -0.2329
 1020MOL0     C37629   4.100   3.037  -0.579  0.0194  0.4545 -0.0196
 1020MOL0     C37630   3.631   2.553  -0.215 -0.4370  0.4125 -0.5941
 1020MOL0     C37631   3.557   2.475  -0.120 -0.1564 -1.3481  0.9438
 1020MOL0     C37632   3.639   2.381  -0.027 -0.0039 -1.0699  0.5906
 1020MOL0     H37633   3.101   2.408   0.149  1.0168 -0.4299 -0.2589
 1020MOL0     H37634   2.907   2.323   0.227  1.0190  2.0142 -0.2046
 1020MOL0     H37635   2.694   2.206   0.316  3.4641  0.5249 -1.4049
 1020MOL0     H37636   2.688   2.287   0.148  0.1114  1.2523  1.3563
 1020MOL0     H37637   2.457   2.190   0.246 -0.5133 -0.1228 -1.5204
 1020MOL0     H37638   2.538   2.042   0.253  3.9309 -0.2965 -0.0973
 1020MOL0     H37639   2.559   2.119  -0.027 -0.7744 -0.4446 -1.2533
 1020MOL0     H37640   2.396   2.156   0.025 -2.4474 -3.1151  2.6722
 1020MOL0     H37641   2.506   1.881   0.036 -2.4360 -1.3649  0.3903
 1020MOL0     H37642   2.349   1.944   0.092 -0.3832 -0.7183 -0.3571
 1020MOL0     H37643   2.459   1.992  -0.196 -0.7420 -1.3365  0.0053
 1020MOL0     H37644   2.381   1.847  -0.143  0.6120  0.5589 -0.3721
 1020MOL0     H37645   2.182   1.978  -0.068 -1.1977  0.4598 -1.5148
 1020MOL0     H37646   2.258   2.129  -0.129 -1.7645  1.5346  0.9173
 1020MOL0     H37647   2.274   1.978  -0.354 -1.3648  1.4572 -0.9089
 1020MOL0     H37648   2.130   2.049  -0.311  1.4506  0.9633  0.1705
 1020MOL0     H37649   2.200   1.768  -0.200  0.0134 -0.7857 -0.8198
 1020MOL0     H37650   2.041   1.844  -0.211 -0.9593  2.0392 -2.6883
 1020MOL0     H37651   2.323   1.720  -0.451 -0.5448 -3.0851 -1.2601
 1020MOL0     H37652   2.314   1.486  -0.591  0.1634 -2.7943 -0.5792
 1020MOL0     H37653   2.149   1.431  -0.641  1.6936 -1.3505  1.4588
 1020MOL0     H37654   2.142   1.643  -0.802  0.8381  1.6671 -0.4352
 1020MOL0     H37655   2.303   1.671  -0.739 -0.7577 -2.3384  5.0419
 1020MOL0     H37656   2.302   1.527  -0.969 -3.4595 -0.2310 -0.0827
 1020MOL0     H37657   2.239   1.404  -0.869  0.5116 -0.1390 -0.3223
 1020MOL0     H37658   2.441   1.386  -0.730 -0.0340 -1.9776 -0.8743
 1020MOL0     H37659   2.504   1.538  -0.798  2.1718 -1.7360  3.0380
 1020MOL0     H37660   2.608   1.197  -1.072 -2.6204  2.4684  2.0771
 1020MOL0     H37661   2.834   1.108  -1.073 -1.6221  1.9626 -1.3690
 1020MOL0     H37662   3.226   1.258  -1.145 -1.3667 -1.1984 -0.5816
 1020MOL0     H37663   3.475   1.204  -1.189  0.4555  1.3392  0.4326
 1020MOL0     H37664   3.630   1.050  -1.265  0.8833 -3.6874 -0.0465
 1020MOL0     H37665   3.705   1.148  -1.130  1.4679 -0.7054  0.8364
 1020MOL0     H37666   3.866   0.961  -1.088  1.8730 -0.9879  0.0182
 1020MOL0     H37667   3.808   0.873  -1.231  0.3541  0.3238 -1.0543
 1020MOL0     H37668   3.847   1.113  -1.348 -2.4779 -3.5096 -1.4554
 1020MOL0     H37669   3.959   1.125  -1.207 -3.1687  2.3194 -0.9843
 1020MOL0     H37670   4.085   1.045  -1.387 -0.0539 -0.3957 -1.6956
 1020MOL0     H37671   3.975   0.909  -1.426  2.9402 -0.5620 -0.7847
 1020MOL0     H37672   4.037   0.792  -1.230 -1.1659  1.5171  0.2695
 1020MOL0     H37673   4.089   0.942  -1.157 -0.5223 -0.5013  1.1747
 1020MOL0     H37674   4.266   0.953  -1.342 -2.0463  3.0704  2.1674
 1020MOL0     H37675   4.287   0.832  -1.218 -0.3530 -0.9358 -1.2632
 1020MOL0     H37676   4.145   0.768  -1.491  0.3368 -2.1411 -1.4765
 1020MOL0     H37677   4.177   0.662  -1.363  0.0260 -1.1288 -2.5105
 1020MOL0     H37678   4.338   0.637  -1.543 -2.9321 -0.2295  0.3112
 1020MOL0     H37679   4.385   0.801  -1.534  2.2522 -0.0259  0.6825
 1020MOL0     H37680   3.433   0.859  -0.918  1.5895  0.7975  1.7394
 1020MOL0     H37681   3.206   0.949  -0.865  0.5168 -1.0046 -2.0220
 1020MOL0     H37682   2.912   1.325  -0.697 -2.5832  6.8191 -0.5919
 1020MOL0     H37683   2.685   1.414  -0.716 -1.5401 -0.7812 -0.3312
 1020MOL0     H37684   2.899   2.002  -0.068 -1.2705 -1.0174  1.0962
 1020MOL0     H37685   3.112   2.108  -0.164  3.2868  2.8636  0.7025
 1020MOL0     H37686   3.245   2.522  -0.246 -1.0406 -0.1739  4.3748
 1020MOL0     H37687   3.373   2.659  -0.413 -1.9822 -1.3087  0.2951
 1020MOL0     H37688   3.606   2.827  -0.556  2.7575 -0.3649  0.3515
 1020MOL0     H37689   3.557   2.666  -0.579  0.0434  1.1517 -0.3940
 1020MOL0     H37690   3.744   2.690  -0.725  3.1868 -4.6532 -0.8054
 1020MOL0     H37691   3.792   2.587  -0.596  1.5399 -0.3736 -1.0029
 1020MOL0     H37692   3.968   2.745  -0.637 -0.5148  1.4245  0.5252
 1020MOL0     H37693   3.909   2.767  -0.471  0.6477  2.7046  0.4643
 1020MOL0     H37694   3.826   2.929  -0.700 -1.1707 -3.8708  0.5455
 1020MOL0     H37695   3.797   2.964  -0.525 -2.2300 -1.1208 -0.8053
 1020MOL0     H37696   4.197   3.083  -0.582 -0.0696  0.8094  1.6624
 1020MOL0     H37697   3.738   2.564  -0.200 -0.8719  2.9339  1.2609
 1020MOL0     H37698   3.588   2.285  -0.030 -3.1789  0.5241 -0.5729
 1020MOL0     H37699   3.745   2.384  -0.057  0.6215  3.5359  2.4808
 1020MOL0     H37700   3.635   2.408   0.079  0.9206 -0.1838  0.4187
 1021MOL0     O37701   7.051  10.028   3.596 -0.4822 -0.3193 -0.0217
 1021MOL0     C37702   7.049   9.918   3.640  0.4082 -0.7288 -1.4266
 1021MOL0     O37703   7.157   9.867   3.714  0.9880  0.3498 -1.4617
 1021MOL0     C37704   7.283   9.899   3.707 -1.2325 -0.3113  0.3673
 1021MOL0     C37705   7.360   9.852   3.797 -0.3591 -1.2423  0.3559
 1021MOL0     C37706   7.506   9.863   3.787 -0.4209 -0.6685 -0.6260
 1021MOL0     C37707   7.560   9.930   3.675 -0.7618  0.2154 -0.9206
 1021MOL0     O37708   7.696   9.949   3.652  0.1727 -0.3264  0.0313
 1021MOL0     C37709   7.797   9.886   3.730 -0.3050  0.0615  0.0598
 1021MOL0     C37710   7.811   9.739   3.678 -0.0242  0.3038  0.4568
 1021MOL0     C37711   7.927   9.728   3.578  0.2073 -0.7719  0.6051
 1021MOL0     C37712   7.919   9.607   3.490 -0.2361  0.2273 -0.3551
 1021MOL0     C37713   8.043   9.591   3.400  0.6860 -0.0221 -0.8806
 1021MOL0     C37714   8.072   9.444   3.381 -0.4190 -0.4615  0.1483
 1021MOL0     C37715   7.974   9.366   3.296  0.2515  0.9137 -0.4989
 1021MOL0     C37716   7.959   9.409   3.152 -0.1604  0.0277 -0.2986
 1021MOL0     N37717   7.874   9.311   3.082  0.2040 -0.4974 -0.1979
 1021MOL0     C37718   7.770   9.340   2.993 -0.3158  0.4439  0.2351
 1021MOL0     C37719   7.752   9.225   2.922  0.4066  0.6708 -0.5220
 1021MOL0     C37720   7.649   9.210   2.808 -0.6363  0.6106  0.4352
 1021MOL0     C37721   7.504   9.209   2.854  0.0091  0.0641 -0.0308
 1021MOL0     C37722   7.419   9.334   2.918  0.0655 -0.1453 -0.5348
 1021MOL0     C37723   7.270   9.281   2.924  0.0358  0.7560 -0.3860
 1021MOL0     O37724   7.173   9.384   2.927 -0.8203  0.9793 -0.6541
 1021MOL0     C37725   7.042   9.341   2.921  0.7395  0.3311  0.2535
 1021MOL0     C37726   6.993   9.229   2.845 -0.1793 -0.5513  0.0198
 1021MOL0     C37727   6.857   9.205   2.825 -0.4409 -0.4696  0.0575
 1021MOL0     C37728   6.775   9.261   2.911  0.4815 -0.8007  0.6070
 1021MOL0     C37729   6.633   9.215   2.907  0.5343 -0.0001  0.0844
 1021MOL0     O37730   6.576   9.185   2.785 -0.2521  0.9571 -0.6790
 1021MOL0     C37731   6.440   9.182   2.777  0.8169 -0.3692 -0.6774
 1021MOL0     C37732   6.358   9.281   2.831  0.6799 -0.2321  0.0236
 1021MOL0     C37733   6.218   9.295   2.794 -0.7274 -0.5278  0.3027
 1021MOL0     C37734   6.160   9.217   2.693 -0.5997  0.0600 -0.1678
 1021MOL0     O37735   6.030   9.247   2.652  0.9807 -0.0019  0.6604
 1021MOL0     C37736   5.954   9.134   2.596  0.3454 -0.4058 -0.0866
 1021MOL0     C37737   5.823   9.193   2.545 -0.1541  0.1922 -0.2516
 1021MOL0     C37738   5.812   9.279   2.426 -0.1726 -0.5814  0.4334
 1021MOL0     C37739   5.847   9.209   2.292 -0.1246 -0.8675  0.6873
 1021MOL0     C37740   5.855   9.312   2.175 -0.0591  0.1149  0.0058
 1021MOL0     C37741   5.868   9.234   2.048  0.4440 -0.1129  0.5738
 1021MOL0     C37742   5.930   9.320   1.936  0.0406  0.2183 -0.0036
 1021MOL0     C37743   5.932   9.247   1.808  0.0664 -0.1536 -0.3362
 1021MOL0    Cl37744   6.024   9.343   1.684  0.1391  0.0076 -0.3805
 1021MOL0     C37745   6.249   9.125   2.641  0.4443 -0.1035  0.3663
 1021MOL0     C37746   6.384   9.101   2.677 -0.8204 -0.1467 -0.2166
 1021MOL0     O37747   6.582   9.210   3.015  0.8412 -0.5984 -0.3507
 1021MOL0     C37748   6.812   9.368   2.998 -0.1820  0.5048  0.6649
 1021MOL0     C37749   6.943   9.406   2.994  0.0102 -1.3123  0.7851
 1021MOL0     N37750   7.834   9.129   2.973 -0.0330 -0.5806 -0.0392
 1021MOL0     N37751   7.903   9.174   3.072 -0.5904  0.1764  0.2015
 1021MOL0     C37752   7.480   9.973   3.576 -0.7946 -0.1487  0.0394
 1021MOL0     C37753   7.345   9.952   3.584 -0.1170 -0.7864 -1.0461
 1021MOL0     C37754   6.911   9.850   3.656 -0.1199 -0.4024 -0.1324
 1021MOL0     C37755   6.900   9.739   3.735  1.5614 -0.3017  0.0341
 1021MOL0     C37756   6.770   9.674   3.756 -0.6662  0.1094  0.2485
 1021MOL0     C37757   6.658   9.709   3.688  0.2440  0.4633 -0.0580
 1021MOL0     O37758   6.533   9.654   3.720 -0.2997  0.0395 -0.3037
 1021MOL0     C37759   6.525   9.516   3.694 -0.1943  1.1534 -0.1020
 1021MOL0     C37760   6.422   9.457   3.788 -0.2233 -0.2887 -0.0869
 1021MOL0     C37761   6.280   9.503   3.779  0.3619  0.7568 -0.4551
 1021MOL0     C37762   6.205   9.433   3.663  0.8692  0.2929 -0.7204
 1021MOL0     C37763   6.149   9.311   3.725  0.4541  0.2211 -0.5358
 1021MOL0     C37764   6.076   9.226   3.766  0.3253  0.3004 -0.2489
 1021MOL0     C37765   6.669   9.821   3.603 -0.0355  0.0294 -0.4242
 1021MOL0     C37766   6.801   9.888   3.582  0.6618 -0.1460  0.0744
 1021MOL0     C37767   6.797  10.007   3.484 -0.4532  0.8874  0.3775
 1021MOL0     H37768   7.313   9.786   3.868 -2.6513 -3.7112 -3.1542
 1021MOL0     H37769   7.565   9.822   3.869 -0.8165  1.4363  0.7927
 1021MOL0     H37770   7.892   9.940   3.723 -1.4115  3.0013  4.0495
 1021MOL0     H37771   7.767   9.892   3.835 -0.9397  1.4854 -0.1848
 1021MOL0     H37772   7.715   9.701   3.643  0.7952 -1.9617  0.4916
 1021MOL0     H37773   7.839   9.667   3.755 -1.8155 -0.8372  0.1047
 1021MOL0     H37774   8.019   9.714   3.636 -0.1868 -4.3505  0.5774
 1021MOL0     H37775   7.940   9.819   3.518  1.2000 -2.3766 -1.7548
 1021MOL0     H37776   7.904   9.522   3.557  1.4715 -0.5565 -0.8916
 1021MOL0     H37777   7.833   9.611   3.423 -1.1981  1.6622  0.8938
 1021MOL0     H37778   8.015   9.649   3.311 -0.6746  0.9907  0.1562
 1021MOL0     H37779   8.130   9.640   3.445  0.5846 -1.0140  0.4336
 1021MOL0     H37780   8.172   9.437   3.338  1.8565  3.1427  4.1042
 1021MOL0     H37781   8.087   9.406   3.483 -1.1063 -1.7153 -0.1983
 1021MOL0     H37782   7.873   9.389   3.333  0.6526  0.0085  1.2632
 1021MOL0     H37783   7.992   9.259   3.310 -1.0439  1.0113  3.0127
 1021MOL0     H37784   7.916   9.508   3.138 -1.0823 -0.1746  0.9024
 1021MOL0     H37785   8.061   9.416   3.113  2.5591 -1.6835  5.4575
 1021MOL0     H37786   7.732   9.441   2.982  2.9966  1.7515 -0.6995
 1021MOL0     H37787   7.664   9.277   2.723 -1.7088  0.9442  0.4864
 1021MOL0     H37788   7.675   9.111   2.770  1.8670  1.8283 -1.2674
 1021MOL0     H37789   7.455   9.174   2.763 -0.9101  2.5339 -0.5828
 1021MOL0     H37790   7.495   9.135   2.933  2.2579 -0.7471 -0.4544
 1021MOL0     H37791   7.431   9.423   2.855  0.0324  0.0298 -0.2940
 1021MOL0     H37792   7.455   9.364   3.017 -0.8939  1.1454 -0.5428
 1021MOL0     H37793   7.262   9.219   3.013  2.6187 -1.8711 -1.7960
 1021MOL0     H37794   7.255   9.202   2.849 -0.8470 -0.8481  1.3825
 1021MOL0     H37795   7.057   9.165   2.785 -0.3003  0.0103 -0.7205
 1021MOL0     H37796   6.826   9.133   2.750 -1.0622  0.2351 -0.3727
 1021MOL0     H37797   6.388   9.354   2.904 -2.4198  0.7795  0.4507
 1021MOL0     H37798   6.164   9.378   2.839 -2.6354 -0.6450 -1.5765
 1021MOL0     H37799   6.005   9.079   2.517 -0.2376 -1.9111  0.5494
 1021MOL0     H37800   5.938   9.059   2.674  2.1200 -0.8537 -0.1069
 1021MOL0     H37801   5.757   9.108   2.531  0.0334 -0.0384  0.2215
 1021MOL0     H37802   5.781   9.252   2.627 -0.7820  0.1438 -0.5330
 1021MOL0     H37803   5.715   9.328   2.412  0.5224  0.7081 -0.0627
 1021MOL0     H37804   5.871   9.369   2.447 -0.7767 -0.3779  1.3286
 1021MOL0     H37805   5.770   9.132   2.284 -2.4732  1.2369  1.6845
 1021MOL0     H37806   5.935   9.145   2.295 -1.5394 -3.1044 -1.5439
 1021MOL0     H37807   5.938   9.382   2.191  0.0118 -0.3138  1.7791
 1021MOL0     H37808   5.763   9.368   2.156 -1.3299 -2.1956 -1.1302
 1021MOL0     H37809   5.942   9.158   2.076  2.1356  1.1109 -0.4447
 1021MOL0     H37810   5.772   9.195   2.014 -0.5870  1.7629  1.2020
 1021MOL0     H37811   6.026   9.366   1.960  0.5940 -1.4256  1.1371
 1021MOL0     H37812   5.857   9.401   1.925 -0.3482  0.0294  1.0639
 1021MOL0     H37813   5.976   9.147   1.819  1.1646  0.2140 -1.2555
 1021MOL0     H37814   5.831   9.243   1.766 -0.3342 -0.9625  0.6598
 1021MOL0     H37815   6.211   9.074   2.552 -2.3111 -0.1473  1.4589
 1021MOL0     H37816   6.435   9.020   2.627 -0.1926 -0.3082  0.6672
 1021MOL0     H37817   6.739   9.426   3.054 -0.8296  0.0034  0.3642
 1021MOL0     H37818   6.981   9.485   3.058  2.0478 -1.7809  0.2289
 1021MOL0     H37819   7.532  10.021   3.494  1.8368 -0.2131  1.5527
 1021MOL0     H37820   7.280   9.987   3.504 -1.1962 -0.9318 -0.2569
 1021MOL0     H37821   6.982   9.713   3.801  1.0533  2.4724  1.9209
 1021MOL0     H37822   6.755   9.602   3.836 -4.9438  0.7416  0.2635
 1021MOL0     H37823   6.615   9.457   3.709 -0.9754 -0.9817 -2.8892
 1021MOL0     H37824   6.484   9.489   3.596 -2.3535 -0.9938  1.2694
 1021MOL0     H37825   6.454   9.492   3.887  0.4395 -1.1504  0.0107
 1021MOL0     H37826   6.418   9.348   3.789  1.2163 -0.3587 -0.0601
 1021MOL0     H37827   6.280   9.611   3.762 -0.4184  1.3440  2.6283
 1021MOL0     H37828   6.233   9.482   3.875  2.7088 -0.6312  0.4678
 1021MOL0     H37829   6.116   9.484   3.626 -0.0301 -1.0123 -0.4214
 1021MOL0     H37830   6.271   9.419   3.577 -0.4003  0.0031 -1.6742
 1021MOL0     H37831   6.016   9.145   3.803 -0.2688  0.4513 -0.8607
 1021MOL0     H37832   6.578   9.858   3.556  0.1426  0.6560 -0.2849
 1021MOL0     H37833   6.873  10.000   3.405  0.4003  0.0208  1.2538
 1021MOL0     H37834   6.697  10.026   3.444 -1.2828  0.5010  2.1508
 1021MOL0     H37835   6.809  10.103   3.536 -2.2840  1.3492  0.0269
 1022MOL0     O37836   6.876   3.120   3.977 -0.2649 -0.6276  0.5990
 1022MOL0     C37837   6.825   3.233   4.001  0.4332  0.9471  0.9502
 1022MOL0     O37838   6.893   3.337   4.055  0.3231  0.2727 -0.7506
 1022MOL0     C37839   7.002   3.299   4.128  0.1679 -0.7520 -0.3376
 1022MOL0     C37840   7.124   3.321   4.065 -1.0694  0.1498  0.2466
 1022MOL0     C37841   7.241   3.293   4.141  0.4585  0.0533 -0.2007
 1022MOL0     C37842   7.239   3.242   4.271  0.0298  0.1404  0.0633
 1022MOL0     O37843   7.362   3.228   4.339 -0.3832 -0.2885  0.2898
 1022MOL0     C37844   7.367   3.165   4.460 -0.5458 -0.8080  0.1846
 1022MOL0     C37845   7.499   3.193   4.529 -0.3699  0.1825 -0.9168
 1022MOL0     C37846   7.631   3.152   4.461 -0.0211  0.5858  0.3283
 1022MOL0     C37847   7.748   3.199   4.539  0.8699 -0.4638 -0.4357
 1022MOL0     C37848   7.882   3.148   4.495  0.3257 -0.8679  0.8326
 1022MOL0     C37849   7.911   3.002   4.527 -0.0280  0.6735 -0.4073
 1022MOL0     C37850   8.031   2.968   4.446  0.3440 -0.0556  0.6482
 1022MOL0     C37851   8.084   2.823   4.477  0.4497  0.0719  0.9093
 1022MOL0     N37852   8.214   2.791   4.426  0.1585 -0.3295 -0.6219
 1022MOL0     C37853   8.326   2.852   4.462 -0.8869  0.0455 -0.2358
 1022MOL0     C37854   8.414   2.791   4.380  0.0692  0.0416  0.4533
 1022MOL0     C37855   8.559   2.829   4.385  0.2403  0.1338  0.1648
 1022MOL0     C37856   8.654   2.769   4.491 -0.0936  0.3917 -0.3666
 1022MOL0     C37857   8.665   2.606   4.484  0.0939 -1.0301 -0.3891
 1022MOL0     C37858   8.732   2.553   4.350 -0.7558 -0.1061  0.8571
 1022MOL0     O37859   8.846   2.617   4.305 -0.2698 -0.8091  0.5119
 1022MOL0     C37860   8.963   2.581   4.368  0.6106 -0.3187 -0.1788
 1022MOL0     C37861   9.076   2.658   4.346  0.4852  0.6154 -0.3708
 1022MOL0     C37862   9.197   2.631   4.411 -0.2398  0.2829  0.4765
 1022MOL0     C37863   9.224   2.512   4.489  1.4045 -0.0157  1.3564
 1022MOL0     C37864   9.348   2.476   4.554  0.3059 -0.1748 -0.5380
 1022MOL0     O37865   9.462   2.522   4.489 -0.2342  0.8187  0.1216
 1022MOL0     C37866   9.591   2.493   4.519 -0.2090  0.1254  0.3699
 1022MOL0     C37867   9.687   2.566   4.454 -0.1080  0.0352 -0.0164
 1022MOL0     C37868   9.821   2.550   4.464  0.1048  0.4809 -0.4055
 1022MOL0     C37869   9.872   2.450   4.541  0.2270 -0.1686 -0.2676
 1022MOL0     O37870  10.007   2.421   4.548 -0.4400 -0.6201  0.0697
 1022MOL0     C37871  10.097   2.486   4.455  0.4107  0.5817  0.1186
 1022MOL0     C37872  10.230   2.418   4.453 -0.0279  1.2221 -1.0398
 1022MOL0     C37873  10.308   2.399   4.589 -0.3788  0.1991 -1.1414
 1022MOL0     C37874  10.435   2.301   4.572 -0.0612 -0.6773 -0.5867
 1022MOL0     C37875  10.531   2.296   4.701 -0.6222 -0.3010  0.9362
 1022MOL0     C37876  10.602   2.420   4.745  0.5327 -0.6584  0.4455
 1022MOL0     C37877  10.735   2.386   4.824  0.0572 -0.8145 -0.1506
 1022MOL0     C37878  10.811   2.518   4.852  0.2282  0.2273 -0.2209
 1022MOL0    Cl37879  10.962   2.506   4.953 -0.3386  0.5976 -0.1721
 1022MOL0     C37880   9.782   2.365   4.606 -0.7545  0.8115  1.0812
 1022MOL0     C37881   9.644   2.384   4.594 -0.7652 -0.8572  1.0063
 1022MOL0     O37882   9.344   2.387   4.640 -0.8744 -0.8379 -0.3534
 1022MOL0     C37883   9.111   2.425   4.498  0.3851  0.3367  0.0061
 1022MOL0     C37884   8.985   2.455   4.442  0.6746 -0.7704  0.1870
 1022MOL0     N37885   8.353   2.698   4.298 -0.6742 -0.5923  1.3216
 1022MOL0     N37886   8.232   2.707   4.323 -0.6936  0.3591 -0.3100
 1022MOL0     C37887   7.116   3.207   4.327  0.5575 -0.7635  0.9868
 1022MOL0     C37888   6.998   3.231   4.256  0.2838 -0.2680 -0.4785
 1022MOL0     C37889   6.679   3.250   3.953 -0.0594  0.2423 -0.1337
 1022MOL0     C37890   6.627   3.384   3.947  0.1866 -1.9887  0.5809
 1022MOL0     C37891   6.491   3.415   3.917  0.3126 -0.0447  0.7209
 1022MOL0     C37892   6.406   3.301   3.903  0.2966 -0.6672  0.8824
 1022MOL0     O37893   6.270   3.325   3.899 -0.0914 -0.1245 -0.0203
 1022MOL0     C37894   6.227   3.444   3.975 -0.3720  0.4061  0.4938
 1022MOL0     C37895   6.074   3.436   3.990  0.7551 -0.5320 -0.7389
 1022MOL0     C37896   5.999   3.549   4.064 -0.0681  0.1149 -0.0676
 1022MOL0     C37897   5.871   3.575   3.993 -0.3619  0.4057 -0.3579
 1022MOL0     C37898   5.785   3.460   3.970  0.7130 -0.3470 -0.2179
 1022MOL0     C37899   5.730   3.357   3.939  0.4396  0.3063 -0.7909
 1022MOL0     C37900   6.451   3.162   3.902  0.2869 -0.0498  0.5043
 1022MOL0     C37901   6.587   3.133   3.941  0.2936 -0.8042  0.1900
 1022MOL0     C37902   6.621   2.988   3.973 -0.5441 -0.1315  0.2728
 1022MOL0     H37903   7.143   3.353   3.963  0.2196  0.4032  0.5524
 1022MOL0     H37904   7.335   3.298   4.087 -0.6052 -2.3307 -2.5557
 1022MOL0     H37905   7.283   3.192   4.524  1.2395  1.3810  1.7810
 1022MOL0     H37906   7.365   3.059   4.434  0.5069 -0.6548 -0.6175
 1022MOL0     H37907   7.480   3.141   4.623 -2.7630 -0.3376 -1.6241
 1022MOL0     H37908   7.514   3.299   4.554  0.2255 -0.4791  1.8384
 1022MOL0     H37909   7.627   3.202   4.364 -1.5325 -0.2296 -0.0734
 1022MOL0     H37910   7.632   3.043   4.448 -0.4516  0.4147  1.5701
 1022MOL0     H37911   7.739   3.308   4.543 -2.5142 -0.6580  1.0335
 1022MOL0     H37912   7.734   3.171   4.644 -4.5936  3.2419  0.2414
 1022MOL0     H37913   7.883   3.161   4.386  2.4083 -2.0827  0.6519
 1022MOL0     H37914   7.965   3.212   4.527  0.7882  0.4513 -2.5557
 1022MOL0     H37915   7.950   2.986   4.628  1.0372  0.3550 -0.8606
 1022MOL0     H37916   7.835   2.932   4.492  0.1485 -0.0431  0.5869
 1022MOL0     H37917   8.124   3.025   4.459  0.1339  0.7705 -1.1854
 1022MOL0     H37918   7.994   2.985   4.345 -1.4470  1.6304  1.5268
 1022MOL0     H37919   8.080   2.798   4.584 -0.1419 -1.5519  0.5430
 1022MOL0     H37920   8.013   2.755   4.427  0.2648  0.2880  0.8761
 1022MOL0     H37921   8.345   2.926   4.539  0.0691 -1.3476  0.9302
 1022MOL0     H37922   8.599   2.809   4.285  2.7308  0.6665  0.9980
 1022MOL0     H37923   8.571   2.937   4.399  0.5980  0.4932 -2.3667
 1022MOL0     H37924   8.756   2.808   4.487 -0.2232  2.7199  6.3222
 1022MOL0     H37925   8.610   2.792   4.588 -3.6994 -1.0815 -1.4705
 1022MOL0     H37926   8.563   2.572   4.503 -0.6375  1.5481  0.8057
 1022MOL0     H37927   8.727   2.577   4.570 -1.7714  0.8280  1.7070
 1022MOL0     H37928   8.668   2.563   4.262  0.8663 -0.2416 -0.3893
 1022MOL0     H37929   8.744   2.445   4.356  1.0984  0.0994  1.4533
 1022MOL0     H37930   9.071   2.740   4.276  1.5033 -0.0254 -1.2403
 1022MOL0     H37931   9.274   2.705   4.391 -0.2942 -0.1700 -1.6498
 1022MOL0     H37932   9.649   2.642   4.387  0.3266  0.9512  0.7571
 1022MOL0     H37933   9.888   2.623   4.420 -2.1675  2.0540 -1.4885
 1022MOL0     H37934  10.064   2.476   4.352  2.9927  2.7267 -1.0338
 1022MOL0     H37935  10.098   2.591   4.486 -2.4208  0.4327  0.9990
 1022MOL0     H37936  10.217   2.314   4.421  2.8587  0.3320  0.3597
 1022MOL0     H37937  10.298   2.469   4.384 -1.8796 -0.7193 -4.6137
 1022MOL0     H37938  10.342   2.498   4.623 -0.0126  0.5206 -2.3967
 1022MOL0     H37939  10.235   2.356   4.658 -0.2951  0.2134 -1.0437
 1022MOL0     H37940  10.494   2.348   4.493  1.0635 -0.7680  0.1616
 1022MOL0     H37941  10.399   2.201   4.548  0.0590 -1.2363  1.3772
 1022MOL0     H37942  10.610   2.223   4.679  0.5255  1.7549 -2.5611
 1022MOL0     H37943  10.479   2.266   4.792  0.5483  2.4042  2.6244
 1022MOL0     H37944  10.637   2.480   4.661  0.2607 -0.0158  0.7843
 1022MOL0     H37945  10.538   2.494   4.793 -0.5933  0.0502 -1.9909
 1022MOL0     H37946  10.801   2.332   4.755 -0.4420 -0.4535 -0.9159
 1022MOL0     H37947  10.707   2.332   4.915 -4.1251  1.6096  0.2670
 1022MOL0     H37948  10.836   2.571   4.760 -1.6142 -0.6707 -1.2935
 1022MOL0     H37949  10.737   2.577   4.907 -1.8488 -1.3014 -1.2276
 1022MOL0     H37950   9.820   2.269   4.640 -3.0196 -0.8721 -0.8423
 1022MOL0     H37951   9.577   2.315   4.643 -4.2371  1.5537  0.0590
 1022MOL0     H37952   9.105   2.327   4.546 -3.7685 -0.2741 -1.2927
 1022MOL0     H37953   8.908   2.384   4.471  1.6872 -2.0643 -0.1948
 1022MOL0     H37954   7.105   3.171   4.429 -1.5937  1.2931  1.5699
 1022MOL0     H37955   6.906   3.204   4.307  1.6813 -3.7682  0.4940
 1022MOL0     H37956   6.692   3.470   3.962 -0.4407 -1.4447  0.2480
 1022MOL0     H37957   6.457   3.518   3.927  0.5265 -0.1634  3.2526
 1022MOL0     H37958   6.256   3.533   3.919  2.9805 -2.1510 -2.2886
 1022MOL0     H37959   6.266   3.447   4.077  0.1364 -1.3695  0.3817
 1022MOL0     H37960   6.058   3.344   4.047  4.9987 -0.4693  0.9477
 1022MOL0     H37961   6.033   3.426   3.889  2.5248 -0.6323 -1.4972
 1022MOL0     H37962   6.052   3.645   4.063 -0.0688  0.1304  0.6404
 1022MOL0     H37963   5.977   3.521   4.167 -1.6990  0.8676 -0.1837
 1022MOL0     H37964   5.816   3.643   4.059  0.3728  0.0682  0.6241
 1022MOL0     H37965   5.885   3.630   3.899 -0.7790  1.8583  0.4023
 1022MOL0     H37966   5.682   3.263   3.918 -1.3621  0.7715  0.9483
 1022MOL0     H37967   6.378   3.082   3.900 -0.8671  0.9585  1.0717
 1022MOL0     H37968   6.532   2.925   3.986  0.9346 -1.7608  3.6787
 1022MOL0     H37969   6.695   2.939   3.910  0.4279 -0.7155  1.8216
 1022MOL0     H37970   6.671   2.996   4.070  0.8488 -0.0890 -0.4368
 1023MOL0     O37971   6.486   2.390   2.833 -0.1263 -0.0509 -0.3335
 1023MOL0     C37972   6.447   2.328   2.739  0.1893  0.2813 -0.0368
 1023MOL0     O37973   6.532   2.292   2.637  0.4950 -0.1144  0.4275
 1023MOL0     C37974   6.665   2.250   2.672  0.6098 -0.6650 -0.6057
 1023MOL0     C37975   6.762   2.268   2.578  0.2269 -0.6791  0.0319
 1023MOL0     C37976   6.891   2.219   2.585 -0.1394 -0.5809  0.1484
 1023MOL0     C37977   6.928   2.145   2.702  1.3391  0.6093  0.2184
 1023MOL0     O37978   7.048   2.096   2.730  0.0343 -0.4989  0.3717
 1023MOL0     C37979   7.163   2.178   2.687  0.7749 -0.1149 -0.4455
 1023MOL0     C37980   7.292   2.112   2.731  0.5352 -0.1452 -0.2479
 1023MOL0     C37981   7.286   2.023   2.861  0.4051  0.3638 -0.0323
 1023MOL0     C37982   7.431   1.978   2.889  0.0017  0.1014  0.4671
 1023MOL0     C37983   7.521   2.082   2.956  0.5396 -0.3940 -1.1735
 1023MOL0     C37984   7.656   2.036   3.012 -0.0040 -0.2376 -0.4262
 1023MOL0     C37985   7.731   2.159   3.057 -0.2609  0.4517 -0.8483
 1023MOL0     C37986   7.875   2.139   3.109  0.2138  0.4084 -0.0728
 1023MOL0     N37987   7.969   2.140   3.003  0.1963 -0.8705 -0.2007
 1023MOL0     C37988   8.095   2.185   3.022 -0.3065 -0.2083 -0.1921
 1023MOL0     C37989   8.165   2.151   2.909  0.1939  0.1044  0.7553
 1023MOL0     C37990   8.315   2.136   2.893 -0.2760 -0.3139  0.2178
 1023MOL0     C37991   8.384   2.267   2.871  0.7120  0.2206 -1.1947
 1023MOL0     C37992   8.535   2.258   2.913  0.0267 -0.1129 -0.2551
 1023MOL0     C37993   8.628   2.178   2.825  0.4197 -0.0900 -0.6504
 1023MOL0     O37994   8.629   2.218   2.690 -0.3355  0.4851  0.3769
 1023MOL0     C37995   8.742   2.277   2.639 -0.3321 -0.2460 -0.1433
 1023MOL0     C37996   8.830   2.366   2.707 -1.0757  0.3588  0.2830
 1023MOL0     C37997   8.950   2.409   2.652  0.4129  0.1991 -0.4164
 1023MOL0     C37998   8.993   2.368   2.525 -0.3872 -0.5982 -0.5112
 1023MOL0     C37999   9.121   2.415   2.458 -0.0473  0.0238  0.6423
 1023MOL0     O38000   9.132   2.390   2.328  0.2152  0.2232  0.4311
 1023MOL0     C38001   9.244   2.433   2.261 -0.5876  0.1382 -0.6060
 1023MOL0     C38002   9.349   2.346   2.241 -1.5739 -0.6358  0.0892
 1023MOL0     C38003   9.453   2.378   2.152  0.7736 -0.5758 -0.4333
 1023MOL0     C38004   9.450   2.507   2.093 -0.2595  0.5230  0.7882
 1023MOL0     O38005   9.553   2.537   2.006 -0.3531 -1.6795  0.0337
 1023MOL0     C38006   9.493   2.582   1.873  0.4475  0.1620 -1.1196
 1023MOL0     C38007   9.591   2.538   1.768 -0.3263  0.2446 -0.0740
 1023MOL0     C38008   9.711   2.630   1.753  1.1597 -0.4838 -0.0830
 1023MOL0     C38009   9.817   2.572   1.661  0.1289 -0.0832 -0.2246
 1023MOL0     C38010   9.855   2.424   1.677  0.4376  0.4173 -0.6112
 1023MOL0     C38011   9.981   2.388   1.607 -0.4154  0.1169 -0.5173
 1023MOL0     C38012  10.036   2.262   1.659  0.2755  0.0720 -0.5297
 1023MOL0     C38013  10.007   2.159   1.549 -0.1678 -1.0688 -0.0679
 1023MOL0    Cl38014  10.056   2.001   1.604 -0.2059  0.0848  0.2976
 1023MOL0     C38015   9.359   2.610   2.131 -0.5308 -0.7502 -0.1553
 1023MOL0     C38016   9.248   2.564   2.209  0.7428  0.2788  0.0735
 1023MOL0     O38017   9.197   2.481   2.531  0.2236  0.4339  0.0286
 1023MOL0     C38018   8.907   2.284   2.456  0.4702  0.1171 -0.2955
 1023MOL0     C38019   8.781   2.238   2.508 -0.7374  0.7167 -0.5629
 1023MOL0     N38020   8.080   2.079   2.829 -0.6958  0.8127 -0.7118
 1023MOL0     N38021   7.967   2.067   2.885  0.1695  0.2073 -0.6174
 1023MOL0     C38022   6.841   2.150   2.815  0.2299  0.0927 -0.7933
 1023MOL0     C38023   6.706   2.196   2.802 -0.3101  0.6460  0.8262
 1023MOL0     C38024   6.300   2.303   2.729  0.1210 -0.8151  0.2024
 1023MOL0     C38025   6.249   2.265   2.601  0.6681 -0.4877 -0.0982
 1023MOL0     C38026   6.107   2.268   2.570  0.1136  0.6462 -0.6091
 1023MOL0     C38027   6.019   2.311   2.664 -0.1773 -0.5586 -0.6540
 1023MOL0     O38028   5.883   2.313   2.654  0.1450 -0.3074  0.1611
 1023MOL0     C38029   5.826   2.271   2.533 -0.9537  0.0954  0.9594
 1023MOL0     C38030   5.692   2.337   2.531 -0.2114  0.8996  0.0660
 1023MOL0     C38031   5.712   2.487   2.510  0.0339 -0.6007  0.1135
 1023MOL0     C38032   5.583   2.564   2.468 -0.6006  0.8212  0.4197
 1023MOL0     C38033   5.511   2.521   2.350 -0.1021  0.0562 -0.4297
 1023MOL0     C38034   5.448   2.490   2.252  0.0116  0.1183 -0.1761
 1023MOL0     C38035   6.070   2.353   2.788 -0.6576  0.4264  0.2024
 1023MOL0     C38036   6.208   2.345   2.824  0.6483 -0.1054  0.0545
 1023MOL0     C38037   6.246   2.385   2.966 -0.7153  0.0218 -0.1245
 1023MOL0     H38038   6.730   2.310   2.483  0.7709 -3.5298 -1.5461
 1023MOL0     H38039   6.952   2.222   2.495  2.2052  0.6413  1.7029
 1023MOL0     H38040   7.164   2.208   2.582  1.3914 -2.1485 -1.0762
 1023MOL0     H38041   7.146   2.272   2.739  2.5545  0.5712 -1.0194
 1023MOL0     H38042   7.368   2.192   2.733 -0.0406  0.4050  0.0342
 1023MOL0     H38043   7.314   2.048   2.645 -1.7635 -0.2299 -0.8399
 1023MOL0     H38044   7.224   1.933   2.849  0.7430  0.3312 -1.7306
 1023MOL0     H38045   7.236   2.067   2.948  0.4473  0.9371 -0.2928
 1023MOL0     H38046   7.425   1.888   2.951 -4.5965  0.2261  0.5421
 1023MOL0     H38047   7.475   1.952   2.792  1.3070 -1.0093  1.3233
 1023MOL0     H38048   7.543   2.162   2.885 -2.3060  2.5563  0.9309
 1023MOL0     H38049   7.466   2.126   3.040  2.6556  0.0583  0.0414
 1023MOL0     H38050   7.635   1.976   3.101  1.1578 -0.7830 -0.5001
 1023MOL0     H38051   7.715   1.972   2.947  0.5625  0.1869 -0.3359
 1023MOL0     H38052   7.680   2.193   3.148  0.0368 -2.1715  0.3865
 1023MOL0     H38053   7.723   2.237   2.980 -1.9264 -0.5238 -1.7214
 1023MOL0     H38054   7.896   2.207   3.191 -3.3878  2.2545 -0.4666
 1023MOL0     H38055   7.863   2.038   3.150 -0.3298 -0.1962 -1.6079
 1023MOL0     H38056   8.130   2.243   3.107  3.0789 -0.2681 -1.3700
 1023MOL0     H38057   8.354   2.076   2.976  2.6231  1.6578  0.4298
 1023MOL0     H38058   8.340   2.081   2.801 -0.5154 -0.5489  0.2924
 1023MOL0     H38059   8.376   2.292   2.765 -3.0591 -0.6907 -1.2871
 1023MOL0     H38060   8.338   2.349   2.927  0.8953 -0.1475 -0.4898
 1023MOL0     H38061   8.540   2.213   3.013  0.3002 -0.2126 -0.3118
 1023MOL0     H38062   8.571   2.359   2.934 -3.2870  0.8435  1.6444
 1023MOL0     H38063   8.590   2.076   2.822  1.5109 -0.5359  0.3486
 1023MOL0     H38064   8.730   2.179   2.864  1.1227  1.7604 -2.3017
 1023MOL0     H38065   8.800   2.403   2.805  1.1795 -0.5198  1.4020
 1023MOL0     H38066   9.010   2.488   2.695 -0.6299  1.2650 -0.8549
 1023MOL0     H38067   9.348   2.240   2.265 -0.5592 -0.9994 -1.3511
 1023MOL0     H38068   9.536   2.312   2.132  1.2696 -0.1497  0.1744
 1023MOL0     H38069   9.395   2.537   1.855 -0.0027  0.2661  0.7737
 1023MOL0     H38070   9.482   2.690   1.871  0.8616  0.1969 -2.7544
 1023MOL0     H38071   9.619   2.433   1.782 -0.0342  0.2087 -0.8999
 1023MOL0     H38072   9.534   2.545   1.675 -2.8014  0.8990  1.4082
 1023MOL0     H38073   9.679   2.715   1.693  1.2676 -1.1119 -1.0588
 1023MOL0     H38074   9.751   2.649   1.853 -0.3936 -2.9689  1.1293
 1023MOL0     H38075   9.908   2.631   1.667 -1.3889  2.4570 -0.5573
 1023MOL0     H38076   9.769   2.588   1.564 -4.9985  2.8283  2.3206
 1023MOL0     H38077   9.770   2.362   1.650 -0.7504  1.2203  1.0897
 1023MOL0     H38078   9.875   2.404   1.783  1.5809 -0.6392 -0.9925
 1023MOL0     H38079   9.946   2.377   1.504  2.8872 -1.4677 -1.6162
 1023MOL0     H38080  10.057   2.466   1.616  1.7726 -1.9648 -0.0412
 1023MOL0     H38081  10.018   2.223   1.759  0.3620 -4.9056 -2.1759
 1023MOL0     H38082  10.144   2.274   1.661  0.2146  0.5453  0.2763
 1023MOL0     H38083   9.898   2.153   1.540 -0.1733 -1.1105  0.0164
 1023MOL0     H38084  10.048   2.182   1.451  0.2952 -0.9571  0.1511
 1023MOL0     H38085   9.367   2.713   2.098 -2.6823 -0.5826 -0.3354
 1023MOL0     H38086   9.183   2.645   2.241 -0.5132 -0.8796  0.5548
 1023MOL0     H38087   8.931   2.253   2.355  0.8353  0.9469 -0.4684
 1023MOL0     H38088   8.709   2.170   2.465 -1.5192 -1.4400  3.5878
 1023MOL0     H38089   6.884   2.108   2.905  1.0141  1.0758 -0.6861
 1023MOL0     H38090   6.642   2.191   2.889 -1.3646  2.0984  0.1648
 1023MOL0     H38091   6.310   2.236   2.515 -0.5794 -1.6710 -0.6173
 1023MOL0     H38092   6.078   2.245   2.468 -2.2906  0.5799  0.0214
 1023MOL0     H38093   5.817   2.162   2.524  0.4425 -0.2607  3.0985
 1023MOL0     H38094   5.883   2.309   2.449 -3.6156  0.9690 -0.5758
 1023MOL0     H38095   5.643   2.323   2.628  0.4824 -0.2901  0.2734
 1023MOL0     H38096   5.631   2.290   2.453  0.4350  0.6691 -0.3077
 1023MOL0     H38097   5.780   2.487   2.424 -0.9624  0.2121 -0.7033
 1023MOL0     H38098   5.759   2.538   2.595  2.6477 -1.6200 -0.6251
 1023MOL0     H38099   5.518   2.568   2.556 -1.0875  3.7837  0.0336
 1023MOL0     H38100   5.613   2.667   2.445 -1.0736  0.8123 -0.2527
 1023MOL0     H38101   5.401   2.460   2.161  0.7810 -0.0323 -0.5319
 1023MOL0     H38102   6.011   2.390   2.871  0.7271  1.1738  0.8749
 1023MOL0     H38103   6.302   2.479   2.961 -2.1992  0.8592 -2.3944
 1023MOL0     H38104   6.169   2.421   3.034  0.4624  0.2791  1.1233
 1023MOL0     H38105   6.304   2.303   3.009 -0.1520  0.2710 -0.3981
 1024MOL0     O38106   1.301   5.224   1.182 -0.2438  0.5569  0.1587
 1024MOL0     C38107   1.394   5.291   1.226 -0.7487 -0.5200  0.2946
 1024MOL0     O38108   1.376   5.418   1.279  0.5465 -0.8872 -0.3711
 1024MOL0     C38109   1.254   5.480   1.281  0.4421 -0.3366  0.7719
 1024MOL0     C38110   1.150   5.442   1.374  0.5916  0.8048  0.5477
 1024MOL0     C38111   1.034   5.512   1.373  0.1572 -0.1056 -0.2427
 1024MOL0     C38112   1.002   5.597   1.266  0.8973 -0.4785  0.8044
 1024MOL0     O38113   0.884   5.665   1.254  0.1526 -0.1759  0.0969
 1024MOL0     C38114   0.770   5.587   1.239  0.1427  0.9096 -0.0338
 1024MOL0     C38115   0.654   5.680   1.232  0.1303 -0.5620 -0.0576
 1024MOL0     C38116   0.522   5.603   1.194 -0.3871 -0.3392  0.1840
 1024MOL0     C38117   0.454   5.542   1.321  0.0429 -0.3171 -0.6881
 1024MOL0     C38118   0.353   5.426   1.288 -0.3215 -0.5949  0.0459
 1024MOL0     C38119   0.258   5.472   1.181  0.9639 -0.2717 -0.1732
 1024MOL0     C38120   0.142   5.374   1.171 -1.1702  0.8174  0.3396
 1024MOL0     C38121   0.173   5.256   1.082  0.6492  1.2207 -0.0867
 1024MOL0     N38122   0.057   5.164   1.094  0.5394 -0.1196  0.1332
 1024MOL0     C38123   0.039   5.074   1.194 -0.3387 -0.4722  0.0002
 1024MOL0     C38124  -0.063   4.992   1.149 -0.1844  0.7372  0.3690
 1024MOL0     C38125  -0.135   4.884   1.214  0.8504 -0.0804  0.1148
 1024MOL0     C38126  -0.082   4.826   1.348  0.3898  0.2713 -0.2769
 1024MOL0     C38127  -0.057   4.671   1.344  0.4754  0.4790 -0.4111
 1024MOL0     C38128   0.072   4.653   1.254 -0.0806  0.2330 -0.5620
 1024MOL0     O38129   0.172   4.739   1.310 -0.9561  0.0842 -0.1021
 1024MOL0     C38130   0.293   4.719   1.257  0.0221  0.2653  0.7544
 1024MOL0     C38131   0.382   4.623   1.303 -0.2766  0.0270 -0.4922
 1024MOL0     C38132   0.506   4.607   1.238  0.0131 -0.0502  1.7639
 1024MOL0     C38133   0.551   4.706   1.148 -0.4483  0.2861  1.0090
 1024MOL0     C38134   0.692   4.696   1.091 -0.5375  0.2979 -0.7785
 1024MOL0     O38135   0.785   4.600   1.132 -0.6665 -0.0321  0.2536
 1024MOL0     C38136   0.916   4.619   1.086 -0.4222  0.0820  0.0029
 1024MOL0     C38137   0.986   4.731   1.139  0.1337  0.1873  0.3139
 1024MOL0     C38138   1.119   4.753   1.100 -0.0279  0.0630  0.0158
 1024MOL0     C38139   1.186   4.657   1.015  1.0886 -0.4669  0.2011
 1024MOL0     O38140   1.309   4.688   0.972  0.0841  1.1512 -0.1923
 1024MOL0     C38141   1.342   4.651   0.836 -0.0897  0.5261  0.3915
 1024MOL0     C38142   1.443   4.548   0.854  0.7370  0.2136 -0.8753
 1024MOL0     C38143   1.517   4.520   0.726 -1.2561  0.4167  0.1559
 1024MOL0     C38144   1.635   4.428   0.764 -0.6635 -0.1747 -0.5937
 1024MOL0     C38145   1.747   4.407   0.658  1.0163 -0.8691 -1.5218
 1024MOL0     C38146   1.840   4.535   0.648 -0.1513 -0.0324  0.7274
 1024MOL0     C38147   1.952   4.527   0.538  0.0156 -0.0112 -0.0022
 1024MOL0     C38148   2.048   4.412   0.544 -0.5966  0.4895 -0.5441
 1024MOL0    Cl38149   2.137   4.405   0.698 -0.1430 -0.1775  0.4920
 1024MOL0     C38150   1.117   4.535   0.979  0.7411 -0.6755 -0.1292
 1024MOL0     C38151   0.983   4.522   1.015 -0.3955  0.3419  1.1881
 1024MOL0     O38152   0.716   4.788   1.009  0.9604  1.0093 -0.0334
 1024MOL0     C38153   0.462   4.801   1.107 -0.0775  0.5223  0.2130
 1024MOL0     C38154   0.339   4.812   1.162  0.9750  1.1750  0.5449
 1024MOL0     N38155  -0.105   5.038   1.025  0.3371 -0.0159 -0.2254
 1024MOL0     N38156  -0.035   5.141   0.999 -0.6644  0.1203  0.7591
 1024MOL0     C38157   1.097   5.628   1.168  0.2916  1.0115  0.1751
 1024MOL0     C38158   1.228   5.574   1.184 -0.5298  0.2880  0.3597
 1024MOL0     C38159   1.527   5.236   1.227 -0.2660  0.4638 -1.3195
 1024MOL0     C38160   1.624   5.294   1.320  0.1132  0.2125 -0.4877
 1024MOL0     C38161   1.752   5.245   1.325 -1.1784 -0.8410  0.7511
 1024MOL0     C38162   1.793   5.137   1.253  0.4718  0.2129  0.1007
 1024MOL0     O38163   1.911   5.077   1.261  0.2380  0.4417  0.4484
 1024MOL0     C38164   2.020   5.167   1.289  0.0077  0.3500  0.5059
 1024MOL0     C38165   2.160   5.107   1.270 -0.2845  0.3223 -0.3724
 1024MOL0     C38166   2.169   5.066   1.119 -0.9981  0.9825  0.8517
 1024MOL0     C38167   2.308   4.982   1.091  0.8632 -0.0666  0.2835
 1024MOL0     C38168   2.431   5.053   1.128 -0.9490  0.3534 -0.0694
 1024MOL0     C38169   2.534   5.111   1.159 -0.2254 -0.8193 -0.1340
 1024MOL0     C38170   1.702   5.076   1.170  0.5572  0.7970 -0.0797
 1024MOL0     C38171   1.572   5.122   1.150 -0.8656 -0.0808  0.5326
 1024MOL0     C38172   1.485   5.050   1.045  0.6100 -0.4485 -0.2372
 1024MOL0     H38173   1.169   5.365   1.447  0.5512 -0.4134 -0.6817
 1024MOL0     H38174   0.969   5.500   1.459 -0.6060  1.1280 -0.6176
 1024MOL0     H38175   0.777   5.532   1.145  1.1343 -1.5119  1.3747
 1024MOL0     H38176   0.756   5.517   1.321  0.6820  0.3681 -0.4004
 1024MOL0     H38177   0.680   5.746   1.148  1.8398 -2.1962 -0.8845
 1024MOL0     H38178   0.643   5.734   1.327  0.5667 -1.0180  0.2548
 1024MOL0     H38179   0.546   5.541   1.107 -0.0041  2.4047 -1.8143
 1024MOL0     H38180   0.447   5.677   1.165 -1.2100 -0.8353  0.9871
 1024MOL0     H38181   0.538   5.510   1.383 -0.5232 -1.4034 -0.4590
 1024MOL0     H38182   0.390   5.610   1.377  1.5267  1.4473 -1.0302
 1024MOL0     H38183   0.407   5.335   1.260 -0.3391 -0.6014  0.0313
 1024MOL0     H38184   0.295   5.389   1.374 -2.0106 -3.6314 -2.2039
 1024MOL0     H38185   0.217   5.573   1.191  1.9038  0.3380 -2.0294
 1024MOL0     H38186   0.311   5.473   1.085 -0.0397 -1.2252 -0.7620
 1024MOL0     H38187   0.048   5.427   1.152 -0.9541  0.2869 -2.7090
 1024MOL0     H38188   0.133   5.328   1.269 -2.1685  0.8412  0.2698
 1024MOL0     H38189   0.198   5.270   0.977 -0.2308  0.9781 -0.3325
 1024MOL0     H38190   0.255   5.202   1.131 -0.4368 -0.7282 -0.3178
 1024MOL0     H38191   0.087   5.056   1.290  1.5365 -2.9463 -1.2896
 1024MOL0     H38192  -0.239   4.906   1.240  1.2489 -0.5872  2.3748
 1024MOL0     H38193  -0.138   4.796   1.149  0.9058  0.2253 -0.3027
 1024MOL0     H38194   0.002   4.883   1.389  0.8866 -0.9425  0.4494
 1024MOL0     H38195  -0.168   4.837   1.415 -1.6800 -4.2651 -1.8023
 1024MOL0     H38196  -0.141   4.616   1.301  1.4541 -1.2969 -0.1113
 1024MOL0     H38197  -0.035   4.636   1.445 -2.1496 -2.2693 -0.6510
 1024MOL0     H38198   0.063   4.677   1.148  0.6606 -0.4903 -0.8068
 1024MOL0     H38199   0.114   4.552   1.253  1.2608  0.7482 -2.4407
 1024MOL0     H38200   0.354   4.559   1.386  0.1142  1.0065  0.4336
 1024MOL0     H38201   0.587   4.542   1.271 -0.5991 -2.3394 -0.8097
 1024MOL0     H38202   0.931   4.790   1.212 -0.1861  0.2403  0.0315
 1024MOL0     H38203   1.179   4.838   1.131 -0.6988  0.4659  0.2186
 1024MOL0     H38204   1.262   4.610   0.774  0.1903  3.0884 -1.8696
 1024MOL0     H38205   1.388   4.737   0.786  1.7999 -0.4675  0.3489
 1024MOL0     H38206   1.515   4.587   0.928 -1.1774 -0.4966  1.4810
 1024MOL0     H38207   1.410   4.454   0.898  1.1794 -0.3719 -1.7642
 1024MOL0     H38208   1.458   4.466   0.651  0.3885 -3.0794  1.1436
 1024MOL0     H38209   1.555   4.616   0.689  1.0934 -1.6544 -3.4881
 1024MOL0     H38210   1.596   4.327   0.781 -2.6574  0.6540  0.0569
 1024MOL0     H38211   1.677   4.459   0.860 -0.5551  1.4601 -1.1336
 1024MOL0     H38212   1.691   4.380   0.568 -3.2865 -1.6089  1.0730
 1024MOL0     H38213   1.807   4.319   0.682 -0.5594 -1.6254 -0.1580
 1024MOL0     H38214   1.781   4.624   0.627 -2.4263 -1.4672  0.6534
 1024MOL0     H38215   1.883   4.561   0.745  1.4249  2.0645 -0.4411
 1024MOL0     H38216   2.012   4.619   0.546  1.9301 -1.3122  1.6607
 1024MOL0     H38217   1.901   4.521   0.442 -1.0336 -3.9515  0.6587
 1024MOL0     H38218   1.993   4.320   0.521  1.3947 -1.0517  0.4683
 1024MOL0     H38219   2.130   4.422   0.473 -1.7900  2.0283 -1.7903
 1024MOL0     H38220   1.159   4.460   0.914  3.9962  1.8602 -1.2190
 1024MOL0     H38221   0.934   4.428   0.991 -0.0934  0.5020 -0.0952
 1024MOL0     H38222   0.487   4.886   1.045 -1.1499  0.9086  0.2801
 1024MOL0     H38223   0.270   4.884   1.118  0.7989 -0.0250 -1.2674
 1024MOL0     H38224   1.067   5.694   1.087  0.4098  0.6289 -0.1830
 1024MOL0     H38225   1.305   5.590   1.108 -1.2152  1.2954 -0.1435
 1024MOL0     H38226   1.584   5.373   1.382 -3.0738 -2.2683  0.9052
 1024MOL0     H38227   1.828   5.287   1.391 -0.9625 -0.1312  0.0691
 1024MOL0     H38228   2.012   5.198   1.394  1.5124 -0.6167  0.9455
 1024MOL0     H38229   2.012   5.256   1.225  1.2877 -2.1569 -3.4509
 1024MOL0     H38230   2.174   5.025   1.341 -4.3078  0.6677  1.1071
 1024MOL0     H38231   2.231   5.189   1.285 -1.5709  1.5066 -0.5780
 1024MOL0     H38232   2.174   5.155   1.055  3.0642  0.9978  0.9731
 1024MOL0     H38233   2.089   5.000   1.085  0.0688 -1.1197  2.2837
 1024MOL0     H38234   2.299   4.882   1.134  1.1352 -0.6066 -0.8958
 1024MOL0     H38235   2.318   4.969   0.983 -1.2272  3.1758 -0.4281
 1024MOL0     H38236   2.631   5.153   1.174  0.8494 -2.3535 -2.2855
 1024MOL0     H38237   1.734   4.990   1.112  0.7769 -0.0722  1.2777
 1024MOL0     H38238   1.551   4.984   0.987  0.8021 -0.5143  0.0547
 1024MOL0     H38239   1.399   4.998   1.087 -2.0215  2.2482 -1.8551
 1024MOL0     H38240   1.437   5.122   0.978 -2.2640 -1.7803  0.2673
  11.39324  11.39324  11.39324
